VIBRIO VULNIFICUS A-RIBOSWITCH in water
132253
   13C      O5'    1   6.859   7.850  10.662  0.4345  0.1833  0.0596
   13C      H5T    2   6.949   7.879  10.674  0.3691  0.3118  0.2327
   13C      C5'    3   6.852   7.830  10.519 -0.0194 -0.3512 -0.3355
   13C     H5'1    4   6.749   7.805  10.496 -1.8339  2.0686  4.0049
   13C     H5'2    5   6.913   7.741  10.501 -2.3057 -1.6897 -1.9332
   13C      C4'    6   6.909   7.956  10.445  0.1922 -1.5028 -0.4858
   13C      H4'    7   6.831   8.033  10.441  0.8060 -0.6831  1.8607
   13C      O4'    8   7.028   8.009  10.505  0.8671  0.4726 -0.1464
   13C      C1'    9   7.140   7.970  10.431 -0.0822 -0.2166  0.2255
   13C      H1'   10   7.175   8.059  10.378  0.4005 -0.1883  0.5898
   13C       N1   11   7.252   7.930  10.525  0.1262 -0.0117 -1.3016
   13C       C6   12   7.294   7.797  10.533  0.5372 -0.3186  0.2977
   13C       H6   13   7.254   7.725  10.462 -0.9167 -0.0231  0.7852
   13C       C5   14   7.388   7.760  10.625 -0.2328 -0.3559 -0.6544
   13C       H5   15   7.415   7.656  10.636  1.0988  0.0535  0.2233
   13C       C4   16   7.445   7.863  10.706  0.5439 -0.2798  0.5472
   13C       N4   17   7.516   7.836  10.808  0.3302 -0.2868 -0.9943
   13C      H41   18   7.553   7.746  10.836  1.9137  0.8395  0.8265
   13C      H42   19   7.522   7.912  10.874  0.3959 -1.1042 -0.0199
   13C       N3   20   7.404   7.990  10.699  0.8065  0.6047  0.3070
   13C       C2   21   7.320   8.029  10.598  0.0597 -0.6111 -0.5002
   13C       O2   22   7.315   8.146  10.565 -0.5915  0.8946  0.1543
   13C      C3'   23   6.942   7.922  10.306  0.1379 -0.8187 -0.0729
   13C      H3'   24   6.872   7.851  10.262 -1.8235  2.1289 -2.0570
   13C      C2'   25   7.083   7.868  10.328  0.4268  0.2838 -0.2335
   13C     H2'1   26   7.077   7.770  10.375 -0.6127 -0.9200 -2.7235
   13C      O2'   27   7.174   7.843  10.222  0.5882 -0.8295  0.3285
   13C     HO'2   28   7.190   7.920  10.167  4.9662 -1.3417  0.5218
   13C      O3'   29   6.955   8.043  10.235 -0.4383 -0.4925 -0.2892
   14G        P   30   6.994   8.051  10.081 -0.3634 -0.2769 -0.1385
   14G      O1P   31   6.929   8.176  10.033  0.4301  0.5252 -0.3586
   14G      O2P   32   6.951   7.917  10.018 -0.1223 -0.1208 -0.4784
   14G      O5'   33   7.160   8.074  10.077 -0.3924 -0.0919 -0.4905
   14G      C5'   34   7.221   8.205  10.069 -0.4585  0.3019  0.0463
   14G     H5'1   35   7.168   8.272  10.136  0.5227  0.8878  0.2557
   14G     H5'2   36   7.201   8.244   9.969 -0.2535  1.8757  0.5958
   14G      C4'   37   7.370   8.210  10.099 -0.5555  0.5247  0.2205
   14G      H4'   38   7.407   8.310  10.120  2.8497 -0.4051 -0.6836
   14G      O4'   39   7.392   8.117  10.209 -0.2602  0.0682 -0.0292
   14G      C1'   40   7.521   8.063  10.185 -0.1305 -0.4057 -0.4906
   14G      H1'   41   7.590   8.114  10.253 -0.7654  2.9853 -2.1463
   14G       N9   42   7.520   7.921  10.228  0.0918  0.4175  0.1166
   14G       C8   43   7.454   7.808  10.180 -0.2026  0.0670 -0.0116
   14G       H8   44   7.380   7.819  10.102  1.5601  0.7225 -1.6815
   14G       N7   45   7.489   7.696  10.227  0.2910  0.0825 -0.8908
   14G       C5   46   7.576   7.726  10.328  0.0516 -0.5466 -0.8117
   14G       C6   47   7.637   7.636  10.426 -0.2047 -0.5600  1.0983
   14G       O6   48   7.630   7.514  10.437 -0.7564  0.0207 -0.0695
   14G       N1   49   7.721   7.706  10.510  0.3246 -0.1035 -0.4799
   14G       H1   50   7.783   7.648  10.565 -2.6683 -2.4578  0.7384
   14G       C2   51   7.735   7.842  10.513 -0.1606  0.3876 -0.4854
   14G       N2   52   7.800   7.888  10.617 -0.1038  0.4952  0.5761
   14G      H21   53   7.848   7.833  10.686 -0.3192 -0.2858  0.1127
   14G      H22   54   7.821   7.987  10.622  1.1931  0.2844 -0.3596
   14G       N3   55   7.666   7.920  10.436  0.3240 -0.5096  0.3796
   14G       C4   56   7.595   7.862  10.332 -0.0611  0.4280  0.0467
   14G      C3'   57   7.452   8.157   9.982  0.2908 -0.2227 -0.6634
   14G      H3'   58   7.394   8.082   9.928 -0.5297 -1.8028  2.2033
   14G      C2'   59   7.566   8.081  10.048 -0.6014 -0.0004  0.1925
   14G     H2'1   60   7.572   7.987   9.992  0.3281  0.5888 -0.7411
   14G      O2'   61   7.686   8.153  10.047 -0.4227  0.0556  0.0466
   14G     HO'2   62   7.699   8.183   9.956 -1.8311  0.7233  0.0282
   14G      O3'   63   7.494   8.259   9.895  0.5017  0.1863 -0.6636
   15C        P   64   7.545   8.219   9.749 -0.1653  0.0804 -0.3048
   15C      O1P   65   7.509   8.336   9.664  0.1055 -0.2380  0.2816
   15C      O2P   66   7.499   8.081   9.709  0.0742  0.2849  0.3361
   15C      O5'   67   7.702   8.219   9.769  0.4531 -0.2295 -0.4052
   15C      C5'   68   7.791   8.329   9.762 -0.3613  0.2637  0.9058
   15C     H5'1   69   7.759   8.387   9.849 -2.5831 -1.1851  1.1377
   15C     H5'2   70   7.782   8.391   9.673  1.4234  1.0150  1.2042
   15C      C4'   71   7.934   8.278   9.778  0.5772  0.0738  0.1253
   15C      H4'   72   8.003   8.361   9.794  0.2072  0.6702 -1.2123
   15C      O4'   73   7.946   8.186   9.885  0.3279  0.5429  0.1514
   15C      C1'   74   8.046   8.088   9.848  0.6697 -0.2996  1.0203
   15C      H1'   75   8.118   8.091   9.930  1.3868 -0.1707  0.4000
   15C       N1   76   7.987   7.949   9.839  0.1420  0.7686  0.1935
   15C       C6   77   7.854   7.926   9.842 -0.2269  0.7086 -0.2955
   15C       H6   78   7.785   8.009   9.831  1.3436  1.9843 -0.8343
   15C       C5   79   7.810   7.796   9.843 -0.4813  0.0802 -0.2588
   15C       H5   80   7.706   7.767   9.845  0.1352 -2.7303 -2.3463
   15C       C4   81   7.904   7.688   9.832  0.0353 -0.5052  0.0637
   15C       N4   82   7.859   7.567   9.836 -0.1230  0.4850 -0.2817
   15C      H41   83   7.761   7.551   9.820  0.2663 -1.5353 -0.9314
   15C      H42   84   7.930   7.495   9.836  1.1861  1.6858 -2.0098
   15C       N3   85   8.034   7.712   9.839  0.1820 -0.4151  0.0991
   15C       C2   86   8.074   7.842   9.835 -1.0947 -0.2093 -0.1519
   15C       O2   87   8.195   7.863   9.821 -0.4320  0.0512  0.6347
   15C      C3'   88   7.987   8.203   9.655  1.0092  0.3504  0.0524
   15C      H3'   89   7.911   8.137   9.613 -0.2635  2.3146 -0.8540
   15C      C2'   90   8.100   8.136   9.715  0.1797  0.0820  0.0032
   15C     H2'1   91   8.139   8.064   9.642  2.6509  0.9870  0.3138
   15C      O2'   92   8.208   8.225   9.734  0.3219 -0.5924  0.1374
   15C     HO'2   93   8.218   8.277   9.654 -1.7600 -0.1232  0.1002
   15C      O3'   94   8.032   8.291   9.547 -0.5308 -0.2100 -0.3745
   16U        P   95   8.045   8.235   9.403  0.0614  0.1433  0.0481
   16U      O1P   96   8.111   8.330   9.316  0.0611 -0.0287  0.9253
   16U      O2P   97   7.914   8.196   9.364 -0.4368  0.1324  0.0872
   16U      O5'   98   8.131   8.095   9.408 -0.3815 -0.0429 -0.9855
   16U      C5'   99   8.273   8.097   9.406 -0.6015  0.1714  0.0293
   16U     H5'1  100   8.312   8.158   9.487  0.0019  0.2348 -0.2996
   16U     H5'2  101   8.300   8.142   9.310 -0.0221 -2.7769 -1.3202
   16U      C4'  102   8.352   7.966   9.402 -0.0414 -0.4768 -0.0666
   16U      H4'  103   8.458   7.985   9.416  0.7540 -1.2697 -3.8655
   16U      O4'  104   8.297   7.884   9.505 -0.2262 -0.1499  0.2420
   16U      C1'  105   8.324   7.751   9.462 -0.1235 -0.1636  0.5715
   16U      H1'  106   8.409   7.710   9.516 -1.0913  1.2494  3.3060
   16U       N1  107   8.207   7.671   9.502 -0.2471 -0.5364 -0.8138
   16U       C6  108   8.076   7.722   9.502 -0.0507  0.7345 -0.3018
   16U       H6  109   8.051   7.827   9.492 -0.9121  0.4316 -1.6242
   16U       C5  110   7.970   7.637   9.496 -0.0502 -0.1368  0.1650
   16U       H5  111   7.870   7.678   9.496  0.9259  2.5359  2.1943
   16U       C4  112   7.993   7.495   9.496  0.3828  0.7452  0.6021
   16U       O4  113   7.904   7.406   9.485  0.4650  0.0832 -0.0646
   16U       N3  114   8.122   7.452   9.514  0.0303 -0.1439 -0.5157
   16U       H3  115   8.150   7.356   9.499  0.8291  0.2886 -1.9876
   16U       C2  116   8.231   7.536   9.507 -0.7159 -0.1075 -0.2083
   16U       O2  117   8.338   7.472   9.516  0.4482  0.2935  0.1871
   16U      C3'  118   8.334   7.895   9.264  0.1776 -0.4387 -0.1551
   16U      H3'  119   8.236   7.915   9.222 -0.1217 -1.2825  0.1134
   16U      C2'  120   8.345   7.750   9.316  0.1781  0.2912  0.0986
   16U     H2'1  121   8.271   7.685   9.270  0.4520 -1.1089  1.5539
   16U      O2'  122   8.471   7.693   9.289 -0.5205  0.2310 -0.3304
   16U     HO'2  123   8.482   7.689   9.194 -3.1665  0.5758 -0.7248
   16U      O3'  124   8.417   7.924   9.148 -0.1351 -0.5034  0.5677
   17U        P  125   8.382   7.855   9.004 -0.3053 -0.3626 -0.1627
   17U      O1P  126   8.433   7.935   8.893  0.2495 -0.1389 -0.2713
   17U      O2P  127   8.237   7.828   9.001  0.0217 -0.0250  0.2422
   17U      O5'  128   8.460   7.718   9.016  0.1547  0.0918 -0.3150
   17U      C5'  129   8.597   7.711   8.985  0.2177 -0.2019  0.0044
   17U     H5'1  130   8.653   7.753   9.068 -2.2650  1.3425  1.0092
   17U     H5'2  131   8.621   7.761   8.891 -0.3603  0.0541 -0.0118
   17U      C4'  132   8.639   7.562   8.981 -0.1978  0.4021 -0.1784
   17U      H4'  133   8.747   7.553   8.968 -0.2599 -1.2526  0.2954
   17U      O4'  134   8.609   7.494   9.102  0.7580  0.0900 -0.7188
   17U      C1'  135   8.567   7.366   9.072 -0.4753  0.9580  0.3154
   17U      H1'  136   8.621   7.307   9.147 -3.0798  0.9751  2.3781
   17U       N1  137   8.423   7.329   9.106  0.1384  0.6556 -0.0667
   17U       C6  138   8.322   7.424   9.110  0.9015  0.5006  0.5429
   17U       H6  139   8.344   7.526   9.082 -1.1900  0.2793 -2.3848
   17U       C5  140   8.196   7.388   9.144  0.0840  0.5757  0.7799
   17U       H5  141   8.118   7.463   9.147 -1.4126 -0.9343  1.4159
   17U       C4  142   8.162   7.259   9.190 -0.0189  0.0079  1.2680
   17U       O4  143   8.055   7.217   9.217  0.4690 -0.2642 -0.8300
   17U       N3  144   8.267   7.174   9.175  0.5990 -0.4406 -0.3298
   17U       H3  145   8.251   7.086   9.221  0.0248  0.6629  1.7195
   17U       C2  146   8.393   7.198   9.130 -0.1901  0.4125 -0.2796
   17U       O2  147   8.459   7.103   9.104 -0.9686  0.2114  0.1637
   17U      C3'  148   8.581   7.468   8.878  0.3890  0.1582  1.0090
   17U      H3'  149   8.474   7.490   8.876 -0.0594 -1.7549 -1.6373
   17U      C2'  150   8.609   7.331   8.928 -0.1276 -0.0717  0.2535
   17U     H2'1  151   8.548   7.253   8.881 -0.9405  1.1596 -0.8355
   17U      O2'  152   8.756   7.303   8.917  0.3178  0.4697  0.1997
   17U     HO'2  153   8.803   7.333   8.839  2.3566 -0.2543  1.0862
   17U      O3'  154   8.646   7.493   8.750 -0.4339 -0.8941 -0.1142
   18C        P  155   8.559   7.465   8.620 -0.1689 -0.0166  0.0562
   18C      O1P  156   8.633   7.517   8.504  0.3790  0.2599 -0.2518
   18C      O2P  157   8.417   7.509   8.647 -0.5653 -0.1260  0.0606
   18C      O5'  158   8.561   7.304   8.618  0.2676 -0.3968 -0.1872
   18C      C5'  159   8.674   7.227   8.575  0.3434 -0.2602 -0.0559
   18C     H5'1  160   8.758   7.256   8.638  0.3581  0.6088 -0.4684
   18C     H5'2  161   8.700   7.249   8.472  1.5488  0.9610  0.4680
   18C      C4'  162   8.636   7.076   8.603 -0.3181 -1.3046 -0.2613
   18C      H4'  163   8.730   7.021   8.604 -1.5215 -3.5423  1.8285
   18C      O4'  164   8.578   7.054   8.733  0.4031 -0.7079 -0.5121
   18C      C1'  165   8.484   6.951   8.722 -0.5385  0.8453  0.6210
   18C      H1'  166   8.517   6.864   8.779 -0.3944  2.0187  2.4029
   18C       N1  167   8.357   6.990   8.784 -0.4016 -0.0915 -0.4369
   18C       C6  168   8.303   7.112   8.786  0.1486  0.0388  0.2803
   18C       H6  169   8.358   7.188   8.733  1.8414  0.7294  2.8248
   18C       C5  170   8.184   7.134   8.843 -0.7169  0.8473 -0.1436
   18C       H5  171   8.138   7.231   8.832  1.9075  1.9511 -2.9836
   18C       C4  172   8.115   7.024   8.899 -0.1976 -0.8429  0.3858
   18C       N4  173   7.991   7.050   8.949 -0.0789  0.3332 -0.1942
   18C      H41  174   7.961   7.146   8.954  0.4328  0.4576  0.7188
   18C      H42  175   7.927   6.986   8.993 -2.9151  2.1611 -1.4089
   18C       N3  176   8.164   6.904   8.904 -0.9269 -0.0488 -0.1551
   18C       C2  177   8.285   6.887   8.851 -0.2298  0.3662 -0.9507
   18C       O2  178   8.330   6.769   8.855 -0.9976  0.1661 -0.2763
   18C      C3'  179   8.528   7.020   8.504 -0.2063 -0.1936  0.2283
   18C      H3'  180   8.444   7.090   8.500 -1.2272 -1.2411  2.0819
   18C      C2'  181   8.477   6.897   8.581  0.3988  0.5015  0.9711
   18C     H2'1  182   8.371   6.892   8.553  0.9286  2.1619 -1.7749
   18C      O2'  183   8.552   6.777   8.577 -0.5007 -0.3391 -0.3479
   18C     HO'2  184   8.616   6.797   8.508  0.4085  0.4571  0.6860
   18C      O3'  185   8.593   7.004   8.380  0.0488  0.2470 -0.1624
   19A        P  186   8.525   7.028   8.235 -0.1809 -0.2653 -0.2173
   19A      O1P  187   8.622   7.019   8.125 -0.6255 -0.4599 -0.8800
   19A      O2P  188   8.437   7.136   8.256 -0.1832 -0.1217 -0.1297
   19A      O5'  189   8.430   6.893   8.226  0.5573 -0.0833  1.0634
   19A      C5'  190   8.483   6.755   8.222 -0.5415  0.0514 -0.6168
   19A     H5'1  191   8.564   6.756   8.295 -0.5145 -3.2448 -0.4324
   19A     H5'2  192   8.516   6.740   8.119  1.3564 -3.8880  0.3687
   19A      C4'  193   8.381   6.650   8.260 -0.4642 -0.6137 -0.5688
   19A      H4'  194   8.430   6.553   8.260 -0.7161 -0.7525 -1.9499
   19A      O4'  195   8.318   6.679   8.382 -0.1638 -0.2517  0.3359
   19A      C1'  196   8.193   6.627   8.391 -0.1840  0.4040 -0.5423
   19A      H1'  197   8.190   6.548   8.466 -0.6604  2.5299  1.7980
   19A       N9  198   8.096   6.726   8.448 -0.3594  0.6095  1.4224
   19A       C8  199   8.115   6.864   8.463  0.1918  0.0590  0.1310
   19A       H8  200   8.192   6.931   8.429 -1.6319  1.8474 -0.7190
   19A       N7  201   8.012   6.925   8.517 -0.3401 -0.1619  0.5369
   19A       C5  202   7.918   6.822   8.538  0.4935 -0.6825  0.0558
   19A       C6  203   7.792   6.811   8.603 -0.0403  0.8230 -0.3718
   19A       N6  204   7.716   6.915   8.639  0.6492 -0.1452  0.0754
   19A      H61  205   7.740   7.012   8.625  1.6548 -0.4374 -0.3037
   19A      H62  206   7.619   6.913   8.667  0.0178 -1.8395 -2.0024
   19A       N1  207   7.726   6.696   8.616  0.2599  0.2810 -0.4249
   19A       C2  208   7.792   6.590   8.572  0.0181  0.2269  0.5419
   19A       H2  209   7.745   6.494   8.590  1.0770 -0.5622 -0.7031
   19A       N3  210   7.910   6.582   8.508  0.6259  0.1101 -0.0927
   19A       C4  211   7.970   6.702   8.499 -0.1970  0.8983 -0.3358
   19A      C3'  212   8.260   6.652   8.162  0.2242 -0.3918  0.2830
   19A      H3'  213   8.246   6.758   8.138  1.8107 -0.7564 -2.7764
   19A      C2'  214   8.157   6.577   8.249 -0.5907 -0.8457  1.0109
   19A     H2'1  215   8.056   6.606   8.218  0.2438  2.9820  1.3171
   19A      O2'  216   8.195   6.444   8.249 -1.1567  0.3970 -0.0272
   19A     HO'2  217   8.284   6.433   8.213 -0.9174 -2.0127  1.1457
   19A      O3'  218   8.286   6.573   8.049 -0.4893  0.3205  0.2075
   20U        P  219   8.216   6.597   7.916  0.0904 -0.1903  0.1104
   20U      O1P  220   8.261   6.490   7.825 -0.1940  0.2235  0.2920
   20U      O2P  221   8.218   6.735   7.875  0.5600  0.2384  0.9060
   20U      O5'  222   8.054   6.571   7.938  0.4322  0.3555 -0.0066
   20U      C5'  223   7.999   6.442   7.969 -0.0223 -1.0384 -0.2675
   20U     H5'1  224   8.069   6.388   8.033  1.0518 -0.4043 -0.8966
   20U     H5'2  225   7.992   6.380   7.879  0.0407 -0.6117 -0.5638
   20U      C4'  226   7.860   6.454   8.025 -0.0818  0.6913  0.2382
   20U      H4'  227   7.829   6.350   8.026  2.0394 -0.0013 -1.1116
   20U      O4'  228   7.840   6.501   8.157  0.1749 -0.5892 -0.6187
   20U      C1'  229   7.703   6.548   8.175 -0.1140 -0.2357 -0.1529
   20U      H1'  230   7.667   6.500   8.267  2.2488 -2.0471 -0.0644
   20U       N1  231   7.696   6.694   8.198  0.3371  0.3895 -0.0706
   20U       C6  232   7.786   6.788   8.159  1.2106  0.0601  0.5112
   20U       H6  233   7.866   6.759   8.092  1.1181  0.5603  0.1784
   20U       C5  234   7.755   6.921   8.171  0.2155 -0.0013 -0.1697
   20U       H5  235   7.815   6.992   8.116  1.6520  0.2912  1.6660
   20U       C4  236   7.646   6.964   8.254 -0.5214  0.7377 -1.3903
   20U       O4  237   7.632   7.072   8.297 -0.1477 -0.5800  0.0422
   20U       N3  238   7.562   6.868   8.292 -0.3128 -0.3579  0.0794
   20U       H3  239   7.482   6.895   8.348 -0.3663 -3.7182  1.9254
   20U       C2  240   7.581   6.736   8.274  0.2609 -0.4662  0.3545
   20U       O2  241   7.487   6.658   8.303  0.1239  0.5308  0.4231
   20U      C3'  242   7.750   6.532   7.948 -0.2670  1.0392  0.3126
   20U      H3'  243   7.778   6.637   7.945  0.7703  0.8591  2.2060
   20U      C2'  244   7.630   6.514   8.052 -0.6069  0.0658  0.1402
   20U     H2'1  245   7.555   6.591   8.035 -0.0947  0.5009 -0.2210
   20U      O2'  246   7.566   6.384   8.061  0.6388 -0.3251  0.1967
   20U     HO'2  247   7.496   6.373   7.996  1.6134 -1.5473 -0.7051
   20U      O3'  248   7.716   6.471   7.825  0.3256  0.0368  0.2237
   21A        P  249   7.632   6.546   7.710  0.2390 -0.3156  0.0790
   21A      O1P  250   7.608   6.455   7.597 -0.3061  0.3196  0.6783
   21A      O2P  251   7.711   6.668   7.682  0.3387  0.1616  0.1218
   21A      O5'  252   7.493   6.590   7.779 -0.3446  0.5388  0.0179
   21A      C5'  253   7.382   6.503   7.785 -0.8293  1.3769 -0.2831
   21A     H5'1  254   7.345   6.502   7.888  0.3191  1.8380  0.1444
   21A     H5'2  255   7.423   6.407   7.754  3.7335  3.3943 -1.3327
   21A      C4'  256   7.268   6.550   7.693  0.0614 -0.2900  0.3021
   21A      H4'  257   7.222   6.455   7.667  0.8616 -0.3423 -1.0651
   21A      O4'  258   7.170   6.633   7.745 -0.8148 -0.5699  0.2163
   21A      C1'  259   7.083   6.685   7.651 -0.4862  0.4924  0.3578
   21A      H1'  260   6.982   6.644   7.648 -1.1748  2.0350  1.0805
   21A       N9  261   7.083   6.833   7.664  0.3097 -0.5506 -1.0424
   21A       C8  262   7.198   6.911   7.678  0.3121  0.3291  0.3205
   21A       H8  263   7.300   6.877   7.678  1.5624  3.6662 -0.7964
   21A       N7  264   7.175   7.036   7.656 -0.6013  0.0037  0.3247
   21A       C5  265   7.036   7.049   7.639 -0.6999  0.3931 -0.3182
   21A       C6  266   6.945   7.156   7.624  0.7335  0.4562 -0.0496
   21A       N6  267   6.970   7.289   7.624  0.4280  0.0487 -0.0253
   21A      H61  268   7.066   7.319   7.625  0.3464  0.3011  1.0060
   21A      H62  269   6.895   7.356   7.613 -1.5799 -2.1488 -0.6742
   21A       N1  270   6.818   7.129   7.603 -0.1836 -0.5586 -0.3669
   21A       C2  271   6.775   7.003   7.611  0.3352  0.8135  0.3301
   21A       H2  272   6.669   6.989   7.598  0.1838  1.3543  0.9310
   21A       N3  273   6.849   6.891   7.623 -0.6317 -0.3120  0.5535
   21A       C4  274   6.980   6.921   7.647  0.0937  0.3153  0.6442
   21A      C3'  275   7.306   6.611   7.566  0.0375  0.1140  1.1386
   21A      H3'  276   7.368   6.698   7.588  1.9463 -0.9409  0.1915
   21A      C2'  277   7.165   6.664   7.523  0.5069 -0.4216 -0.3380
   21A     H2'1  278   7.162   6.751   7.458  1.3415  2.6083  3.3464
   21A      O2'  279   7.107   6.562   7.440  0.5083  0.1091 -0.4285
   21A     HO'2  280   7.159   6.550   7.360  1.5639  1.6118 -0.0174
   21A      O3'  281   7.373   6.537   7.469  0.1739  0.1560  0.7963
   22U        P  282   7.427   6.612   7.341  0.6041  0.1176  0.0390
   22U      O1P  283   7.532   6.528   7.281 -0.4365  0.5666  0.1488
   22U      O2P  284   7.456   6.746   7.380 -0.2786  0.0763 -0.3862
   22U      O5'  285   7.304   6.617   7.246  0.1917 -0.0337  0.1981
   22U      C5'  286   7.311   6.541   7.124  0.0051  0.0647 -0.2306
   22U     H5'1  287   7.322   6.433   7.137 -1.9096 -0.2723 -1.0403
   22U     H5'2  288   7.397   6.571   7.064  0.0814 -0.5848 -0.4507
   22U      C4'  289   7.183   6.559   7.041 -0.1387 -0.0475 -1.0219
   22U      H4'  290   7.194   6.502   6.949 -0.8712 -2.6202  0.4045
   22U      O4'  291   7.074   6.510   7.114 -0.0924  0.6834 -0.2120
   22U      C1'  292   6.962   6.576   7.058  1.3483  0.0491 -0.4742
   22U      H1'  293   6.906   6.512   6.991  1.8450 -1.8419  0.8476
   22U       N1  294   6.860   6.616   7.163  0.8651 -0.0264  0.9104
   22U       C6  295   6.741   6.544   7.169 -0.5547  0.1381 -0.9978
   22U       H6  296   6.729   6.456   7.108  2.3175 -0.1091 -1.3363
   22U       C5  297   6.655   6.575   7.271  0.3915 -0.5387  0.5394
   22U       H5  298   6.569   6.511   7.283  0.5790 -1.4102 -2.2176
   22U       C4  299   6.664   6.684   7.365 -0.3295 -0.3866  0.5201
   22U       O4  300   6.575   6.717   7.443 -0.8215 -0.3099 -0.1943
   22U       N3  301   6.789   6.749   7.353  0.1424  0.1760  0.2451
   22U       H3  302   6.817   6.828   7.409  2.6083  2.1267 -3.2681
   22U       C2  303   6.884   6.721   7.250  0.7187 -0.9011 -0.4848
   22U       O2  304   6.980   6.793   7.248 -0.4527  0.5090 -0.4003
   22U      C3'  305   7.157   6.702   7.000  0.3157 -0.3718 -0.9179
   22U      H3'  306   7.172   6.764   7.088  3.0896  0.1268 -1.6319
   22U      C2'  307   7.004   6.694   6.967 -0.3464  0.1929 -0.0277
   22U     H2'1  308   6.955   6.788   6.994 -2.3376  0.7334 -4.6175
   22U      O2'  309   6.972   6.671   6.836  0.5366  0.0580  0.0026
   22U     HO'2  310   6.995   6.748   6.783  1.0438 -0.6927 -0.8804
   22U      O3'  311   7.230   6.743   6.877 -0.0542  0.0173 -0.8887
   23A        P  312   7.227   6.902   6.836  0.3010 -0.0721  0.0794
   23A      O1P  313   7.361   6.918   6.774 -0.0884 -0.4498  0.2829
   23A      O2P  314   7.200   6.984   6.955  0.3885  0.2536  0.1548
   23A      O5'  315   7.104   6.903   6.733  0.0556 -0.2026 -0.1198
   23A      C5'  316   7.108   7.012   6.642 -0.1823  0.1519  0.1071
   23A     H5'1  317   7.201   7.005   6.585 -0.9507  1.9522 -1.4787
   23A     H5'2  318   7.098   7.097   6.709 -1.7818 -1.0803  1.5392
   23A      C4'  319   6.989   7.006   6.550 -0.4486 -0.5122  0.6842
   23A      H4'  320   7.018   7.077   6.474  1.4808 -0.8953  1.0202
   23A      O4'  321   6.976   6.878   6.493 -0.4662 -0.1924 -0.3702
   23A      C1'  322   6.847   6.857   6.445  0.2002 -0.2806 -0.5539
   23A      H1'  323   6.836   6.853   6.336 -0.0021 -3.3750 -0.5045
   23A       N9  324   6.806   6.721   6.480 -0.7811 -0.0135 -0.9406
   23A       C8  325   6.832   6.610   6.409 -0.6044  0.0032  0.0022
   23A       H8  326   6.866   6.622   6.307 -2.0428  1.2812 -0.3604
   23A       N7  327   6.811   6.496   6.465  0.3928 -0.2669  0.2555
   23A       C5  328   6.760   6.540   6.592 -0.0136 -0.3513  0.4117
   23A       C6  329   6.704   6.478   6.705 -0.0902 -0.2527 -0.6369
   23A       N6  330   6.690   6.348   6.725 -0.0678 -0.2477 -0.0410
   23A      H61  331   6.719   6.294   6.645  0.1002  2.0848 -1.6371
   23A      H62  332   6.637   6.317   6.806 -0.2707 -1.5565 -0.6390
   23A       N1  333   6.648   6.541   6.811  1.3029 -0.1389  0.2033
   23A       C2  334   6.644   6.673   6.798  0.1362  0.1892 -1.0899
   23A       H2  335   6.609   6.727   6.885 -0.2075  0.4755 -1.4025
   23A       N3  336   6.695   6.745   6.703  0.1090  0.0732  0.2628
   23A       C4  337   6.744   6.674   6.598 -0.1147  0.5229 -0.2846
   23A      C3'  338   6.849   7.027   6.606 -0.2462  0.1311  0.3150
   23A      H3'  339   6.827   6.959   6.688  1.9628 -0.3630  0.5535
   23A      C2'  340   6.754   6.973   6.500 -0.2729  0.3500 -0.4173
   23A     H2'1  341   6.659   6.938   6.540  0.0123  0.2085  0.1484
   23A      O2'  342   6.743   7.073   6.399  0.2686 -0.0851  0.2774
   23A     HO'2  343   6.727   7.148   6.457 -2.5845 -1.6058  1.6955
   23A      O3'  344   6.808   7.161   6.630  0.9789  0.0616  0.7233
   24A        P  345   6.773   7.227   6.776  0.5051 -0.4887 -0.2679
   24A      O1P  346   6.774   7.373   6.743  0.2887 -0.1828 -0.1696
   24A      O2P  347   6.867   7.162   6.868 -0.2664  0.2705  0.1110
   24A      O5'  348   6.622   7.190   6.817 -0.3092  0.7861  0.1227
   24A      C5'  349   6.586   7.052   6.824  0.7036 -0.4044  0.0908
   24A     H5'1  350   6.656   6.993   6.884  2.9821  2.5246  0.5005
   24A     H5'2  351   6.585   7.007   6.725  0.9032 -0.0971 -0.0507
   24A      C4'  352   6.441   7.066   6.872 -0.4025 -0.2147 -0.5130
   24A      H4'  353   6.405   6.963   6.868  0.5551 -0.5508 -0.8897
   24A      O4'  354   6.442   7.119   7.000 -0.1389  0.8455 -0.3308
   24A      C1'  355   6.331   7.195   7.021 -0.1437 -0.1587  0.2222
   24A      H1'  356   6.268   7.158   7.102  0.0325 -0.9702 -0.0004
   24A       N9  357   6.369   7.334   7.060  0.2769  0.0801 -0.1438
   24A       C8  358   6.466   7.413   6.996  0.3641  1.0267  0.0005
   24A       H8  359   6.532   7.370   6.922  1.1031 -0.3174  1.3694
   24A       N7  360   6.472   7.532   7.047  1.0870 -0.2752 -0.0817
   24A       C5  361   6.379   7.539   7.149 -0.1293  0.3362  0.4944
   24A       C6  362   6.339   7.634   7.242  0.3862 -0.7718 -0.3302
   24A       N6  363   6.402   7.746   7.278  0.5910  0.1848  0.0187
   24A      H61  364   6.500   7.743   7.252  0.5809 -2.6967 -0.0001
   24A      H62  365   6.357   7.806   7.346 -0.2152 -1.6617  1.1717
   24A       N1  366   6.236   7.619   7.322  0.5924 -0.1089  0.6477
   24A       C2  367   6.179   7.503   7.314  0.3287 -0.7617  0.2527
   24A       H2  368   6.093   7.486   7.377 -1.9671 -0.3872 -2.5555
   24A       N3  369   6.199   7.405   7.226 -0.3442  0.2185 -0.8917
   24A       C4  370   6.308   7.426   7.147 -0.0527 -0.4753  1.2855
   24A      C3'  371   6.347   7.147   6.785 -0.1505  0.8827 -0.7046
   24A      H3'  372   6.401   7.234   6.748 -1.1279  0.4280 -3.4062
   24A      C2'  373   6.248   7.195   6.890 -0.0971 -0.0634  0.1808
   24A     H2'1  374   6.225   7.296   6.856 -2.0689 -0.3415  0.5804
   24A      O2'  375   6.134   7.123   6.895  0.3060 -0.3622 -0.2030
   24A     HO'2  376   6.098   7.131   6.806 -0.6590  1.9109  0.3350
   24A      O3'  377   6.295   7.080   6.677  0.9610 -0.3113  0.4005
   25U        P  378   6.200   7.154   6.579  0.5658 -0.1876  0.0313
   25U      O1P  379   6.252   7.291   6.567  0.1178  0.1890 -0.0817
   25U      O2P  380   6.068   7.138   6.637  0.4765  0.1032  0.3868
   25U      O5'  381   6.223   7.075   6.442  0.3090 -0.7486  0.0334
   25U      C5'  382   6.331   7.098   6.356  0.3873  0.3262  0.0728
   25U     H5'1  383   6.406   7.138   6.424  1.3133 -0.3597 -0.5209
   25U     H5'2  384   6.316   7.167   6.273 -0.3371  0.3339  0.2047
   25U      C4'  385   6.395   6.967   6.298  0.6408 -0.5525  0.5280
   25U      H4'  386   6.457   6.991   6.211  0.2475 -1.1917  0.0568
   25U      O4'  387   6.466   6.896   6.402  0.0594  0.6798 -0.1429
   25U      C1'  388   6.445   6.751   6.386  0.3934 -0.5516 -0.1766
   25U      H1'  389   6.539   6.699   6.370  0.3657 -1.7229  2.7981
   25U       N1  390   6.383   6.683   6.504 -0.0303  0.9293 -0.2999
   25U       C6  391   6.302   6.757   6.583  0.2744 -0.0335  0.8475
   25U       H6  392   6.307   6.864   6.568 -2.7138  0.0491 -0.2038
   25U       C5  393   6.246   6.696   6.690  1.5109 -0.4592  0.3392
   25U       H5  394   6.180   6.753   6.753 -0.2245 -0.7568 -1.1136
   25U       C4  395   6.249   6.559   6.706 -0.0007  0.5775  0.5389
   25U       O4  396   6.192   6.490   6.786 -0.1935 -0.5917  0.3460
   25U       N3  397   6.348   6.490   6.626 -0.1948 -0.3044 -0.1607
   25U       H3  398   6.359   6.390   6.631  0.0922 -0.5197 -3.3038
   25U       C2  399   6.406   6.542   6.517  0.0938  0.2305 -0.6591
   25U       O2  400   6.470   6.480   6.435  0.3603 -0.2738 -0.5292
   25U      C3'  401   6.288   6.864   6.246 -0.1275 -0.3793 -0.4985
   25U      H3'  402   6.201   6.848   6.309  0.0687 -1.2267 -0.4292
   25U      C2'  403   6.371   6.732   6.256 -0.0169  0.2104 -0.0516
   25U     H2'1  404   6.316   6.638   6.267  2.2618 -1.2610 -0.6480
   25U      O2'  405   6.450   6.719   6.144 -0.6964  0.1860  0.1422
   25U     HO'2  406   6.396   6.716   6.066 -0.1746 -1.6462 -0.1974
   25U      O3'  407   6.238   6.896   6.119 -0.1327  0.1467 -0.2061
   26C        P  408   6.101   6.832   6.076 -0.1359  0.5291  0.1359
   26C      O1P  409   6.076   6.889   5.943  0.5203  0.1230  0.6013
   26C      O2P  410   6.000   6.835   6.182  0.5966  0.0059 -0.2729
   26C      O5'  411   6.132   6.672   6.050 -0.5021 -0.1416 -0.1336
   26C      C5'  412   6.204   6.612   5.942 -0.5828 -0.1069 -0.5255
   26C     H5'1  413   6.305   6.654   5.941  0.6815 -2.7635  1.2957
   26C     H5'2  414   6.156   6.631   5.846 -0.0119 -0.1445 -0.8227
   26C      C4'  415   6.224   6.455   5.976  1.2065 -0.0808 -0.4326
   26C      H4'  416   6.292   6.417   5.899  2.7093 -0.0528  0.8440
   26C      O4'  417   6.296   6.429   6.101 -0.2658  0.0973  0.4157
   26C      C1'  418   6.250   6.303   6.155 -0.8467  0.0594  0.1456
   26C      H1'  419   6.336   6.236   6.161 -0.8100  0.2145  1.9135
   26C       N1  420   6.174   6.319   6.285  0.4180 -0.9228 -0.4332
   26C       C6  421   6.115   6.441   6.323 -0.1974 -0.2145  0.0731
   26C       H6  422   6.129   6.523   6.255 -0.4177 -0.8648 -0.7724
   26C       C5  423   6.043   6.461   6.436  0.3938 -0.1966 -0.2096
   26C       H5  424   6.015   6.561   6.467  0.4023 -0.3136  0.1872
   26C       C4  425   6.031   6.346   6.523  0.2847 -0.5194  0.1805
   26C       N4  426   5.975   6.359   6.639 -0.2729 -0.2809 -0.9528
   26C      H41  427   5.945   6.444   6.684  0.1867 -1.0815  0.9772
   26C      H42  428   5.977   6.275   6.696 -2.5981  0.2521  0.0415
   26C       N3  429   6.086   6.228   6.488  0.7504  0.0512  0.1203
   26C       C2  430   6.148   6.209   6.370  0.7556 -0.4091  0.4357
   26C       O2  431   6.188   6.096   6.342 -0.4148  0.6930 -0.0247
   26C      C3'  432   6.109   6.365   5.975  0.3925 -0.2729  0.2467
   26C      H3'  433   6.031   6.417   6.031 -0.1533  0.1647 -0.8823
   26C      C2'  434   6.163   6.240   6.048  0.0567  0.3313 -0.5342
   26C     H2'1  435   6.081   6.187   6.097 -0.0212  0.8217 -0.1269
   26C      O2'  436   6.250   6.157   5.975 -0.6759 -0.2417  0.0312
   26C     HO'2  437   6.201   6.098   5.918  0.5594 -0.0041 -1.3222
   26C      O3'  438   6.055   6.329   5.845  0.0442 -1.2246 -0.5768
   27C        P  439   5.909   6.266   5.827 -0.2155  0.0549  0.1529
   27C      O1P  440   5.899   6.214   5.689  0.6218 -0.4213 -0.1883
   27C      O2P  441   5.813   6.358   5.894  0.0530  0.0361 -0.1502
   27C      O5'  442   5.901   6.128   5.918  0.2104  0.0005  0.7099
   27C      C5'  443   5.961   6.002   5.878 -0.2851  0.1108  0.1768
   27C     H5'1  444   6.068   6.017   5.865 -0.5559  3.0509  0.6277
   27C     H5'2  445   5.921   5.965   5.784  0.3049 -0.2217  0.0503
   27C      C4'  446   5.935   5.895   5.985  1.0351 -0.1238 -0.6731
   27C      H4'  447   5.966   5.794   5.956 -0.1168 -0.6363 -0.1810
   27C      O4'  448   5.985   5.915   6.118 -0.0330  0.3356  0.2573
   27C      C1'  449   5.879   5.875   6.208 -0.5805  0.0943 -0.1266
   27C      H1'  450   5.912   5.797   6.277  1.9904  0.5103 -0.7467
   27C       N1  451   5.807   5.986   6.280 -0.0138 -0.3054  0.8503
   27C       C6  452   5.819   6.119   6.250 -0.0916  0.2069  0.5791
   27C       H6  453   5.863   6.161   6.161  0.2033  1.8968  1.4876
   27C       C5  454   5.784   6.203   6.349 -1.1484 -0.2003  0.3019
   27C       H5  455   5.793   6.310   6.333 -0.5507  0.7281  5.1266
   27C       C4  456   5.738   6.157   6.473 -0.5179  0.3590  0.6258
   27C       N4  457   5.693   6.233   6.564 -0.1609  1.2904 -0.5407
   27C      H41  458   5.692   6.334   6.554  1.2660  1.6002  1.7986
   27C      H42  459   5.646   6.186   6.640  2.3129  0.2770  0.4582
   27C       N3  460   5.717   6.036   6.497  0.5228  0.2274  0.4278
   27C       C2  461   5.749   5.948   6.398  0.0082  0.1462 -0.7922
   27C       O2  462   5.748   5.829   6.439  1.0096 -0.5580 -0.1747
   27C      C3'  463   5.788   5.874   5.996 -0.1653  0.0384  0.0728
   27C      H3'  464   5.732   5.968   6.001  0.1243  0.4006 -2.4093
   27C      C2'  465   5.765   5.799   6.125  0.3029 -0.3767  0.7673
   27C     H2'1  466   5.666   5.822   6.164 -1.1953  0.9965 -3.4139
   27C      O2'  467   5.791   5.662   6.118  0.4685 -0.0236  0.2899
   27C     HO'2  468   5.791   5.636   6.025  2.8537  3.4124 -0.8769
   27C      O3'  469   5.731   5.791   5.892  0.3720 -0.0684  0.2737
   28U        P  470   5.568   5.804   5.860  0.5133  0.0772  0.0475
   28U      O1P  471   5.536   5.707   5.748 -0.0187 -0.4780 -0.0719
   28U      O2P  472   5.551   5.946   5.840  0.0448 -0.0895 -0.3842
   28U      O5'  473   5.493   5.771   5.995  0.2774 -0.6450  0.6034
   28U      C5'  474   5.462   5.636   6.028  0.7365 -0.2873  0.8283
   28U     H5'1  475   5.548   5.570   6.022  0.8660 -0.2907  2.3072
   28U     H5'2  476   5.396   5.616   5.944 -0.3002  1.9673  1.0257
   28U      C4'  477   5.379   5.643   6.152 -0.0185  0.1420  0.6145
   28U      H4'  478   5.360   5.537   6.169 -0.2493  0.2659  1.1646
   28U      O4'  479   5.449   5.703   6.250 -0.2663  0.3971 -0.2220
   28U      C1'  480   5.347   5.744   6.342 -0.8506 -0.1908  0.4888
   28U      H1'  481   5.343   5.682   6.432 -1.6182  1.9166  2.0217
   28U       N1  482   5.370   5.892   6.380 -0.4001  1.1927  0.2431
   28U       C6  483   5.407   5.984   6.286  0.2675  0.2014 -0.6810
   28U       H6  484   5.410   5.954   6.182 -1.0747 -1.6999 -0.2400
   28U       C5  485   5.416   6.111   6.327 -1.0972  0.3333  0.6202
   28U       H5  486   5.448   6.189   6.259 -1.8528  1.3833  1.4246
   28U       C4  487   5.376   6.160   6.456 -0.1960  0.3200 -0.0436
   28U       O4  488   5.367   6.275   6.488 -0.2194  0.7746  0.7911
   28U       N3  489   5.343   6.060   6.546  0.3545  1.1821 -0.4642
   28U       H3  490   5.314   6.092   6.637 -1.0259  0.1105 -0.4904
   28U       C2  491   5.331   5.923   6.511 -0.1365 -0.2048 -0.1303
   28U       O2  492   5.284   5.841   6.590 -0.2992  0.2710  0.6158
   28U      C3'  493   5.255   5.729   6.127  0.1577  0.2712  1.4268
   28U      H3'  494   5.281   5.827   6.087 -1.2681  0.1577  0.1017
   28U      C2'  495   5.211   5.733   6.270  0.0945 -0.2835 -0.4631
   28U     H2'1  496   5.157   5.828   6.268  1.0131  0.2640  0.2082
   28U      O2'  497   5.145   5.623   6.328  0.7230 -0.2295 -0.3743
   28U     HO'2  498   5.061   5.614   6.282  0.9215  1.3326 -1.1303
   28U      O3'  499   5.151   5.666   6.043 -0.1678  0.5553  0.3563
   29A        P  500   5.018   5.745   5.995  0.1366  0.1079 -0.0323
   29A      O1P  501   4.952   5.657   5.895 -0.2504  0.7464 -0.3359
   29A      O2P  502   5.060   5.876   5.952  0.6286 -0.1655 -0.8448
   29A      O5'  503   4.923   5.760   6.121  0.0912 -0.1251 -0.4399
   29A      C5'  504   4.841   5.655   6.158  0.1889  0.5773 -0.1939
   29A     H5'1  505   4.897   5.562   6.161  0.9650  0.9387 -2.0674
   29A     H5'2  506   4.762   5.638   6.084 -1.4164  1.4044  1.2500
   29A      C4'  507   4.774   5.685   6.289 -0.2908  0.5150 -0.3419
   29A      H4'  508   4.705   5.604   6.311 -0.1213  0.5223  0.2164
   29A      O4'  509   4.871   5.690   6.396  0.4600 -0.2374 -0.3662
   29A      C1'  510   4.834   5.800   6.482  0.2617  0.5759  0.3129
   29A      H1'  511   4.828   5.763   6.584 -0.3225 -1.7836 -0.5117
   29A       N9  512   4.916   5.922   6.489 -0.0976  0.3644  0.9163
   29A       C8  513   4.976   5.981   6.380  0.8312  0.5875  0.4253
   29A       H8  514   4.966   5.934   6.284 -1.9953 -4.8089  2.9436
   29A       N7  515   5.035   6.090   6.411 -0.7895 -0.2305 -0.0818
   29A       C5  516   5.007   6.109   6.548 -0.1989  0.6398  0.3122
   29A       C6  517   5.034   6.203   6.653 -0.9074 -0.0068 -0.6429
   29A       N6  518   5.123   6.298   6.644  0.1710 -0.4535  0.2301
   29A      H61  519   5.166   6.308   6.554 -0.5797  0.3292 -0.0561
   29A      H62  520   5.125   6.362   6.722 -0.1302 -1.5201  1.1338
   29A       N1  521   4.970   6.195   6.770 -0.6582  0.0888  0.4326
   29A       C2  522   4.888   6.091   6.792 -0.2830  0.1468 -0.6285
   29A       H2  523   4.838   6.088   6.887 -0.3198  2.5301 -0.5135
   29A       N3  524   4.861   5.998   6.707  0.0379  0.1555 -0.3664
   29A       C4  525   4.926   6.007   6.588  1.0054 -1.1520 -0.1211
   29A      C3'  526   4.702   5.814   6.292  0.6916 -0.8856  0.2984
   29A      H3'  527   4.753   5.902   6.252 -2.6713  1.3691  0.6043
   29A      C2'  528   4.686   5.833   6.439  0.0029 -0.4948  0.4174
   29A     H2'1  529   4.665   5.937   6.463 -0.4852 -1.0283  2.5087
   29A      O2'  530   4.586   5.747   6.490 -0.1770 -0.0706 -0.2187
   29A     HO'2  531   4.525   5.749   6.416  0.9206 -1.5797 -1.2207
   29A      O3'  532   4.573   5.810   6.237  0.0970  0.0730  0.2736
   30A        P  533   4.488   5.947   6.200  0.4141  0.0951  0.1114
   30A      O1P  534   4.366   5.902   6.127 -1.0998 -0.3341  0.7910
   30A      O2P  535   4.591   6.035   6.132  0.7476 -0.1453 -0.5766
   30A      O5'  536   4.449   6.017   6.347 -0.6138 -0.3189  0.4679
   30A      C5'  537   4.341   5.971   6.428 -0.0719  0.0305 -0.0806
   30A     H5'1  538   4.341   5.863   6.441  0.7942  0.0194 -0.1583
   30A     H5'2  539   4.248   5.993   6.374 -1.5798 -1.0226  1.9783
   30A      C4'  540   4.323   6.040   6.566  0.6936  0.1853 -0.0277
   30A      H4'  541   4.243   5.988   6.619 -0.1094  1.6271  0.2307
   30A      O4'  542   4.446   6.023   6.638 -0.0549 -0.5341 -0.1932
   30A      C1'  543   4.472   6.136   6.716  0.5780  0.2211 -0.5209
   30A      H1'  544   4.486   6.106   6.820 -2.2657 -0.5121 -0.2487
   30A       N9  545   4.582   6.214   6.657 -0.6486  0.4765  0.0135
   30A       C8  546   4.643   6.186   6.532  0.0205 -0.2374  0.0293
   30A       H8  547   4.610   6.107   6.466 -1.6930  0.8726 -0.5079
   30A       N7  548   4.731   6.280   6.507  0.0299 -0.5001  0.1090
   30A       C5  549   4.733   6.364   6.624  0.4092 -0.5278  0.1490
   30A       C6  550   4.800   6.477   6.666 -1.0311 -0.1900 -0.6567
   30A       N6  551   4.890   6.541   6.595  0.2602  0.1702  0.0981
   30A      H61  552   4.917   6.493   6.510 -2.6588 -2.8223  0.6605
   30A      H62  553   4.930   6.625   6.633 -0.2369  1.1335 -1.4188
   30A       N1  554   4.779   6.532   6.787 -0.2310  0.1032  0.6714
   30A       C2  555   4.682   6.480   6.865  0.0292  0.1521 -0.1660
   30A       H2  556   4.683   6.513   6.968  0.4429  3.1537 -1.0452
   30A       N3  557   4.602   6.373   6.838 -0.3421  0.0085 -0.0664
   30A       C4  558   4.639   6.325   6.713  0.2007  0.2263  0.7648
   30A      C3'  559   4.283   6.189   6.564 -0.6951  0.3459 -0.0292
   30A      H3'  560   4.334   6.240   6.482  1.1927  0.6682  1.2603
   30A      C2'  561   4.343   6.217   6.712 -0.4520 -0.3443  0.4841
   30A     H2'1  562   4.359   6.324   6.726 -1.8849  0.1772 -1.5017
   30A      O2'  563   4.240   6.174   6.801 -0.0577  1.1393 -0.3001
   30A     HO'2  564   4.157   6.192   6.758  0.1072  2.1026 -0.2284
   30A      O3'  565   4.140   6.202   6.558  0.1412  0.1520  0.0924
   31U        P  566   4.061   6.330   6.508 -0.0458 -0.1891  0.3126
   31U      O1P  567   3.928   6.326   6.567  0.1104 -0.2258 -0.4938
   31U      O2P  568   4.084   6.334   6.364 -0.1389  0.4260  0.1844
   31U      O5'  569   4.152   6.442   6.575 -0.0454  0.3488  0.6513
   31U      C5'  570   4.129   6.481   6.711 -0.6453  0.3146  0.1355
   31U     H5'1  571   4.142   6.391   6.771  0.3631 -0.1012 -0.6790
   31U     H5'2  572   4.022   6.504   6.714 -0.6576  0.3415 -0.4246
   31U      C4'  573   4.205   6.602   6.761 -0.0307 -0.7214  0.6044
   31U      H4'  574   4.174   6.628   6.862  1.3423  1.5761  0.5056
   31U      O4'  575   4.341   6.582   6.780  0.0661 -0.5129  0.2827
   31U      C1'  576   4.430   6.684   6.730  0.4673 -0.1324  0.3030
   31U      H1'  577   4.494   6.723   6.808 -0.3856  1.5066  0.2218
   31U       N1  578   4.493   6.659   6.603 -0.0841 -0.1658 -0.0935
   31U       C6  579   4.455   6.561   6.517 -0.5228 -0.3818  1.2463
   31U       H6  580   4.371   6.502   6.550 -0.9946 -0.4925 -0.0956
   31U       C5  581   4.518   6.546   6.395  0.0411 -0.5746  0.0232
   31U       H5  582   4.490   6.469   6.325 -3.1061  0.2498  0.2080
   31U       C4  583   4.627   6.628   6.357 -0.1818 -1.3354 -0.4505
   31U       O4  584   4.690   6.620   6.249  0.7626  0.5493 -0.5325
   31U       N3  585   4.658   6.723   6.454 -0.0117  0.1253 -0.1303
   31U       H3  586   4.740   6.779   6.437  1.1740 -1.2949  0.6580
   31U       C2  587   4.608   6.728   6.586 -0.1996  0.3190  0.1116
   31U       O2  588   4.647   6.812   6.665  0.1507 -0.4210  0.3540
   31U      C3'  589   4.207   6.729   6.665  0.0719  0.1519  0.4499
   31U      H3'  590   4.210   6.683   6.566  0.8683 -1.6134  1.2422
   31U      C2'  591   4.335   6.801   6.691 -0.1600 -0.0027  0.0023
   31U     H2'1  592   4.371   6.858   6.605  2.0145  0.5628  1.2382
   31U      O2'  593   4.307   6.887   6.796 -0.3743  0.0798 -0.0192
   31U     HO'2  594   4.218   6.921   6.786  0.3505  2.0490 -0.1740
   31U      O3'  595   4.092   6.806   6.685  0.1891  0.1580  0.3879
   32G        P  596   4.036   6.900   6.573  0.1209  0.3925  0.0793
   32G      O1P  597   3.906   6.953   6.622 -0.5896 -0.5488 -0.2557
   32G      O2P  598   4.043   6.831   6.442 -0.2858  0.4773 -0.0010
   32G      O5'  599   4.132   7.026   6.562  0.4096  0.5261  0.3805
   32G      C5'  600   4.139   7.131   6.659 -0.1862  0.3305  0.4503
   32G     H5'1  601   4.115   7.102   6.762  0.3663  2.5630  1.2549
   32G     H5'2  602   4.063   7.205   6.639  0.2340  0.3685 -1.1601
   32G      C4'  603   4.264   7.213   6.652  0.0438  0.8617  0.4717
   32G      H4'  604   4.270   7.277   6.740  2.1760 -0.9633  1.7416
   32G      O4'  605   4.381   7.130   6.639  0.6894 -0.1391  0.1707
   32G      C1'  606   4.480   7.201   6.560 -0.3134  0.1537 -0.1790
   32G      H1'  607   4.564   7.232   6.622 -1.6753 -1.1779  2.5074
   32G       N9  608   4.517   7.115   6.444  0.6460 -0.1324 -0.1312
   32G       C8  609   4.438   7.014   6.390  0.2465 -0.3468 -0.6416
   32G       H8  610   4.343   6.986   6.433  0.5422 -4.5316 -2.2444
   32G       N7  611   4.493   6.951   6.287  0.1336 -0.4779 -0.2930
   32G       C5  612   4.608   7.020   6.260  0.5451 -0.4083  0.3845
   32G       C6  613   4.716   6.997   6.168  0.5736  0.1061  0.1056
   32G       O6  614   4.732   6.909   6.083  0.6086 -0.8743 -0.0529
   32G       N1  615   4.825   7.079   6.182 -1.3769 -0.0087  0.4396
   32G       H1  616   4.899   7.059   6.116 -2.3889  0.1816 -0.7933
   32G       C2  617   4.827   7.175   6.286  0.3708 -0.8819  0.6609
   32G       N2  618   4.945   7.239   6.297 -0.0481  0.7149 -0.1054
   32G      H21  619   5.020   7.211   6.236  1.4494  1.1191  1.4790
   32G      H22  620   4.965   7.289   6.382  3.1917 -1.4145  0.5757
   32G       N3  621   4.733   7.192   6.378 -0.0189 -0.3746 -0.2538
   32G       C4  622   4.624   7.116   6.361 -0.1583  0.2194  0.6728
   32G      C3'  623   4.260   7.296   6.522 -0.6904 -0.2532 -0.1493
   32G      H3'  624   4.233   7.233   6.437 -2.6518  2.1852 -1.4416
   32G      C2'  625   4.415   7.325   6.526  1.3185 -0.2866  0.1072
   32G     H2'1  626   4.438   7.365   6.428 -0.6521 -1.6716 -1.0017
   32G      O2'  627   4.448   7.423   6.629 -0.1261 -0.2046  0.6553
   32G     HO'2  628   4.523   7.476   6.601  1.1412 -2.5823 -0.8092
   32G      O3'  629   4.186   7.412   6.553  0.0272  0.4327 -0.4301
   33A        P  630   4.128   7.493   6.432 -0.1154 -0.0968  0.0063
   33A      O1P  631   4.034   7.600   6.479 -0.1238  0.6153  0.4032
   33A      O2P  632   4.085   7.399   6.329  0.5125  0.2859  0.5130
   33A      O5'  633   4.257   7.568   6.371  0.0760  0.1961 -0.2084
   33A      C5'  634   4.325   7.671   6.432 -0.7082 -0.0061 -0.1814
   33A     H5'1  635   4.346   7.645   6.536 -0.6538 -0.2572 -0.2520
   33A     H5'2  636   4.256   7.755   6.431 -0.2674  0.3982  1.2673
   33A      C4'  637   4.460   7.700   6.366  0.2298  0.1250  0.9031
   33A      H4'  638   4.517   7.774   6.422  1.4239 -0.0902  0.0290
   33A      O4'  639   4.535   7.579   6.360 -0.5068 -0.1385 -0.1327
   33A      C1'  640   4.629   7.580   6.251 -0.4025  0.4406 -0.1070
   33A      H1'  641   4.727   7.601   6.293  1.1332 -0.7578 -2.7874
   33A       N9  642   4.636   7.457   6.172  0.0983 -0.9188  0.3009
   33A       C8  643   4.546   7.359   6.167 -0.1131  0.2299  0.1608
   33A       H8  644   4.457   7.363   6.229  0.6392 -1.5237  1.4578
   33A       N7  645   4.568   7.274   6.073 -0.5814  0.6738  0.1008
   33A       C5  646   4.697   7.306   6.030  0.5817 -0.3476  0.3739
   33A       C6  647   4.786   7.258   5.933 -0.3775  0.8654  0.3115
   33A       N6  648   4.753   7.157   5.854 -0.2559 -0.5953  0.1192
   33A      H61  649   4.665   7.108   5.862 -0.9250  0.4199 -0.6370
   33A      H62  650   4.825   7.126   5.791 -0.7531 -1.2760 -0.1248
   33A       N1  651   4.907   7.299   5.927 -0.2680  0.7980 -0.5140
   33A       C2  652   4.938   7.413   5.981 -0.4090 -0.5921 -0.4466
   33A       H2  653   5.039   7.450   5.970 -0.0605 -0.5578  2.1611
   33A       N3  654   4.856   7.484   6.063 -0.0103 -0.0903 -0.2407
   33A       C4  655   4.736   7.421   6.091 -0.1849  0.5165  0.4104
   33A      C3'  656   4.453   7.726   6.219  0.6269  0.0124  0.6055
   33A      H3'  657   4.373   7.660   6.184  1.6628 -1.1442  0.3204
   33A      C2'  658   4.594   7.698   6.169  0.5491 -0.5115 -0.6258
   33A     H2'1  659   4.600   7.684   6.061 -1.4192  1.8286 -1.1081
   33A      O2'  660   4.685   7.808   6.200  0.1675  0.2295 -0.9191
   33A     HO'2  661   4.764   7.790   6.149  0.9022  0.6735  0.0225
   33A      O3'  662   4.417   7.857   6.190 -0.2166 -0.0445 -0.2651
   34U        P  663   4.327   7.906   6.069 -0.2308 -0.2643 -0.0773
   34U      O1P  664   4.315   8.050   6.081 -0.0060  0.2198 -0.9177
   34U      O2P  665   4.208   7.824   6.071 -0.1846  0.5856  0.1413
   34U      O5'  666   4.422   7.877   5.939  0.0807 -0.4209 -0.2967
   34U      C5'  667   4.540   7.955   5.911  0.1481  0.2659  0.0729
   34U     H5'1  668   4.589   7.965   6.008 -1.3365 -0.5094  0.9377
   34U     H5'2  669   4.511   8.055   5.878 -2.1231 -1.1966 -2.8570
   34U      C4'  670   4.635   7.904   5.806 -0.8451  0.6025 -0.2523
   34U      H4'  671   4.710   7.983   5.806 -1.4261  1.3193  3.2845
   34U      O4'  672   4.683   7.771   5.818 -0.4362 -0.5974  0.0751
   34U      C1'  673   4.655   7.701   5.693 -0.1991 -0.6593  0.5078
   34U      H1'  674   4.740   7.684   5.627 -0.9076 -0.0898 -0.5964
   34U       N1  675   4.598   7.565   5.721  0.1513 -0.3783 -0.1397
   34U       C6  676   4.483   7.546   5.797 -0.1814 -0.5877 -0.1542
   34U       H6  677   4.443   7.627   5.856  0.6333 -1.5666  1.8223
   34U       C5  678   4.424   7.428   5.813  0.0281  0.4139 -0.2728
   34U       H5  679   4.344   7.417   5.884 -0.4380  0.6893 -0.7545
   34U       C4  680   4.470   7.309   5.740  0.6165 -0.8273  0.8707
   34U       O4  681   4.413   7.201   5.733  0.1301  0.2038 -0.0602
   34U       N3  682   4.588   7.326   5.675 -0.7908 -0.4360  0.0283
   34U       H3  683   4.598   7.251   5.609  2.0586  1.2073 -1.5980
   34U       C2  684   4.651   7.446   5.654 -0.1047 -0.2804 -0.0710
   34U       O2  685   4.731   7.452   5.567  0.5769 -1.0550  0.7361
   34U      C3'  686   4.599   7.929   5.655 -0.0627 -0.1389 -0.4953
   34U      H3'  687   4.522   8.007   5.649 -0.9965 -0.7656  1.9256
   34U      C2'  688   4.545   7.787   5.619 -0.2970  0.4014 -0.0951
   34U     H2'1  689   4.448   7.771   5.666 -0.7063  0.6429 -0.8315
   34U      O2'  690   4.526   7.777   5.482 -0.6605 -0.4032  1.0487
   34U     HO'2  691   4.499   7.694   5.444  1.2574  0.2473 -2.0920
   34U      O3'  692   4.703   7.967   5.570  0.1409  0.1457  0.2965
   35A        P  693   4.721   8.116   5.525 -0.2110 -0.1635  0.3473
   35A      O1P  694   4.707   8.197   5.639 -0.8045 -0.1830 -0.4396
   35A      O2P  695   4.625   8.119   5.415  0.3503 -0.6423  0.1194
   35A      O5'  696   4.864   8.129   5.457 -0.3248 -0.8965  0.0768
   35A      C5'  697   4.984   8.109   5.540  0.2912  0.9507  0.7974
   35A     H5'1  698   4.980   8.024   5.608  0.8600 -0.4295 -0.8295
   35A     H5'2  699   4.998   8.198   5.601  0.3660  0.4757  1.4928
   35A      C4'  700   5.112   8.080   5.454 -0.5961 -0.0211  0.0600
   35A      H4'  701   5.197   8.089   5.522 -2.0861  0.5709  1.9513
   35A      O4'  702   5.123   7.950   5.388  0.0598 -0.2040 -0.1395
   35A      C1'  703   5.087   7.966   5.251  0.8045 -0.6844 -0.4596
   35A      H1'  704   5.165   7.941   5.179  0.2103  1.0296 -1.7386
   35A       N9  705   4.956   7.900   5.220 -0.5521 -0.7240  0.9642
   35A       C8  706   4.847   7.865   5.304 -0.8880  0.0209  0.1725
   35A       H8  707   4.849   7.889   5.409  2.7356  0.1534  0.1847
   35A       N7  708   4.748   7.819   5.244 -0.3141 -0.3289  0.0832
   35A       C5  709   4.795   7.808   5.110  0.1239  0.3709 -0.1143
   35A       C6  710   4.733   7.763   4.986  0.1249  0.8772 -1.1923
   35A       N6  711   4.602   7.738   4.972  0.7082 -0.1899 -0.2913
   35A      H61  712   4.541   7.714   5.049 -0.9542 -2.5791 -2.1933
   35A      H62  713   4.564   7.705   4.884 -2.2172 -2.0867  1.4799
   35A       N1  714   4.805   7.770   4.874 -1.0383  0.4802 -0.0719
   35A       C2  715   4.924   7.820   4.867  0.1823  0.3514 -0.1694
   35A       H2  716   4.969   7.801   4.771 -2.3560  0.7276 -1.5154
   35A       N3  717   4.995   7.857   4.975 -0.4738  0.9497 -0.3177
   35A       C4  718   4.922   7.862   5.093 -0.0880  0.3385 -0.2587
   35A      C3'  719   5.134   8.183   5.343 -0.3152  0.1610  0.0652
   35A      H3'  720   5.083   8.277   5.365 -2.0054 -0.1399 -2.1389
   35A      C2'  721   5.066   8.117   5.223 -0.4407  0.3602  0.0255
   35A     H2'1  722   4.961   8.144   5.231 -0.6503  0.8068 -2.9906
   35A      O2'  723   5.124   8.151   5.095 -0.6548  0.0947  0.2021
   35A     HO'2  724   5.145   8.244   5.091  0.1110 -0.0994 -0.4809
   35A      O3'  725   5.274   8.208   5.330  0.2872 -0.8373  0.0311
   36U        P  726   5.326   8.344   5.273 -0.0290 -0.2448 -0.3129
   36U      O1P  727   5.227   8.386   5.173 -0.3310  0.4541 -0.2063
   36U      O2P  728   5.469   8.321   5.239  0.0716  0.2256 -0.0131
   36U      O5'  729   5.312   8.437   5.404 -0.1981  0.5539 -0.6011
   36U      C5'  730   5.392   8.404   5.516 -0.6774  0.6126 -0.0618
   36U     H5'1  731   5.497   8.429   5.502 -0.3394 -0.1748  0.8667
   36U     H5'2  732   5.404   8.296   5.523  2.5788  0.9253  0.8302
   36U      C4'  733   5.344   8.463   5.646  0.4937  0.0019  0.4130
   36U      H4'  734   5.415   8.441   5.726  0.6123  1.6094  0.7956
   36U      O4'  735   5.347   8.608   5.628 -0.3822  0.0006  0.1965
   36U      C1'  736   5.211   8.656   5.647  0.9012  0.6947 -0.0284
   36U      H1'  737   5.202   8.688   5.750  1.6305  0.9487 -0.0369
   36U       N1  738   5.195   8.773   5.557  0.6827 -0.2769 -0.0571
   36U       C6  739   5.225   8.771   5.426  0.4697  0.7867 -0.6234
   36U       H6  740   5.281   8.683   5.398  0.5742  0.6815 -0.0885
   36U       C5  741   5.188   8.869   5.342 -0.0040 -0.1912  0.6766
   36U       H5  742   5.208   8.867   5.236  2.2206  0.9463  1.0010
   36U       C4  743   5.107   8.976   5.395  0.3467 -0.6653 -0.4735
   36U       O4  744   5.057   9.072   5.324  1.2659  0.8155  0.3505
   36U       N3  745   5.102   8.986   5.534 -0.3592  0.7447  0.3309
   36U       H3  746   5.071   9.075   5.571  1.9129  1.5746  0.3674
   36U       C2  747   5.146   8.884   5.620  0.0826  0.9357  0.5625
   36U       O2  748   5.150   8.904   5.741 -1.1173  0.0617  0.1149
   36U      C3'  749   5.204   8.425   5.677  0.9691 -0.3266  0.2299
   36U      H3'  750   5.184   8.324   5.641 -1.1971 -0.1884  0.8991
   36U      C2'  751   5.118   8.536   5.606 -0.1026  0.9952  0.0246
   36U     H2'1  752   5.118   8.515   5.499 -2.1629 -0.0848  0.1844
   36U      O2'  753   4.984   8.546   5.653 -0.2942 -0.1431 -0.0016
   36U     HO'2  754   4.994   8.582   5.742 -0.0995 -0.6381  0.1809
   36U      O3'  755   5.190   8.437   5.818  0.1442  0.8528 -0.4733
   37G        P  756   5.256   8.330   5.921 -0.6416 -0.5517 -0.5931
   37G      O1P  757   5.249   8.384   6.061 -0.3896  0.3447 -0.4908
   37G      O2P  758   5.383   8.282   5.871 -0.0344 -0.3088 -0.2198
   37G      O5'  759   5.153   8.201   5.910 -0.1650 -0.1682  0.9291
   37G      C5'  760   5.030   8.190   5.982 -0.2957  0.0182 -0.0673
   37G     H5'1  761   4.959   8.254   5.930  0.9845  1.7348  0.1883
   37G     H5'2  762   5.039   8.221   6.086  1.3281 -0.3293 -0.0699
   37G      C4'  763   4.971   8.047   5.979 -0.9865 -0.0840 -0.0277
   37G      H4'  764   4.864   8.057   5.999 -1.1611 -1.4599 -0.1713
   37G      O4'  765   4.962   7.995   5.851  0.6067  0.8282  0.8701
   37G      C1'  766   5.001   7.857   5.851  0.9960 -0.4749 -0.2446
   37G      H1'  767   4.926   7.791   5.806  1.8088 -1.5756 -0.0102
   37G       N9  768   5.129   7.841   5.783  0.2309 -0.6622  0.0100
   37G       C8  769   5.243   7.920   5.784  0.0563 -0.0787  0.4256
   37G       H8  770   5.262   8.000   5.854  0.4690 -0.4905  0.7917
   37G       N7  771   5.322   7.893   5.687  0.0465  0.0676 -0.2070
   37G       C5  772   5.259   7.783   5.622 -0.7949 -1.3884  1.1181
   37G       C6  773   5.287   7.726   5.491  0.1321  0.3570 -0.1866
   37G       O6  774   5.382   7.757   5.423  0.4724 -0.6351  0.2112
   37G       N1  775   5.186   7.640   5.449 -0.5165 -0.2909 -0.1413
   37G       H1  776   5.201   7.596   5.359 -2.3588  0.4057 -0.8176
   37G       C2  777   5.084   7.592   5.530 -0.6849 -0.8318 -0.6467
   37G       N2  778   5.016   7.494   5.491  0.0611  0.0411  0.2120
   37G      H21  779   5.048   7.443   5.410 -0.7378  0.3140 -0.2909
   37G      H22  780   4.926   7.483   5.535  0.5153  0.6242  1.3086
   37G       N3  781   5.061   7.651   5.642  0.3726  0.1304 -0.1988
   37G       C4  782   5.147   7.753   5.685 -0.5345  0.5058  0.8374
   37G      C3'  783   5.042   7.946   6.062  0.7345 -0.5967  0.8125
   37G      H3'  784   5.149   7.967   6.057  0.6409 -0.3589 -0.4404
   37G      C2'  785   5.013   7.811   5.997 -0.1582 -0.4012  0.6046
   37G     H2'1  786   5.097   7.741   5.993  0.8843  0.7770  1.2627
   37G      O2'  787   4.884   7.760   6.038 -0.3454  0.0036  0.0857
   37G     HO'2  788   4.889   7.665   6.031  1.0725 -0.0916  1.6909
   37G      O3'  789   4.999   7.961   6.198  0.4775 -0.3543  0.1897
   38G        P  790   5.103   7.931   6.311  0.0016 -0.7552  0.1220
   38G      O1P  791   5.035   7.954   6.441  0.1594  0.0599  0.3360
   38G      O2P  792   5.219   8.019   6.275  0.1217  0.2256 -0.1280
   38G      O5'  793   5.151   7.782   6.296  0.5613  0.2889 -0.2121
   38G      C5'  794   5.071   7.678   6.334 -1.0164  0.1267  0.5314
   38G     H5'1  795   4.971   7.690   6.292 -0.2493  1.5841 -0.9676
   38G     H5'2  796   5.077   7.678   6.443  0.1809  0.1895  0.4733
   38G      C4'  797   5.134   7.547   6.268  0.1256  0.2415  0.0169
   38G      H4'  798   5.067   7.463   6.285  2.6055 -2.1486 -1.1184
   38G      O4'  799   5.162   7.566   6.125 -0.4107 -0.4808  0.1857
   38G      C1'  800   5.276   7.494   6.078  0.7506 -0.1907  0.3724
   38G      H1'  801   5.238   7.412   6.017  0.9836  0.8643 -1.2401
   38G       N9  802   5.359   7.590   5.997 -0.4222  0.1607  0.0656
   38G       C8  803   5.398   7.714   6.038 -0.3663 -0.1597 -0.6810
   38G       H8  804   5.379   7.743   6.140  0.0507  2.1243 -1.1811
   38G       N7  805   5.491   7.772   5.965 -0.3585  0.5393 -0.9055
   38G       C5  806   5.505   7.680   5.862  0.7843  0.2001  0.3234
   38G       C6  807   5.582   7.699   5.741  0.3263 -0.0812  0.0934
   38G       O6  808   5.664   7.785   5.700 -0.4501 -0.3555  0.5369
   38G       N1  809   5.551   7.589   5.660  0.3253 -0.5912  0.6597
   38G       H1  810   5.591   7.581   5.568 -2.9030 -0.7833 -0.8657
   38G       C2  811   5.489   7.477   5.693 -0.0261 -0.0159  0.3735
   38G       N2  812   5.482   7.394   5.592  0.3797  0.1971 -0.2785
   38G      H21  813   5.543   7.404   5.512  1.4558  3.5243  0.8103
   38G      H22  814   5.430   7.308   5.607  0.1025 -0.1814 -2.9191
   38G       N3  815   5.410   7.461   5.798 -0.4781 -0.3381 -0.7303
   38G       C4  816   5.422   7.569   5.880  0.2893  0.1997  0.0510
   38G      C3'  817   5.274   7.531   6.321 -0.3502 -0.2965  0.1446
   38G      H3'  818   5.328   7.625   6.333  2.6453 -1.6505 -1.6624
   38G      C2'  819   5.337   7.440   6.205  0.2394 -0.1606  0.4485
   38G     H2'1  820   5.444   7.452   6.190  0.0729  1.2765  0.3043
   38G      O2'  821   5.304   7.301   6.229  0.5429 -0.0736  0.7392
   38G     HO'2  822   5.346   7.284   6.313  0.9975  2.6229  1.1347
   38G      O3'  823   5.258   7.457   6.439  0.4579 -0.4033  0.0479
   39U        P  824   5.374   7.450   6.539  0.4421 -0.2357 -0.4228
   39U      O1P  825   5.464   7.568   6.523  0.8373  0.2624 -0.9423
   39U      O2P  826   5.435   7.322   6.528  0.2989  0.6197  0.7658
   39U      O5'  827   5.307   7.447   6.678 -0.3609  0.3448  0.1851
   39U      C5'  828   5.233   7.551   6.723  0.0412 -0.4449  0.0630
   39U     H5'1  829   5.226   7.633   6.650 -5.5589 -1.2671 -0.7109
   39U     H5'2  830   5.282   7.602   6.806  0.5575  0.5013 -0.7954
   39U      C4'  831   5.094   7.509   6.771  0.4676 -0.1981 -0.7277
   39U      H4'  832   5.041   7.593   6.815 -1.3976 -0.8978 -1.5248
   39U      O4'  833   5.009   7.465   6.670 -0.2241  0.0922 -0.3702
   39U      C1'  834   4.916   7.380   6.733  0.2023  0.1645 -0.1029
   39U      H1'  835   4.816   7.419   6.716  1.0602  1.1444 -3.8161
   39U       N1  836   4.929   7.240   6.682  0.4479  0.4528  0.2664
   39U       C6  837   5.024   7.191   6.597 -1.0035 -0.6063 -0.1532
   39U       H6  838   5.105   7.258   6.570 -2.3560  0.7150 -1.0569
   39U       C5  839   5.030   7.074   6.530 -0.2884  0.2768  0.0700
   39U       H5  840   5.109   7.052   6.460 -1.7997 -1.8525 -1.0808
   39U       C4  841   4.914   6.985   6.540  0.7497 -0.4621 -0.4848
   39U       O4  842   4.897   6.885   6.473 -0.5862  0.2348  0.1368
   39U       N3  843   4.826   7.021   6.642  0.0687  0.2641  0.2085
   39U       H3  844   4.757   6.955   6.675 -2.1713  2.0882 -0.4899
   39U       C2  845   4.824   7.149   6.705 -0.2713 -0.3577  0.2631
   39U       O2  846   4.737   7.169   6.787  0.4481  0.1012  0.1029
   39U      C3'  847   5.094   7.407   6.886 -0.1846 -0.0361  0.8013
   39U      H3'  848   5.149   7.318   6.856  1.3867  1.6140 -1.4833
   39U      C2'  849   4.944   7.375   6.884 -0.3420  0.5266  0.8891
   39U     H2'1  850   4.932   7.273   6.922 -1.7278 -0.4263 -1.7982
   39U      O2'  851   4.866   7.476   6.941  0.1900 -0.1839 -0.5136
   39U     HO'2  852   4.806   7.441   7.007  2.3986 -0.0383  1.6906
   39U      O3'  853   5.134   7.457   7.009  0.0962  0.2129  0.8677
   40U        P  854   5.210   7.363   7.109  0.0612  0.2403  0.2567
   40U      O1P  855   5.264   7.437   7.220  0.1484 -0.3976 -0.7138
   40U      O2P  856   5.303   7.278   7.036  0.9167 -1.0174  0.0638
   40U      O5'  857   5.105   7.265   7.163  0.7344  0.4166  0.4920
   40U      C5'  858   4.992   7.310   7.237 -0.3548  0.7565 -0.5926
   40U     H5'1  859   4.932   7.378   7.177 -0.4042 -0.1826 -1.6430
   40U     H5'2  860   5.026   7.355   7.330 -1.1198 -0.2037  0.1713
   40U      C4'  861   4.907   7.195   7.280  0.6820  0.5253 -0.3187
   40U      H4'  862   4.825   7.213   7.349 -0.4844 -1.4913 -1.0974
   40U      O4'  863   4.836   7.153   7.163  0.3831  0.2589  0.2914
   40U      C1'  864   4.815   7.012   7.162 -0.0028 -0.1144 -1.0413
   40U      H1'  865   4.710   6.984   7.168  0.5944 -2.1121  2.5228
   40U       N1  866   4.875   6.959   7.040 -0.3599 -0.8468  0.4130
   40U       C6  867   4.991   7.009   6.984 -0.5869 -1.7187  0.2375
   40U       H6  868   5.038   7.090   7.037 -1.2381 -2.8247  2.6230
   40U       C5  869   5.047   6.952   6.867  0.3248  0.1944  0.7059
   40U       H5  870   5.140   6.989   6.828  0.6889 -1.2391  0.1801
   40U       C4  871   4.985   6.833   6.810 -0.8440 -0.4223  0.4645
   40U       O4  872   5.024   6.769   6.713 -0.1469  0.2791  0.2695
   40U       N3  873   4.872   6.791   6.878 -0.2166  0.6085 -0.0163
   40U       H3  874   4.831   6.703   6.850  0.0105  0.4143  0.2549
   40U       C2  875   4.819   6.838   6.996  0.4087 -1.0914  0.3739
   40U       O2  876   4.736   6.773   7.056  0.7867  0.4696  0.3245
   40U      C3'  877   4.986   7.069   7.318  0.4748  0.1557  0.1219
   40U      H3'  878   5.077   7.065   7.257  0.2325 -1.7956 -0.1622
   40U      C2'  879   4.888   6.960   7.283  0.0824  0.1960 -0.5671
   40U     H2'1  880   4.942   6.869   7.257  1.0495  0.4466  0.4787
   40U      O2'  881   4.785   6.938   7.383 -1.0235  0.6696 -0.2406
   40U     HO'2  882   4.824   6.971   7.464  1.0795  2.9882 -2.0531
   40U      O3'  883   5.024   7.044   7.449 -0.1822 -1.4206  0.1512
   41U        P  884   5.151   6.953   7.492 -0.1560  0.2773  0.3615
   41U      O1P  885   5.169   6.978   7.635 -0.3677  0.0312  0.3326
   41U      O2P  886   5.257   6.976   7.394 -0.0007  0.2180  0.9292
   41U      O5'  887   5.114   6.803   7.487 -0.5553 -0.2384 -0.2768
   41U      C5'  888   5.014   6.740   7.561 -0.7128 -0.3516  0.2959
   41U     H5'1  889   4.933   6.810   7.579 -1.8255 -1.8324  1.2948
   41U     H5'2  890   5.054   6.716   7.659 -0.5425 -0.9100  0.0932
   41U      C4'  891   4.964   6.601   7.511 -0.9881 -0.4678 -0.3866
   41U      H4'  892   4.904   6.557   7.591  1.2374 -0.5531  1.3467
   41U      O4'  893   4.900   6.619   7.377  0.4775  0.1315  0.6500
   41U      C1'  894   4.914   6.495   7.309  0.1193  1.1079  0.4370
   41U      H1'  895   4.817   6.449   7.292  0.7267 -0.2811  0.6260
   41U       N1  896   4.977   6.517   7.179  0.0798  0.0858  0.3825
   41U       C6  897   5.080   6.612   7.154  0.8001  0.2461 -0.6601
   41U       H6  898   5.100   6.685   7.232 -0.8332  1.8444 -1.6605
   41U       C5  899   5.150   6.613   7.040  0.0223  0.9771  0.1882
   41U       H5  900   5.231   6.683   7.028 -1.3224  2.3632 -1.3991
   41U       C4  901   5.127   6.510   6.942 -0.1002 -0.2313  0.1239
   41U       O4  902   5.184   6.500   6.830  0.3038 -0.1919  0.4166
   41U       N3  903   5.023   6.428   6.963 -0.5918  0.8423 -0.3975
   41U       H3  904   5.013   6.350   6.899 -0.8577  0.7509 -0.2480
   41U       C2  905   4.955   6.419   7.085  0.5894 -0.3963  0.6678
   41U       O2  906   4.864   6.336   7.087 -0.0277 -0.4242 -0.4499
   41U      C3'  907   5.082   6.494   7.486  1.0604 -0.0052  0.5849
   41U      H3'  908   5.170   6.540   7.442  1.3970 -1.8862 -0.8556
   41U      C2'  909   5.006   6.401   7.387  0.5405 -0.4789  0.2618
   41U     H2'1  910   5.077   6.361   7.314  1.8883  2.3425 -0.1077
   41U      O2'  911   4.915   6.305   7.438 -0.2728 -0.4430  0.5716
   41U     HO'2  912   4.957   6.247   7.502 -1.9434  0.4573  2.6229
   41U      O3'  913   5.110   6.424   7.605  0.3262  0.1121 -0.0050
   42G        P  914   5.224   6.316   7.607 -0.0089 -0.0867  0.4132
   42G      O1P  915   5.255   6.283   7.748 -0.1682 -1.1077 -0.7351
   42G      O2P  916   5.330   6.347   7.512 -0.1020  0.2009  0.2312
   42G      O5'  917   5.155   6.186   7.553  0.2779 -0.1528  0.4187
   42G      C5'  918   5.085   6.092   7.635 -0.7073  0.3827 -0.2508
   42G     H5'1  919   4.983   6.121   7.660 -0.4642 -0.9804  2.8167
   42G     H5'2  920   5.137   6.084   7.730 -1.1242  0.3420 -0.0267
   42G      C4'  921   5.071   5.947   7.579 -0.0246  0.2064  0.2757
   42G      H4'  922   5.026   5.882   7.654 -0.7133  0.3653  0.0061
   42G      O4'  923   4.989   5.947   7.457  0.3208 -0.2589  0.2214
   42G      C1'  924   5.045   5.874   7.352 -0.0323  0.3309  0.0901
   42G      H1'  925   4.971   5.808   7.306  0.9029 -0.3463 -0.4812
   42G       N9  926   5.091   5.967   7.242  0.5947  0.9062  0.0675
   42G       C8  927   5.123   6.095   7.237  0.6268 -0.3564 -0.3851
   42G       H8  928   5.110   6.156   7.325 -1.7052  0.0513 -0.9528
   42G       N7  929   5.186   6.134   7.133  0.0643  0.2787 -0.1685
   42G       C5  930   5.176   6.024   7.046  0.0936  0.0380  0.5654
   42G       C6  931   5.210   6.004   6.906 -0.3563  0.2425  0.4487
   42G       O6  932   5.275   6.070   6.827 -0.0137 -0.3638 -0.2679
   42G       N1  933   5.167   5.888   6.854  0.2823  1.1076  0.2287
   42G       H1  934   5.212   5.848   6.773 -1.9890  1.1821 -1.1474
   42G       C2  935   5.112   5.785   6.932  0.0623 -0.9106  0.4987
   42G       N2  936   5.108   5.656   6.894  0.6982 -0.4484  0.0540
   42G      H21  937   5.121   5.619   6.801  1.6816  0.0482 -0.0148
   42G      H22  938   5.054   5.600   6.959 -0.6578 -0.1471 -0.7792
   42G       N3  939   5.083   5.800   7.062  0.2245  0.5781 -0.2183
   42G       C4  940   5.110   5.922   7.109 -0.3613  1.0757  0.0668
   42G      C3'  941   5.201   5.886   7.519  0.3464  0.0382 -0.8181
   42G      H3'  942   5.249   5.970   7.467  2.3792 -1.6934 -1.9084
   42G      C2'  943   5.154   5.791   7.415 -0.8926  0.5793 -0.2326
   42G     H2'1  944   5.225   5.767   7.337 -1.6137  2.5325 -1.5561
   42G      O2'  945   5.096   5.677   7.473 -0.4130  0.4493 -0.1028
   42G     HO'2  946   5.120   5.606   7.412  0.6002  1.1150 -0.5199
   42G      O3'  947   5.285   5.821   7.612 -0.4010 -0.2415 -0.1159
   43G        P  948   5.440   5.820   7.595  0.3426 -0.3001  0.3017
   43G      O1P  949   5.514   5.759   7.705  0.2172  0.0358  0.1820
   43G      O2P  950   5.491   5.947   7.541  1.1172 -0.0356  0.2295
   43G      O5'  951   5.446   5.716   7.472 -0.2603  0.8246  0.5544
   43G      C5'  952   5.421   5.576   7.492 -0.0473  0.3480  0.3536
   43G     H5'1  953   5.318   5.548   7.514 -0.0678 -1.4208 -1.6696
   43G     H5'2  954   5.495   5.536   7.562 -0.3783 -0.1113  0.4445
   43G      C4'  955   5.441   5.520   7.347  0.2671  1.0742 -0.3093
   43G      H4'  956   5.393   5.422   7.340  0.1258  1.1190 -0.0025
   43G      O4'  957   5.371   5.595   7.248 -0.3357  0.0601  0.4088
   43G      C1'  958   5.452   5.601   7.127  0.1856  0.4369  0.4933
   43G      H1'  959   5.391   5.559   7.047 -0.4667  0.1447  1.1331
   43G       N9  960   5.487   5.740   7.078 -0.1085 -0.2706  0.2628
   43G       C8  961   5.487   5.860   7.152 -0.2409  0.9672 -0.4530
   43G       H8  962   5.463   5.854   7.257  2.8987 -1.0628  0.2841
   43G       N7  963   5.507   5.968   7.075 -0.1148 -0.0280 -0.6222
   43G       C5  964   5.545   5.919   6.949  0.9121  0.3410 -0.3258
   43G       C6  965   5.583   5.983   6.823 -0.3437 -0.4383 -1.2030
   43G       O6  966   5.606   6.100   6.803  0.6627  0.1724  0.0361
   43G       N1  967   5.604   5.890   6.722 -0.5654 -0.0019  0.1401
   43G       H1  968   5.631   5.931   6.634 -1.4827  4.0583  1.5026
   43G       C2  969   5.562   5.760   6.738 -0.0555 -0.6655 -0.1165
   43G       N2  970   5.598   5.686   6.638 -0.9888 -0.0265  0.4392
   43G      H21  971   5.644   5.733   6.561 -3.2213 -0.4792 -1.3012
   43G      H22  972   5.575   5.588   6.633 -0.5278 -0.1618  0.9083
   43G       N3  973   5.522   5.701   6.848  0.1994  1.1974  0.1953
   43G       C4  974   5.521   5.781   6.953 -0.4207 -0.7531  0.3406
   43G      C3'  975   5.592   5.514   7.313  0.7518  0.1861 -0.3708
   43G      H3'  976   5.629   5.614   7.336  0.7186  1.2245 -4.0538
   43G      C2'  977   5.581   5.519   7.158  0.2644  0.6581 -0.6233
   43G     H2'1  978   5.671   5.555   7.108  0.6826  0.4809 -0.0181
   43G      O2'  979   5.558   5.391   7.105  0.0644  0.3149 -0.0482
   43G     HO'2  980   5.557   5.404   7.010  3.1877  3.1973  0.1220
   43G      O3'  981   5.662   5.401   7.363 -0.3121  0.3351 -0.3228
   44G        P  982   5.815   5.412   7.397 -0.5470 -0.0768 -0.1559
   44G      O1P  983   5.849   5.291   7.475  0.8272  0.3141 -0.4596
   44G      O2P  984   5.836   5.543   7.463  0.0308 -0.1749 -0.1642
   44G      O5'  985   5.882   5.421   7.256 -0.3285  0.0843  1.6347
   44G      C5'  986   5.895   5.316   7.159  0.0171  0.0614  0.1529
   44G     H5'1  987   5.805   5.256   7.149 -0.8082  1.5025 -1.6326
   44G     H5'2  988   5.979   5.253   7.189  0.2896  0.2292 -0.2427
   44G      C4'  989   5.922   5.367   7.013  0.6565 -0.2056 -0.6137
   44G      H4'  990   5.911   5.278   6.951 -0.7927 -1.0869  0.8346
   44G      O4'  991   5.829   5.465   6.963 -0.2260 -0.8224  0.2469
   44G      C1'  992   5.903   5.536   6.862 -0.4728 -0.9921 -0.3991
   44G      H1'  993   5.864   5.514   6.762  2.0815  2.4034 -2.3548
   44G       N9  994   5.896   5.684   6.863 -0.4629  0.2642  0.4253
   44G       C8  995   5.862   5.753   6.978 -0.0601  0.7544  0.8972
   44G       H8  996   5.818   5.701   7.062  1.7172  0.1840  1.5255
   44G       N7  997   5.868   5.886   6.958 -0.3088  0.0594  0.6958
   44G       C5  998   5.921   5.894   6.825  0.6962  0.7351 -0.3969
   44G       C6  999   5.957   6.008   6.756  0.1867  1.0048  0.9736
   44G       O6 1000   5.946   6.126   6.782 -0.1093  0.2899 -0.5372
   44G       N1 1001   6.024   5.984   6.636  0.5942  0.1469  0.7654
   44G       H1 1002   6.054   6.064   6.582 -0.6180  1.9604  2.6073
   44G       C2 1003   6.047   5.865   6.588 -0.9992  0.4809  0.0979
   44G       N2 1004   6.117   5.849   6.476 -0.2087 -0.2362  0.0163
   44G      H21 1005   6.161   5.931   6.436 -1.3264  0.9461  1.1290
   44G      H22 1006   6.143   5.754   6.453  1.8408  0.5631 -1.3025
   44G       N3 1007   6.012   5.751   6.653  0.0770  0.1339  0.4134
   44G       C4 1008   5.953   5.776   6.776 -0.6968  0.2888  0.5538
   44G      C3' 1009   6.065   5.423   7.001  0.4345  0.0431  0.1282
   44G      H3' 1010   6.088   5.508   7.065  0.0947 -1.1630  1.9172
   44G      C2' 1011   6.048   5.482   6.861 -0.4431  0.1914 -0.0611
   44G     H2'1 1012   6.118   5.561   6.833 -1.7864  1.0713 -1.0319
   44G      O2' 1013   6.053   5.378   6.761  0.0915  1.0803 -0.1614
   44G     HO'2 1014   6.064   5.297   6.812 -1.0962 -0.3719 -2.0803
   44G      O3' 1015   6.177   5.333   7.011 -0.4859  0.2796 -0.0053
   45A        P 1016   6.319   5.391   7.032 -0.3565 -0.3569 -0.0748
   45A      O1P 1017   6.411   5.282   7.066  0.1740 -0.5491 -0.3767
   45A      O2P 1018   6.314   5.497   7.133  0.0741 -0.6877 -0.3462
   45A      O5' 1019   6.350   5.458   6.886  0.1933  0.1743  0.3144
   45A      C5' 1020   6.418   5.396   6.768  0.0974  0.0167 -0.0369
   45A     H5'1 1021   6.341   5.329   6.729 -1.0094  1.9353 -1.3352
   45A     H5'2 1022   6.509   5.349   6.805  1.2386  1.6005 -0.7100
   45A      C4' 1023   6.476   5.488   6.666  0.4869 -1.2843 -0.0381
   45A      H4' 1024   6.515   5.442   6.575  3.8464  1.1325 -0.0039
   45A      O4' 1025   6.387   5.583   6.607  0.4399 -0.5458 -0.5705
   45A      C1' 1026   6.446   5.711   6.596  0.1856  0.1822 -0.2624
   45A      H1' 1027   6.436   5.752   6.495  1.2642  0.8635 -0.1099
   45A       N9 1028   6.393   5.813   6.691 -0.0674 -0.0087 -0.0777
   45A       C8 1029   6.311   5.791   6.797  0.0636 -0.9951 -0.5291
   45A       H8 1030   6.300   5.698   6.850 -1.1718 -0.4680  0.1682
   45A       N7 1031   6.254   5.905   6.845  0.7419 -0.5988 -0.3239
   45A       C5 1032   6.315   6.001   6.764  1.1086  0.5908  0.2459
   45A       C6 1033   6.306   6.140   6.763 -0.1445  0.7251 -0.3957
   45A       N6 1034   6.234   6.212   6.846 -1.4166 -0.2299 -0.0092
   45A      H61 1035   6.170   6.172   6.914 -2.8561  0.0322 -1.1611
   45A      H62 1036   6.235   6.313   6.837  3.0645 -0.1361 -0.4814
   45A       N1 1037   6.373   6.211   6.671 -0.6994  0.4175  0.4717
   45A       C2 1038   6.448   6.152   6.581  0.0603 -0.0813 -0.6334
   45A       H2 1039   6.492   6.213   6.504 -0.6440 -1.0829 -1.8887
   45A       N3 1040   6.463   6.022   6.570  0.9135  0.4939  1.0703
   45A       C4 1041   6.389   5.950   6.664 -0.7058  0.9798 -0.2471
   45A      C3' 1042   6.585   5.575   6.722  0.2731 -0.6775 -0.0580
   45A      H3' 1043   6.559   5.609   6.822 -0.1511  0.1246 -0.4256
   45A      C2' 1044   6.596   5.698   6.631 -0.3620  0.5076  0.9631
   45A     H2'1 1045   6.635   5.781   6.689 -0.1032  2.0027 -1.2317
   45A      O2' 1046   6.670   5.653   6.519 -0.2281  0.0711 -0.4406
   45A     HO'2 1047   6.731   5.592   6.562 -0.9182 -1.4291 -1.5004
   45A      O3' 1048   6.711   5.500   6.731 -0.0531 -0.3131  0.5660
   46G        P 1049   6.815   5.521   6.850 -0.2871  0.1971 -0.0617
   46G      O1P 1050   6.940   5.459   6.806 -0.3530  0.1546  0.1564
   46G      O2P 1051   6.752   5.471   6.969  0.2740  0.0598 -0.1777
   46G      O5' 1052   6.846   5.678   6.861 -0.4742 -0.1599 -0.1082
   46G      C5' 1053   6.941   5.735   6.783 -0.5945 -0.6746 -0.0074
   46G     H5'1 1054   6.925   5.727   6.675 -1.3270 -1.3683  0.1420
   46G     H5'2 1055   7.040   5.705   6.817 -0.1037  1.4725  0.6407
   46G      C4' 1056   6.929   5.892   6.799  0.5484  0.3958  0.1923
   46G      H4' 1057   6.996   5.942   6.730 -0.0565  1.5788  0.4383
   46G      O4' 1058   6.786   5.924   6.773 -0.7387  0.5862 -0.3656
   46G      C1' 1059   6.754   6.027   6.853 -0.7719 -0.1932  0.0113
   46G      H1' 1060   6.740   6.119   6.796 -0.9684 -0.9024 -1.1040
   46G       N9 1061   6.642   6.005   6.946  0.3177  0.5478 -0.3365
   46G       C8 1062   6.593   5.882   6.991  1.1339  0.0362 -0.5613
   46G       H8 1063   6.631   5.789   6.953 -0.0023  0.6106 -3.3318
   46G       N7 1064   6.491   5.896   7.073  0.6924  0.1241  0.3090
   46G       C5 1065   6.471   6.039   7.085  0.3345 -0.3703  0.2562
   46G       C6 1066   6.381   6.113   7.167  0.4666 -1.1915 -0.4369
   46G       O6 1067   6.297   6.070   7.244 -0.6552  0.1407  0.2717
   46G       N1 1068   6.396   6.251   7.145 -1.2159  0.2181 -0.8290
   46G       H1 1069   6.319   6.299   7.189 -0.7795 -0.0340  0.2499
   46G       C2 1070   6.482   6.308   7.060 -0.5744  1.0553 -0.7653
   46G       N2 1071   6.456   6.430   7.022  0.1778  0.4006 -0.5430
   46G      H21 1072   6.391   6.490   7.070  0.3987 -1.9475  3.1581
   46G      H22 1073   6.507   6.465   6.943  0.7943 -0.3410 -0.4858
   46G       N3 1074   6.563   6.236   6.974  0.9379 -0.6975 -0.8012
   46G       C4 1075   6.556   6.104   6.999  0.3781 -0.3410  0.5048
   46G      C3' 1076   6.958   5.934   6.950  0.5717  0.3251  0.1101
   46G      H3' 1077   6.917   5.863   7.022  2.2552 -1.1666 -0.3079
   46G      C2' 1078   6.872   6.067   6.946 -0.3561  0.3511  0.2182
   46G     H2'1 1079   6.840   6.104   7.044  0.6195  1.7728  0.0357
   46G      O2' 1080   6.939   6.176   6.881 -0.2162  0.1919  0.8319
   46G     HO'2 1081   7.027   6.175   6.919  0.1513 -2.4150  0.1270
   46G      O3' 1082   7.095   5.952   6.981  0.0309 -0.1916  0.2747
   47U        P 1083   7.152   5.907   7.120  0.5962  0.3262 -0.4464
   47U      O1P 1084   7.294   5.935   7.106  0.1226  0.2974 -0.6958
   47U      O2P 1085   7.099   5.775   7.162  0.3381 -0.0153 -0.6698
   47U      O5' 1086   7.069   6.022   7.200 -0.1924  1.0176 -0.3925
   47U      C5' 1087   7.115   6.153   7.197 -0.3921 -0.1725 -0.1385
   47U     H5'1 1088   7.099   6.198   7.099 -0.5038  1.4275  0.5919
   47U     H5'2 1089   7.220   6.166   7.223 -1.1342  1.3779  2.4018
   47U      C4' 1090   7.060   6.235   7.310  0.2961  0.7906 -0.0333
   47U      H4' 1091   7.104   6.335   7.314  0.2804  0.7767  3.8691
   47U      O4' 1092   6.925   6.262   7.286  0.3689 -0.2251  0.0751
   47U      C1' 1093   6.868   6.304   7.413 -1.2360 -0.1231 -0.3857
   47U      H1' 1094   6.891   6.409   7.430  2.1046 -0.7926 -0.1495
   47U       N1 1095   6.725   6.263   7.424  0.1286 -0.1865 -0.3062
   47U       C6 1096   6.685   6.145   7.372  0.3510 -0.2733  0.2418
   47U       H6 1097   6.736   6.109   7.284 -0.0822  2.0950 -1.0548
   47U       C5 1098   6.568   6.085   7.413 -0.9038  0.4353 -0.2857
   47U       H5 1099   6.542   5.986   7.377 -0.0051  0.1650 -0.2093
   47U       C4 1100   6.496   6.136   7.524  0.1155  0.1972  0.2827
   47U       O4 1101   6.404   6.082   7.587  0.5172  0.4937 -0.0287
   47U       N3 1102   6.533   6.252   7.568  0.0546 -0.0829  0.5010
   47U       H3 1103   6.495   6.291   7.653  0.0341 -0.4326  0.6550
   47U       C2 1104   6.646   6.319   7.526 -0.1871 -0.6346  0.0577
   47U       O2 1105   6.669   6.431   7.570 -0.1148 -0.1387  0.8065
   47U      C3' 1106   7.069   6.159   7.451 -0.0521 -0.2396 -0.1197
   47U      H3' 1107   7.048   6.053   7.440 -1.5066 -0.0867  0.8730
   47U      C2' 1108   6.945   6.229   7.525  0.6340 -0.5611  0.8415
   47U     H2'1 1109   6.873   6.159   7.566 -2.5694 -1.1812 -4.9158
   47U      O2' 1110   6.996   6.323   7.620  0.2407 -0.2239  0.0573
   47U     HO'2 1111   7.090   6.313   7.609  0.0455 -0.2788 -1.9047
   47U      O3' 1112   7.198   6.188   7.495 -0.3277 -0.5466  0.3434
   48U        P 1113   7.305   6.078   7.529 -0.2191 -0.0591 -0.3686
   48U      O1P 1114   7.434   6.151   7.515  0.3161 -0.0424  0.2372
   48U      O2P 1115   7.278   5.956   7.461 -0.2424  0.2314  0.0851
   48U      O5' 1116   7.284   6.059   7.684 -0.2970 -0.0508  0.4253
   48U      C5' 1117   7.198   5.969   7.742 -1.0101  0.8235  0.1329
   48U     H5'1 1118   7.208   5.868   7.704 -0.6061  1.3290 -1.1501
   48U     H5'2 1119   7.096   5.980   7.706 -0.4836  0.2473 -1.5869
   48U      C4' 1120   7.210   5.969   7.893  0.5376  0.2314  0.7735
   48U      H4' 1121   7.155   5.884   7.932 -2.1129  0.0806 -2.8332
   48U      O4' 1122   7.341   5.941   7.949  0.0861 -0.0428  0.1681
   48U      C1' 1123   7.379   6.063   8.014  0.1839 -0.2903  0.4913
   48U      H1' 1124   7.345   6.059   8.118  0.0805  2.5081  0.6185
   48U       N1 1125   7.525   6.092   8.015  0.2734  0.7983 -0.0727
   48U       C6 1126   7.600   6.106   7.901  0.4127  0.6122  0.5633
   48U       H6 1127   7.547   6.112   7.806 -0.6865  1.0843  1.1819
   48U       C5 1128   7.733   6.112   7.906 -0.1548 -0.4818  0.2529
   48U       H5 1129   7.792   6.114   7.815 -1.1346 -0.7420 -0.4033
   48U       C4 1130   7.807   6.108   8.030  1.0721 -0.5241 -0.5200
   48U       O4 1131   7.928   6.121   8.042  0.6126  0.4675 -0.4739
   48U       N3 1132   7.722   6.099   8.140 -0.9011 -0.3390  0.3503
   48U       H3 1133   7.749   6.119   8.235 -0.3752 -1.0173  0.3495
   48U       C2 1134   7.583   6.085   8.140 -0.7233 -0.4145  0.4994
   48U       O2 1135   7.529   6.080   8.247  0.0021  0.0172 -0.7455
   48U      C3' 1136   7.151   6.107   7.953 -0.2516 -0.1621  0.3965
   48U      H3' 1137   7.094   6.173   7.887  0.5365 -0.2978 -0.4189
   48U      C2' 1138   7.287   6.175   7.966  0.2760 -0.2483  0.5152
   48U     H2'1 1139   7.319   6.217   7.871  0.5949  0.2702  0.8441
   48U      O2' 1140   7.280   6.290   8.045 -0.0409 -0.1068  0.5538
   48U     HO'2 1141   7.241   6.254   8.125 -0.8186 -1.1195 -0.2489
   48U      O3' 1142   7.088   6.086   8.079 -0.5542  0.4594 -0.9844
   49U        P 1143   6.929   6.032   8.080  0.2340 -0.3690  0.1507
   49U      O1P 1144   6.889   5.995   8.214 -0.2217  0.4446  0.2094
   49U      O2P 1145   6.910   5.941   7.968 -0.1829  0.0674  0.3855
   49U      O5' 1146   6.860   6.171   8.052 -0.5958  0.0548 -0.0684
   49U      C5' 1147   6.775   6.240   8.149  0.3461 -0.8744 -0.6171
   49U     H5'1 1148   6.827   6.240   8.245  3.1403 -3.5910 -1.9350
   49U     H5'2 1149   6.690   6.174   8.163  0.3175 -0.5953  0.6791
   49U      C4' 1150   6.717   6.376   8.101 -0.0403 -0.1524  0.7723
   49U      H4' 1151   6.619   6.392   8.145  0.8010  1.9863  2.0221
   49U      O4' 1152   6.795   6.489   8.147  0.7055  0.1722 -0.1552
   49U      C1' 1153   6.835   6.563   8.032  0.9418  0.8950 -0.2686
   49U      H1' 1154   6.758   6.638   8.019  0.5564  0.3612 -1.1474
   49U       N1 1155   6.972   6.633   8.041  0.4290 -0.2908 -0.5617
   49U       C6 1156   7.095   6.568   8.059 -0.5324  0.4805  1.0327
   49U       H6 1157   7.099   6.464   8.087  1.3551  1.0535  3.1641
   49U       C5 1158   7.212   6.637   8.050 -0.0197  0.4574  0.2089
   49U       H5 1159   7.306   6.592   8.076 -0.4432  0.8470  2.5785
   49U       C4 1160   7.216   6.783   8.026 -0.5156 -0.2907 -0.0309
   49U       O4 1161   7.317   6.850   8.013 -0.0927  0.3990  0.1319
   49U       N3 1162   7.089   6.838   8.008  0.0651  0.0829  1.0607
   49U       H3 1163   7.088   6.923   7.953 -1.6822  0.0081  0.9393
   49U       C2 1164   6.971   6.769   8.003  0.4101  1.3117 -0.2972
   49U       O2 1165   6.870   6.829   7.961  0.6694  0.7602 -0.0515
   49U      C3' 1166   6.702   6.397   7.953  0.4565  0.6266 -0.4748
   49U      H3' 1167   6.698   6.295   7.914  0.8734 -0.3897  1.9569
   49U      C2' 1168   6.831   6.457   7.916  0.6636  0.2895 -0.2210
   49U     H2'1 1169   6.911   6.383   7.924 -1.1387 -2.0523 -2.3102
   49U      O2' 1170   6.831   6.509   7.782  0.0550 -0.0703 -0.2593
   49U     HO'2 1171   6.876   6.450   7.721  0.2157 -0.2333  0.0163
   49U      O3' 1172   6.595   6.467   7.904  0.1542 -0.7223 -0.0637
   50C        P 1173   6.445   6.416   7.855  0.2086 -0.3905 -0.0732
   50C      O1P 1174   6.440   6.274   7.828  0.3149 -0.0779  0.1087
   50C      O2P 1175   6.410   6.495   7.735  0.6258 -0.4513 -0.9276
   50C      O5' 1176   6.354   6.455   7.984  0.0992 -0.0224  0.0513
   50C      C5' 1177   6.318   6.357   8.082  0.3530 -0.1530  0.2405
   50C     H5'1 1178   6.405   6.291   8.089 -0.5375 -1.4996 -0.8681
   50C     H5'2 1179   6.238   6.296   8.042 -0.9922  1.6314  0.0858
   50C      C4' 1180   6.299   6.410   8.227  0.1166  0.0486  0.4109
   50C      H4' 1181   6.252   6.328   8.282 -3.1947  0.1950 -1.8741
   50C      O4' 1182   6.418   6.463   8.281  0.1006  0.1698 -0.4021
   50C      C1' 1183   6.381   6.574   8.373  0.2138 -0.3133 -0.0292
   50C      H1' 1184   6.418   6.562   8.475 -2.4299  1.9057  1.3226
   50C       N1 1185   6.437   6.702   8.326 -0.4845 -0.6939  1.0184
   50C       C6 1186   6.515   6.696   8.210  0.1866 -0.0564 -0.1552
   50C       H6 1187   6.506   6.619   8.134  1.6459  0.4952 -0.9326
   50C       C5 1188   6.583   6.809   8.168  0.1280 -0.1812 -0.1820
   50C       H5 1189   6.637   6.808   8.074  0.9745 -1.9278  0.2749
   50C       C4 1190   6.582   6.918   8.256 -0.4236 -0.0968  0.2129
   50C       N4 1191   6.629   7.032   8.222 -0.1172  0.4562 -0.3313
   50C      H41 1192   6.664   7.033   8.127  0.8745  0.9596  0.0155
   50C      H42 1193   6.620   7.114   8.280 -0.0890 -0.6094  1.2560
   50C       N3 1194   6.516   6.919   8.370  0.3126  0.1514  1.0126
   50C       C2 1195   6.446   6.811   8.405 -1.0510  0.5133 -0.7544
   50C       O2 1196   6.388   6.818   8.516 -0.2101 -0.2548 -0.2228
   50C      C3' 1197   6.202   6.518   8.227 -0.2610  0.2078 -0.8378
   50C      H3' 1198   6.242   6.589   8.154  2.7623  1.5818  1.9177
   50C      C2' 1199   6.231   6.581   8.366 -1.0531  0.0155  0.2276
   50C     H2'1 1200   6.196   6.684   8.367  2.5769  1.5332 -2.6149
   50C      O2' 1201   6.185   6.503   8.465  0.6267 -0.2218 -0.1491
   50C     HO'2 1202   6.093   6.515   8.441  0.4553 -0.6991  0.2474
   50C      O3' 1203   6.067   6.479   8.198 -0.0543  0.3385 -0.7619
   51U        P 1204   5.936   6.541   8.260  0.2415  0.0527  0.6250
   51U      O1P 1205   5.940   6.527   8.408 -0.2529 -0.4480  0.3748
   51U      O2P 1206   5.820   6.496   8.176 -0.0659  0.1546  0.4770
   51U      O5' 1207   5.954   6.693   8.224 -0.2116 -0.2101 -0.0141
   51U      C5' 1208   5.960   6.797   8.322 -0.1062  0.2957 -0.1860
   51U     H5'1 1209   6.013   6.768   8.413  0.1512 -1.8337 -0.9433
   51U     H5'2 1210   5.861   6.821   8.360 -0.3687 -0.1607 -0.5753
   51U      C4' 1211   6.024   6.922   8.261 -0.0482 -0.0750  0.2247
   51U      H4' 1212   5.998   6.990   8.342 -1.8115 -1.3708  0.8049
   51U      O4' 1213   6.165   6.924   8.255  0.0405 -0.0273 -0.1583
   51U      C1' 1214   6.198   7.027   8.160 -0.1876  0.0058 -0.1174
   51U      H1' 1215   6.259   7.107   8.202 -0.0960  0.1908 -0.5970
   51U       N1 1216   6.269   6.971   8.044  0.1384 -0.4417 -0.2098
   51U       C6 1217   6.266   6.844   8.011  0.2833  0.4023 -0.1490
   51U       H6 1218   6.198   6.782   8.068  1.3459  0.7398  1.5396
   51U       C5 1219   6.349   6.787   7.918 -0.1980 -0.4683  0.2055
   51U       H5 1220   6.350   6.681   7.895  0.6442 -0.1668 -1.3120
   51U       C4 1221   6.451   6.875   7.863 -0.3863  0.0685  0.0839
   51U       O4 1222   6.541   6.841   7.800 -0.9198  0.9813 -0.3128
   51U       N3 1223   6.434   7.009   7.885  0.1738 -0.3100 -0.2413
   51U       H3 1224   6.494   7.066   7.827 -0.6437  0.6388 -0.1656
   51U       C2 1225   6.341   7.062   7.972 -0.1178  0.7998 -0.0048
   51U       O2 1226   6.339   7.179   7.994 -0.5052 -0.2474 -0.2022
   51U      C3' 1227   5.964   6.990   8.136  0.2348  0.2488 -0.5721
   51U      H3' 1228   5.971   6.911   8.061 -2.0235  1.0764 -1.7471
   51U      C2' 1229   6.072   7.099   8.106 -0.5361  0.0944  0.2849
   51U     H2'1 1230   6.083   7.132   8.003 -0.1802  4.5343  1.5149
   51U      O2' 1231   6.049   7.208   8.193  0.2349 -0.0919  0.2468
   51U     HO'2 1232   5.955   7.198   8.211 -0.1540  0.6185 -1.1891
   51U      O3' 1233   5.830   7.033   8.155 -1.0744  0.2215 -0.3985
   52A        P 1234   5.720   7.021   8.041  0.2002 -0.4578 -0.0516
   52A      O1P 1235   5.590   7.068   8.099 -0.2734 -0.4419  0.9749
   52A      O2P 1236   5.723   6.887   7.977 -0.8814  0.1361  0.5444
   52A      O5' 1237   5.761   7.136   7.933  0.3593  0.6985  0.0416
   52A      C5' 1238   5.732   7.271   7.957 -0.9886 -0.9519  0.0743
   52A     H5'1 1239   5.758   7.309   8.056  0.2953 -0.2324 -0.5164
   52A     H5'2 1240   5.629   7.305   7.953 -0.2189  1.7413  0.9545
   52A      C4' 1241   5.804   7.341   7.842  0.2232  0.0142 -0.2820
   52A      H4' 1242   5.781   7.447   7.852  2.1822  0.3728  0.9721
   52A      O4' 1243   5.949   7.313   7.844  0.3853  0.3229  0.8542
   52A      C1' 1244   5.991   7.314   7.707 -0.4820  0.3799 -0.5051
   52A      H1' 1245   6.072   7.385   7.686  0.6150 -0.6459  0.1570
   52A       N9 1246   6.043   7.182   7.675  0.0004 -0.0885  0.4114
   52A       C8 1247   6.007   7.060   7.723  0.2912  0.5180  0.3733
   52A       H8 1248   5.916   7.046   7.781  1.1601  0.0693  1.6651
   52A       N7 1249   6.076   6.959   7.681 -0.1845  0.2723 -0.8142
   52A       C5 1250   6.179   7.022   7.605 -0.2942  0.6272 -0.5447
   52A       C6 1251   6.297   6.984   7.536 -0.5468  0.4673 -0.0028
   52A       N6 1252   6.340   6.863   7.543  0.3259  0.1945 -0.4534
   52A      H61 1253   6.297   6.805   7.613  0.4152  1.8874  1.0772
   52A      H62 1254   6.410   6.823   7.482 -0.7402 -1.5815 -0.5680
   52A       N1 1255   6.362   7.060   7.451 -0.2997  0.3538  0.1224
   52A       C2 1256   6.322   7.188   7.449 -0.8200 -0.0025  0.1283
   52A       H2 1257   6.377   7.254   7.383 -0.8466  1.9584  1.9777
   52A       N3 1258   6.216   7.245   7.511 -0.2315  0.9506  0.3473
   52A       C4 1259   6.149   7.159   7.591  0.5173  0.3324 -0.1068
   52A      C3' 1260   5.751   7.309   7.703  0.2250  0.3770 -0.5927
   52A      H3' 1261   5.735   7.203   7.685  1.6844  0.2682 -1.4050
   52A      C2' 1262   5.871   7.350   7.620 -0.2002  0.1033 -0.2933
   52A     H2'1 1263   5.876   7.295   7.526  0.9530 -2.8438  1.3454
   52A      O2' 1264   5.866   7.490   7.597  0.8010  0.1625 -0.4769
   52A     HO'2 1265   5.778   7.521   7.616 -0.1655 -2.6201  0.0437
   52A      O3' 1266   5.637   7.382   7.667 -0.4869  0.1380  0.2175
   53C        P 1267   5.496   7.316   7.641  0.0238  0.0429 -0.0616
   53C      O1P 1268   5.402   7.430   7.615  0.4164 -0.6791 -1.1110
   53C      O2P 1269   5.461   7.240   7.757 -0.4326 -0.3101  0.3864
   53C      O5' 1270   5.519   7.221   7.521  0.2641 -0.0257  0.3056
   53C      C5' 1271   5.523   7.270   7.381  0.1513  0.1405  0.1021
   53C     H5'1 1272   5.450   7.350   7.373 -0.2353 -0.1752  0.4076
   53C     H5'2 1273   5.501   7.188   7.312  0.6272 -0.4695  0.6628
   53C      C4' 1274   5.667   7.315   7.335 -0.4400 -0.1803 -0.2501
   53C      H4' 1275   5.704   7.401   7.391  1.2506 -0.1975 -1.2685
   53C      O4' 1276   5.760   7.207   7.325 -0.7831  0.0476 -0.4925
   53C      C1' 1277   5.863   7.249   7.242 -0.2853  0.2070 -0.3539
   53C      H1' 1278   5.937   7.302   7.303 -0.2178  2.1849 -2.0440
   53C       N1 1279   5.912   7.126   7.181 -0.9265 -0.1453  0.6030
   53C       C6 1280   6.037   7.087   7.204  0.4901  1.0906  0.4658
   53C       H6 1281   6.102   7.155   7.258  0.3552 -0.5802  2.8531
   53C       C5 1282   6.096   6.971   7.167  0.0656  0.1914  0.1530
   53C       H5 1283   6.196   6.944   7.197  0.0499 -0.1090 -0.0643
   53C       C4 1284   6.006   6.886   7.088  0.4168  0.2311 -0.0164
   53C       N4 1285   6.036   6.769   7.032 -0.0168  0.1550 -0.1050
   53C      H41 1286   6.132   6.738   7.040 -0.4635 -0.7685  2.8528
   53C      H42 1287   5.969   6.708   6.988  0.9006  0.4456 -2.0135
   53C       N3 1288   5.874   6.916   7.069 -0.5476  0.0898  0.2042
   53C       C2 1289   5.834   7.044   7.098  0.9810  0.0430 -0.1611
   53C       O2 1290   5.719   7.077   7.057  0.0757  0.3331  0.1058
   53C      C3' 1291   5.653   7.361   7.187  0.0083  0.3536 -0.0890
   53C      H3' 1292   5.601   7.282   7.134  1.3633 -0.1371 -0.7242
   53C      C2' 1293   5.804   7.361   7.146  0.4485  0.1152 -0.0188
   53C     H2'1 1294   5.822   7.342   7.040  2.7182  0.4226  0.2624
   53C      O2' 1295   5.856   7.484   7.202  0.6066  0.5889 -0.0642
   53C     HO'2 1296   5.811   7.559   7.160  1.5687 -0.0950 -2.4777
   53C      O3' 1297   5.585   7.492   7.181  0.4684 -0.3084 -0.1082
   54C        P 1298   5.569   7.569   7.046 -0.2684  0.2775  0.0011
   54C      O1P 1299   5.464   7.672   7.052  0.3777 -0.2079  0.4233
   54C      O2P 1300   5.580   7.472   6.937 -0.2002  0.1931 -0.2261
   54C      O5' 1301   5.704   7.659   7.032 -0.2759  0.5452  0.0713
   54C      C5' 1302   5.715   7.766   7.122 -0.1310 -0.1685 -0.6400
   54C     H5'1 1303   5.724   7.714   7.218  2.6468  0.0171 -0.6962
   54C     H5'2 1304   5.628   7.830   7.116 -0.3475 -0.2155  1.2972
   54C      C4' 1305   5.849   7.849   7.114  0.6810  0.1901 -0.0050
   54C      H4' 1306   5.857   7.921   7.195  0.9533  0.5619 -0.3591
   54C      O4' 1307   5.966   7.768   7.114 -0.3159  0.2912 -0.9879
   54C      C1' 1308   6.076   7.832   7.056  0.4844 -0.0979 -0.5890
   54C      H1' 1309   6.144   7.870   7.131 -0.7143 -1.7277  1.4348
   54C       N1 1310   6.136   7.750   6.951 -0.4503  0.3832  0.3288
   54C       C6 1311   6.070   7.642   6.889 -0.7811 -0.5829  0.9278
   54C       H6 1312   5.975   7.610   6.929  0.0918 -0.1935  3.4947
   54C       C5 1313   6.130   7.571   6.790  0.2135  0.3051  0.2504
   54C       H5 1314   6.095   7.480   6.744  0.0386  1.0096 -1.0814
   54C       C4 1315   6.264   7.604   6.753 -0.4060  0.7021  0.4345
   54C       N4 1316   6.326   7.529   6.661  0.3097 -0.0340 -0.8752
   54C      H41 1317   6.297   7.433   6.646 -0.9133  0.3000 -0.7964
   54C      H42 1318   6.420   7.558   6.640  0.4070 -0.5182 -1.1321
   54C       N3 1319   6.326   7.705   6.807 -0.0853  0.5578  0.3904
   54C       C2 1320   6.265   7.777   6.908 -0.9952 -0.6330 -0.1885
   54C       O2 1321   6.320   7.883   6.945  0.0463 -0.2276 -0.5885
   54C      C3' 1322   5.864   7.914   6.983  0.3865  0.7015  0.3373
   54C      H3' 1323   5.850   7.844   6.900 -0.1289 -0.1957  1.1592
   54C      C2' 1324   6.010   7.955   6.985  0.2492  1.4041  0.4473
   54C     H2'1 1325   6.041   7.965   6.881 -0.9152 -0.7590 -0.1488
   54C      O2' 1326   6.044   8.064   7.066 -0.1189 -0.1826 -0.6078
   54C     HO'2 1327   5.987   8.138   7.044  1.0604  0.2494 -2.5242
   54C      O3' 1328   5.776   8.024   6.972 -0.2624  0.0608 -0.4225
   55A        P 1329   5.749   8.093   6.820  0.1721 -0.5040  0.2019
   55A      O1P 1330   5.642   8.198   6.846 -0.3578  0.7457 -0.0834
   55A      O2P 1331   5.729   7.985   6.722 -0.0223 -0.0334  0.1721
   55A      O5' 1332   5.890   8.167   6.797  0.5061 -0.0064  0.0410
   55A      C5' 1333   5.921   8.303   6.839  0.3355  0.0200  0.1091
   55A     H5'1 1334   5.910   8.306   6.948 -2.1088 -2.4597  0.0472
   55A     H5'2 1335   5.847   8.371   6.796 -1.7074 -0.4161  2.6604
   55A      C4' 1336   6.061   8.341   6.794 -0.3768 -0.1306  0.6495
   55A      H4' 1337   6.087   8.439   6.835  1.4338  0.3519 -1.4035
   55A      O4' 1338   6.165   8.248   6.827  0.2139  0.5172 -0.5093
   55A      C1' 1339   6.256   8.239   6.720  0.0776  0.7455  0.1036
   55A      H1' 1340   6.359   8.254   6.752 -0.3182  0.6819  1.4692
   55A       N9 1341   6.252   8.102   6.653  0.6630 -1.1846  0.6512
   55A       C8 1342   6.142   8.015   6.631  0.4843  0.3128 -0.4952
   55A       H8 1343   6.040   8.026   6.665 -0.6714 -0.5924 -3.3762
   55A       N7 1344   6.171   7.915   6.552 -0.0580 -0.3756  0.5097
   55A       C5 1345   6.306   7.939   6.521  0.8185  0.4360 -0.3587
   55A       C6 1346   6.397   7.866   6.438 -0.5203  0.6594 -0.1255
   55A       N6 1347   6.375   7.761   6.371  0.0722  0.3557 -0.3932
   55A      H61 1348   6.288   7.710   6.379  0.4892 -0.0983  1.8488
   55A      H62 1349   6.447   7.729   6.307 -0.3791 -0.2394 -0.6190
   55A       N1 1350   6.520   7.915   6.421 -0.1815  0.2533  0.6333
   55A       C2 1351   6.558   8.024   6.488  0.3538  0.5608 -0.2134
   55A       H2 1352   6.653   8.065   6.457  0.6062 -1.5953 -2.6305
   55A       N3 1353   6.484   8.098   6.568 -0.4801  0.0793 -0.2012
   55A       C4 1354   6.354   8.045   6.582 -0.2362  0.8459 -0.3114
   55A      C3' 1355   6.074   8.365   6.643  0.1795 -0.6664  0.1640
   55A      H3' 1356   6.021   8.283   6.596 -0.7783  0.5490 -0.9593
   55A      C2' 1357   6.223   8.350   6.624 -0.5487  0.0521 -0.0256
   55A     H2'1 1358   6.257   8.324   6.524  0.0460 -2.0610  0.6849
   55A      O2' 1359   6.286   8.467   6.667 -0.5178  0.4843 -0.4244
   55A     HO'2 1360   6.226   8.542   6.673  0.9358  1.7574 -1.2079
   55A      O3' 1361   6.023   8.488   6.590 -0.3349 -0.4378  0.9432
   56A        P 1362   5.979   8.494   6.436 -0.2043 -0.0704 -0.1692
   56A      O1P 1363   5.923   8.629   6.420 -0.3694 -0.5818  0.5044
   56A      O2P 1364   5.895   8.380   6.410  0.8040  0.0288  0.5319
   56A      O5' 1365   6.119   8.473   6.357  0.6688 -0.2219 -0.2415
   56A      C5' 1366   6.197   8.587   6.326 -0.5784  0.1733  0.2229
   56A     H5'1 1367   6.241   8.610   6.423  0.0943  0.3069 -0.1084
   56A     H5'2 1368   6.147   8.676   6.287  2.3308  1.6491 -0.4009
   56A      C4' 1369   6.318   8.567   6.240  0.5164 -0.0903  0.0905
   56A      H4' 1370   6.395   8.644   6.239  1.1798 -0.7416 -0.1612
   56A      O4' 1371   6.387   8.450   6.278 -0.4795  0.1457  0.2135
   56A      C1' 1372   6.448   8.388   6.167 -0.1101 -0.3764  0.3448
   56A      H1' 1373   6.554   8.392   6.191 -0.4867 -1.2374  2.3311
   56A       N9 1374   6.397   8.249   6.170 -0.3547 -0.8510  0.1252
   56A       C8 1375   6.302   8.193   6.249  0.2223 -0.5689  0.2503
   56A       H8 1376   6.237   8.242   6.320 -0.2116 -1.1214  0.2451
   56A       N7 1377   6.271   8.073   6.214  0.3819 -0.2101 -0.0421
   56A       C5 1378   6.378   8.033   6.130 -0.4629 -0.8418 -0.3479
   56A       C6 1379   6.404   7.908   6.063 -0.8586 -1.0043  0.2170
   56A       N6 1380   6.334   7.793   6.073  0.2547  0.1884  0.7164
   56A      H61 1381   6.257   7.785   6.138 -1.9859 -1.7137 -1.9115
   56A      H62 1382   6.368   7.711   6.024  2.9610  0.2703  2.2357
   56A       N1 1383   6.504   7.911   5.976  0.5770 -0.9072 -0.0288
   56A       C2 1384   6.566   8.023   5.950 -0.6044  0.0370  0.2298
   56A       H2 1385   6.634   8.015   5.866  0.7936  0.1723  1.2956
   56A       N3 1386   6.547   8.144   6.008  0.2421 -0.1324 -0.6801
   56A       C4 1387   6.449   8.143   6.098 -0.4396 -0.7027  0.4903
   56A      C3' 1388   6.266   8.550   6.097  0.3590  0.8232  0.2657
   56A      H3' 1389   6.178   8.486   6.101 -0.7479  2.1428 -1.6359
   56A      C2' 1390   6.394   8.475   6.046 -0.6636  0.3734 -0.4594
   56A     H2'1 1391   6.366   8.409   5.964  1.5314 -3.0427  1.2963
   56A      O2' 1392   6.498   8.563   6.021  0.2531  0.7590  0.0386
   56A     HO'2 1393   6.460   8.646   5.992 -2.1943 -0.9674 -2.1115
   56A      O3' 1394   6.242   8.667   6.018 -0.1831 -0.4187 -0.0119
   57G        P 1395   6.162   8.658   5.879 -0.0220  0.1704 -0.0497
   57G      O1P 1396   6.165   8.783   5.808 -0.5002 -0.4789  0.5286
   57G      O2P 1397   6.029   8.591   5.905  0.5296 -0.1050 -0.5532
   57G      O5' 1398   6.250   8.561   5.804  0.3013  0.3634  0.4726
   57G      C5' 1399   6.366   8.606   5.737  0.0091 -0.5576 -0.3513
   57G     H5'1 1400   6.441   8.644   5.806 -0.9309  0.1644  0.2990
   57G     H5'2 1401   6.338   8.697   5.684 -0.1364 -1.7121 -2.3727
   57G      C4' 1402   6.406   8.502   5.636 -0.3911  0.1820 -0.0776
   57G      H4' 1403   6.475   8.549   5.566 -0.7828  3.3057  1.4538
   57G      O4' 1404   6.448   8.389   5.700 -0.2519 -0.3593 -0.1126
   57G      C1' 1405   6.422   8.275   5.612  0.3735  0.0138 -0.3725
   57G      H1' 1406   6.523   8.240   5.592  0.1130 -1.5308  0.8272
   57G       N9 1407   6.330   8.176   5.683 -0.5239  0.6613  0.3009
   57G       C8 1408   6.232   8.179   5.780  0.2461 -0.1728  0.8756
   57G       H8 1409   6.206   8.274   5.825 -0.3313 -0.9271  2.1768
   57G       N7 1410   6.166   8.074   5.804  0.3831  0.8736  0.4414
   57G       C5 1411   6.226   7.978   5.716  0.4261 -0.3317  0.3973
   57G       C6 1412   6.204   7.838   5.688  0.6753  0.4808 -0.9152
   57G       O6 1413   6.126   7.766   5.741  0.4520 -0.0184 -0.1085
   57G       N1 1414   6.303   7.790   5.607 -0.1101  0.2423  0.0591
   57G       H1 1415   6.281   7.697   5.574 -1.3354  0.5586 -0.0592
   57G       C2 1416   6.398   7.856   5.548 -1.5195  0.1232 -0.6249
   57G       N2 1417   6.477   7.786   5.469  0.4704  0.2099 -0.6519
   57G      H21 1418   6.472   7.687   5.452 -2.6085  0.3448 -1.0259
   57G      H22 1419   6.555   7.835   5.428  0.8368  0.0229 -0.1872
   57G       N3 1420   6.415   7.985   5.566 -0.3084  0.5242 -0.0060
   57G       C4 1421   6.328   8.042   5.648 -0.9562  0.1762  0.2303
   57G      C3' 1422   6.300   8.458   5.543 -0.1500 -1.0835  0.8879
   57G      H3' 1423   6.204   8.444   5.593 -1.2230 -2.0830 -1.3418
   57G      C2' 1424   6.350   8.326   5.488 -0.3347  0.5230  0.9083
   57G     H2'1 1425   6.262   8.263   5.476 -0.0244 -0.2864  2.5410
   57G      O2' 1426   6.449   8.335   5.385  0.1911 -0.0930 -0.3800
   57G     HO'2 1427   6.426   8.403   5.321  3.5788  1.9403  0.3133
   57G      O3' 1428   6.272   8.545   5.437 -0.2357 -0.1989 -0.0120
   58A        P 1429   6.129   8.546   5.362  0.5402 -0.6634 -0.1819
   58A      O1P 1430   6.126   8.660   5.268  0.6048  0.3258  0.1493
   58A      O2P 1431   6.028   8.543   5.470  0.0432  0.2090  0.7922
   58A      O5' 1432   6.107   8.411   5.280 -0.3015 -0.3653  0.6299
   58A      C5' 1433   6.183   8.385   5.158 -0.8377 -0.7241  0.2670
   58A     H5'1 1434   6.288   8.411   5.170 -0.2510 -2.1336 -1.4084
   58A     H5'2 1435   6.135   8.450   5.085  0.8213 -0.2442 -0.4578
   58A      C4' 1436   6.181   8.237   5.109  0.9175  0.0780 -0.0490
   58A      H4' 1437   6.252   8.227   5.027  2.1232 -2.8587  1.2190
   58A      O4' 1438   6.236   8.155   5.205  0.4993  0.7454 -0.2502
   58A      C1' 1439   6.179   8.025   5.192  0.3735  0.7135 -0.4210
   58A      H1' 1440   6.252   7.951   5.159 -0.2843 -0.6467  1.0260
   58A       N9 1441   6.117   7.974   5.316 -0.3362  0.1865  0.0785
   58A       C8 1442   6.057   8.037   5.420  0.0550  0.3754  0.0043
   58A       H8 1443   6.071   8.143   5.432 -0.0049  1.1430 -4.8922
   58A       N7 1444   5.976   7.958   5.494 -0.7800 -0.2327 -0.2619
   58A       C5 1445   6.008   7.830   5.437 -0.0669  0.2651  0.0104
   58A       C6 1446   5.967   7.699   5.464  0.3005  0.4892  0.7342
   58A       N6 1447   5.885   7.667   5.563  0.1175 -0.3149  0.2227
   58A      H61 1448   5.860   7.725   5.641 -0.0460  2.0981 -1.5128
   58A      H62 1449   5.867   7.567   5.565  0.7761 -0.4342  0.9599
   58A       N1 1450   6.023   7.592   5.412 -0.4415  0.3672 -0.2531
   58A       C2 1451   6.119   7.612   5.324  0.3347 -0.4594  0.6001
   58A       H2 1452   6.160   7.534   5.262  4.3589  3.4555 -2.3109
   58A       N3 1453   6.165   7.735   5.280 -0.3137  0.9139 -0.5980
   58A       C4 1454   6.105   7.838   5.345  0.3925 -0.6147 -0.7067
   58A      C3' 1455   6.041   8.184   5.077  0.6897  0.9109  0.3556
   58A      H3' 1456   5.963   8.201   5.151 -0.2434  1.2462 -0.6699
   58A      C2' 1457   6.072   8.035   5.086  0.3154  0.3096  0.1561
   58A     H2'1 1458   5.976   7.987   5.108 -1.1742  2.5996 -0.9023
   58A      O2' 1459   6.133   7.988   4.963 -0.2881  0.0343  0.2914
   58A     HO'2 1460   6.085   8.022   4.887 -1.6125 -2.2499  0.0261
   58A      O3' 1461   5.998   8.220   4.946  0.0600 -0.2975 -0.4223
   59G        P 1462   5.846   8.199   4.898 -0.0946  0.0330  0.6016
   59G      O1P 1463   5.827   8.286   4.780 -0.2685  0.0411 -0.0939
   59G      O2P 1464   5.756   8.218   5.012 -0.6169  0.3885  0.5625
   59G      O5' 1465   5.831   8.050   4.842 -0.4113  1.0016  0.4260
   59G      C5' 1466   5.880   8.012   4.718  0.0491 -1.1207  0.5768
   59G     H5'1 1467   5.973   8.064   4.695  2.1239 -4.7917 -0.2674
   59G     H5'2 1468   5.813   8.048   4.641  0.1345 -3.7061 -0.8452
   59G      C4' 1469   5.883   7.860   4.702 -0.4045  0.3398 -1.0666
   59G      H4' 1470   5.919   7.828   4.604 -1.4749 -0.2337 -1.2944
   59G      O4' 1471   5.972   7.804   4.803 -0.0624  0.5965 -0.2621
   59G      C1' 1472   5.909   7.677   4.845  0.3535  0.0503 -0.8055
   59G      H1' 1473   5.971   7.591   4.821 -0.1583 -0.4522 -0.3453
   59G       N9 1474   5.849   7.681   4.986 -0.1004 -0.5667 -0.2383
   59G       C8 1475   5.833   7.787   5.068  0.3095  0.0390  0.4882
   59G       H8 1476   5.820   7.889   5.033 -2.8533  0.4544  2.4565
   59G       N7 1477   5.786   7.761   5.187 -0.4058  0.3187 -0.4116
   59G       C5 1478   5.782   7.618   5.186 -0.1760  0.7488 -0.6493
   59G       C6 1479   5.726   7.518   5.277  0.0998  0.7166  0.2740
   59G       O6 1480   5.677   7.530   5.388 -0.3193  0.0199 -0.6876
   59G       N1 1481   5.749   7.387   5.238  0.4916  0.1595 -0.4891
   59G       H1 1482   5.710   7.316   5.298 -0.5351  0.5420 -0.6799
   59G       C2 1483   5.799   7.351   5.119 -0.3903 -0.7287  0.5511
   59G       N2 1484   5.782   7.226   5.083  0.5358 -0.3230  0.5146
   59G      H21 1485   5.765   7.158   5.156  3.8809  0.4580  2.2226
   59G      H22 1486   5.812   7.191   4.993  0.8555 -1.8316  1.1772
   59G       N3 1487   5.851   7.438   5.028  0.2508  0.3664 -0.2494
   59G       C4 1488   5.839   7.573   5.069 -0.1877  0.4073 -0.2637
   59G      C3' 1489   5.748   7.801   4.723  0.2118  0.7994 -0.8110
   59G      H3' 1490   5.697   7.850   4.807 -0.1326  1.0298 -1.1497
   59G      C2' 1491   5.786   7.655   4.758 -0.1263  0.3255  0.8149
   59G     H2'1 1492   5.710   7.599   4.813 -0.5139  0.7555  0.7132
   59G      O2' 1493   5.842   7.591   4.635 -0.0202 -0.0078 -0.6749
   59G     HO'2 1494   5.830   7.495   4.633 -4.2522  0.2612  0.6909
   59G      O3' 1495   5.670   7.803   4.606 -0.3384  0.0761 -1.1785
   60C        P 1496   5.521   7.775   4.615 -0.1742 -0.1168  0.4017
   60C      O1P 1497   5.456   7.819   4.486  0.1996 -0.7367 -0.2517
   60C      O2P 1498   5.466   7.836   4.733 -0.0557  0.1238 -0.1161
   60C      O5' 1499   5.506   7.615   4.624 -0.9861  0.9438  0.6910
   60C      C5' 1500   5.552   7.528   4.516 -0.4212  0.3061  0.3714
   60C     H5'1 1501   5.660   7.522   4.498 -0.7427 -0.4538 -1.4646
   60C     H5'2 1502   5.506   7.571   4.427 -1.5072 -0.7713  0.3978
   60C      C4' 1503   5.492   7.384   4.543 -0.3587 -0.6787 -0.2260
   60C      H4' 1504   5.525   7.322   4.459  2.0818 -0.0752  0.2089
   60C      O4' 1505   5.559   7.320   4.649 -0.0894  0.5696  0.2763
   60C      C1' 1506   5.468   7.235   4.727  0.6351 -0.2369  0.3339
   60C      H1' 1507   5.494   7.130   4.720  1.6026 -0.1529  2.2006
   60C       N1 1508   5.458   7.283   4.866  0.1824 -0.4443 -0.1127
   60C       C6 1509   5.477   7.417   4.898  0.6031 -0.5656 -0.1441
   60C       H6 1510   5.498   7.484   4.816 -2.3191 -1.0185 -1.3865
   60C       C5 1511   5.468   7.451   5.025  0.2130 -0.4966 -0.2258
   60C       H5 1512   5.493   7.553   5.048  2.1007 -1.0449  0.3492
   60C       C4 1513   5.436   7.348   5.118 -0.2636  0.0849  0.5875
   60C       N4 1514   5.431   7.369   5.251  0.0355  0.2405  0.0667
   60C      H41 1515   5.441   7.464   5.284 -0.3331 -0.4550  2.3253
   60C      H42 1516   5.420   7.284   5.305  0.7235 -0.3200 -0.6517
   60C       N3 1517   5.426   7.217   5.088  0.3160  0.1874  0.0120
   60C       C2 1518   5.434   7.185   4.962 -0.5292  0.4947  0.3224
   60C       O2 1519   5.426   7.063   4.936  0.1439  0.3234  0.1295
   60C      C3' 1520   5.340   7.375   4.579  0.3468 -0.1064 -0.0340
   60C      H3' 1521   5.317   7.464   4.638 -3.5930  0.0092 -1.4668
   60C      C2' 1522   5.329   7.249   4.662 -0.9671  1.4413  0.3969
   60C     H2'1 1523   5.250   7.262   4.735 -0.6741  0.0170  1.0115
   60C      O2' 1524   5.304   7.131   4.577 -0.0074 -0.0559 -0.0873
   60C     HO'2 1525   5.300   7.167   4.488 -2.8266  2.0462  0.7735
   60C      O3' 1526   5.256   7.367   4.466  0.1920 -0.3548 -0.6337
   61C        P 1527   5.109   7.418   4.471 -0.0467  0.1205  0.3762
   61C      O1P 1528   5.029   7.341   4.379  0.0858  0.3711  0.2826
   61C      O2P 1529   5.124   7.559   4.451 -0.3157 -0.4438 -0.0840
   61C      O5' 1530   5.038   7.405   4.616  0.2918 -0.0690 -0.0535
   61C      C5' 1531   4.975   7.282   4.649 -0.5359 -0.1944  0.6834
   61C     H5'1 1532   5.057   7.213   4.634 -1.2744 -1.1264  0.8604
   61C     H5'2 1533   4.893   7.264   4.579 -0.5177 -1.4249  0.9630
   61C      C4' 1534   4.936   7.263   4.799  0.7483 -0.1985 -0.5784
   61C      H4' 1535   4.909   7.161   4.828 -1.6298  0.1490 -1.3838
   61C      O4' 1536   5.048   7.297   4.877  0.1516 -0.8366 -0.3586
   61C      C1' 1537   5.005   7.373   4.985  0.2318 -0.5208 -0.3850
   61C      H1' 1538   4.990   7.311   5.073  0.0449  1.2614  0.8862
   61C       N1 1539   5.116   7.471   5.000 -0.7508 -0.0560 -0.0688
   61C       C6 1540   5.165   7.549   4.898 -0.0592 -0.3312 -0.6921
   61C       H6 1541   5.135   7.533   4.795  0.4744  1.9551 -1.2522
   61C       C5 1542   5.241   7.657   4.927  0.1424  0.3203  0.2401
   61C       H5 1543   5.280   7.718   4.847 -1.3049 -2.0511 -2.4653
   61C       C4 1544   5.271   7.681   5.063 -0.3062 -0.0991  0.2318
   61C       N4 1545   5.358   7.775   5.087  0.2873  0.3777 -0.6029
   61C      H41 1546   5.402   7.825   5.011  1.9939 -0.6709 -0.3614
   61C      H42 1547   5.376   7.788   5.185  0.7795 -1.6255 -0.3685
   61C       N3 1548   5.221   7.606   5.159 -0.4622 -0.1076  0.3405
   61C       C2 1549   5.146   7.501   5.131  0.7303 -0.6790  0.1032
   61C       O2 1550   5.100   7.433   5.227  0.8249  0.0860  0.4296
   61C      C3' 1551   4.825   7.359   4.838  0.3198  0.4645  0.7011
   61C      H3' 1552   4.799   7.422   4.753 -0.9182  0.9230  1.4003
   61C      C2' 1553   4.880   7.443   4.956  1.1063  0.2416  0.5798
   61C     H2'1 1554   4.885   7.546   4.919  0.3665  0.8470  2.0588
   61C      O2' 1555   4.788   7.439   5.064 -0.1223 -0.0282  0.0101
   61C     HO'2 1556   4.716   7.379   5.044 -0.9526 -0.0526  2.6246
   61C      O3' 1557   4.719   7.281   4.882 -0.0669  0.2433 -0.5271
   62U        P 1558   4.605   7.220   4.791  0.2210  0.1437 -0.3111
   62U      O1P 1559   4.537   7.106   4.853 -0.0719  0.4013 -0.0593
   62U      O2P 1560   4.652   7.217   4.648 -0.1566 -0.8251  0.6355
   62U      O5' 1561   4.501   7.339   4.783 -0.2019  0.2880 -0.2848
   62U      C5' 1562   4.418   7.384   4.885 -0.5865 -0.3048  0.3386
   62U     H5'1 1563   4.487   7.420   4.962 -0.3571 -0.2425  0.1028
   62U     H5'2 1564   4.361   7.301   4.926  2.3351 -2.2043  0.8144
   62U      C4' 1565   4.339   7.510   4.846  0.5122 -0.1234 -0.4874
   62U      H4' 1566   4.292   7.549   4.936  0.0789 -0.2358 -0.6610
   62U      O4' 1567   4.431   7.615   4.812  0.4007  0.0838 -0.1340
   62U      C1' 1568   4.410   7.655   4.678 -1.2316 -0.2685 -0.1944
   62U      H1' 1569   4.334   7.733   4.678 -0.5474  0.4616  2.0928
   62U       N1 1570   4.535   7.694   4.621 -0.1073 -0.9115  0.4314
   62U       C6 1571   4.630   7.602   4.596  0.1828  0.2766 -0.4894
   62U       H6 1572   4.611   7.498   4.618 -1.5889  0.9632  1.4940
   62U       C5 1573   4.755   7.640   4.556  0.2269  0.6553  0.3168
   62U       H5 1574   4.828   7.563   4.536 -2.1033 -1.4254 -0.7997
   62U       C4 1575   4.794   7.777   4.539  0.4209 -0.0251  0.6445
   62U       O4 1576   4.896   7.830   4.484  0.1905  0.1720  0.5871
   62U       N3 1577   4.696   7.862   4.580  0.1068  0.0920 -0.1886
   62U       H3 1578   4.721   7.960   4.574  0.8974 -0.1490 -1.3512
   62U       C2 1579   4.566   7.826   4.620 -0.0036 -0.2410  0.1494
   62U       O2 1580   4.479   7.913   4.634 -0.4899  0.5623 -0.2466
   62U      C3' 1581   4.253   7.471   4.728  0.3499 -0.1023  0.2978
   62U      H3' 1582   4.231   7.364   4.728  0.6820 -0.1707  0.4141
   62U      C2' 1583   4.340   7.532   4.616 -0.1856 -0.0069  0.1045
   62U     H2'1 1584   4.411   7.456   4.584 -1.0249 -1.0559  0.6419
   62U      O2' 1585   4.252   7.554   4.504  0.3193 -0.8949  0.8375
   62U     HO'2 1586   4.191   7.623   4.534  2.0378  0.7838  0.6883
   62U      O3' 1587   4.136   7.549   4.749 -0.5036 -0.1449 -0.3603
   63U        P 1588   4.008   7.474   4.802  0.3281 -0.3496 -0.0377
   63U      O1P 1589   4.013   7.326   4.795 -0.2763  0.6423 -0.3504
   63U      O2P 1590   3.890   7.530   4.742 -0.4179 -0.0813 -0.1364
   63U      O5' 1591   4.006   7.515   4.960  0.8208 -0.0784 -0.0419
   63U      C5' 1592   4.038   7.418   5.063  0.0433 -0.5010 -0.7147
   63U     H5'1 1593   4.121   7.354   5.035  1.6204  1.7081 -1.3147
   63U     H5'2 1594   3.960   7.342   5.075 -0.7642  0.2347 -1.1782
   63U      C4' 1595   4.055   7.485   5.198  0.1010 -0.0082  0.2689
   63U      H4' 1596   4.067   7.402   5.266 -0.6742  2.0546  3.0930
   63U      O4' 1597   4.182   7.552   5.191  0.7192  0.1341 -0.0184
   63U      C1' 1598   4.170   7.684   5.248 -0.0812  0.3943  0.1330
   63U      H1' 1599   4.256   7.698   5.313  1.7674 -2.1457 -1.5937
   63U       N1 1600   4.171   7.788   5.142 -0.5675  0.5052 -0.5215
   63U       C6 1601   4.055   7.821   5.065 -0.0926  0.5569 -0.6072
   63U       H6 1602   3.964   7.768   5.086  0.1095  0.2744 -0.4469
   63U       C5 1603   4.055   7.915   4.968 -0.5115  0.1619  0.2673
   63U       H5 1604   3.966   7.941   4.912 -1.3187 -5.1851 -1.5179
   63U       C4 1605   4.180   7.976   4.925 -0.0841  1.0587 -0.2235
   63U       O4 1606   4.198   8.040   4.822  0.0439 -0.5722 -0.1836
   63U       N3 1607   4.283   7.943   5.011  0.0295 -0.1831 -0.5357
   63U       H3 1608   4.364   8.001   4.992 -1.6068  2.5781  0.4278
   63U       C2 1609   4.291   7.851   5.115  0.3089  0.0598  0.4814
   63U       O2 1610   4.399   7.829   5.165  0.2225  0.6666  0.4191
   63U      C3' 1611   3.945   7.580   5.263  0.3759  0.9404  0.3566
   63U      H3' 1612   3.881   7.628   5.189 -0.7148  0.5342  1.0107
   63U      C2' 1613   4.031   7.689   5.326 -0.0194  0.7918 -0.5461
   63U     H2'1 1614   3.982   7.786   5.312  0.2045  1.6271  3.3805
   63U      O2' 1615   4.050   7.669   5.464 -0.3913  0.4475 -0.0311
   63U     HO'2 1616   3.992   7.598   5.492  0.5745 -0.7014 -0.8561
   63U      O3' 1617   3.881   7.504   5.366 -0.6023  0.5357  0.2582
   64A        P 1618   3.769   7.397   5.334 -0.0129 -0.0496  0.3693
   64A      O1P 1619   3.695   7.449   5.216  0.6103  0.1217 -0.2635
   64A      O2P 1620   3.696   7.350   5.456 -0.3594 -0.9733  0.5247
   64A      O5' 1621   3.855   7.278   5.284 -0.2265 -0.0467  0.5688
   64A      C5' 1622   3.908   7.189   5.374 -0.0688 -0.2174 -0.3749
   64A     H5'1 1623   3.834   7.151   5.445 -0.8721 -0.2636 -1.2096
   64A     H5'2 1624   3.976   7.246   5.437 -0.4467 -1.8437  1.6219
   64A      C4' 1625   3.992   7.074   5.324 -0.1015 -0.3134  0.0227
   64A      H4' 1626   3.945   7.001   5.260  1.0888 -1.8708  0.8543
   64A      O4' 1627   4.104   7.132   5.266 -0.1944 -0.5976 -0.6991
   64A      C1' 1628   4.224   7.070   5.309 -0.1957  0.1934  0.2488
   64A      H1' 1629   4.247   6.974   5.264  1.8100  0.7960 -0.0925
   64A       N9 1630   4.339   7.157   5.285  0.0604 -0.2669 -0.3055
   64A       C8 1631   4.432   7.147   5.184  0.2973  0.2210 -0.0651
   64A       H8 1632   4.434   7.058   5.123 -0.4422  0.3113 -0.2256
   64A       N7 1633   4.504   7.253   5.169 -0.4027  0.7742  0.3655
   64A       C5 1634   4.459   7.336   5.273 -0.2535 -0.4990  0.7374
   64A       C6 1635   4.503   7.468   5.313  0.6505 -0.8049  0.5857
   64A       N6 1636   4.602   7.543   5.258 -0.8117  0.5797 -0.2472
   64A      H61 1637   4.660   7.510   5.182  1.3899  2.0512  0.7025
   64A      H62 1638   4.628   7.629   5.303  0.2096  0.5700 -0.7735
   64A       N1 1639   4.442   7.527   5.414  0.1942 -0.1050 -1.3032
   64A       C2 1640   4.344   7.461   5.479 -0.4891  0.2323  0.5371
   64A       H2 1641   4.291   7.501   5.564 -2.6381  1.4944 -1.2702
   64A       N3 1642   4.290   7.347   5.445 -1.4640 -0.0331 -0.1285
   64A       C4 1643   4.357   7.286   5.342  0.1475 -0.0668  0.2700
   64A      C3' 1644   4.050   6.987   5.438  0.5685  0.3179 -0.4040
   64A      H3' 1645   3.999   6.997   5.533 -1.5632  0.5061 -1.5221
   64A      C2' 1646   4.195   7.038   5.453 -0.4970  0.0136 -0.1215
   64A     H2'1 1647   4.176   7.132   5.504 -0.5662  0.3182 -0.6998
   64A      O2' 1648   4.289   6.951   5.514 -0.1848  0.4753  0.6633
   64A     HO'2 1649   4.260   6.861   5.497  1.5290  0.3777 -2.3347
   64A      O3' 1650   4.050   6.848   5.389 -0.0925  0.4189  0.7037
   65A        P 1651   4.069   6.729   5.482 -0.4648  0.3640  0.2190
   65A      O1P 1652   4.003   6.605   5.430  0.6887  0.5352  0.2204
   65A      O2P 1653   4.043   6.774   5.622  0.3524  0.6464 -0.0797
   65A      O5' 1654   4.227   6.711   5.463  0.3551  0.3081 -0.6674
   65A      C5' 1655   4.274   6.636   5.350 -0.0602  0.1749 -0.2918
   65A     H5'1 1656   4.247   6.694   5.262 -2.5920  0.2610  0.4646
   65A     H5'2 1657   4.237   6.535   5.336 -0.1644 -0.0836  1.5570
   65A      C4' 1658   4.421   6.627   5.327 -0.0210  0.0466  0.4798
   65A      H4' 1659   4.438   6.556   5.246 -0.1231 -1.1878  1.5181
   65A      O4' 1660   4.460   6.756   5.297  0.6448 -0.2489  0.6477
   65A      C1' 1661   4.559   6.775   5.382 -0.4639  1.1484 -0.0464
   65A      H1' 1662   4.651   6.736   5.339 -1.0318 -2.5312  1.6804
   65A       N9 1663   4.587   6.917   5.391 -0.6769  0.0490 -0.1205
   65A       C8 1664   4.572   7.004   5.497 -0.9328  0.2990  0.5132
   65A       H8 1665   4.513   6.975   5.582 -0.0842 -3.5370  0.0099
   65A       N7 1666   4.652   7.109   5.489  0.5563 -0.2631 -0.1271
   65A       C5 1667   4.707   7.101   5.362 -0.4975 -0.2198 -0.0619
   65A       C6 1668   4.793   7.181   5.285  0.1520 -0.3410  0.5077
   65A       N6 1669   4.856   7.290   5.324 -0.3420  0.7568 -0.5729
   65A      H61 1670   4.805   7.339   5.396 -2.4162 -1.0036 -0.7295
   65A      H62 1671   4.921   7.336   5.261  1.7224  0.5702  1.3188
   65A       N1 1672   4.826   7.151   5.158  0.2359 -0.4872 -0.2987
   65A       C2 1673   4.779   7.040   5.111  0.1542  0.8588 -0.4538
   65A       H2 1674   4.798   7.007   5.010 -3.6715 -1.7333 -0.5462
   65A       N3 1675   4.703   6.949   5.176  0.3759  0.4201  0.0370
   65A       C4 1676   4.662   6.987   5.298 -0.0596 -0.3947 -0.0514
   65A      C3' 1677   4.493   6.578   5.452  0.9465 -0.1007 -0.6118
   65A      H3' 1678   4.419   6.521   5.508  0.3794 -2.3179 -3.3763
   65A      C2' 1679   4.535   6.705   5.514 -0.3121  0.1832 -0.6803
   65A     H2'1 1680   4.449   6.748   5.564  0.7066  0.3971  0.9945
   65A      O2' 1681   4.651   6.696   5.598 -0.3549  0.1462 -0.1805
   65A     HO'2 1682   4.697   6.619   5.564 -2.8939 -0.4484 -2.6776
   65A      O3' 1683   4.592   6.484   5.397  0.3255 -0.2367  0.2358
   66A        P 1684   4.662   6.376   5.487  0.1381  0.4246 -0.4059
   66A      O1P 1685   4.752   6.290   5.403  0.4033  0.0287 -0.9916
   66A      O2P 1686   4.553   6.305   5.565 -1.0109 -0.3481  0.2649
   66A      O5' 1687   4.756   6.460   5.585  0.3815  1.0750 -0.0941
   66A      C5' 1688   4.895   6.477   5.558 -0.5230  0.3682  0.2331
   66A     H5'1 1689   4.944   6.380   5.562  2.2851  1.6495  0.0119
   66A     H5'2 1690   4.924   6.535   5.646 -0.4657  0.6692  0.0199
   66A      C4' 1691   4.932   6.556   5.430  0.1511  0.4778 -0.1549
   66A      H4' 1692   4.908   6.489   5.348 -0.8684 -2.1281  2.1174
   66A      O4' 1693   4.859   6.681   5.418  0.1622  0.3991 -0.1774
   66A      C1' 1694   4.946   6.785   5.391 -0.4053  0.4760  0.4670
   66A      H1' 1695   4.915   6.851   5.310 -0.1232 -0.8369 -0.7492
   66A       N9 1696   4.984   6.871   5.509  0.3933 -0.1854 -0.4086
   66A       C8 1697   4.923   6.883   5.631  0.5559 -0.3852  0.5828
   66A       H8 1698   4.845   6.812   5.657 -0.4288  1.0427  1.6805
   66A       N7 1699   4.949   6.992   5.703 -0.7973 -0.2030 -0.0907
   66A       C5 1700   5.041   7.058   5.614 -0.1625  0.4745 -0.1088
   66A       C6 1701   5.120   7.176   5.626  0.8760 -0.2870  0.2604
   66A       N6 1702   5.130   7.262   5.726 -0.4302 -0.1215  0.2141
   66A      H61 1703   5.068   7.241   5.803  0.3367 -2.4122  0.2857
   66A      H62 1704   5.173   7.351   5.710 -0.0277 -0.3212  0.1675
   66A       N1 1705   5.202   7.215   5.528  0.6684  0.0197  0.5426
   66A       C2 1706   5.201   7.147   5.415 -1.0460  0.6871  0.0618
   66A       H2 1707   5.260   7.183   5.332 -2.2858  0.9128 -0.7314
   66A       N3 1708   5.140   7.030   5.390  0.0321 -0.7255  0.9379
   66A       C4 1709   5.057   6.992   5.497  0.1964 -0.0226  0.3001
   66A      C3' 1710   5.081   6.591   5.426  0.2943  0.0495  0.1639
   66A      H3' 1711   5.121   6.628   5.520 -0.8973  0.0992  0.6798
   66A      C2' 1712   5.072   6.710   5.336 -0.5052 -0.2693  0.4661
   66A     H2'1 1713   5.164   6.768   5.339  1.0053 -2.5004  0.4147
   66A      O2' 1714   5.045   6.684   5.196  0.1402 -0.7591 -0.0839
   66A     HO'2 1715   5.118   6.651   5.144 -0.9230 -2.9677 -0.2933
   66A      O3' 1716   5.155   6.482   5.375 -0.2533 -0.2094 -0.2359
   67C        P 1717   5.308   6.460   5.419 -0.4116 -0.3458 -0.4482
   67C      O1P 1718   5.349   6.331   5.367  0.3037  0.5273 -0.3080
   67C      O2P 1719   5.323   6.500   5.562  0.4461  0.7202 -0.0992
   67C      O5' 1720   5.388   6.565   5.324 -0.3686 -0.3863  0.8802
   67C      C5' 1721   5.419   6.543   5.184  0.7353 -0.2603 -0.9890
   67C     H5'1 1722   5.323   6.537   5.133 -0.4509  0.0461  1.0852
   67C     H5'2 1723   5.468   6.446   5.174 -0.8935 -1.2631  0.1752
   67C      C4' 1724   5.503   6.670   5.157  0.3331 -0.4200 -1.0520
   67C      H4' 1725   5.536   6.676   5.053  2.8588  2.1162 -0.2254
   67C      O4' 1726   5.438   6.795   5.188  0.1078 -0.4107  0.1001
   67C      C1' 1727   5.543   6.891   5.230 -0.2359  0.4231  0.4496
   67C      H1' 1728   5.543   6.976   5.161 -0.1461  0.3226  0.3253
   67C       N1 1729   5.507   6.945   5.365 -0.6442  0.0905 -0.0119
   67C       C6 1730   5.416   6.880   5.450 -0.5505  0.6813  0.4927
   67C       H6 1731   5.373   6.786   5.420 -0.2206  0.4411  0.7587
   67C       C5 1732   5.388   6.932   5.574 -0.5154 -0.4115 -0.1393
   67C       H5 1733   5.324   6.879   5.644  0.0072 -0.9050 -0.0332
   67C       C4 1734   5.457   7.047   5.617 -0.4107 -0.6291 -0.6578
   67C       N4 1735   5.448   7.103   5.739 -0.1250  0.7547 -0.0111
   67C      H41 1736   5.389   7.058   5.808  1.1668  1.3323  1.5216
   67C      H42 1737   5.501   7.180   5.776 -1.0890  0.7936  1.4004
   67C       N3 1738   5.532   7.110   5.533 -0.4185 -0.4384  0.0040
   67C       C2 1739   5.555   7.075   5.407 -0.4486 -0.4090  0.8842
   67C       O2 1740   5.640   7.135   5.338  0.2455  0.7010  0.0072
   67C      C3' 1741   5.623   6.674   5.252  0.8644 -0.4458 -0.0958
   67C      H3' 1742   5.582   6.663   5.352  0.9485 -1.0630 -0.1203
   67C      C2' 1743   5.670   6.819   5.226 -0.3921 -0.2283  0.0053
   67C     H2'1 1744   5.739   6.860   5.300 -0.2139  1.7544 -1.1855
   67C      O2' 1745   5.731   6.836   5.093  0.3641  0.7458 -0.4162
   67C     HO'2 1746   5.776   6.755   5.068 -1.3559 -0.1787 -0.7011
   67C      O3' 1747   5.714   6.570   5.216 -0.0193 -0.4575  0.1436
   68U        P 1748   5.829   6.520   5.303  0.1743 -0.5733  0.4699
   68U      O1P 1749   5.892   6.420   5.213 -0.6984 -0.1248  0.5324
   68U      O2P 1750   5.791   6.484   5.443  0.1084 -0.2451  0.2555
   68U      O5' 1751   5.914   6.652   5.302  0.2068  0.0939 -0.5891
   68U      C5' 1752   6.010   6.685   5.197 -0.4316 -0.9821 -0.3081
   68U     H5'1 1753   5.949   6.685   5.106 -0.6363  3.4860 -0.3779
   68U     H5'2 1754   6.090   6.612   5.186  1.8075  1.4676 -1.5198
   68U      C4' 1755   6.083   6.814   5.197  0.0877 -0.8785  0.0117
   68U      H4' 1756   6.135   6.814   5.101 -1.8691  1.0827 -1.1531
   68U      O4' 1757   6.003   6.932   5.198 -0.3102  0.2377  0.2749
   68U      C1' 1758   6.076   7.044   5.256 -0.1543  0.0667  0.3299
   68U      H1' 1759   6.097   7.119   5.179  0.2883 -0.4418 -0.0519
   68U       N1 1760   6.012   7.116   5.368  0.0655  0.2408 -0.1052
   68U       C6 1761   5.931   7.055   5.460 -0.3069  0.2033  0.1992
   68U       H6 1762   5.916   6.949   5.454  0.8754  0.0300  0.0883
   68U       C5 1763   5.873   7.125   5.560 -0.4134 -0.1272 -0.3042
   68U       H5 1764   5.817   7.072   5.636 -1.5463  0.7343 -0.5132
   68U       C4 1765   5.891   7.273   5.566 -0.1855 -0.1052 -0.4320
   68U       O4 1766   5.839   7.349   5.647  0.3514  0.4433 -0.6332
   68U       N3 1767   5.978   7.326   5.471  0.1122 -0.0521  0.3424
   68U       H3 1768   5.985   7.427   5.472  0.5895  0.0209 -2.1730
   68U       C2 1769   6.040   7.255   5.372 -0.0441 -0.9509  0.9533
   68U       O2 1770   6.111   7.311   5.288  0.4301  0.3753  0.0896
   68U      C3' 1771   6.177   6.830   5.308  0.2650  0.2923  0.4680
   68U      H3' 1772   6.123   6.808   5.400 -0.3386  2.3929  0.6691
   68U      C2' 1773   6.206   6.981   5.301 -0.1086  0.3099  0.8569
   68U     H2'1 1774   6.234   7.021   5.398 -0.2144  2.8738 -0.1092
   68U      O2' 1775   6.303   7.013   5.192 -0.1886  0.2521  0.4171
   68U     HO'2 1776   6.363   6.938   5.191  0.1436  0.4740  1.5895
   68U      O3' 1777   6.293   6.740   5.293 -0.0459 -1.1223  0.1696
   69C        P 1778   6.398   6.712   5.406 -0.3289 -0.3347  0.7134
   69C      O1P 1779   6.500   6.617   5.351  0.1908  0.7152  0.7616
   69C      O2P 1780   6.315   6.672   5.523 -0.0496 -0.6268 -0.5807
   69C      O5' 1781   6.477   6.850   5.446  0.5698  0.3337 -0.0579
   69C      C5' 1782   6.573   6.904   5.357 -0.7227  0.3213 -0.6865
   69C     H5'1 1783   6.546   6.903   5.252 -1.7097  2.2152 -0.4946
   69C     H5'2 1784   6.672   6.858   5.350 -0.5341  0.6687 -0.3635
   69C      C4' 1785   6.620   7.047   5.392  0.4889 -0.1043 -0.0483
   69C      H4' 1786   6.696   7.071   5.318  0.3397 -0.7583 -0.4175
   69C      O4' 1787   6.510   7.140   5.381 -0.3133  0.2258 -0.0954
   69C      C1' 1788   6.546   7.250   5.460 -0.1026  0.5577 -0.1245
   69C      H1' 1789   6.578   7.327   5.389 -0.9996 -0.5033 -1.7556
   69C       N1 1790   6.424   7.286   5.540  0.1397 -0.3937 -0.0972
   69C       C6 1791   6.357   7.194   5.616  0.0968  0.4912  0.0867
   69C       H6 1792   6.383   7.089   5.607  0.0783  0.4772  0.2028
   69C       C5 1793   6.262   7.237   5.700 -0.5340 -0.1136  0.0167
   69C       H5 1794   6.213   7.168   5.766  3.9517 -1.7007  2.0740
   69C       C4 1795   6.229   7.379   5.707  0.1659  0.6167 -0.7321
   69C       N4 1796   6.138   7.428   5.791 -0.3449 -0.3153 -0.0822
   69C      H41 1797   6.090   7.379   5.865  1.0894 -0.3236  0.8894
   69C      H42 1798   6.141   7.528   5.779  1.6569 -0.6280 -3.1651
   69C       N3 1799   6.284   7.467   5.625 -0.6159  0.1100 -0.1516
   69C       C2 1800   6.386   7.423   5.540  0.5112 -0.4684  0.0630
   69C       O2 1801   6.438   7.506   5.458  0.3125  0.4985 -0.1162
   69C      C3' 1802   6.681   7.070   5.531 -0.2394 -0.5233 -1.2176
   69C      H3' 1803   6.623   7.008   5.600 -0.9194 -0.4970 -1.7480
   69C      C2' 1804   6.655   7.222   5.558 -0.1209  1.0113 -0.0506
   69C     H2'1 1805   6.631   7.236   5.663 -1.6602  1.4869 -0.4409
   69C      O2' 1806   6.766   7.297   5.512 -0.0140  0.1102  0.2350
   69C     HO'2 1807   6.807   7.327   5.593  0.6213  0.9499 -0.3779
   69C      O3' 1808   6.816   7.035   5.543  0.0050  0.1894  0.2084
   70U        P 1809   6.894   7.020   5.686 -0.3249  0.0326 -0.5585
   70U      O1P 1810   7.015   6.943   5.668  0.7205  0.0806  0.1179
   70U      O2P 1811   6.794   6.979   5.790 -0.0443 -0.1721  0.3912
   70U      O5' 1812   6.937   7.174   5.724  0.1701 -0.1541  0.0947
   70U      C5' 1813   7.047   7.229   5.663 -0.5396  0.6083 -0.3248
   70U     H5'1 1814   7.027   7.232   5.555  0.2039  0.5622 -0.4676
   70U     H5'2 1815   7.140   7.178   5.683 -1.0932  0.0772  0.9641
   70U      C4' 1816   7.048   7.376   5.711 -0.2204 -0.0823  0.0618
   70U      H4' 1817   7.122   7.437   5.659 -1.7461 -0.2746 -2.5263
   70U      O4' 1818   6.918   7.435   5.686  0.0147 -0.2258  0.5996
   70U      C1' 1819   6.898   7.546   5.770  0.0957  0.5674  0.1392
   70U      H1' 1820   6.917   7.639   5.715  1.0179  0.4111  0.1802
   70U       N1 1821   6.754   7.533   5.822  0.1883  0.0557  0.5534
   70U       C6 1822   6.700   7.415   5.874 -0.4913  0.3684  0.0717
   70U       H6 1823   6.752   7.322   5.889 -0.3312  0.5493  0.6706
   70U       C5 1824   6.576   7.416   5.919 -0.4247  0.3731  0.4259
   70U       H5 1825   6.530   7.329   5.964 -1.6326  1.1806  0.7890
   70U       C4 1826   6.484   7.526   5.902 -1.1040  0.2913 -0.1443
   70U       O4 1827   6.373   7.532   5.951 -0.1037 -0.4323 -0.3191
   70U       N3 1828   6.539   7.634   5.836  0.4613 -0.9916 -0.4104
   70U       H3 1829   6.486   7.718   5.849  2.4821  0.4188 -0.8718
   70U       C2 1830   6.674   7.650   5.806 -0.1347 -0.1255 -0.1298
   70U       O2 1831   6.717   7.760   5.770 -0.0709  0.8479 -0.3951
   70U      C3' 1832   7.078   7.398   5.857  0.0511 -0.5431  0.5076
   70U      H3' 1833   7.018   7.323   5.910 -1.5370  0.6859  0.5359
   70U      C2' 1834   7.006   7.526   5.874  0.0829 -0.1338  0.2426
   70U     H2'1 1835   6.965   7.523   5.975  1.4151 -0.0093  0.7975
   70U      O2' 1836   7.100   7.627   5.850  0.5780  0.1002  0.6266
   70U     HO'2 1837   7.182   7.581   5.871  0.1473 -1.6862 -1.3685
   70U      O3' 1838   7.216   7.396   5.889  0.1081 -0.3218 -0.3205
   71U        P 1839   7.274   7.384   6.043 -0.6603  0.4149  0.1957
   71U      O1P 1840   7.418   7.353   6.030 -0.1832  0.4174 -0.2122
   71U      O2P 1841   7.184   7.295   6.117 -0.1419  0.2411 -0.7338
   71U      O5' 1842   7.252   7.534   6.099  0.0966 -0.1653  0.7040
   71U      C5' 1843   7.326   7.649   6.061  0.0130  0.4912  0.5469
   71U     H5'1 1844   7.335   7.674   5.956  0.6426 -1.2604  0.1385
   71U     H5'2 1845   7.432   7.631   6.080  0.2638  1.5753  0.2394
   71U      C4' 1846   7.289   7.772   6.145  0.0267  0.4623 -0.1509
   71U      H4' 1847   7.373   7.840   6.130  1.9683 -1.1412  2.5581
   71U      O4' 1848   7.176   7.842   6.101  0.6910  0.5874  0.1591
   71U      C1' 1849   7.100   7.886   6.218 -0.0136  0.4448 -0.9182
   71U      H1' 1850   7.074   7.992   6.214 -4.5236 -0.2894  2.1163
   71U       N1 1851   6.964   7.818   6.219  0.4359 -0.0952 -0.7143
   71U       C6 1852   6.956   7.682   6.194 -0.0633 -0.9852  0.6136
   71U       H6 1853   7.048   7.628   6.174  0.3796 -0.6763  1.7444
   71U       C5 1854   6.836   7.623   6.171  0.1261  0.2770 -0.0992
   71U       H5 1855   6.834   7.516   6.155  2.3877  0.3212 -1.0775
   71U       C4 1856   6.715   7.702   6.199  0.0878  0.0134 -0.8461
   71U       O4 1857   6.601   7.660   6.205 -0.3251  0.3137  0.3962
   71U       N3 1858   6.736   7.827   6.253  0.1454  0.0101  0.5780
   71U       H3 1859   6.670   7.871   6.315  1.7681  2.2073  0.8989
   71U       C2 1860   6.854   7.887   6.269  0.1246 -0.4209  0.3443
   71U       O2 1861   6.869   7.996   6.328 -0.2018  0.0894 -0.0319
   71U      C3' 1862   7.281   7.754   6.299 -0.8582  0.0765  0.4667
   71U      H3' 1863   7.240   7.657   6.328  2.2708 -1.3877  0.3283
   71U      C2' 1864   7.181   7.853   6.340  0.5285 -0.1955 -0.3518
   71U     H2'1 1865   7.125   7.814   6.425  0.8438 -1.2077 -0.5926
   71U      O2' 1866   7.231   7.972   6.390 -0.7863  0.0175  0.8890
   71U     HO'2 1867   7.318   7.977   6.351 -1.1811  0.5153  0.0506
   71U      O3' 1868   7.420   7.778   6.352  0.1039  0.1963  0.0921
   72G        P 1869   7.474   7.682   6.461 -0.1455 -0.0215  0.7271
   72G      O1P 1870   7.616   7.722   6.482  0.0744  0.0554  0.1609
   72G      O2P 1871   7.441   7.537   6.432  0.3554 -0.3282 -0.2048
   72G      O5' 1872   7.392   7.721   6.592  0.4109 -0.0330  0.2398
   72G      C5' 1873   7.437   7.822   6.672  0.3247 -0.4141 -0.2213
   72G     H5'1 1874   7.456   7.910   6.612  3.1474 -1.1419 -0.4968
   72G     H5'2 1875   7.530   7.792   6.721 -1.5508 -5.0163  1.1325
   72G      C4' 1876   7.331   7.860   6.778  0.3482 -0.2646 -0.3479
   72G      H4' 1877   7.365   7.940   6.844  2.6069 -2.1191  0.8555
   72G      O4' 1878   7.206   7.913   6.728  0.1994 -0.2287 -0.1044
   72G      C1' 1879   7.099   7.877   6.809  0.1725  0.5844 -0.3496
   72G      H1' 1880   7.058   7.964   6.861  0.7766  0.7296 -0.1059
   72G       N9 1881   6.998   7.788   6.732  0.2704 -0.5480 -0.1026
   72G       C8 1882   7.020   7.681   6.658 -0.0021  0.1914 -0.0131
   72G       H8 1883   7.121   7.646   6.641 -0.8691 -1.8540 -1.4640
   72G       N7 1884   6.917   7.631   6.595  0.0084 -0.9989  0.7831
   72G       C5 1885   6.808   7.714   6.642  0.2446 -0.0732 -0.0447
   72G       C6 1886   6.663   7.702   6.636 -0.4327 -0.6148 -1.0443
   72G       O6 1887   6.600   7.609   6.587  0.1556  0.0843 -0.4120
   72G       N1 1888   6.606   7.802   6.702 -0.2937  0.3806 -0.1384
   72G       H1 1889   6.506   7.802   6.709 -0.2501 -0.6257  0.6993
   72G       C2 1890   6.667   7.890   6.779  0.0420  0.5544  0.3547
   72G       N2 1891   6.584   7.947   6.862 -0.3002 -1.1010  0.1808
   72G      H21 1892   6.485   7.926   6.864 -0.5605  0.0801  0.7215
   72G      H22 1893   6.627   8.009   6.930 -1.6080 -0.8967  0.8463
   72G       N3 1894   6.794   7.903   6.797 -0.2915 -0.1845 -0.7634
   72G       C4 1895   6.864   7.810   6.729 -0.3292  0.0840 -0.5664
   72G      C3' 1896   7.296   7.741   6.868 -0.0567 -0.3885  0.0747
   72G      H3' 1897   7.285   7.654   6.803 -0.9102 -1.8490  2.0674
   72G      C2' 1898   7.152   7.784   6.926 -0.2963  0.0200  0.5975
   72G     H2'1 1899   7.091   7.694   6.926 -0.3891 -0.0234 -2.1412
   72G      O2' 1900   7.151   7.855   7.039  0.3722  0.1436  0.0921
   72G     HO'2 1901   7.205   7.802   7.098 -0.8598  1.3216  2.3855
   72G      O3' 1902   7.401   7.718   6.954 -0.0253  0.1778 -0.4077
   73A        P 1903   7.416   7.583   7.035 -0.0371  0.1059 -0.0822
   73A      O1P 1904   7.554   7.574   7.071 -0.6819 -0.3328  0.0634
   73A      O2P 1905   7.352   7.471   6.970 -0.0355 -0.2320 -0.1698
   73A      O5' 1906   7.329   7.602   7.167  0.3544  0.6009  0.5788
   73A      C5' 1907   7.360   7.703   7.259 -0.7385  0.0089  0.1071
   73A     H5'1 1908   7.372   7.798   7.208 -0.1822 -0.0047  0.2084
   73A     H5'2 1909   7.456   7.690   7.308 -1.4971 -3.1327  1.0306
   73A      C4' 1910   7.249   7.710   7.359 -0.4134 -1.1828 -0.7866
   73A      H4' 1911   7.267   7.797   7.422 -0.7455  1.8303 -4.4835
   73A      O4' 1912   7.121   7.732   7.297  0.3350  0.4812  0.1469
   73A      C1' 1913   7.020   7.656   7.370 -0.2322 -0.0088 -0.3065
   73A      H1' 1914   6.936   7.715   7.406 -0.5162 -0.6427  0.0915
   73A       N9 1915   6.975   7.538   7.287 -0.2676  0.3555 -0.2233
   73A       C8 1916   7.038   7.479   7.181  0.7466 -0.0871  0.6544
   73A       H8 1917   7.131   7.516   7.140 -0.3983 -0.0165 -2.0983
   73A       N7 1918   6.974   7.379   7.126 -0.1349  0.3297  0.4480
   73A       C5 1919   6.859   7.371   7.202 -0.1501  0.1214 -0.2191
   73A       C6 1920   6.734   7.300   7.200  0.3034  0.0084  0.8366
   73A       N6 1921   6.704   7.204   7.114  0.4275  0.5416 -0.0736
   73A      H61 1922   6.769   7.171   7.044 -0.0014  0.1538 -0.2932
   73A      H62 1923   6.607   7.188   7.092 -0.0348  0.2051  2.0336
   73A       N1 1924   6.641   7.309   7.291  0.5343 -0.0911 -0.6793
   73A       C2 1925   6.659   7.398   7.388 -0.3595 -0.4093  0.2905
   73A       H2 1926   6.586   7.401   7.468 -0.1979  0.6753  0.4115
   73A       N3 1927   6.760   7.489   7.394 -0.0044 -0.1746  0.1691
   73A       C4 1928   6.852   7.474   7.290  0.4163  0.3646 -0.1934
   73A      C3' 1929   7.234   7.589   7.450  0.2299 -0.3044  0.0936
   73A      H3' 1930   7.235   7.511   7.374 -2.5943  1.0154 -1.4601
   73A      C2' 1931   7.098   7.609   7.492  0.0708 -0.5192 -0.9882
   73A     H2'1 1932   7.049   7.523   7.539 -1.2458  0.5912 -0.2540
   73A      O2' 1933   7.093   7.716   7.590  0.0237 -0.2085  0.3047
   73A     HO'2 1934   7.086   7.677   7.678  2.7092  0.8995  1.1092
   73A      O3' 1935   7.327   7.577   7.562 -0.1868  0.4611  0.1342
   74U        P 1936   7.313   7.461   7.667  0.1273 -0.4485 -0.2239
   74U      O1P 1937   7.453   7.439   7.715  0.1700 -0.1888 -0.8309
   74U      O2P 1938   7.254   7.346   7.604 -0.0659  0.8014 -0.0558
   74U      O5' 1939   7.216   7.497   7.786 -0.2393 -0.5394  0.8245
   74U      C5' 1940   7.258   7.598   7.878 -0.8084  0.3788  0.5754
   74U     H5'1 1941   7.294   7.683   7.821  0.6195  0.9372  2.1920
   74U     H5'2 1942   7.339   7.562   7.942  0.6004  0.6683 -0.9849
   74U      C4' 1943   7.139   7.649   7.954 -0.0480 -0.3446  0.9422
   74U      H4' 1944   7.176   7.729   8.019  4.7486 -0.9083 -0.7160
   74U      O4' 1945   7.043   7.702   7.859  0.7126 -0.0887 -0.6115
   74U      C1' 1946   6.918   7.683   7.921  0.6697 -0.5942 -0.3411
   74U      H1' 1947   6.899   7.754   8.002  1.2242  1.4332 -1.9037
   74U       N1 1948   6.811   7.721   7.825 -0.8318 -0.8145  0.1537
   74U       C6 1949   6.772   7.853   7.823  0.0339 -0.2202 -0.5248
   74U       H6 1950   6.789   7.910   7.913 -4.5317 -1.6658  1.5092
   74U       C5 1951   6.693   7.904   7.734 -0.1242  0.6472  0.8010
   74U       H5 1952   6.664   8.008   7.734 -0.9381  0.4591 -0.8679
   74U       C4 1953   6.660   7.823   7.614  0.2457 -0.2004  0.1576
   74U       O4 1954   6.625   7.868   7.505  0.4516 -0.0587  0.1818
   74U       N3 1955   6.687   7.690   7.621 -0.6193  0.2826 -0.2518
   74U       H3 1956   6.655   7.629   7.548  0.5283 -3.3042  1.9630
   74U       C2 1957   6.763   7.636   7.725 -0.0514  0.4131  0.4022
   74U       O2 1958   6.793   7.517   7.712 -0.1151  0.2111  0.1463
   74U      C3' 1959   7.065   7.545   8.048 -0.1961  0.0647  0.4016
   74U      H3' 1960   7.117   7.449   8.045  0.4896  0.4458 -1.8706
   74U      C2' 1961   6.932   7.544   7.977  0.1538  0.6204  0.0645
   74U     H2'1 1962   6.945   7.480   7.890 -1.4641  0.4365 -0.0781
   74U      O2' 1963   6.816   7.512   8.052  0.1887  0.5303  0.1459
   74U     HO'2 1964   6.843   7.505   8.144 -0.0039 -2.6892  0.0823
   74U      O3' 1965   7.054   7.606   8.166 -0.0568  0.3560 -0.2306
   75U        P 1966   7.154   7.563   8.278  0.0464 -0.4522 -0.0872
   75U      O1P 1967   7.121   7.669   8.377 -0.3922 -0.0941 -0.9303
   75U      O2P 1968   7.290   7.547   8.229 -0.4624  0.2754  0.4310
   75U      O5' 1969   7.097   7.424   8.337  0.3148 -0.2016  0.1626
   75U      C5' 1970   6.970   7.406   8.391 -0.4343  0.4288 -0.4916
   75U     H5'1 1971   6.904   7.483   8.351  0.2517  0.8479 -0.8145
   75U     H5'2 1972   6.982   7.434   8.496  0.9953  0.3808 -0.6332
   75U      C4' 1973   6.925   7.272   8.359  0.2554  0.1975  0.5172
   75U      H4' 1974   6.823   7.281   8.397 -0.0608  2.9029 -0.7670
   75U      O4' 1975   6.918   7.246   8.216 -0.1181 -0.4110 -0.2188
   75U      C1' 1976   6.984   7.118   8.196  0.4206 -0.1153  0.9640
   75U      H1' 1977   6.923   7.055   8.131 -0.1202  2.5663 -1.3562
   75U       N1 1978   7.113   7.139   8.123 -0.0388  0.1016 -0.1232
   75U       C6 1979   7.234   7.152   8.188 -0.0792  0.1449  0.2939
   75U       H6 1980   7.245   7.156   8.295  0.2347  1.7148  0.2163
   75U       C5 1981   7.351   7.172   8.121 -0.0185  0.1261 -1.0595
   75U       H5 1982   7.446   7.189   8.170  0.7992 -2.3485 -1.6192
   75U       C4 1983   7.354   7.181   7.979 -0.4689 -0.2985 -0.1214
   75U       O4 1984   7.452   7.212   7.907 -0.8518 -0.9288 -0.2780
   75U       N3 1985   7.234   7.168   7.918  0.5176  0.2441 -0.4094
   75U       H3 1986   7.237   7.154   7.818  2.6626  3.2380 -0.9083
   75U       C2 1987   7.120   7.141   7.980 -0.1014  0.3869 -0.8273
   75U       O2 1988   7.026   7.109   7.907  0.2043  0.1015 -0.0846
   75U      C3' 1989   7.009   7.166   8.437 -0.4344 -0.6105  0.2483
   75U      H3' 1990   7.112   7.201   8.446 -0.5220  0.2253 -1.5477
   75U      C2' 1991   6.999   7.057   8.335  0.3446  0.1422 -0.0925
   75U     H2'1 1992   7.086   6.991   8.334  0.5206  0.0336 -5.2252
   75U      O2' 1993   6.885   6.974   8.349 -0.8739  0.3126 -0.4931
   75U     HO'2 1994   6.887   6.939   8.438 -2.0944  2.1223  0.2976
   75U      O3' 1995   6.941   7.138   8.561 -0.6723 -0.1066 -0.7790
   76A        P 1996   7.002   7.029   8.662 -0.3479 -0.1109  0.0494
   76A      O1P 1997   6.982   7.071   8.805 -0.1872 -0.2318 -0.3297
   76A      O2P 1998   7.141   6.998   8.606  0.2264 -0.2753 -0.7616
   76A      O5' 1999   6.924   6.895   8.632  0.2384  0.0635 -0.4680
   76A      C5' 2000   6.786   6.869   8.659 -0.8716 -0.0891 -0.8416
   76A     H5'1 2001   6.720   6.946   8.619  0.1779  2.2493  1.5537
   76A     H5'2 2002   6.776   6.874   8.768  0.4753 -0.6666 -0.6723
   76A      C4' 2003   6.744   6.728   8.607  0.1866  0.2162 -0.2525
   76A      H4' 2004   6.639   6.700   8.614  1.0200 -2.9954  4.6503
   76A      O4' 2005   6.772   6.698   8.467  0.2205 -0.0360  0.5594
   76A      C1' 2006   6.829   6.560   8.464 -0.2000 -0.1700  0.1153
   76A      H1' 2007   6.782   6.511   8.380 -0.5889  0.8372 -0.2665
   76A       N9 2008   6.975   6.563   8.440 -0.6680 -1.3058 -0.6300
   76A       C8 2009   7.068   6.666   8.432  0.8510 -0.5465  0.6298
   76A       H8 2010   7.029   6.765   8.447 -0.0818 -0.9095  0.7372
   76A       N7 2011   7.190   6.630   8.421 -0.4465  0.5227  0.0963
   76A       C5 2012   7.181   6.488   8.396 -0.1639 -1.8965  0.5224
   76A       C6 2013   7.262   6.379   8.361 -0.1670 -0.1104 -0.0569
   76A       N6 2014   7.391   6.377   8.333  0.7540 -0.3331 -0.1218
   76A      H61 2015   7.425   6.471   8.349 -1.7916  0.6636 -0.1527
   76A      H62 2016   7.443   6.296   8.303  0.5827 -0.6245  0.3537
   76A       N1 2017   7.207   6.263   8.325  0.6273 -0.0593 -0.2239
   76A       C2 2018   7.074   6.246   8.347 -0.0725  0.1091 -0.3439
   76A       H2 2019   7.032   6.151   8.317  0.2629  0.2133 -1.1769
   76A       N3 2020   7.000   6.334   8.398 -0.1481  0.1487  0.2479
   76A       C4 2021   7.054   6.454   8.417 -0.1132  0.4751 -0.4719
   76A      C3' 2022   6.810   6.618   8.686  0.3199 -0.6150  0.0306
   76A      H3' 2023   6.917   6.640   8.688  0.3124 -0.6157  0.7103
   76A      C2' 2024   6.786   6.495   8.600  0.6657  0.1178 -0.1971
   76A     H2'1 2025   6.860   6.419   8.624  0.7820 -0.0860 -1.1567
   76A      O2' 2026   6.654   6.453   8.590 -0.0604 -0.3603 -0.0438
   76A     HO'2 2027   6.627   6.450   8.682  2.3539 -3.0974  0.7372
   76A      O3' 2028   6.745   6.615   8.813  0.3628 -0.1657  0.5430
   77U        P 2029   6.749   6.481   8.904 -0.0666 -0.0294 -0.0221
   77U      O1P 2030   6.644   6.386   8.860 -0.6637 -0.2513  0.6243
   77U      O2P 2031   6.756   6.524   9.044  0.8198  0.0764 -0.2976
   77U      O5' 2032   6.900   6.416   8.885 -0.0934  0.2709 -0.0776
   77U      C5' 2033   6.917   6.281   8.847 -0.6687 -1.2541  0.1478
   77U     H5'1 2034   6.850   6.256   8.764  0.2613 -1.3580 -0.5856
   77U     H5'2 2035   6.889   6.209   8.924 -2.1798 -2.1855 -1.2013
   77U      C4' 2036   7.061   6.264   8.803  0.0803  0.0057 -0.6481
   77U      H4' 2037   7.077   6.157   8.788 -0.7593 -0.8203  3.1264
   77U      O4' 2038   7.119   6.338   8.697 -0.0490  0.3303 -0.3090
   77U      C1' 2039   7.259   6.353   8.719 -0.7017  0.3964  0.7422
   77U      H1' 2040   7.309   6.294   8.642  2.0816  0.6548  2.2165
   77U       N1 2041   7.297   6.496   8.722  0.3226  0.3148  0.0829
   77U       C6 2042   7.208   6.593   8.771 -1.1179 -0.4910 -0.7067
   77U       H6 2043   7.114   6.568   8.819  0.1846  0.8891  2.8561
   77U       C5 2044   7.254   6.724   8.777  0.7475 -0.2779  0.2165
   77U       H5 2045   7.193   6.800   8.825  0.3539  0.3952 -1.2988
   77U       C4 2046   7.384   6.771   8.733 -0.7760  0.2390  0.6592
   77U       O4 2047   7.430   6.881   8.718  0.2649  0.1078  0.8538
   77U       N3 2048   7.455   6.665   8.683 -0.5943  0.1289 -0.2099
   77U       H3 2049   7.546   6.682   8.643  0.3110 -0.9542  1.2740
   77U       C2 2050   7.425   6.533   8.678 -0.3618 -0.5704  0.2597
   77U       O2 2051   7.520   6.451   8.657 -0.4243 -1.4098  1.1092
   77U      C3' 2052   7.157   6.282   8.920  0.0609 -0.0135 -0.2438
   77U      H3' 2053   7.134   6.376   8.972  0.7820 -1.1690  2.3328
   77U      C2' 2054   7.292   6.288   8.852  0.0850 -0.6659 -0.5099
   77U     H2'1 2055   7.353   6.357   8.911  1.0042 -1.8215 -0.0625
   77U      O2' 2056   7.349   6.164   8.823 -0.5127 -0.1872  0.3537
   77U     HO'2 2057   7.439   6.177   8.853 -0.6672  2.4716 -0.1517
   77U      O3' 2058   7.148   6.179   9.022  1.0203 -0.5874 -0.0568
   78G        P 2059   7.216   6.193   9.160  0.2259 -0.1303  0.4562
   78G      O1P 2060   7.160   6.084   9.246  0.6437 -0.0405 -0.1384
   78G      O2P 2061   7.188   6.323   9.212  0.0506 -0.5966 -0.7183
   78G      O5' 2062   7.380   6.186   9.139 -0.4410 -0.1609  0.2416
   78G      C5' 2063   7.437   6.060   9.124  0.0102 -0.3042 -0.3495
   78G     H5'1 2064   7.367   5.999   9.067  0.8160  0.1467 -1.8718
   78G     H5'2 2065   7.453   6.025   9.226 -1.8482  1.2858  0.5524
   78G      C4' 2066   7.576   6.070   9.054  0.6359 -0.4642 -0.6902
   78G      H4' 2067   7.606   5.974   9.012  1.2160 -0.0111 -1.3349
   78G      O4' 2068   7.584   6.178   8.954 -0.0156  0.2212 -0.5426
   78G      C1' 2069   7.716   6.242   8.951 -0.3861 -0.3894 -0.2536
   78G      H1' 2070   7.777   6.230   8.862  0.4188  0.8401  0.1049
   78G       N9 2071   7.698   6.391   8.978 -0.0239  1.0543  0.3616
   78G       C8 2072   7.581   6.455   9.014 -0.3732  0.3591 -1.0210
   78G       H8 2073   7.488   6.405   9.037  0.8156 -0.5131  2.4986
   78G       N7 2074   7.609   6.580   9.034 -0.1243 -0.3342  0.7168
   78G       C5 2075   7.740   6.608   8.989  0.1983  0.0283  0.6113
   78G       C6 2076   7.819   6.730   8.978  0.0201  1.1070 -0.0402
   78G       O6 2077   7.796   6.847   9.010  0.2592  0.0348  0.0199
   78G       N1 2078   7.953   6.698   8.941  0.3120 -0.2095  0.1828
   78G       H1 2079   8.012   6.779   8.952 -0.3912  0.2293  0.8090
   78G       C2 2080   8.000   6.578   8.902 -0.3442 -0.9367  0.7569
   78G       N2 2081   8.115   6.575   8.848 -0.2970  0.1792  0.3729
   78G      H21 2082   8.163   6.663   8.851 -3.2897  2.0684 -1.5427
   78G      H22 2083   8.151   6.484   8.824 -2.0926 -0.3705 -0.4392
   78G       N3 2084   7.923   6.464   8.901 -0.0295 -0.5617 -0.0242
   78G       C4 2085   7.800   6.484   8.955  0.4030  0.6048  0.7649
   78G      C3' 2086   7.679   6.119   9.152 -0.8013 -0.0006  0.5566
   78G      H3' 2087   7.635   6.203   9.205  2.0695  1.4570  0.8713
   78G      C2' 2088   7.794   6.181   9.063  0.5364  0.4546 -0.2272
   78G     H2'1 2089   7.852   6.255   9.119 -1.1126 -0.1764  2.4883
   78G      O2' 2090   7.883   6.087   9.013 -0.4018 -0.5829  0.2018
   78G     HO'2 2091   7.935   6.064   9.090 -2.7684  0.7061  2.3158
   78G      O3' 2092   7.719   6.017   9.239  0.1885 -0.4967  0.5451
   79A        P 2093   7.765   6.042   9.388 -0.1924  0.7740 -0.2645
   79A      O1P 2094   7.806   5.913   9.442  0.0356  0.2719 -0.5596
   79A      O2P 2095   7.664   6.124   9.458 -0.1172  0.3037  0.3827
   79A      O5' 2096   7.896   6.136   9.364  0.1341  0.1907  0.2573
   79A      C5' 2097   8.018   6.072   9.332  0.8138  1.0644  0.3422
   79A     H5'1 2098   7.999   6.010   9.244  0.9043 -1.9720  2.3065
   79A     H5'2 2099   8.040   6.000   9.411 -0.7344 -0.5362 -0.6133
   79A      C4' 2100   8.134   6.161   9.288 -0.0122 -0.0689 -0.3225
   79A      H4' 2101   8.213   6.095   9.253  0.1443 -0.1903  0.2486
   79A      O4' 2102   8.109   6.253   9.177  0.2162 -0.1053  0.1346
   79A      C1' 2103   8.176   6.379   9.190  0.3700 -0.7771  0.1247
   79A      H1' 2104   8.237   6.413   9.106 -1.9036 -2.1118 -2.1980
   79A       N9 2105   8.084   6.497   9.212 -0.1799  0.1841  0.3021
   79A       C8 2106   7.953   6.503   9.250 -0.0911 -0.4954  0.1267
   79A       H8 2107   7.893   6.414   9.253  1.7370 -1.7818  0.2538
   79A       N7 2108   7.912   6.625   9.292 -0.0100  0.0930 -0.2300
   79A       C5 2109   8.021   6.705   9.263  0.1701  0.2171 -0.1845
   79A       C6 2110   8.045   6.843   9.258 -0.6920  0.4180  0.3288
   79A       N6 2111   7.954   6.937   9.286  0.3255 -0.1093 -0.4127
   79A      H61 2112   7.863   6.902   9.312 -0.6187  1.4869 -1.4549
   79A      H62 2113   7.977   7.035   9.292 -0.2584 -0.0135  0.5925
   79A       N1 2114   8.167   6.892   9.236 -0.1331  0.2440  0.5460
   79A       C2 2115   8.266   6.809   9.198  0.1947  0.8185 -0.5345
   79A       H2 2116   8.366   6.848   9.189  0.4264  0.6607  1.0600
   79A       N3 2117   8.252   6.674   9.184 -0.5739  0.1292 -0.0334
   79A       C4 2118   8.127   6.631   9.216 -0.0690  0.2509 -0.4985
   79A      C3' 2119   8.172   6.260   9.393 -0.2649  0.6350  0.1976
   79A      H3' 2120   8.081   6.310   9.423 -1.1917 -0.6508 -0.3794
   79A      C2' 2121   8.251   6.367   9.326  0.5680 -0.1866 -0.3009
   79A     H2'1 2122   8.236   6.459   9.382 -2.5848 -0.3231 -0.7394
   79A      O2' 2123   8.384   6.326   9.312  0.5531  0.4673  0.0155
   79A     HO'2 2124   8.435   6.394   9.268 -0.9693  1.2806 -0.5708
   79A      O3' 2125   8.230   6.193   9.503  0.1541 -0.6550  0.0802
   80A        P 2126   8.253   6.254   9.648 -0.1793  0.1656 -0.3335
   80A      O1P 2127   8.320   6.145   9.727 -0.7531 -0.0286 -0.7671
   80A      O2P 2128   8.122   6.307   9.695  0.2545 -0.0427 -0.8827
   80A      O5' 2129   8.350   6.384   9.640  0.9789  0.7327  0.0215
   80A      C5' 2130   8.487   6.374   9.609 -0.7405 -0.1184 -0.6087
   80A     H5'1 2131   8.512   6.325   9.516 -0.9000  0.3830 -0.9215
   80A     H5'2 2132   8.525   6.321   9.697 -1.2411  2.7639  1.5055
   80A      C4' 2133   8.539   6.516   9.608 -0.3175 -0.8550  0.1111
   80A      H4' 2134   8.644   6.517   9.578 -0.8153  2.1569 -1.9238
   80A      O4' 2135   8.466   6.597   9.517 -0.0894 -0.0888  0.2096
   80A      C1' 2136   8.467   6.732   9.559 -0.5774 -0.0825 -0.1983
   80A      H1' 2137   8.516   6.787   9.478 -1.7232 -0.0613 -0.8958
   80A       N9 2138   8.331   6.789   9.571 -0.1114 -0.3342  0.3161
   80A       C8 2139   8.213   6.732   9.606 -0.1778 -0.3473 -0.1596
   80A       H8 2140   8.198   6.629   9.637 -1.5019  0.0215  0.4844
   80A       N7 2141   8.118   6.824   9.602  0.0460  0.9050 -0.4370
   80A       C5 2142   8.172   6.946   9.570 -0.4532 -0.0282  0.1366
   80A       C6 2143   8.129   7.076   9.543 -0.0180  0.0399  1.0155
   80A       N6 2144   8.001   7.115   9.536 -0.0695  0.0938 -0.7847
   80A      H61 2145   7.925   7.050   9.545  0.9241 -0.8109  3.1226
   80A      H62 2146   7.973   7.207   9.506  0.7791  0.0694 -1.6769
   80A       N1 2147   8.208   7.175   9.503  0.0617 -0.2017  0.0139
   80A       C2 2148   8.338   7.140   9.492 -0.4708 -0.5864 -1.1600
   80A       H2 2149   8.406   7.221   9.469  0.9095 -1.8513 -1.6945
   80A       N3 2150   8.400   7.019   9.501 -0.0430 -0.4905 -0.4719
   80A       C4 2151   8.304   6.920   9.540 -0.7242  0.1520 -0.5530
   80A      C3' 2152   8.518   6.599   9.734 -0.0621  1.2502 -0.2199
   80A      H3' 2153   8.415   6.595   9.770 -0.2087 -0.9813 -0.7252
   80A      C2' 2154   8.549   6.739   9.686 -0.4304 -0.0721  0.3663
   80A     H2'1 2155   8.507   6.798   9.767 -1.3254 -2.6354  1.8974
   80A      O2' 2156   8.686   6.775   9.654 -0.0071  0.2551 -0.3734
   80A     HO'2 2157   8.727   6.688   9.660  1.9008  1.1566  0.2086
   80A      O3' 2158   8.621   6.568   9.830  1.0174  0.2971 -0.0131
   81G        P 2159   8.586   6.562   9.983 -0.6537 -0.0525 -0.2668
   81G      O1P 2160   8.712   6.510  10.050  0.7360 -0.0942 -0.5879
   81G      O2P 2161   8.460   6.496  10.010  0.2622 -0.6299 -0.5724
   81G      O5' 2162   8.572   6.716  10.023 -0.0733  0.0884  0.3461
   81G      C5' 2163   8.679   6.799  10.048  0.0326 -1.2286 -0.0197
   81G     H5'1 2164   8.746   6.787   9.963 -0.8530  0.8189 -1.0788
   81G     H5'2 2165   8.720   6.770  10.145  1.7270  1.0629  0.0435
   81G      C4' 2166   8.646   6.943  10.065 -0.1557  0.3791  0.6459
   81G      H4' 2167   8.745   6.984  10.082  0.1800 -0.5841  1.0584
   81G      O4' 2168   8.573   6.990   9.948 -0.1229 -0.1985 -0.0206
   81G      C1' 2169   8.509   7.108   9.984  0.4800 -0.2043  0.5435
   81G      H1' 2170   8.576   7.183   9.943  0.0870  0.5758  1.2968
   81G       N9 2171   8.382   7.122   9.919  0.7088  0.9151  0.0215
   81G       C8 2172   8.281   7.024   9.914 -0.2271 -0.5764  0.3537
   81G       H8 2173   8.305   6.925   9.951  1.3698  0.2659  1.7252
   81G       N7 2174   8.164   7.076   9.870  0.1846  0.5491  0.4107
   81G       C5 2175   8.199   7.217   9.850  0.2089  0.6124 -0.0927
   81G       C6 2176   8.120   7.327   9.816 -0.5132  0.8258 -0.3790
   81G       O6 2177   8.003   7.326   9.790 -0.2428 -0.0276 -0.0774
   81G       N1 2178   8.183   7.446   9.811 -0.4380  0.0596 -0.3435
   81G       H1 2179   8.141   7.535   9.787  0.0364  0.4222  0.1411
   81G       C2 2180   8.308   7.457   9.855  0.2708  0.8506 -0.3853
   81G       N2 2181   8.348   7.579   9.875 -0.0697  0.6163 -0.3191
   81G      H21 2182   8.274   7.647   9.867 -2.2683 -1.5610  0.3116
   81G      H22 2183   8.441   7.599   9.908  1.4117 -2.2707 -2.3315
   81G       N3 2184   8.393   7.358   9.867 -0.2579 -0.3559  0.2052
   81G       C4 2185   8.331   7.238   9.872  0.0980 -0.0456 -0.7513
   81G      C3' 2186   8.557   6.977  10.187 -0.0267 -0.2524  0.3760
   81G      H3' 2187   8.475   6.906  10.191 -1.0536  0.7877 -1.1253
   81G      C2' 2188   8.507   7.110  10.141 -0.1716  0.5733  0.0590
   81G     H2'1 2189   8.408   7.117  10.186 -0.8832  0.0889 -1.3554
   81G      O2' 2190   8.589   7.210  10.200  0.5062  0.2521  0.4211
   81G     HO'2 2191   8.558   7.225  10.289 -1.8132  0.6185 -0.3867
   81G      O3' 2192   8.629   6.970  10.321 -0.2274 -1.0052  0.2368
   82U        P 2193   8.561   7.002  10.450  0.0442 -0.3229 -0.5257
   82U      O1P 2194   8.662   6.984  10.556 -0.3714  0.1426 -0.1121
   82U      O2P 2195   8.426   6.941  10.466 -0.6458  0.1933 -0.6030
   82U      O5' 2196   8.525   7.160  10.446  0.0460 -0.4830 -0.3678
   82U      C5' 2197   8.588   7.258  10.529  0.3836  0.2829 -0.8894
   82U     H5'1 2198   8.695   7.239  10.530  0.0935 -1.4985 -0.4699
   82U     H5'2 2199   8.566   7.238  10.634  0.0664 -0.1070 -1.0260
   82U      C4' 2200   8.542   7.402  10.499  0.4683 -0.3263  0.2773
   82U      H4' 2201   8.615   7.474  10.536  0.5669 -0.1277 -0.2908
   82U      O4' 2202   8.513   7.421  10.359 -0.5286 -0.4824  0.2714
   82U      C1' 2203   8.417   7.517  10.348 -0.0502 -0.6247  0.0789
   82U      H1' 2204   8.449   7.606  10.294 -1.1230 -1.0197 -1.2764
   82U       N1 2205   8.296   7.476  10.269  1.0236  0.6375  0.2708
   82U       C6 2206   8.245   7.355  10.288  0.7558 -0.2801 -0.1798
   82U       H6 2207   8.301   7.280  10.343  2.2718  1.7785  1.2639
   82U       C5 2208   8.114   7.327  10.252  0.4011 -0.8384 -0.1016
   82U       H5 2209   8.062   7.235  10.273  0.5248 -0.7909  0.4266
   82U       C4 2210   8.036   7.426  10.171 -0.1518 -0.1339 -0.3651
   82U       O4 2211   7.932   7.402  10.114 -0.1175 -1.0091 -0.0957
   82U       N3 2212   8.101   7.546  10.151  0.7670  0.4704 -0.2427
   82U       H3 2213   8.063   7.616  10.088 -0.6005 -0.9359 -1.0764
   82U       C2 2214   8.230   7.572  10.191 -0.1590 -0.2640 -0.6581
   82U       O2 2215   8.291   7.671  10.153  0.3411 -0.0889  0.2170
   82U      C3' 2216   8.424   7.453  10.570 -0.1290  0.0250 -0.1329
   82U      H3' 2217   8.347   7.377  10.558  1.6190 -1.5221 -2.5592
   82U      C2' 2218   8.366   7.561  10.487 -0.3415  0.2265  0.2995
   82U     H2'1 2219   8.258   7.568  10.487 -0.3352  1.7161 -2.4737
   82U      O2' 2220   8.419   7.691  10.508  0.1952  0.3061  0.2555
   82U     HO'2 2221   8.391   7.724  10.594 -1.4709 -0.1561 -0.0921
   82U      O3' 2222   8.446   7.482  10.701 -0.6665 -0.1492 -0.1276
   83G        P 2223   8.321   7.526  10.801 -0.0326  0.3199 -0.2793
   83G      O1P 2224   8.358   7.499  10.942 -0.3073  0.2610 -0.4009
   83G      O2P 2225   8.193   7.476  10.750 -0.5251  0.4785 -0.6299
   83G      O5' 2226   8.302   7.690  10.785  0.3668 -0.6107  0.1027
   83G      C5' 2227   8.408   7.783  10.788 -0.1764  0.3682  0.0687
   83G     H5'1 2228   8.499   7.748  10.737 -0.8890 -0.9003 -0.3827
   83G     H5'2 2229   8.437   7.781  10.893 -1.3214  1.0982  0.4171
   83G      C4' 2230   8.383   7.934  10.755  0.3205  0.6415  0.5685
   83G      H4' 2231   8.474   7.980  10.792  0.2992  0.5826  0.6919
   83G      O4' 2232   8.362   7.958  10.616 -0.2677  0.2515  0.3472
   83G      C1' 2233   8.224   8.007  10.601  0.6834 -0.2928  1.0142
   83G      H1' 2234   8.219   8.113  10.578  1.6978 -0.7124 -1.4624
   83G       N9 2235   8.138   7.924  10.509  0.4463 -0.4264 -0.1244
   83G       C8 2236   8.120   7.790  10.506 -0.5609  0.0280 -0.2004
   83G       H8 2237   8.167   7.736  10.587  2.6291  3.2221  0.3169
   83G       N7 2238   8.045   7.741  10.413 -0.3600 -0.6401  0.3607
   83G       C5 2239   8.011   7.861  10.342  0.4308  0.2365 -0.8824
   83G       C6 2240   7.943   7.878  10.214  0.1011 -0.3250 -0.5087
   83G       O6 2241   7.889   7.792  10.140 -0.4517  0.2740 -0.3185
   83G       N1 2242   7.917   8.008  10.187  0.3206  0.1767 -0.2424
   83G       H1 2243   7.863   8.019  10.102 -1.3141 -0.0395  0.7302
   83G       C2 2244   7.969   8.109  10.259 -0.4256 -0.5977 -0.8158
   83G       N2 2245   7.955   8.225  10.197 -0.2186 -0.4898 -0.3595
   83G      H21 2246   7.898   8.234  10.114 -1.9093  4.5724  0.9696
   83G      H22 2247   7.990   8.305  10.248 -2.1549  0.4478 -0.3961
   83G       N3 2248   8.059   8.098  10.361 -0.6987  0.0810 -0.3815
   83G       C4 2249   8.066   7.972  10.402 -0.3286 -0.7348  0.2667
   83G      C3' 2250   8.267   7.994  10.832  0.8548 -0.3384 -0.3488
   83G      H3' 2251   8.252   7.941  10.926 -1.0730 -0.1170 -0.4788
   83G      C2' 2252   8.155   7.969  10.736 -0.1413  0.6606  0.0229
   83G     H2'1 2253   8.127   7.863  10.742  1.3757  0.2896  1.0716
   83G      O2' 2254   8.053   8.061  10.780 -0.0767  0.4525  0.2890
   83G     HO'2 2255   8.007   8.094  10.703 -0.2973  0.6143  0.4911
   83G      O3' 2256   8.283   8.137  10.857  0.3299 -0.6787  0.2455
   83G      H3T 2257   8.191   8.156  10.875 -0.1142 -2.2668 -0.1700
   84SOL     OW 2258   5.177   2.009   3.203 -0.2737 -0.2099  0.2957
   84SOL    HW1 2259   5.126   1.960   3.268 -1.3402  1.2104  0.5792
   84SOL    HW2 2260   5.122   2.084   3.182  2.2393  2.2046  1.6827
   85SOL     OW 2261   3.593   5.033   7.031 -0.0835 -0.0675 -0.3079
   85SOL    HW1 2262   3.592   4.937   7.032 -0.1818 -0.0943 -1.5181
   85SOL    HW2 2263   3.523   5.057   6.971  2.9412  0.5939 -3.9426
   86SOL     OW 2264   3.002   9.127   8.163  0.1645  0.8324 -0.7748
   86SOL    HW1 2265   2.975   9.065   8.095 -0.8177 -1.3267  1.4192
   86SOL    HW2 2266   2.929   9.189   8.168  0.2807  1.0582 -1.7275
   87SOL     OW 2267   8.896   9.956   5.735  0.1156  0.5867  0.1920
   87SOL    HW1 2268   8.805   9.934   5.754  0.0846  0.7632  0.2486
   87SOL    HW2 2269   8.943   9.930   5.814 -0.2739  3.0710  1.3115
   88SOL     OW 2270  10.823   7.245   2.930 -0.2664  0.0276 -0.2068
   88SOL    HW1 2271  10.751   7.185   2.950  0.9480 -1.6391 -0.6264
   88SOL    HW2 2272  10.899   7.189   2.922  1.6092  1.8925  2.4872
   89SOL     OW 2273   3.305   4.120  10.065 -0.0100  0.2166  0.0798
   89SOL    HW1 2274   3.222   4.140  10.022 -0.2565  2.4601  1.4292
   89SOL    HW2 2275   3.369   4.173  10.018 -0.0208  1.4537  1.3998
   90SOL     OW 2276   9.069   7.252   5.749 -0.1923  0.1494 -0.2157
   90SOL    HW1 2277   9.043   7.211   5.666  0.0148 -0.0103 -0.2023
   90SOL    HW2 2278   9.161   7.229   5.759 -0.3547 -0.2769  0.3190
   91SOL     OW 2279   0.821  10.482  11.003 -0.0204 -0.4084  0.5592
   91SOL    HW1 2280   0.764  10.417  11.045 -0.1653  0.1212  1.2014
   91SOL    HW2 2281   0.865  10.526  11.076 -0.5593  0.7913  0.2027
   92SOL     OW 2282   6.664   8.183   5.286  0.6870 -0.4133  0.7227
   92SOL    HW1 2283   6.721   8.161   5.359  0.8740  0.0744  0.7245
   92SOL    HW2 2284   6.578   8.197   5.327  0.7528 -0.3122  0.8268
   93SOL     OW 2285   8.195   4.986  10.807  0.2436  0.5128  0.5665
   93SOL    HW1 2286   8.110   4.959  10.772  0.9739  2.6923 -3.4452
   93SOL    HW2 2287   8.185   5.080  10.825  1.9198  0.9775 -0.6609
   94SOL     OW 2288   8.718  11.189   2.429  0.0666 -0.0076  0.0437
   94SOL    HW1 2289   8.662  11.204   2.352  0.5033 -1.7432 -0.6724
   94SOL    HW2 2290   8.784  11.127   2.398  0.7284 -0.1356  1.6312
   95SOL     OW 2291   5.069   5.139   0.969 -0.1675  0.3887 -0.9186
   95SOL    HW1 2292   5.042   5.048   0.957 -0.4276  0.5770 -1.8660
   95SOL    HW2 2293   4.991   5.190   0.949  0.5360  0.8899 -2.5623
   96SOL     OW 2294   2.149   4.520   6.531  0.4032 -0.1613  0.1810
   96SOL    HW1 2295   2.066   4.520   6.483 -0.4712  0.8940  1.6166
   96SOL    HW2 2296   2.212   4.559   6.470  0.3189 -2.5519 -1.5903
   97SOL     OW 2297   6.486   1.111   6.377 -0.6518 -0.0981  0.2218
   97SOL    HW1 2298   6.515   1.020   6.366 -0.2696  0.0872 -0.3237
   97SOL    HW2 2299   6.457   1.116   6.468  0.3299 -0.4807  0.5694
   98SOL     OW 2300   2.368   6.156   4.051 -0.3739  0.0285 -0.0546
   98SOL    HW1 2301   2.307   6.230   4.057 -1.0952 -0.5667  0.1851
   98SOL    HW2 2302   2.412   6.155   4.136 -0.7211 -0.1141  0.1251
   99SOL     OW 2303   4.971   4.397   0.686  0.3691 -0.1938  0.5731
   99SOL    HW1 2304   4.936   4.428   0.770 -0.9132  0.6573 -0.2438
   99SOL    HW2 2305   4.985   4.476   0.635 -1.5137 -0.8210 -1.0134
  100SOL     OW 2306  10.840   9.519   3.444  0.7728  0.9321  0.2723
  100SOL    HW1 2307  10.792   9.600   3.463  1.3877  1.8811 -1.8675
  100SOL    HW2 2308  10.829   9.507   3.349  0.5998 -1.6002  0.5476
  101SOL     OW 2309   8.187   0.109   9.112 -0.0517 -0.0559  0.3533
  101SOL    HW1 2310   8.270   0.144   9.082 -0.6093  2.2118  1.2399
  101SOL    HW2 2311   8.210   0.034   9.167  1.3020 -0.1535 -0.3114
  102SOL     OW 2312   1.032   8.993   5.616 -0.4702  0.5089  0.0378
  102SOL    HW1 2313   0.989   8.927   5.562  0.1846 -0.8127  1.0567
  102SOL    HW2 2314   0.997   8.978   5.704  0.3913  0.8810  0.4573
  103SOL     OW 2315   5.324   0.692   5.170  0.3477 -0.4984 -0.1249
  103SOL    HW1 2316   5.335   0.696   5.265  4.2831  1.2922 -0.4705
  103SOL    HW2 2317   5.331   0.598   5.149 -0.6283 -0.9172  1.2830
  104SOL     OW 2318   3.959   7.163   1.515  0.1627 -0.1111 -0.7805
  104SOL    HW1 2319   3.869   7.182   1.539  0.3799 -0.9118  0.7941
  104SOL    HW2 2320   4.004   7.148   1.598  1.4814 -0.8890 -1.5894
  105SOL     OW 2321   5.273   0.213   6.589 -0.0839  0.5683  0.2821
  105SOL    HW1 2322   5.288   0.157   6.513 -2.1502  0.0925  0.1492
  105SOL    HW2 2323   5.318   0.170   6.661  0.8788  0.3686 -0.4218
  106SOL     OW 2324   8.008   3.763  10.361 -0.8090  0.5090  0.5556
  106SOL    HW1 2325   8.082   3.759  10.300 -1.6899 -0.5222 -0.5081
  106SOL    HW2 2326   8.037   3.712  10.437 -0.1330  0.8030  0.5013
  107SOL     OW 2327   2.478   2.516   7.290 -0.5031  0.1056  0.0084
  107SOL    HW1 2328   2.513   2.601   7.316  2.8094 -0.8562 -0.7145
  107SOL    HW2 2329   2.453   2.528   7.198  1.6593 -0.0240 -0.6668
  108SOL     OW 2330   1.231   8.365   8.391  0.2388 -0.2021 -0.2559
  108SOL    HW1 2331   1.269   8.439   8.438  0.8283 -1.4862  1.3507
  108SOL    HW2 2332   1.305   8.326   8.345  0.3369 -0.9993  0.5614
  109SOL     OW 2333   9.938   8.427   0.878 -0.3563  0.2178  0.1507
  109SOL    HW1 2334   9.945   8.451   0.970 -0.9374  2.1070 -0.2685
  109SOL    HW2 2335   9.877   8.490   0.841  0.4665 -0.0039 -1.6896
  110SOL     OW 2336  10.991   6.179   2.541  0.4223 -0.4424  0.6368
  110SOL    HW1 2337  10.990   6.269   2.575 -2.5980  0.5503 -1.5647
  110SOL    HW2 2338  11.021   6.126   2.614 -0.9464  2.0328  3.2168
  111SOL     OW 2339   4.943   2.370   0.267  0.2212 -0.3652  0.0898
  111SOL    HW1 2340   4.990   2.453   0.255 -0.1699 -0.2896 -0.9936
  111SOL    HW2 2341   5.010   2.303   0.251  0.0319 -0.2569 -1.2452
  112SOL     OW 2342   2.389   0.452   8.900 -0.2354 -0.1832 -0.1278
  112SOL    HW1 2343   2.388   0.517   8.829  0.4433 -0.7631 -0.6921
  112SOL    HW2 2344   2.479   0.454   8.933 -0.5368  0.0542  0.7032
  113SOL     OW 2345   8.454   4.020   8.533 -0.4346 -0.7535  0.1761
  113SOL    HW1 2346   8.413   4.059   8.456 -3.2090 -1.7542  1.0274
  113SOL    HW2 2347   8.382   3.975   8.578  1.8562 -3.8746  1.0967
  114SOL     OW 2348   5.748   8.153   8.350  0.2472  0.3341 -0.0086
  114SOL    HW1 2349   5.681   8.200   8.299 -1.2071 -0.5166  1.0361
  114SOL    HW2 2350   5.816   8.132   8.286 -0.6394  0.9376 -1.1950
  115SOL     OW 2351   7.133   7.203   7.331  0.8027  0.2811 -0.5263
  115SOL    HW1 2352   7.193   7.235   7.263  0.0797  2.0573 -0.3730
  115SOL    HW2 2353   7.072   7.146   7.284  0.8109  0.8327 -1.2126
  116SOL     OW 2354   4.706   9.178   0.038  0.1709  0.3891 -0.2254
  116SOL    HW1 2355   4.748   9.105  -0.008  1.3075 -1.0444  2.8228
  116SOL    HW2 2356   4.639   9.209  -0.023  1.4338 -1.4000 -2.7375
  117SOL     OW 2357   7.755   6.004   4.238  0.1106  0.4326  0.2650
  117SOL    HW1 2358   7.707   6.072   4.191 -1.2036 -0.4691  0.2416
  117SOL    HW2 2359   7.757   5.930   4.177 -0.2658 -0.2236  1.0324
  118SOL     OW 2360   5.380   4.350   8.282 -0.5009  0.5467  0.3721
  118SOL    HW1 2361   5.349   4.432   8.244  2.2625  1.4841 -0.0903
  118SOL    HW2 2362   5.387   4.367   8.375 -2.0407  0.0600  0.5987
  119SOL     OW 2363   9.630   7.691   9.418  0.0637  0.6256  0.3882
  119SOL    HW1 2364   9.657   7.719   9.506  2.4563  0.1862 -0.1461
  119SOL    HW2 2365   9.700   7.721   9.360 -1.4568  0.8792 -1.4077
  120SOL     OW 2366  10.452  10.193   6.485  0.2552  1.1597 -0.3290
  120SOL    HW1 2367  10.400  10.125   6.527  0.3619  1.5865  0.5102
  120SOL    HW2 2368  10.451  10.169   6.392 -0.4563  0.5174 -0.1715
  121SOL     OW 2369   6.904   0.716   9.656 -0.7266 -0.3706 -0.0586
  121SOL    HW1 2370   6.956   0.795   9.637  3.3517 -3.0610 -1.3796
  121SOL    HW2 2371   6.909   0.665   9.575 -1.9087 -2.7113  1.2618
  122SOL     OW 2372   6.090   4.189   6.544 -0.3546 -0.2014  0.4171
  122SOL    HW1 2373   6.099   4.258   6.478  0.4621 -0.5675  0.1273
  122SOL    HW2 2374   6.062   4.112   6.494 -0.1594 -0.3697  0.5651
  123SOL     OW 2375  11.017   5.614   9.962  0.5110  0.2399 -0.0703
  123SOL    HW1 2376  11.002   5.654  10.048 -1.6890  0.0156 -0.2836
  123SOL    HW2 2377  11.006   5.686   9.900 -0.4922 -0.0832 -0.2847
  124SOL     OW 2378  11.159   0.807   9.151 -0.3528  0.3351 -0.8309
  124SOL    HW1 2379  11.209   0.726   9.160  0.9549  0.8798 -2.6326
  124SOL    HW2 2380  11.215   0.874   9.189 -0.0134  0.8359 -2.1529
  125SOL     OW 2381   0.843   5.745   5.062  0.1020  0.2183 -0.3039
  125SOL    HW1 2382   0.840   5.674   5.127 -0.3928  0.6231  0.1253
  125SOL    HW2 2383   0.876   5.820   5.110 -1.0614  0.7433 -0.2965
  126SOL     OW 2384   1.149   4.763  11.265  0.0542  1.1218 -0.2973
  126SOL    HW1 2385   1.067   4.737  11.307 -0.0429  0.7816 -0.6978
  126SOL    HW2 2386   1.122   4.803  11.183  0.3404 -0.3488 -1.1459
  127SOL     OW 2387   9.573   9.363   1.603  0.6302 -0.2859 -0.1355
  127SOL    HW1 2388   9.480   9.347   1.620  0.9023 -0.6973  1.1246
  127SOL    HW2 2389   9.586   9.455   1.623  0.5794 -0.3443  0.1764
  128SOL     OW 2390   0.800   8.889   7.007 -0.0155  0.5953 -0.7409
  128SOL    HW1 2391   0.780   8.900   6.914 -2.4119  0.8402 -0.2658
  128SOL    HW2 2392   0.737   8.946   7.052 -1.8071 -2.6033  1.1549
  129SOL     OW 2393   8.509  10.720   5.778 -0.2319  0.1087 -0.3295
  129SOL    HW1 2394   8.594  10.744   5.741 -0.3616  1.7798  0.3694
  129SOL    HW2 2395   8.446  10.773   5.729 -0.5961  0.8525  0.8966
  130SOL     OW 2396   2.917   2.799   3.803  0.5163 -0.2787  0.6376
  130SOL    HW1 2397   2.998   2.849   3.804  0.1543  0.3429 -0.1054
  130SOL    HW2 2398   2.945   2.708   3.811  1.6847 -0.5294 -3.6160
  131SOL     OW 2399   6.477  11.006   1.685  0.2988 -0.0480  0.8104
  131SOL    HW1 2400   6.511  11.055   1.760 -0.7892  1.5198  0.3441
  131SOL    HW2 2401   6.398  10.964   1.718  0.3255 -0.1253  0.7771
  132SOL     OW 2402   9.330   4.274   2.677  0.0973  0.3679 -0.0916
  132SOL    HW1 2403   9.405   4.231   2.637  0.8436  0.4594  1.1613
  132SOL    HW2 2404   9.327   4.361   2.636  1.2799  0.7190  0.5274
  133SOL     OW 2405   6.592   8.642   0.116 -0.2250 -0.3354  0.7737
  133SOL    HW1 2406   6.551   8.697   0.050 -0.3070 -0.1438  0.9848
  133SOL    HW2 2407   6.648   8.583   0.066 -0.5972 -0.4633  0.4994
  134SOL     OW 2408   3.504   1.951  11.165  0.4971 -0.1648 -0.1760
  134SOL    HW1 2409   3.412   1.949  11.138  0.5156  3.1157 -0.8958
  134SOL    HW2 2410   3.503   1.928  11.258 -1.2507  1.0067  0.1400
  135SOL     OW 2411   6.582   8.451  10.127 -0.5087 -0.8449  0.2558
  135SOL    HW1 2412   6.527   8.381  10.092 -1.0423 -0.2098 -0.2041
  135SOL    HW2 2413   6.672   8.419  10.116 -0.7616 -1.6886  0.5749
  136SOL     OW 2414   9.502   0.854   2.885  0.5116  0.6274 -0.2140
  136SOL    HW1 2415   9.512   0.778   2.827  2.1499 -0.2890  1.1527
  136SOL    HW2 2416   9.409   0.856   2.905  0.3163 -0.5967 -0.8714
  137SOL     OW 2417   4.643   3.541   7.909  0.0260  0.0652 -0.5295
  137SOL    HW1 2418   4.719   3.521   7.854  0.6113 -1.0460  0.6065
  137SOL    HW2 2419   4.659   3.492   7.990 -0.3361  2.3127  1.0221
  138SOL     OW 2420   0.557   5.541   9.295 -0.6487 -0.1236 -0.5604
  138SOL    HW1 2421   0.586   5.466   9.349  0.3141  0.5668 -0.0832
  138SOL    HW2 2422   0.526   5.501   9.214  0.1202 -1.0438 -0.4278
  139SOL     OW 2423   2.745  11.196   0.069 -0.1032  0.2807  0.1180
  139SOL    HW1 2424   2.678  11.129   0.054 -0.6295  0.7202  0.4349
  139SOL    HW2 2425   2.695  11.277   0.078  0.4972  0.6547  0.1263
  140SOL     OW 2426   0.929   2.861   2.949 -0.4440 -0.0700  0.2360
  140SOL    HW1 2427   0.948   2.821   3.034  0.1254  1.7943  1.0512
  140SOL    HW2 2428   0.875   2.797   2.903  1.6649 -2.4011  0.8100
  141SOL     OW 2429   2.324   2.696   6.507 -0.0391  0.1562 -0.0631
  141SOL    HW1 2430   2.258   2.712   6.440 -0.0214  1.3274  0.1816
  141SOL    HW2 2431   2.304   2.758   6.577 -0.5400 -1.5689  1.3997
  142SOL     OW 2432   7.651   1.583   8.025  0.5641 -0.4420 -0.1215
  142SOL    HW1 2433   7.735   1.617   7.994  0.9894 -0.2726  1.1876
  142SOL    HW2 2434   7.667   1.555   8.115 -0.9438  0.2243  0.3903
  143SOL     OW 2435   2.635   2.266   2.726  0.3261 -1.0620  0.5811
  143SOL    HW1 2436   2.642   2.327   2.799  0.7080  0.6901 -0.8413
  143SOL    HW2 2437   2.604   2.184   2.765  0.9176 -0.3070  2.7313
  144SOL     OW 2438   1.187   1.673   3.928 -0.1725 -0.4967  0.0715
  144SOL    HW1 2439   1.274   1.640   3.950 -0.2851 -1.0351 -0.2652
  144SOL    HW2 2440   1.163   1.728   4.003  0.6820  0.1119 -0.0804
  145SOL     OW 2441   6.223   2.509   2.877  0.3641 -0.3849 -0.5241
  145SOL    HW1 2442   6.289   2.538   2.941  0.8889  1.0892 -1.6907
  145SOL    HW2 2443   6.139   2.526   2.920  0.6526  2.3911 -0.8824
  146SOL     OW 2444  10.852   2.130   6.742  0.5309  0.1687  0.3512
  146SOL    HW1 2445  10.865   2.036   6.729 -1.0037  0.1551 -1.3022
  146SOL    HW2 2446  10.823   2.137   6.833 -0.9655 -1.1477  0.0092
  147SOL     OW 2447  10.290   7.203   6.794  0.0834 -0.0122 -0.2025
  147SOL    HW1 2448  10.273   7.134   6.858  2.8845 -1.9953 -1.3731
  147SOL    HW2 2449  10.372   7.243   6.824  0.1202  0.7128 -1.2092
  148SOL     OW 2450   8.221   8.643   1.527  0.2324  0.4585 -0.1144
  148SOL    HW1 2451   8.269   8.703   1.585 -2.0425  2.8629 -0.5333
  148SOL    HW2 2452   8.185   8.577   1.585 -0.0713  1.4918  0.9174
  149SOL     OW 2453   9.884   4.955   0.701 -0.8293 -0.3910 -0.3338
  149SOL    HW1 2454   9.842   4.871   0.718 -3.8406  0.6241 -1.9388
  149SOL    HW2 2455   9.924   4.946   0.615  1.0356 -0.8918  0.5545
  150SOL     OW 2456   8.747   8.376   6.871  0.6923 -0.0297  0.1144
  150SOL    HW1 2457   8.773   8.288   6.901  0.5522  0.1130  0.6671
  150SOL    HW2 2458   8.825   8.430   6.886 -0.0805  0.5528  2.4148
  151SOL     OW 2459   8.435   0.976   0.149 -0.2904 -0.3119  0.3734
  151SOL    HW1 2460   8.526   0.982   0.122 -0.8667 -0.3664 -1.7151
  151SOL    HW2 2461   8.436   0.916   0.223  1.6476  1.5993  2.0468
  152SOL     OW 2462   7.571   1.751   9.285  0.2215  0.1383 -0.2790
  152SOL    HW1 2463   7.549   1.844   9.297  0.8754  0.3836 -0.9343
  152SOL    HW2 2464   7.666   1.748   9.294  0.0696 -0.7243  1.3050
  153SOL     OW 2465   2.954   4.478   6.512 -0.4339 -0.5710  0.1719
  153SOL    HW1 2466   2.998   4.394   6.498 -1.2029 -0.7703 -1.1998
  153SOL    HW2 2467   3.025   4.540   6.528  0.2444 -1.2144 -0.2952
  154SOL     OW 2468   2.496   6.028   2.177  0.5192  0.2724  0.1742
  154SOL    HW1 2469   2.588   6.015   2.197  0.0923 -0.5022  1.9068
  154SOL    HW2 2470   2.455   5.943   2.198 -0.4753  0.3294 -1.3634
  155SOL     OW 2471   1.132   1.910   9.764 -0.6033 -0.0571  0.3893
  155SOL    HW1 2472   1.074   1.957   9.704 -0.4909  0.0853  0.3930
  155SOL    HW2 2473   1.078   1.838   9.797 -1.0375  0.5333  0.9952
  156SOL     OW 2474   4.488   5.739   4.063  0.5570  0.0211  0.0032
  156SOL    HW1 2475   4.494   5.786   3.980  0.2462 -0.9695 -0.6057
  156SOL    HW2 2476   4.469   5.648   4.037  1.8917 -0.6057  1.0821
  157SOL     OW 2477   1.698   8.340   3.989  0.6122  0.1953  0.4005
  157SOL    HW1 2478   1.636   8.389   3.935  1.3512  0.8598  0.1384
  157SOL    HW2 2479   1.645   8.270   4.029 -0.3074  0.7662  0.2119
  158SOL     OW 2480  10.917   6.362  10.082  0.4789  0.1230  0.3718
  158SOL    HW1 2481  11.009   6.360  10.055  0.0892 -1.4065 -0.9900
  158SOL    HW2 2482  10.891   6.270  10.084 -0.6201  0.4247  2.2535
  159SOL     OW 2483   9.398   4.273  10.912  0.2602  0.9397  0.7422
  159SOL    HW1 2484   9.324   4.319  10.951  0.9791  2.8015  0.0257
  159SOL    HW2 2485   9.453   4.249  10.987 -1.8361 -2.1344  1.4834
  160SOL     OW 2486   0.051   2.379   5.200 -0.4344  0.0608 -0.4442
  160SOL    HW1 2487   0.082   2.289   5.187  2.0561  0.8946 -0.6955
  160SOL    HW2 2488   0.002   2.376   5.282  0.3826 -1.3633  0.0202
  161SOL     OW 2489   6.550   2.069   6.446  0.0682 -0.7494  0.3605
  161SOL    HW1 2490   6.576   2.151   6.405 -1.3729 -1.2090 -1.6318
  161SOL    HW2 2491   6.627   2.013   6.438  0.1477 -0.4934 -0.8758
  162SOL     OW 2492   0.252   7.468   0.177 -0.5630 -0.0198  0.4309
  162SOL    HW1 2493   0.183   7.517   0.133 -0.9376  0.5580  1.6284
  162SOL    HW2 2494   0.333   7.511   0.149 -0.7291 -0.2077 -0.3647
  163SOL     OW 2495   6.540   1.930   3.564 -0.1809  0.0956 -0.0936
  163SOL    HW1 2496   6.561   1.861   3.501 -2.3018 -0.5045 -0.2266
  163SOL    HW2 2497   6.512   1.883   3.643  0.0380  0.8142  0.4237
  164SOL     OW 2498   9.919   1.108   4.228 -0.1898 -0.0616 -0.0631
  164SOL    HW1 2499   9.919   1.089   4.134  2.7889  0.3355 -0.2415
  164SOL    HW2 2500   9.876   1.194   4.235 -1.5058 -0.6281 -0.8796
  165SOL     OW 2501   0.352   1.693   9.434  0.6607 -0.0629 -0.3170
  165SOL    HW1 2502   0.396   1.765   9.480  1.4345 -0.5300 -0.3036
  165SOL    HW2 2503   0.285   1.736   9.382  1.4535  0.7323 -0.7107
  166SOL     OW 2504   8.710   0.934   7.860 -0.7819 -0.1078  0.7162
  166SOL    HW1 2505   8.622   0.969   7.867 -0.7667  0.2786 -0.8602
  166SOL    HW2 2506   8.730   0.935   7.767  1.0950  0.3156  1.0795
  167SOL     OW 2507   1.043   9.613   7.888  0.2692 -0.0300 -0.5524
  167SOL    HW1 2508   1.126   9.591   7.930  1.0736  3.4914  0.0036
  167SOL    HW2 2509   0.976   9.591   7.953  0.9194 -0.9659 -0.1854
  168SOL     OW 2510   6.691   2.225  10.295  0.4409  0.1010 -0.3836
  168SOL    HW1 2511   6.758   2.259  10.354  1.8079 -0.6610 -1.4141
  168SOL    HW2 2512   6.609   2.233  10.343  1.1295  1.9805  0.5448
  169SOL     OW 2513   7.159   7.281  11.173  0.7412  0.0120 -0.2995
  169SOL    HW1 2514   7.185   7.317  11.258  0.4484  0.7099 -0.4972
  169SOL    HW2 2515   7.145   7.358  11.118  0.8003 -0.4321 -0.9456
  170SOL     OW 2516   3.293   2.141   0.860  0.2791 -0.0473  0.6646
  170SOL    HW1 2517   3.348   2.063   0.872 -0.4411 -0.4041  1.8535
  170SOL    HW2 2518   3.353   2.209   0.833  0.8376 -1.1636 -1.0228
  171SOL     OW 2519   3.864   3.046  10.461 -0.0835 -0.2999 -0.0191
  171SOL    HW1 2520   3.836   3.037  10.552 -0.7994 -0.7596 -0.2739
  171SOL    HW2 2521   3.877   3.140  10.448 -2.1040  0.0187 -0.0341
  172SOL     OW 2522   5.327   1.671   6.385 -0.2046  0.5165  0.1789
  172SOL    HW1 2523   5.294   1.757   6.357 -0.8836  0.2244  0.0699
  172SOL    HW2 2524   5.404   1.657   6.330 -1.1200  0.2585 -1.0934
  173SOL     OW 2525   1.349   7.938   0.944 -0.0910  0.4773 -0.0187
  173SOL    HW1 2526   1.279   7.913   1.003 -1.1214 -0.8706 -1.7169
  173SOL    HW2 2527   1.311   7.930   0.856  1.5576  1.7709 -0.9271
  174SOL     OW 2528   3.898  10.033   4.891 -0.0684  0.0028  0.1370
  174SOL    HW1 2529   3.915  10.006   4.982 -1.2961  0.2855  0.4677
  174SOL    HW2 2530   3.804  10.053   4.889  0.2078  1.3076 -0.8668
  175SOL     OW 2531   3.794  10.942   6.270  0.2992 -0.8115  0.0183
  175SOL    HW1 2532   3.824  10.952   6.360 -1.0684  0.3058  0.3902
  175SOL    HW2 2533   3.701  10.924   6.277  0.1809 -0.7736 -1.1726
  176SOL     OW 2534   0.304   7.692   0.674 -0.2969  0.5026  0.2465
  176SOL    HW1 2535   0.273   7.779   0.648 -0.8120  0.4685  0.7304
  176SOL    HW2 2536   0.247   7.631   0.628 -1.3998  0.4431  1.6245
  177SOL     OW 2537   3.978   8.575   3.266  0.2933  0.3170 -0.1124
  177SOL    HW1 2538   3.982   8.669   3.280  2.2813  0.2586 -0.0583
  177SOL    HW2 2539   4.064   8.552   3.231 -0.4132 -1.3701 -0.8469
  178SOL     OW 2540   0.320   0.569   6.403  0.2584 -0.4656  0.3778
  178SOL    HW1 2541   0.270   0.595   6.325  1.2539 -0.8205 -0.3953
  178SOL    HW2 2542   0.311   0.473   6.406  0.4285 -0.4766  0.5599
  179SOL     OW 2543   7.104   4.312   6.980  0.3768 -0.1266 -0.3372
  179SOL    HW1 2544   7.060   4.370   6.918  1.8737 -0.5625 -1.8890
  179SOL    HW2 2545   7.056   4.229   6.974  2.0283 -1.0213 -3.0078
  180SOL     OW 2546   4.102   2.170   6.795  0.4103 -0.3826  0.4299
  180SOL    HW1 2547   4.171   2.146   6.856  1.2889 -0.6917 -0.6442
  180SOL    HW2 2548   4.088   2.091   6.742 -0.7837 -0.3319  0.6322
  181SOL     OW 2549   8.495   3.760   8.931  0.0448  0.1314 -0.0602
  181SOL    HW1 2550   8.472   3.851   8.950 -2.9951 -0.6927  0.7644
  181SOL    HW2 2551   8.574   3.766   8.877 -1.3477  3.3881 -2.0442
  182SOL     OW 2552  11.240   6.891   8.828 -0.3614  0.0599  0.4381
  182SOL    HW1 2553  11.310   6.956   8.817  0.1224 -0.2938  1.3472
  182SOL    HW2 2554  11.171   6.938   8.875  0.0489 -0.1131  1.2269
  183SOL     OW 2555   0.177   9.611   0.415  1.1573  0.6513 -0.0781
  183SOL    HW1 2556   0.179   9.685   0.354 -0.7039  2.0491  1.4360
  183SOL    HW2 2557   0.164   9.535   0.359  1.7025  1.6126 -1.5817
  184SOL     OW 2558   6.810   6.004   1.010  0.0886  0.9825  0.3497
  184SOL    HW1 2559   6.903   6.027   1.009  0.2693  0.2646 -0.2272
  184SOL    HW2 2560   6.803   5.930   0.949 -0.8518  0.9997  0.4263
  185SOL     OW 2561   0.366   3.194   6.624  0.5333  0.4465 -0.5406
  185SOL    HW1 2562   0.360   3.198   6.529  0.5997  0.3657 -0.5480
  185SOL    HW2 2563   0.385   3.102   6.644  0.4391  0.4461 -0.4449
  186SOL     OW 2564   2.867   8.984   7.255 -0.1271 -0.1059  0.6038
  186SOL    HW1 2565   2.832   9.053   7.198  0.7780  0.9430  1.2848
  186SOL    HW2 2566   2.962   8.991   7.247 -0.0117 -1.8557  0.0348
  187SOL     OW 2567   7.515   0.010   8.552  0.0367 -0.4919 -0.2270
  187SOL    HW1 2568   7.504   0.094   8.507 -1.5914 -0.4627  0.1892
  187SOL    HW2 2569   7.609  -0.008   8.543  0.3531  1.1341 -0.7275
  188SOL     OW 2570   8.335   0.972   1.688  0.5605 -0.0599 -0.4895
  188SOL    HW1 2571   8.250   0.997   1.725  0.1084  1.3325 -2.2846
  188SOL    HW2 2572   8.325   0.880   1.664 -0.6031  0.1854 -1.0290
  189SOL     OW 2573   7.030  10.024   0.737 -0.3187 -0.3816  0.1874
  189SOL    HW1 2574   7.020   9.931   0.720 -1.1991 -0.1851 -0.4483
  189SOL    HW2 2575   7.046  10.063   0.650  1.8230 -0.1322  0.6327
  190SOL     OW 2576   1.511   5.261   5.198  0.0366 -0.3420 -0.4179
  190SOL    HW1 2577   1.446   5.327   5.223  0.5524  0.0836 -0.1640
  190SOL    HW2 2578   1.468   5.209   5.131 -0.8361 -0.5403  0.2776
  191SOL     OW 2579   0.516   7.403   1.100  0.4494  0.0416 -0.1207
  191SOL    HW1 2580   0.483   7.462   1.168 -2.0223 -1.4195  0.0651
  191SOL    HW2 2581   0.482   7.439   1.018  0.3403 -0.2203 -0.1905
  192SOL     OW 2582  10.987   8.028   9.638 -0.3439  0.3808 -0.3229
  192SOL    HW1 2583  11.066   8.059   9.592 -0.0778  0.5725  0.2610
  192SOL    HW2 2584  11.004   8.046   9.730 -1.4148  1.1777 -0.2638
  193SOL     OW 2585   6.372   0.492   5.100  0.1134 -0.9010  0.2742
  193SOL    HW1 2586   6.357   0.424   5.034  0.1489  0.0860 -0.7641
  193SOL    HW2 2587   6.433   0.553   5.059 -0.5580  0.2005  0.8692
  194SOL     OW 2588   7.237   4.285   5.444  0.8513 -0.9390  0.2931
  194SOL    HW1 2589   7.252   4.243   5.359  2.4463 -1.2467  0.6965
  194SOL    HW2 2590   7.237   4.379   5.425 -2.8827 -0.9770 -0.6428
  195SOL     OW 2591   4.063   5.135  10.537  0.1168 -0.0476 -0.0844
  195SOL    HW1 2592   4.153   5.122  10.569 -0.1740 -0.6063  0.5152
  195SOL    HW2 2593   4.070   5.123  10.442  0.6599 -0.1527 -0.0365
  196SOL     OW 2594   4.500   1.814   2.283  0.1922 -0.2029  0.3136
  196SOL    HW1 2595   4.577   1.867   2.304  0.3002 -0.0855 -0.3705
  196SOL    HW2 2596   4.533   1.724   2.277  0.4965 -0.0148 -1.0874
  197SOL     OW 2597  10.111   2.801  10.022  0.3325  0.5935  0.1102
  197SOL    HW1 2598  10.110   2.873  10.086 -0.5665  1.8767 -1.2888
  197SOL    HW2 2599  10.116   2.845   9.937 -1.0121 -0.9665 -0.8213
  198SOL     OW 2600   9.837   5.206   9.778 -0.1885 -0.4550  0.6293
  198SOL    HW1 2601   9.892   5.146   9.828  2.0443  1.1859  0.3368
  198SOL    HW2 2602   9.893   5.283   9.765 -2.2088  0.8721 -0.7065
  199SOL     OW 2603   5.306   4.777   4.004  0.7246 -0.1140 -0.0157
  199SOL    HW1 2604   5.269   4.803   3.920  1.2534  1.7681  0.2980
  199SOL    HW2 2605   5.230   4.766   4.061  0.3920 -0.9945 -0.6040
  200SOL     OW 2606   8.747   7.897   9.311 -0.2733 -0.1534 -0.0123
  200SOL    HW1 2607   8.685   7.887   9.383  1.9585 -1.7216  1.8187
  200SOL    HW2 2608   8.767   7.808   9.284  1.2359  0.2924 -0.4880
  201SOL     OW 2609   8.880  10.137   3.110 -0.0172  0.6807  0.0806
  201SOL    HW1 2610   8.826  10.206   3.073  2.0571  1.5895 -1.4596
  201SOL    HW2 2611   8.849  10.127   3.200 -2.1281  1.7114 -0.4744
  202SOL     OW 2612   6.130   1.954   7.514 -0.5339 -0.4326  0.1478
  202SOL    HW1 2613   6.121   2.041   7.554 -0.6492  0.3364 -1.4607
  202SOL    HW2 2614   6.163   1.898   7.585  0.4502  1.1272  0.9797
  203SOL     OW 2615   5.282   5.300   9.234 -0.6081  0.1362  0.3304
  203SOL    HW1 2616   5.217   5.248   9.281  0.3639 -0.3349  1.2007
  203SOL    HW2 2617   5.351   5.317   9.298  0.7786 -0.5321 -0.9072
  204SOL     OW 2618   1.512   8.651   2.875  0.6655  0.1678 -1.1545
  204SOL    HW1 2619   1.591   8.606   2.845  0.7301  0.4619 -1.4282
  204SOL    HW2 2620   1.473   8.686   2.795 -0.1766 -0.6605 -1.1297
  205SOL     OW 2621   1.314   9.578  10.434  0.0654  0.5029 -0.1230
  205SOL    HW1 2622   1.278   9.490  10.442 -2.1054  1.2286 -1.1983
  205SOL    HW2 2623   1.309   9.614  10.523  0.3346 -0.2006  0.1876
  206SOL     OW 2624   4.790   7.364  10.872  0.0667  0.2742 -0.3440
  206SOL    HW1 2625   4.790   7.372  10.968  0.4055  0.1635 -0.3336
  206SOL    HW2 2626   4.799   7.453  10.841 -0.6355  0.3685 -0.2780
  207SOL     OW 2627   1.406   3.270   5.864 -0.3111  0.0620  0.5824
  207SOL    HW1 2628   1.404   3.318   5.947  0.1655 -1.6543  1.6515
  207SOL    HW2 2629   1.318   3.279   5.829 -0.6599  0.4302  1.5189
  208SOL     OW 2630   5.259  10.960   3.580  0.1575 -0.1344 -0.8994
  208SOL    HW1 2631   5.222  10.968   3.668  0.4330 -1.9423 -0.5866
  208SOL    HW2 2632   5.332  11.021   3.579 -0.9608  1.2782 -0.5218
  209SOL     OW 2633   6.094   5.150   6.136  0.1127 -0.1349  0.6562
  209SOL    HW1 2634   6.181   5.137   6.172  0.0303  0.3860  1.0462
  209SOL    HW2 2635   6.070   5.064   6.101  2.0312  0.3696 -2.2553
  210SOL     OW 2636   4.472   1.493  10.788  0.3691  0.3078 -0.0679
  210SOL    HW1 2637   4.380   1.510  10.771  0.5085  0.1989 -0.9513
  210SOL    HW2 2638   4.488   1.533  10.874  0.0612  2.3041 -0.8972
  211SOL     OW 2639   4.128   7.564   6.066 -0.3199  0.0156  0.3235
  211SOL    HW1 2640   4.170   7.543   6.149  0.4210  0.5263  0.0855
  211SOL    HW2 2641   4.106   7.656   6.072 -1.2746 -0.2060  0.3771
  212SOL     OW 2642  11.095   5.736   6.494  0.7601  0.5428  0.3324
  212SOL    HW1 2643  11.138   5.652   6.509 -0.7581 -0.2584  0.4990
  212SOL    HW2 2644  11.021   5.735   6.555  1.0429  2.2703  0.7541
  213SOL     OW 2645   2.921   8.145  10.871 -0.4757 -0.8112  0.4116
  213SOL    HW1 2646   2.959   8.217  10.921 -1.6669 -0.3867  0.7485
  213SOL    HW2 2647   2.911   8.074  10.934  1.7020 -1.6986 -0.1623
  214SOL     OW 2648   4.920   8.663   6.570 -0.3026 -0.0293 -0.6678
  214SOL    HW1 2649   4.934   8.757   6.577 -0.7207  0.0153 -0.3354
  214SOL    HW2 2650   4.892   8.636   6.658  0.1306 -0.5200 -0.6728
  215SOL     OW 2651   1.002  11.073   9.177 -0.4627  0.0011 -0.2526
  215SOL    HW1 2652   1.082  11.025   9.156 -1.5644 -0.4786 -4.2242
  215SOL    HW2 2653   1.026  11.165   9.167 -0.1334 -0.0807 -0.2309
  216SOL     OW 2654   2.797   2.527   3.267  0.3857 -0.8649  0.2062
  216SOL    HW1 2655   2.779   2.561   3.354  0.3195  0.0832 -0.1592
  216SOL    HW2 2656   2.892   2.530   3.259  0.3323  0.2734 -0.2059
  217SOL     OW 2657   5.210   2.953   6.447 -0.2091 -0.1363  0.2898
  217SOL    HW1 2658   5.120   2.984   6.438 -0.2075 -0.1658  0.1615
  217SOL    HW2 2659   5.209   2.899   6.526 -0.2918 -0.0909  0.3195
  218SOL     OW 2660  11.249   3.449   0.938  0.5252  0.2968 -0.1871
  218SOL    HW1 2661  11.230   3.357   0.957  0.8233  0.0814 -0.8897
  218SOL    HW2 2662  11.221   3.496   1.016  0.4666 -0.4044  0.2220
  219SOL     OW 2663   2.981   3.906   9.378  1.3154 -0.2168 -0.2247
  219SOL    HW1 2664   3.061   3.917   9.328  1.7634  0.9518  0.6824
  219SOL    HW2 2665   2.972   3.811   9.390  2.0517 -0.4101 -1.1187
  220SOL     OW 2666   2.319   2.190  10.609  0.6500 -0.2715 -1.0427
  220SOL    HW1 2667   2.381   2.118  10.595  1.1282  0.1385 -1.0519
  220SOL    HW2 2668   2.346   2.257  10.547  1.1195  0.5034 -0.0187
  221SOL     OW 2669   2.304   8.069   1.506 -0.6192  0.3083 -0.3464
  221SOL    HW1 2670   2.279   8.009   1.577 -1.1362 -0.1822 -0.9403
  221SOL    HW2 2671   2.399   8.058   1.498 -0.3946  1.0747  0.9012
  222SOL     OW 2672   8.584   5.200   5.505 -0.0595  0.1640 -0.1586
  222SOL    HW1 2673   8.549   5.118   5.469 -0.8079  1.3425 -2.2935
  222SOL    HW2 2674   8.678   5.183   5.516  0.0290 -0.5929 -1.7977
  223SOL     OW 2675   9.463   2.686   2.497  0.7467  0.6890  0.0607
  223SOL    HW1 2676   9.413   2.759   2.461  1.0749  0.4064 -1.0106
  223SOL    HW2 2677   9.422   2.608   2.459  1.6005  0.4273 -0.3510
  224SOL     OW 2678   2.055   4.324   0.294  0.5494  0.0104 -0.6914
  224SOL    HW1 2679   2.094   4.325   0.206 -0.0331  2.0009 -0.9742
  224SOL    HW2 2680   1.966   4.292   0.280  0.6085 -0.1320 -0.7454
  225SOL     OW 2681   1.623   6.036   3.316  0.8601 -0.3669 -0.2007
  225SOL    HW1 2682   1.650   6.044   3.408  0.6009 -0.2679 -0.1323
  225SOL    HW2 2683   1.701   6.059   3.266  1.0463 -0.5626 -0.0045
  226SOL     OW 2684   1.290  11.241   2.848 -0.2945  0.2909  0.5964
  226SOL    HW1 2685   1.248  11.156   2.857  0.9208 -0.2217  1.8773
  226SOL    HW2 2686   1.326  11.259   2.935  0.9051  1.3374 -0.0849
  227SOL     OW 2687   9.187   0.474   3.655 -0.0910  0.4075  0.6217
  227SOL    HW1 2688   9.257   0.464   3.591 -0.2986  0.7186  0.3382
  227SOL    HW2 2689   9.111   0.501   3.603  0.1351  2.2462  1.1601
  228SOL     OW 2690   4.775   6.141   4.561 -0.2542  0.2666 -0.5212
  228SOL    HW1 2691   4.729   6.134   4.478  1.6045 -1.4321 -1.4865
  228SOL    HW2 2692   4.857   6.185   4.540 -0.1630  0.6667  0.5965
  229SOL     OW 2693   5.643   3.241   9.037  0.0138  0.7959 -0.3464
  229SOL    HW1 2694   5.700   3.210   9.107 -1.2291  1.4263  0.9970
  229SOL    HW2 2695   5.556   3.241   9.075 -0.6810  1.3424 -1.8510
  230SOL     OW 2696   4.940   8.888   0.018  0.2083 -0.1655  0.1838
  230SOL    HW1 2697   4.868   8.921  -0.035  0.7733  0.7314 -0.0534
  230SOL    HW2 2698   5.019   8.921  -0.025  0.7507 -0.8817  0.6049
  231SOL     OW 2699   2.195   1.177   0.403 -0.8351 -0.0166  0.0031
  231SOL    HW1 2700   2.240   1.228   0.471 -0.7760  0.2758 -0.2528
  231SOL    HW2 2701   2.151   1.244   0.349 -0.5064 -0.2209 -0.5178
  232SOL     OW 2702   6.482  10.068  10.191  0.0704 -0.5044  0.8762
  232SOL    HW1 2703   6.404  10.118  10.215 -0.5035  1.1087 -3.4313
  232SOL    HW2 2704   6.450   9.980  10.173 -0.2123 -0.5927  1.7645
  233SOL     OW 2705   2.089   3.560   0.269  0.4694 -0.4477 -0.3975
  233SOL    HW1 2706   2.107   3.470   0.296 -0.7063 -0.5258  0.1954
  233SOL    HW2 2707   2.143   3.614   0.327 -0.8313 -0.6818  1.1019
  234SOL     OW 2708   7.011   2.388   9.173  0.2123  0.5271 -0.6127
  234SOL    HW1 2709   6.962   2.422   9.097  0.3173 -0.6770 -1.2408
  234SOL    HW2 2710   7.089   2.349   9.134  0.2649 -0.1036  0.1246
  235SOL     OW 2711   8.143   9.227   0.481 -0.3197  0.1013  1.1034
  235SOL    HW1 2712   8.056   9.199   0.453  0.1540 -0.8403  0.5306
  235SOL    HW2 2713   8.129   9.313   0.521 -1.5927 -0.2869  1.5358
  236SOL     OW 2714  11.227   2.767   4.306 -0.0722 -0.3697  0.5256
  236SOL    HW1 2715  11.271   2.801   4.384 -0.6281 -1.2288  1.2296
  236SOL    HW2 2716  11.160   2.708   4.340  2.0878 -3.7608 -0.6492
  237SOL     OW 2717   4.367   1.806   1.729 -0.3520  0.0438  0.3990
  237SOL    HW1 2718   4.443   1.751   1.707  0.5823  1.7639 -0.9841
  237SOL    HW2 2719   4.394   1.895   1.703 -2.2017  0.9896  1.5282
  238SOL     OW 2720   2.893   4.350   0.358  0.4791 -0.4670 -0.2774
  238SOL    HW1 2721   2.984   4.379   0.359  0.4791 -0.4673 -0.2552
  238SOL    HW2 2722   2.897   4.255   0.346  0.4830 -0.4715 -0.2419
  239SOL     OW 2723  10.320   6.797   8.682  0.4329  0.0899 -0.2889
  239SOL    HW1 2724  10.273   6.865   8.731  1.1646  0.6537 -0.3566
  239SOL    HW2 2725  10.280   6.715   8.711  0.1205  0.4867  0.4402
  240SOL     OW 2726   5.576   2.664   6.318 -0.5841  0.5976 -0.2416
  240SOL    HW1 2727   5.500   2.681   6.262  0.7033  0.8616 -1.9721
  240SOL    HW2 2728   5.646   2.716   6.280  0.1433  1.5665  2.2266
  241SOL     OW 2729   1.210   1.475   8.664 -0.2418  0.3001 -0.1688
  241SOL    HW1 2730   1.259   1.557   8.665 -0.1295  0.2916 -1.7674
  241SOL    HW2 2731   1.118   1.502   8.662 -0.2059  0.4035 -0.6548
  242SOL     OW 2732   3.585   1.439   0.847 -0.3788 -0.3409 -0.6633
  242SOL    HW1 2733   3.526   1.373   0.884 -0.6896  0.5537  0.5098
  242SOL    HW2 2734   3.564   1.519   0.894  0.8241  0.3266 -1.2007
  243SOL     OW 2735   2.267   9.146   4.401 -0.0366  0.3816 -0.1943
  243SOL    HW1 2736   2.284   9.196   4.322  1.4679 -0.0433 -0.1698
  243SOL    HW2 2737   2.353   9.112   4.427 -0.8746 -1.5010  0.2598
  244SOL     OW 2738   1.329   9.480   3.126 -0.3931  0.1387  0.3854
  244SOL    HW1 2739   1.318   9.566   3.168 -1.8016 -0.4054  1.1964
  244SOL    HW2 2740   1.286   9.490   3.041  0.1664  0.4653  0.1328
  245SOL     OW 2741  10.889   1.517   1.353  0.2924  0.0075 -0.5315
  245SOL    HW1 2742  10.958   1.513   1.287  0.8371  2.6359 -0.2508
  245SOL    HW2 2743  10.908   1.598   1.402 -0.7288 -1.2304  2.1151
  246SOL     OW 2744   0.548   6.132   9.794 -0.0248 -0.1483  0.1806
  246SOL    HW1 2745   0.542   6.228   9.791  2.4300  0.2472  3.0649
  246SOL    HW2 2746   0.470   6.105   9.843  0.4307  0.6784  1.4342
  247SOL     OW 2747   6.381   4.439   3.137  0.1273 -0.0592 -0.2564
  247SOL    HW1 2748   6.421   4.404   3.217 -0.8484 -1.7454 -0.4549
  247SOL    HW2 2749   6.434   4.516   3.115  1.4762 -0.5735  1.0329
  248SOL     OW 2750  10.427   2.275  10.592  0.0691  0.0833  0.0519
  248SOL    HW1 2751  10.518   2.306  10.590  0.9790 -2.1420  1.7736
  248SOL    HW2 2752  10.418   2.236  10.679 -2.8464  0.9764  0.2425
  249SOL     OW 2753   5.305   1.794   0.007  0.3034 -0.3042 -0.5940
  249SOL    HW1 2754   5.389   1.839   0.013  0.1786 -0.0423 -0.7602
  249SOL    HW2 2755   5.323   1.713  -0.040  0.1932  0.4658 -2.0217
  250SOL     OW 2756   9.076  10.994   9.636 -0.7134 -0.1430 -0.3289
  250SOL    HW1 2757   9.154  10.993   9.692  0.7028 -2.7350 -2.1359
  250SOL    HW2 2758   9.005  10.964   9.693 -0.5001  2.2792  1.3509
  251SOL     OW 2759   8.168   7.015   1.300 -0.4812  1.0027 -0.3191
  251SOL    HW1 2760   8.086   7.053   1.268 -0.3805  2.2986  0.8780
  251SOL    HW2 2761   8.236   7.061   1.250 -0.4231  0.9749 -0.2655
  252SOL     OW 2762   8.976   5.164   2.265  0.1480  0.0377 -0.1355
  252SOL    HW1 2763   9.005   5.247   2.304 -2.0713  0.3600  1.0131
  252SOL    HW2 2764   8.911   5.130   2.327 -0.4293 -1.5818 -1.5511
  253SOL     OW 2765   6.670   2.863   7.376 -0.1120 -0.6498  0.0343
  253SOL    HW1 2766   6.602   2.865   7.310  1.1837  1.1740 -1.3432
  253SOL    HW2 2767   6.718   2.945   7.364 -2.9700  2.7550  6.7001
  254SOL     OW 2768   7.037   0.241  10.362 -1.0145 -0.5944  0.5672
  254SOL    HW1 2769   7.119   0.267  10.319  0.1723 -3.6413  0.7998
  254SOL    HW2 2770   6.997   0.325  10.387  0.7739  1.1099 -1.7342
  255SOL     OW 2771   8.139   7.755   2.833 -0.2192  0.2339  0.0985
  255SOL    HW1 2772   8.085   7.819   2.787 -2.1786 -1.3226  0.0890
  255SOL    HW2 2773   8.156   7.795   2.919 -0.5137  1.1868 -0.2690
  256SOL     OW 2774   0.941   8.294  10.837 -0.0034 -0.3403 -0.2462
  256SOL    HW1 2775   0.952   8.261  10.747 -3.8855 -1.7636 -0.4138
  256SOL    HW2 2776   0.870   8.358  10.830 -2.0854 -2.2090  2.0174
  257SOL     OW 2777   9.279  10.544   9.061 -0.7222  0.3462 -0.4735
  257SOL    HW1 2778   9.208  10.481   9.070 -0.5165 -0.3100 -2.7471
  257SOL    HW2 2779   9.328  10.537   9.143 -0.2060 -3.0975 -0.9255
  258SOL     OW 2780   4.884   2.750   4.102  0.7726  0.3563  0.0282
  258SOL    HW1 2781   4.793   2.769   4.126  0.7984  1.1831 -0.4891
  258SOL    HW2 2782   4.877   2.684   4.032  0.5588  0.5875 -0.1698
  259SOL     OW 2783   5.274   9.507   0.917 -0.2094 -0.2457  0.5502
  259SOL    HW1 2784   5.215   9.465   0.979 -1.5895 -0.8735 -1.0927
  259SOL    HW2 2785   5.218   9.568   0.869  1.1229  1.2601  0.8310
  260SOL     OW 2786   7.763   0.728   1.805 -0.0543  0.6929  0.2291
  260SOL    HW1 2787   7.707   0.655   1.780 -0.2566  0.6135  0.9099
  260SOL    HW2 2788   7.711   0.779   1.867  0.3746  0.9916  0.3523
  261SOL     OW 2789  10.783   1.795   8.378 -0.1666  0.1459 -0.0334
  261SOL    HW1 2790  10.705   1.849   8.360  0.2074  0.8998  0.5732
  261SOL    HW2 2791  10.832   1.845   8.443 -0.1498 -1.2570  1.0741
  262SOL     OW 2792   4.373  10.440   9.703  0.1645  0.0973 -0.4640
  262SOL    HW1 2793   4.281  10.437   9.729  0.6019 -0.8806  1.1525
  262SOL    HW2 2794   4.375  10.395   9.618 -0.6322 -1.4991  0.3081
  263SOL     OW 2795   6.127  10.734   1.951  0.1911  0.7419 -0.3549
  263SOL    HW1 2796   6.031  10.735   1.954  0.2073  0.2909  0.4926
  263SOL    HW2 2797   6.154  10.767   2.037  0.8010  1.2535 -0.7344
  264SOL     OW 2798   2.615   6.727   5.010  0.4362 -0.2617  0.1316
  264SOL    HW1 2799   2.568   6.674   4.945 -1.0950  0.4558  0.5925
  264SOL    HW2 2800   2.697   6.751   4.967 -0.5061  0.1489 -1.5395
  265SOL     OW 2801   9.954  11.192   9.627  0.9351  0.2472  0.5155
  265SOL    HW1 2802   9.925  11.128   9.692 -1.1228  0.5068 -0.0867
  265SOL    HW2 2803   9.965  11.140   9.547 -3.2755  0.8595 -0.6860
  266SOL     OW 2804   2.188   7.455   7.615 -0.2661 -0.3845  0.3449
  266SOL    HW1 2805   2.239   7.429   7.691 -0.0800 -0.5741  0.1571
  266SOL    HW2 2806   2.097   7.437   7.640 -0.3207  0.7482  0.9948
  267SOL     OW 2807   6.401   9.980   6.778  0.3533 -0.1944  0.1033
  267SOL    HW1 2808   6.311  10.012   6.772  0.0802 -1.1232 -0.9697
  267SOL    HW2 2809   6.394   9.899   6.828  0.6982  0.0756  0.5996
  268SOL     OW 2810   1.804   4.707   5.112  0.1255 -0.0169 -0.2771
  268SOL    HW1 2811   1.864   4.730   5.183  0.4510 -1.5455 -0.0319
  268SOL    HW2 2812   1.767   4.791   5.084  0.6056  0.6978  1.1452
  269SOL     OW 2813   2.669   8.531   5.024 -0.0682 -0.0443  0.5072
  269SOL    HW1 2814   2.740   8.530   5.088 -0.3632 -0.2825  0.8303
  269SOL    HW2 2815   2.589   8.541   5.076 -0.2070  1.2179  0.0919
  270SOL     OW 2816  10.358   6.166   4.304 -0.2925  0.6237 -0.0011
  270SOL    HW1 2817  10.369   6.259   4.285 -1.3070  0.9931  1.0639
  270SOL    HW2 2818  10.421   6.148   4.374 -0.5801  0.6935  0.2799
  271SOL     OW 2819  10.608   2.499   1.731  0.1938 -0.0264  0.0607
  271SOL    HW1 2820  10.644   2.460   1.651 -0.3465  0.9185 -0.6644
  271SOL    HW2 2821  10.578   2.424   1.783  3.0590 -0.8642  0.6678
  272SOL     OW 2822   3.178   8.972   2.871 -0.4793 -0.0256  0.1930
  272SOL    HW1 2823   3.135   9.033   2.811  0.4043  0.4577  0.0253
  272SOL    HW2 2824   3.267   9.006   2.879 -0.7484  0.3020  2.3182
  273SOL     OW 2825   0.230   1.631  11.283  0.2681  0.1647  0.5718
  273SOL    HW1 2826   0.227   1.539  11.311 -0.3854  0.3887  1.2477
  273SOL    HW2 2827   0.203   1.681  11.360  1.9457  1.0319  0.6430
  274SOL     OW 2828   8.226   4.325  10.483 -0.3311  0.4781 -0.0185
  274SOL    HW1 2829   8.184   4.345  10.399  0.2159  2.4089  0.1235
  274SOL    HW2 2830   8.320   4.329  10.464 -0.2008  0.2306  0.5462
  275SOL     OW 2831   8.123   0.088   1.936 -0.0997 -0.3573 -0.1400
  275SOL    HW1 2832   8.087   0.110   2.022  1.8386  0.6582  0.4893
  275SOL    HW2 2833   8.068   0.136   1.874 -0.7454 -0.0672  0.6330
  276SOL     OW 2834  11.040   2.149   0.541  0.0495 -0.0942 -0.5624
  276SOL    HW1 2835  10.992   2.229   0.564 -2.6059 -1.1514 -1.8922
  276SOL    HW2 2836  11.059   2.159   0.448 -0.4622 -1.0303 -0.7840
  277SOL     OW 2837   1.576   7.269   7.640  0.2562 -0.4714  0.2045
  277SOL    HW1 2838   1.514   7.341   7.632 -0.1257 -0.5895  1.8206
  277SOL    HW2 2839   1.584   7.254   7.734  0.8237 -2.1136 -0.0687
  278SOL     OW 2840   5.862   4.766   0.978  0.1093  0.4756 -0.4857
  278SOL    HW1 2841   5.869   4.707   0.903 -1.6297  0.6294 -0.8220
  278SOL    HW2 2842   5.877   4.710   1.054 -2.3651 -0.6997 -0.7330
  279SOL     OW 2843   5.404   0.677   7.595 -0.5004 -0.6297  0.2159
  279SOL    HW1 2844   5.416   0.772   7.598 -1.1407 -0.5589  0.9180
  279SOL    HW2 2845   5.310   0.666   7.576 -0.9151 -1.0979  2.3325
  280SOL     OW 2846   7.660   3.140   1.317 -0.4947  0.0832 -0.3272
  280SOL    HW1 2847   7.569   3.137   1.289 -0.7436  1.4059  0.2492
  280SOL    HW2 2848   7.655   3.135   1.413 -0.1855  2.7331 -0.1081
  281SOL     OW 2849   5.605  10.048   0.476 -0.3611  0.2570  0.1112
  281SOL    HW1 2850   5.541  10.025   0.409 -2.8917  1.7747  1.8232
  281SOL    HW2 2851   5.645  10.129   0.444  0.9344 -0.7983 -1.0559
  282SOL     OW 2852   0.863   5.625   0.284  0.2258 -0.1852  0.0845
  282SOL    HW1 2853   0.865   5.716   0.314 -0.6245 -0.2042  0.2118
  282SOL    HW2 2854   0.860   5.631   0.188  0.7567 -0.0964  0.0682
  283SOL     OW 2855   6.520  10.195   7.988 -0.5956 -0.0056 -0.0110
  283SOL    HW1 2856   6.530  10.119   7.931  0.1440 -2.0152  2.6315
  283SOL    HW2 2857   6.457  10.250   7.941 -0.3039 -1.6427 -2.5775
  284SOL     OW 2858   7.557   9.978   9.306 -0.6688 -0.3866  0.2408
  284SOL    HW1 2859   7.535  10.067   9.334 -2.9355 -0.7307 -0.3090
  284SOL    HW2 2860   7.575   9.987   9.212  0.5140 -0.3227  0.4474
  285SOL     OW 2861   7.165   0.833   2.697 -0.9078  0.1300 -0.5149
  285SOL    HW1 2862   7.241   0.815   2.641  0.0708  0.1822  0.7325
  285SOL    HW2 2863   7.203   0.874   2.775 -2.1389 -0.4903  0.4421
  286SOL     OW 2864   1.499  10.706   9.449 -0.3416  0.1426 -0.2047
  286SOL    HW1 2865   1.561  10.728   9.380 -1.8374  1.0389 -1.3331
  286SOL    HW2 2866   1.540  10.738   9.530  0.9248  0.1130 -0.8090
  287SOL     OW 2867   2.281  10.430   6.990  0.3069 -0.6065 -0.6879
  287SOL    HW1 2868   2.361  10.431   7.043 -0.4019  3.5565  0.6782
  287SOL    HW2 2869   2.233  10.354   7.022  1.7299 -0.5828  1.8172
  288SOL     OW 2870   9.512   0.646   4.871 -0.0423 -0.3559  0.6521
  288SOL    HW1 2871   9.599   0.683   4.882  0.0765 -0.9128  1.6045
  288SOL    HW2 2872   9.470   0.656   4.956 -2.3255  3.3764 -0.6553
  289SOL     OW 2873   8.798   4.820   5.100  0.1180  0.2517 -0.3244
  289SOL    HW1 2874   8.790   4.724   5.100 -2.4678  0.3931 -0.6792
  289SOL    HW2 2875   8.787   4.846   5.009 -1.7605  0.9782  0.0610
  290SOL     OW 2876   9.485   5.342  11.243  0.3418 -0.4477  0.5934
  290SOL    HW1 2877   9.486   5.296  11.160 -0.7804  0.3149  0.1342
  290SOL    HW2 2878   9.412   5.303  11.291  1.9347 -1.9984  1.9196
  291SOL     OW 2879   0.294   3.106   3.316 -0.4495  0.4663  0.1110
  291SOL    HW1 2880   0.342   3.024   3.326 -0.6392  0.3440  0.0338
  291SOL    HW2 2881   0.311   3.154   3.397  0.0101  0.5367 -0.0234
  292SOL     OW 2882   8.594   2.309   6.756  0.0337 -0.2552  0.2774
  292SOL    HW1 2883   8.689   2.296   6.755  0.2491  0.7457  2.2363
  292SOL    HW2 2884   8.579   2.371   6.828 -2.2646 -1.5971  1.0686
  293SOL     OW 2885   0.483   9.633   4.170 -0.3152  1.1728 -0.5720
  293SOL    HW1 2886   0.548   9.616   4.102  1.8010 -2.3650  1.9969
  293SOL    HW2 2887   0.410   9.575   4.148 -0.4158  1.3650 -0.7508
  294SOL     OW 2888   1.686   1.248  10.256 -0.5711  0.3036 -0.0861
  294SOL    HW1 2889   1.663   1.313  10.189 -1.6809  0.6353  0.5951
  294SOL    HW2 2890   1.696   1.299  10.337  1.6620  0.0371 -0.1169
  295SOL     OW 2891   9.503   8.453   9.720 -0.6412 -0.0092  0.5726
  295SOL    HW1 2892   9.448   8.489   9.651 -0.4948  0.6455  0.7944
  295SOL    HW2 2893   9.567   8.522   9.739  0.9914 -1.1779 -0.4620
  296SOL     OW 2894  10.695   3.331   4.153  0.4682 -0.5362  0.8596
  296SOL    HW1 2895  10.622   3.392   4.159  0.0374 -0.7860 -1.2546
  296SOL    HW2 2896  10.722   3.334   4.061  2.7769 -0.8610  1.4515
  297SOL     OW 2897   1.036   3.681   8.792  0.4088  0.4206  0.4972
  297SOL    HW1 2898   1.044   3.763   8.743  2.9606 -1.0166 -1.8001
  297SOL    HW2 2899   1.009   3.617   8.726  0.1345 -0.9155  1.8663
  298SOL     OW 2900   4.939   3.030   6.702 -0.0231 -0.0652  0.0653
  298SOL    HW1 2901   4.850   3.063   6.707  0.1729  0.3366  1.1384
  298SOL    HW2 2902   4.935   2.943   6.743 -0.2705 -0.8594 -1.5527
  299SOL     OW 2903  10.479  11.178   4.891 -0.1436 -0.2924  0.2188
  299SOL    HW1 2904  10.459  11.221   4.974  0.3255  1.2102 -0.4123
  299SOL    HW2 2905  10.551  11.119   4.912  2.3202  2.4929  0.3308
  300SOL     OW 2906   1.542   4.672   8.163 -0.1595 -0.0813  0.2419
  300SOL    HW1 2907   1.581   4.718   8.089 -0.7672  1.7871  1.0467
  300SOL    HW2 2908   1.528   4.583   8.130  1.2150  0.2175 -1.2904
  301SOL     OW 2909   2.727  11.006   9.791  0.0765 -0.5838 -0.3579
  301SOL    HW1 2910   2.720  11.099   9.813 -3.7896 -0.6304 -0.6227
  301SOL    HW2 2911   2.782  11.003   9.714  0.6597  1.4353 -0.0780
  302SOL     OW 2912   9.964   2.953   4.668 -0.0818  0.6011 -0.0678
  302SOL    HW1 2913   9.991   3.044   4.669  0.0354  0.5667  0.5986
  302SOL    HW2 2914   9.869   2.956   4.652 -0.7582  1.0657  3.2639
  303SOL     OW 2915  11.039   0.794   1.284  0.6652  1.2199 -0.4320
  303SOL    HW1 2916  11.005   0.706   1.300 -2.1518  1.9799 -1.6385
  303SOL    HW2 2917  11.086   0.787   1.201  1.0043  0.7333 -0.2019
  304SOL     OW 2918   4.860   4.040   6.768  0.2384  0.0981 -0.6768
  304SOL    HW1 2919   4.825   4.125   6.795  0.1763 -0.9774  3.1638
  304SOL    HW2 2920   4.818   4.023   6.684  0.0420  3.6605 -1.4895
  305SOL     OW 2921   0.951  10.165   8.338  0.7921  0.2380 -0.2506
  305SOL    HW1 2922   0.873  10.189   8.388  1.8802  1.2712  1.0180
  305SOL    HW2 2923   0.928  10.083   8.295 -1.3080  0.9785 -0.6559
  306SOL     OW 2924   9.404   3.880   2.683 -0.2698  0.1042 -0.0511
  306SOL    HW1 2925   9.381   3.789   2.665 -0.5356 -0.3146  2.1112
  306SOL    HW2 2926   9.494   3.877   2.715 -0.0182  0.7073 -0.6772
  307SOL     OW 2927   9.490   5.259   2.276  0.2236  0.5555  0.5020
  307SOL    HW1 2928   9.442   5.190   2.231  1.7608 -0.5545  0.5015
  307SOL    HW2 2929   9.497   5.329   2.211  0.6452 -0.2122 -0.2976
  308SOL     OW 2930   3.014   0.940   0.712  0.5252 -0.6522 -0.0089
  308SOL    HW1 2931   2.969   0.869   0.758 -1.0290 -0.4089 -1.0700
  308SOL    HW2 2932   3.068   0.982   0.779  1.4728 -2.7971  0.6329
  309SOL     OW 2933   1.761  10.353   3.120 -0.0754  0.3463 -0.1926
  309SOL    HW1 2934   1.750  10.390   3.032  2.7229  2.1355  0.0831
  309SOL    HW2 2935   1.846  10.385   3.149  0.1126 -2.0567  2.3161
  310SOL     OW 2936   1.388   5.211   1.282  0.6952  0.0694 -0.4309
  310SOL    HW1 2937   1.323   5.191   1.350  0.8892  1.0155  0.0620
  310SOL    HW2 2938   1.338   5.214   1.201  0.0396  1.1002 -0.0167
  311SOL     OW 2939   6.133   3.419   1.186  0.5467  0.0937  0.3183
  311SOL    HW1 2940   6.203   3.410   1.121 -1.0935 -2.5331 -1.2761
  311SOL    HW2 2941   6.148   3.348   1.248  1.5241  1.9834  2.3702
  312SOL     OW 2942   4.558   6.384   4.428 -0.3278  0.2304  0.4397
  312SOL    HW1 2943   4.535   6.477   4.428 -0.9234  0.0936  1.3530
  312SOL    HW2 2944   4.518   6.350   4.507  0.3087 -0.7100  0.3655
  313SOL     OW 2945   1.572   1.622   7.030 -0.4094 -0.0689  0.0964
  313SOL    HW1 2946   1.541   1.552   7.088 -0.3103  1.2756  1.8675
  313SOL    HW2 2947   1.495   1.644   6.977 -1.3923  0.5503  1.6920
  314SOL     OW 2948   3.369  10.017   4.984 -0.0379  0.3650  0.4129
  314SOL    HW1 2949   3.339  10.085   5.045  0.7447  2.1065 -1.0631
  314SOL    HW2 2950   3.361   9.936   5.034 -3.3957  1.1481  1.4520
  315SOL     OW 2951  10.190   2.579   5.662  0.2171 -0.3927 -0.1223
  315SOL    HW1 2952  10.253   2.530   5.715 -0.6063  0.1660  1.4380
  315SOL    HW2 2953  10.107   2.532   5.673  0.0630 -0.3585 -1.0568
  316SOL     OW 2954   2.977   1.674  11.064 -0.7381 -0.1268 -0.0608
  316SOL    HW1 2955   2.925   1.594  11.064 -0.9726  0.0218 -0.4410
  316SOL    HW2 2956   3.009   1.682  11.154  0.0586 -1.1384 -0.2326
  317SOL     OW 2957   2.934   1.213   8.611 -0.2637  0.2250  0.3087
  317SOL    HW1 2958   2.903   1.299   8.583 -1.4066 -0.4313 -0.5572
  317SOL    HW2 2959   2.863   1.178   8.665  0.3403 -0.0363  0.9397
  318SOL     OW 2960   5.436   0.042   2.426  0.6276  0.0805  0.1184
  318SOL    HW1 2961   5.374   0.089   2.481  0.2554 -1.3795  1.0160
  318SOL    HW2 2962   5.522   0.068   2.460  0.4428  0.4148  0.3395
  319SOL     OW 2963  10.647   7.228   5.618 -0.3992  0.0956 -0.0276
  319SOL    HW1 2964  10.654   7.316   5.655  0.0964  0.7956 -1.6990
  319SOL    HW2 2965  10.571   7.232   5.559 -1.4097 -1.1010  1.1256
  320SOL     OW 2966   3.436   9.106   6.839 -0.4910  0.7925  0.0694
  320SOL    HW1 2967   3.422   9.064   6.924  0.7870  0.0807 -0.0597
  320SOL    HW2 2968   3.428   9.200   6.857 -1.0133  0.6165  0.8102
  321SOL     OW 2969   1.761   4.942  11.212  0.3825 -0.2808 -0.0682
  321SOL    HW1 2970   1.707   5.012  11.250  0.8299  0.1881 -0.2775
  321SOL    HW2 2971   1.722   4.861  11.244  0.6209  0.0931  1.2504
  322SOL     OW 2972   1.328   6.470   0.605 -0.3887  0.7092 -0.0570
  322SOL    HW1 2973   1.260   6.458   0.538 -1.7628 -2.3065  1.6343
  322SOL    HW2 2974   1.409   6.441   0.562 -0.5276  2.2154 -1.4239
  323SOL     OW 2975   1.666   2.554   1.058 -0.0496  0.2638 -0.3282
  323SOL    HW1 2976   1.726   2.547   1.133  1.3665 -0.7326 -1.4912
  323SOL    HW2 2977   1.661   2.648   1.040  1.7342  0.3369 -0.6135
  324SOL     OW 2978   1.357   3.413  10.251 -0.0174  0.3691  0.6059
  324SOL    HW1 2979   1.383   3.358  10.176 -0.0791 -1.8755  2.1282
  324SOL    HW2 2980   1.329   3.495  10.211  1.3501 -0.1914 -1.7229
  325SOL     OW 2981   0.152   3.086   1.661  0.1296 -0.9970 -0.0416
  325SOL    HW1 2982   0.062   3.116   1.668  0.2950  0.3407 -2.3803
  325SOL    HW2 2983   0.177   3.062   1.750 -1.2389  2.4765  1.4704
  326SOL     OW 2984   8.955   9.292   1.100 -0.2218  0.2339 -0.7156
  326SOL    HW1 2985   9.017   9.226   1.067  0.2586  0.2953  0.0469
  326SOL    HW2 2986   8.985   9.311   1.189 -1.7499 -0.2510 -0.0679
  327SOL     OW 2987   0.279   2.489   1.590  0.3044 -0.2550 -0.2744
  327SOL    HW1 2988   0.208   2.491   1.526  1.8683 -0.1033 -2.1131
  327SOL    HW2 2989   0.270   2.404   1.633 -1.0433 -0.1770 -0.3665
  328SOL     OW 2990  10.272   8.945   5.849  0.3993  0.0071  0.1962
  328SOL    HW1 2991  10.273   9.001   5.927  1.4385 -0.8245  0.8198
  328SOL    HW2 2992  10.349   8.971   5.800  0.0068  0.2029 -0.3202
  329SOL     OW 2993   1.472   6.199   9.832  1.1994  0.5324 -0.4763
  329SOL    HW1 2994   1.483   6.106   9.817  2.5593  0.4797  0.6082
  329SOL    HW2 2995   1.439   6.205   9.922  1.6107  1.1092 -0.3593
  330SOL     OW 2996   4.025   2.758   6.854  0.6534  0.3310 -0.3967
  330SOL    HW1 2997   4.027   2.707   6.773  1.2494  0.6697 -0.5978
  330SOL    HW2 2998   4.105   2.733   6.900 -0.1363 -0.5892  0.5540
  331SOL     OW 2999  10.613   5.685   7.487  0.4078 -0.1970  0.1555
  331SOL    HW1 3000  10.664   5.740   7.428  1.3233 -0.8786  0.2953
  331SOL    HW2 3001  10.600   5.604   7.438  0.0714 -0.2881  0.3981
  332SOL     OW 3002  10.775   2.536   3.872 -0.2599 -0.1488  0.1746
  332SOL    HW1 3003  10.861   2.510   3.906  0.1570  1.3544  0.3432
  332SOL    HW2 3004  10.714   2.474   3.911  0.8514 -2.0745 -0.9386
  333SOL     OW 3005   4.189   4.399   1.840 -0.1967 -0.5659  0.0442
  333SOL    HW1 3006   4.195   4.458   1.916 -0.2061 -1.3454  0.6589
  333SOL    HW2 3007   4.145   4.451   1.773  1.1919  0.6795  0.0302
  334SOL     OW 3008   8.942   6.124  10.784 -0.0916  0.5306  0.0185
  334SOL    HW1 3009   8.888   6.099  10.709 -0.6727  1.4857  0.0933
  334SOL    HW2 3010   8.920   6.216  10.799  0.0337  0.3644  1.3423
  335SOL     OW 3011   1.134   6.029   2.362 -0.5617  0.6982  0.1395
  335SOL    HW1 3012   1.148   5.961   2.295 -3.6539  0.7500 -0.6703
  335SOL    HW2 3013   1.079   6.094   2.320 -0.5113  2.0276  2.0001
  336SOL     OW 3014   4.302   9.700   9.225 -0.0138 -0.0834  0.3840
  336SOL    HW1 3015   4.239   9.765   9.256 -1.9636 -2.5005  1.8599
  336SOL    HW2 3016   4.270   9.674   9.139  0.7730  0.8606 -0.2110
  337SOL     OW 3017   9.470   2.718   9.568  0.3688 -0.8127  0.1744
  337SOL    HW1 3018   9.415   2.685   9.496  0.8105 -0.3642 -0.3843
  337SOL    HW2 3019   9.408   2.756   9.630  0.0069 -0.7557 -0.2146
  338SOL     OW 3020  10.308   6.883   1.309  0.0603 -0.0441  0.2233
  338SOL    HW1 3021  10.280   6.968   1.276 -0.3304 -0.2242  0.0853
  338SOL    HW2 3022  10.402   6.894   1.327  0.0388  0.3756  0.0917
  339SOL     OW 3023  10.777   8.999   8.485  0.3859  0.1580  0.7111
  339SOL    HW1 3024  10.769   9.092   8.505  0.8421 -0.1161  2.3048
  339SOL    HW2 3025  10.864   8.990   8.447  0.6164  0.2848  1.2004
  340SOL     OW 3026   8.399   9.411   2.323  0.2334 -1.0444  0.2224
  340SOL    HW1 3027   8.362   9.362   2.249  0.7108 -3.4698  1.4866
  340SOL    HW2 3028   8.493   9.402   2.312  0.3115 -1.1207  0.9211
  341SOL     OW 3029   7.565   6.337  11.003 -0.2987  0.9462  0.2625
  341SOL    HW1 3030   7.585   6.259  10.953  1.0968  1.5372 -0.1611
  341SOL    HW2 3031   7.502   6.386  10.950 -2.0204 -0.3378  1.0140
  342SOL     OW 3032   2.617   5.520   2.171 -0.2927  0.3408  0.1735
  342SOL    HW1 3033   2.532   5.518   2.127 -0.1554  0.3415 -0.1007
  342SOL    HW2 3034   2.601   5.484   2.258 -0.5388  0.1743  0.0604
  343SOL     OW 3035   7.770   9.545   3.203  0.4392 -0.4867 -0.1937
  343SOL    HW1 3036   7.831   9.503   3.264 -0.7735  0.0307  1.4360
  343SOL    HW2 3037   7.825   9.605   3.152  1.2314  0.5583  1.7749
  344SOL     OW 3038  11.109   5.745   5.147 -0.0774 -0.0218 -0.2537
  344SOL    HW1 3039  11.139   5.657   5.125 -0.4643 -0.1004 -0.4748
  344SOL    HW2 3040  11.179   5.782   5.200  0.4284 -0.1880 -0.8017
  345SOL     OW 3041   3.857   4.284   4.260  0.1846  0.2152 -0.7835
  345SOL    HW1 3042   3.855   4.355   4.196 -2.1332  0.0644 -0.9592
  345SOL    HW2 3043   3.949   4.275   4.283  0.6472  2.7182 -1.3824
  346SOL     OW 3044   3.377   5.210   8.519  0.1367 -0.0733  0.2361
  346SOL    HW1 3045   3.284   5.220   8.497 -0.1578  0.2879  1.5704
  346SOL    HW2 3046   3.387   5.255   8.603  1.1051 -1.8235  1.1033
  347SOL     OW 3047   8.616   9.309   1.981 -0.3144 -0.1901 -0.1598
  347SOL    HW1 3048   8.621   9.403   1.999  1.9522  0.0920 -1.7663
  347SOL    HW2 3049   8.682   9.270   2.039 -0.3442 -0.6130 -0.4023
  348SOL     OW 3050   1.141   5.613   1.838  0.1168 -0.3966 -0.4866
  348SOL    HW1 3051   1.148   5.692   1.891  1.4176 -0.3484 -0.6970
  348SOL    HW2 3052   1.102   5.643   1.756  0.7686  0.0801 -0.6359
  349SOL     OW 3053   1.991  10.274   4.338  0.3282  0.0808 -1.0001
  349SOL    HW1 3054   2.017  10.365   4.355 -0.5936  0.2959 -0.6955
  349SOL    HW2 3055   1.900  10.270   4.366  0.3225 -0.9085 -1.1496
  350SOL     OW 3056   8.096   4.095   4.043 -0.2109  0.1093  0.2528
  350SOL    HW1 3057   8.124   4.129   3.958  0.8646 -2.5545 -0.5291
  350SOL    HW2 3058   8.166   4.119   4.103  1.5649 -2.2996 -0.7106
  351SOL     OW 3059   3.129   9.116   7.573  0.0793 -0.5282 -0.1918
  351SOL    HW1 3060   3.204   9.153   7.528 -0.9919  0.9605 -0.8429
  351SOL    HW2 3061   3.058   9.119   7.509 -1.1000  0.2245  1.0781
  352SOL     OW 3062   0.458   0.235   3.629  0.1324 -0.0089  0.1235
  352SOL    HW1 3063   0.400   0.235   3.705  0.5218  2.4299  0.5047
  352SOL    HW2 3064   0.423   0.303   3.572 -1.1939 -2.8896 -2.8563
  353SOL     OW 3065   2.105   6.596   9.188 -0.3137  0.6744 -0.2795
  353SOL    HW1 3066   2.093   6.611   9.095  1.5969  1.6206 -0.4341
  353SOL    HW2 3067   2.130   6.681   9.223  1.9591 -0.2292  0.5064
  354SOL     OW 3068  10.120   6.104   4.156 -0.1133 -0.0347 -0.1273
  354SOL    HW1 3069  10.215   6.113   4.152 -0.1577  0.0669 -1.2526
  354SOL    HW2 3070  10.094   6.157   4.232  0.6241  0.8588 -0.4773
  355SOL     OW 3071   5.676   2.996   1.970  0.0132  0.4244  0.2047
  355SOL    HW1 3072   5.769   2.977   1.956  0.1071  2.2752 -2.2595
  355SOL    HW2 3073   5.672   3.091   1.977 -1.8878  0.5831 -1.9267
  356SOL     OW 3074   7.124   5.828   0.837  0.3515 -0.1709 -0.4067
  356SOL    HW1 3075   7.109   5.904   0.894  1.5147 -0.4862  0.3581
  356SOL    HW2 3076   7.042   5.818   0.788 -0.6265  0.2547  1.0601
  357SOL     OW 3077   1.328   8.029   2.004 -1.0237 -0.1254  0.1013
  357SOL    HW1 3078   1.362   7.977   2.077 -1.0066  0.1364  0.2792
  357SOL    HW2 3079   1.293   7.964   1.943  0.8156 -0.5167 -0.6311
  358SOL     OW 3080   8.577   8.425   4.907  0.5082 -0.1615 -0.3007
  358SOL    HW1 3081   8.625   8.481   4.969  0.3906 -1.4781  1.0409
  358SOL    HW2 3082   8.641   8.405   4.839  0.9064  0.6246 -0.1711
  359SOL     OW 3083   0.376   4.576   7.190 -0.5208  0.2918 -0.3932
  359SOL    HW1 3084   0.349   4.485   7.181 -0.8737  0.2596  0.8440
  359SOL    HW2 3085   0.369   4.594   7.284  0.4755  1.3049 -0.4951
  360SOL     OW 3086   7.574   8.672   7.534  0.5119 -0.0896  0.0443
  360SOL    HW1 3087   7.644   8.613   7.563 -2.1081 -4.0382 -0.8911
  360SOL    HW2 3088   7.595   8.690   7.443  1.4534  0.6696  0.3952
  361SOL     OW 3089   3.163   2.157   8.347 -0.2153 -0.5125  0.1467
  361SOL    HW1 3090   3.160   2.237   8.400 -1.5889  1.1509 -2.2187
  361SOL    HW2 3091   3.082   2.158   8.297 -0.0413 -3.1920 -0.3260
  362SOL     OW 3092   3.020   7.281   6.750  0.2774 -0.5376  0.5001
  362SOL    HW1 3093   3.077   7.303   6.676  2.9535 -2.0811  1.9753
  362SOL    HW2 3094   2.946   7.235   6.710  0.3373  0.8887 -1.4181
  363SOL     OW 3095   1.652   0.691   2.407 -0.1453  0.1065 -0.2624
  363SOL    HW1 3096   1.685   0.697   2.497 -1.6390  0.2836  0.3062
  363SOL    HW2 3097   1.676   0.774   2.366 -1.6539  1.1157  0.7856
  364SOL     OW 3098   1.496  10.892   3.253  0.3139 -0.1242 -0.5975
  364SOL    HW1 3099   1.504  10.928   3.341 -0.5965  2.5136 -1.5031
  364SOL    HW2 3100   1.581  10.911   3.212  1.1555 -2.3544 -0.0252
  365SOL     OW 3101   1.305   6.038   1.134 -0.6032  0.4135  0.2079
  365SOL    HW1 3102   1.306   6.079   1.221  0.9246 -1.7294  1.2990
  365SOL    HW2 3103   1.343   5.951   1.148 -3.3542 -1.3024 -2.0316
  366SOL     OW 3104   7.040   2.698  10.006  0.7466  0.1413  0.0751
  366SOL    HW1 3105   6.988   2.618  10.004  0.2079  0.4967 -0.9045
  366SOL    HW2 3106   7.120   2.674  10.053  0.0308 -0.6109  0.9620
  367SOL     OW 3107   2.602   4.688   7.161 -0.0454  0.9112 -0.0146
  367SOL    HW1 3108   2.639   4.657   7.078 -0.8224  1.7144 -0.6683
  367SOL    HW2 3109   2.677   4.725   7.208  0.4767  0.0647 -0.1563
  368SOL     OW 3110   1.330   4.062   4.280 -0.3722 -0.0794 -0.2659
  368SOL    HW1 3111   1.408   4.109   4.310 -0.4430  0.6348 -1.1569
  368SOL    HW2 3112   1.267   4.130   4.261 -0.2344 -0.4517 -2.2733
  369SOL     OW 3113   6.612   7.554   1.206  0.0674 -0.1786 -0.2442
  369SOL    HW1 3114   6.611   7.478   1.147 -0.0436  0.1336 -0.6463
  369SOL    HW2 3115   6.683   7.609   1.171 -0.9280  0.6854 -0.9529
  370SOL     OW 3116   2.862   1.754   7.385 -0.2405  0.1892  0.3211
  370SOL    HW1 3117   2.938   1.729   7.438 -0.5737  1.2603  1.3606
  370SOL    HW2 3118   2.791   1.700   7.419 -0.3938  0.6860  0.8176
  371SOL     OW 3119   9.627   9.434   8.844 -0.1554  0.0451 -0.4217
  371SOL    HW1 3120   9.541   9.428   8.802 -0.0482 -0.8411 -0.5186
  371SOL    HW2 3121   9.615   9.501   8.912 -1.1623 -0.6374  0.1057
  372SOL     OW 3122   5.858   9.549   5.136  0.0095  0.1470 -0.0352
  372SOL    HW1 3123   5.885   9.525   5.225 -2.9305  0.4845  1.0924
  372SOL    HW2 3124   5.808   9.473   5.106 -2.1438  1.4033  0.1595
  373SOL     OW 3125   8.976   4.920   1.576  0.0624  0.4899 -0.1336
  373SOL    HW1 3126   9.029   4.989   1.537  0.0741  1.5885  1.7363
  373SOL    HW2 3127   8.902   4.966   1.617 -0.8889 -0.7692 -0.3420
  374SOL     OW 3128   0.911   1.468   1.889 -0.1358 -0.5711  0.6352
  374SOL    HW1 3129   0.977   1.458   1.957  0.3769 -0.2103  0.1943
  374SOL    HW2 3130   0.862   1.546   1.915  1.0173  0.4569 -0.1871
  375SOL     OW 3131   8.324   8.415  11.025 -0.5148  0.2607  0.6452
  375SOL    HW1 3132   8.356   8.352  11.090 -1.6427 -2.2703 -1.1085
  375SOL    HW2 3133   8.362   8.386  10.942 -3.7055 -0.2118 -0.7815
  376SOL     OW 3134   0.730  11.153   2.956  0.5170  0.0495  0.3372
  376SOL    HW1 3135   0.787  11.230   2.948  0.0029  0.2830 -1.2930
  376SOL    HW2 3136   0.762  11.092   2.889 -0.6239 -0.1511 -0.0395
  377SOL     OW 3137   2.252   7.131   6.623  0.1035 -0.3102  0.5120
  377SOL    HW1 3138   2.277   7.221   6.604  0.9724 -0.6578  0.0067
  377SOL    HW2 3139   2.334   7.084   6.634 -0.3414 -1.0107  0.9631
  378SOL     OW 3140   4.810   8.798   0.277  0.2267  0.2435 -0.1999
  378SOL    HW1 3141   4.861   8.840   0.207 -0.4796 -0.5734 -1.2315
  378SOL    HW2 3142   4.839   8.707   0.277 -1.9177 -0.5042 -1.5263
  379SOL     OW 3143   3.655   2.475   0.659 -0.2705 -0.0119 -0.8523
  379SOL    HW1 3144   3.638   2.569   0.667 -0.2478 -0.0950  0.5543
  379SOL    HW2 3145   3.624   2.452   0.572  1.2530  1.5948 -1.8736
  380SOL     OW 3146   0.467   5.198   4.918  0.0861 -0.1180 -0.6081
  380SOL    HW1 3147   0.386   5.173   4.875  0.2067  0.7718 -1.3672
  380SOL    HW2 3148   0.520   5.239   4.850 -0.0375  2.0623  0.5189
  381SOL     OW 3149   7.408   0.194   2.563  0.5736 -0.6223  0.0950
  381SOL    HW1 3150   7.376   0.118   2.611 -0.5555 -0.7716 -0.8657
  381SOL    HW2 3151   7.500   0.174   2.546  0.8998 -0.7358  1.8271
  382SOL     OW 3152   0.435   6.110   4.387  0.3447  0.4502 -0.0428
  382SOL    HW1 3153   0.389   6.062   4.317 -0.3950  1.7592 -0.4919
  382SOL    HW2 3154   0.527   6.089   4.373  0.1816  0.4390 -1.2294
  383SOL     OW 3155   3.668   3.979   2.912 -0.6394 -0.2436 -0.0926
  383SOL    HW1 3156   3.575   3.998   2.897 -0.6319 -0.2752 -0.1774
  383SOL    HW2 3157   3.680   3.996   3.006 -0.8611 -0.7527  0.0333
  384SOL     OW 3158   0.577   5.622   7.332 -0.0771 -0.2646 -0.1758
  384SOL    HW1 3159   0.535   5.537   7.344 -0.0246 -0.4173 -1.0140
  384SOL    HW2 3160   0.544   5.676   7.403 -0.1827 -0.9630  0.3093
  385SOL     OW 3161   9.847   1.300   5.416  0.2304  0.4897  0.2531
  385SOL    HW1 3162   9.805   1.267   5.337  1.3625  0.5124 -0.3817
  385SOL    HW2 3163   9.866   1.392   5.398 -2.4296  1.4462  1.8125
  386SOL     OW 3164   7.532   8.208   7.486  0.3315 -0.1849  0.0501
  386SOL    HW1 3165   7.471   8.163   7.544  0.6720  0.2785  0.7688
  386SOL    HW2 3166   7.524   8.161   7.403 -0.4096 -0.6333  0.3655
  387SOL     OW 3167   1.368   2.513   8.173 -0.4131 -0.1983  0.3443
  387SOL    HW1 3168   1.398   2.454   8.242 -3.0412 -0.2767  1.5179
  387SOL    HW2 3169   1.391   2.469   8.091 -1.2194 -2.3056  1.1837
  388SOL     OW 3170   1.087  10.859   4.751  0.4544  0.3295 -0.3113
  388SOL    HW1 3171   1.160  10.910   4.718  0.1908  0.3009 -0.9473
  388SOL    HW2 3172   1.118  10.769   4.751 -0.2886 -0.0015 -2.7167
  389SOL     OW 3173   9.748   6.900  10.501  0.5548 -0.1384 -0.1123
  389SOL    HW1 3174   9.708   6.982  10.529  0.3752 -0.4847  0.6853
  389SOL    HW2 3175   9.712   6.834  10.561  1.1573 -0.6975 -0.3493
  390SOL     OW 3176   0.255   5.100   3.101 -0.0929  0.4328 -0.8439
  390SOL    HW1 3177   0.287   5.147   3.178 -3.5871  0.9231  0.4908
  390SOL    HW2 3178   0.250   5.166   3.032  0.4405  0.6509 -0.6753
  391SOL     OW 3179   4.693   8.132  10.197  0.3408 -0.1362 -0.0863
  391SOL    HW1 3180   4.642   8.063  10.154  0.5434 -0.0658 -0.4393
  391SOL    HW2 3181   4.775   8.090  10.220  0.5091  0.0197 -0.4042
  392SOL     OW 3182   1.443   6.113  10.591 -0.5365  0.2496 -0.2984
  392SOL    HW1 3183   1.474   6.034  10.547 -1.3974 -1.1625  1.4731
  392SOL    HW2 3184   1.501   6.123  10.667  0.3667  2.1118 -1.1690
  393SOL     OW 3185   3.055   4.518   3.698 -0.5755 -0.8339  0.2037
  393SOL    HW1 3186   3.019   4.545   3.782 -1.3203 -0.8840 -0.0851
  393SOL    HW2 3187   3.013   4.577   3.635  0.5293 -0.3023 -0.0668
  394SOL     OW 3188   7.306   9.958   7.433  0.1382  0.6351  0.1959
  394SOL    HW1 3189   7.316   9.970   7.527  1.1490  1.7619 -0.0194
  394SOL    HW2 3190   7.309  10.047   7.397  3.1434  0.1285 -1.1527
  395SOL     OW 3191   4.875   6.759   1.184 -0.2180 -0.2896  0.1615
  395SOL    HW1 3192   4.850   6.847   1.211  0.3573 -0.8678  3.0270
  395SOL    HW2 3193   4.793   6.716   1.162 -0.3906  1.2429 -2.5097
  396SOL     OW 3194   6.553   9.800   4.519 -0.1125 -0.6301  0.0195
  396SOL    HW1 3195   6.514   9.792   4.606 -0.1147 -1.9131 -0.0715
  396SOL    HW2 3196   6.561   9.894   4.504  1.8501 -0.3512  2.2739
  397SOL     OW 3197   6.706   1.137   0.570 -0.0540 -0.1405  0.1545
  397SOL    HW1 3198   6.735   1.203   0.507 -2.7194  2.1815  1.1814
  397SOL    HW2 3199   6.647   1.080   0.520  1.5770 -1.3164 -0.5190
  398SOL     OW 3200   2.168   2.676  10.713 -0.2612  0.8010  0.0849
  398SOL    HW1 3201   2.141   2.656  10.624  0.4998 -2.4973  0.4589
  398SOL    HW2 3202   2.126   2.608  10.767  1.8243  0.7307  1.7734
  399SOL     OW 3203   3.714   8.261   3.776 -0.3961  0.1346 -0.2203
  399SOL    HW1 3204   3.627   8.230   3.750 -0.3945 -0.6251  0.6007
  399SOL    HW2 3205   3.732   8.335   3.719 -2.4675  1.6177  0.9310
  400SOL     OW 3206   9.339   9.758   3.632 -1.0672  0.2754  0.5455
  400SOL    HW1 3207   9.402   9.704   3.585  0.0332  1.7224  0.3009
  400SOL    HW2 3208   9.254   9.724   3.605 -0.5757  1.5665 -3.2813
  401SOL     OW 3209   6.780   2.589   2.761 -0.6695 -0.4763 -0.8350
  401SOL    HW1 3210   6.699   2.631   2.732 -0.6259 -0.7642 -1.3923
  401SOL    HW2 3211   6.765   2.569   2.853 -1.6752 -1.5670 -1.2197
  402SOL     OW 3212   4.673   0.021   6.084 -0.2010 -0.5921 -0.2800
  402SOL    HW1 3213   4.666  -0.027   6.002  1.6175  1.1459 -1.5571
  402SOL    HW2 3214   4.658   0.112   6.060  2.5178  0.2625  0.8148
  403SOL     OW 3215   0.284   0.030   7.118  0.4044 -0.5656  0.3012
  403SOL    HW1 3216   0.357   0.004   7.175  0.5525 -0.7952  0.0144
  403SOL    HW2 3217   0.318   0.104   7.067  0.5909 -0.9508 -0.1434
  404SOL     OW 3218   1.057  10.322   0.382  0.0151  0.2020 -0.7249
  404SOL    HW1 3219   1.110  10.268   0.441  0.7221  2.0716  0.4153
  404SOL    HW2 3220   0.968  10.313   0.415 -0.2196 -1.7021 -1.6987
  405SOL     OW 3221   3.146   6.910   5.370 -0.6759 -0.2594  0.0697
  405SOL    HW1 3222   3.170   6.997   5.401 -0.4014 -0.5771  0.7528
  405SOL    HW2 3223   3.144   6.919   5.274  1.3316 -0.0110  0.0148
  406SOL     OW 3224   0.928   0.818   9.538 -0.4913  0.3949 -0.0944
  406SOL    HW1 3225   0.921   0.912   9.522 -0.9033  0.0387 -2.3091
  406SOL    HW2 3226   0.839   0.791   9.561 -0.5043  0.4430 -0.0884
  407SOL     OW 3227   3.185   8.442   1.157  0.0026 -0.2945 -0.7247
  407SOL    HW1 3228   3.154   8.402   1.238 -0.1629 -0.6418 -0.9565
  407SOL    HW2 3229   3.261   8.494   1.183 -1.6950  1.9113  0.1384
  408SOL     OW 3230   4.106   1.482   5.270  0.1870  1.0112 -0.0429
  408SOL    HW1 3231   4.046   1.546   5.231 -1.5790  0.7794  2.1076
  408SOL    HW2 3232   4.184   1.533   5.291  0.2630  1.6309 -1.6608
  409SOL     OW 3233  10.175   2.170   3.230  0.2617  0.0477 -0.6914
  409SOL    HW1 3234  10.225   2.250   3.217  1.1054 -0.3109  0.2058
  409SOL    HW2 3235  10.142   2.176   3.319 -0.0575 -0.3913 -0.7754
  410SOL     OW 3236   6.137  10.262   1.346 -0.2195 -0.4188  0.3921
  410SOL    HW1 3237   6.106  10.320   1.416  0.0554 -0.0251  0.1932
  410SOL    HW2 3238   6.059  10.243   1.294  0.2551  2.9286 -1.8391
  411SOL     OW 3239   3.987   7.398   7.159 -0.2737  0.2056 -0.0667
  411SOL    HW1 3240   3.969   7.388   7.066 -1.3071 -0.8821  0.2331
  411SOL    HW2 3241   4.040   7.322   7.181 -0.2457  0.3270  0.2942
  412SOL     OW 3242   2.063   8.445   1.345  0.5526 -0.4015  0.5666
  412SOL    HW1 3243   2.063   8.540   1.353 -0.1663 -0.4873  1.8960
  412SOL    HW2 3244   2.141   8.425   1.294  0.1334  0.9602 -0.6913
  413SOL     OW 3245   1.237   6.091   6.522  0.5697  0.4454 -0.3504
  413SOL    HW1 3246   1.254   6.004   6.484 -1.3748 -0.5321  0.8627
  413SOL    HW2 3247   1.282   6.089   6.607  2.1255  1.4010 -1.0974
  414SOL     OW 3248  10.731   4.633   6.308  0.3120 -0.1766  0.3322
  414SOL    HW1 3249  10.794   4.608   6.240  2.4101  4.3985  0.1805
  414SOL    HW2 3250  10.681   4.704   6.268 -1.9056 -0.6866  2.0159
  415SOL     OW 3251   4.005   3.696   9.422  0.3434 -0.0255  0.4588
  415SOL    HW1 3252   3.995   3.777   9.472 -1.8310 -0.8954  1.5504
  415SOL    HW2 3253   3.985   3.720   9.332 -0.7396  0.5713  0.8480
  416SOL     OW 3254   1.339   2.089   0.903  1.3162  0.2372 -0.7979
  416SOL    HW1 3255   1.398   2.040   0.845  2.7122 -1.8857  2.1443
  416SOL    HW2 3256   1.306   2.023   0.964 -1.6263  1.9949 -0.3013
  417SOL     OW 3257   3.571   3.010   7.217  0.0200 -0.0300  0.2813
  417SOL    HW1 3258   3.520   3.043   7.143  0.3272  0.3196  0.2245
  417SOL    HW2 3259   3.505   2.982   7.281 -0.2548  1.0531  0.4954
  418SOL     OW 3260   7.589   4.083   9.603 -0.6208 -0.3679  0.2614
  418SOL    HW1 3261   7.656   4.148   9.625 -1.6373  0.7051  0.2768
  418SOL    HW2 3262   7.584   4.085   9.507  2.2982 -3.5121 -0.1549
  419SOL     OW 3263   4.922   8.195   6.425 -0.4780 -0.0399 -0.6030
  419SOL    HW1 3264   4.855   8.172   6.361 -1.3821 -1.5374  0.8139
  419SOL    HW2 3265   4.969   8.113   6.442 -0.7995  0.1003  1.2239
  420SOL     OW 3266   0.218  10.431   3.886  0.4329 -0.1612  0.1231
  420SOL    HW1 3267   0.274  10.354   3.895 -0.7791 -0.9934  0.8353
  420SOL    HW2 3268   0.262  10.499   3.936  2.5251  0.2518 -2.0696
  421SOL     OW 3269   3.828   7.644  10.094  0.2965  0.5250  0.3790
  421SOL    HW1 3270   3.900   7.631  10.032  0.4422 -0.9136  0.8122
  421SOL    HW2 3271   3.769   7.705  10.049  2.5369  3.1081  0.6815
  422SOL     OW 3272   0.385   0.411   9.844 -0.6040 -0.1968 -0.2125
  422SOL    HW1 3273   0.361   0.331   9.890 -2.2454 -0.6175 -1.6770
  422SOL    HW2 3274   0.330   0.479   9.884 -1.1481 -0.3330 -0.7100
  423SOL     OW 3275   2.550   6.015   9.097 -0.3025  0.1247 -0.5703
  423SOL    HW1 3276   2.478   5.972   9.051 -0.7071  1.4262 -1.2046
  423SOL    HW2 3277   2.629   5.986   9.051 -0.3440 -1.6353  0.3862
  424SOL     OW 3278   1.819   8.671   7.096 -0.0070  0.5471 -0.2222
  424SOL    HW1 3279   1.848   8.753   7.057 -1.2149  1.6061  0.9891
  424SOL    HW2 3280   1.796   8.695   7.186 -0.0078 -1.2095  0.2729
  425SOL     OW 3281   8.809   8.097   7.612  0.7085  0.0882 -0.0437
  425SOL    HW1 3282   8.795   8.096   7.517 -0.2152  1.5914  0.0535
  425SOL    HW2 3283   8.899   8.128   7.623  0.9149 -0.3577 -0.4151
  426SOL     OW 3284   0.559   4.074   4.720 -0.5161  0.0833 -0.3848
  426SOL    HW1 3285   0.637   4.129   4.719  1.3910 -2.4079 -1.6793
  426SOL    HW2 3286   0.580   4.002   4.780 -1.4106 -1.1118 -1.4353
  427SOL     OW 3287   6.362  10.891  10.658 -0.0102 -0.4901 -0.0409
  427SOL    HW1 3288   6.341  10.836  10.582  0.8801  1.3996 -1.7429
  427SOL    HW2 3289   6.374  10.978  10.622 -0.1711  0.6168  2.4039
  428SOL     OW 3290   6.643   4.639   0.100 -0.1806 -0.3560 -0.3769
  428SOL    HW1 3291   6.569   4.636   0.040 -0.6207  0.6652  0.0870
  428SOL    HW2 3292   6.659   4.732   0.114  2.1502 -0.5020 -1.5920
  429SOL     OW 3293   9.235   3.335   6.268 -0.5254 -0.1470  0.0075
  429SOL    HW1 3294   9.290   3.330   6.346 -0.3653  1.4805  0.0344
  429SOL    HW2 3295   9.286   3.295   6.199 -0.2071 -0.5975  0.5025
  430SOL     OW 3296   3.101   5.051   7.891 -0.3454 -0.9285  0.5789
  430SOL    HW1 3297   3.189   5.022   7.866 -0.4137 -0.0614 -0.7390
  430SOL    HW2 3298   3.116   5.129   7.945 -0.3112 -0.7296  0.2815
  431SOL     OW 3299  10.276   4.884   5.202 -0.1485 -0.0132  0.0937
  431SOL    HW1 3300  10.353   4.937   5.183  0.4943  0.0328  2.4828
  431SOL    HW2 3301  10.209   4.947   5.228 -1.6526  0.1075 -3.4387
  432SOL     OW 3302   3.216   7.879   6.002  0.0103 -0.7174  0.4735
  432SOL    HW1 3303   3.281   7.814   5.977  1.2914  1.0612 -1.0885
  432SOL    HW2 3304   3.256   7.927   6.074  0.6993  0.6878 -0.7992
  433SOL     OW 3305   3.468   9.500   4.385  0.5113  0.4681  0.1548
  433SOL    HW1 3306   3.401   9.474   4.322  0.4427  1.2003 -0.0894
  433SOL    HW2 3307   3.493   9.419   4.430 -0.3489  0.1497  0.0655
  434SOL     OW 3308   1.170   4.911   8.911  0.3909 -0.3924 -0.3960
  434SOL    HW1 3309   1.172   4.999   8.872  0.1062  0.7238  1.9677
  434SOL    HW2 3310   1.210   4.922   8.997 -1.8947 -2.0268  0.9702
  435SOL     OW 3311   5.508   0.430   0.493  0.0498 -0.5677 -0.3611
  435SOL    HW1 3312   5.499   0.424   0.398 -0.8324 -3.3260 -0.1885
  435SOL    HW2 3313   5.548   0.516   0.508 -2.2693  1.1252 -2.9971
  436SOL     OW 3314   1.137   2.960   5.620  0.6425  0.0100 -0.0022
  436SOL    HW1 3315   1.145   2.942   5.526 -3.0279  0.7488 -0.6313
  436SOL    HW2 3316   1.186   2.889   5.662  0.1591 -1.9502 -2.4817
  437SOL     OW 3317   3.559   9.107   3.109 -0.8983 -0.0054  0.1226
  437SOL    HW1 3318   3.570   9.195   3.145  0.4104  0.2382 -0.7796
  437SOL    HW2 3319   3.517   9.121   3.024 -1.5576 -0.3477  0.3815
  438SOL     OW 3320   3.369   8.031   0.421 -0.2105  0.1433  0.2985
  438SOL    HW1 3321   3.381   8.027   0.326  1.3285  1.5887  0.3901
  438SOL    HW2 3322   3.387   8.122   0.444 -1.1365 -0.0445  1.9174
  439SOL     OW 3323   4.168   9.792   6.992  0.8008 -0.2550 -0.0126
  439SOL    HW1 3324   4.174   9.729   7.064 -1.1399 -0.7854 -0.2754
  439SOL    HW2 3325   4.134   9.741   6.918  1.8965  0.4850 -1.0653
  440SOL     OW 3326   5.371   3.202   7.285 -0.9541 -0.2895 -0.4484
  440SOL    HW1 3327   5.389   3.206   7.379 -0.6123 -0.9567 -0.4749
  440SOL    HW2 3328   5.438   3.143   7.251 -2.0526 -1.3409 -0.8613
  441SOL     OW 3329   1.716   1.810   5.784  0.0828  0.7227 -0.3433
  441SOL    HW1 3330   1.803   1.844   5.762  0.3186 -0.4369 -1.2766
  441SOL    HW2 3331   1.705   1.832   5.877  2.5677 -1.5102  0.6147
  442SOL     OW 3332   4.540   0.076   7.907 -0.0134  0.0944  0.4150
  442SOL    HW1 3333   4.568   0.093   7.818  0.6473 -3.3025 -0.1851
  442SOL    HW2 3334   4.503   0.159   7.938  3.0382  2.4667 -1.6830
  443SOL     OW 3335   7.566   6.850   7.925 -0.4306 -0.7625 -0.7151
  443SOL    HW1 3336   7.557   6.771   7.871  0.5480 -2.9680  2.1194
  443SOL    HW2 3337   7.480   6.861   7.967 -0.3975 -0.6177 -0.6834
  444SOL     OW 3338   3.689   8.482   3.614 -0.0059 -0.2074  0.5066
  444SOL    HW1 3339   3.613   8.529   3.650  0.5968 -0.7237  2.5729
  444SOL    HW2 3340   3.690   8.506   3.522 -0.5384  2.7432  1.1646
  445SOL     OW 3341  10.638   6.245   3.585  0.4194 -0.4478  0.3120
  445SOL    HW1 3342  10.677   6.330   3.608 -1.2277  0.3558  0.2301
  445SOL    HW2 3343  10.705   6.203   3.531  1.6460  0.3895  1.1159
  446SOL     OW 3344   9.416   5.623   3.575 -0.6253  0.5195 -0.2119
  446SOL    HW1 3345   9.329   5.583   3.572  0.3455 -1.6866 -1.7563
  446SOL    HW2 3346   9.423   5.659   3.664 -2.1275 -1.6000  0.8411
  447SOL     OW 3347   4.020   5.379   2.648 -0.1035 -0.2079  0.2940
  447SOL    HW1 3348   4.092   5.320   2.670 -0.9306 -1.9298 -1.2467
  447SOL    HW2 3349   3.958   5.371   2.720 -0.6142 -2.0263 -0.2862
  448SOL     OW 3350   7.391   6.892   5.695 -0.8426 -0.4844  0.1592
  448SOL    HW1 3351   7.319   6.918   5.753 -2.0555 -0.6283 -1.2190
  448SOL    HW2 3352   7.447   6.837   5.749 -1.7462 -0.3298  1.2896
  449SOL     OW 3353   5.330  10.924   5.446  0.5481 -0.5333  0.2850
  449SOL    HW1 3354   5.241  10.900   5.419  0.5950 -0.6655  0.2479
  449SOL    HW2 3355   5.381  10.919   5.366  0.8170 -1.5350  0.5119
  450SOL     OW 3356   9.775   6.699   4.202  0.7315 -0.3290  0.1419
  450SOL    HW1 3357   9.731   6.617   4.178  1.0508 -1.2651  2.4518
  450SOL    HW2 3358   9.705   6.755   4.234  0.6272  0.0117 -0.6550
  451SOL     OW 3359   5.128   2.110   3.949  0.0487 -0.7566  0.7113
  451SOL    HW1 3360   5.068   2.068   4.010 -0.0927  0.9581  1.8149
  451SOL    HW2 3361   5.183   2.167   4.004  0.1901  0.5223 -0.6761
  452SOL     OW 3362  11.237   3.467   3.029  0.4274  0.1573 -0.4291
  452SOL    HW1 3363  11.193   3.517   2.960  0.4000 -0.3205 -0.7586
  452SOL    HW2 3364  11.170   3.409   3.064  0.1550  1.1145  0.7218
  453SOL     OW 3365   5.169   8.418   9.290  0.8446 -0.3528 -0.2043
  453SOL    HW1 3366   5.185   8.448   9.201  1.8424 -0.3102 -0.0248
  453SOL    HW2 3367   5.113   8.486   9.328  1.0553  0.0241 -0.5597
  454SOL     OW 3368   3.068  10.742  10.235 -0.1747 -0.2126 -0.4397
  454SOL    HW1 3369   3.106  10.731  10.322 -3.2385 -0.5264  1.0268
  454SOL    HW2 3370   3.034  10.832  10.235  0.6196  0.1130 -1.7217
  455SOL     OW 3371   9.531   0.506   3.586 -0.4326  0.8352 -0.1625
  455SOL    HW1 3372   9.508   0.598   3.570  1.7817  1.2577 -1.3667
  455SOL    HW2 3373   9.564   0.506   3.676 -1.3243  1.0221  0.1703
  456SOL     OW 3374   6.616   2.876   9.783 -0.2219  0.3707  0.6385
  456SOL    HW1 3375   6.594   2.876   9.690 -1.2157 -1.4998  0.8253
  456SOL    HW2 3376   6.711   2.880   9.786 -0.2086  1.2846 -0.4105
  457SOL     OW 3377   5.884   4.688  11.175 -0.0813  0.7258  0.0776
  457SOL    HW1 3378   5.912   4.678  11.084  0.6849  2.2783  0.1196
  457SOL    HW2 3379   5.960   4.723  11.220 -0.3280 -0.3786  1.4330
  458SOL     OW 3380   0.541   9.207   8.148 -0.2630 -0.1729  0.5243
  458SOL    HW1 3381   0.564   9.126   8.192  0.8283 -0.0015  0.3077
  458SOL    HW2 3382   0.565   9.276   8.210 -1.3134 -0.0079  0.7645
  459SOL     OW 3383   3.253   6.402   6.388  0.5808 -0.1542 -0.1142
  459SOL    HW1 3384   3.256   6.489   6.426  0.8646 -0.7223  1.2403
  459SOL    HW2 3385   3.335   6.360   6.415 -0.2493 -1.3681  0.6385
  460SOL     OW 3386   8.901   6.284   6.367  0.0725 -0.0533  0.2292
  460SOL    HW1 3387   8.870   6.291   6.457  0.4474  1.8286  0.2545
  460SOL    HW2 3388   8.913   6.375   6.338 -0.2658 -0.5912 -1.8038
  461SOL     OW 3389   1.036   2.642   2.653 -0.7056  0.9818 -0.3204
  461SOL    HW1 3390   1.066   2.586   2.724  1.6804  1.9871 -0.4238
  461SOL    HW2 3391   1.034   2.585   2.576 -1.9590  0.2101  0.2645
  462SOL     OW 3392   7.813   6.467   6.233 -0.1920  0.6649  0.0306
  462SOL    HW1 3393   7.802   6.372   6.243 -0.4420  0.6585 -0.3145
  462SOL    HW2 3394   7.815   6.500   6.323 -0.2446  0.3501  0.1497
  463SOL     OW 3395   5.788   4.893   2.204  0.2300 -0.6403 -0.0708
  463SOL    HW1 3396   5.864   4.875   2.149  0.2602  0.8988 -0.5993
  463SOL    HW2 3397   5.790   4.988   2.216 -2.2232 -0.3968 -1.0348
  464SOL     OW 3398   4.470   3.760   8.727  0.2000  0.4114  0.1598
  464SOL    HW1 3399   4.462   3.722   8.814 -0.1165  1.2355  0.5057
  464SOL    HW2 3400   4.564   3.777   8.717  0.2752  0.0366  0.2127
  465SOL     OW 3401   1.347   2.509   4.728 -0.1134  0.2849  0.1608
  465SOL    HW1 3402   1.329   2.425   4.768 -0.5523  1.0328  1.5917
  465SOL    HW2 3403   1.429   2.538   4.768  0.2582  0.3534 -0.6350
  466SOL     OW 3404   3.105  10.557   0.035  0.1338 -0.2582  0.4173
  466SOL    HW1 3405   3.068  10.643   0.056  0.2469  0.0602 -0.6605
  466SOL    HW2 3406   3.166  10.539   0.107  0.2090  0.6179  0.5838
  467SOL     OW 3407   5.548   2.567   3.600  0.1082  0.2116  0.3706
  467SOL    HW1 3408   5.530   2.511   3.675  2.7543  1.4069  2.0722
  467SOL    HW2 3409   5.633   2.536   3.567  0.6926  1.9106  0.1562
  468SOL     OW 3410  10.969   0.524   3.915 -0.4031 -0.3569 -0.7814
  468SOL    HW1 3411  10.888   0.488   3.880 -0.1834 -0.3487 -1.3071
  468SOL    HW2 3412  11.016   0.556   3.838  0.9902 -2.1344 -0.7400
  469SOL     OW 3413   7.303   0.993   6.895 -0.7348 -0.2486 -0.0746
  469SOL    HW1 3414   7.330   0.906   6.865  1.9408  0.2700  0.6483
  469SOL    HW2 3415   7.345   1.054   6.834  0.4620  0.6225  1.5388
  470SOL     OW 3416   7.124   6.712   3.094 -0.0868 -0.8534  0.1147
  470SOL    HW1 3417   7.105   6.661   3.016 -3.2841  0.2180  0.0398
  470SOL    HW2 3418   7.057   6.685   3.157 -1.5404  2.5923  0.2872
  471SOL     OW 3419   0.196   9.577   6.946  0.7516  0.2621 -0.1734
  471SOL    HW1 3420   0.189   9.643   7.016  0.5300 -0.5524  0.5960
  471SOL    HW2 3421   0.284   9.541   6.956  0.1681 -1.0146  0.7947
  472SOL     OW 3422   9.505   8.282   5.155  0.0799 -0.2996 -0.1725
  472SOL    HW1 3423   9.550   8.354   5.198 -0.1939 -0.4640  0.4186
  472SOL    HW2 3424   9.418   8.316   5.134 -0.2083 -0.5803  0.5182
  473SOL     OW 3425   6.468   4.318  10.529  0.0072  0.4048  0.0007
  473SOL    HW1 3426   6.481   4.346  10.438  2.2164 -1.0458 -0.1869
  473SOL    HW2 3427   6.448   4.225  10.522 -0.0350  0.3362  0.9971
  474SOL     OW 3428   6.535   0.114   9.809  0.3906 -0.1153 -0.0318
  474SOL    HW1 3429   6.512   0.144   9.721  0.9195  0.9349  0.1786
  474SOL    HW2 3430   6.630   0.124   9.814  0.3302  0.1114  0.7644
  475SOL     OW 3431   5.418   2.473   0.933  0.2780 -0.5405 -0.3790
  475SOL    HW1 3432   5.494   2.457   0.989 -1.2578 -2.8629  1.2676
  475SOL    HW2 3433   5.431   2.417   0.857 -0.0693 -1.4891  0.2425
  476SOL     OW 3434   5.533   8.923   9.150 -0.3732 -0.3394  0.1328
  476SOL    HW1 3435   5.524   8.846   9.207 -1.6505  0.0185  0.4576
  476SOL    HW2 3436   5.492   8.994   9.200  1.6804  0.8289  0.2948
  477SOL     OW 3437   7.964   0.881   2.329  0.8609 -0.0680  0.4577
  477SOL    HW1 3438   8.007   0.848   2.408 -1.2057 -0.3149  1.5622
  477SOL    HW2 3439   7.902   0.946   2.362 -0.2574 -0.4026 -0.9168
  478SOL     OW 3440  10.459   9.160   2.283  0.0965  1.0506  0.3901
  478SOL    HW1 3441  10.405   9.088   2.316  0.3184  0.2229 -0.9763
  478SOL    HW2 3442  10.539   9.156   2.335  0.9512 -1.0017 -0.9533
  479SOL     OW 3443   1.092   5.919   7.095 -0.8374  0.0936 -0.3361
  479SOL    HW1 3444   1.098   5.866   7.174  0.5239  1.7882  0.7646
  479SOL    HW2 3445   1.004   5.956   7.097 -1.0406 -0.3995  0.0264
  480SOL     OW 3446  10.402   9.538   8.928  0.3046 -0.4401 -0.3500
  480SOL    HW1 3447  10.352   9.575   8.855 -0.5069  1.0847  0.8976
  480SOL    HW2 3448  10.459   9.610   8.957 -2.0404  0.3916  2.7990
  481SOL     OW 3449   0.013   2.884   6.009  0.2274 -0.7649  0.0618
  481SOL    HW1 3450  -0.058   2.839   6.056 -0.7500 -0.1127 -0.7396
  481SOL    HW2 3451   0.068   2.921   6.077 -1.3508  0.4709  0.7225
  482SOL     OW 3452   4.362   5.708   2.599 -0.2828 -0.1532  0.4904
  482SOL    HW1 3453   4.316   5.686   2.680  1.7755 -0.3784  1.6612
  482SOL    HW2 3454   4.382   5.624   2.558  1.0739 -0.1838  1.1751
  483SOL     OW 3455   0.680   6.480  10.017 -0.2944 -0.1865 -0.0732
  483SOL    HW1 3456   0.759   6.510  10.062 -2.4825 -0.2110  4.3899
  483SOL    HW2 3457   0.690   6.384  10.014 -0.8197 -0.3705  2.2199
  484SOL     OW 3458   5.073   9.018  10.792 -0.0283  0.6218  0.7587
  484SOL    HW1 3459   5.017   8.960  10.741 -0.6827  0.1762  1.9216
  484SOL    HW2 3460   5.068   9.103  10.748  1.6345 -0.3404 -1.4901
  485SOL     OW 3461   5.374   4.071   3.730 -0.2473  0.4212  0.3427
  485SOL    HW1 3462   5.297   4.102   3.777 -1.6570  0.2687 -1.7508
  485SOL    HW2 3463   5.341   4.002   3.673  1.3704  0.6287 -0.9132
  486SOL     OW 3464   0.962   0.707   1.873 -0.6335  0.9687 -0.0194
  486SOL    HW1 3465   0.881   0.741   1.834 -1.7712 -2.2087 -0.7588
  486SOL    HW2 3466   0.937   0.678   1.961 -0.4351 -0.2857 -0.3464
  487SOL     OW 3467   2.944   2.949   1.325 -0.1839  0.0408 -0.2405
  487SOL    HW1 3468   3.028   2.988   1.298 -1.2440  1.7329 -1.3682
  487SOL    HW2 3469   2.881   3.021   1.315 -1.7952 -1.2174  0.4603
  488SOL     OW 3470   5.602   7.514   9.551 -0.1119  0.7856  0.1783
  488SOL    HW1 3471   5.678   7.542   9.501 -0.2236  0.6141 -0.0873
  488SOL    HW2 3472   5.555   7.596   9.570 -0.1693  0.8350 -0.1611
  489SOL     OW 3473  10.957   0.411   6.743 -0.5846 -0.0859  0.0395
  489SOL    HW1 3474  11.049   0.383   6.736 -0.8244 -1.5399  1.9531
  489SOL    HW2 3475  10.908   0.341   6.702 -0.9476 -0.4481  1.0600
  490SOL     OW 3476   7.125   8.179   9.407 -1.0213  0.2805 -0.3894
  490SOL    HW1 3477   7.167   8.178   9.321 -0.5028  2.2467 -0.2163
  490SOL    HW2 3478   7.058   8.247   9.400 -1.1034  0.3267  0.7022
  491SOL     OW 3479   8.517   8.261   8.259 -0.1425  0.4969  0.3291
  491SOL    HW1 3480   8.528   8.175   8.221 -1.5617  0.2241  0.4721
  491SOL    HW2 3481   8.579   8.317   8.213 -1.9848  0.2790 -2.6751
  492SOL     OW 3482   3.501   9.874   5.852  0.0614 -0.4382  0.6967
  492SOL    HW1 3483   3.514   9.969   5.852  2.3988 -0.6788 -0.6925
  492SOL    HW2 3484   3.414   9.862   5.814  0.6180  1.1203 -1.2343
  493SOL     OW 3485   7.969   9.135   3.743  0.7318 -0.2477 -0.0065
  493SOL    HW1 3486   8.007   9.048   3.755 -0.6291 -0.8654  0.0404
  493SOL    HW2 3487   7.891   9.135   3.798 -0.0059  0.5290 -1.0104
  494SOL     OW 3488   4.141   8.306   6.810  0.5724  0.5968 -0.1505
  494SOL    HW1 3489   4.209   8.302   6.743  0.9643 -0.7255  0.2880
  494SOL    HW2 3490   4.059   8.290   6.764  0.7944  0.0974 -0.3696
  495SOL     OW 3491   6.829   6.344   1.087  0.2218  0.4235  0.0988
  495SOL    HW1 3492   6.894   6.309   1.025 -1.6836 -1.5332 -0.9608
  495SOL    HW2 3493   6.754   6.284   1.079 -1.1621  1.7177  2.3293
  496SOL     OW 3494   4.761   2.547   6.356  0.1379  0.0824  0.1030
  496SOL    HW1 3495   4.789   2.530   6.266  1.9557 -3.1159  1.1072
  496SOL    HW2 3496   4.835   2.592   6.396 -0.3937  0.8923  0.1886
  497SOL     OW 3497   4.024   8.755   0.973 -0.2001 -0.2842  0.5383
  497SOL    HW1 3498   4.088   8.824   0.953  0.8090 -1.4969 -0.6791
  497SOL    HW2 3499   3.984   8.782   1.055  1.5276  0.7838  1.0860
  498SOL     OW 3500   4.220  11.078   9.456 -0.0228  0.0533  0.0915
  498SOL    HW1 3501   4.205  11.141   9.527 -0.8106  0.5087 -0.4709
  498SOL    HW2 3502   4.226  11.131   9.377  1.6005 -0.3879 -0.1221
  499SOL     OW 3503   0.720   3.732  10.916 -0.1937  0.8107  0.2688
  499SOL    HW1 3504   0.720   3.659  10.855  1.2712  0.1384  1.0269
  499SOL    HW2 3505   0.640   3.720  10.967  0.9487 -1.4284  1.6706
  500SOL     OW 3506   4.894   1.973  10.308 -0.2800  0.0829 -0.3235
  500SOL    HW1 3507   4.933   1.953  10.223  1.1831  0.1240  0.3113
  500SOL    HW2 3508   4.809   1.928  10.306 -0.7316  0.9228 -2.1746
  501SOL     OW 3509   5.577   0.057   4.012  1.1539 -0.0524 -0.0843
  501SOL    HW1 3510   5.557   0.147   3.986  2.5414  0.5522  0.8083
  501SOL    HW2 3511   5.648   0.030   3.954  0.2055 -0.8773 -0.8813
  502SOL     OW 3512   6.450   3.641   4.920 -0.3994 -0.2268 -0.2371
  502SOL    HW1 3513   6.497   3.567   4.883  1.0094  0.0184  0.9928
  502SOL    HW2 3514   6.393   3.603   4.987  0.1658 -0.2502  0.2433
  503SOL     OW 3515   1.360   3.249   2.086  0.4185  0.4298 -0.2239
  503SOL    HW1 3516   1.285   3.282   2.136  0.8506  0.4647  0.4090
  503SOL    HW2 3517   1.320   3.191   2.021 -0.1897  0.7103 -0.1126
  504SOL     OW 3518   8.989   5.386   9.884  0.3433 -0.6919 -0.2110
  504SOL    HW1 3519   8.974   5.343   9.800 -0.8521  1.9445 -1.4233
  504SOL    HW2 3520   8.917   5.356   9.939  0.0208 -0.9246 -0.7471
  505SOL     OW 3521  10.545   4.989   3.187 -0.1008 -0.4233  0.4291
  505SOL    HW1 3522  10.561   5.061   3.126 -0.4855 -0.6035  0.1154
  505SOL    HW2 3523  10.630   4.973   3.228  0.1485 -0.2750 -0.0275
  506SOL     OW 3524   3.302   4.024   5.531  0.4857  0.2327 -0.3278
  506SOL    HW1 3525   3.287   3.977   5.448 -1.4853 -0.7759  0.5385
  506SOL    HW2 3526   3.390   3.998   5.557  0.2659 -1.2689 -0.9840
  507SOL     OW 3527  10.770   0.126   7.902  0.4101  0.1136  0.3157
  507SOL    HW1 3528  10.722   0.184   7.844  2.6367  1.5057 -0.2858
  507SOL    HW2 3529  10.855   0.170   7.914  2.1664 -2.8896 -0.0391
  508SOL     OW 3530  11.252   5.755  10.331 -0.0940  0.2960 -0.7317
  508SOL    HW1 3531  11.319   5.746  10.264 -0.3723  2.2037 -1.3394
  508SOL    HW2 3532  11.300   5.745  10.414  1.4600  3.6065 -1.0597
  509SOL     OW 3533  10.209   6.043   0.228 -0.0109 -0.3027 -0.2394
  509SOL    HW1 3534  10.128   5.994   0.239  0.4818 -0.9939  0.4321
  509SOL    HW2 3535  10.275   5.976   0.209  0.3114  0.2972 -1.3411
  510SOL     OW 3536   9.033   7.464   6.340 -0.4052  0.1095  0.1381
  510SOL    HW1 3537   9.051   7.379   6.299  0.6604 -0.1113  1.0180
  510SOL    HW2 3538   8.962   7.447   6.401  0.0407 -0.2376  0.5672
  511SOL     OW 3539   6.465   7.403   6.229 -0.1901  0.3938 -0.1735
  511SOL    HW1 3540   6.531   7.362   6.174 -1.6716  0.0522 -1.8005
  511SOL    HW2 3541   6.476   7.497   6.215  1.6629  0.5417  1.7167
  512SOL     OW 3542   9.954   2.107   7.331  0.7345  0.1236 -0.0412
  512SOL    HW1 3543   9.933   2.191   7.371  0.1294 -1.4105  3.1744
  512SOL    HW2 3544  10.046   2.091   7.356  0.8133 -0.2054 -0.5292
  513SOL     OW 3545   2.568   7.226   5.938 -0.0360 -0.1395  0.1306
  513SOL    HW1 3546   2.488   7.247   5.987 -1.2986  3.2965 -2.9209
  513SOL    HW2 3547   2.637   7.276   5.983 -0.7273  1.1767 -0.2146
  514SOL     OW 3548   3.441   9.559   7.512  0.6833  0.2547 -0.6560
  514SOL    HW1 3549   3.464   9.628   7.575  2.0495  2.1275 -2.9962
  514SOL    HW2 3550   3.354   9.530   7.538  0.0522  2.8875  0.4990
  515SOL     OW 3551   1.904   7.410   8.825  0.2596  0.1823  0.6208
  515SOL    HW1 3552   1.943   7.341   8.878  1.2864  1.2865  1.3482
  515SOL    HW2 3553   1.976   7.469   8.804 -0.0968 -0.2437 -2.1245
  516SOL     OW 3554   2.953   6.824   6.088 -0.3104  0.0433 -0.3541
  516SOL    HW1 3555   2.894   6.893   6.058 -1.7806 -1.3765 -0.8626
  516SOL    HW2 3556   2.901   6.744   6.085  1.3002 -1.0971  0.3249
  517SOL     OW 3557   9.899   6.740   5.440 -0.3242 -0.0845  0.3231
  517SOL    HW1 3558   9.832   6.733   5.372  0.5238 -0.6378 -0.4779
  517SOL    HW2 3559   9.865   6.805   5.501 -0.8595  0.8280 -0.9105
  518SOL     OW 3560   3.063   5.513   1.046  0.3239 -0.6296  0.0854
  518SOL    HW1 3561   3.044   5.577   0.977  1.0739 -1.0456 -0.5166
  518SOL    HW2 3562   3.028   5.553   1.126 -0.9161 -0.3166 -0.5867
  519SOL     OW 3563   3.185   9.582  10.564  0.4368  0.2276  0.3054
  519SOL    HW1 3564   3.272   9.590  10.604  1.0478 -1.4914 -0.5880
  519SOL    HW2 3565   3.191   9.631  10.483  0.4551  0.4331  0.4322
  520SOL     OW 3566  11.278   9.080   6.984  0.1312  0.0488  0.1369
  520SOL    HW1 3567  11.239   9.117   7.064 -0.4954 -0.3235  0.0128
  520SOL    HW2 3568  11.300   9.156   6.931 -0.2892  0.2779  0.2834
  521SOL     OW 3569   1.011   8.623   8.339 -0.4068  0.6015  0.3069
  521SOL    HW1 3570   1.000   8.542   8.389  0.0790 -0.2731 -0.9573
  521SOL    HW2 3571   1.105   8.641   8.343 -0.1403 -0.2279 -1.3643
  522SOL     OW 3572   5.416   5.412   5.629  0.8682 -0.3077  0.1585
  522SOL    HW1 3573   5.406   5.321   5.657  1.9693 -0.8430 -1.0818
  522SOL    HW2 3574   5.385   5.413   5.539 -0.7840  0.9620  0.6911
  523SOL     OW 3575   6.667   8.962   4.932 -0.1378  0.0484 -0.4857
  523SOL    HW1 3576   6.712   8.971   5.016  1.1544 -0.1294 -1.1319
  523SOL    HW2 3577   6.727   9.002   4.869 -0.7112 -0.5700 -1.4392
  524SOL     OW 3578   5.657   5.145   3.449  0.0806 -0.5136 -0.2090
  524SOL    HW1 3579   5.630   5.123   3.539  1.2478 -2.0960 -0.1878
  524SOL    HW2 3580   5.576   5.168   3.404 -0.7538 -1.3180  0.8399
  525SOL     OW 3581  10.900  10.896   3.563  0.7197  0.4040  0.3412
  525SOL    HW1 3582  10.892  10.844   3.643  0.6921 -0.1783 -0.0351
  525SOL    HW2 3583  10.813  10.934   3.551  0.7442  0.5546  0.6257
  526SOL     OW 3584   3.291   1.200   6.970  1.0089 -0.2091 -0.0218
  526SOL    HW1 3585   3.342   1.191   7.051  2.4860  1.5650 -0.6764
  526SOL    HW2 3586   3.346   1.253   6.913  0.0663 -1.4977 -2.2787
  527SOL     OW 3587   2.309   4.346   3.461 -0.2568  1.0399  0.4162
  527SOL    HW1 3588   2.377   4.361   3.526 -0.2329 -0.2390  0.7164
  527SOL    HW2 3589   2.353   4.293   3.393 -1.4338 -1.7424  1.6655
  528SOL     OW 3590   0.828   9.366   3.779  1.2541 -0.2873  0.0154
  528SOL    HW1 3591   0.773   9.305   3.828  1.3119 -1.3746 -1.2110
  528SOL    HW2 3592   0.793   9.452   3.800 -0.6412 -0.9204 -0.3415
  529SOL     OW 3593   1.889   6.717   1.904  0.0861  0.1719 -0.5409
  529SOL    HW1 3594   1.826   6.702   1.834  0.0098  0.5049 -0.5458
  529SOL    HW2 3595   1.839   6.704   1.984 -0.8790  3.4678 -0.4348
  530SOL     OW 3596   0.769   9.756   9.331  0.5832 -0.6987  0.3818
  530SOL    HW1 3597   0.861   9.766   9.356  0.1615 -1.8431  2.6535
  530SOL    HW2 3598   0.771   9.707   9.249  1.9886  0.1085 -0.1065
  531SOL     OW 3599   1.558  10.304   1.199  0.2212 -0.4306  0.3960
  531SOL    HW1 3600   1.653  10.313   1.201  0.0118  3.2117  0.4329
  531SOL    HW2 3601   1.532  10.295   1.291  0.4396 -0.0474  0.4929
  532SOL     OW 3602   7.910   9.326   2.895 -0.2027 -0.0522  0.7050
  532SOL    HW1 3603   7.882   9.236   2.911 -1.6612  0.6204  2.3534
  532SOL    HW2 3604   7.830   9.378   2.905  0.7343  1.4913  0.5236
  533SOL     OW 3605   7.965   7.728   3.174 -0.6932  0.3430 -0.0926
  533SOL    HW1 3606   7.884   7.734   3.124 -0.6194  1.9203 -0.0843
  533SOL    HW2 3607   7.946   7.776   3.255 -0.1007 -0.2586  0.4216
  534SOL     OW 3608  10.481   5.135   9.431  0.4092  0.4358  0.2015
  534SOL    HW1 3609  10.563   5.154   9.477  0.3727 -0.2818  0.5709
  534SOL    HW2 3610  10.505   5.070   9.366  0.0423 -0.1234  0.6210
  535SOL     OW 3611   6.972   4.672   5.929  0.9287  0.1064  0.1428
  535SOL    HW1 3612   7.021   4.751   5.906  2.2498 -0.6783  0.1199
  535SOL    HW2 3613   7.039   4.603   5.933 -0.3652 -1.2922 -1.1688
  536SOL     OW 3614  10.461   0.576   6.284  0.5930 -0.2091 -0.0138
  536SOL    HW1 3615  10.419   0.572   6.370  0.0135 -0.2462 -0.2956
  536SOL    HW2 3616  10.553   0.594   6.304  0.1830  1.4442  0.5622
  537SOL     OW 3617   9.924   0.216   6.390  0.1225 -0.2464  0.0811
  537SOL    HW1 3618  10.016   0.189   6.393  0.6074  1.2987  0.3950
  537SOL    HW2 3619   9.874   0.135   6.391  1.4937 -1.1264 -0.4279
  538SOL     OW 3620   9.253   9.639   6.098 -0.0004  0.3801  0.1801
  538SOL    HW1 3621   9.216   9.554   6.119  2.0550 -0.6188  0.0039
  538SOL    HW2 3622   9.260   9.684   6.183  0.7435 -0.4194  0.5513
  539SOL     OW 3623   4.686   6.239   5.831 -0.2009 -0.6138  0.5490
  539SOL    HW1 3624   4.599   6.278   5.828 -0.0833 -0.3271  0.7730
  539SOL    HW2 3625   4.734   6.281   5.759 -0.0485 -0.2738  0.8431
  540SOL     OW 3626   7.837   7.901   2.261 -0.3826 -0.1662 -0.4641
  540SOL    HW1 3627   7.886   7.855   2.193 -0.2609 -2.6185  1.1644
  540SOL    HW2 3628   7.766   7.946   2.213  2.3914  2.2440 -2.6978
  541SOL     OW 3629   6.171   1.369   2.522  0.3008  0.3884  0.5066
  541SOL    HW1 3630   6.152   1.458   2.492 -0.8896 -0.4979 -1.6101
  541SOL    HW2 3631   6.103   1.351   2.586 -0.9673  0.2161 -0.8269
  542SOL     OW 3632   7.796   9.939   8.610  0.3682  0.5416  0.0977
  542SOL    HW1 3633   7.811  10.031   8.589  2.0931  0.6435  1.4692
  542SOL    HW2 3634   7.779   9.897   8.526 -0.2733  2.0711 -0.5714
  543SOL     OW 3635   5.177   7.393   1.002  0.5131 -0.1649 -0.2935
  543SOL    HW1 3636   5.105   7.412   1.062  1.2219  0.2824  0.4458
  543SOL    HW2 3637   5.253   7.384   1.059  0.6901 -2.8808 -0.8167
  544SOL     OW 3638   0.561  11.236  10.292  0.2870  0.2547  0.0765
  544SOL    HW1 3639   0.513  11.161  10.258  1.2007 -1.1479  1.7373
  544SOL    HW2 3640   0.499  11.283  10.347  0.2082 -0.2857  0.4451
  545SOL     OW 3641   6.769   6.036   1.271 -0.4828 -0.2010 -0.2930
  545SOL    HW1 3642   6.677   6.021   1.293 -0.0181 -1.2395  1.0852
  545SOL    HW2 3643   6.770   6.043   1.175 -2.2964  2.2351 -0.2407
  546SOL     OW 3644  10.023   2.903   3.997 -0.4314 -0.2672 -0.1860
  546SOL    HW1 3645  10.104   2.854   3.982  0.5710  1.4741 -0.6866
  546SOL    HW2 3646   9.988   2.867   4.079  1.2266 -0.5730  0.4310
  547SOL     OW 3647   6.001   6.525   9.420  0.8054  0.2566  0.7703
  547SOL    HW1 3648   6.020   6.434   9.446  0.7172 -0.0304 -0.1349
  547SOL    HW2 3649   6.087   6.564   9.404  0.8475  0.3646  1.2337
  548SOL     OW 3650   2.405   6.291   7.731 -0.5597 -0.7549  0.2546
  548SOL    HW1 3651   2.316   6.302   7.698 -0.6035 -2.9663 -0.5822
  548SOL    HW2 3652   2.405   6.333   7.817 -1.7873  1.0681 -0.5851
  549SOL     OW 3653   7.671   8.086   0.095  0.4047  0.5481 -0.3684
  549SOL    HW1 3654   7.587   8.067   0.135  1.2632 -1.2880  0.7195
  549SOL    HW2 3655   7.702   8.001   0.063  0.5371  1.6371 -3.5438
  550SOL     OW 3656   4.556   7.187   3.105 -0.2756 -0.1958  0.0632
  550SOL    HW1 3657   4.573   7.207   3.013  1.1165 -1.7351 -0.0589
  550SOL    HW2 3658   4.471   7.227   3.123 -0.5183  0.2390 -1.8405
  551SOL     OW 3659   4.062   9.054   1.868 -0.1611 -0.8669  0.3035
  551SOL    HW1 3660   4.133   8.992   1.850 -1.7505 -2.1782 -2.0275
  551SOL    HW2 3661   3.998   9.002   1.917 -1.7239 -1.3770 -2.0815
  552SOL     OW 3662   1.963   1.142   7.919  0.2946  0.5385 -0.0365
  552SOL    HW1 3663   1.976   1.055   7.881 -0.2938  0.2187  0.4876
  552SOL    HW2 3664   1.881   1.173   7.880  0.2113  0.6262  0.2120
  553SOL     OW 3665   1.932   0.266   1.864 -0.1274 -0.4655 -0.6231
  553SOL    HW1 3666   1.922   0.199   1.797 -1.2568 -0.3406 -0.6061
  553SOL    HW2 3667   1.861   0.328   1.847  0.7700  0.6259 -0.5106
  554SOL     OW 3668  10.027   4.180   8.606 -0.5743 -0.6668 -0.3547
  554SOL    HW1 3669  10.024   4.274   8.591 -2.8144 -0.8992 -1.9046
  554SOL    HW2 3670   9.935   4.154   8.616  0.0786 -2.2802  3.3173
  555SOL     OW 3671   1.288  10.114   8.977  0.1730  0.5563 -0.0894
  555SOL    HW1 3672   1.369  10.068   8.953 -0.3458 -0.1265 -0.5451
  555SOL    HW2 3673   1.249  10.138   8.893  0.4433  1.8687  0.1401
  556SOL     OW 3674   2.682   3.604   6.708 -0.4850  0.3945  0.5276
  556SOL    HW1 3675   2.689   3.610   6.612 -0.7980  1.0766  0.5410
  556SOL    HW2 3676   2.614   3.539   6.723 -0.7971  0.6583  0.2768
  557SOL     OW 3677   0.934   5.611   1.665 -0.0900  0.2432 -0.5460
  557SOL    HW1 3678   0.926   5.633   1.573  2.8523 -2.0129 -1.5085
  557SOL    HW2 3679   0.903   5.521   1.672  3.0587 -0.9783 -0.2590
  558SOL     OW 3680   4.689   9.211  10.093  0.0314 -0.4544  0.4949
  558SOL    HW1 3681   4.602   9.182  10.122 -0.4930  0.1242 -0.4544
  558SOL    HW2 3682   4.671   9.288  10.038  1.1253 -0.4879  0.0824
  559SOL     OW 3683   4.269   2.369   4.135 -0.1159 -0.4030  0.1661
  559SOL    HW1 3684   4.309   2.384   4.220  0.8424  0.5197 -0.4247
  559SOL    HW2 3685   4.287   2.277   4.115  0.9190 -0.2469  0.3258
  560SOL     OW 3686   8.707   4.123   9.219 -0.5556  0.2130 -0.4238
  560SOL    HW1 3687   8.649   4.199   9.213  0.1073  0.6988 -0.8677
  560SOL    HW2 3688   8.708   4.101   9.312 -1.7574 -0.0625 -0.4567
  561SOL     OW 3689   4.331   0.402   7.241 -0.2854  0.0500  0.3836
  561SOL    HW1 3690   4.388   0.326   7.226 -1.5671 -0.5637 -1.9713
  561SOL    HW2 3691   4.381   0.458   7.300  2.6383 -0.6090 -1.2387
  562SOL     OW 3692   8.673   1.867   5.906 -0.2416 -0.0484 -0.2956
  562SOL    HW1 3693   8.687   1.875   5.812  1.8289  0.1258 -0.0150
  562SOL    HW2 3694   8.668   1.772   5.921 -4.7945 -0.1275 -1.0318
  563SOL     OW 3695   5.389   8.706   0.541 -0.1802  0.3782 -0.3210
  563SOL    HW1 3696   5.325   8.635   0.534  1.3926 -1.0818 -0.5220
  563SOL    HW2 3697   5.336   8.785   0.549 -2.0013 -0.8114 -0.0089
  564SOL     OW 3698   7.241   8.201   2.135 -0.4806 -0.1214 -0.0917
  564SOL    HW1 3699   7.197   8.160   2.210  3.5223 -1.6853  1.7149
  564SOL    HW2 3700   7.276   8.127   2.085  0.0846  0.9667 -1.3629
  565SOL     OW 3701   9.887   9.786   4.841  0.0846 -0.7538  0.4321
  565SOL    HW1 3702   9.814   9.750   4.891  1.5171 -3.6701  0.6109
  565SOL    HW2 3703   9.939   9.710   4.815  2.8373  1.1430 -0.0895
  566SOL     OW 3704   1.273   9.055  10.861 -1.0215 -0.4224  0.3058
  566SOL    HW1 3705   1.330   8.993  10.816 -1.8169 -0.6577 -0.3990
  566SOL    HW2 3706   1.233   9.106  10.791 -2.6987 -1.1460  0.6923
  567SOL     OW 3707   3.333   5.139   5.547 -0.4659 -0.2618 -0.0317
  567SOL    HW1 3708   3.281   5.208   5.589 -0.3385  0.1503 -0.5432
  567SOL    HW2 3709   3.269   5.089   5.495 -0.8248 -1.4560  1.4811
  568SOL     OW 3710   9.637  10.367   3.178  0.0728 -0.3869 -0.2258
  568SOL    HW1 3711   9.543  10.377   3.197  0.2281 -0.3416  0.5927
  568SOL    HW2 3712   9.647  10.277   3.149 -0.2456 -0.3485 -0.4620
  569SOL     OW 3713   8.430  10.196   5.295 -0.1127  0.4146 -0.8694
  569SOL    HW1 3714   8.479  10.233   5.222  0.6913 -0.6932 -0.9102
  569SOL    HW2 3715   8.422  10.103   5.275  0.7427 -0.0485  0.7637
  570SOL     OW 3716  10.500   1.642   0.506 -0.0846  0.3593  0.1163
  570SOL    HW1 3717  10.496   1.582   0.581 -0.4601  0.6598  0.3417
  570SOL    HW2 3718  10.580   1.692   0.519  0.1498  0.0191  0.0094
  571SOL     OW 3719   2.157   7.083   4.332  0.1908  0.4284 -0.1106
  571SOL    HW1 3720   2.142   7.133   4.412  0.7976 -0.1315  0.3653
  571SOL    HW2 3721   2.073   7.042   4.313  0.2391 -0.0651  0.6844
  572SOL     OW 3722   2.745   6.563   2.896  0.1233 -0.7856  0.6262
  572SOL    HW1 3723   2.798   6.484   2.901 -0.6585 -1.3465  0.2096
  572SOL    HW2 3724   2.657   6.535   2.924 -0.5477 -0.4494 -1.0183
  573SOL     OW 3725   0.988   1.613   3.004  0.0173 -0.2792 -0.2154
  573SOL    HW1 3726   1.021   1.526   3.028  0.1418 -0.1181  0.2066
  573SOL    HW2 3727   1.060   1.672   3.027 -0.2054 -0.0274 -0.1691
  574SOL     OW 3728   6.972   2.873  10.224 -0.5057  0.3941 -0.2217
  574SOL    HW1 3729   6.900   2.838  10.276 -0.3274  0.6812  0.2303
  574SOL    HW2 3730   6.998   2.801  10.166  0.5722 -0.5944  1.4281
  575SOL     OW 3731   7.346  10.574   3.900 -0.1276 -0.2166 -0.4252
  575SOL    HW1 3732   7.403  10.570   3.824 -0.2094  3.0521 -0.7873
  575SOL    HW2 3733   7.258  10.555   3.866  0.3731 -4.5064  0.0148
  576SOL     OW 3734  10.397   9.267   0.651  0.3702  0.7281  0.5394
  576SOL    HW1 3735  10.382   9.208   0.726  1.7131  1.2962  1.3079
  576SOL    HW2 3736  10.342   9.343   0.669 -2.3121 -0.6967 -1.0665
  577SOL     OW 3737   7.923   2.653   7.110  0.0034  0.5685  0.3039
  577SOL    HW1 3738   7.894   2.565   7.134  2.0339 -0.4923 -0.8703
  577SOL    HW2 3739   7.877   2.671   7.028  1.3643 -0.4743 -0.7482
  578SOL     OW 3740  11.076   0.104   4.323  0.0930 -0.3557  0.0208
  578SOL    HW1 3741  11.049   0.054   4.400  3.9934  1.8556  3.1637
  578SOL    HW2 3742  11.047   0.193   4.340  0.8452  0.1564 -1.1909
  579SOL     OW 3743   0.486   8.624   6.968 -0.3899 -0.1131 -0.1787
  579SOL    HW1 3744   0.490   8.707   6.921  0.4025  0.2445  0.5029
  579SOL    HW2 3745   0.576   8.608   6.996 -0.3755 -1.6172 -0.9929
  580SOL     OW 3746  10.753   7.923   9.346 -0.4510  0.4281  0.4434
  580SOL    HW1 3747  10.766   7.903   9.253 -0.0914 -1.4426  0.8460
  580SOL    HW2 3748  10.691   7.857   9.376 -1.6791  1.8764  1.2556
  581SOL     OW 3749   6.491   4.540   4.084 -0.2448 -0.3060 -0.4557
  581SOL    HW1 3750   6.564   4.565   4.141  0.5245 -0.3643 -1.4017
  581SOL    HW2 3751   6.415   4.543   4.142  0.7371 -2.1549  1.0616
  582SOL     OW 3752   8.192   7.251   3.297 -0.8556  0.0503 -1.1618
  582SOL    HW1 3753   8.286   7.244   3.283 -0.8439  0.3516 -1.2547
  582SOL    HW2 3754   8.171   7.342   3.273 -0.6571  0.9840  1.6992
  583SOL     OW 3755   6.279   5.089  11.272  0.3868  0.3312 -0.2288
  583SOL    HW1 3756   6.313   5.001  11.258 -1.0848 -0.3443  0.1926
  583SOL    HW2 3757   6.333   5.146  11.217  3.2578 -0.3986  1.6427
  584SOL     OW 3758   2.997   3.065   1.034  0.0590  0.1324 -0.3476
  584SOL    HW1 3759   2.903   3.054   1.048  0.2764  0.3824  1.5303
  584SOL    HW2 3760   3.006   3.071   0.939 -2.0291  1.8731 -0.5262
  585SOL     OW 3761   7.564   2.049   8.385  0.6592  0.5044  0.1067
  585SOL    HW1 3762   7.474   2.076   8.367 -0.1797 -1.5235  0.9393
  585SOL    HW2 3763   7.604   2.044   8.298 -1.2704 -2.3637 -0.8005
  586SOL     OW 3764   5.071   9.999  10.624  0.4622 -0.5881 -0.3716
  586SOL    HW1 3765   4.981  10.009  10.594  0.1918 -0.7377  0.3812
  586SOL    HW2 3766   5.071  10.029  10.715  1.1495 -0.6858 -0.3269
  587SOL     OW 3767   1.893   9.258   6.847  0.1842 -0.3536 -0.0098
  587SOL    HW1 3768   1.856   9.319   6.910  1.2594  0.1649  0.1277
  587SOL    HW2 3769   1.881   9.172   6.887  0.6813 -0.0450  0.8029
  588SOL     OW 3770   2.167   2.296   4.560 -0.0322 -0.0528 -0.6598
  588SOL    HW1 3771   2.102   2.246   4.609 -0.3156  1.1828  0.2742
  588SOL    HW2 3772   2.181   2.375   4.612  0.4872  0.7904 -2.0136
  589SOL     OW 3773   6.790   0.710   7.512 -0.0655 -0.9799 -0.9214
  589SOL    HW1 3774   6.748   0.796   7.516  1.2446 -0.3628  2.0664
  589SOL    HW2 3775   6.769   0.677   7.425 -1.2508  2.0237 -1.8883
  590SOL     OW 3776   4.600   8.204   0.649  0.4656 -0.0084 -0.4015
  590SOL    HW1 3777   4.569   8.114   0.639 -1.8547  0.7728 -0.8122
  590SOL    HW2 3778   4.687   8.203   0.609  0.9789 -2.2957  0.6159
  591SOL     OW 3779   8.791   2.336  10.011  0.0815  0.1576 -0.2772
  591SOL    HW1 3780   8.767   2.404  10.074 -0.2282  1.6606 -1.9418
  591SOL    HW2 3781   8.778   2.377   9.925 -0.2432 -2.0690 -1.3517
  592SOL     OW 3782   5.223  10.142  10.335  0.1177 -0.1072 -0.1070
  592SOL    HW1 3783   5.227  10.168  10.427  0.0802  0.6797 -0.3174
  592SOL    HW2 3784   5.160  10.203  10.296 -3.1455 -2.9780  0.1538
  593SOL     OW 3785   3.830   4.090   4.718 -0.0465  0.1523  0.2048
  593SOL    HW1 3786   3.914   4.045   4.705 -0.8062 -0.7067 -2.3530
  593SOL    HW2 3787   3.793   4.050   4.797  0.8050 -1.3480 -0.1151
  594SOL     OW 3788   3.754  10.649   3.487  0.8626  0.1461 -0.4002
  594SOL    HW1 3789   3.812  10.718   3.520  0.0002  0.4223  0.5547
  594SOL    HW2 3790   3.666  10.677   3.512  0.6226 -2.1695  1.6054
  595SOL     OW 3791   4.798   3.475   1.931 -0.1365  0.0588 -0.6464
  595SOL    HW1 3792   4.735   3.403   1.924 -3.1299  2.2279  1.5366
  595SOL    HW2 3793   4.784   3.527   1.851  0.8047 -0.8059 -1.3975
  596SOL     OW 3794   7.441   2.628   9.090  0.6488  0.7154  0.0597
  596SOL    HW1 3795   7.525   2.670   9.069  2.2114 -2.1239  0.1062
  596SOL    HW2 3796   7.457   2.535   9.077 -2.4396  0.0163  0.4717
  597SOL     OW 3797   9.132   5.066  10.601 -0.0898  0.3626  0.4438
  597SOL    HW1 3798   9.199   5.060  10.533  0.8631  0.9305  1.3025
  597SOL    HW2 3799   9.166   5.014  10.673  0.3986  2.2584  1.6418
  598SOL     OW 3800  10.105   4.918   1.985  0.2611  0.3946  0.0160
  598SOL    HW1 3801  10.067   4.868   2.057 -0.0525 -0.1314 -0.5044
  598SOL    HW2 3802  10.173   4.861   1.949 -0.7288 -0.0984 -1.1812
  599SOL     OW 3803   3.293   4.157   2.143  0.5203 -0.3155  0.4126
  599SOL    HW1 3804   3.337   4.227   2.191 -0.2950  1.3161 -1.1015
  599SOL    HW2 3805   3.205   4.153   2.183  0.9824 -1.4402  1.3788
  600SOL     OW 3806   7.155   5.095   2.818  1.2091  0.5975 -0.1604
  600SOL    HW1 3807   7.116   5.064   2.736 -0.2000  2.8904 -0.4225
  600SOL    HW2 3808   7.084   5.092   2.881  1.5116  1.5977  0.2410
  601SOL     OW 3809   9.655   3.418   9.490  0.5625 -0.4680 -0.4489
  601SOL    HW1 3810   9.586   3.475   9.455  0.8699  0.2857  0.1426
  601SOL    HW2 3811   9.718   3.478   9.529  0.1721 -1.2394  1.5175
  602SOL     OW 3812   1.296   3.014   5.141 -0.4045  0.3124  0.8888
  602SOL    HW1 3813   1.366   3.067   5.179  0.9816  0.2199 -1.3671
  602SOL    HW2 3814   1.265   3.065   5.066 -0.2197 -1.2344 -0.3001
  603SOL     OW 3815   0.905   2.944   8.968  0.4095  0.0381  0.6318
  603SOL    HW1 3816   0.951   2.909   8.892  0.3155 -0.2183  0.6933
  603SOL    HW2 3817   0.908   3.039   8.956 -0.1411 -0.0143 -0.0126
  604SOL     OW 3818   2.649   6.734   4.415  0.1664  0.0771  0.6717
  604SOL    HW1 3819   2.670   6.809   4.471  0.2281 -0.0837  0.8661
  604SOL    HW2 3820   2.649   6.769   4.326 -0.4563  0.4476  0.8176
  605SOL     OW 3821   3.066   5.588   7.378  0.3296  0.2551  0.5113
  605SOL    HW1 3822   3.021   5.672   7.370  0.4021  0.2837  0.3968
  605SOL    HW2 3823   3.066   5.552   7.290 -0.4136 -0.2374  0.7123
  606SOL     OW 3824  11.131   8.827   7.119  0.9955 -0.6975 -0.2559
  606SOL    HW1 3825  11.183   8.817   7.198  1.2310  1.8312 -0.0024
  606SOL    HW2 3826  11.182   8.888   7.064 -1.6537  2.1190  0.1146
  607SOL     OW 3827   9.204   7.844  11.070  0.0914 -0.7369 -0.5894
  607SOL    HW1 3828   9.222   7.870  10.980 -2.0590 -1.0705 -1.1777
  607SOL    HW2 3829   9.274   7.783  11.092  2.1321  1.3120 -1.0631
  608SOL     OW 3830   9.526  10.151  10.660 -0.3190  0.2917 -0.2663
  608SOL    HW1 3831   9.523  10.192  10.573 -1.1586  1.4018  0.2559
  608SOL    HW2 3832   9.434  10.138  10.683 -0.0835 -0.7485  0.1326
  609SOL     OW 3833   5.004   0.191   6.631  0.1110  0.4574  0.1155
  609SOL    HW1 3834   5.011   0.120   6.696 -1.8892 -0.0881 -0.1995
  609SOL    HW2 3835   5.095   0.207   6.604  0.8041 -0.6496  1.5917
  610SOL     OW 3836  10.030   0.226   7.213  1.0213 -0.5798  0.5082
  610SOL    HW1 3837  10.110   0.237   7.163  0.1226  3.9773 -0.4505
  610SOL    HW2 3838   9.994   0.315   7.219 -2.6027 -1.9770  3.1811
  611SOL     OW 3839   6.271   5.079   6.443  0.0101  0.1422  0.3717
  611SOL    HW1 3840   6.210   5.148   6.469  0.4232  0.7038 -0.1137
  611SOL    HW2 3841   6.347   5.126   6.408  0.9049 -0.5360  1.3441
  612SOL     OW 3842   1.950   0.535   9.330  0.1841 -0.2931 -0.0977
  612SOL    HW1 3843   1.908   0.557   9.247  1.0170 -2.1505 -1.0660
  612SOL    HW2 3844   2.023   0.597   9.337  0.0101 -0.0191 -0.6626
  613SOL     OW 3845   9.660   0.865   6.826  0.8286  0.2135 -0.1151
  613SOL    HW1 3846   9.679   0.810   6.902  2.7166  0.5757 -0.2860
  613SOL    HW2 3847   9.577   0.908   6.848 -0.3930 -2.1888  0.2647
  614SOL     OW 3848   7.759  10.880   0.286  0.2872  0.3937 -0.1529
  614SOL    HW1 3849   7.669  10.911   0.276  0.5300  1.1227 -0.1548
  614SOL    HW2 3850   7.763  10.845   0.375  0.1782  0.9938  0.0924
  615SOL     OW 3851  11.139   6.744   8.072  0.0229 -0.3339 -0.0214
  615SOL    HW1 3852  11.226   6.721   8.040 -0.0974  1.0840 -1.4803
  615SOL    HW2 3853  11.145   6.836   8.097 -0.6614 -0.6402  1.3952
  616SOL     OW 3854   0.573  10.080   0.519 -0.1674  0.3391  0.0090
  616SOL    HW1 3855   0.535  10.066   0.605 -2.4848 -1.0609 -1.1448
  616SOL    HW2 3856   0.518  10.148   0.480  0.2355  0.2566 -0.7159
  617SOL     OW 3857   7.077  11.202   1.470  0.1771 -0.0240 -0.2711
  617SOL    HW1 3858   6.992  11.169   1.442  1.7932 -2.3370 -3.0592
  617SOL    HW2 3859   7.093  11.278   1.415  0.8994 -1.1150 -1.6402
  618SOL     OW 3860   5.545  11.144  11.064 -0.2687 -0.0800  0.0497
  618SOL    HW1 3861   5.503  11.201  10.999 -0.9028  0.2823  0.7499
  618SOL    HW2 3862   5.483  11.072  11.076 -0.7639  0.4898  1.1356
  619SOL     OW 3863   5.378   9.932   2.209 -0.3212 -0.0594  0.7246
  619SOL    HW1 3864   5.359   9.928   2.115 -1.9172  0.1384  1.0107
  619SOL    HW2 3865   5.305   9.982   2.246  1.5918  2.1657  1.7538
  620SOL     OW 3866   2.395   6.314   6.296 -0.1467  0.5738  0.5095
  620SOL    HW1 3867   2.336   6.266   6.354  1.0630  0.7836  1.9846
  620SOL    HW2 3868   2.368   6.289   6.208  0.5275 -2.9659  1.1764
  621SOL     OW 3869   0.119   2.730   7.890 -0.7806  0.1836  0.7520
  621SOL    HW1 3870   0.028   2.758   7.886 -1.7928 -2.8203  0.4086
  621SOL    HW2 3871   0.128   2.689   7.976 -0.2500 -0.9088  0.2087
  622SOL     OW 3872   6.902   8.379   6.670 -0.2855  0.1795  0.2568
  622SOL    HW1 3873   6.899   8.304   6.729  0.6790 -1.3582 -1.5505
  622SOL    HW2 3874   6.996   8.397   6.658 -0.4544  0.4255 -0.8309
  623SOL     OW 3875   9.616   8.959   7.145  0.0420 -0.2366  0.0302
  623SOL    HW1 3876   9.686   8.958   7.080  0.9887 -1.3833  1.0011
  623SOL    HW2 3877   9.603   9.052   7.165 -0.1483  0.1171 -1.6254
  624SOL     OW 3878   6.006   4.604   6.323  0.2573 -0.4734  0.1501
  624SOL    HW1 3879   5.914   4.577   6.327  0.0848  0.1463  0.4792
  624SOL    HW2 3880   6.004   4.696   6.346  1.1288 -0.7753  1.4900
  625SOL     OW 3881   9.341   4.121   3.860  0.1113 -0.6193 -1.2043
  625SOL    HW1 3882   9.262   4.163   3.894  0.4048 -0.3077 -0.8950
  625SOL    HW2 3883   9.411   4.185   3.877  0.6024 -1.3064 -0.5701
  626SOL     OW 3884   3.245   8.542  11.051 -0.1089  0.1765 -0.5325
  626SOL    HW1 3885   3.264   8.603  10.980 -0.9462  2.0648  0.7588
  626SOL    HW2 3886   3.194   8.472  11.011 -0.9522  1.4231 -1.7172
  627SOL     OW 3887  10.376   0.938   5.277 -0.8952  0.3956 -0.9265
  627SOL    HW1 3888  10.361   0.845   5.292 -1.5911  0.5130 -0.8517
  627SOL    HW2 3889  10.450   0.941   5.217  0.9135 -0.1328  1.1635
  628SOL     OW 3890   6.514  11.216   6.031 -0.1304  0.6790 -0.2359
  628SOL    HW1 3891   6.544  11.301   5.998 -1.1359  1.0859 -0.1633
  628SOL    HW2 3892   6.433  11.200   5.982 -1.5952  1.2409  1.8765
  629SOL     OW 3893   7.422   5.430   1.244  0.2996  0.8672  0.2408
  629SOL    HW1 3894   7.335   5.469   1.232 -0.3713  0.1088  2.3038
  629SOL    HW2 3895   7.483   5.500   1.222 -0.8656  2.2090  1.1515
  630SOL     OW 3896   2.355  11.143   1.772 -0.6123 -0.9671  0.2260
  630SOL    HW1 3897   2.372  11.154   1.678 -1.4616  0.9572  0.2529
  630SOL    HW2 3898   2.317  11.226   1.799 -1.3104 -1.8409  2.0880
  631SOL     OW 3899   4.291   7.600   7.705  0.1169 -0.0096  0.0544
  631SOL    HW1 3900   4.217   7.645   7.746  1.2436  2.0877 -0.0848
  631SOL    HW2 3901   4.368   7.636   7.748  1.2471  0.8028 -2.4334
  632SOL     OW 3902   3.484   1.707   9.001  0.1596 -0.4309 -0.0831
  632SOL    HW1 3903   3.482   1.796   8.965  0.3310  0.5369  2.1486
  632SOL    HW2 3904   3.570   1.673   8.976  1.0156  0.8971  0.9287
  633SOL     OW 3905   6.783   2.802   1.779  0.7599  0.4934  0.2251
  633SOL    HW1 3906   6.739   2.760   1.705 -0.6870  0.4642  1.0584
  633SOL    HW2 3907   6.876   2.796   1.759  0.5347 -1.8104 -0.3708
  634SOL     OW 3908   4.137   4.709  10.661 -0.3134 -0.4089  0.6843
  634SOL    HW1 3909   4.068   4.773  10.679 -0.6906 -0.0222 -1.8130
  634SOL    HW2 3910   4.193   4.751  10.596  0.1237 -2.1105 -0.1023
  635SOL     OW 3911   6.148   4.786   1.136 -0.1162 -0.6294 -0.3234
  635SOL    HW1 3912   6.085   4.859   1.137  0.0682 -0.4310 -1.5669
  635SOL    HW2 3913   6.120   4.732   1.063  0.9346 -0.7477 -0.6502
  636SOL     OW 3914   2.992   7.581   9.320 -0.3083  0.0966 -0.1867
  636SOL    HW1 3915   3.042   7.515   9.273 -1.0493  0.1853 -1.1325
  636SOL    HW2 3916   3.013   7.566   9.413  1.5443  0.2427 -0.5622
  637SOL     OW 3917   6.103   2.967   6.841 -0.7014  0.1898  0.2083
  637SOL    HW1 3918   6.108   2.874   6.819  0.2117  0.9542 -3.4326
  637SOL    HW2 3919   6.170   2.979   6.909  0.3268 -1.5489 -0.4213
  638SOL     OW 3920   0.356   6.489   1.560  0.0318  0.4616  0.0372
  638SOL    HW1 3921   0.425   6.548   1.529  0.0422  0.8422  0.7584
  638SOL    HW2 3922   0.346   6.510   1.653 -1.5815  0.9433 -0.2095
  639SOL     OW 3923   8.922   7.392   0.289 -0.1872  0.0312 -0.0158
  639SOL    HW1 3924   8.830   7.374   0.271 -0.8243  1.6659  1.3538
  639SOL    HW2 3925   8.937   7.358   0.377 -0.0023  1.3024  0.4782
  640SOL     OW 3926   0.598   0.637  10.383 -0.2617 -0.1777  0.0985
  640SOL    HW1 3927   0.575   0.716  10.432  1.1372 -0.3220  1.0487
  640SOL    HW2 3928   0.621   0.573  10.450  2.0278 -0.2873 -0.6986
  641SOL     OW 3929   6.758   3.684   5.214  0.3324 -0.0638  0.1922
  641SOL    HW1 3930   6.851   3.689   5.191  0.3949  0.6876  0.5769
  641SOL    HW2 3931   6.713   3.733   5.146  0.3725  0.8763  0.8307
  642SOL     OW 3932   5.346  10.222   8.575 -0.0342  0.8171  0.3264
  642SOL    HW1 3933   5.337  10.300   8.520  1.2017 -0.9205 -2.5962
  642SOL    HW2 3934   5.427  10.236   8.624  1.2511  0.6331 -1.6433
  643SOL     OW 3935   3.252   3.545   6.225 -0.3471  0.2756  0.2271
  643SOL    HW1 3936   3.184   3.517   6.164 -1.7527  0.2771  1.7237
  643SOL    HW2 3937   3.323   3.576   6.169 -1.5479  0.2422 -1.3984
  644SOL     OW 3938   4.369   7.985   8.759  0.2150  0.0285  0.2314
  644SOL    HW1 3939   4.450   8.020   8.722 -0.0243 -0.4233 -0.7551
  644SOL    HW2 3940   4.381   7.890   8.755 -0.0739 -0.0318  0.7530
  645SOL     OW 3941   0.350   8.047   3.757 -0.1504  0.4279 -0.4596
  645SOL    HW1 3942   0.309   8.081   3.837  1.0852  1.9271 -0.4221
  645SOL    HW2 3943   0.366   8.124   3.703  0.9467 -0.3253 -1.2503
  646SOL     OW 3944   6.199   1.547   9.743  0.4348  0.0778  0.4649
  646SOL    HW1 3945   6.284   1.504   9.738 -0.1140 -1.1521  1.1489
  646SOL    HW2 3946   6.157   1.509   9.820 -1.3227 -0.4838 -0.6917
  647SOL     OW 3947   1.016   9.945   9.458  1.4665 -0.0319  0.0490
  647SOL    HW1 3948   1.028  10.020   9.516 -0.0652  1.5665 -1.5866
  647SOL    HW2 3949   1.051   9.975   9.374  2.2288 -1.7339 -0.2706
  648SOL     OW 3950   3.034   3.059   3.546  0.1450 -0.4297  0.1891
  648SOL    HW1 3951   3.129   3.063   3.532 -0.1118  3.4097 -1.9084
  648SOL    HW2 3952   3.016   3.126   3.611 -1.2208  0.0717 -0.6448
  649SOL     OW 3953   0.265   0.410   3.354  1.0508 -0.0270  0.3525
  649SOL    HW1 3954   0.255   0.336   3.414 -0.3324 -1.1084 -1.1288
  649SOL    HW2 3955   0.198   0.472   3.382  1.8218  0.4373  1.2261
  650SOL     OW 3956   2.649   1.594   7.449  0.0791  0.0774  0.5502
  650SOL    HW1 3957   2.601   1.572   7.369 -1.7751 -0.4344  1.7447
  650SOL    HW2 3958   2.586   1.578   7.520  1.4196  1.2133  2.0667
  651SOL     OW 3959   2.633   9.316   1.482  0.4753  0.1159 -0.1675
  651SOL    HW1 3960   2.722   9.353   1.482  0.8867 -0.8579 -0.3407
  651SOL    HW2 3961   2.643   9.230   1.521 -0.3495 -0.1293 -0.4810
  652SOL     OW 3962   9.952   4.288   6.884  0.1445  0.5287 -0.9147
  652SOL    HW1 3963   9.944   4.264   6.792 -1.7039  0.8819 -0.8833
  652SOL    HW2 3964   9.880   4.243   6.927  0.0394  1.6112  0.0975
  653SOL     OW 3965   2.578   5.435   7.811 -0.0960  0.4922  0.3264
  653SOL    HW1 3966   2.663   5.430   7.855  0.1560 -0.9274 -0.2805
  653SOL    HW2 3967   2.569   5.352   7.765  0.2774  2.2856 -3.4273
  654SOL     OW 3968   4.605   4.425   8.975 -0.0507 -0.1126 -0.2402
  654SOL    HW1 3969   4.533   4.459   8.921 -0.5879 -0.4699  0.2425
  654SOL    HW2 3970   4.625   4.339   8.938  1.1102  0.5688 -1.2735
  655SOL     OW 3971   9.224   0.329   5.708 -0.0303 -0.2600 -0.8396
  655SOL    HW1 3972   9.159   0.262   5.730  0.4109 -0.4642 -0.1322
  655SOL    HW2 3973   9.217   0.393   5.780 -0.7562  0.6966 -1.7235
  656SOL     OW 3974   9.896   7.851   8.676 -0.6691  0.4556  0.0026
  656SOL    HW1 3975   9.904   7.938   8.713 -0.3940  0.4978 -0.1469
  656SOL    HW2 3976   9.972   7.843   8.618 -0.9887  0.3221 -0.4005
  657SOL     OW 3977   2.980   5.146   6.540 -0.1211 -0.0033  0.0345
  657SOL    HW1 3978   2.902   5.164   6.487  0.2481  0.1511 -0.4692
  657SOL    HW2 3979   3.039   5.219   6.522 -0.8296  1.2330  2.3816
  658SOL     OW 3980   9.940   7.053  10.313  1.3091  0.1710 -0.5403
  658SOL    HW1 3981   9.904   7.140  10.326  1.8700  0.2290  0.7220
  658SOL    HW2 3982   9.876   6.994  10.352  0.5281 -0.0805 -2.1143
  659SOL     OW 3983   1.915   6.507   8.362  0.0865 -0.1583 -0.6301
  659SOL    HW1 3984   1.847   6.549   8.309  0.8735  2.2606  0.1820
  659SOL    HW2 3985   1.985   6.487   8.299 -0.0023  0.4278 -0.9199
  660SOL     OW 3986   7.582   9.464   6.163 -0.2578  0.6345 -0.1536
  660SOL    HW1 3987   7.517   9.395   6.151  0.8822 -1.3183  3.3505
  660SOL    HW2 3988   7.661   9.430   6.122 -0.5944  1.6906 -1.7885
  661SOL     OW 3989   8.773   7.095   4.246 -0.4790 -0.4460 -0.4764
  661SOL    HW1 3990   8.700   7.157   4.249  0.4283  0.7272 -1.3303
  661SOL    HW2 3991   8.831   7.131   4.178  1.5407 -0.5764  1.0956
  662SOL     OW 3992  11.120   8.513   1.413 -0.2141  1.3719  0.1233
  662SOL    HW1 3993  11.083   8.557   1.489 -0.6756  0.0452  0.6884
  662SOL    HW2 3994  11.045   8.495   1.356 -0.4767 -0.9810  1.0982
  663SOL     OW 3995   2.319   8.694   5.580 -0.3346 -0.7061  0.3736
  663SOL    HW1 3996   2.271   8.673   5.660  0.3869 -1.2017  0.6884
  663SOL    HW2 3997   2.324   8.611   5.533 -1.5669 -0.2304 -0.6581
  664SOL     OW 3998   0.975   8.062  10.336  0.3053  0.4586 -0.1041
  664SOL    HW1 3999   1.063   8.054  10.298  0.3553  0.3120  0.0419
  664SOL    HW2 4000   0.919   8.010  10.278  0.8812 -2.3853  1.6876
  665SOL     OW 4001   4.433   2.792   0.895  0.8788  0.6032  0.1510
  665SOL    HW1 4002   4.439   2.815   0.802  1.0460  1.6221  0.4010
  665SOL    HW2 4003   4.459   2.871   0.941 -0.6549  0.5933  1.0955
  666SOL     OW 4004   5.149   9.509   8.349 -0.0741  0.1359  0.4621
  666SOL    HW1 4005   5.165   9.548   8.435 -4.9534  2.4356  0.6298
  666SOL    HW2 4006   5.128   9.583   8.292 -4.6413 -1.6343 -0.5648
  667SOL     OW 4007   6.560   9.866   6.518 -0.2234  0.1614 -0.0407
  667SOL    HW1 4008   6.578   9.948   6.472 -0.2778  0.7533  0.9671
  667SOL    HW2 4009   6.533   9.893   6.606  1.4368 -0.9742  0.8780
  668SOL     OW 4010   4.624   9.906   0.380 -0.2012 -1.0108  0.1077
  668SOL    HW1 4011   4.635   9.859   0.463 -1.0807 -1.2355  0.1062
  668SOL    HW2 4012   4.669   9.989   0.394 -1.2197 -0.6100  1.1903
  669SOL     OW 4013   9.072   8.471  10.328  0.6346 -0.0578 -0.3639
  669SOL    HW1 4014   8.999   8.419  10.359 -0.9669  1.4001 -1.4899
  669SOL    HW2 4015   9.066   8.553  10.378 -0.1639  1.1110 -2.2494
  670SOL     OW 4016   7.431   4.757   3.961  0.0833  0.2129  0.0248
  670SOL    HW1 4017   7.438   4.852   3.975 -0.3047  0.2451 -0.0016
  670SOL    HW2 4018   7.413   4.748   3.868  0.5123  0.0932 -0.0475
  671SOL     OW 4019  10.944   3.188   7.722  0.6688  0.3669 -0.5000
  671SOL    HW1 4020  11.028   3.234   7.712 -0.3985  2.3444 -0.8853
  671SOL    HW2 4021  10.894   3.211   7.644 -1.4869  2.1121  1.2695
  672SOL     OW 4022   9.719  11.135   8.723 -0.0586 -0.5239  0.3014
  672SOL    HW1 4023   9.781  11.071   8.689 -1.4234 -1.5064 -0.4360
  672SOL    HW2 4024   9.663  11.085   8.783  0.7419  0.6528  2.1286
  673SOL     OW 4025  10.663   2.629  11.133 -0.8542  0.2668  0.2168
  673SOL    HW1 4026  10.660   2.576  11.053 -1.4178  1.3979 -0.5455
  673SOL    HW2 4027  10.571   2.643  11.156 -0.7270  1.1624  0.2240
  674SOL     OW 4028   0.746   1.845   7.478  0.3677 -0.0610  0.8651
  674SOL    HW1 4029   0.686   1.786   7.432 -0.1609  0.2237  1.1777
  674SOL    HW2 4030   0.793   1.789   7.539  1.0291 -0.4329  0.0296
  675SOL     OW 4031  10.717   8.620  10.247  0.0554 -0.1457  0.1115
  675SOL    HW1 4032  10.661   8.594  10.173 -0.6015  1.8708 -0.1462
  675SOL    HW2 4033  10.665   8.599  10.325 -0.1046 -0.3824 -0.0554
  676SOL     OW 4034  10.307   8.582   0.163 -0.0005  0.3967  0.2628
  676SOL    HW1 4035  10.385   8.626   0.197  0.6863 -1.3614  1.1442
  676SOL    HW2 4036  10.336   8.541   0.081  0.5554 -1.5771  1.3577
  677SOL     OW 4037  10.381   9.934   2.523  0.1708  0.3972  0.2945
  677SOL    HW1 4038  10.404  10.000   2.457  0.2941 -0.1386 -0.2035
  677SOL    HW2 4039  10.298   9.965   2.561  0.9676  1.6090  1.1117
  678SOL     OW 4040   1.747   5.133   6.825 -0.3442  0.4010 -0.4933
  678SOL    HW1 4041   1.743   5.205   6.762  1.7532  1.6961  0.7331
  678SOL    HW2 4042   1.807   5.070   6.785 -0.0995  0.5817 -0.4157
  679SOL     OW 4043   3.462   0.348   3.678 -0.3439 -0.0805  0.1168
  679SOL    HW1 4044   3.470   0.253   3.682 -2.0377 -0.3784 -2.0666
  679SOL    HW2 4045   3.408   0.371   3.754  0.4768 -0.7647  0.9350
  680SOL     OW 4046   2.706   0.886   2.805 -0.2387 -0.2393  0.3757
  680SOL    HW1 4047   2.705   0.905   2.712 -0.4181  1.7698  0.7518
  680SOL    HW2 4048   2.615   0.897   2.833 -0.0796 -0.2349  0.8963
  681SOL     OW 4049  10.344   0.958   3.822  0.0833  0.3554  0.1653
  681SOL    HW1 4050  10.426   0.918   3.794  0.0632 -0.2579  0.9281
  681SOL    HW2 4051  10.351   1.049   3.795 -0.2705 -0.3306 -2.5033
  682SOL     OW 4052   9.006   9.796   6.350 -0.3043 -0.6099 -0.6317
  682SOL    HW1 4053   9.071   9.802   6.420 -0.3285  1.9456 -0.7185
  682SOL    HW2 4054   8.922   9.796   6.396 -0.3253  1.2246 -0.5826
  683SOL     OW 4055   4.881   0.959   2.596  0.3476 -0.4693  0.2975
  683SOL    HW1 4056   4.885   0.866   2.621  1.5599 -0.3484  0.6267
  683SOL    HW2 4057   4.812   0.963   2.529 -0.6372 -1.3679  1.2196
  684SOL     OW 4058  10.189   4.956   4.066  0.1070 -0.4820 -0.1553
  684SOL    HW1 4059  10.116   4.933   4.125  1.2268 -0.9839  1.0818
  684SOL    HW2 4060  10.185   4.891   3.996  0.9213 -2.1475  1.2862
  685SOL     OW 4061  10.657   1.324   9.998 -0.0718  0.2875 -0.8192
  685SOL    HW1 4062  10.734   1.352  10.048 -0.5467 -1.9918  1.4223
  685SOL    HW2 4063  10.679   1.235   9.969 -2.4801 -1.2802  1.6459
  686SOL     OW 4064  10.517  10.608   4.659  0.7569  0.3195 -0.2921
  686SOL    HW1 4065  10.525  10.545   4.731 -0.6441  0.7043  0.2406
  686SOL    HW2 4066  10.607  10.635   4.640  1.2416 -0.6617  0.5293
  687SOL     OW 4067  10.471   8.519   0.474 -0.1543  0.0243  0.4727
  687SOL    HW1 4068  10.543   8.506   0.536 -1.4592  0.3284  2.1009
  687SOL    HW2 4069  10.418   8.440   0.482 -0.1804 -0.0727 -0.5105
  688SOL     OW 4070   7.091   6.168   6.278 -0.8335 -0.4736 -0.3416
  688SOL    HW1 4071   7.135   6.101   6.329  0.0090  0.6093  0.3997
  688SOL    HW2 4072   7.123   6.156   6.189 -1.1856 -1.4433 -0.3458
  689SOL     OW 4073   8.619   0.296   5.436  0.0230 -0.2807  0.1246
  689SOL    HW1 4074   8.694   0.319   5.381  1.2950 -0.9139  1.5241
  689SOL    HW2 4075   8.595   0.377   5.480 -0.4367  0.0285 -0.6748
  690SOL     OW 4076   5.101   7.167   2.613 -0.2428 -0.4298 -0.0249
  690SOL    HW1 4077   5.133   7.105   2.547 -1.8176 -0.7431 -0.5313
  690SOL    HW2 4078   5.055   7.234   2.562  2.2500  1.7963  0.3933
  691SOL     OW 4079   9.418   0.095   9.482  0.4310  0.7995  0.0387
  691SOL    HW1 4080   9.429   0.122   9.391  0.7602 -1.2479 -0.5643
  691SOL    HW2 4081   9.505   0.105   9.521  0.9172 -0.7660 -0.5907
  692SOL     OW 4082   6.481   4.709   9.612 -0.6173 -0.1570  0.7157
  692SOL    HW1 4083   6.476   4.787   9.667 -0.6391 -0.6613  1.4403
  692SOL    HW2 4084   6.412   4.720   9.547 -0.3800  0.5989  0.5803
  693SOL     OW 4085  10.538   6.007  11.012  0.4093  0.3599  0.4314
  693SOL    HW1 4086  10.448   5.977  11.004  0.5340  0.3677 -1.1999
  693SOL    HW2 4087  10.551   6.018  11.107 -0.7521 -1.2493  0.8194
  694SOL     OW 4088   8.569   4.232   5.923  0.0586  0.5194 -0.2728
  694SOL    HW1 4089   8.540   4.254   5.834 -0.4996 -0.1164 -0.2613
  694SOL    HW2 4090   8.626   4.156   5.912 -0.3827  0.1462 -0.0572
  695SOL     OW 4091   7.098   8.565   0.074  0.2994 -0.1742 -0.1979
  695SOL    HW1 4092   7.080   8.505   0.146  1.7566 -0.2841  0.1240
  695SOL    HW2 4093   7.194   8.565   0.067  0.1967 -0.4605 -2.3842
  696SOL     OW 4094   1.754   1.231   8.930  0.3164  1.0704 -0.3704
  696SOL    HW1 4095   1.834   1.272   8.896 -0.3936  1.9794 -0.9725
  696SOL    HW2 4096   1.720   1.294   8.993 -0.2699  0.9613 -0.5809
  697SOL     OW 4097   1.114   8.057   0.261  0.0154  0.1864  0.4563
  697SOL    HW1 4098   1.023   8.069   0.235  0.3654  1.5102 -0.2612
  697SOL    HW2 4099   1.121   7.964   0.283 -0.7113 -0.7504 -2.7214
  698SOL     OW 4100   2.671   6.831   7.384 -0.5802 -0.2208 -0.6221
  698SOL    HW1 4101   2.721   6.879   7.450 -0.5801  0.7104 -1.2708
  698SOL    HW2 4102   2.612   6.775   7.434 -0.3779  0.2454  0.1594
  699SOL     OW 4103   1.445   2.281   9.538 -0.0549 -0.9631 -0.2691
  699SOL    HW1 4104   1.450   2.233   9.455 -0.7678 -2.0431  0.2899
  699SOL    HW2 4105   1.433   2.213   9.604 -0.6845 -0.0336  0.5983
  700SOL     OW 4106   1.111   2.581   9.812 -0.2138 -0.4896 -0.5082
  700SOL    HW1 4107   1.173   2.554   9.879 -1.8016  0.8818  1.6481
  700SOL    HW2 4108   1.098   2.675   9.828 -1.3793 -0.3299 -2.1301
  701SOL     OW 4109   7.205   3.252   2.707  0.2342 -0.4981  0.2252
  701SOL    HW1 4110   7.205   3.284   2.797  0.4924  0.5140 -0.1261
  701SOL    HW2 4111   7.276   3.189   2.704  0.6023 -0.1082  0.5826
  702SOL     OW 4112   5.979   2.672   9.761  0.1080 -0.4106 -0.6119
  702SOL    HW1 4113   5.970   2.576   9.756 -2.7402 -0.2480 -0.0606
  702SOL    HW2 4114   6.000   2.689   9.853  0.7143 -0.4760 -0.7300
  703SOL     OW 4115   6.925   3.453   1.983  0.6327 -0.4501 -0.0455
  703SOL    HW1 4116   6.877   3.532   1.958 -2.7540 -1.5439  2.2092
  703SOL    HW2 4117   6.978   3.479   2.058  0.5202 -0.0233 -0.1163
  704SOL     OW 4118   7.473   0.005   1.061 -0.5996  0.1294 -0.0985
  704SOL    HW1 4119   7.419  -0.018   0.986 -2.0345 -2.0693  1.4786
  704SOL    HW2 4120   7.424   0.074   1.106 -1.9733 -1.5555  1.0904
  705SOL     OW 4121   9.453   2.380   7.032 -0.0439 -0.3322 -0.0419
  705SOL    HW1 4122   9.420   2.449   7.090  1.1962  1.5445 -1.4078
  705SOL    HW2 4123   9.392   2.379   6.959 -0.1014 -0.7465  0.0100
  706SOL     OW 4124   2.798   3.646  10.246  0.5587 -0.2448 -1.2275
  706SOL    HW1 4125   2.759   3.584  10.307  1.0221  1.0808  0.4762
  706SOL    HW2 4126   2.892   3.636  10.258  0.6893 -0.6162 -2.4283
  707SOL     OW 4127   7.025   7.681   5.450 -0.1586  0.0821  0.1227
  707SOL    HW1 4128   6.935   7.711   5.454 -0.5265 -1.0204  0.4695
  707SOL    HW2 4129   7.019   7.590   5.422  0.9645  0.4787 -1.5780
  708SOL     OW 4130  11.004  10.081   9.942  0.8138  0.1487 -0.5805
  708SOL    HW1 4131  11.054  10.095  10.022 -0.9898  1.7976  0.3492
  708SOL    HW2 4132  11.062  10.109   9.872  1.5559  1.0776  0.3766
  709SOL     OW 4133   5.595   2.021   4.513  0.2436 -0.1777  0.0295
  709SOL    HW1 4134   5.504   1.993   4.507  0.8392 -1.9641 -2.9666
  709SOL    HW2 4135   5.602   2.094   4.452  0.7045  0.4200  0.7776
  710SOL     OW 4136   6.184   2.256   2.544  0.1203 -0.4629 -0.3508
  710SOL    HW1 4137   6.191   2.316   2.469 -3.4072  0.0944 -0.4055
  710SOL    HW2 4138   6.209   2.171   2.509 -2.4363 -0.4222 -2.5800
  711SOL     OW 4139   7.943   9.858   0.424 -0.0385  0.1715 -0.2088
  711SOL    HW1 4140   7.956   9.819   0.510 -0.5081 -0.3138 -0.3500
  711SOL    HW2 4141   7.865   9.913   0.433 -0.8201 -0.8451 -0.6295
  712SOL     OW 4142   8.840   5.448  10.312 -0.6829  0.5577  0.3989
  712SOL    HW1 4143   8.825   5.423  10.403  0.5714  0.8095  0.6894
  712SOL    HW2 4144   8.794   5.381  10.261 -0.4174 -0.2656  1.2074
  713SOL     OW 4145   3.879   0.192  10.386  0.1343  0.0496 -0.3888
  713SOL    HW1 4146   3.897   0.102  10.360 -0.8102 -0.0135 -0.8693
  713SOL    HW2 4147   3.834   0.184  10.470  2.5392  0.2221  1.0010
  714SOL     OW 4148   3.466   1.621   9.439  0.2229  0.4836 -0.4763
  714SOL    HW1 4149   3.454   1.577   9.523  3.5967 -0.6093 -0.3937
  714SOL    HW2 4150   3.435   1.710   9.453  0.4695  0.2610  1.8830
  715SOL     OW 4151  10.715   0.920   9.560  0.7108  0.5512  0.2064
  715SOL    HW1 4152  10.802   0.917   9.521  0.8610  2.9508  0.2122
  715SOL    HW2 4153  10.705   0.835   9.603  1.7409 -1.0174 -2.4229
  716SOL     OW 4154   2.964   7.037   7.987 -0.2344  0.1071  0.2477
  716SOL    HW1 4155   2.976   7.118   8.037 -0.3120 -0.9338  2.0436
  716SOL    HW2 4156   3.051   7.017   7.953 -0.1810  0.8502 -0.0682
  717SOL     OW 4157   9.285   4.925  10.799  0.3618 -0.1772 -0.6853
  717SOL    HW1 4158   9.289   4.898  10.890 -0.8912 -0.1175 -0.6028
  717SOL    HW2 4159   9.302   4.845  10.749 -4.1332 -1.5528 -0.4699
  718SOL     OW 4160   3.224   2.159  10.552  0.0962 -0.2454 -0.3657
  718SOL    HW1 4161   3.246   2.252  10.550 -5.2112  1.5229  2.9413
  718SOL    HW2 4162   3.273   2.125  10.627  2.1527 -0.2872 -1.6562
  719SOL     OW 4163   8.491   4.707   0.938  0.5994  0.3990  0.4698
  719SOL    HW1 4164   8.586   4.705   0.926  0.3343 -0.9049 -2.0585
  719SOL    HW2 4165   8.462   4.779   0.883  0.1866  2.0939  2.7394
  720SOL     OW 4166   9.740   0.404   6.431  0.0714  0.1708 -1.1427
  720SOL    HW1 4167   9.802   0.332   6.419 -0.5253 -0.3164 -1.3544
  720SOL    HW2 4168   9.758   0.463   6.358 -0.9689 -0.9039 -2.3206
  721SOL     OW 4169   5.090   3.337   0.779 -0.0548  0.5994  0.3520
  721SOL    HW1 4170   5.162   3.286   0.741 -1.6241 -0.3267 -1.5766
  721SOL    HW2 4171   5.084   3.414   0.723 -1.2771  0.0885 -0.2547
  722SOL     OW 4172   5.566   2.726   6.603  0.0831 -0.4633 -0.2603
  722SOL    HW1 4173   5.530   2.688   6.523 -1.5626  0.9135 -0.2122
  722SOL    HW2 4174   5.494   2.725   6.666  0.9637 -0.2928  0.7976
  723SOL     OW 4175   0.694  10.212  10.580 -0.1620 -0.3685  0.0217
  723SOL    HW1 4176   0.696  10.289  10.523  1.9885 -0.4463 -0.1088
  723SOL    HW2 4177   0.755  10.233  10.651  0.1015 -1.7651  0.2440
  724SOL     OW 4178   1.121   6.629   1.997  0.7872  0.5407  0.0627
  724SOL    HW1 4179   1.109   6.534   2.002  2.2984  0.2454 -1.2346
  724SOL    HW2 4180   1.108   6.660   2.087 -3.4775 -0.3411 -0.0312
  725SOL     OW 4181   5.447   7.857   7.279  0.2804  0.0939  0.3980
  725SOL    HW1 4182   5.493   7.911   7.215  0.9196 -1.5677 -0.6062
  725SOL    HW2 4183   5.437   7.914   7.356  0.8997  1.6167 -0.6073
  726SOL     OW 4184   1.308   3.833   6.952 -0.7336 -0.0196 -0.0131
  726SOL    HW1 4185   1.217   3.812   6.976 -0.9803  0.0007 -0.8999
  726SOL    HW2 4186   1.360   3.802   7.026 -1.0276 -4.1723 -1.3130
  727SOL     OW 4187   7.778   5.432   2.222 -0.0006  0.2322 -0.1536
  727SOL    HW1 4188   7.779   5.404   2.130 -2.0578 -1.8753  0.3526
  727SOL    HW2 4189   7.686   5.422   2.249  0.4664  1.2424  2.0198
  728SOL     OW 4190   0.562  10.371   3.948  0.1093  0.0982 -0.4257
  728SOL    HW1 4191   0.563  10.444   3.885  0.3827 -1.4960 -2.3628
  728SOL    HW2 4192   0.654  10.359   3.972  0.2473 -0.4788 -1.2029
  729SOL     OW 4193   6.550   8.921   3.677  0.6433 -0.3592 -0.4466
  729SOL    HW1 4194   6.530   8.889   3.589 -0.7403 -0.6903 -0.0381
  729SOL    HW2 4195   6.589   8.846   3.722  1.0718 -0.2800 -0.6859
  730SOL     OW 4196   2.302   8.083   1.936 -0.1456  0.0845 -0.2589
  730SOL    HW1 4197   2.359   8.013   1.905 -0.6714 -0.9782  1.0674
  730SOL    HW2 4198   2.343   8.164   1.904  1.6432 -0.6882 -0.0299
  731SOL     OW 4199   5.572   1.805   6.755 -0.3554 -0.0096 -0.1640
  731SOL    HW1 4200   5.628   1.756   6.694  0.2284 -0.4679  0.7284
  731SOL    HW2 4201   5.518   1.738   6.797  0.1055  0.1533  0.7120
  732SOL     OW 4202   8.379   9.583  10.108 -0.6958  0.6658 -0.0219
  732SOL    HW1 4203   8.347   9.661  10.154  2.6212  1.7507  0.7524
  732SOL    HW2 4204   8.367   9.603  10.015 -0.2246  2.0123  0.1779
  733SOL     OW 4205   8.690   3.296   5.466 -0.0671  0.0015 -0.7542
  733SOL    HW1 4206   8.676   3.374   5.520 -2.1015  0.1950 -1.4757
  733SOL    HW2 4207   8.726   3.330   5.384 -2.7861  0.5423 -1.8486
  734SOL     OW 4208   8.989   0.528   3.491  0.0934  0.3772 -0.1825
  734SOL    HW1 4209   8.959   0.441   3.518  0.8362 -0.3963 -1.6892
  734SOL    HW2 4210   8.924   0.556   3.426 -1.0050  1.6669  1.4101
  735SOL     OW 4211   9.626   7.198   1.460  0.0231 -0.8840  0.1015
  735SOL    HW1 4212   9.697   7.257   1.435 -0.5201 -0.8241 -1.3823
  735SOL    HW2 4213   9.671   7.122   1.498  0.8409 -0.5830 -0.2340
  736SOL     OW 4214   0.548   3.369   4.888  0.2901 -0.6949  0.2189
  736SOL    HW1 4215   0.624   3.378   4.945 -0.2567  0.2083  0.8194
  736SOL    HW2 4216   0.498   3.449   4.901  0.5261 -0.0937 -2.0840
  737SOL     OW 4217   0.718  10.622   6.172 -1.2410  0.0218 -0.1048
  737SOL    HW1 4218   0.810  10.649   6.175 -0.9816 -0.5880 -1.6829
  737SOL    HW2 4219   0.673  10.681   6.232 -0.1252  1.6124 -0.7934
  738SOL     OW 4220   0.535   2.552   6.358  0.5014 -0.0649 -0.6210
  738SOL    HW1 4221   0.540   2.628   6.300 -1.6204 -1.3212 -2.5991
  738SOL    HW2 4222   0.444   2.549   6.386  1.4526  0.6374  3.1808
  739SOL     OW 4223   5.516   0.563   1.325 -0.8645 -0.1864 -0.5145
  739SOL    HW1 4224   5.435   0.608   1.347 -0.4142 -0.0852  1.0122
  739SOL    HW2 4225   5.537   0.594   1.236 -1.1120  1.8374  0.0849
  740SOL     OW 4226   2.894  11.164   2.272  0.6293 -0.1323 -0.1111
  740SOL    HW1 4227   2.864  11.227   2.206 -3.0921 -1.1952  0.3417
  740SOL    HW2 4228   2.826  11.166   2.339  2.1581 -2.1523  1.6281
  741SOL     OW 4229   8.116  10.324  10.258  0.0418 -0.6268 -0.7888
  741SOL    HW1 4230   8.095  10.231  10.269  1.8375 -0.8527  1.9879
  741SOL    HW2 4231   8.212  10.327  10.265 -0.0019  1.4468 -0.5211
  742SOL     OW 4232   4.031   1.764  10.101 -0.3100  0.1845 -0.1953
  742SOL    HW1 4233   4.037   1.750  10.006  0.2971  0.7410 -0.2508
  742SOL    HW2 4234   3.960   1.826  10.112 -1.7890 -1.4500 -0.0976
  743SOL     OW 4235  10.269   4.344   6.852 -0.0486 -0.5071 -0.1678
  743SOL    HW1 4236  10.233   4.255   6.849 -0.9629 -0.1107 -1.4790
  743SOL    HW2 4237  10.344   4.342   6.793 -1.1442  0.0310 -1.6186
  744SOL     OW 4238   9.198   5.826  10.720 -0.2417  0.5364  0.0136
  744SOL    HW1 4239   9.202   5.894  10.787 -2.3566  1.1389 -0.3881
  744SOL    HW2 4240   9.212   5.873  10.638  1.3576 -0.0468 -0.0870
  745SOL     OW 4241   6.278   0.719   7.875  0.0019  0.2137 -0.2843
  745SOL    HW1 4242   6.210   0.748   7.937 -0.6668 -2.4000  0.3545
  745SOL    HW2 4243   6.247   0.633   7.846  2.5200 -0.5795 -0.8218
  746SOL     OW 4244   6.938   9.282   4.873  0.5826 -0.6754 -0.1646
  746SOL    HW1 4245   6.929   9.187   4.866  1.7025 -0.8249  0.0917
  746SOL    HW2 4246   7.033   9.297   4.867  0.3046  0.6078 -2.2490
  747SOL     OW 4247  10.634   7.517   0.792  0.0080 -0.5160 -0.1597
  747SOL    HW1 4248  10.605   7.591   0.740  0.3520  1.2699  2.0243
  747SOL    HW2 4249  10.679   7.460   0.730 -2.9037 -0.4924 -2.5061
  748SOL     OW 4250   2.055   0.891   5.126 -0.3349 -1.0260 -0.0709
  748SOL    HW1 4251   2.141   0.850   5.140 -0.5770 -0.7950  2.7567
  748SOL    HW2 4252   2.068   0.983   5.150 -1.1045 -0.6842 -0.8929
  749SOL     OW 4253   1.848   2.193   3.345 -0.0837 -0.0229 -0.8737
  749SOL    HW1 4254   1.816   2.219   3.432 -2.3105  1.6567 -2.0925
  749SOL    HW2 4255   1.869   2.276   3.301  0.3258 -0.7898 -2.1818
  750SOL     OW 4256   7.984   7.450   8.719 -0.5511 -0.0969  0.1361
  750SOL    HW1 4257   7.917   7.500   8.765  0.0894  1.4125 -0.5297
  750SOL    HW2 4258   8.061   7.507   8.719 -0.4689 -0.0911 -2.6511
  751SOL     OW 4259   2.544   4.078   8.770 -0.2638 -0.4801  0.0447
  751SOL    HW1 4260   2.561   3.985   8.755 -2.7115 -0.7674 -1.4826
  751SOL    HW2 4261   2.453   4.091   8.742 -0.5763  2.0310  1.8604
  752SOL     OW 4262   2.611   3.731  10.048  0.1221  0.0979 -0.1065
  752SOL    HW1 4263   2.634   3.820  10.020 -1.3188  0.3722 -0.4954
  752SOL    HW2 4264   2.681   3.706  10.107 -0.2596  2.1351  1.3016
  753SOL     OW 4265   4.023   3.699   3.053 -0.4180  0.3086 -0.0716
  753SOL    HW1 4266   3.987   3.782   3.083 -0.1709 -0.0619  1.3451
  753SOL    HW2 4267   4.112   3.719   3.025 -0.6370  0.6544 -0.5391
  754SOL     OW 4268   9.399   5.831   2.087 -0.3084  0.2006 -0.7915
  754SOL    HW1 4269   9.419   5.925   2.096 -2.0873  0.5812 -0.3095
  754SOL    HW2 4270   9.427   5.809   1.999  0.3192  1.1402 -0.8472
  755SOL     OW 4271   7.306   5.445   5.142 -0.1778  0.1976 -0.5760
  755SOL    HW1 4272   7.384   5.438   5.087  1.1630  0.7254  1.1547
  755SOL    HW2 4273   7.289   5.539   5.146 -0.0478  0.1965  0.1555
  756SOL     OW 4274   2.903   8.450   9.891 -0.1076 -0.3573 -0.7292
  756SOL    HW1 4275   2.889   8.367   9.936 -0.2319 -0.6104 -1.2231
  756SOL    HW2 4276   2.898   8.428   9.798 -3.7505  0.7785 -0.9325
  757SOL     OW 4277   8.531   4.696   2.548 -0.4432 -0.6466  0.5928
  757SOL    HW1 4278   8.470   4.622   2.544 -0.7173 -0.3946 -0.2193
  757SOL    HW2 4279   8.618   4.656   2.542 -0.5211 -1.0086  1.7442
  758SOL     OW 4280   1.267   8.497  10.965 -0.0706  0.0307  0.3680
  758SOL    HW1 4281   1.252   8.494  10.870  0.1062 -0.2517  0.3470
  758SOL    HW2 4282   1.189   8.540  11.000 -1.4974 -2.3855  0.3822
  759SOL     OW 4283   7.921   0.135   8.110 -0.4614  0.6183  0.1883
  759SOL    HW1 4284   8.007   0.132   8.153 -0.7593 -0.2418  0.7599
  759SOL    HW2 4285   7.932   0.196   8.037  1.0513 -0.5793 -0.6468
  760SOL     OW 4286   2.246   4.691   0.494  0.0466  0.2622  0.2608
  760SOL    HW1 4287   2.273   4.764   0.550 -0.7788 -0.1547  1.2304
  760SOL    HW2 4288   2.151   4.700   0.486 -0.3797 -1.8078  2.0837
  761SOL     OW 4289   9.656   0.930   0.669  0.3407 -0.0946 -0.4863
  761SOL    HW1 4290   9.581   0.987   0.684 -1.1459 -2.3151  1.3122
  761SOL    HW2 4291   9.636   0.886   0.587 -0.7039 -1.0915  0.2597
  762SOL     OW 4292  10.590   9.522   6.109  0.1747 -0.7262  0.4110
  762SOL    HW1 4293  10.604   9.442   6.059  1.3259  1.0023 -2.2572
  762SOL    HW2 4294  10.503   9.512   6.149 -2.0666 -1.3002 -4.0452
  763SOL     OW 4295   1.382   5.527  10.304  0.7691  0.5459 -0.2790
  763SOL    HW1 4296   1.371   5.476  10.385  1.4093 -0.4114 -0.7646
  763SOL    HW2 4297   1.296   5.527  10.264  1.3909 -3.4306 -2.0998
  764SOL     OW 4298   9.496   5.151  10.218  0.7108 -0.1603 -0.0020
  764SOL    HW1 4299   9.457   5.114  10.298 -0.1005 -0.8562 -0.6888
  764SOL    HW2 4300   9.539   5.077  10.176 -0.3193 -0.2074 -1.0407
  765SOL     OW 4301   7.413   0.729   9.393  0.3549  0.2846 -0.3105
  765SOL    HW1 4302   7.505   0.733   9.419 -0.0881  1.7648  1.1911
  765SOL    HW2 4303   7.386   0.639   9.413  1.3876 -0.0815 -0.5054
  766SOL     OW 4304   0.374   8.259  10.056  0.3942 -0.7135 -0.5837
  766SOL    HW1 4305   0.373   8.292  10.146 -0.9810  0.1813 -0.9067
  766SOL    HW2 4306   0.467   8.245  10.037  0.8637  0.8430  0.3562
  767SOL     OW 4307   4.996   6.722   6.267  1.2491  0.2492 -0.4181
  767SOL    HW1 4308   5.033   6.654   6.322  0.7908 -0.4703 -0.9796
  767SOL    HW2 4309   4.971   6.791   6.328 -1.4003 -1.4681  0.6459
  768SOL     OW 4310   9.899  10.587   2.288 -0.6046  0.4878 -0.0207
  768SOL    HW1 4311   9.929  10.579   2.197  2.3284  1.3436  0.7727
  768SOL    HW2 4312   9.915  10.501   2.326  1.4738  1.0673  0.5205
  769SOL     OW 4313   9.591   5.397   6.414 -0.4796  0.5004 -0.2115
  769SOL    HW1 4314   9.496   5.412   6.418 -0.7971 -1.1126 -0.7374
  769SOL    HW2 4315   9.612   5.402   6.320  0.6292  4.1944  0.0924
  770SOL     OW 4316   5.714   4.069   4.171  0.5221  0.1578 -0.7062
  770SOL    HW1 4317   5.632   4.075   4.220  0.0376 -0.9166 -1.3517
  770SOL    HW2 4318   5.687   4.065   4.079  1.1099 -2.6633 -0.8390
  771SOL     OW 4319   0.914   4.658   5.481  0.1864  0.1224 -0.4491
  771SOL    HW1 4320   0.905   4.753   5.489  0.3933  0.3234 -2.1328
  771SOL    HW2 4321   0.856   4.622   5.547 -1.3919  1.4207 -1.0694
  772SOL     OW 4322   6.424   9.801  10.177 -0.3471  0.3525 -0.3999
  772SOL    HW1 4323   6.425   9.825  10.270  0.8545  3.2029 -1.0344
  772SOL    HW2 4324   6.409   9.706  10.177 -1.3316  0.3983  2.6357
  773SOL     OW 4325   4.230   4.719   1.481 -0.1069  0.1257 -0.5389
  773SOL    HW1 4326   4.182   4.794   1.447 -0.3466  0.4191  0.4216
  773SOL    HW2 4327   4.321   4.748   1.483 -0.2148  0.4460 -0.0516
  774SOL     OW 4328   8.201   9.199   0.894 -0.0614 -0.7206  0.3483
  774SOL    HW1 4329   8.278   9.143   0.887  0.3407 -0.2279  0.7521
  774SOL    HW2 4330   8.161   9.174   0.978 -0.2090 -0.8054  0.2539
  775SOL     OW 4331   3.469   3.397   2.488 -0.1946 -0.2221  0.0226
  775SOL    HW1 4332   3.436   3.438   2.407  0.0739  1.5030  0.7607
  775SOL    HW2 4333   3.559   3.371   2.467  0.1443  0.9405  0.0009
  776SOL     OW 4334   3.556   7.676   9.579 -0.7401  0.2792  0.0033
  776SOL    HW1 4335   3.541   7.659   9.672  0.9139  1.3412  0.5148
  776SOL    HW2 4336   3.512   7.759   9.562 -2.9578 -0.9630 -0.7834
  777SOL     OW 4337   2.330  10.783   8.124 -0.1326 -0.5856 -0.6828
  777SOL    HW1 4338   2.246  10.785   8.077 -0.8175  0.7042  0.5211
  777SOL    HW2 4339   2.331  10.697   8.166 -0.4015 -0.9876 -1.4838
  778SOL     OW 4340  10.737   6.500   4.663  0.0822  0.8994  0.0525
  778SOL    HW1 4341  10.642   6.489   4.665  0.2981 -1.2702  1.6636
  778SOL    HW2 4342  10.758   6.511   4.570 -1.5575 -0.7572 -0.5742
  779SOL     OW 4343   3.646   5.462   7.476 -0.2139 -0.3461 -0.0905
  779SOL    HW1 4344   3.619   5.454   7.385  1.0842  0.0523 -0.5434
  779SOL    HW2 4345   3.741   5.446   7.474  0.3316  2.2777  0.7611
  780SOL     OW 4346   9.131   3.185   0.196 -0.0815  0.0408  0.6238
  780SOL    HW1 4347   9.216   3.226   0.215 -0.7376  1.4287  0.6466
  780SOL    HW2 4348   9.080   3.198   0.276 -0.6327  0.0732  0.2706
  781SOL     OW 4349   7.804   4.127   8.607  0.3826 -0.5352  0.1822
  781SOL    HW1 4350   7.722   4.173   8.626 -0.5727 -1.4540 -1.4756
  781SOL    HW2 4351   7.839   4.171   8.529  1.5969 -0.0403  0.9695
  782SOL     OW 4352   8.548   7.351   6.560  0.1590  0.0433  0.2976
  782SOL    HW1 4353   8.455   7.356   6.538  0.1755 -0.2987  0.1404
  782SOL    HW2 4354   8.571   7.259   6.547  0.4798  0.0924  0.4986
  783SOL     OW 4355   7.542  10.232   2.956  0.5725 -0.4077 -0.6603
  783SOL    HW1 4356   7.470  10.274   3.003  1.8935  0.4895  0.6561
  783SOL    HW2 4357   7.563  10.292   2.885 -0.6180 -1.1685 -1.6856
  784SOL     OW 4358   5.158   8.306   6.313  0.4071  0.4848 -0.5522
  784SOL    HW1 4359   5.081   8.254   6.336 -0.1829  1.5983  0.0756
  784SOL    HW2 4360   5.204   8.253   6.248 -0.1967 -0.7820  0.0296
  785SOL     OW 4361   0.871  11.108   9.851  0.0118 -0.5011 -0.6025
  785SOL    HW1 4362   0.797  11.156   9.888 -0.1603 -0.5604 -0.8714
  785SOL    HW2 4363   0.931  11.176   9.820 -0.6322 -0.4505 -1.7888
  786SOL     OW 4364   9.920   3.940   7.995  0.1698 -0.3288  0.3282
  786SOL    HW1 4365   9.921   4.012   8.058  1.1174 -0.1407  0.1063
  786SOL    HW2 4366   9.952   3.865   8.044 -3.2096 -1.3156  1.3296
  787SOL     OW 4367   0.581   1.230  10.391  0.2319 -0.4587 -0.2684
  787SOL    HW1 4368   0.550   1.164  10.329  0.5780  1.2758 -2.4159
  787SOL    HW2 4369   0.643   1.184  10.447 -0.8754 -2.3359 -0.5244
  788SOL     OW 4370   1.199  10.821   3.460  0.5773  0.1219 -0.0873
  788SOL    HW1 4371   1.170  10.886   3.396 -0.0479 -0.3331 -0.2722
  788SOL    HW2 4372   1.267  10.771   3.414  1.2481  0.7962  0.1418
  789SOL     OW 4373   4.318   9.990   4.987  0.1687  0.3347  0.7314
  789SOL    HW1 4374   4.285  10.061   5.041 -0.1252  0.2489  0.6649
  789SOL    HW2 4375   4.337   9.920   5.049  1.4345  0.8167  0.9261
  790SOL     OW 4376   1.736   1.458   9.129 -0.2181  0.4310 -0.1334
  790SOL    HW1 4377   1.661   1.490   9.180 -1.3164 -0.0977 -1.3499
  790SOL    HW2 4378   1.746   1.522   9.058  1.6637  1.4755  0.9981
  791SOL     OW 4379   7.775   1.365   0.711 -0.2859 -0.5871 -0.3848
  791SOL    HW1 4380   7.697   1.328   0.669 -2.5218  1.6758  1.4834
  791SOL    HW2 4381   7.798   1.441   0.658 -2.8506  2.0142  1.8826
  792SOL     OW 4382   0.161   1.002   0.683 -0.5861  0.2080  0.8007
  792SOL    HW1 4383   0.157   0.908   0.667  0.2809  0.3251 -0.2778
  792SOL    HW2 4384   0.078   1.036   0.648 -2.2013 -0.4298  3.7470
  793SOL     OW 4385   4.304   9.352   6.000  0.1454 -0.0066  0.0858
  793SOL    HW1 4386   4.398   9.342   5.988  0.2692  0.6203  0.4872
  793SOL    HW2 4387   4.295   9.410   6.076 -0.6146 -2.4227  1.9638
  794SOL     OW 4388   9.671   1.969   8.274 -0.5188 -0.4310 -0.2051
  794SOL    HW1 4389   9.719   1.977   8.357 -0.0380  0.1699 -0.5352
  794SOL    HW2 4390   9.653   2.059   8.248 -0.8220 -0.6231 -0.6735
  795SOL     OW 4391   9.558   3.956   8.592 -0.3608 -0.5581 -0.0436
  795SOL    HW1 4392   9.557   4.010   8.513 -0.5965  1.2662  1.1538
  795SOL    HW2 4393   9.493   3.887   8.574 -1.7166  0.8447 -0.7799
  796SOL     OW 4394   8.188   6.853   2.836 -0.2852  0.4295  0.1194
  796SOL    HW1 4395   8.266   6.822   2.883 -0.4887  1.2167  1.0126
  796SOL    HW2 4396   8.164   6.780   2.779  0.9012  0.0449  0.0822
  797SOL     OW 4397   8.139   0.414  10.601  0.3003 -0.2935 -0.1999
  797SOL    HW1 4398   8.143   0.326  10.637  0.0215 -0.7560 -1.2502
  797SOL    HW2 4399   8.188   0.409  10.519  1.2049  0.8025  0.2453
  798SOL     OW 4400   0.166   9.113   1.058  0.0194 -0.5179 -0.1666
  798SOL    HW1 4401   0.176   9.205   1.033  0.4934  0.4382  3.0454
  798SOL    HW2 4402   0.187   9.064   0.979  1.1829  2.1101 -1.6173
  799SOL     OW 4403   5.158   1.719   4.056  0.1204  0.0143  0.1739
  799SOL    HW1 4404   5.215   1.671   3.996  0.7252  1.2713 -0.2910
  799SOL    HW2 4405   5.074   1.674   4.051  1.0259 -1.8826  0.8697
  800SOL     OW 4406   9.117   1.812  10.486  0.0870 -0.0608 -0.1040
  800SOL    HW1 4407   9.123   1.717  10.487 -0.4287 -0.1071  1.4197
  800SOL    HW2 4408   9.092   1.835  10.575 -1.2575  1.4055 -0.8190
  801SOL     OW 4409  11.265   6.586   9.214 -0.1047 -0.8747  0.4651
  801SOL    HW1 4410  11.242   6.541   9.296 -2.9199  1.3182  1.0477
  801SOL    HW2 4411  11.189   6.641   9.195  2.0329  1.6528 -1.5696
  802SOL     OW 4412   1.177   7.251   5.340  0.0562 -0.8056  0.1840
  802SOL    HW1 4413   1.089   7.236   5.374  0.8014 -2.0597  1.6846
  802SOL    HW2 4414   1.214   7.163   5.327  0.8327 -0.3160 -1.1647
  803SOL     OW 4415   3.160   9.601   1.197  0.6706 -0.1095  0.2230
  803SOL    HW1 4416   3.144   9.614   1.104  0.2525  0.8851  0.4124
  803SOL    HW2 4417   3.241   9.550   1.201  0.9525  0.2366 -0.6784
  804SOL     OW 4418   7.722  10.330   2.247  0.0285  0.0922 -0.7256
  804SOL    HW1 4419   7.667  10.297   2.176  0.9037  0.6710 -1.7095
  804SOL    HW2 4420   7.783  10.259   2.266  0.9022  0.5372 -1.7642
  805SOL     OW 4421   9.898   7.405  10.391  0.1061  0.2009  0.1291
  805SOL    HW1 4422   9.822   7.347  10.378 -0.0717  0.6589 -1.0218
  805SOL    HW2 4423   9.960   7.351  10.440 -0.4902 -0.5948  0.0470
  806SOL     OW 4424   0.331   4.972   9.598  0.2067  0.1351  0.1953
  806SOL    HW1 4425   0.402   4.908   9.599 -0.4578 -0.7300 -1.9931
  806SOL    HW2 4426   0.325   5.000   9.506 -2.6899 -0.3503  0.1348
  807SOL     OW 4427   0.244  10.475   5.425 -0.1710  0.6870  0.7868
  807SOL    HW1 4428   0.238  10.476   5.329  1.0665  0.5968  0.6946
  807SOL    HW2 4429   0.217  10.386   5.449 -0.8740  0.8325  0.5597
  808SOL     OW 4430   6.655   0.425   6.937  0.1354  0.1117  0.3976
  808SOL    HW1 4431   6.621   0.360   6.998 -3.3409  0.0960 -1.3055
  808SOL    HW2 4432   6.700   0.374   6.870 -0.3425 -0.3052  0.3922
  809SOL     OW 4433   1.088   6.090   7.657 -0.7257  0.1205 -0.1996
  809SOL    HW1 4434   1.120   6.021   7.715 -2.3095 -0.6262 -0.1610
  809SOL    HW2 4435   1.046   6.153   7.716 -0.1826  0.6243 -0.3341
  810SOL     OW 4436   6.350   6.806   3.415  0.3449 -0.0140 -0.2489
  810SOL    HW1 4437   6.277   6.867   3.407  0.1217  0.0152  1.5197
  810SOL    HW2 4438   6.311   6.720   3.400  0.4793  0.1830 -1.8422
  811SOL     OW 4439   5.513  10.280   5.844  0.7980  0.5555  0.2185
  811SOL    HW1 4440   5.572  10.329   5.786 -2.1240  4.5244  0.1731
  811SOL    HW2 4441   5.546  10.299   5.932  0.5976  1.4332  0.1207
  812SOL     OW 4442  10.222   8.666   9.686  0.2501  0.4868 -0.2641
  812SOL    HW1 4443  10.283   8.735   9.663  1.7526 -0.6222  0.2277
  812SOL    HW2 4444  10.272   8.606   9.741 -1.4491 -0.1925  0.6369
  813SOL     OW 4445   3.147   3.372   9.031  0.4167  0.6194 -0.0371
  813SOL    HW1 4446   3.158   3.448   8.974 -0.5401  0.7231 -0.0955
  813SOL    HW2 4447   3.230   3.325   9.025  0.7119  1.2089 -0.6608
  814SOL     OW 4448   6.844   5.674   4.297  0.3560  0.2773  0.3831
  814SOL    HW1 4449   6.916   5.664   4.360  0.3224 -0.0624  0.3732
  814SOL    HW2 4450   6.769   5.700   4.350  0.3337  0.0159  0.4838
  815SOL     OW 4451   1.759   9.913   6.702 -0.3964  0.2106  0.2534
  815SOL    HW1 4452   1.686   9.904   6.641 -0.1965  1.7351 -0.2488
  815SOL    HW2 4453   1.821   9.971   6.657  0.0455  0.8457  1.6221
  816SOL     OW 4454   0.124   1.934  10.262  0.0868 -0.5081 -0.2430
  816SOL    HW1 4455   0.100   1.877  10.335  1.0724 -0.1005  0.4315
  816SOL    HW2 4456   0.220   1.930  10.260  0.3357  2.4951  0.9839
  817SOL     OW 4457   4.318   6.377  10.220  0.0306 -1.0609 -0.0698
  817SOL    HW1 4458   4.313   6.403  10.312 -1.3956 -1.2345 -0.0641
  817SOL    HW2 4459   4.339   6.284  10.221  0.3690 -0.9810  0.0743
  818SOL     OW 4460  10.217   0.787   5.602  0.4506 -0.3269  0.3742
  818SOL    HW1 4461  10.241   0.739   5.522  1.4074  0.6016  0.0790
  818SOL    HW2 4462  10.150   0.849   5.574  0.9532  0.1595  0.2269
  819SOL     OW 4463  11.060   2.439   1.777 -0.1571 -0.2748 -0.4062
  819SOL    HW1 4464  11.118   2.363   1.787  0.6602  0.3431 -0.3625
  819SOL    HW2 4465  11.110   2.499   1.722 -1.4403 -0.4178 -1.8185
  820SOL     OW 4466   4.536   5.036   2.389 -0.1521 -0.0608 -0.1315
  820SOL    HW1 4467   4.615   5.016   2.440  0.2357 -1.5638 -1.2686
  820SOL    HW2 4468   4.558   5.013   2.299 -1.6564  0.1808 -0.5961
  821SOL     OW 4469  11.138   2.307   7.292  0.2523 -0.0330  0.2079
  821SOL    HW1 4470  11.124   2.288   7.385 -0.4557  0.5473  0.2366
  821SOL    HW2 4471  11.072   2.374   7.272  1.3587  0.9235 -0.3501
  822SOL     OW 4472   2.545  10.424   9.247 -0.0062  0.0289 -0.0303
  822SOL    HW1 4473   2.597  10.484   9.300 -1.2186 -1.5762  3.2572
  822SOL    HW2 4474   2.609  10.371   9.199  1.4957 -1.3019  3.1873
  823SOL     OW 4475   9.453   3.107   2.960 -0.3257  0.0646 -0.4843
  823SOL    HW1 4476   9.493   3.111   3.047 -0.3986 -3.1892 -0.1909
  823SOL    HW2 4477   9.359   3.117   2.976 -0.3446 -0.5863 -0.1684
  824SOL     OW 4478   9.389   7.391   6.752 -0.4853 -0.2639 -0.0861
  824SOL    HW1 4479   9.351   7.324   6.808  1.4030 -0.0851  1.5106
  824SOL    HW2 4480   9.317   7.451   6.734 -1.5423 -1.2563  0.7006
  825SOL     OW 4481  11.075   1.705   3.302  0.9923  0.0915 -0.0718
  825SOL    HW1 4482  11.149   1.673   3.249  2.0054  0.6515  0.9513
  825SOL    HW2 4483  11.010   1.734   3.238  1.2984 -1.2117 -1.0006
  826SOL     OW 4484   9.266   0.115   8.834  0.3056  0.3151 -0.1491
  826SOL    HW1 4485   9.305   0.186   8.783 -0.5645  0.3530 -0.7921
  826SOL    HW2 4486   9.313   0.116   8.917 -1.1511  3.1345  0.7774
  827SOL     OW 4487   3.248   6.146   8.184  0.0860 -0.8884 -0.4280
  827SOL    HW1 4488   3.339   6.142   8.157  0.6011 -1.3876  1.2631
  827SOL    HW2 4489   3.251   6.179   8.273 -1.4436 -0.3175 -0.5598
  828SOL     OW 4490   9.680   6.476   8.763  0.0522  0.3291  0.6455
  828SOL    HW1 4491   9.686   6.417   8.839  0.5221  0.3751  0.6434
  828SOL    HW2 4492   9.615   6.435   8.706 -0.0255  0.0972  0.8997
  829SOL     OW 4493   8.014   9.762   4.760 -0.5024  0.2606  0.6619
  829SOL    HW1 4494   8.051   9.693   4.815  0.2619 -0.7230 -1.0139
  829SOL    HW2 4495   7.992   9.718   4.678 -0.8000  1.8466 -0.1482
  830SOL     OW 4496   7.341   9.953   8.048 -0.3001  0.0842  0.4725
  830SOL    HW1 4497   7.392   9.894   8.104 -0.3183 -0.3942 -0.0019
  830SOL    HW2 4498   7.407   9.998   7.995 -0.2927  0.4234  0.7658
  831SOL     OW 4499   1.853   9.176   6.244  0.0191  0.1537 -0.0846
  831SOL    HW1 4500   1.829   9.194   6.335 -1.7788 -0.4820 -0.3839
  831SOL    HW2 4501   1.770   9.183   6.196  0.4585 -2.0140 -1.2694
  832SOL     OW 4502  10.503   3.174   2.860  0.1178 -0.1504 -0.0618
  832SOL    HW1 4503  10.412   3.196   2.840  0.6054  1.5847 -0.5427
  832SOL    HW2 4504  10.526   3.106   2.796 -0.0549  1.3023 -1.7419
  833SOL     OW 4505   5.139  10.487   4.360  0.9214 -0.0397  0.0822
  833SOL    HW1 4506   5.230  10.514   4.364  1.1045 -0.7622  1.2630
  833SOL    HW2 4507   5.123  10.443   4.443 -0.8624  1.1777  0.4448
  834SOL     OW 4508   0.448   3.178   8.921  0.4414  0.3785  0.1486
  834SOL    HW1 4509   0.419   3.123   8.994 -0.8172 -0.0164 -0.6094
  834SOL    HW2 4510   0.438   3.122   8.844 -0.6212  1.5476 -0.6042
  835SOL     OW 4511   0.637   8.933   1.702 -0.1196 -0.2637  0.2380
  835SOL    HW1 4512   0.616   8.957   1.611  0.8936 -1.0666 -0.2207
  835SOL    HW2 4513   0.592   8.849   1.715 -0.5991  0.0477  0.6257
  836SOL     OW 4514   7.547   3.702  10.751  0.1215 -0.2141  0.2337
  836SOL    HW1 4515   7.640   3.691  10.732 -0.1309  1.8315 -2.9244
  836SOL    HW2 4516   7.539   3.790  10.786 -0.5177 -0.9930  2.1986
  837SOL     OW 4517   3.522   0.572   3.216  0.2085  0.9197  0.0203
  837SOL    HW1 4518   3.479   0.646   3.174  1.1377  0.0400 -2.7308
  837SOL    HW2 4519   3.614   0.579   3.188  0.2842 -1.3130 -0.5139
  838SOL     OW 4520   7.571   7.360   0.196 -0.2159  0.7159 -0.0697
  838SOL    HW1 4521   7.580   7.319   0.282 -0.4058 -0.8002 -0.7569
  838SOL    HW2 4522   7.661   7.374   0.166 -0.1542  0.4018 -0.0283
  839SOL     OW 4523   3.718   4.157   7.129 -0.2553  0.3659 -0.1425
  839SOL    HW1 4524   3.694   4.157   7.036 -0.5751  0.5323 -0.0602
  839SOL    HW2 4525   3.634   4.153   7.175 -0.1479  1.2272  0.1498
  840SOL     OW 4526   5.257   1.681   7.918 -0.1165  0.2526  0.2168
  840SOL    HW1 4527   5.172   1.718   7.893 -0.4205 -0.0501  0.7732
  840SOL    HW2 4528   5.319   1.716   7.854 -1.0043 -1.2597 -1.5518
  841SOL     OW 4529   4.332   2.514   1.365 -0.1889  0.6375  0.1751
  841SOL    HW1 4530   4.321   2.477   1.278  0.5803  1.5518 -0.3154
  841SOL    HW2 4531   4.425   2.503   1.385 -0.2181  1.0823  0.5799
  842SOL     OW 4532   8.133   4.333  11.148 -0.1763  0.0884  0.7152
  842SOL    HW1 4533   8.069   4.404  11.137 -0.0780  0.2658  1.2578
  842SOL    HW2 4534   8.218   4.377  11.151  0.1725 -0.2743 -1.7627
  843SOL     OW 4535   6.778   1.642  10.424 -0.3317  0.4831  0.3242
  843SOL    HW1 4536   6.725   1.576  10.469  0.2493  0.7795  1.4636
  843SOL    HW2 4537   6.715   1.695  10.376 -0.8597 -0.5202 -0.1218
  844SOL     OW 4538   0.866   2.902   9.986  0.7492  0.1200  0.7285
  844SOL    HW1 4539   0.876   2.818   9.942  0.1927 -0.3207  1.4233
  844SOL    HW2 4540   0.943   2.908  10.043  0.7806  0.0779  0.6905
  845SOL     OW 4541   6.522   6.338   5.966  0.3474  0.1388 -0.5550
  845SOL    HW1 4542   6.568   6.415   6.000 -0.0480  0.1618 -0.0584
  845SOL    HW2 4543   6.429   6.357   5.980  0.0745  0.6721 -2.7795
  846SOL     OW 4544   4.693   7.927   4.193  0.4483  0.2833 -0.1345
  846SOL    HW1 4545   4.641   7.898   4.119 -0.1601 -1.5874  0.9531
  846SOL    HW2 4546   4.731   8.011   4.165 -0.0921 -0.1576 -2.3584
  847SOL     OW 4547   3.961   7.511   2.468 -0.5674  0.2791  0.1025
  847SOL    HW1 4548   3.871   7.482   2.485 -0.0856 -0.5397  1.3676
  847SOL    HW2 4549   3.966   7.597   2.509 -1.6026  1.7172 -2.5206
  848SOL     OW 4550   8.686  10.103   6.684  0.2299 -0.0004  0.0681
  848SOL    HW1 4551   8.616  10.168   6.686 -1.1981 -1.2761 -2.5960
  848SOL    HW2 4552   8.762  10.150   6.649 -0.9220  0.2320 -2.3365
  849SOL     OW 4553   9.032   0.847   6.236 -0.1828 -0.2440 -0.2511
  849SOL    HW1 4554   9.043   0.899   6.156  2.4823  0.8924  0.7721
  849SOL    HW2 4555   8.947   0.875   6.271 -1.3185 -0.6132 -2.5001
  850SOL     OW 4556   8.185   6.194   0.121 -0.3532  0.1425  0.4146
  850SOL    HW1 4557   8.220   6.105   0.125 -2.0586 -0.5618  0.3338
  850SOL    HW2 4558   8.242   6.244   0.179  0.8366 -0.9151  0.2136
  851SOL     OW 4559   4.262   7.783   7.997  0.2208  0.1171  0.1952
  851SOL    HW1 4560   4.344   7.831   7.980  1.0106 -1.6676 -1.4677
  851SOL    HW2 4561   4.266   7.761   8.090  2.0043 -0.5281  0.0076
  852SOL     OW 4562   1.936   7.082  10.441 -0.4979 -0.0664  0.3023
  852SOL    HW1 4563   1.980   7.116  10.519  3.0306 -1.2672 -0.9821
  852SOL    HW2 4564   1.843   7.101  10.456  0.4739  4.6275  2.3273
  853SOL     OW 4565   0.689  10.419   2.107 -0.0442  1.0520 -0.1485
  853SOL    HW1 4566   0.678  10.352   2.175 -1.1488  1.2319 -0.1286
  853SOL    HW2 4567   0.644  10.383   2.031 -1.4790  2.1603  0.1481
  854SOL     OW 4568   6.688   0.872   5.593  0.0520 -0.3473 -0.2763
  854SOL    HW1 4569   6.616   0.811   5.610 -1.5943  0.8738 -2.3338
  854SOL    HW2 4570   6.756   0.818   5.552  0.4922 -1.5657  1.8946
  855SOL     OW 4571   9.913   2.325  11.027  0.0791  0.3536 -0.1494
  855SOL    HW1 4572   9.818   2.317  11.042 -0.0280 -0.0156 -1.0082
  855SOL    HW2 4573   9.949   2.344  11.114 -0.9143  1.7435  0.0007
  856SOL     OW 4574   6.569   4.639  10.023 -0.5970  0.7939 -0.2204
  856SOL    HW1 4575   6.624   4.625   9.946 -0.2987  1.1321 -0.0696
  856SOL    HW2 4576   6.547   4.551  10.053  0.8114  0.6318  0.4067
  857SOL     OW 4577   7.279   9.427  10.560  0.1126  0.0661  0.3170
  857SOL    HW1 4578   7.369   9.404  10.581  0.2612  0.3369 -0.0057
  857SOL    HW2 4579   7.263   9.385  10.475  0.3099  0.9305 -0.1640
  858SOL     OW 4580   9.090   5.355   1.263 -0.1063 -0.3994  0.6599
  858SOL    HW1 4581   9.138   5.434   1.239 -0.0328 -0.3938  0.8213
  858SOL    HW2 4582   9.045   5.329   1.183  0.0085 -0.2923  0.5597
  859SOL     OW 4583   5.138  10.901   9.663 -0.5918  0.5726 -0.4197
  859SOL    HW1 4584   5.221  10.943   9.641 -0.8558  0.4192 -1.7983
  859SOL    HW2 4585   5.071  10.957   9.622 -1.2709  1.2382  1.4831
  860SOL     OW 4586   4.741   0.405   8.337  0.2297  0.4883 -1.2763
  860SOL    HW1 4587   4.785   0.438   8.259 -1.2070 -1.7017 -3.1470
  860SOL    HW2 4588   4.728   0.312   8.319 -2.4195  0.4236  0.4709
  861SOL     OW 4589   9.999   9.497   2.938  0.2628  0.3923 -0.4991
  861SOL    HW1 4590   9.997   9.413   2.983 -1.2048 -0.0088 -1.2412
  861SOL    HW2 4591  10.086   9.502   2.899  0.5162 -0.5813 -0.0689
  862SOL     OW 4592   2.296   8.336   4.780 -0.1034 -0.1689  0.2136
  862SOL    HW1 4593   2.382   8.347   4.821 -0.2753 -2.8749  1.5638
  862SOL    HW2 4594   2.282   8.417   4.731  2.3744  1.1341  1.4495
  863SOL     OW 4595  10.281   7.245  10.406 -0.2974 -0.3145  0.1689
  863SOL    HW1 4596  10.195   7.229  10.445 -1.3441  0.4155 -1.6894
  863SOL    HW2 4597  10.295   7.170  10.348 -0.0458 -0.0550 -0.1117
  864SOL     OW 4598   7.902   1.221   2.044 -0.0541  0.4629 -0.1912
  864SOL    HW1 4599   7.945   1.137   2.027 -2.0616 -0.8104  0.6276
  864SOL    HW2 4600   7.846   1.235   1.968  0.8362  1.4827 -0.6820
  865SOL     OW 4601   5.125  11.264  10.454 -0.8194  0.1672 -0.4979
  865SOL    HW1 4602   5.204  11.221  10.421 -0.3104  1.3638 -0.8948
  865SOL    HW2 4603   5.052  11.213  10.418 -0.3462 -3.0280  2.5078
  866SOL     OW 4604   3.784   8.673   5.419 -0.0220 -0.4817 -0.0193
  866SOL    HW1 4605   3.851   8.606   5.403 -0.6931 -1.6310  1.6326
  866SOL    HW2 4606   3.826   8.755   5.393  2.2799 -1.0748  1.4573
  867SOL     OW 4607   6.977   0.950   7.778  0.6235 -0.1683 -0.6417
  867SOL    HW1 4608   6.962   0.856   7.775 -0.7362 -0.0140  0.4567
  867SOL    HW2 4609   7.045   0.962   7.844  0.5739 -0.3454 -0.5590
  868SOL     OW 4610  11.034   5.626   3.360  0.3341 -0.4259 -0.4369
  868SOL    HW1 4611  11.052   5.573   3.438 -1.9636 -1.3050 -0.4331
  868SOL    HW2 4612  11.098   5.697   3.364 -0.0864 -0.0812  2.5904
  869SOL     OW 4613  10.590   1.577   7.001  0.5844  0.3379 -0.2079
  869SOL    HW1 4614  10.508   1.542   6.966  2.1872 -2.4406 -1.5418
  869SOL    HW2 4615  10.564   1.622   7.081 -2.0096 -2.9307  1.0480
  870SOL     OW 4616  11.090   3.464   6.965  0.0156  0.1118  0.2403
  870SOL    HW1 4617  11.116   3.436   7.052  0.5182  0.6162  0.2661
  870SOL    HW2 4618  11.123   3.396   6.907  1.4796  0.7449  0.2717
  871SOL     OW 4619   4.789   3.668   4.813 -0.3940  0.6064 -0.1393
  871SOL    HW1 4620   4.879   3.667   4.780 -0.8758 -3.0399 -1.7496
  871SOL    HW2 4621   4.737   3.630   4.742 -3.1584  2.0558  0.9896
  872SOL     OW 4622   6.867   1.189   5.265  0.0813 -0.3555  0.5128
  872SOL    HW1 4623   6.913   1.190   5.182  0.4284 -3.0151  0.5880
  872SOL    HW2 4624   6.902   1.113   5.311 -2.3136 -0.8034  1.7732
  873SOL     OW 4625   0.212   0.628   6.153 -0.3154 -0.1182 -0.5239
  873SOL    HW1 4626   0.211   0.683   6.075 -1.3395  1.9076  0.8381
  873SOL    HW2 4627   0.126   0.641   6.193 -0.6525 -2.8331 -0.1560
  874SOL     OW 4628   4.185   4.382   6.199 -0.2739 -1.2731  0.1313
  874SOL    HW1 4629   4.147   4.443   6.136  0.1536  1.2273  2.1264
  874SOL    HW2 4630   4.275   4.369   6.169  0.0031  0.0978  0.2888
  875SOL     OW 4631   9.709   9.598   8.640 -0.0305 -0.5051  0.1613
  875SOL    HW1 4632   9.693   9.570   8.730  0.4497  0.8223  0.6897
  875SOL    HW2 4633   9.768   9.531   8.604  3.2975  1.0260  2.2458
  876SOL     OW 4634   7.080   2.793   7.112 -0.0073  0.1284 -0.6028
  876SOL    HW1 4635   7.113   2.867   7.062  1.6936 -0.4625 -0.4328
  876SOL    HW2 4636   7.151   2.772   7.173 -1.6901  0.3289  1.5396
  877SOL     OW 4637   3.393   2.976   1.711 -0.0052 -0.1339 -0.2163
  877SOL    HW1 4638   3.481   2.999   1.681  0.9415 -1.3534  1.4885
  877SOL    HW2 4639   3.396   2.989   1.806 -1.5784 -0.5093 -0.0917
  878SOL     OW 4640   2.028   1.033  10.124 -0.8260  0.6768  0.2419
  878SOL    HW1 4641   2.071   1.099  10.070 -0.1407  0.6533  0.7426
  878SOL    HW2 4642   2.072   0.951  10.102 -0.4210  0.6961  0.9516
  879SOL     OW 4643   6.918   0.527   0.899  0.1474  0.0384 -0.4793
  879SOL    HW1 4644   6.844   0.588   0.909 -0.9940 -1.3029 -0.4430
  879SOL    HW2 4645   6.979   0.553   0.968 -0.1826  1.3088 -0.6337
  880SOL     OW 4646   0.516   3.701   8.688  0.2240 -1.1594  0.7672
  880SOL    HW1 4647   0.513   3.740   8.601 -1.6527 -1.7753  0.5082
  880SOL    HW2 4648   0.544   3.611   8.674  4.2711 -0.1879  1.3376
  881SOL     OW 4649  10.579   0.843  10.877 -0.1689  0.0628  0.3945
  881SOL    HW1 4650  10.525   0.818  10.802 -1.9946 -0.4327  1.7747
  881SOL    HW2 4651  10.532   0.916  10.917  0.6033  0.1314  1.2045
  882SOL     OW 4652   4.349   6.366   8.182  0.9133  0.5595  0.0239
  882SOL    HW1 4653   4.373   6.448   8.139  2.3762  0.1510  0.0192
  882SOL    HW2 4654   4.432   6.326   8.206  0.1944  0.4430  2.6584
  883SOL     OW 4655   4.329   2.810  10.363  0.7814 -0.1710  0.2693
  883SOL    HW1 4656   4.409   2.783  10.408  1.1951  1.1022  0.3268
  883SOL    HW2 4657   4.342   2.781  10.272  0.2107 -2.1842  0.7766
  884SOL     OW 4658   2.656   8.233   8.850 -0.3590 -0.2868  0.3899
  884SOL    HW1 4659   2.674   8.164   8.786 -1.3530  1.9228 -2.5448
  884SOL    HW2 4660   2.611   8.188   8.922  1.6809 -3.0785  0.0735
  885SOL     OW 4661   2.568  10.588   1.753 -0.5745  0.2730  0.5192
  885SOL    HW1 4662   2.628  10.590   1.679  0.2554  0.1118  1.1768
  885SOL    HW2 4663   2.572  10.498   1.786 -3.2218 -0.5228 -1.0411
  886SOL     OW 4664   2.449   8.258   8.263  0.2927  0.0831  0.3541
  886SOL    HW1 4665   2.456   8.177   8.211  0.5008  0.2269  0.1577
  886SOL    HW2 4666   2.539   8.287   8.274  0.4538 -1.0447  2.5388
  887SOL     OW 4667   2.969   4.586  10.163  0.2742 -0.5328  1.0183
  887SOL    HW1 4668   3.010   4.537  10.092  2.3002  0.8515  1.1376
  887SOL    HW2 4669   3.036   4.588  10.232  0.4367  2.5411  0.9087
  888SOL     OW 4670  10.665   0.418   0.689  0.0985  0.3909 -0.0226
  888SOL    HW1 4671  10.710   0.385   0.611  0.7976  1.0707  0.0772
  888SOL    HW2 4672  10.607   0.347   0.715 -0.7730  0.4479 -1.6470
  889SOL     OW 4673   8.005   9.504   4.183  0.5880 -0.5558  0.1038
  889SOL    HW1 4674   7.973   9.530   4.096  1.8641 -2.7435 -1.1203
  889SOL    HW2 4675   8.092   9.544   4.189 -0.0770  0.8152  1.0559
  890SOL     OW 4676   4.525   5.976   1.562  0.5313 -0.0503  0.2548
  890SOL    HW1 4677   4.469   5.921   1.507  1.0752 -0.4384  0.0751
  890SOL    HW2 4678   4.510   6.065   1.531  1.1210 -0.2984 -0.8041
  891SOL     OW 4679   3.139   3.382   3.926 -0.6269 -0.0064 -0.4943
  891SOL    HW1 4680   3.150   3.362   3.833 -0.8183 -0.2368 -0.4691
  891SOL    HW2 4681   3.202   3.451   3.944 -2.9035  2.5298 -1.5779
  892SOL     OW 4682   6.434   1.859   4.218 -0.5168 -0.5283 -0.1261
  892SOL    HW1 4683   6.358   1.890   4.169  0.0832  1.6116  0.1778
  892SOL    HW2 4684   6.401   1.788   4.273 -1.7102 -1.3540 -1.8375
  893SOL     OW 4685   4.495   2.269   4.960 -0.5238  0.3910  0.4759
  893SOL    HW1 4686   4.572   2.308   5.000  0.0820 -2.5952  2.4836
  893SOL    HW2 4687   4.429   2.268   5.030 -1.8774  1.2914 -0.7030
  894SOL     OW 4688   5.208  10.445   3.810 -0.2320  0.0102 -0.1767
  894SOL    HW1 4689   5.210  10.408   3.899  1.1481  0.5747  0.0631
  894SOL    HW2 4690   5.116  10.443   3.785 -1.1449  2.4827  2.4035
  895SOL     OW 4691  10.300   7.364   4.038  0.3218 -0.3559  0.1142
  895SOL    HW1 4692  10.284   7.449   3.997 -0.4670 -0.3505  0.4177
  895SOL    HW2 4693  10.292   7.381   4.132  1.3410 -0.5287  0.2417
  896SOL     OW 4694   4.900   9.379  11.239 -0.0623  0.2639 -0.3319
  896SOL    HW1 4695   4.943   9.358  11.156  2.5173  0.8117  0.7581
  896SOL    HW2 4696   4.869   9.295  11.272  0.6626 -0.2492 -0.9373
  897SOL     OW 4697   6.172  10.869   2.270  0.0887  0.6383  0.1368
  897SOL    HW1 4698   6.233  10.807   2.311  1.1025  2.1581  1.0307
  897SOL    HW2 4699   6.178  10.948   2.325 -3.0072  0.7256  0.4845
  898SOL     OW 4700   3.033   2.422   6.286  0.1021 -0.1352 -0.3210
  898SOL    HW1 4701   3.019   2.517   6.289  1.3808  0.1443 -1.8226
  898SOL    HW2 4702   2.947   2.384   6.307 -0.8013  1.3641 -1.1555
  899SOL     OW 4703   1.810  10.913   8.282 -0.3105 -0.1878  0.0650
  899SOL    HW1 4704   1.899  10.878   8.278 -1.0066 -2.2830  1.4841
  899SOL    HW2 4705   1.800  10.943   8.373 -0.7197  1.0647 -0.3704
  900SOL     OW 4706   1.979   6.083   9.619  0.1719 -0.1825 -0.2954
  900SOL    HW1 4707   2.062   6.127   9.636  0.1470 -0.5145  0.7347
  900SOL    HW2 4708   1.914   6.136   9.666 -0.2221  0.1309 -1.1727
  901SOL     OW 4709   0.141   2.565  10.599 -0.4528 -0.2332 -1.0604
  901SOL    HW1 4710   0.103   2.516  10.526 -0.7497 -0.4294 -0.7762
  901SOL    HW2 4711   0.232   2.534  10.603  0.3510  1.6419 -2.9755
  902SOL     OW 4712   8.528   2.841   7.144 -0.0398  0.1320 -0.6083
  902SOL    HW1 4713   8.465   2.847   7.216  0.9905 -1.0030  0.4516
  902SOL    HW2 4714   8.478   2.805   7.071 -0.9098  0.4747 -0.1982
  903SOL     OW 4715   3.930   5.738   0.964 -0.3448  0.1244 -0.4911
  903SOL    HW1 4716   3.900   5.825   0.936  0.7378  0.6283 -0.1429
  903SOL    HW2 4717   3.993   5.756   1.034  0.5584 -0.9077 -1.0074
  904SOL     OW 4718   6.806  10.343   6.715 -0.6121 -0.6912 -0.4138
  904SOL    HW1 4719   6.862  10.338   6.793 -1.8507  0.6153  0.6119
  904SOL    HW2 4720   6.762  10.258   6.711  0.8845 -1.4940 -0.8610
  905SOL     OW 4721   9.484   1.280   7.265  0.0721  0.0191 -0.1150
  905SOL    HW1 4722   9.520   1.356   7.309 -0.4426 -1.1165  2.4529
  905SOL    HW2 4723   9.389   1.287   7.278  0.0060 -0.9421  0.0467
  906SOL     OW 4724   7.024   7.777   0.332 -0.4163 -0.4707 -0.2591
  906SOL    HW1 4725   7.028   7.753   0.240 -0.1493 -0.5082 -0.2392
  906SOL    HW2 4726   6.970   7.856   0.334  1.2936  0.7539 -0.7020
  907SOL     OW 4727   6.880   2.278   3.107  0.0140  0.1614  0.6339
  907SOL    HW1 4728   6.795   2.240   3.130  0.8770 -0.7998  2.4068
  907SOL    HW2 4729   6.896   2.249   3.018 -1.8245  0.9599 -0.0103
  908SOL     OW 4730   2.658  10.307   4.197 -0.7954 -0.2716 -0.4950
  908SOL    HW1 4731   2.616  10.390   4.173  1.0204  0.8265 -0.0772
  908SOL    HW2 4732   2.613  10.280   4.277 -0.0197  1.4550  0.5833
  909SOL     OW 4733   3.934   6.105   4.881  0.2607 -0.4858 -0.0152
  909SOL    HW1 4734   3.925   6.132   4.972  0.4481  0.9993 -0.4096
  909SOL    HW2 4735   3.854   6.055   4.862  0.2720 -0.8949  0.9760
  910SOL     OW 4736   5.001   6.733   1.752  0.7357 -0.1359 -0.0888
  910SOL    HW1 4737   4.941   6.689   1.813  1.3070 -0.5622  0.1668
  910SOL    HW2 4738   4.943   6.778   1.690  0.1410 -1.2780 -0.3829
  911SOL     OW 4739   0.703   4.983   2.206 -0.6173 -0.3182  0.4543
  911SOL    HW1 4740   0.632   4.944   2.256 -1.7345 -0.7086 -1.3454
  911SOL    HW2 4741   0.723   4.918   2.139  0.6270  0.3004  0.1960
  912SOL     OW 4742   7.019   4.288   2.142 -0.0086  0.4893  0.0961
  912SOL    HW1 4743   7.062   4.370   2.168  0.0447  0.1865  0.9863
  912SOL    HW2 4744   6.975   4.310   2.059  0.6034  1.2170 -0.0566
  913SOL     OW 4745   7.176   0.481   1.661 -0.2780  0.8761  0.2205
  913SOL    HW1 4746   7.123   0.535   1.720 -0.5559  0.1958  0.5982
  913SOL    HW2 4747   7.266   0.498   1.689 -0.4046  0.6028  0.8045
  914SOL     OW 4748   5.978  11.146   2.855 -0.9481  0.5438 -0.7670
  914SOL    HW1 4749   5.959  11.198   2.933  0.0317  0.9247 -0.7655
  914SOL    HW2 4750   5.977  11.209   2.783  1.7286  0.9310 -0.5828
  915SOL     OW 4751   5.553   2.947   4.515 -0.3508 -0.1071  0.3608
  915SOL    HW1 4752   5.495   3.022   4.505 -0.4165 -0.2581 -0.4814
  915SOL    HW2 4753   5.640   2.981   4.497 -0.4480 -0.3414 -0.6343
  916SOL     OW 4754   7.758  10.003   5.194 -0.3553  0.1482  0.0123
  916SOL    HW1 4755   7.680   9.970   5.150  0.3972 -0.6795 -0.7513
  916SOL    HW2 4756   7.824   9.935   5.180 -0.3735 -0.7914  3.4776
  917SOL     OW 4757   1.684  11.261   1.796 -0.1482  0.3986  0.0203
  917SOL    HW1 4758   1.666  11.353   1.816  1.8596  0.9865 -0.5274
  917SOL    HW2 4759   1.709  11.222   1.879 -0.2490  0.5550  0.1232
  918SOL     OW 4760   1.008   7.796   7.791 -0.5729  0.3773  0.3495
  918SOL    HW1 4761   1.062   7.822   7.717  1.7442 -0.3435  1.6671
  918SOL    HW2 4762   1.040   7.848   7.864 -0.7966 -0.9430  1.4440
  919SOL     OW 4763  11.207   9.588   8.734  0.0492  0.0482  0.0929
  919SOL    HW1 4764  11.289   9.547   8.761 -2.1939 -3.6597  2.0922
  919SOL    HW2 4765  11.188   9.652   8.802 -0.2499 -1.4260  1.4344
  920SOL     OW 4766   9.840   4.110   4.990 -0.2364  0.0112 -0.2337
  920SOL    HW1 4767   9.935   4.122   4.984 -0.4105  1.3633 -0.6261
  920SOL    HW2 4768   9.812   4.170   5.058 -0.6585 -1.4907  0.9748
  921SOL     OW 4769   5.007   4.061  10.445  0.3511  0.1048 -0.7071
  921SOL    HW1 4770   4.941   4.070  10.514  0.2626  0.1994 -0.8039
  921SOL    HW2 4771   5.086   4.100  10.482  0.7449 -1.2462 -0.0605
  922SOL     OW 4772   1.857   2.143   5.312 -0.0375  0.8417  0.3877
  922SOL    HW1 4773   1.841   2.233   5.281 -0.7032  0.8228  0.6672
  922SOL    HW2 4774   1.901   2.100   5.238  0.9082  1.5784  0.4928
  923SOL     OW 4775   3.569  10.877   9.574  0.0395 -0.3965  0.3407
  923SOL    HW1 4776   3.612  10.804   9.530  2.2341  1.3767 -0.6685
  923SOL    HW2 4777   3.639  10.918   9.626 -0.9610  1.3060  0.4119
  924SOL     OW 4778   5.867   2.859   3.407  0.6822 -0.0729  0.3431
  924SOL    HW1 4779   5.824   2.945   3.414  2.2322  0.7726 -0.0408
  924SOL    HW2 4780   5.813   2.811   3.345 -0.2291  0.6011  0.5787
  925SOL     OW 4781   0.191   4.001   7.381 -0.0252  0.3217 -0.0869
  925SOL    HW1 4782   0.210   4.086   7.342  0.2004  0.6803  0.7835
  925SOL    HW2 4783   0.272   3.977   7.427 -0.1147 -0.3284 -0.2526
  926SOL     OW 4784   5.203   4.880   2.415 -0.3706 -0.0496  1.4251
  926SOL    HW1 4785   5.122   4.874   2.466 -0.5783 -1.1840  0.9952
  926SOL    HW2 4786   5.231   4.789   2.404  0.3832  0.2619  0.6621
  927SOL     OW 4787   2.814   5.418   5.940  0.0499 -0.0749 -0.5737
  927SOL    HW1 4788   2.789   5.477   6.012  0.2133 -0.3955 -0.2515
  927SOL    HW2 4789   2.771   5.455   5.863 -1.5982 -0.7253  0.0007
  928SOL     OW 4790   3.605   5.109   4.713  0.4359 -0.2705 -0.1687
  928SOL    HW1 4791   3.597   5.139   4.622 -0.4187 -1.9890 -0.7019
  928SOL    HW2 4792   3.580   5.184   4.766 -5.8455 -0.9213 -1.4669
  929SOL     OW 4793   6.532   4.932   7.209 -0.8487 -0.1324  0.4943
  929SOL    HW1 4794   6.582   5.013   7.214 -0.0465 -0.6274  0.6828
  929SOL    HW2 4795   6.504   4.915   7.299  1.9459 -1.8547  1.1625
  930SOL     OW 4796   4.943   7.765   9.989  0.8347 -0.0827  0.3498
  930SOL    HW1 4797   4.885   7.690   9.976  0.6563  0.0090  0.5948
  930SOL    HW2 4798   4.941   7.780  10.084  1.5395 -0.3020  0.4003
  931SOL     OW 4799   0.889   5.501   4.905 -0.1475 -0.1927 -0.1214
  931SOL    HW1 4800   0.843   5.569   4.955 -2.2369 -0.0789 -2.0235
  931SOL    HW2 4801   0.896   5.538   4.817  1.2807 -1.3239 -0.4992
  932SOL     OW 4802   0.713   0.202   8.256 -0.6186  0.1673 -0.6642
  932SOL    HW1 4803   0.778   0.133   8.250  1.0370  1.3323  2.1139
  932SOL    HW2 4804   0.724   0.252   8.175  2.0417  0.3178 -0.3033
  933SOL     OW 4805   1.716   5.846   0.021  0.1822 -0.1194  0.4399
  933SOL    HW1 4806   1.803   5.884   0.037  0.0550  0.3889 -0.0485
  933SOL    HW2 4807   1.682   5.895  -0.054 -2.5806  3.2396  3.5114
  934SOL     OW 4808   4.790   0.035   8.001 -0.2323 -0.0689  0.2770
  934SOL    HW1 4809   4.828   0.071   7.921  0.8680  1.6977  1.5099
  934SOL    HW2 4810   4.695   0.033   7.984  0.0021  0.0683 -1.1246
  935SOL     OW 4811   4.111   1.826   5.448  0.2142  0.1919 -0.2267
  935SOL    HW1 4812   4.045   1.844   5.515  0.6951  1.3921 -0.0533
  935SOL    HW2 4813   4.156   1.747   5.479 -1.1153 -0.6553 -0.3556
  936SOL     OW 4814   7.673   9.499   7.484  0.4200 -0.3916 -0.3983
  936SOL    HW1 4815   7.634   9.459   7.562 -0.8170  1.3459 -0.0628
  936SOL    HW2 4816   7.733   9.433   7.450  0.8804 -1.2459  1.9308
  937SOL     OW 4817  10.456   7.395   2.771 -0.6594 -0.2889  0.8396
  937SOL    HW1 4818  10.430   7.303   2.763 -0.7143 -0.4327  2.4034
  937SOL    HW2 4819  10.430   7.420   2.859  0.2801  0.9422  0.7949
  938SOL     OW 4820   2.646   7.706   4.934 -0.0689  0.0462  0.0931
  938SOL    HW1 4821   2.553   7.729   4.940 -0.0696 -0.0842  0.6461
  938SOL    HW2 4822   2.690   7.772   4.987  0.1226 -0.0591  0.0644
  939SOL     OW 4823   6.052   2.475   8.555 -0.4862  0.2830  0.2965
  939SOL    HW1 4824   6.018   2.564   8.553 -1.6034 -0.1217  0.5372
  939SOL    HW2 4825   6.081   2.458   8.465 -1.1946  0.5581  0.0047
  940SOL     OW 4826   8.300   2.860  10.411  0.2398  0.8243  0.8617
  940SOL    HW1 4827   8.302   2.782  10.468  0.7601  1.4950  1.7841
  940SOL    HW2 4828   8.214   2.857  10.370  0.2490 -0.2386  0.8864
  941SOL     OW 4829   5.583   6.803   2.050  0.2762  0.5046  0.0082
  941SOL    HW1 4830   5.496   6.817   2.086  0.5185 -0.7421  1.1543
  941SOL    HW2 4831   5.568   6.776   1.959 -0.8374 -3.5622  1.2289
  942SOL     OW 4832   7.393   0.157   1.474 -0.0647 -0.1376  0.3920
  942SOL    HW1 4833   7.476   0.124   1.439  0.0216 -0.1420  0.5963
  942SOL    HW2 4834   7.415   0.186   1.563 -0.5309 -1.2684  0.8946
  943SOL     OW 4835   0.038   6.380   5.333  0.4452 -0.3993 -0.0226
  943SOL    HW1 4836  -0.008   6.310   5.380 -0.7459  1.8773  2.5069
  943SOL    HW2 4837  -0.017   6.457   5.347  2.5032  1.3864 -1.2949
  944SOL     OW 4838   0.620   8.164   5.912  0.0572 -0.0449 -0.0013
  944SOL    HW1 4839   0.618   8.077   5.951 -0.9040 -0.1664 -0.3074
  944SOL    HW2 4840   0.548   8.211   5.954  0.5094  0.5752  0.0920
  945SOL     OW 4841   5.023   4.673   0.634  0.3005  0.0693 -0.0023
  945SOL    HW1 4842   4.951   4.713   0.683  1.0529  0.3897  0.8688
  945SOL    HW2 4843   5.081   4.746   0.613 -1.1362  0.3998 -3.5549
  946SOL     OW 4844   8.901   0.942   6.604  0.6998  0.0976  0.1689
  946SOL    HW1 4845   8.850   0.916   6.528  1.5530 -1.1422 -0.0183
  946SOL    HW2 4846   8.971   0.997   6.568  0.1306  0.9222  0.2927
  947SOL     OW 4847   4.878  10.800   6.302  0.2365  0.5313  0.6645
  947SOL    HW1 4848   4.823  10.873   6.331 -1.9430  0.0581 -1.8650
  947SOL    HW2 4849   4.968  10.834   6.309 -0.6574  3.4107 -0.2165
  948SOL     OW 4850   8.057  10.468   9.565  0.2649 -0.3968  0.0650
  948SOL    HW1 4851   8.012  10.461   9.481 -0.1920 -0.5544  0.3202
  948SOL    HW2 4852   8.093  10.556   9.566 -0.8360  0.0670  0.2517
  949SOL     OW 4853   2.532   1.077   8.130 -0.3470  0.3684 -0.1004
  949SOL    HW1 4854   2.552   1.169   8.113 -2.0864  0.3815 -2.7924
  949SOL    HW2 4855   2.600   1.029   8.084 -0.6256  0.3396 -0.4868
  950SOL     OW 4856   5.883   1.822   3.517  0.1973  0.3304 -0.0252
  950SOL    HW1 4857   5.954   1.887   3.512 -2.0142  2.8896 -0.3641
  950SOL    HW2 4858   5.896   1.778   3.601  2.0444  0.8437 -0.0015
  951SOL     OW 4859   4.969   2.647   6.499 -0.1855 -0.5212 -0.8785
  951SOL    HW1 4860   4.953   2.699   6.577  1.4606  1.3626 -1.6853
  951SOL    HW2 4861   5.019   2.571   6.530 -1.9343 -1.2836  0.2163
  952SOL     OW 4862   7.962   3.592   5.951  0.1631 -0.1789 -0.1932
  952SOL    HW1 4863   7.880   3.548   5.929  0.3646  0.6684 -3.0213
  952SOL    HW2 4864   8.030   3.529   5.930  0.3213 -0.3914  0.8804
  953SOL     OW 4865  10.424   4.316   1.009  1.0738 -0.6240 -0.5302
  953SOL    HW1 4866  10.410   4.411   1.020  0.5426 -0.9359  2.7463
  953SOL    HW2 4867  10.519   4.306   1.010  1.1277 -0.1512 -0.3307
  954SOL     OW 4868   9.613   4.400   0.676 -0.3637 -0.5359 -0.8149
  954SOL    HW1 4869   9.589   4.483   0.717 -1.6723  0.0851 -2.7110
  954SOL    HW2 4870   9.535   4.345   0.686  0.5620 -1.6521  0.6060
  955SOL     OW 4871   6.275   7.050   0.733 -0.5562 -0.2981 -0.1795
  955SOL    HW1 4872   6.337   7.005   0.675  0.5954  0.4290  0.4375
  955SOL    HW2 4873   6.330   7.111   0.783 -1.3018 -1.6467  2.4653
  956SOL     OW 4874   2.459  10.283   1.119 -0.1238  0.4835  0.9412
  956SOL    HW1 4875   2.404  10.240   1.185  0.2179  0.4847  1.2315
  956SOL    HW2 4876   2.399  10.305   1.048 -0.3124 -0.4301  0.8056
  957SOL     OW 4877   4.634   1.631   3.882  0.1469  0.5865  0.0158
  957SOL    HW1 4878   4.690   1.702   3.848 -0.4320  0.8801 -0.3454
  957SOL    HW2 4879   4.549   1.648   3.842  0.3746 -1.2349 -1.3464
  958SOL     OW 4880   0.944   1.720   4.120  0.6873 -0.2316  0.9158
  958SOL    HW1 4881   0.955   1.626   4.105 -0.4330 -0.3478  0.6960
  958SOL    HW2 4882   0.865   1.742   4.070  2.3435  1.3523 -1.1705
  959SOL     OW 4883   0.225   9.408   0.259 -0.4461 -0.0521 -0.2040
  959SOL    HW1 4884   0.203   9.424   0.168 -0.0949 -1.4371 -0.5641
  959SOL    HW2 4885   0.189   9.321   0.277  1.1374 -0.6318  0.3798
  960SOL     OW 4886   9.039  10.044   2.912 -0.5076  0.2411  0.1103
  960SOL    HW1 4887   8.966  10.007   2.862 -0.3492 -0.0451  0.0846
  960SOL    HW2 4888   9.004  10.058   3.000 -0.7780  0.7089 -0.0717
  961SOL     OW 4889   2.012   1.830   2.528 -0.0532  0.0688  0.1390
  961SOL    HW1 4890   1.981   1.847   2.617  1.1254 -0.8913  0.7786
  961SOL    HW2 4891   1.935   1.802   2.480 -0.6621  0.3437  0.9384
  962SOL     OW 4892  11.259   7.292   9.489  0.0125  0.2929 -0.1427
  962SOL    HW1 4893  11.200   7.222   9.518 -1.8590  1.7368 -0.2426
  962SOL    HW2 4894  11.299   7.325   9.569 -1.4059  1.0321  0.3127
  963SOL     OW 4895  10.557   3.323   5.207  0.1197 -0.1284  0.0946
  963SOL    HW1 4896  10.637   3.271   5.197  1.8235  1.8249  2.2935
  963SOL    HW2 4897  10.581   3.410   5.174 -1.2321  0.4054  0.4462
  964SOL     OW 4898  10.206   6.895   2.673  0.3529 -0.2508  0.2171
  964SOL    HW1 4899  10.196   6.842   2.593  0.5542 -0.5685  0.4005
  964SOL    HW2 4900  10.121   6.939   2.683  0.1628 -0.5847  0.0958
  965SOL     OW 4901   9.885   0.404   8.283  0.1674 -0.9404 -0.1175
  965SOL    HW1 4902   9.822   0.396   8.354  0.8773 -0.0166  0.6393
  965SOL    HW2 4903   9.962   0.357   8.314  0.0966 -1.4975 -0.7631
  966SOL     OW 4904   8.650   3.075   4.610  0.2604 -0.5384 -0.2089
  966SOL    HW1 4905   8.652   3.010   4.680  2.0762 -0.3862 -0.0745
  966SOL    HW2 4906   8.614   3.154   4.652  0.3343 -0.7537  0.2683
  967SOL     OW 4907   6.472   4.812   8.842  0.0746 -0.2994  0.0557
  967SOL    HW1 4908   6.420   4.886   8.873 -0.6881 -0.3050 -1.1747
  967SOL    HW2 4909   6.536   4.797   8.912 -1.5117 -0.2454  1.5712
  968SOL     OW 4910   6.027   1.157   9.541 -0.7374  0.3737 -0.4794
  968SOL    HW1 4911   5.944   1.142   9.586 -0.4158  1.4203  0.5052
  968SOL    HW2 4912   6.016   1.240   9.495 -1.2232 -0.8912 -2.8183
  969SOL     OW 4913   6.811   9.269   0.224  0.1305 -0.1908 -0.5341
  969SOL    HW1 4914   6.836   9.224   0.143  1.3332  0.0365 -0.3102
  969SOL    HW2 4915   6.859   9.222   0.293  0.6252  0.7885 -0.1869
  970SOL     OW 4916   5.427   6.843   1.823  0.1023  0.3299 -0.2290
  970SOL    HW1 4917   5.414   6.756   1.784  0.3378 -1.4119  3.1536
  970SOL    HW2 4918   5.340   6.867   1.856  0.4528  0.3220  0.7376
  971SOL     OW 4919  10.378   1.534   4.606  0.0680 -0.3431 -0.3118
  971SOL    HW1 4920  10.420   1.455   4.640  1.0152  0.2388 -0.0824
  971SOL    HW2 4921  10.363   1.515   4.513  0.9263 -0.5469 -0.4212
  972SOL     OW 4922   2.065   2.767   7.255  0.0626  0.4488  0.6818
  972SOL    HW1 4923   1.996   2.770   7.321  0.9616 -1.2761  1.7785
  972SOL    HW2 4924   2.132   2.827   7.288  1.0416 -1.2991  2.0645
  973SOL     OW 4925  10.957  10.133   0.285  0.1721  0.3402  0.3172
  973SOL    HW1 4926  11.010  10.085   0.349  0.4422  2.4010  1.7456
  973SOL    HW2 4927  10.873  10.146   0.328 -0.3712 -0.0505 -0.6121
  974SOL     OW 4928   0.716  10.800  11.076  0.7243 -0.3512  0.0622
  974SOL    HW1 4929   0.648  10.735  11.062  0.9024 -0.2674 -1.3751
  974SOL    HW2 4930   0.787  10.773  11.017  0.9214  0.9607 -0.3256
  975SOL     OW 4931   0.134   5.014   4.038  0.8444 -0.4564 -0.4975
  975SOL    HW1 4932   0.045   5.030   4.009  0.6734 -1.0021 -0.2796
  975SOL    HW2 4933   0.158   5.092   4.088 -0.9026 -1.8782  2.8136
  976SOL     OW 4934   5.620   9.039   3.682  0.4028  0.1877  0.0576
  976SOL    HW1 4935   5.551   9.041   3.616  0.0314  0.0949  0.4358
  976SOL    HW2 4936   5.622   9.129   3.717 -0.3817 -0.1120  0.9071
  977SOL     OW 4937  10.288   1.927   9.839  0.1484  0.3139  0.2135
  977SOL    HW1 4938  10.207   1.975   9.857 -0.7713 -0.9810 -0.2920
  977SOL    HW2 4939  10.349   1.955   9.908 -0.4305  1.9482  0.1050
  978SOL     OW 4940   7.477   4.929   2.574  0.3631  0.5267 -0.4703
  978SOL    HW1 4941   7.454   4.979   2.652 -0.6071  0.0667 -0.4390
  978SOL    HW2 4942   7.484   4.838   2.605 -3.4553 -0.2824 -1.3972
  979SOL     OW 4943   9.255  11.034  10.252  0.2270 -0.2656  0.1221
  979SOL    HW1 4944   9.245  11.129  10.256 -2.6503 -0.4500 -0.6602
  979SOL    HW2 4945   9.298  11.017  10.169  0.7016  0.3309  0.2409
  980SOL     OW 4946   6.201   7.911   0.845 -0.4371  0.0934 -0.3134
  980SOL    HW1 4947   6.124   7.967   0.854 -0.6117 -0.0165 -1.1012
  980SOL    HW2 4948   6.274   7.968   0.872 -0.6912  0.4703 -0.4090
  981SOL     OW 4949   2.176   0.168   5.643  0.2951 -0.4805  0.6729
  981SOL    HW1 4950   2.206   0.079   5.622 -0.5514 -0.5645 -0.2895
  981SOL    HW2 4951   2.235   0.225   5.593 -0.7198 -0.6244 -0.7683
  982SOL     OW 4952   1.218   6.553   6.114 -0.2805  0.2354 -0.2058
  982SOL    HW1 4953   1.169   6.473   6.095 -0.4016  0.1362  0.4894
  982SOL    HW2 4954   1.288   6.554   6.049 -1.1813  0.3718 -1.2130
  983SOL     OW 4955   1.927   1.554   8.605  0.6371 -0.7602  0.1975
  983SOL    HW1 4956   1.953   1.549   8.513  0.1683 -2.9180  0.1330
  983SOL    HW2 4957   1.834   1.533   8.605  0.1951  0.9809  1.0395
  984SOL     OW 4958   8.659   6.295   0.751  0.0690  0.1644  0.1007
  984SOL    HW1 4959   8.670   6.202   0.732  0.7015  0.4630 -1.0492
  984SOL    HW2 4960   8.671   6.301   0.846  1.9412 -0.6794 -0.0403
  985SOL     OW 4961   2.537   7.380   4.521 -0.0505 -0.0272 -0.5025
  985SOL    HW1 4962   2.592   7.422   4.587  1.4551 -3.2420  0.5012
  985SOL    HW2 4963   2.600   7.351   4.454 -0.5517 -2.6374  0.0276
  986SOL     OW 4964  10.726  10.163   7.533  0.0763 -0.3375 -0.0396
  986SOL    HW1 4965  10.758  10.219   7.604 -0.6624  0.0637 -0.0143
  986SOL    HW2 4966  10.685  10.089   7.578 -1.6128  0.5937 -0.0078
  987SOL     OW 4967   5.455   8.916   0.298  0.0791  0.0823 -0.0159
  987SOL    HW1 4968   5.439   9.004   0.265 -0.7335 -0.2886 -0.6618
  987SOL    HW2 4969   5.367   8.879   0.311  0.3866 -1.1922 -1.3220
  988SOL     OW 4970   4.119   7.765   1.935  0.8136  0.4069  0.0166
  988SOL    HW1 4971   4.131   7.825   1.862 -0.0348  3.2329  2.0215
  988SOL    HW2 4972   4.207   7.753   1.970  0.9521  0.8385 -0.1676
  989SOL     OW 4973   7.750   7.922   0.787 -0.7329  0.5910 -0.1965
  989SOL    HW1 4974   7.706   7.986   0.732 -1.5749  0.1979  0.0072
  989SOL    HW2 4975   7.755   7.963   0.873 -2.0003  0.0854  0.1379
  990SOL     OW 4976   0.106  10.950   7.230 -0.3620 -0.7153  0.0155
  990SOL    HW1 4977   0.119  10.857   7.246  1.9138 -0.3714  0.4890
  990SOL    HW2 4978   0.091  10.987   7.317  0.9005 -0.3757  0.1097
  991SOL     OW 4979   6.501   1.474   1.371 -0.9148  0.4576 -0.2091
  991SOL    HW1 4980   6.498   1.415   1.296  0.3735  1.7602 -1.3337
  991SOL    HW2 4981   6.409   1.490   1.393 -1.3299 -2.8276  0.8932
  992SOL     OW 4982   5.673   3.239   6.721  0.0659  0.1119  0.6891
  992SOL    HW1 4983   5.653   3.188   6.800  0.3174 -0.1311  0.5973
  992SOL    HW2 4984   5.763   3.216   6.699 -0.2734 -0.4648 -0.1510
  993SOL     OW 4985   0.390  10.090   3.872 -0.8159  0.2954 -0.4260
  993SOL    HW1 4986   0.327  10.021   3.893  0.1782 -0.4775  0.1002
  993SOL    HW2 4987   0.396  10.142   3.952 -1.4668  0.9336 -0.7797
  994SOL     OW 4988   4.947   3.572   4.352  0.6507  0.3764 -0.2235
  994SOL    HW1 4989   4.980   3.535   4.434 -0.4343 -1.7996 -0.7101
  994SOL    HW2 4990   4.852   3.566   4.358  0.5463 -0.7421 -1.9808
  995SOL     OW 4991   1.192   7.619   9.674  0.3574 -0.4793 -1.2300
  995SOL    HW1 4992   1.102   7.600   9.648 -0.2242  1.2261 -0.6090
  995SOL    HW2 4993   1.200   7.714   9.667  0.6393  0.0109  3.0517
  996SOL     OW 4994   2.926   9.339   6.750 -0.3095 -0.0472  0.2345
  996SOL    HW1 4995   3.018   9.353   6.727 -0.4196 -0.9519 -0.8420
  996SOL    HW2 4996   2.928   9.258   6.802 -0.5704 -0.4739 -0.4122
  997SOL     OW 4997   2.186  10.430   6.178  0.7059 -0.1936 -0.2068
  997SOL    HW1 4998   2.210  10.521   6.195  1.4085 -0.6389  1.3878
  997SOL    HW2 4999   2.093  10.433   6.159  0.8380  0.9243 -0.7458
  998SOL     OW 5000   8.335  11.135   1.663 -0.3460  0.0844 -0.4950
  998SOL    HW1 5001   8.429  11.145   1.678 -0.3383 -0.9446  0.3354
  998SOL    HW2 5002   8.326  11.127   1.569  0.4092  0.1288 -0.5761
  999SOL     OW 5003  10.779  10.827   9.380 -0.5327  0.3773 -0.3636
  999SOL    HW1 5004  10.780  10.820   9.284 -0.8923  0.5347 -0.3814
  999SOL    HW2 5005  10.740  10.745   9.409 -0.6223  0.4210 -0.3614
 1000SOL     OW 5006   2.822   4.690   0.472 -0.6731 -0.8158 -0.6530
 1000SOL    HW1 5007   2.884   4.708   0.543 -3.8118 -2.5182  2.8808
 1000SOL    HW2 5008   2.795   4.777   0.442  2.6024 -0.0340 -1.7594
 1001SOL     OW 5009   5.998   9.393   4.367 -0.0470  0.3569  0.0663
 1001SOL    HW1 5010   6.062   9.323   4.379  1.3448  1.5166 -0.2540
 1001SOL    HW2 5011   6.024   9.436   4.286  0.7192  2.7929  1.4939
 1002SOL     OW 5012   2.643   3.836   6.137 -0.6154 -0.5991  0.1497
 1002SOL    HW1 5013   2.647   3.853   6.043  0.8066  0.8366  0.4154
 1002SOL    HW2 5014   2.701   3.762   6.151  0.1150 -0.0641  0.0192
 1003SOL     OW 5015   2.525   3.959   4.886  0.2265 -0.1804 -0.1220
 1003SOL    HW1 5016   2.474   3.923   4.958 -1.2259  1.5525 -0.2269
 1003SOL    HW2 5017   2.611   3.979   4.924 -0.5092  0.6893  1.1235
 1004SOL     OW 5018   1.172   0.805   5.962 -0.6256  0.1633 -0.3105
 1004SOL    HW1 5019   1.149   0.897   5.977 -1.6298  0.4059 -2.8123
 1004SOL    HW2 5020   1.154   0.762   6.045 -1.5205  1.9890  0.5038
 1005SOL     OW 5021   9.723   5.660   6.691  0.5426  0.5173 -0.0917
 1005SOL    HW1 5022   9.667   5.685   6.618  0.4515 -0.9823 -0.5757
 1005SOL    HW2 5023   9.664   5.617   6.753  1.1825 -1.7965 -0.9565
 1006SOL     OW 5024   2.242   9.209   6.185  0.0753  0.9527 -0.1154
 1006SOL    HW1 5025   2.190   9.131   6.205  1.0412  0.2931 -0.0854
 1006SOL    HW2 5026   2.327   9.192   6.226  1.9128 -0.0869 -3.8027
 1007SOL     OW 5027   5.056   8.189   4.257 -0.2507  0.0329 -0.3313
 1007SOL    HW1 5028   5.133   8.233   4.219  0.5627 -0.2823  0.8915
 1007SOL    HW2 5029   5.005   8.260   4.296  0.8644 -0.0063  1.3007
 1008SOL     OW 5030   1.413  10.030   3.006  0.0234 -0.4535  0.1599
 1008SOL    HW1 5031   1.320  10.043   2.985  0.2062  1.1360  0.2079
 1008SOL    HW2 5032   1.460  10.068   2.931  0.6406 -0.7072  0.4143
 1009SOL     OW 5033   5.608   8.552   2.093  0.2511 -0.5199 -0.4609
 1009SOL    HW1 5034   5.625   8.459   2.104 -1.6802 -0.6643  2.3483
 1009SOL    HW2 5035   5.588   8.584   2.181  1.9848  2.8485 -1.1206
 1010SOL     OW 5036   0.640   1.593   3.149  0.2946  0.1451 -0.0219
 1010SOL    HW1 5037   0.723   1.640   3.137  0.0609  0.2658 -1.3237
 1010SOL    HW2 5038   0.573   1.660   3.136 -0.0249 -0.1709  0.0080
 1011SOL     OW 5039   8.084   3.743   9.668  0.4317  0.4068  0.3278
 1011SOL    HW1 5040   8.079   3.661   9.619  0.6799  0.2278  0.5971
 1011SOL    HW2 5041   8.000   3.786   9.652 -0.2325 -0.5018  1.2447
 1012SOL     OW 5042  11.078   6.628   9.625 -0.6706  0.5745  0.1049
 1012SOL    HW1 5043  11.056   6.653   9.715 -0.7709 -1.1926  0.5935
 1012SOL    HW2 5044  10.994   6.624   9.580 -0.8683 -0.7911  0.5522
 1013SOL     OW 5045   0.332   3.655   0.615 -0.1915  0.2982  0.7072
 1013SOL    HW1 5046   0.419   3.618   0.602 -0.1956  0.1106  1.1553
 1013SOL    HW2 5047   0.340   3.747   0.592  0.4868  0.6128  2.0718
 1014SOL     OW 5048   7.567   1.700  10.737  0.1202  0.0209  0.3446
 1014SOL    HW1 5049   7.531   1.665  10.656 -0.8469 -0.2306  0.8589
 1014SOL    HW2 5050   7.541   1.637  10.804  0.7348  0.3230  0.8760
 1015SOL     OW 5051  10.217   9.176   5.179 -0.2170 -0.0708 -0.4497
 1015SOL    HW1 5052  10.223   9.108   5.112 -0.0067 -1.7623  1.2201
 1015SOL    HW2 5053  10.243   9.133   5.260 -0.6729  1.8555  0.7912
 1016SOL     OW 5054   4.765   3.303   5.673  0.0113  0.3310 -0.1022
 1016SOL    HW1 5055   4.830   3.235   5.692  1.4087  1.4108 -0.8315
 1016SOL    HW2 5056   4.816   3.378   5.646 -1.5886  1.0869 -1.1757
 1017SOL     OW 5057  10.331   1.412   1.001 -0.1636 -0.3881 -0.7006
 1017SOL    HW1 5058  10.264   1.390   1.065 -0.4910  1.3161 -0.4098
 1017SOL    HW2 5059  10.404   1.353   1.021 -0.0449  0.4460  1.6154
 1018SOL     OW 5060   3.798   3.861   2.531  0.2916 -0.4290  0.0245
 1018SOL    HW1 5061   3.744   3.790   2.568  1.0463 -0.1628  1.7093
 1018SOL    HW2 5062   3.790   3.849   2.437  0.1571 -2.5913  0.2511
 1019SOL     OW 5063  10.936   5.805   4.251  0.0631  0.1115 -0.1330
 1019SOL    HW1 5064  10.969   5.834   4.166 -0.9229 -0.3632 -0.6950
 1019SOL    HW2 5065  10.927   5.886   4.301  1.0604  0.3517 -0.3213
 1020SOL     OW 5066  11.055   9.995   5.428  0.1136 -0.2461 -0.2214
 1020SOL    HW1 5067  11.072   9.920   5.371 -0.5742 -1.8979  1.6070
 1020SOL    HW2 5068  11.140  10.013   5.469  0.1054 -0.6376 -0.0196
 1021SOL     OW 5069   2.885   7.474   2.231 -0.3525 -0.3323 -1.1510
 1021SOL    HW1 5070   2.874   7.506   2.321 -2.4572  0.2415 -1.5572
 1021SOL    HW2 5071   2.920   7.386   2.241 -0.3474 -0.1995  0.2236
 1022SOL     OW 5072   7.792  11.191   6.280 -0.7879 -0.4818  0.0028
 1022SOL    HW1 5073   7.794  11.168   6.187 -0.8439 -0.8610  0.0931
 1022SOL    HW2 5074   7.880  11.223   6.299 -0.9936  0.3267 -0.3605
 1023SOL     OW 5075   9.191   9.567   3.361  0.1463  0.6748 -0.5031
 1023SOL    HW1 5076   9.155   9.548   3.275  0.2018  1.4502 -0.7061
 1023SOL    HW2 5077   9.119   9.608   3.409 -0.3384 -1.0537  0.3297
 1024SOL     OW 5078   4.061   2.645   1.155 -0.4391 -0.0799 -0.1100
 1024SOL    HW1 5079   4.125   2.578   1.178 -1.1243 -0.0121  2.3002
 1024SOL    HW2 5080   3.981   2.596   1.138  0.0432 -0.1230 -2.5741
 1025SOL     OW 5081  10.747   0.473   2.239 -0.7295  0.2828 -0.2198
 1025SOL    HW1 5082  10.792   0.421   2.173 -1.1939 -0.4649  0.0390
 1025SOL    HW2 5083  10.815   0.493   2.304 -0.5436  0.0069 -0.3270
 1026SOL     OW 5084   0.603   4.530   2.480 -0.4509  0.2120  0.4744
 1026SOL    HW1 5085   0.553   4.601   2.441 -0.6883 -1.2976 -2.1912
 1026SOL    HW2 5086   0.680   4.521   2.424 -0.0129 -1.1163  1.2349
 1027SOL     OW 5087   0.752  10.168   8.567  0.1685 -0.2399 -0.2215
 1027SOL    HW1 5088   0.742  10.261   8.586 -2.7371 -0.4859 -0.0481
 1027SOL    HW2 5089   0.762  10.127   8.653 -0.1785 -0.2167 -0.1679
 1028SOL     OW 5090   4.589  10.086   0.828 -0.0702 -0.1960  0.0040
 1028SOL    HW1 5091   4.499  10.108   0.805  0.2036  2.6572  1.2077
 1028SOL    HW2 5092   4.584   9.997   0.863 -2.2130 -0.4931 -0.8870
 1029SOL     OW 5093   0.959   4.180   1.998  0.0521 -0.0837 -0.8961
 1029SOL    HW1 5094   0.972   4.261   1.949 -0.5353  0.7577  0.3043
 1029SOL    HW2 5095   0.945   4.114   1.930 -3.0261  1.4033 -1.9271
 1030SOL     OW 5096   4.114   0.031   1.494 -0.0169 -0.0134 -0.3074
 1030SOL    HW1 5097   4.150   0.119   1.509  1.7540 -0.6294 -0.6494
 1030SOL    HW2 5098   4.094  -0.002   1.582  0.0534  0.4356 -0.1199
 1031SOL     OW 5099   8.906  10.021  10.052  0.1155 -0.0096  0.1103
 1031SOL    HW1 5100   8.877  10.005   9.962  0.7239 -0.1748 -0.0592
 1031SOL    HW2 5101   8.995  10.056  10.043  0.6506 -1.1792  0.6907
 1032SOL     OW 5102   5.145   4.101   1.257 -0.0344  0.1432  0.2936
 1032SOL    HW1 5103   5.201   4.097   1.334  1.0084  1.8022 -0.3304
 1032SOL    HW2 5104   5.110   4.190   1.256 -1.7681 -0.4853 -0.0023
 1033SOL     OW 5105   5.522   8.062   7.117  0.0801  0.6519  0.4590
 1033SOL    HW1 5106   5.602   8.093   7.074  2.1670 -1.2617  2.6820
 1033SOL    HW2 5107   5.463   8.138   7.114  2.1575  2.3504 -0.7450
 1034SOL     OW 5108   5.477   9.690   3.118  0.1582 -0.1805 -0.6108
 1034SOL    HW1 5109   5.521   9.768   3.151 -0.2428 -0.4163  0.5161
 1034SOL    HW2 5110   5.540   9.619   3.130 -0.1459 -0.3434  0.0892
 1035SOL     OW 5111  10.647   1.621   6.692 -0.0747  0.0012  0.0958
 1035SOL    HW1 5112  10.587   1.548   6.679 -0.2480  0.0591  0.5713
 1035SOL    HW2 5113  10.649   1.635   6.786  0.9818 -0.2481  0.1268
 1036SOL     OW 5114   2.397   9.374   6.043 -0.0700  0.0955  0.0105
 1036SOL    HW1 5115   2.392   9.417   6.128  1.9805  1.1684 -0.3464
 1036SOL    HW2 5116   2.372   9.284   6.060  2.5544 -0.3458  2.3035
 1037SOL     OW 5117   7.148   3.048   7.937  0.2119  0.2677 -0.1023
 1037SOL    HW1 5118   7.091   3.005   8.000  0.6277 -0.0872  0.0405
 1037SOL    HW2 5119   7.191   2.976   7.890  1.0975  0.5076  0.3014
 1038SOL     OW 5120   9.467  10.053   1.889  0.3087  0.4326  0.8575
 1038SOL    HW1 5121   9.390  10.078   1.837  1.4766  0.3418 -0.9905
 1038SOL    HW2 5122   9.447   9.964   1.919 -0.0349  0.1501 -0.1627
 1039SOL     OW 5123  10.401   1.264   8.022 -0.0318  0.1601 -0.3349
 1039SOL    HW1 5124  10.475   1.253   8.081  1.6355  1.1320 -2.1371
 1039SOL    HW2 5125  10.337   1.314   8.072 -0.7868 -3.0195  2.2356
 1040SOL     OW 5126   1.425   4.149   1.353  0.9462 -0.1598 -0.0747
 1040SOL    HW1 5127   1.506   4.199   1.359  0.9568 -0.2799  1.0272
 1040SOL    HW2 5128   1.372   4.196   1.289  1.7637  0.0898 -0.5790
 1041SOL     OW 5129   0.156   5.575   2.026 -0.1508  0.2204  0.4412
 1041SOL    HW1 5130   0.116   5.624   1.953  1.6975 -1.3492 -1.7608
 1041SOL    HW2 5131   0.088   5.513   2.053 -0.8734  0.8346  0.1018
 1042SOL     OW 5132   7.418   2.593   9.534 -0.7108  0.3976  0.3368
 1042SOL    HW1 5133   7.415   2.598   9.439 -0.9726 -3.2786 -0.0183
 1042SOL    HW2 5134   7.329   2.613   9.562 -1.4159 -1.3370 -0.5206
 1043SOL     OW 5135  11.111   0.135   8.390 -0.5604  0.5620 -0.2070
 1043SOL    HW1 5136  11.121   0.051   8.435  0.2221  0.1683 -1.0689
 1043SOL    HW2 5137  11.120   0.113   8.297 -0.4582  1.5862 -0.4513
 1044SOL     OW 5138   5.281   0.831   6.000 -0.4655 -0.3621  0.7191
 1044SOL    HW1 5139   5.233   0.907   6.034 -0.0339  0.8053 -1.1175
 1044SOL    HW2 5140   5.364   0.868   5.968 -0.5792 -1.4592 -0.9450
 1045SOL     OW 5141   3.059   3.527   5.146 -0.1205  0.1446 -0.4778
 1045SOL    HW1 5142   3.142   3.522   5.194 -0.2317  1.2244 -0.1573
 1045SOL    HW2 5143   3.050   3.440   5.106  0.1310 -0.6835  1.1861
 1046SOL     OW 5144   3.242   9.442  11.060 -0.6649 -0.4688  0.5460
 1046SOL    HW1 5145   3.159   9.478  11.028  0.1756  0.8282 -0.2751
 1046SOL    HW2 5146   3.248   9.356  11.019 -1.6824 -0.6613  0.7656
 1047SOL     OW 5147  10.614   7.944   1.202 -0.1155  0.3993  0.1285
 1047SOL    HW1 5148  10.656   7.869   1.161 -0.8220  0.2094 -0.2740
 1047SOL    HW2 5149  10.673   7.969   1.273 -0.6381 -1.5723  1.3406
 1048SOL     OW 5150   3.825   0.510   0.752 -0.7609  0.0685 -0.4337
 1048SOL    HW1 5151   3.832   0.581   0.815  3.0561 -0.5661  0.1365
 1048SOL    HW2 5152   3.767   0.446   0.793 -0.2941  0.7209  1.3348
 1049SOL     OW 5153   9.961   9.563   7.302  0.1236 -1.4165 -0.1149
 1049SOL    HW1 5154   9.964   9.656   7.276 -0.0147 -1.4095 -0.1094
 1049SOL    HW2 5155   9.896   9.560   7.372  0.4500 -1.4467  0.1880
 1050SOL     OW 5156  10.786  10.328   8.251 -0.0513  0.2013 -0.3879
 1050SOL    HW1 5157  10.811  10.292   8.336  0.4322 -2.5632 -1.6054
 1050SOL    HW2 5158  10.691  10.326   8.252 -0.1551  2.3524  0.8730
 1051SOL     OW 5159  11.011   9.170   9.526  0.0416 -1.2221 -0.5169
 1051SOL    HW1 5160  11.096   9.210   9.539 -0.0736 -0.6911 -1.3373
 1051SOL    HW2 5161  10.996   9.118   9.605  0.1758  0.3779  0.6122
 1052SOL     OW 5162   8.826   4.417   5.613  0.1889  0.1627  0.1793
 1052SOL    HW1 5163   8.851   4.466   5.535 -1.3142 -0.9808 -1.0970
 1052SOL    HW2 5164   8.824   4.325   5.584 -0.7377 -0.2530  1.4622
 1053SOL     OW 5165   7.151   6.862   2.469  0.2452  0.2977 -0.1133
 1053SOL    HW1 5166   7.219   6.907   2.519  0.4081  0.3823 -0.4085
 1053SOL    HW2 5167   7.186   6.857   2.380 -0.1129  0.2999 -0.2551
 1054SOL     OW 5168   3.206   4.125   8.461  0.0586  0.0589  0.2107
 1054SOL    HW1 5169   3.244   4.088   8.381  0.2317  2.9083 -1.1379
 1054SOL    HW2 5170   3.200   4.219   8.444  1.4588  1.0713  4.0861
 1055SOL     OW 5171   9.237   1.148   7.669 -0.0438  0.0310  0.3898
 1055SOL    HW1 5172   9.245   1.183   7.758 -2.1557  2.5099 -0.2724
 1055SOL    HW2 5173   9.195   1.063   7.680  0.1520  0.0970  1.7816
 1056SOL     OW 5174   0.660   2.619   5.934  0.2259 -0.5299  0.1897
 1056SOL    HW1 5175   0.703   2.617   5.849 -0.3692  1.7882 -0.2378
 1056SOL    HW2 5176   0.574   2.579   5.917 -0.3718  1.0188 -0.6526
 1057SOL     OW 5177   2.860   9.055   6.184  0.1322  0.1077 -0.5186
 1057SOL    HW1 5178   2.823   9.029   6.268 -2.1945 -1.1599 -1.7924
 1057SOL    HW2 5179   2.948   9.018   6.183 -0.4166 -1.3329  0.7225
 1058SOL     OW 5180   2.857   6.798   8.801 -0.4192  0.0230  0.2928
 1058SOL    HW1 5181   2.817   6.773   8.718  1.0427  0.1216 -0.4802
 1058SOL    HW2 5182   2.790   6.779   8.866 -1.1058 -1.3973 -0.7514
 1059SOL     OW 5183   7.033   8.071   0.026  0.4252  0.4903 -0.4880
 1059SOL    HW1 5184   7.100   8.009  -0.003 -0.4957 -1.1777  0.7514
 1059SOL    HW2 5185   6.984   8.092  -0.053 -0.9626 -2.5952 -0.5783
 1060SOL     OW 5186   9.171   3.295  11.154 -0.6263  0.2637  0.0416
 1060SOL    HW1 5187   9.113   3.242  11.208 -1.8281  0.7524 -0.7457
 1060SOL    HW2 5188   9.224   3.232  11.106 -2.7822 -0.3049 -1.7100
 1061SOL     OW 5189   3.912   1.904   8.715  0.1523 -0.1328 -0.8555
 1061SOL    HW1 5190   3.954   1.976   8.669 -0.1795  0.1709 -0.6840
 1061SOL    HW2 5191   3.955   1.825   8.681  0.5764  0.1489 -0.9783
 1062SOL     OW 5192  10.180   7.948   1.677 -0.6045 -0.1392 -0.1369
 1062SOL    HW1 5193  10.116   7.887   1.712 -1.7691  1.3071  0.3293
 1062SOL    HW2 5194  10.154   8.033   1.711  1.2012  0.5886 -0.4562
 1063SOL     OW 5195   2.154  10.080   6.914  0.0525 -0.0163 -0.2647
 1063SOL    HW1 5196   2.220  10.012   6.933 -1.2037 -0.9925  0.7718
 1063SOL    HW2 5197   2.137  10.121   6.999  1.6477  2.4961 -1.0370
 1064SOL     OW 5198   2.751   2.384   1.065  0.2359  0.0782 -0.4370
 1064SOL    HW1 5199   2.782   2.391   0.974  1.1715 -0.9210 -0.2126
 1064SOL    HW2 5200   2.831   2.373   1.117 -0.3209  0.2252  0.4786
 1065SOL     OW 5201   5.680   7.634  10.821 -0.1527 -0.1057  0.2441
 1065SOL    HW1 5202   5.666   7.554  10.870 -0.6413  0.0901  0.4312
 1065SOL    HW2 5203   5.750   7.613  10.759  0.8754 -0.1864  1.3942
 1066SOL     OW 5204   4.812   6.404   2.259 -0.2581  0.2928  0.4570
 1066SOL    HW1 5205   4.811   6.490   2.218 -2.2702 -0.7014 -1.8110
 1066SOL    HW2 5206   4.810   6.422   2.353  2.5110  2.6654  0.1905
 1067SOL     OW 5207   8.730   5.027   2.860 -0.1286 -0.6737 -0.7230
 1067SOL    HW1 5208   8.678   5.100   2.828 -0.4052 -0.5265  0.0500
 1067SOL    HW2 5209   8.666   4.961   2.887  0.0996 -0.8710 -0.6575
 1068SOL     OW 5210   0.334   8.770   3.693  0.0131 -0.9855 -0.5952
 1068SOL    HW1 5211   0.354   8.861   3.668  0.6528 -0.9353  0.0545
 1068SOL    HW2 5212   0.354   8.767   3.787 -1.6415 -1.3450 -0.2162
 1069SOL     OW 5213   6.743   9.394   8.514 -0.0768  0.4653 -0.2308
 1069SOL    HW1 5214   6.725   9.306   8.548 -3.6651  0.1617 -2.4172
 1069SOL    HW2 5215   6.673   9.448   8.550  0.4113  1.7652 -1.1676
 1070SOL     OW 5216   9.079   4.499  10.126  0.1771 -0.0673 -0.0500
 1070SOL    HW1 5217   9.161   4.494  10.077 -0.7532  0.4921 -1.7433
 1070SOL    HW2 5218   9.023   4.433  10.086  0.2603 -1.6026  2.1527
 1071SOL     OW 5219   9.422   3.810  10.781  0.1430 -0.0792  0.0183
 1071SOL    HW1 5220   9.387   3.757  10.853  0.9927  0.5350  0.9184
 1071SOL    HW2 5221   9.513   3.780  10.772  0.4310  0.7338  0.0884
 1072SOL     OW 5222   3.238   2.270   2.515 -0.6324  0.2100 -0.1165
 1072SOL    HW1 5223   3.214   2.190   2.467  0.3768 -1.3624  1.8475
 1072SOL    HW2 5224   3.291   2.239   2.588  0.7497  2.8208  0.1047
 1073SOL     OW 5225   9.770   0.484   1.442  0.2986  0.1317 -0.1721
 1073SOL    HW1 5226   9.814   0.557   1.399 -1.1448  0.2490 -1.5438
 1073SOL    HW2 5227   9.736   0.431   1.370  1.0803 -1.7798  0.7896
 1074SOL     OW 5228   2.831  10.845   3.864  0.8291  0.4795  0.5597
 1074SOL    HW1 5229   2.737  10.826   3.856  0.8900  0.9224 -1.8472
 1074SOL    HW2 5230   2.874  10.769   3.825  1.2708  2.0453 -2.2804
 1075SOL     OW 5231  10.333   9.701   5.273  0.0606  0.2178  0.5818
 1075SOL    HW1 5232  10.267   9.710   5.204  0.5885  1.0536  0.1716
 1075SOL    HW2 5233  10.339   9.607   5.288  0.0832  0.0059 -0.6545
 1076SOL     OW 5234   8.277   2.426   4.046  0.5727 -0.5035 -0.0983
 1076SOL    HW1 5235   8.308   2.506   4.003 -0.8537 -0.3673 -0.9313
 1076SOL    HW2 5236   8.254   2.453   4.135  0.5929 -0.1051 -0.2138
 1077SOL     OW 5237   0.459  11.135   7.995  0.2771  0.3582 -0.4880
 1077SOL    HW1 5238   0.495  11.184   8.069 -0.8930  2.8387 -1.4492
 1077SOL    HW2 5239   0.512  11.161   7.920 -1.2756  1.3805 -1.2885
 1078SOL     OW 5240   3.222   6.451   8.803  1.1545 -0.6515 -0.1916
 1078SOL    HW1 5241   3.252   6.456   8.894  3.5300 -1.6496 -0.8260
 1078SOL    HW2 5242   3.192   6.540   8.783  0.3632 -0.4727  1.6090
 1079SOL     OW 5243   8.748   3.571   2.302  0.7231  0.4398  0.6398
 1079SOL    HW1 5244   8.812   3.500   2.312  0.0436  0.0821  3.1176
 1079SOL    HW2 5245   8.787   3.629   2.237  1.8106 -1.6411 -0.6716
 1080SOL     OW 5246   3.527   3.130   6.918 -0.1512 -0.1897 -0.0544
 1080SOL    HW1 5247   3.620   3.111   6.928 -0.1265  0.8286  2.2129
 1080SOL    HW2 5248   3.519   3.165   6.830  1.3999 -1.3279 -0.6981
 1081SOL     OW 5249   6.565   3.485   0.800  0.3577  0.2712 -0.7964
 1081SOL    HW1 5250   6.627   3.554   0.775  1.5946  0.4029  2.2495
 1081SOL    HW2 5251   6.584   3.413   0.739  1.9643  1.1244 -1.3680
 1082SOL     OW 5252   0.771   6.941   7.425  0.1654 -0.2288 -0.3968
 1082SOL    HW1 5253   0.821   6.860   7.422 -0.5115 -0.7693  1.5693
 1082SOL    HW2 5254   0.794   6.981   7.509 -2.1049 -0.1521  0.2734
 1083SOL     OW 5255   1.148   1.374   9.405  0.0435  0.9823 -0.1431
 1083SOL    HW1 5256   1.146   1.282   9.431 -2.3981  1.6002  2.2887
 1083SOL    HW2 5257   1.117   1.374   9.314 -0.8619 -0.5303  0.1295
 1084SOL     OW 5258   9.266   4.863   5.600  0.7710 -0.9774 -0.5193
 1084SOL    HW1 5259   9.333   4.826   5.543  2.9355  1.1972  0.4476
 1084SOL    HW2 5260   9.313   4.925   5.656 -1.7976 -0.5842  1.3831
 1085SOL     OW 5261   2.404   9.327   1.910  0.5793  1.0283  0.5819
 1085SOL    HW1 5262   2.409   9.343   1.816  1.9956  1.5088  0.7182
 1085SOL    HW2 5263   2.414   9.414   1.950  0.4320  0.7754  1.1920
 1086SOL     OW 5264   2.567  11.081   0.980 -0.1702 -0.1919 -0.6905
 1086SOL    HW1 5265   2.629  11.124   0.922 -0.7498  0.2542 -0.9933
 1086SOL    HW2 5266   2.597  10.991   0.986  0.4424 -0.0026 -0.9150
 1087SOL     OW 5267   3.633   5.873   8.727  0.1076 -0.1738  0.2361
 1087SOL    HW1 5268   3.604   5.817   8.655  0.6052 -1.2066  0.8136
 1087SOL    HW2 5269   3.581   5.844   8.802  0.9867 -0.5028  0.7467
 1088SOL     OW 5270   9.966   4.515   3.985 -0.1866  0.4698 -0.3292
 1088SOL    HW1 5271   9.915   4.591   3.958  1.4923  2.1790  1.0588
 1088SOL    HW2 5272   9.921   4.441   3.945 -1.5940  2.2090 -2.1843
 1089SOL     OW 5273   4.014   0.557  10.065 -0.5601 -0.1573  0.1608
 1089SOL    HW1 5274   4.080   0.567   9.997 -1.7000  0.8649 -0.8405
 1089SOL    HW2 5275   4.057   0.505  10.133  0.5327 -1.4003 -1.4236
 1090SOL     OW 5276   9.103   5.127   4.923 -0.3117 -0.2995 -0.0176
 1090SOL    HW1 5277   9.008   5.139   4.929 -0.2912  0.0225 -0.3347
 1090SOL    HW2 5278   9.125   5.154   4.834 -0.0088 -0.9549 -0.1468
 1091SOL     OW 5279   5.347   2.193   0.743 -0.4864 -0.0807  0.0492
 1091SOL    HW1 5280   5.281   2.124   0.738 -1.0264  0.4997 -1.6432
 1091SOL    HW2 5281   5.304   2.270   0.706  1.1403  0.2805 -1.2201
 1092SOL     OW 5282   2.568   4.309   3.594  0.2955 -0.2702 -0.5113
 1092SOL    HW1 5283   2.662   4.316   3.613  0.4702 -1.0889 -1.0643
 1092SOL    HW2 5284   2.560   4.235   3.534 -0.4931  0.9711 -2.0123
 1093SOL     OW 5285   8.538   0.965   3.056  0.5036  0.2670 -0.2571
 1093SOL    HW1 5286   8.530   0.940   2.964 -0.9199 -2.8633  0.5910
 1093SOL    HW2 5287   8.480   1.041   3.065 -0.9791 -0.6258 -1.5838
 1094SOL     OW 5288   4.105   0.740   7.047 -0.2720 -0.0630  0.0919
 1094SOL    HW1 5289   4.042   0.713   7.113 -1.7032 -0.2749 -1.3014
 1094SOL    HW2 5290   4.118   0.833   7.062 -0.5197 -0.1309  0.7206
 1095SOL     OW 5291   7.593   4.025  10.504  0.0557  0.5610  0.0714
 1095SOL    HW1 5292   7.538   3.959  10.546  1.3056  0.2073  1.2464
 1095SOL    HW2 5293   7.666   4.038  10.566  0.8015  1.6824 -0.9923
 1096SOL     OW 5294   5.819   0.281   2.322 -0.2795  0.5508  0.0717
 1096SOL    HW1 5295   5.803   0.354   2.262  0.9433  0.8774  0.1286
 1096SOL    HW2 5296   5.791   0.204   2.273  1.1635  0.7576 -1.1349
 1097SOL     OW 5297   1.395   9.537   6.725 -0.0725  0.1275  0.1335
 1097SOL    HW1 5298   1.390   9.441   6.715 -1.2380  0.1195  0.6991
 1097SOL    HW2 5299   1.470   9.551   6.783 -0.1223 -0.4679  0.3499
 1098SOL     OW 5300   9.578   1.383   5.443  0.2584 -0.0177  0.6121
 1098SOL    HW1 5301   9.660   1.344   5.474  0.9599  2.0414  1.4848
 1098SOL    HW2 5302   9.509   1.333   5.487  1.1440  0.1893  2.2843
 1099SOL     OW 5303  11.194   8.764   0.604  0.6073 -0.5842 -0.2518
 1099SOL    HW1 5304  11.109   8.806   0.621  1.7263  1.8814 -0.2696
 1099SOL    HW2 5305  11.195   8.687   0.661 -2.1707 -1.5234 -1.3015
 1100SOL     OW 5306   6.347   0.810   5.115  0.2417  0.3160  0.1246
 1100SOL    HW1 5307   6.415   0.859   5.161 -1.2772  2.0069  0.6948
 1100SOL    HW2 5308   6.269   0.865   5.122 -1.3632 -1.8241  0.0370
 1101SOL     OW 5309   9.784   4.572   7.161 -0.6100  0.0956 -0.1952
 1101SOL    HW1 5310   9.771   4.528   7.244 -1.1223  0.3296 -0.1464
 1101SOL    HW2 5311   9.858   4.527   7.121  0.7832  1.0856  1.1533
 1102SOL     OW 5312   0.789   2.778   6.119  0.2812  0.1669 -0.1657
 1102SOL    HW1 5313   0.733   2.739   6.052 -1.0922  0.6474  0.6598
 1102SOL    HW2 5314   0.871   2.730   6.113  0.1643  0.1186 -2.1092
 1103SOL     OW 5315  11.237   2.644  11.204 -0.8687 -0.0336 -0.0376
 1103SOL    HW1 5316  11.164   2.702  11.226  0.0068  0.9108  0.4961
 1103SOL    HW2 5317  11.246   2.652  11.109  0.2437  2.0031  0.1921
 1104SOL     OW 5318   0.313   4.756   5.481 -0.0345 -0.8355  0.1765
 1104SOL    HW1 5319   0.249   4.824   5.460  0.4884 -0.7827 -1.3964
 1104SOL    HW2 5320   0.354   4.786   5.562  0.0493  0.6352 -0.3786
 1105SOL     OW 5321   2.826   9.975   1.380 -0.3727  0.1847  0.6195
 1105SOL    HW1 5322   2.850   9.884   1.362 -0.8670  0.0434  0.6665
 1105SOL    HW2 5323   2.852   9.989   1.471  1.1050  0.5622  0.1648
 1106SOL     OW 5324   5.594   9.892   2.385 -0.7759 -0.7304  0.1695
 1106SOL    HW1 5325   5.530   9.907   2.315 -1.5744  3.6009  1.5142
 1106SOL    HW2 5326   5.678   9.890   2.339 -1.3876  0.5693 -1.0933
 1107SOL     OW 5327   4.888   9.129   6.860  0.1834  0.4114  0.6954
 1107SOL    HW1 5328   4.845   9.200   6.812  0.1031  0.3209  0.6342
 1107SOL    HW2 5329   4.968   9.168   6.894  0.4016  0.3816  0.2114
 1108SOL     OW 5330   4.931   8.753   2.087  0.3376 -0.5592  0.2403
 1108SOL    HW1 5331   4.920   8.667   2.047 -1.5556 -1.1863  1.9591
 1108SOL    HW2 5332   4.844   8.794   2.083  1.1427  1.2259 -0.3568
 1109SOL     OW 5333  10.233   3.164   3.577  0.7172 -0.4836 -0.5017
 1109SOL    HW1 5334  10.193   3.124   3.500  1.9037 -0.7151 -1.0199
 1109SOL    HW2 5335  10.228   3.096   3.644 -3.2725  0.7669  0.7483
 1110SOL     OW 5336   6.884   7.875   8.694  0.6705 -0.3429 -0.9242
 1110SOL    HW1 5337   6.953   7.824   8.734 -0.7940 -1.7320 -0.0511
 1110SOL    HW2 5338   6.806   7.820   8.700 -0.2644  0.6262 -3.0243
 1111SOL     OW 5339   6.171   8.074   3.521 -0.8918 -0.1522 -0.3832
 1111SOL    HW1 5340   6.249   8.107   3.566 -1.3187  0.9523 -0.4332
 1111SOL    HW2 5341   6.204   8.036   3.440 -0.2120 -1.3599  0.4215
 1112SOL     OW 5342   5.338   4.077   5.100  0.3375  0.6130 -0.2810
 1112SOL    HW1 5343   5.307   4.030   5.022  0.3548  1.9348 -1.1053
 1112SOL    HW2 5344   5.264   4.131   5.127  0.5489  0.6450  0.2608
 1113SOL     OW 5345   9.729   2.041  11.277 -0.1751 -0.0072 -0.2966
 1113SOL    HW1 5346   9.718   2.095  11.356 -2.2990  1.3046 -1.3820
 1113SOL    HW2 5347   9.724   1.951  11.309 -0.7806  0.4898  1.1121
 1114SOL     OW 5348   7.259   0.866   5.812  0.2682 -0.3149 -0.3571
 1114SOL    HW1 5349   7.196   0.873   5.740 -0.5363 -1.3188  0.2226
 1114SOL    HW2 5350   7.278   0.772   5.817  1.2222 -0.1080 -0.0146
 1115SOL     OW 5351   8.870   7.178   9.906  0.1951  0.0324  0.2968
 1115SOL    HW1 5352   8.949   7.144   9.863 -1.9188 -2.7665 -1.7729
 1115SOL    HW2 5353   8.822   7.223   9.836 -2.0957 -2.3539  0.1406
 1116SOL     OW 5354   9.780  10.355  10.122 -0.3358 -0.2225  0.5852
 1116SOL    HW1 5355   9.752  10.438  10.161  2.6520  2.1524 -1.8350
 1116SOL    HW2 5356   9.847  10.321  10.181 -2.0872 -1.5182  1.9855
 1117SOL     OW 5357   0.225   2.466   4.404 -0.7307  0.1589  0.6630
 1117SOL    HW1 5358   0.198   2.454   4.495  0.5775 -1.2259  0.9108
 1117SOL    HW2 5359   0.152   2.430   4.352 -0.1119 -2.1507  1.2752
 1118SOL     OW 5360  10.081   7.419   1.347 -0.0947  0.9599 -0.6862
 1118SOL    HW1 5361  10.147   7.384   1.288  0.2936 -1.8535  1.2111
 1118SOL    HW2 5362  10.130   7.465   1.415 -0.0688 -0.4936  0.3212
 1119SOL     OW 5363   8.927   5.930   4.685 -0.5849  0.4440 -0.5580
 1119SOL    HW1 5364   8.896   5.948   4.597  2.7331  1.9621 -1.6056
 1119SOL    HW2 5365   8.943   5.835   4.686 -1.4256  0.2822 -1.2913
 1120SOL     OW 5366   1.556   1.630   7.462  0.2460  0.8347  0.4139
 1120SOL    HW1 5367   1.534   1.711   7.417 -1.2359  0.7539  0.9279
 1120SOL    HW2 5368   1.642   1.606   7.428 -0.6449  0.9362 -2.1405
 1121SOL     OW 5369  10.674   1.331   8.155 -0.2315 -0.1642  0.4302
 1121SOL    HW1 5370  10.699   1.322   8.063  0.3674  1.8089  0.3393
 1121SOL    HW2 5371  10.651   1.424   8.163 -1.4287 -0.5772  2.0040
 1122SOL     OW 5372   2.895  11.107   6.616 -0.1117  0.2157 -0.1223
 1122SOL    HW1 5373   2.907  11.018   6.650  1.6445  0.6492  0.4548
 1122SOL    HW2 5374   2.937  11.106   6.530  1.9744  1.0510  0.8256
 1123SOL     OW 5375   9.190   0.718   5.777  0.4196 -0.4553  0.0519
 1123SOL    HW1 5376   9.150   0.802   5.799 -2.6705 -1.5771 -0.7051
 1123SOL    HW2 5377   9.146   0.655   5.835  0.8626 -1.8666 -1.0814
 1124SOL     OW 5378   7.400  10.073   6.486  0.2618 -0.1787 -0.2346
 1124SOL    HW1 5379   7.371   9.993   6.441  0.5370  0.8853 -2.3919
 1124SOL    HW2 5380   7.422  10.043   6.574 -2.6315 -1.9230  0.0377
 1125SOL     OW 5381   1.625   7.686   1.250  0.6161  0.1536 -0.3224
 1125SOL    HW1 5382   1.673   7.700   1.168 -0.8819 -1.8039 -1.6423
 1125SOL    HW2 5383   1.556   7.753   1.248  1.6507  1.2520  0.2482
 1126SOL     OW 5384  11.025   3.438   5.328  0.2552 -0.0178  0.2408
 1126SOL    HW1 5385  11.029   3.357   5.380 -1.3316  0.0472  0.5303
 1126SOL    HW2 5386  10.972   3.497   5.381  2.1713  1.5945  0.4687
 1127SOL     OW 5387   6.557  10.084   0.392 -0.0760 -0.4143  0.2609
 1127SOL    HW1 5388   6.584  10.068   0.483 -1.6646 -2.1427  0.4735
 1127SOL    HW2 5389   6.481  10.028   0.379 -1.7440  2.0177 -1.2290
 1128SOL     OW 5390   9.531   2.491   4.091 -0.2832  0.3910  0.3113
 1128SOL    HW1 5391   9.527   2.464   4.182  0.7314 -0.2966  0.1652
 1128SOL    HW2 5392   9.581   2.422   4.047  2.0194  2.2271 -0.1863
 1129SOL     OW 5393   8.079  10.262   6.949 -0.2975 -0.2717  0.5537
 1129SOL    HW1 5394   8.035  10.204   7.012  2.2895 -4.3213 -0.9041
 1129SOL    HW2 5395   8.135  10.318   7.003 -2.6564  0.8008  2.0380
 1130SOL     OW 5396   9.948   0.790   2.441  0.2780 -0.9060 -0.3229
 1130SOL    HW1 5397   9.873   0.797   2.382  0.8362  0.1013 -0.9386
 1130SOL    HW2 5398   9.937   0.864   2.502  1.1717 -0.2793 -0.9042
 1131SOL     OW 5399   0.246   5.943   4.883  0.1585 -0.1721  0.1813
 1131SOL    HW1 5400   0.265   5.997   4.807  1.5552  1.1091  1.3825
 1131SOL    HW2 5401   0.324   5.888   4.894 -0.2372 -0.6999  0.3919
 1132SOL     OW 5402   9.892   1.924   8.440 -0.4022 -0.2063 -0.3589
 1132SOL    HW1 5403   9.924   2.013   8.427  0.6340 -0.7596 -1.9140
 1132SOL    HW2 5404   9.869   1.920   8.533 -0.2988  1.6089 -0.2165
 1133SOL     OW 5405   2.379   6.939   4.275 -0.2142 -0.6040  0.2243
 1133SOL    HW1 5406   2.291   6.975   4.278  0.8134  2.1141  0.5851
 1133SOL    HW2 5407   2.410   6.944   4.366  0.2814 -1.6578  0.1285
 1134SOL     OW 5408   6.772   9.298   7.932  0.0418 -0.2758  0.0076
 1134SOL    HW1 5409   6.715   9.294   8.009 -0.0567 -1.3103 -0.1112
 1134SOL    HW2 5410   6.764   9.388   7.901  2.1847  1.0181  2.8029
 1135SOL     OW 5411   3.254   1.877  11.097  0.4313  0.3490 -0.6647
 1135SOL    HW1 5412   3.233   1.843  11.011 -1.4547  1.5983 -0.7453
 1135SOL    HW2 5413   3.235   1.805  11.157  1.9137 -0.5819 -1.2478
 1136SOL     OW 5414   7.586   5.395   0.294 -0.7385  0.2248 -0.2986
 1136SOL    HW1 5415   7.505   5.441   0.315  0.5251  1.4851  2.1955
 1136SOL    HW2 5416   7.655   5.460   0.305  0.6886 -0.8373 -2.2609
 1137SOL     OW 5417   4.222   7.549   4.145 -0.2086  0.2821  0.1150
 1137SOL    HW1 5418   4.160   7.600   4.198 -2.0991 -0.9759 -0.7630
 1137SOL    HW2 5419   4.308   7.586   4.166 -1.1656  1.6570  1.9231
 1138SOL     OW 5420  10.415   8.117   3.747  0.1720 -0.0535  0.0330
 1138SOL    HW1 5421  10.324   8.140   3.730  0.0896  0.1410  0.7055
 1138SOL    HW2 5422  10.410   8.049   3.814  0.5858  1.5776  1.7942
 1139SOL     OW 5423   5.802   1.739   9.883  0.0595 -0.5645 -0.4162
 1139SOL    HW1 5424   5.892   1.753   9.912  0.1412  1.0883 -1.3623
 1139SOL    HW2 5425   5.749   1.793   9.942 -0.4311 -2.1655  0.6644
 1140SOL     OW 5426  10.761   4.167   6.263 -0.0188 -0.4046 -0.1714
 1140SOL    HW1 5427  10.810   4.233   6.312 -0.5401 -0.7955  0.9165
 1140SOL    HW2 5428  10.720   4.113   6.331 -0.7782 -0.9555 -1.0498
 1141SOL     OW 5429   5.117   0.684   7.586 -0.3932  0.4248  0.2251
 1141SOL    HW1 5430   5.085   0.606   7.540  0.7649  0.4414 -0.6786
 1141SOL    HW2 5431   5.039   0.735   7.606 -1.0529 -0.3297 -0.3800
 1142SOL     OW 5432   8.607   9.485   3.488  0.1071 -0.0546  0.0908
 1142SOL    HW1 5433   8.632   9.451   3.402 -0.3836 -1.1509  0.3623
 1142SOL    HW2 5434   8.519   9.521   3.475  0.0543 -0.1724  0.1180
 1143SOL     OW 5435  10.741   1.804   8.993 -0.3980 -0.0208 -0.7658
 1143SOL    HW1 5436  10.739   1.895   9.022 -0.5540 -0.2113 -0.1613
 1143SOL    HW2 5437  10.831   1.776   9.008 -0.8513 -0.6108  1.1453
 1144SOL     OW 5438   9.202   6.255   8.863  0.0255 -0.1024 -0.1411
 1144SOL    HW1 5439   9.155   6.180   8.899  1.2372 -0.9278 -0.2507
 1144SOL    HW2 5440   9.240   6.298   8.939 -0.2660  0.1281 -0.1246
 1145SOL     OW 5441   2.915   4.005  10.606 -0.3358 -0.3019  0.2458
 1145SOL    HW1 5442   2.958   3.922  10.586  0.2996  0.1165 -0.1615
 1145SOL    HW2 5443   2.868   3.989  10.688 -1.0609 -1.3568 -0.3551
 1146SOL     OW 5444   8.574   8.043   8.118 -0.0590  0.5959  0.8356
 1146SOL    HW1 5445   8.545   7.963   8.073  1.9489  2.0402 -3.4769
 1146SOL    HW2 5446   8.668   8.047   8.101  0.2952  2.8019  2.8733
 1147SOL     OW 5447   6.119   0.703   7.197  0.1938  0.1056  0.7769
 1147SOL    HW1 5448   6.050   0.722   7.133  0.2907 -1.9392 -0.0042
 1147SOL    HW2 5449   6.158   0.788   7.215 -1.8574  1.1835  0.4701
 1148SOL     OW 5450   7.687   9.898   2.689  0.4078  0.2139 -0.2598
 1148SOL    HW1 5451   7.712   9.979   2.645  0.2207  0.7332  0.5744
 1148SOL    HW2 5452   7.707   9.913   2.781  1.1891 -1.0134 -0.1956
 1149SOL     OW 5453   8.355   2.729   4.265  0.5178  0.5670  0.3986
 1149SOL    HW1 5454   8.275   2.732   4.318 -0.2151 -0.2268 -0.5918
 1149SOL    HW2 5455   8.331   2.774   4.184  0.7633 -0.4315 -0.2569
 1150SOL     OW 5456   9.499   3.514   9.071 -0.5613  0.3492  0.2785
 1150SOL    HW1 5457   9.529   3.543   8.985 -0.2618 -0.5971  0.0458
 1150SOL    HW2 5458   9.560   3.444   9.095 -0.7827  0.4410  1.1588
 1151SOL     OW 5459   7.039  11.079   7.502 -0.5869  0.2707  0.6360
 1151SOL    HW1 5460   6.987  11.006   7.469 -0.0191 -0.5041  1.4416
 1151SOL    HW2 5461   7.125  11.043   7.519 -0.2535  1.1615  0.9182
 1152SOL     OW 5462   2.330   5.079   6.163  0.4279  0.1076  0.0722
 1152SOL    HW1 5463   2.396   5.148   6.165  0.6668 -0.1225  0.2038
 1152SOL    HW2 5464   2.259   5.115   6.110  1.0543 -0.0075 -0.8672
 1153SOL     OW 5465   9.043   0.831   8.568 -0.6567 -0.7020  0.1296
 1153SOL    HW1 5466   9.019   0.881   8.490 -1.6223 -0.1555  0.7652
 1153SOL    HW2 5467   9.115   0.881   8.607  0.2714 -1.3230 -0.7421
 1154SOL     OW 5468   7.657   9.275   0.168  0.6351  0.2748  0.4782
 1154SOL    HW1 5469   7.743   9.316   0.164  1.5107 -1.5782 -1.8675
 1154SOL    HW2 5470   7.663   9.200   0.109 -2.4505 -0.2198  0.6230
 1155SOL     OW 5471   1.470  10.189   5.492  0.2199  0.6694 -0.1368
 1155SOL    HW1 5472   1.547  10.167   5.544 -0.5343  0.4118  0.8977
 1155SOL    HW2 5473   1.500  10.181   5.401  1.4885  0.8933  0.2418
 1156SOL     OW 5474   9.844   5.537   2.737 -0.5685 -0.7748 -0.1711
 1156SOL    HW1 5475   9.870   5.445   2.734  0.8065 -0.4333  0.2063
 1156SOL    HW2 5476   9.863   5.564   2.826 -0.7643 -0.0717 -0.3364
 1157SOL     OW 5477   5.205   7.106   7.865 -0.9959  0.3173 -0.0150
 1157SOL    HW1 5478   5.179   7.182   7.813 -1.8112 -0.8452 -1.3661
 1157SOL    HW2 5479   5.197   7.032   7.805 -1.8374 -1.0706  1.7115
 1158SOL     OW 5480   2.768   0.778   1.238  0.2931  0.7490  0.1081
 1158SOL    HW1 5481   2.827   0.827   1.296  1.3464  0.3448 -0.6033
 1158SOL    HW2 5482   2.792   0.687   1.252  1.7249  0.7078 -2.1405
 1159SOL     OW 5483   4.459   5.759   5.402  1.0402 -0.0252  0.0381
 1159SOL    HW1 5484   4.502   5.686   5.356 -1.1470 -0.1640 -1.9714
 1159SOL    HW2 5485   4.408   5.717   5.471  1.7094 -0.1216  0.4926
 1160SOL     OW 5486   1.463   0.557   7.958  0.5307 -0.1708  0.4921
 1160SOL    HW1 5487   1.500   0.507   7.885 -0.3983 -2.1572  1.3023
 1160SOL    HW2 5488   1.485   0.506   8.036 -2.0971 -0.3763  1.1958
 1161SOL     OW 5489   6.994  10.660   4.721 -0.0480  0.1116  0.1697
 1161SOL    HW1 5490   6.951  10.744   4.702 -1.4008 -1.1530 -3.0072
 1161SOL    HW2 5491   7.088  10.681   4.718 -0.3520  1.6085 -0.0377
 1162SOL     OW 5492   2.633   3.170   9.203 -0.4561  0.4694 -0.2276
 1162SOL    HW1 5493   2.549   3.128   9.220 -0.4883  0.6107 -0.0374
 1162SOL    HW2 5494   2.696   3.098   9.205 -0.2817  0.6306  1.8072
 1163SOL     OW 5495  10.338   5.849   9.483  0.5882  0.9192 -0.0486
 1163SOL    HW1 5496  10.372   5.789   9.416 -1.4137 -0.9084  0.4390
 1163SOL    HW2 5497  10.377   5.934   9.462  1.1551  0.1048 -2.6444
 1164SOL     OW 5498   7.205  10.906   3.893  0.0280  0.1721 -1.0619
 1164SOL    HW1 5499   7.229  10.926   3.802  0.5657 -0.6265 -1.1017
 1164SOL    HW2 5500   7.166  10.819   3.889 -2.1732  1.1061 -0.8704
 1165SOL     OW 5501   7.533   2.365   7.313  0.9933 -0.0423 -0.0884
 1165SOL    HW1 5502   7.603   2.349   7.376 -0.1301 -0.9834  0.9534
 1165SOL    HW2 5503   7.560   2.315   7.235  2.5759  1.4420 -0.5754
 1166SOL     OW 5504   3.501   3.227   4.088 -0.2706  0.5023 -0.1779
 1166SOL    HW1 5505   3.512   3.236   4.182  2.0558  1.0222 -0.4424
 1166SOL    HW2 5506   3.579   3.267   4.050 -0.1511 -1.4446 -2.2567
 1167SOL     OW 5507   3.089   2.812   0.436  0.0199  0.4749 -0.6028
 1167SOL    HW1 5508   3.111   2.899   0.404  0.5463  0.6045  0.0845
 1167SOL    HW2 5509   3.123   2.810   0.526 -0.3618 -0.2883 -0.4637
 1168SOL     OW 5510   8.479   2.232   2.173 -0.4370 -0.0806  0.7949
 1168SOL    HW1 5511   8.451   2.186   2.253 -3.0911  3.0573  1.9185
 1168SOL    HW2 5512   8.476   2.325   2.197 -0.6171  0.9598 -2.7591
 1169SOL     OW 5513   8.968   2.063   9.088 -0.2159 -0.3186 -0.1389
 1169SOL    HW1 5514   8.918   1.997   9.039  0.4428 -0.3895 -0.7242
 1169SOL    HW2 5515   8.904   2.132   9.105 -0.5196 -0.4039 -0.8828
 1170SOL     OW 5516   2.357   1.618   3.663  0.5834 -0.0144 -0.3335
 1170SOL    HW1 5517   2.358   1.542   3.720 -0.3829 -0.4046 -0.7982
 1170SOL    HW2 5518   2.440   1.663   3.679 -0.5345  1.1546  3.0255
 1171SOL     OW 5519   9.760   5.975   4.880  0.5531  0.2409  0.3469
 1171SOL    HW1 5520   9.720   5.890   4.861  1.0595  0.4553 -2.0215
 1171SOL    HW2 5521   9.854   5.957   4.884  0.5769  0.4943  1.1989
 1172SOL     OW 5522   3.687   4.608   9.657  0.3544 -0.3992 -0.9846
 1172SOL    HW1 5523   3.700   4.703   9.654  0.2344 -0.3467 -0.1390
 1172SOL    HW2 5524   3.592   4.597   9.665  0.5163 -0.4852  1.4337
 1173SOL     OW 5525   0.176   6.160   9.647 -0.1301 -0.2578  0.1621
 1173SOL    HW1 5526   0.167   6.256   9.647  0.3384 -0.1591 -1.9335
 1173SOL    HW2 5527   0.107   6.130   9.706 -0.0604  1.3768  1.1539
 1174SOL     OW 5528   8.901   1.857   7.147 -0.1090 -0.1057 -0.1293
 1174SOL    HW1 5529   8.934   1.851   7.237 -0.0205  0.7400 -0.1027
 1174SOL    HW2 5530   8.945   1.786   7.101 -1.4729 -1.6926  0.8896
 1175SOL     OW 5531   0.830   9.733   4.514 -0.1377  0.2757  0.5005
 1175SOL    HW1 5532   0.835   9.806   4.575 -0.6075  0.0755  0.7856
 1175SOL    HW2 5533   0.914   9.734   4.468  0.2051  0.4448  1.1225
 1176SOL     OW 5534   4.565   4.295  10.560  0.5028  0.6800 -0.3298
 1176SOL    HW1 5535   4.552   4.293  10.655  1.2668 -0.3146 -0.2326
 1176SOL    HW2 5536   4.574   4.203  10.535 -1.3912  0.8023 -1.6296
 1177SOL     OW 5537   6.737   3.398   1.039 -0.4778  0.2321 -0.1631
 1177SOL    HW1 5538   6.765   3.484   1.069 -1.4220  0.8002 -0.8358
 1177SOL    HW2 5539   6.726   3.408   0.944 -0.6435 -0.6070 -0.2385
 1178SOL     OW 5540   4.126   1.986   1.885  0.4164 -0.3128 -0.2684
 1178SOL    HW1 5541   4.214   2.025   1.887  0.1419  0.3036  0.8593
 1178SOL    HW2 5542   4.072   2.052   1.841  0.3960 -0.4296 -0.4201
 1179SOL     OW 5543   2.184  11.046   7.057 -0.2058 -0.3100  0.3421
 1179SOL    HW1 5544   2.145  11.094   6.984 -1.1875  1.7064  2.0631
 1179SOL    HW2 5545   2.128  10.969   7.069  0.0424 -0.7283 -1.0625
 1180SOL     OW 5546   3.898   0.883   4.540 -0.1869 -0.3905 -0.6169
 1180SOL    HW1 5547   3.879   0.792   4.561 -0.5030 -0.5629 -1.5755
 1180SOL    HW2 5548   3.927   0.922   4.623 -1.2198 -1.0518  0.0792
 1181SOL     OW 5549   9.557  10.881  10.828 -0.1849  0.7234  0.2056
 1181SOL    HW1 5550   9.507  10.954  10.866  0.9687  2.0985 -0.7871
 1181SOL    HW2 5551   9.637  10.877  10.881  0.5455  1.3725 -0.8086
 1182SOL     OW 5552   2.982   6.340   7.823  0.2012  0.1121 -0.2354
 1182SOL    HW1 5553   2.890   6.333   7.798 -0.2670  3.3192  0.2318
 1182SOL    HW2 5554   3.029   6.349   7.741 -0.0598 -0.0640 -0.4038
 1183SOL     OW 5555   1.124   2.009   3.275  0.2695  0.5363  0.0441
 1183SOL    HW1 5556   1.043   2.036   3.232  0.6299 -1.3032 -2.0261
 1183SOL    HW2 5557   1.121   2.049   3.361 -1.8092  2.2639 -0.7479
 1184SOL     OW 5558   9.494   6.788  10.375 -0.0308  0.0238 -0.7078
 1184SOL    HW1 5559   9.478   6.766  10.466  3.3465  2.2477  0.6118
 1184SOL    HW2 5560   9.587   6.810  10.371 -0.5306  2.4535 -4.1375
 1185SOL     OW 5561   4.749   8.732   6.808  0.8262 -0.2307 -0.6481
 1185SOL    HW1 5562   4.663   8.768   6.830  1.1965  0.1570  0.2190
 1185SOL    HW2 5563   4.804   8.808   6.791  1.1075 -0.4568 -0.7731
 1186SOL     OW 5564   4.647   7.484  11.129 -0.1642  0.2951 -0.7618
 1186SOL    HW1 5565   4.650   7.580  11.119  0.1586  0.1546 -2.1910
 1186SOL    HW2 5566   4.725   7.463  11.180 -1.0609  0.9099  0.9755
 1187SOL     OW 5567   0.127   1.908   1.492 -0.0745  0.1119  0.3171
 1187SOL    HW1 5568   0.074   1.861   1.427  0.6443  0.4130 -0.4982
 1187SOL    HW2 5569   0.122   2.000   1.466 -0.9568  0.4373  1.5428
 1188SOL     OW 5570   1.189   9.098   2.124  0.1200 -0.6304 -0.4034
 1188SOL    HW1 5571   1.174   9.192   2.110  0.0113 -0.5283  0.3699
 1188SOL    HW2 5572   1.105   9.065   2.157  0.6062 -0.6882  0.8171
 1189SOL     OW 5573   4.377  11.152   2.909  0.1397 -0.0274 -0.0427
 1189SOL    HW1 5574   4.376  11.214   2.837 -0.0174 -1.9395 -1.7813
 1189SOL    HW2 5575   4.299  11.174   2.960 -0.4164  0.6253 -1.1329
 1190SOL     OW 5576   5.528   5.445   2.983 -0.0892  0.3874  0.1172
 1190SOL    HW1 5577   5.551   5.513   3.046  1.7908  0.0326 -0.1025
 1190SOL    HW2 5578   5.483   5.378   3.035 -2.2144  1.8614  0.2842
 1191SOL     OW 5579  11.114   0.732   7.304 -0.0686  0.0893 -0.7259
 1191SOL    HW1 5580  11.102   0.644   7.339  2.0815  0.1323  0.3089
 1191SOL    HW2 5581  11.115   0.721   7.209 -0.3799 -0.9162 -0.6212
 1192SOL     OW 5582   3.230   8.133   5.871 -0.0905  0.1816 -0.3061
 1192SOL    HW1 5583   3.164   8.151   5.803  0.1923  0.2497 -0.5669
 1192SOL    HW2 5584   3.205   8.048   5.906 -0.8529  0.6126  0.2401
 1193SOL     OW 5585   4.180   6.341   1.260  0.4352 -0.2673 -0.0271
 1193SOL    HW1 5586   4.158   6.299   1.343 -0.2475 -0.8732 -0.5073
 1193SOL    HW2 5587   4.114   6.410   1.249  0.4182 -0.3027 -0.1503
 1194SOL     OW 5588   5.028   9.843   3.198 -0.1480 -0.0157 -0.3137
 1194SOL    HW1 5589   5.066   9.756   3.188  0.0212 -0.3277  2.1998
 1194SOL    HW2 5590   4.946   9.827   3.246 -0.7954  1.1150 -0.9994
 1195SOL     OW 5591   6.411   0.648   9.512  0.2803  0.1710 -0.0289
 1195SOL    HW1 5592   6.415   0.687   9.425  2.1160 -1.7747 -0.9199
 1195SOL    HW2 5593   6.379   0.559   9.496  1.8546 -0.6295  1.0867
 1196SOL     OW 5594   8.626   0.367  11.016  0.4364  0.7225  0.3272
 1196SOL    HW1 5595   8.697   0.314  10.978 -1.4364  0.2973 -2.9255
 1196SOL    HW2 5596   8.563   0.302  11.049  0.1286  1.0261  0.3383
 1197SOL     OW 5597   1.103   5.162   3.115 -0.2676  0.3402 -0.5263
 1197SOL    HW1 5598   1.048   5.123   3.048 -1.0096 -0.0957  0.3301
 1197SOL    HW2 5599   1.113   5.253   3.087  0.0530 -0.0081 -1.6111
 1198SOL     OW 5600   5.844   3.812   4.976 -0.1444  0.7086  0.4409
 1198SOL    HW1 5601   5.840   3.768   5.061 -1.1256  1.3772  0.7501
 1198SOL    HW2 5602   5.796   3.893   4.988 -0.5525  0.6814 -0.8407
 1199SOL     OW 5603   5.478   1.448   1.143  0.4935  0.2458 -0.1201
 1199SOL    HW1 5604   5.525   1.455   1.226  3.3930  1.9277 -1.7169
 1199SOL    HW2 5605   5.396   1.496   1.157  0.1443 -0.8843  2.1485
 1200SOL     OW 5606   6.409   4.823   7.434 -0.8277  0.2444  0.0532
 1200SOL    HW1 5607   6.402   4.784   7.520  0.6954  1.9973  1.0377
 1200SOL    HW2 5608   6.367   4.909   7.443  1.5908  1.5462 -0.1337
 1201SOL     OW 5609   7.169   8.797   0.654  0.2393 -0.5154  1.0073
 1201SOL    HW1 5610   7.144   8.873   0.708 -2.4439 -1.6895  1.5729
 1201SOL    HW2 5611   7.223   8.743   0.713  1.2346  0.3900  0.9551
 1202SOL     OW 5612   7.542   2.373   8.982  0.5016  0.0001 -0.5002
 1202SOL    HW1 5613   7.527   2.368   8.887  1.9775 -1.9090 -0.7034
 1202SOL    HW2 5614   7.584   2.290   9.003 -0.2772  0.1568  1.9518
 1203SOL     OW 5615  10.042   6.461   0.407  0.4518  0.0793  0.3666
 1203SOL    HW1 5616  10.035   6.383   0.352 -1.4695  0.1027  0.5072
 1203SOL    HW2 5617   9.992   6.439   0.485 -1.6419  2.0407 -0.3273
 1204SOL     OW 5618   2.726   7.536   9.764  0.9317 -0.2910 -0.4148
 1204SOL    HW1 5619   2.706   7.449   9.729  2.9614 -0.6089 -0.9359
 1204SOL    HW2 5620   2.818   7.529   9.792  1.7578  2.1933 -2.2057
 1205SOL     OW 5621   2.556   4.317   1.868  0.1224  0.8303  0.2766
 1205SOL    HW1 5622   2.491   4.254   1.899  1.3587 -0.0344  1.2439
 1205SOL    HW2 5623   2.553   4.310   1.773  0.2864 -0.7682  0.3689
 1206SOL     OW 5624   8.929   5.947  10.297  0.1846  0.0547 -0.4635
 1206SOL    HW1 5625   8.879   5.990  10.227 -1.2969  1.9600  1.6494
 1206SOL    HW2 5626   8.863   5.897  10.346  1.1701 -1.1013 -0.2628
 1207SOL     OW 5627   8.053   8.832   4.653 -0.6308  1.1503 -0.4130
 1207SOL    HW1 5628   7.969   8.865   4.683 -1.1883 -0.2878 -0.3425
 1207SOL    HW2 5629   8.032   8.772   4.581  0.3291  0.7834 -0.4127
 1208SOL     OW 5630   6.552  11.268  10.818  0.0826  0.1666  0.5637
 1208SOL    HW1 5631   6.563  11.191  10.874  0.3577 -0.6849 -0.6133
 1208SOL    HW2 5632   6.458  11.283  10.815  0.0174 -0.2252  0.6583
 1209SOL     OW 5633   9.874   4.854   6.581 -0.0233 -0.5934 -0.6137
 1209SOL    HW1 5634   9.864   4.925   6.517  1.4500  0.0338 -0.1842
 1209SOL    HW2 5635   9.790   4.852   6.627  0.3317  1.8267  0.2969
 1210SOL     OW 5636   5.064   5.995  10.433 -0.3235  0.1163  0.2840
 1210SOL    HW1 5637   5.057   5.930  10.363  0.6499  0.9536 -0.6402
 1210SOL    HW2 5638   5.067   5.944  10.514  0.5221 -0.9996 -0.4279
 1211SOL     OW 5639   7.673  11.207   7.787 -0.4123 -0.7001 -0.0377
 1211SOL    HW1 5640   7.739  11.267   7.751  0.8001 -2.6833 -1.3249
 1211SOL    HW2 5641   7.669  11.229   7.880  0.1563  1.1898 -0.4188
 1212SOL     OW 5642   4.530   6.888   9.823 -0.1257 -0.2350 -0.1068
 1212SOL    HW1 5643   4.589   6.949   9.777 -1.1866  0.0919 -1.0900
 1212SOL    HW2 5644   4.573   6.803   9.815  0.8883  0.2168  0.4058
 1213SOL     OW 5645   6.578   2.786   7.676  0.3636 -0.0138  0.8640
 1213SOL    HW1 5646   6.610   2.778   7.587  0.2955  1.0758  0.7200
 1213SOL    HW2 5647   6.530   2.706   7.692 -3.1381  1.3681 -1.5383
 1214SOL     OW 5648   3.752   8.655   6.474  0.0227  0.3560 -0.6079
 1214SOL    HW1 5649   3.677   8.668   6.416 -0.2204 -0.2552 -0.4390
 1214SOL    HW2 5650   3.716   8.607   6.549  0.6747 -0.3310 -0.7279
 1215SOL     OW 5651   0.011   9.911  10.435 -0.5478  0.0244 -0.2079
 1215SOL    HW1 5652   0.034   9.823  10.465 -0.0807  0.0027 -0.6188
 1215SOL    HW2 5653   0.095   9.952  10.413 -0.8475  0.1754 -1.0970
 1216SOL     OW 5654   4.616   0.350   5.219  0.3302 -0.2266  0.2228
 1216SOL    HW1 5655   4.679   0.407   5.262  1.0486 -2.0258  1.6495
 1216SOL    HW2 5656   4.597   0.281   5.282 -0.8388 -1.3608 -1.2679
 1217SOL     OW 5657   3.278   2.123   0.090  0.3430 -0.2789  0.6243
 1217SOL    HW1 5658   3.202   2.163   0.133  1.1242 -0.6249  2.4095
 1217SOL    HW2 5659   3.324   2.197   0.049 -2.0520 -0.2940 -2.4805
 1218SOL     OW 5660   3.239   8.704   4.784 -0.0721 -0.5739 -0.1803
 1218SOL    HW1 5661   3.175   8.774   4.802  1.0292 -0.0352  1.9962
 1218SOL    HW2 5662   3.194   8.624   4.811 -1.1150 -0.6907 -2.1073
 1219SOL     OW 5663   1.958   0.169   8.872  0.0387 -0.0088 -0.0998
 1219SOL    HW1 5664   1.965   0.159   8.967  2.9120 -1.5369 -0.3736
 1219SOL    HW2 5665   1.990   0.258   8.854 -0.8594  0.4214  0.3274
 1220SOL     OW 5666   4.462  11.253   4.443 -0.1496  0.0522 -0.3236
 1220SOL    HW1 5667   4.445  11.189   4.512 -0.8999  0.4121 -0.1658
 1220SOL    HW2 5668   4.507  11.203   4.375 -1.3384 -0.8227 -0.4978
 1221SOL     OW 5669   4.873   4.420   5.811 -0.0993  0.0128 -0.2280
 1221SOL    HW1 5670   4.899   4.330   5.827  0.4753  0.2595  0.2657
 1221SOL    HW2 5671   4.777   4.419   5.818 -0.0735 -0.5027  0.0776
 1222SOL     OW 5672   0.192   0.841   7.654  0.5454 -0.0281 -0.0819
 1222SOL    HW1 5673   0.119   0.814   7.598 -2.3203  2.5131  2.1091
 1222SOL    HW2 5674   0.212   0.762   7.705 -1.5816 -0.5150  0.1264
 1223SOL     OW 5675   2.708   6.932   1.028 -0.3838  0.2945  0.3245
 1223SOL    HW1 5676   2.713   6.949   1.122 -0.9454 -0.6147  0.5324
 1223SOL    HW2 5677   2.761   6.853   1.015 -0.9056 -0.0101  0.0030
 1224SOL     OW 5678   0.444   2.621  11.147  0.5299  0.5289 -0.1497
 1224SOL    HW1 5679   0.520   2.679  11.150  1.3271 -0.3976 -1.6734
 1224SOL    HW2 5680   0.437   2.595  11.056  0.8553 -2.6244  0.6269
 1225SOL     OW 5681   8.204   2.196   6.445  0.3259 -0.0626 -0.3730
 1225SOL    HW1 5682   8.291   2.228   6.422 -0.0166  0.2116 -1.3419
 1225SOL    HW2 5683   8.173   2.258   6.511  1.0863 -0.5031  0.4138
 1226SOL     OW 5684   1.967   0.498   3.496 -0.6003 -0.0016 -0.6020
 1226SOL    HW1 5685   1.903   0.430   3.474  0.0252 -0.1746 -1.9560
 1226SOL    HW2 5686   1.936   0.576   3.450 -1.2082  0.6221  0.7880
 1227SOL     OW 5687   7.690   8.204   5.017 -0.3861  1.2812 -0.8344
 1227SOL    HW1 5688   7.720   8.293   4.999 -0.4905  1.2923 -0.9582
 1227SOL    HW2 5689   7.672   8.204   5.112  1.7408  0.7495 -0.3843
 1228SOL     OW 5690   0.544  10.378   6.134 -0.1777 -0.1626 -0.2041
 1228SOL    HW1 5691   0.454  10.397   6.163  0.1333  0.0294  0.6733
 1228SOL    HW2 5692   0.595  10.454   6.164  0.0460  0.4125 -1.9493
 1229SOL     OW 5693  10.426   1.466   8.984  0.3636  0.3873  0.2417
 1229SOL    HW1 5694  10.468   1.398   8.931  1.3186  0.9879  0.2184
 1229SOL    HW2 5695  10.451   1.445   9.074  1.0123  0.9546  0.1933
 1230SOL     OW 5696   2.531   0.500   7.447 -0.2166  0.4659  0.7074
 1230SOL    HW1 5697   2.515   0.459   7.362  0.9314  0.8856  0.2649
 1230SOL    HW2 5698   2.444   0.507   7.488 -0.7850  0.2987 -0.4406
 1231SOL     OW 5699   8.590   1.713  10.102  0.4593  0.1453  0.5583
 1231SOL    HW1 5700   8.568   1.622  10.122 -0.2863  0.4142  0.9854
 1231SOL    HW2 5701   8.539   1.764  10.164 -1.0755  0.9601 -1.2714
 1232SOL     OW 5702  10.637   8.570   3.273 -0.3053  0.6588  0.1505
 1232SOL    HW1 5703  10.708   8.628   3.298 -0.3764  1.0954 -0.6025
 1232SOL    HW2 5704  10.578   8.569   3.349  1.0127 -0.5704  1.1992
 1233SOL     OW 5705   3.353   0.758   3.110 -0.5454  0.2648 -0.9850
 1233SOL    HW1 5706   3.301   0.787   3.186 -1.1443 -0.8266 -0.9657
 1233SOL    HW2 5707   3.293   0.768   3.036 -0.9671 -1.4011 -0.9067
 1234SOL     OW 5708   4.936   7.677  10.284  0.3566  0.0308  0.2529
 1234SOL    HW1 5709   4.885   7.600  10.258  0.1630  0.0224  0.6491
 1234SOL    HW2 5710   4.980   7.651  10.365  0.1159  0.4053  0.5106
 1235SOL     OW 5711   2.838   6.319  10.853 -0.0346  0.6282  0.2677
 1235SOL    HW1 5712   2.779   6.261  10.804 -1.1971  3.0258 -1.3578
 1235SOL    HW2 5713   2.868   6.266  10.927 -0.7602 -2.1107 -1.2872
 1236SOL     OW 5714   7.874  10.915   4.583  0.9302 -0.4411 -0.3619
 1236SOL    HW1 5715   7.966  10.941   4.581  0.9238 -0.3973 -0.1650
 1236SOL    HW2 5716   7.827  10.996   4.605  0.8808 -0.5448 -0.0681
 1237SOL     OW 5717   5.959   6.914   6.735  0.1857 -0.8919 -0.2745
 1237SOL    HW1 5718   5.999   6.885   6.817 -1.4672 -4.9141 -0.6612
 1237SOL    HW2 5719   6.007   6.994   6.712  2.8092 -1.3124  2.9493
 1238SOL     OW 5720   2.958  10.666   3.701 -0.4370 -0.2130 -0.1409
 1238SOL    HW1 5721   2.920  10.622   3.624  0.9130 -2.4781  0.3702
 1238SOL    HW2 5722   3.012  10.735   3.664  0.3930 -1.4181 -1.3040
 1239SOL     OW 5723   4.558   6.011   7.817 -0.2588 -0.2744  0.0634
 1239SOL    HW1 5724   4.573   6.046   7.729 -3.4132 -1.2758 -1.0349
 1239SOL    HW2 5725   4.528   5.921   7.802 -2.0432 -0.0928  2.0104
 1240SOL     OW 5726   4.776  10.152   7.704  0.4422  0.0576  1.1208
 1240SOL    HW1 5727   4.851  10.093   7.700  0.0177 -0.4172 -1.5524
 1240SOL    HW2 5728   4.804  10.229   7.655 -1.0994 -0.5472 -0.8223
 1241SOL     OW 5729  11.142   7.804  10.780 -0.0154 -0.3751  0.3179
 1241SOL    HW1 5730  11.154   7.773  10.690  0.8398 -0.0059  0.2904
 1241SOL    HW2 5731  11.099   7.731  10.825 -0.2156 -0.6620 -0.3270
 1242SOL     OW 5732   6.326   4.032   1.355  0.3400 -0.3737  0.2553
 1242SOL    HW1 5733   6.247   3.989   1.323  1.6895 -1.0868 -2.5114
 1242SOL    HW2 5734   6.392   3.962   1.358  1.5639  0.6870 -0.4193
 1243SOL     OW 5735   6.617   8.090   9.934  0.0521 -0.0084 -0.4663
 1243SOL    HW1 5736   6.601   8.030  10.006 -0.9857  0.2634 -0.4488
 1243SOL    HW2 5737   6.706   8.071   9.906  0.3658 -0.3163  0.6909
 1244SOL     OW 5738   7.385   9.012   9.148 -0.4569 -0.2710 -0.2370
 1244SOL    HW1 5739   7.380   9.108   9.140 -0.4140 -0.2478  0.0023
 1244SOL    HW2 5740   7.420   8.983   9.064 -1.1587 -0.1361 -0.5873
 1245SOL     OW 5741  10.157   0.319   2.994  0.2301  0.6321 -0.1318
 1245SOL    HW1 5742  10.200   0.402   3.016 -0.6997  0.7835  1.2478
 1245SOL    HW2 5743  10.168   0.265   3.073  0.2224 -0.3127 -0.7606
 1246SOL     OW 5744   9.810   1.018   0.179  0.0012  0.3184 -0.4515
 1246SOL    HW1 5745   9.882   1.080   0.190  1.0022  0.0398 -4.1759
 1246SOL    HW2 5746   9.742   1.068   0.133 -0.0858 -0.7198 -1.5007
 1247SOL     OW 5747   4.816   9.220  10.805  0.3624 -0.0712 -0.1843
 1247SOL    HW1 5748   4.900   9.225  10.759  1.7761 -1.2493  2.0865
 1247SOL    HW2 5749   4.785   9.311  10.808  1.0636  0.2539 -1.8438
 1248SOL     OW 5750   1.021   9.498   6.474  0.1875 -0.2481 -0.0030
 1248SOL    HW1 5751   1.040   9.430   6.539  0.1877 -1.8438 -1.5957
 1248SOL    HW2 5752   0.933   9.527   6.495  0.9530  0.7819  1.9683
 1249SOL     OW 5753   4.491  10.490   0.649 -0.0639  0.1230  0.0653
 1249SOL    HW1 5754   4.457  10.400   0.655  0.1784  0.0822  0.9523
 1249SOL    HW2 5755   4.543  10.501   0.728 -1.7145  1.7155  0.9856
 1250SOL     OW 5756   2.726   7.128   7.858 -0.0489 -0.0786 -0.6815
 1250SOL    HW1 5757   2.818   7.116   7.878  0.1446  0.1206 -1.4292
 1250SOL    HW2 5758   2.681   7.057   7.904  0.1796  1.2719  1.8200
 1251SOL     OW 5759   9.735   7.321   1.029 -0.3388 -0.2677 -0.0462
 1251SOL    HW1 5760   9.800   7.364   0.974  1.1119 -1.9464  0.2743
 1251SOL    HW2 5761   9.758   7.347   1.118  1.4162 -2.6376  0.2844
 1252SOL     OW 5762   5.708   0.916   1.339  0.5017 -0.0396 -0.6100
 1252SOL    HW1 5763   5.759   0.873   1.270  0.7386 -1.4189  0.3889
 1252SOL    HW2 5764   5.747   0.885   1.421  0.6323  2.0572  0.1736
 1253SOL     OW 5765   0.832   1.918   2.869  0.1013  0.0417  0.2429
 1253SOL    HW1 5766   0.852   1.983   2.802 -0.8900  1.3240  1.1342
 1253SOL    HW2 5767   0.864   1.835   2.833  1.3405  0.9943 -0.9605
 1254SOL     OW 5768   8.757   3.999   9.796  0.2570  0.6386 -0.1502
 1254SOL    HW1 5769   8.789   3.978   9.884 -4.5554  0.2623  1.8691
 1254SOL    HW2 5770   8.719   4.086   9.805  1.6864  1.6089 -2.6469
 1255SOL     OW 5771   4.084   6.976  10.668  0.6754 -0.0822 -0.0958
 1255SOL    HW1 5772   4.154   6.963  10.605  0.4999  1.5131 -0.6590
 1255SOL    HW2 5773   4.119   7.039  10.731  0.1092 -0.0363  0.1856
 1256SOL     OW 5774   0.677   5.230   0.325  0.1183 -0.6077 -0.1204
 1256SOL    HW1 5775   0.584   5.254   0.331  0.2889  0.2554 -0.8502
 1256SOL    HW2 5776   0.683   5.181   0.243  0.3308 -0.5704 -0.1259
 1257SOL     OW 5777   2.180  10.913   9.254  0.0250 -0.2545 -0.4770
 1257SOL    HW1 5778   2.260  10.861   9.253 -0.1336 -0.5828 -3.1539
 1257SOL    HW2 5779   2.187  10.971   9.179 -2.0744 -0.0176 -0.5666
 1258SOL     OW 5780  10.105   5.928  11.285 -0.7561  0.5340 -0.3283
 1258SOL    HW1 5781  10.150   6.013  11.289  0.3112  0.0501 -1.3888
 1258SOL    HW2 5782  10.030   5.938  11.343  2.1014  0.5466  3.8532
 1259SOL     OW 5783   1.833   6.491   0.948 -1.2741  0.5615 -0.6705
 1259SOL    HW1 5784   1.753   6.518   0.903 -0.3086  1.1698 -2.1041
 1259SOL    HW2 5785   1.806   6.419   1.004 -3.0731  1.6078 -0.0964
 1260SOL     OW 5786   7.375   8.619   5.276  0.3100  0.7882 -0.6371
 1260SOL    HW1 5787   7.319   8.581   5.344  0.0005  2.5055  0.1332
 1260SOL    HW2 5788   7.454   8.565   5.277 -0.6085 -0.6200 -0.5428
 1261SOL     OW 5789   9.186   8.812   9.954  0.1915  0.2739 -0.0906
 1261SOL    HW1 5790   9.227   8.882  10.005  0.8232 -1.2132  1.5224
 1261SOL    HW2 5791   9.158   8.747  10.018 -0.7358 -0.8068 -1.5009
 1262SOL     OW 5792   8.759  10.743   5.672  0.3090  0.2149 -0.2920
 1262SOL    HW1 5793   8.801  10.829   5.668  1.1609 -0.0326  1.9085
 1262SOL    HW2 5794   8.828  10.682   5.645  0.4645  0.0431  0.4789
 1263SOL     OW 5795   5.616   5.391   8.283  0.1435  0.3110  0.1895
 1263SOL    HW1 5796   5.682   5.321   8.281 -0.0952  0.0888 -0.8741
 1263SOL    HW2 5797   5.602   5.408   8.376  1.4891  0.1696  0.4508
 1264SOL     OW 5798   5.688   7.829   3.617  0.1075  0.2831  0.0566
 1264SOL    HW1 5799   5.719   7.740   3.635 -0.3145  0.1722  0.2533
 1264SOL    HW2 5800   5.767   7.882   3.615  0.1872  0.4609  3.1037
 1265SOL     OW 5801   8.324   4.001   0.148 -0.4766 -0.0777 -0.0473
 1265SOL    HW1 5802   8.274   3.993   0.066  1.6322  2.1215 -1.7040
 1265SOL    HW2 5803   8.390   3.933   0.142  1.1542  1.5241 -1.4359
 1266SOL     OW 5804   4.373   1.122   9.919 -0.0936 -0.1538  0.5851
 1266SOL    HW1 5805   4.340   1.189   9.979 -0.9388 -2.2593  2.6000
 1266SOL    HW2 5806   4.416   1.058   9.975  0.9556 -1.1830 -1.3045
 1267SOL     OW 5807  10.048   5.919   4.860  0.4414 -0.0803  0.8591
 1267SOL    HW1 5808  10.012   5.847   4.808  2.4440 -1.2280  0.9474
 1267SOL    HW2 5809  10.056   5.883   4.949  0.6299  0.5586  1.1052
 1268SOL     OW 5810   6.188   7.353   6.116 -0.5255  0.4541  0.2631
 1268SOL    HW1 5811   6.255   7.398   6.064  0.4875 -0.8640  0.3585
 1268SOL    HW2 5812   6.198   7.388   6.204  1.1390 -0.8074  0.6288
 1269SOL     OW 5813   9.283  10.455   8.573  0.0934 -0.5122 -0.1886
 1269SOL    HW1 5814   9.371  10.429   8.546  0.0032 -0.0319 -0.9843
 1269SOL    HW2 5815   9.225  10.421   8.505 -0.1396  0.7197 -0.6339
 1270SOL     OW 5816  10.631   3.572  10.607  0.5451  1.2848 -0.3084
 1270SOL    HW1 5817  10.678   3.573  10.523  2.8345  2.3724  0.8898
 1270SOL    HW2 5818  10.597   3.661  10.616  1.1293  1.4536  0.3207
 1271SOL     OW 5819  10.366   0.565   9.425 -0.5084 -0.5871  0.6161
 1271SOL    HW1 5820  10.275   0.591   9.408 -0.3790  0.8825  1.8752
 1271SOL    HW2 5821  10.406   0.643   9.464  1.4617 -1.0087 -0.4170
 1272SOL     OW 5822   7.965  10.409   4.166  0.4940  0.0740  0.0523
 1272SOL    HW1 5823   7.998  10.497   4.149 -1.2606  0.4496 -1.9083
 1272SOL    HW2 5824   7.970  10.399   4.261  2.5769  1.4788  0.1648
 1273SOL     OW 5825   3.254   5.053  10.958 -0.0118 -0.1244  0.5641
 1273SOL    HW1 5826   3.232   4.982  11.019  1.2581 -1.2565 -0.2202
 1273SOL    HW2 5827   3.170   5.078  10.920 -0.4266 -1.7870  0.2875
 1274SOL     OW 5828   0.179   8.270   0.356 -0.3094  0.1764  0.3227
 1274SOL    HW1 5829   0.158   8.362   0.369  0.1844  0.6622 -1.9212
 1274SOL    HW2 5830   0.160   8.254   0.263  0.2640 -1.8087  0.5036
 1275SOL     OW 5831   0.530   3.129   0.321 -0.7789 -0.0539  0.5315
 1275SOL    HW1 5832   0.537   3.139   0.416  0.8718 -1.3664  0.5768
 1275SOL    HW2 5833   0.607   3.172   0.286 -0.6163 -0.8427 -0.1098
 1276SOL     OW 5834   8.512   8.257  10.874 -0.5348 -0.2322 -0.5948
 1276SOL    HW1 5835   8.444   8.197  10.841 -1.6272  1.3288 -1.3166
 1276SOL    HW2 5836   8.562   8.281  10.796 -0.1995 -0.0994 -0.3354
 1277SOL     OW 5837   0.487   3.599   1.581  0.4141  0.0680  0.7989
 1277SOL    HW1 5838   0.484   3.570   1.490  1.5854  0.2385  0.6898
 1277SOL    HW2 5839   0.430   3.538   1.628  0.9740 -0.9630  0.1878
 1278SOL     OW 5840   6.183   9.876   8.930 -0.1927 -0.1489 -0.4386
 1278SOL    HW1 5841   6.161   9.930   8.854 -0.2352  1.6650  0.7865
 1278SOL    HW2 5842   6.268   9.909   8.958 -0.5819 -0.1637  0.8077
 1279SOL     OW 5843   4.265   1.700  10.628  0.4215  0.6555 -0.3858
 1279SOL    HW1 5844   4.230   1.714  10.540  0.0473  1.3481 -0.1356
 1279SOL    HW2 5845   4.318   1.778  10.644  2.5368 -0.5724 -0.9514
 1280SOL     OW 5846   5.310  11.140   6.677  0.3088 -0.4432  0.6651
 1280SOL    HW1 5847   5.309  11.060   6.730  1.0671 -0.0179  1.3437
 1280SOL    HW2 5848   5.403  11.157   6.662  0.1559 -1.8665 -2.8750
 1281SOL     OW 5849   7.717   2.766   9.151  1.0333  0.2582  0.5148
 1281SOL    HW1 5850   7.733   2.794   9.241 -3.3752  0.1195  1.5697
 1281SOL    HW2 5851   7.728   2.671   9.153 -0.1895  0.1116  1.2845
 1282SOL     OW 5852   6.790   8.257   5.677 -1.0051  0.2480 -0.0925
 1282SOL    HW1 5853   6.829   8.318   5.615 -3.6478 -0.1778 -2.3940
 1282SOL    HW2 5854   6.825   8.283   5.762  3.0372  0.7134 -1.6663
 1283SOL     OW 5855   4.939   8.647   5.932 -0.6845  0.1269  0.3021
 1283SOL    HW1 5856   4.928   8.613   6.021  1.3502  1.1720  1.0451
 1283SOL    HW2 5857   4.877   8.719   5.926 -2.1364 -1.1003  0.1784
 1284SOL     OW 5858   3.493   9.115   9.274  0.1091  0.4665  0.0534
 1284SOL    HW1 5859   3.519   9.182   9.211 -0.9834 -0.3847 -1.3530
 1284SOL    HW2 5860   3.521   9.033   9.234 -1.1437 -0.1434  0.4014
 1285SOL     OW 5861   7.613   2.679   9.804 -0.0170  0.5558  0.6336
 1285SOL    HW1 5862   7.604   2.680   9.708  0.8390  1.8577  0.5381
 1285SOL    HW2 5863   7.528   2.710   9.835  0.3385  2.1075  0.1822
 1286SOL     OW 5864  10.326   7.349   5.549 -0.3730  0.2555 -0.4408
 1286SOL    HW1 5865  10.355   7.427   5.502 -1.1483 -0.8773 -2.9572
 1286SOL    HW2 5866  10.278   7.298   5.484 -1.5148 -1.4499  1.6255
 1287SOL     OW 5867   0.079  10.951   5.462  0.1198 -0.3707 -0.5252
 1287SOL    HW1 5868  -0.000  10.978   5.509  2.4794  1.1751  3.0188
 1287SOL    HW2 5869   0.086  11.014   5.390 -0.7750  0.8375  0.3972
 1288SOL     OW 5870   3.049   6.359   3.213 -0.2440 -0.8462  0.2026
 1288SOL    HW1 5871   3.099   6.329   3.289  0.5830  2.6802  1.2497
 1288SOL    HW2 5872   3.005   6.439   3.243  0.8067  1.2209 -3.1328
 1289SOL     OW 5873  10.622   9.649   8.035  0.3155 -0.7247  0.3991
 1289SOL    HW1 5874  10.538   9.693   8.023  0.5134  0.0078  1.6326
 1289SOL    HW2 5875  10.621   9.579   7.969  0.0117  1.0784 -1.6308
 1290SOL     OW 5876   1.386  10.663   4.115 -0.5958  0.0150  0.6106
 1290SOL    HW1 5877   1.426  10.620   4.040 -0.6983  1.3930 -0.2584
 1290SOL    HW2 5878   1.451  10.727   4.143 -0.8558 -0.0047  1.2686
 1291SOL     OW 5879   4.512   7.712   8.718 -0.2176 -0.2272 -0.0695
 1291SOL    HW1 5880   4.525   7.704   8.813  1.7450 -0.0951 -0.2774
 1291SOL    HW2 5881   4.599   7.695   8.681 -0.7835  0.4649 -1.8011
 1292SOL     OW 5882   9.330   3.376   7.945 -0.2504  0.2091 -0.1958
 1292SOL    HW1 5883   9.384   3.451   7.971  0.4616 -0.9230  1.8003
 1292SOL    HW2 5884   9.302   3.337   8.028  0.1962 -2.2816 -1.1391
 1293SOL     OW 5885   4.847   9.681   5.076 -0.0497  0.0911 -0.1842
 1293SOL    HW1 5886   4.835   9.717   4.988 -0.6314 -0.7759 -0.4713
 1293SOL    HW2 5887   4.836   9.757   5.134 -1.6447  0.3274 -0.7496
 1294SOL     OW 5888   5.054  11.213   3.441 -0.1527 -0.6641  0.1648
 1294SOL    HW1 5889   5.122  11.189   3.503  0.4274  0.3817 -0.0525
 1294SOL    HW2 5890   5.059  11.146   3.373 -0.1900 -1.2992  0.7724
 1295SOL     OW 5891   1.629   1.509   8.583  0.2927  0.3526  0.2329
 1295SOL    HW1 5892   1.580   1.433   8.612 -2.3919 -0.4140 -5.1235
 1295SOL    HW2 5893   1.564   1.580   8.580  0.5607  0.5881 -2.4283
 1296SOL     OW 5894   7.709   3.156  11.137  0.5956 -0.5655 -0.5562
 1296SOL    HW1 5895   7.680   3.070  11.106 -3.0458  0.0742  0.5915
 1296SOL    HW2 5896   7.794   3.140  11.176  0.4521 -3.4708 -1.2281
 1297SOL     OW 5897  10.030   4.808  10.379 -0.2187  0.0912 -0.0319
 1297SOL    HW1 5898  10.077   4.725  10.372 -2.3921 -1.5207  2.5257
 1297SOL    HW2 5899   9.999   4.826  10.290  1.0172 -1.3837 -0.8045
 1298SOL     OW 5900   3.392   7.356   0.829 -0.0003 -0.6980 -0.0399
 1298SOL    HW1 5901   3.445   7.387   0.903  0.7768  1.4974 -1.4244
 1298SOL    HW2 5902   3.443   7.286   0.790  1.1951  0.3657 -0.4407
 1299SOL     OW 5903   3.746   5.787   1.277  0.2219  0.2560  0.1258
 1299SOL    HW1 5904   3.767   5.759   1.189  3.6349  0.1922  0.8197
 1299SOL    HW2 5905   3.650   5.785   1.281  0.0056 -1.3144 -2.9932
 1300SOL     OW 5906   0.883   0.406   0.221 -0.0723 -0.1340 -0.2990
 1300SOL    HW1 5907   0.833   0.343   0.273  1.1070 -1.3811 -0.6058
 1300SOL    HW2 5908   0.964   0.419   0.270  0.2921  0.0591 -0.9412
 1301SOL     OW 5909   6.847   2.381   2.187  1.0259 -0.0774 -0.0947
 1301SOL    HW1 5910   6.936   2.363   2.217  1.3458  0.9960 -0.3685
 1301SOL    HW2 5911   6.834   2.474   2.202 -0.0914 -0.2303  0.0138
 1302SOL     OW 5912   2.033   4.070   6.097 -0.1853 -0.1047 -0.2110
 1302SOL    HW1 5913   1.948   4.064   6.142 -1.1096  2.2658 -1.4578
 1302SOL    HW2 5914   2.093   4.020   6.152 -2.5125 -2.5529  0.2994
 1303SOL     OW 5915   8.779   0.612   8.897  0.2818 -0.0539  0.4838
 1303SOL    HW1 5916   8.758   0.654   8.814 -2.0257  0.0627  1.0774
 1303SOL    HW2 5917   8.840   0.542   8.874  0.8075  0.8733 -1.0823
 1304SOL     OW 5918   5.376   4.147   0.433 -0.2190 -0.0324  0.2555
 1304SOL    HW1 5919   5.384   4.083   0.505 -0.3861  1.3443  1.5385
 1304SOL    HW2 5920   5.294   4.124   0.390  0.3280 -1.4527 -0.1119
 1305SOL     OW 5921   5.295  10.351   8.244 -0.1446  0.2229 -0.7173
 1305SOL    HW1 5922   5.322  10.260   8.229  2.1732  0.7490 -0.1007
 1305SOL    HW2 5923   5.200  10.345   8.259  0.0928 -2.2261  0.3764
 1306SOL     OW 5924   3.145   5.442   7.712 -0.1162  0.0814 -0.0641
 1306SOL    HW1 5925   3.185   5.415   7.629 -0.7185 -0.1304 -0.2937
 1306SOL    HW2 5926   3.184   5.527   7.732  0.4173 -0.1063 -0.2963
 1307SOL     OW 5927   3.340   2.545   9.332 -0.3492 -0.5795  0.2077
 1307SOL    HW1 5928   3.424   2.574   9.295 -0.9590  0.0241 -0.7591
 1307SOL    HW2 5929   3.302   2.624   9.370 -0.3034 -0.9377  1.0090
 1308SOL     OW 5930  10.807  10.130  10.635 -0.3606  0.1701  0.4811
 1308SOL    HW1 5931  10.886  10.152  10.586  0.3186 -2.4379  0.2299
 1308SOL    HW2 5932  10.786  10.209  10.684 -0.2136  2.4486 -2.7926
 1309SOL     OW 5933   9.657   9.628   5.481 -0.5780  1.0200  0.3906
 1309SOL    HW1 5934   9.609   9.698   5.527 -1.6782  0.8385 -0.4288
 1309SOL    HW2 5935   9.596   9.554   5.480  0.8832 -0.2736  1.9719
 1310SOL     OW 5936   8.652   9.059   9.408 -0.3929  0.1815 -0.3330
 1310SOL    HW1 5937   8.687   9.129   9.353  0.4334  0.4177  0.4712
 1310SOL    HW2 5938   8.606   9.001   9.347 -1.0113  1.3640 -1.0271
 1311SOL     OW 5939   9.231  10.396  10.133 -0.5990  0.3357 -0.3690
 1311SOL    HW1 5940   9.164  10.462  10.149 -1.1554 -0.2839 -0.0975
 1311SOL    HW2 5941   9.289  10.436  10.069 -0.4494  1.4107  0.4042
 1312SOL     OW 5942   1.975   7.106   5.698  0.5188  0.2902  0.0015
 1312SOL    HW1 5943   1.999   7.175   5.636  0.9905  0.2953  0.1878
 1312SOL    HW2 5944   2.051   7.098   5.756  2.0727 -2.8525 -2.1649
 1313SOL     OW 5945  10.226   2.842   6.830 -0.5463 -0.6901  0.1513
 1313SOL    HW1 5946  10.205   2.902   6.902 -1.0946 -2.2510  1.3574
 1313SOL    HW2 5947  10.302   2.793   6.861 -1.2694 -1.9338  0.0324
 1314SOL     OW 5948   8.951   4.485   1.192  0.2916  0.5950 -0.1014
 1314SOL    HW1 5949   8.914   4.573   1.196  1.4043  1.0295  2.7501
 1314SOL    HW2 5950   8.877   4.429   1.167 -0.9276  2.0759  0.0982
 1315SOL     OW 5951   4.960   9.031   4.764 -0.6913  0.3807 -0.5377
 1315SOL    HW1 5952   4.938   9.073   4.681 -2.1427  0.8283  0.0386
 1315SOL    HW2 5953   4.951   9.101   4.829 -0.2324 -0.1244  0.0841
 1316SOL     OW 5954   9.979   3.957   2.596  0.1701 -0.2011  0.0120
 1316SOL    HW1 5955  10.017   3.910   2.671  0.9224  2.0651  1.1228
 1316SOL    HW2 5956  10.020   3.917   2.520  0.1114 -1.9348  0.8315
 1317SOL     OW 5957   0.100   8.727   2.178 -0.7255 -0.3513 -0.1441
 1317SOL    HW1 5958   0.139   8.806   2.141 -1.9920 -0.0223 -0.8286
 1317SOL    HW2 5959   0.039   8.697   2.111  0.6161 -2.6490 -0.4529
 1318SOL     OW 5960   7.341   9.135  10.986  0.5509  0.5789  0.5764
 1318SOL    HW1 5961   7.431   9.105  10.973  0.6945  0.2033  2.1918
 1318SOL    HW2 5962   7.347   9.230  10.991  1.0435  0.5009  1.7745
 1319SOL     OW 5963   5.081   0.648   9.904  0.6715 -0.3450  0.2982
 1319SOL    HW1 5964   5.070   0.740   9.882  1.6282 -0.0072  1.1806
 1319SOL    HW2 5965   5.073   0.602   9.820 -1.4421  0.3595  0.0571
 1320SOL     OW 5966   7.590   4.679   2.683 -0.1484  0.2520 -0.6347
 1320SOL    HW1 5967   7.683   4.700   2.681  0.2699 -1.1996  1.0829
 1320SOL    HW2 5968   7.575   4.645   2.771 -1.8258 -1.5952 -1.5580
 1321SOL     OW 5969   3.959   4.340   6.683 -0.0055 -0.0785  0.3640
 1321SOL    HW1 5970   4.052   4.339   6.661  0.4061 -2.1454  1.8900
 1321SOL    HW2 5971   3.922   4.264   6.638 -0.3813 -0.7627  1.7388
 1322SOL     OW 5972   7.574   5.658   1.420  0.2202  1.0477  0.3968
 1322SOL    HW1 5973   7.661   5.689   1.445  0.2299  0.2118  1.4482
 1322SOL    HW2 5974   7.537   5.620   1.500 -1.2844  1.7606  0.0842
 1323SOL     OW 5975   8.174   8.021   5.722  0.4170 -0.2280 -0.6428
 1323SOL    HW1 5976   8.178   8.089   5.655  0.9652 -0.2731 -0.6626
 1323SOL    HW2 5977   8.263   7.985   5.725 -0.0113 -1.3738 -1.0719
 1324SOL     OW 5978   6.811   7.932   9.788  0.7789 -0.2913  0.5205
 1324SOL    HW1 5979   6.839   7.921   9.879  0.2664 -1.8065  0.5056
 1324SOL    HW2 5980   6.892   7.953   9.741  1.3251 -1.1209  1.0642
 1325SOL     OW 5981   6.327   7.831  10.329  0.6376  0.2058 -0.6413
 1325SOL    HW1 5982   6.345   7.748  10.284 -2.2955 -0.1645 -1.3321
 1325SOL    HW2 5983   6.247   7.814  10.379 -1.1104  3.0603 -2.2111
 1326SOL     OW 5984  10.911   5.047   2.505 -0.1157  0.1880 -0.6510
 1326SOL    HW1 5985  10.923   5.026   2.413  1.1220 -1.4240 -0.1680
 1326SOL    HW2 5986  10.968   4.986   2.551 -2.1567 -0.3627  1.3114
 1327SOL     OW 5987   0.463   6.093   5.740  0.1450  0.5297 -1.0492
 1327SOL    HW1 5988   0.529   6.067   5.676  0.4986  0.0037 -0.4837
 1327SOL    HW2 5989   0.437   6.012   5.783 -0.7574  0.7590 -1.1529
 1328SOL     OW 5990   2.069   4.674   7.271 -0.1468  0.1283 -0.6503
 1328SOL    HW1 5991   2.121   4.640   7.198  0.5711 -1.0304  0.3607
 1328SOL    HW2 5992   2.055   4.598   7.328 -0.5296  1.0392  0.5099
 1329SOL     OW 5993   1.000  10.111   5.940 -0.3030  0.0950  0.1801
 1329SOL    HW1 5994   0.952  10.149   6.013  0.7311 -3.1566  2.7827
 1329SOL    HW2 5995   0.937  10.053   5.897 -0.1852  0.0077  0.1262
 1330SOL     OW 5996  10.341   5.631   9.937  0.3793  0.2337  0.3736
 1330SOL    HW1 5997  10.356   5.537   9.941  0.7505  0.0725 -2.5160
 1330SOL    HW2 5998  10.251   5.640   9.906  1.2749  0.6728 -2.3382
 1331SOL     OW 5999   1.701   5.658   7.411  0.3598  0.1770 -0.3119
 1331SOL    HW1 6000   1.722   5.748   7.436 -0.2755  0.6249 -1.3357
 1331SOL    HW2 6001   1.723   5.653   7.318 -1.3787 -0.1332 -0.7510
 1332SOL     OW 6002   0.850   1.131   9.657  0.1901  0.3483 -0.1502
 1332SOL    HW1 6003   0.901   1.203   9.693 -0.9661  2.5544 -2.4962
 1332SOL    HW2 6004   0.759   1.153   9.679 -0.1637 -0.6482 -0.5390
 1333SOL     OW 6005   7.252   9.440   2.600  0.0546  0.3116 -0.0162
 1333SOL    HW1 6006   7.199   9.497   2.544  0.4980 -0.6246 -1.4631
 1333SOL    HW2 6007   7.234   9.352   2.567  2.8902 -0.0186 -0.9575
 1334SOL     OW 6008   8.697  10.233   4.331 -0.1090  0.3237  0.0024
 1334SOL    HW1 6009   8.690  10.154   4.384 -0.1011 -2.1108 -3.2615
 1334SOL    HW2 6010   8.611  10.242   4.290 -0.0180  1.8590  0.1183
 1335SOL     OW 6011   9.882   1.489   0.559  0.2034 -0.0564 -0.4669
 1335SOL    HW1 6012   9.860   1.499   0.466  0.0766 -1.2691 -0.5822
 1335SOL    HW2 6013   9.837   1.563   0.602 -1.4914 -0.6602 -1.1100
 1336SOL     OW 6014   3.989  10.041   8.089  0.4764 -0.7058  0.6526
 1336SOL    HW1 6015   3.919  10.073   8.147  1.0605  0.2213  0.8631
 1336SOL    HW2 6016   4.042  10.118   8.070  0.5408 -1.0758 -0.8000
 1337SOL     OW 6017   1.088   2.147   5.151  0.4033  0.7497  0.0738
 1337SOL    HW1 6018   1.014   2.120   5.096 -1.3922  2.3192  1.5713
 1337SOL    HW2 6019   1.164   2.101   5.114 -1.1819 -0.3962 -1.9540
 1338SOL     OW 6020   9.331   2.568   3.276  0.0623  0.0746  0.0631
 1338SOL    HW1 6021   9.396   2.542   3.341 -0.1898 -0.8617 -0.0428
 1338SOL    HW2 6022   9.367   2.539   3.193 -0.2417  0.0452 -0.0594
 1339SOL     OW 6023   6.563   3.781   1.065  0.1161  0.6812  0.2080
 1339SOL    HW1 6024   6.651   3.745   1.054  0.3550  1.0061  0.9566
 1339SOL    HW2 6025   6.563   3.817   1.154 -0.9862  0.1165  0.4478
 1340SOL     OW 6026   1.823   5.820  10.824 -0.2084  0.3877  0.1030
 1340SOL    HW1 6027   1.733   5.823  10.857  0.0010 -1.4960  0.9409
 1340SOL    HW2 6028   1.856   5.733  10.849  1.7943  0.9601 -0.3238
 1341SOL     OW 6029   1.647   5.480   0.704  0.3878 -0.0931 -0.7818
 1341SOL    HW1 6030   1.643   5.575   0.721  3.2622  0.0293 -0.3048
 1341SOL    HW2 6031   1.635   5.472   0.609  1.8620  0.9451 -1.0840
 1342SOL     OW 6032  10.757   1.727   0.619 -0.3414 -0.2051 -0.0245
 1342SOL    HW1 6033  10.829   1.717   0.681 -0.6651  0.2215  0.4212
 1342SOL    HW2 6034  10.797   1.771   0.544 -0.2280  0.4164  0.3974
 1343SOL     OW 6035   9.126   7.241  10.915 -0.2486  0.2687 -0.3890
 1343SOL    HW1 6036   9.123   7.214  10.823 -0.0253  0.3442 -0.4188
 1343SOL    HW2 6037   9.219   7.245  10.935 -0.2995  0.1631 -0.1323
 1344SOL     OW 6038   5.942   6.138   8.420 -0.4151 -0.0441  0.0374
 1344SOL    HW1 6039   5.972   6.133   8.329 -0.6313 -0.0774 -0.0317
 1344SOL    HW2 6040   5.890   6.058   8.432 -0.0645 -0.2347  0.3072
 1345SOL     OW 6041   4.576   1.674   0.500  0.4209  0.5979  0.2767
 1345SOL    HW1 6042   4.509   1.714   0.443 -0.3224  0.4047  0.9922
 1345SOL    HW2 6043   4.650   1.734   0.496 -0.2391  1.4337  0.4027
 1346SOL     OW 6044   5.786  10.967   3.375 -0.1058  0.1184 -0.0256
 1346SOL    HW1 6045   5.800  11.046   3.324 -0.0832  1.5173  2.0078
 1346SOL    HW2 6046   5.691  10.960   3.384 -0.0799  0.4911  0.6036
 1347SOL     OW 6047   4.519   1.458   7.764 -0.2156  0.0449 -0.5731
 1347SOL    HW1 6048   4.455   1.529   7.778  0.9233  0.7094  1.7064
 1347SOL    HW2 6049   4.508   1.401   7.840 -0.5463 -1.8713 -1.9755
 1348SOL     OW 6050   5.106   9.757   2.828  0.0978 -0.5570  0.1529
 1348SOL    HW1 6051   5.067   9.711   2.902 -2.7773  2.1267  0.5170
 1348SOL    HW2 6052   5.047   9.740   2.755 -0.9974  2.1839  0.2624
 1349SOL     OW 6053  11.162   3.790   0.875 -0.3420  0.1375  0.4306
 1349SOL    HW1 6054  11.174   3.736   0.796 -0.9266  0.4512  0.1173
 1349SOL    HW2 6055  11.082   3.757   0.915  0.2528 -0.3916  1.2114
 1350SOL     OW 6056   3.687   1.911   1.896  0.8532  0.0123  0.1524
 1350SOL    HW1 6057   3.646   1.877   1.976  0.4653 -3.9908 -1.5661
 1350SOL    HW2 6058   3.616   1.915   1.832  1.5591  1.2708 -0.5992
 1351SOL     OW 6059   2.845   9.391   1.206  0.0638 -0.4296 -0.1117
 1351SOL    HW1 6060   2.916   9.387   1.142 -0.9488  0.9117 -1.3775
 1351SOL    HW2 6061   2.796   9.310   1.191 -0.0620 -0.2152 -0.9285
 1352SOL     OW 6062   7.185   5.484   1.774  0.3361 -0.1871 -0.7352
 1352SOL    HW1 6063   7.238   5.452   1.846 -2.8877 -0.8224  1.5774
 1352SOL    HW2 6064   7.186   5.579   1.784  0.8666 -0.2052 -0.6074
 1353SOL     OW 6065   5.026   3.747   4.579 -0.6862 -0.3554 -0.7328
 1353SOL    HW1 6066   5.090   3.819   4.582  0.6461 -1.4441 -1.6221
 1353SOL    HW2 6067   4.966   3.772   4.509 -1.6499  0.9719  0.5150
 1354SOL     OW 6068   9.954   8.069   1.425 -0.4446 -0.3584  0.2839
 1354SOL    HW1 6069   9.880   8.045   1.481 -2.5158  1.3082 -1.5489
 1354SOL    HW2 6070   9.966   8.163   1.439 -1.5892  0.3199 -2.4725
 1355SOL     OW 6071  10.606   7.300  11.248  0.5052  0.4074  0.0657
 1355SOL    HW1 6072  10.646   7.340  11.171  1.9669  0.6433  0.9018
 1355SOL    HW2 6073  10.542   7.239  11.214  1.6219 -0.0085 -1.3538
 1356SOL     OW 6074   7.864  10.565   3.648 -0.1703 -0.4990 -0.3385
 1356SOL    HW1 6075   7.950  10.535   3.619 -0.0125  0.9784 -1.5946
 1356SOL    HW2 6076   7.870  10.572   3.743  0.7004 -1.5413 -0.3105
 1357SOL     OW 6077   6.033   2.416  10.177 -0.6120 -0.1166 -0.4272
 1357SOL    HW1 6078   6.093   2.458  10.115 -1.7800 -0.1578 -1.6238
 1357SOL    HW2 6079   6.073   2.331  10.196 -1.9388 -1.7341 -4.0155
 1358SOL     OW 6080   5.179   0.945   1.152  0.2760  0.3415  0.3144
 1358SOL    HW1 6081   5.145   0.944   1.242 -0.4298  0.2266  0.0542
 1358SOL    HW2 6082   5.273   0.928   1.162 -0.0251 -1.1213  0.9249
 1359SOL     OW 6083   9.639   7.938  10.624  0.3549 -0.6470  0.1530
 1359SOL    HW1 6084   9.667   7.944  10.715 -1.4496 -2.0034  0.8378
 1359SOL    HW2 6085   9.545   7.956  10.626  0.3400 -0.3822 -1.4972
 1360SOL     OW 6086   0.088   1.089   0.068  0.6439 -0.1546  0.0013
 1360SOL    HW1 6087   0.119   1.052  -0.015 -2.1464 -1.9509 -0.3767
 1360SOL    HW2 6088   0.019   1.150   0.042  2.3395  2.2659  0.8880
 1361SOL     OW 6089   2.163   0.647   1.244  0.2150  0.3499 -0.7754
 1361SOL    HW1 6090   2.220   0.665   1.169  1.8702 -2.4664 -0.3187
 1361SOL    HW2 6091   2.222   0.647   1.319 -1.3187  2.5024  0.5267
 1362SOL     OW 6092   0.523   2.260   4.651  0.2794  0.0084 -0.3619
 1362SOL    HW1 6093   0.475   2.182   4.678 -0.2125 -0.0182 -1.3034
 1362SOL    HW2 6094   0.570   2.234   4.572  0.0706  0.6739 -0.7118
 1363SOL     OW 6095   8.217   0.289   7.570  0.0556 -0.0559  0.2681
 1363SOL    HW1 6096   8.125   0.273   7.545 -0.0171  1.4210 -0.4725
 1363SOL    HW2 6097   8.211   0.354   7.640  0.5877  1.5949 -1.1544
 1364SOL     OW 6098   8.505   3.158   8.927  0.2552 -0.0975 -0.6375
 1364SOL    HW1 6099   8.569   3.155   8.856  2.5364 -1.7150  1.3277
 1364SOL    HW2 6100   8.533   3.230   8.983 -2.8644  2.7312 -2.3319
 1365SOL     OW 6101   5.603   9.705   2.072  0.0209  0.1177 -0.3528
 1365SOL    HW1 6102   5.676   9.661   2.115  1.2453  0.3627 -2.0622
 1365SOL    HW2 6103   5.545   9.634   2.044 -1.0606 -0.0211  2.0194
 1366SOL     OW 6104   4.228   8.652  11.244  0.2355 -0.1521 -0.2158
 1366SOL    HW1 6105   4.136   8.665  11.270  0.2015 -0.6383 -0.0883
 1366SOL    HW2 6106   4.225   8.584  11.177  0.4046  0.5509 -0.9482
 1367SOL     OW 6107   5.298   0.856  10.418 -0.0191  0.5850 -0.4706
 1367SOL    HW1 6108   5.260   0.931  10.463  1.5806  0.4197  1.3280
 1367SOL    HW2 6109   5.346   0.893  10.345  1.2291  1.4393  0.7250
 1368SOL     OW 6110   9.742   1.766   4.301 -1.1065  0.3239  0.2613
 1368SOL    HW1 6111   9.737   1.810   4.386 -0.8609 -0.5112  0.7247
 1368SOL    HW2 6112   9.815   1.705   4.310 -2.1377 -0.9995  0.0572
 1369SOL     OW 6113   1.857   4.070   8.274 -0.2461 -0.0394 -0.6245
 1369SOL    HW1 6114   1.827   4.127   8.203 -0.4213 -1.2474 -1.5556
 1369SOL    HW2 6115   1.792   4.081   8.343 -0.0166  1.2328 -0.5954
 1370SOL     OW 6116   7.438   2.876   0.694  0.3732  0.0251  0.8359
 1370SOL    HW1 6117   7.356   2.833   0.673  0.8624 -0.2998 -0.5210
 1370SOL    HW2 6118   7.454   2.936   0.621  1.0213  0.5665  1.3983
 1371SOL     OW 6119   6.511  10.873   6.603 -0.8082 -0.0401  0.3703
 1371SOL    HW1 6120   6.491  10.963   6.628 -0.0267  0.1722  0.2406
 1371SOL    HW2 6121   6.574  10.842   6.668 -0.5219 -0.2492  0.0040
 1372SOL     OW 6122   3.863   8.663   0.248 -0.0213 -0.0271  0.1969
 1372SOL    HW1 6123   3.806   8.718   0.302  0.1174  0.5277 -0.2060
 1372SOL    HW2 6124   3.810   8.641   0.172  0.7913  1.8514 -0.9814
 1373SOL     OW 6125   3.350  10.838   4.856 -0.6135  0.4333  0.7683
 1373SOL    HW1 6126   3.281  10.891   4.896  0.3748  2.4027 -0.0107
 1373SOL    HW2 6127   3.419  10.901   4.835  1.9557 -1.5843  2.5246
 1374SOL     OW 6128  10.265   8.959   9.938 -0.0234  0.3190 -0.5340
 1374SOL    HW1 6129  10.211   8.880   9.937  0.9102 -0.3597 -2.3046
 1374SOL    HW2 6130  10.281   8.978   9.846  2.0665  0.9667 -0.0988
 1375SOL     OW 6131   7.825   4.981   1.456 -0.1794  0.6943 -0.4912
 1375SOL    HW1 6132   7.780   4.898   1.471  0.0057 -0.1140 -3.7019
 1375SOL    HW2 6133   7.811   5.031   1.537  0.1229 -2.5790  1.7811
 1376SOL     OW 6134   2.363   3.395   4.677 -0.3144  0.5335  0.8031
 1376SOL    HW1 6135   2.429   3.346   4.627 -0.6650  1.3207 -0.4784
 1376SOL    HW2 6136   2.399   3.483   4.683 -2.7429  2.1217 -3.2782
 1377SOL     OW 6137   4.142   7.764  10.160  0.2472 -0.2886 -0.5724
 1377SOL    HW1 6138   4.170   7.749  10.250  1.9671 -2.3204 -1.3817
 1377SOL    HW2 6139   4.072   7.700  10.146  1.5094 -1.5662 -1.3060
 1378SOL     OW 6140   0.929   8.477   8.555 -0.2368 -0.2945 -0.2321
 1378SOL    HW1 6141   0.949   8.438   8.640 -2.5491 -1.0417  0.0539
 1378SOL    HW2 6142   0.935   8.571   8.569 -0.4668 -0.4165  0.7178
 1379SOL     OW 6143   5.865   9.597   5.766 -0.0744 -0.0260  0.2267
 1379SOL    HW1 6144   5.877   9.675   5.712  0.5474 -0.3410 -0.1018
 1379SOL    HW2 6145   5.771   9.596   5.787 -1.0509 -1.5976 -3.4542
 1380SOL     OW 6146   4.046   5.449  10.881 -0.9760 -0.3212  0.0582
 1380SOL    HW1 6147   4.043   5.420  10.973  0.5134 -1.4588 -0.1975
 1380SOL    HW2 6148   3.959   5.482  10.863 -1.1242  0.5518  2.0812
 1381SOL     OW 6149   7.577   2.031   0.803  0.5280 -0.1877  0.1338
 1381SOL    HW1 6150   7.499   2.042   0.857  0.4450  0.9145 -0.1792
 1381SOL    HW2 6151   7.546   1.986   0.725 -0.1990  1.7847 -0.7891
 1382SOL     OW 6152   4.397   0.660   0.299 -0.5368 -0.3274 -0.2652
 1382SOL    HW1 6153   4.330   0.666   0.231 -0.0505 -0.5102 -0.7678
 1382SOL    HW2 6154   4.363   0.596   0.362 -0.4007 -1.1633 -1.0231
 1383SOL     OW 6155   3.395   4.179   8.804  0.4451  0.4587  0.5620
 1383SOL    HW1 6156   3.429   4.268   8.791  0.9263  0.2573  0.4141
 1383SOL    HW2 6157   3.459   4.123   8.760 -0.5825  0.1375 -0.5520
 1384SOL     OW 6158   7.944   9.644   6.451  0.0067  0.0678 -0.5592
 1384SOL    HW1 6159   7.851   9.628   6.468 -0.7487  1.4016 -2.9921
 1384SOL    HW2 6160   7.974   9.695   6.527 -1.1983 -0.4411  0.2820
 1385SOL     OW 6161   0.068   0.053   2.260 -0.5649 -0.5688  0.0992
 1385SOL    HW1 6162   0.025   0.062   2.346 -2.2899  0.6697 -0.8291
 1385SOL    HW2 6163   0.056   0.138   2.219  1.7196 -0.6026 -0.7627
 1386SOL     OW 6164   2.009   1.045   9.143 -0.3192  0.3321 -0.6776
 1386SOL    HW1 6165   1.957   1.060   9.064  1.2883  2.2490 -1.4679
 1386SOL    HW2 6166   1.955   1.080   9.214 -1.6570 -1.1394 -0.9130
 1387SOL     OW 6167   7.336   9.631   2.357 -0.2880  0.1738 -1.1104
 1387SOL    HW1 6168   7.410   9.646   2.298 -0.2559 -0.7653 -1.3269
 1387SOL    HW2 6169   7.302   9.546   2.331  0.0717 -0.5327  0.5814
 1388SOL     OW 6170   2.412   5.272  10.227  0.1888 -0.4132 -0.5470
 1388SOL    HW1 6171   2.431   5.307  10.314  1.2452 -1.9346 -0.1308
 1388SOL    HW2 6172   2.497   5.255  10.188  0.0630  4.5886 -3.8955
 1389SOL     OW 6173   2.555  11.203   4.877 -0.1711 -0.3093 -0.3397
 1389SOL    HW1 6174   2.466  11.236   4.889  0.3216  1.8801 -2.0255
 1389SOL    HW2 6175   2.610  11.282   4.873  1.8094 -1.5797  0.2936
 1390SOL     OW 6176   9.713  10.129   0.321 -0.6734 -0.1915  0.1305
 1390SOL    HW1 6177   9.773  10.158   0.253 -1.7523 -0.6440 -1.0667
 1390SOL    HW2 6178   9.682  10.209   0.362 -1.3145  0.2289 -1.1008
 1391SOL     OW 6179  11.135  10.062   9.687 -0.2141 -0.3545  0.5556
 1391SOL    HW1 6180  11.112   9.977   9.724 -1.0351 -0.3541  0.0667
 1391SOL    HW2 6181  11.084  10.068   9.607 -0.3382  0.6904  0.6970
 1392SOL     OW 6182   8.568   9.947   8.074  0.3135 -0.3151  0.6332
 1392SOL    HW1 6183   8.648   9.927   8.025 -0.7353 -0.2902 -1.1880
 1392SOL    HW2 6184   8.592  10.020   8.131  1.5440 -0.2283  0.0404
 1393SOL     OW 6185   6.656   0.856  11.254  0.0195 -0.1847  0.1380
 1393SOL    HW1 6186   6.716   0.801  11.204  0.9913  0.7338  0.2629
 1393SOL    HW2 6187   6.616   0.796  11.317  0.6315 -0.8613 -0.1026
 1394SOL     OW 6188  10.851   4.932  11.281 -0.2543 -0.1450 -0.6313
 1394SOL    HW1 6189  10.852   4.856  11.223  1.4471  0.4022 -1.3900
 1394SOL    HW2 6190  10.783   4.988  11.245  0.8760  0.2583 -2.2640
 1395SOL     OW 6191   3.304   1.155   3.069  0.1513 -0.2191  0.3308
 1395SOL    HW1 6192   3.243   1.227   3.056  0.1023 -0.6302 -2.1746
 1395SOL    HW2 6193   3.275   1.113   3.150 -2.5591 -0.0770 -0.4821
 1396SOL     OW 6194   6.081   9.644   1.670 -0.2763 -0.2893  0.1063
 1396SOL    HW1 6195   5.989   9.626   1.689 -0.1441  0.0832  1.1903
 1396SOL    HW2 6196   6.085   9.657   1.575 -1.4933  0.5161  0.1446
 1397SOL     OW 6197   0.344   4.641   4.800 -0.9503 -0.0967 -0.0053
 1397SOL    HW1 6198   0.400   4.637   4.877 -0.3518  0.8344 -0.3777
 1397SOL    HW2 6199   0.352   4.554   4.760 -0.3403 -0.2034  0.3423
 1398SOL     OW 6200   2.403   8.294   1.835 -0.2962  0.4699 -0.0930
 1398SOL    HW1 6201   2.487   8.337   1.853 -0.3986  0.3488  0.7132
 1398SOL    HW2 6202   2.339   8.364   1.840 -1.0139 -0.1708  5.1642
 1399SOL     OW 6203   5.328   7.716  10.893 -0.4851 -0.6030  0.2536
 1399SOL    HW1 6204   5.264   7.767  10.943 -0.1547 -1.4064  1.5784
 1399SOL    HW2 6205   5.343   7.638  10.948  2.6674  0.1978  0.6919
 1400SOL     OW 6206   9.222   1.138  10.818  0.3622 -0.3296 -0.7387
 1400SOL    HW1 6207   9.299   1.082  10.811 -1.2216 -2.4228 -3.0972
 1400SOL    HW2 6208   9.150   1.078  10.833 -0.9892  1.5059  0.6653
 1401SOL     OW 6209   0.149   8.389   9.138  0.9835  0.0434  0.0158
 1401SOL    HW1 6210   0.070   8.360   9.091  0.7138  3.2059 -1.7540
 1401SOL    HW2 6211   0.221   8.359   9.083  0.9048 -0.6227  0.2698
 1402SOL     OW 6212   6.370   7.669   0.144 -0.6630  0.1585  1.1416
 1402SOL    HW1 6213   6.334   7.590   0.103  1.5438 -0.6681  0.6759
 1402SOL    HW2 6214   6.389   7.728   0.071 -1.8301  0.9605  1.4528
 1403SOL     OW 6215   7.293   3.575   4.568  0.2590 -0.3518 -0.3197
 1403SOL    HW1 6216   7.231   3.571   4.641  0.0530  0.9233 -0.4045
 1403SOL    HW2 6217   7.273   3.658   4.524  0.2464 -1.1814 -1.9512
 1404SOL     OW 6218  10.452   3.185   8.293 -0.1252 -0.0288 -0.4488
 1404SOL    HW1 6219  10.538   3.223   8.279 -0.7287  1.6652  0.1783
 1404SOL    HW2 6220  10.405   3.249   8.346 -1.8172 -0.8397 -0.8726
 1405SOL     OW 6221   7.682  10.419   0.607 -0.1001  0.0763  0.1121
 1405SOL    HW1 6222   7.667  10.344   0.665 -1.3557  0.6858  0.6020
 1405SOL    HW2 6223   7.667  10.495   0.663  0.7519  0.6988 -0.4946
 1406SOL     OW 6224   4.265   6.235   0.658  0.0090 -0.3149 -0.1195
 1406SOL    HW1 6225   4.300   6.200   0.740  0.0895 -0.1726 -0.0931
 1406SOL    HW2 6226   4.195   6.294   0.685  2.1848  2.3819  0.0740
 1407SOL     OW 6227  11.108   4.870   9.513  0.8588  0.1343 -0.3090
 1407SOL    HW1 6228  11.019   4.836   9.501  0.1977  1.1068  1.5463
 1407SOL    HW2 6229  11.161   4.791   9.527  0.4543 -0.5064 -2.0900
 1408SOL     OW 6230   1.215   4.128   9.892 -0.1921  0.4455  0.2896
 1408SOL    HW1 6231   1.229   4.066   9.820  3.2486  1.5224 -0.1305
 1408SOL    HW2 6232   1.223   4.074   9.971  2.7809  0.2112 -0.0693
 1409SOL     OW 6233   4.644   0.450   7.841  0.3660  0.6812 -0.0624
 1409SOL    HW1 6234   4.656   0.479   7.931  1.5128 -0.5710  0.2079
 1409SOL    HW2 6235   4.731   0.458   7.801  1.1337 -3.4575  0.3985
 1410SOL     OW 6236   1.394  10.623   2.171  0.4556 -0.0059 -0.2848
 1410SOL    HW1 6237   1.330  10.667   2.114 -1.4224 -1.3531  0.6645
 1410SOL    HW2 6238   1.383  10.530   2.151 -0.1709 -0.5158  2.1064
 1411SOL     OW 6239  11.133   0.702   8.573 -0.0138 -0.3527 -0.7059
 1411SOL    HW1 6240  11.048   0.741   8.593 -0.4248 -0.8557 -1.4287
 1411SOL    HW2 6241  11.131   0.618   8.618  0.1285 -0.3349 -0.6671
 1412SOL     OW 6242   3.816   8.082   0.321  0.0213  0.0933 -0.2229
 1412SOL    HW1 6243   3.875   8.041   0.383  2.1850  0.9245 -1.6220
 1412SOL    HW2 6244   3.769   8.147   0.373  1.2950  0.3253  0.6981
 1413SOL     OW 6245   5.538   8.158   1.942 -0.3348 -0.2579  0.2800
 1413SOL    HW1 6246   5.569   8.167   2.032 -0.1010 -1.3404  0.3187
 1413SOL    HW2 6247   5.556   8.067   1.919  3.9251  0.9881 -2.4389
 1414SOL     OW 6248   2.281   1.720   4.414 -0.5041 -0.4273  1.0472
 1414SOL    HW1 6249   2.331   1.640   4.397 -1.3329 -0.9119  0.8592
 1414SOL    HW2 6250   2.291   1.734   4.508  3.0031  1.5401  0.5557
 1415SOL     OW 6251   2.651   3.062   8.135 -0.4402  0.7341 -0.3835
 1415SOL    HW1 6252   2.703   3.083   8.057 -0.8259 -1.1307 -1.1953
 1415SOL    HW2 6253   2.570   3.112   8.124 -0.1862  1.0656 -0.7926
 1416SOL     OW 6254   4.396  10.841   9.989  0.0362  0.1349  0.0752
 1416SOL    HW1 6255   4.481  10.812  10.020  0.5661  0.7059 -0.7944
 1416SOL    HW2 6256   4.399  10.829   9.894 -1.2908 -0.9320  0.1389
 1417SOL     OW 6257   9.387   1.990   2.381  0.5142 -0.3476 -0.0309
 1417SOL    HW1 6258   9.317   2.006   2.445  1.1433 -0.1423  0.6194
 1417SOL    HW2 6259   9.367   2.049   2.309 -0.2625 -0.6520 -0.0804
 1418SOL     OW 6260   6.051   1.967   8.985  0.4202  0.0374 -0.4671
 1418SOL    HW1 6261   6.017   1.878   8.980  1.4446 -0.4805  1.0690
 1418SOL    HW2 6262   5.997   2.011   9.051  0.7353  0.1469 -0.2767
 1419SOL     OW 6263   3.980   2.435   4.809  0.3852  0.2863  0.2059
 1419SOL    HW1 6264   4.042   2.502   4.778  0.6235  1.1580  2.4192
 1419SOL    HW2 6265   3.899   2.483   4.824  0.4008 -0.0117  1.2959
 1420SOL     OW 6266   1.176  10.543   0.484  0.3052  0.0252  0.2615
 1420SOL    HW1 6267   1.259  10.526   0.530  0.9109 -1.4185 -1.2599
 1420SOL    HW2 6268   1.130  10.459   0.486 -1.2852  0.8806  1.3132
 1421SOL     OW 6269   1.049  10.792   8.053  0.4736  0.1764 -0.1195
 1421SOL    HW1 6270   1.082  10.738   8.125 -1.0876  0.4646  0.8549
 1421SOL    HW2 6271   0.959  10.813   8.078  0.1323  0.8971 -1.8219
 1422SOL     OW 6272   4.685   1.359   6.050  0.3276  0.3291  1.1174
 1422SOL    HW1 6273   4.649   1.326   6.132 -0.5523  0.4099  0.7751
 1422SOL    HW2 6274   4.612   1.357   5.989  1.1808 -0.6477  0.0492
 1423SOL     OW 6275   5.543   4.189   7.785 -0.7063 -0.2552 -0.3241
 1423SOL    HW1 6276   5.520   4.142   7.864  0.4505 -1.5683 -0.7487
 1423SOL    HW2 6277   5.626   4.232   7.805 -1.3473  1.0092 -0.2153
 1424SOL     OW 6278   2.993   9.388   2.515  0.8934 -0.7974 -0.2388
 1424SOL    HW1 6279   2.961   9.391   2.425 -1.6053  0.1428  0.5793
 1424SOL    HW2 6280   2.996   9.295   2.537 -1.3844 -0.9682 -0.4173
 1425SOL     OW 6281   1.206   2.899   7.863 -0.8031 -0.0617  0.0535
 1425SOL    HW1 6282   1.300   2.891   7.846 -0.7149 -0.3939  0.6733
 1425SOL    HW2 6283   1.164   2.858   7.787 -0.4888  1.4442 -0.9781
 1426SOL     OW 6284   9.933   9.359  10.728  0.0285 -0.0877  0.9037
 1426SOL    HW1 6285   9.839   9.358  10.745 -0.3394  1.8247 -0.6697
 1426SOL    HW2 6286   9.973   9.379  10.812 -1.0685  0.3846  1.3291
 1427SOL     OW 6287   2.628   6.143   0.458  0.0542 -0.1546  0.2376
 1427SOL    HW1 6288   2.690   6.092   0.406  0.0293  1.0267 -0.9982
 1427SOL    HW2 6289   2.672   6.227   0.471 -1.5325  0.9692 -1.2713
 1428SOL     OW 6290   1.291   9.802   7.894 -0.1029  0.2424  0.7370
 1428SOL    HW1 6291   1.212   9.800   7.948 -0.4559  1.9711  0.3345
 1428SOL    HW2 6292   1.361   9.826   7.955 -0.5507  2.5094  0.4614
 1429SOL     OW 6293   5.723   5.182  10.312 -0.3425 -0.4846 -0.5596
 1429SOL    HW1 6294   5.808   5.181  10.357 -0.1825 -1.8724 -0.8579
 1429SOL    HW2 6295   5.725   5.105  10.255 -0.7285  0.9662 -2.6405
 1430SOL     OW 6296   5.647   0.057   0.257 -0.4542 -0.7926 -0.1302
 1430SOL    HW1 6297   5.593   0.127   0.220 -0.7533  0.1211  1.8839
 1430SOL    HW2 6298   5.700   0.101   0.324  0.4091 -2.2604  0.1881
 1431SOL     OW 6299   4.942   8.414   8.165  0.0920 -0.3539  0.0102
 1431SOL    HW1 6300   4.925   8.337   8.219  0.6806 -1.1229 -0.8647
 1431SOL    HW2 6301   4.876   8.410   8.095 -0.8823  0.8154  0.8198
 1432SOL     OW 6302   0.876   6.738   7.772  0.0660 -0.3952  0.0421
 1432SOL    HW1 6303   0.941   6.808   7.765 -0.8977  0.7119  1.6505
 1432SOL    HW2 6304   0.794   6.778   7.743 -0.5128 -0.8111  1.0511
 1433SOL     OW 6305   1.437   1.031   7.088  0.5065  0.5090 -0.0139
 1433SOL    HW1 6306   1.515   1.087   7.081  0.2382  0.7080 -2.2410
 1433SOL    HW2 6307   1.469   0.951   7.131  1.1002  1.9518  2.3912
 1434SOL     OW 6308   1.776  10.118   4.459  0.4154  0.2480  0.0333
 1434SOL    HW1 6309   1.814  10.045   4.409  0.6831 -0.5029  1.2770
 1434SOL    HW2 6310   1.690  10.132   4.421 -0.0097 -1.3396  0.3329
 1435SOL     OW 6311   9.153  10.598   4.679 -0.4507  0.3801 -0.0390
 1435SOL    HW1 6312   9.203  10.520   4.706 -0.9423 -0.0942 -0.4730
 1435SOL    HW2 6313   9.062  10.570   4.681 -0.4924  0.0477 -2.9072
 1436SOL     OW 6314   9.949  11.139   9.316  0.2074 -0.1466  0.1152
 1436SOL    HW1 6315   9.877  11.077   9.332 -2.2758  2.3030 -0.7078
 1436SOL    HW2 6316   9.986  11.112   9.233 -0.7956 -0.6002 -0.2045
 1437SOL     OW 6317   0.482   5.470   9.056  0.2472 -0.2107 -0.1731
 1437SOL    HW1 6318   0.496   5.541   8.994 -2.2448  0.1696 -0.3946
 1437SOL    HW2 6319   0.387   5.461   9.062  0.3863 -0.7209  3.0552
 1438SOL     OW 6320   8.173   9.544   0.513  0.4317  0.4989  0.2278
 1438SOL    HW1 6321   8.138   9.571   0.429 -0.4260 -0.8867  0.1063
 1438SOL    HW2 6322   8.268   9.542   0.501  0.2725 -1.0272 -1.1776
 1439SOL     OW 6323   6.663   0.464   9.629 -0.1641  0.1776  0.5605
 1439SOL    HW1 6324   6.586   0.437   9.679  0.3226 -0.4269  1.0059
 1439SOL    HW2 6325   6.630   0.529   9.567 -1.2216 -0.7704  0.0857
 1440SOL     OW 6326   1.094  11.192   3.887 -0.4273 -0.5077 -0.4433
 1440SOL    HW1 6327   1.081  11.100   3.912 -2.2056 -0.1039  0.2968
 1440SOL    HW2 6328   1.066  11.242   3.964  0.9275  0.6674 -0.6744
 1441SOL     OW 6329   8.459   9.541  10.976  0.1238  0.1480  1.3531
 1441SOL    HW1 6330   8.502   9.496  11.049 -0.5345  1.0818  2.3403
 1441SOL    HW2 6331   8.395   9.598  11.017  0.0624  1.0585  0.0588
 1442SOL     OW 6332   3.792   6.915   0.190 -0.5261 -0.1206  0.5712
 1442SOL    HW1 6333   3.715   6.953   0.148  0.2940  0.7503 -0.2094
 1442SOL    HW2 6334   3.781   6.935   0.283 -0.8500  0.7325  0.3590
 1443SOL     OW 6335   8.376   5.444   0.021 -0.0982 -0.2388  0.3849
 1443SOL    HW1 6336   8.310   5.492  -0.029 -0.0390 -1.5282 -1.0053
 1443SOL    HW2 6337   8.440   5.510   0.047 -0.8084  0.6715 -0.1468
 1444SOL     OW 6338  10.622   5.590  10.900 -0.6119 -0.1062 -0.3765
 1444SOL    HW1 6339  10.701   5.569  10.950  0.8059  0.7994 -2.1408
 1444SOL    HW2 6340  10.551   5.557  10.954  1.0885 -4.0902 -0.2341
 1445SOL     OW 6341  10.197   8.727   3.967  0.1026 -0.2928 -0.6925
 1445SOL    HW1 6342  10.189   8.661   3.898  0.9601  1.5198 -2.6394
 1445SOL    HW2 6343  10.157   8.806   3.930  3.5027  1.6798 -0.5679
 1446SOL     OW 6344   5.802  10.168   2.791  0.4271  0.0209  0.3014
 1446SOL    HW1 6345   5.872  10.211   2.840 -0.0633 -0.0722  1.0937
 1446SOL    HW2 6346   5.780  10.230   2.721  0.3864  0.6367  0.8538
 1447SOL     OW 6347  11.081   8.982   6.158  0.5389  0.4116 -0.2069
 1447SOL    HW1 6348  11.069   8.963   6.065  2.4905  0.1109 -0.4308
 1447SOL    HW2 6349  11.095   9.076   6.162 -1.5233  0.7687  0.0617
 1448SOL     OW 6350   3.774   8.564   9.166  0.0638 -0.5666 -0.0557
 1448SOL    HW1 6351   3.730   8.556   9.251 -1.2388 -1.2278 -0.7698
 1448SOL    HW2 6352   3.788   8.474   9.138 -1.5899 -0.4013 -1.5610
 1449SOL     OW 6353   3.814   2.615   5.955  0.2248  0.2999  0.4650
 1449SOL    HW1 6354   3.894   2.567   5.934  0.0093 -0.2040  0.7639
 1449SOL    HW2 6355   3.822   2.698   5.909  0.0290 -0.5349 -1.1545
 1450SOL     OW 6356  10.912   8.644   5.225 -0.2702 -0.2947  0.5534
 1450SOL    HW1 6357  10.987   8.586   5.238  0.8378  1.4339  2.4734
 1450SOL    HW2 6358  10.938   8.701   5.152  0.8219  0.9691  1.8589
 1451SOL     OW 6359   9.214   5.214  11.242 -0.3690  0.2639 -0.2283
 1451SOL    HW1 6360   9.188   5.188  11.331 -0.4462  1.1820  0.0251
 1451SOL    HW2 6361   9.138   5.259  11.206  0.0740  0.9605 -0.3116
 1452SOL     OW 6362   0.869   9.723   5.234  0.1048  0.1268 -0.3160
 1452SOL    HW1 6363   0.844   9.752   5.147  0.6967 -2.1043 -1.3151
 1452SOL    HW2 6364   0.810   9.649   5.252  0.4376  0.1308  0.8746
 1453SOL     OW 6365   4.685  11.048   4.127  0.1531 -0.4164 -0.2148
 1453SOL    HW1 6366   4.644  11.013   4.048 -0.5904  0.6841 -0.3418
 1453SOL    HW2 6367   4.708  10.971   4.179 -3.2880 -1.1592  0.4767
 1454SOL     OW 6368   8.368   2.533  10.408 -0.1126  0.0835  0.0421
 1454SOL    HW1 6369   8.272   2.538  10.402 -0.0429  0.3318 -0.9968
 1454SOL    HW2 6370   8.389   2.582  10.487 -0.9150 -0.9422  0.9400
 1455SOL     OW 6371   6.810   8.485   6.368  0.9118  0.5132  0.0261
 1455SOL    HW1 6372   6.843   8.457   6.453 -1.3001 -1.3629  0.3778
 1455SOL    HW2 6373   6.818   8.407   6.313  1.4918  1.4432 -1.2736
 1456SOL     OW 6374   3.912   1.944   0.901  0.1021 -0.2903  0.2376
 1456SOL    HW1 6375   3.881   1.928   0.990  0.7430  0.7450  0.6675
 1456SOL    HW2 6376   3.949   1.860   0.873 -2.6701 -1.4942 -0.1774
 1457SOL     OW 6377   0.602   6.212   1.863  0.4903  0.7165 -0.2380
 1457SOL    HW1 6378   0.589   6.127   1.904  1.1843  0.1931 -1.0859
 1457SOL    HW2 6379   0.516   6.255   1.869  0.2776  0.1996  0.6909
 1458SOL     OW 6380   9.737   0.192   6.909 -1.0481 -0.2895 -0.5134
 1458SOL    HW1 6381   9.686   0.134   6.853 -0.1378 -0.1239 -1.5452
 1458SOL    HW2 6382   9.710   0.169   6.998 -3.6736  0.5049 -1.0231
 1459SOL     OW 6383   1.179   4.200  10.854 -0.2563 -0.4682  0.6926
 1459SOL    HW1 6384   1.119   4.185  10.928 -1.6883 -0.3860 -0.4062
 1459SOL    HW2 6385   1.194   4.113  10.818 -3.0640 -0.1751 -1.5045
 1460SOL     OW 6386   6.232   2.742   1.045 -0.3857 -0.2179 -0.2355
 1460SOL    HW1 6387   6.168   2.813   1.043  0.7299  0.8277  0.0612
 1460SOL    HW2 6388   6.182   2.664   1.020 -2.0393  0.3515  1.0728
 1461SOL     OW 6389   9.520   9.096   4.583 -0.0955  0.2299 -0.5257
 1461SOL    HW1 6390   9.611   9.126   4.583  0.5595 -1.4661  1.8823
 1461SOL    HW2 6391   9.512   9.041   4.505  0.6454  1.1398 -1.2646
 1462SOL     OW 6392   1.910   7.972   9.449  0.0667  0.7222  0.2229
 1462SOL    HW1 6393   1.959   7.981   9.530 -0.9329  0.1877  0.9041
 1462SOL    HW2 6394   1.831   8.024   9.463 -1.5066 -1.6772  0.7504
 1463SOL     OW 6395   3.360   0.082   6.848  0.7404 -0.5085  0.5893
 1463SOL    HW1 6396   3.297   0.136   6.895  0.4662 -0.0364 -0.2881
 1463SOL    HW2 6397   3.307   0.017   6.802  0.5386  1.5378 -2.3573
 1464SOL     OW 6398   8.724   6.451   2.359 -0.5708 -0.1868 -0.3324
 1464SOL    HW1 6399   8.704   6.500   2.280  0.7087  0.2125 -0.4377
 1464SOL    HW2 6400   8.777   6.377   2.329  1.5815  0.9989  0.2783
 1465SOL     OW 6401   4.496   5.094   5.505  0.0788  0.0368  0.0493
 1465SOL    HW1 6402   4.404   5.077   5.524 -0.5191  3.4893  0.7552
 1465SOL    HW2 6403   4.495   5.157   5.433  1.8795  0.4489  0.3288
 1466SOL     OW 6404   1.829   6.496   2.567 -0.2369  0.3952 -0.0361
 1466SOL    HW1 6405   1.903   6.481   2.626 -0.5621  1.4813  0.6665
 1466SOL    HW2 6406   1.812   6.590   2.573  1.3453  1.1044 -3.7824
 1467SOL     OW 6407   4.359   1.598   6.387  0.2027 -0.1409 -0.1311
 1467SOL    HW1 6408   4.281   1.637   6.428  0.8027 -0.3513  1.2621
 1467SOL    HW2 6409   4.431   1.620   6.447  0.7989 -2.1168 -0.0572
 1468SOL     OW 6410   3.242   2.372  11.059 -0.1396  0.3111 -0.2312
 1468SOL    HW1 6411   3.183   2.448  11.063 -0.5622 -0.0110 -0.1948
 1468SOL    HW2 6412   3.236   2.334  11.147 -0.5197 -0.1993 -0.4758
 1469SOL     OW 6413  10.938   0.278   2.541  0.2370  0.1947 -0.0437
 1469SOL    HW1 6414  10.897   0.193   2.525  1.3380 -0.5547  1.0171
 1469SOL    HW2 6415  10.990   0.294   2.462  0.8073 -0.5951  0.1586
 1470SOL     OW 6416  11.096   9.333   6.261 -0.6819 -0.7392  0.0361
 1470SOL    HW1 6417  11.014   9.321   6.214 -0.7845 -0.4973  0.1480
 1470SOL    HW2 6418  11.091   9.272   6.335 -2.0395  1.2431  1.7113
 1471SOL     OW 6419  11.224   1.225   3.648  0.6659 -0.3450 -0.4836
 1471SOL    HW1 6420  11.214   1.293   3.715 -0.6714 -0.9031 -0.0733
 1471SOL    HW2 6421  11.305   1.180   3.670 -0.5533 -1.6115  1.8417
 1472SOL     OW 6422   4.411   4.962   2.835  0.7054 -0.1512 -0.2672
 1472SOL    HW1 6423   4.472   4.913   2.779 -0.0454 -0.5387 -0.7620
 1472SOL    HW2 6424   4.359   4.895   2.879  1.4817  0.1383  1.1531
 1473SOL     OW 6425  10.320   5.207   8.896 -0.2647  0.4692  0.2762
 1473SOL    HW1 6426  10.400   5.165   8.927 -0.3626  1.1495  1.4856
 1473SOL    HW2 6427  10.298   5.270   8.964 -1.5874  0.6106 -0.2613
 1474SOL     OW 6428   5.078   8.004   7.588 -0.2602 -0.2334  0.0977
 1474SOL    HW1 6429   5.105   7.971   7.674 -0.3114 -1.6129 -0.3927
 1474SOL    HW2 6430   5.032   8.086   7.607 -1.0919 -0.9829  1.4683
 1475SOL     OW 6431   9.231   5.413   3.578  0.0228  0.4625  0.0650
 1475SOL    HW1 6432   9.215   5.324   3.612  1.0991  0.4537  0.6018
 1475SOL    HW2 6433   9.244   5.401   3.484  3.2719 -0.4521  0.5109
 1476SOL     OW 6434   1.716   4.565   5.508 -0.0410 -0.7370 -0.6836
 1476SOL    HW1 6435   1.660   4.502   5.461 -0.7666  0.1868 -1.0905
 1476SOL    HW2 6436   1.786   4.586   5.446 -0.0743 -0.7635 -0.7301
 1477SOL     OW 6437  10.793   6.681   1.636  0.8793  0.5939  0.0051
 1477SOL    HW1 6438  10.719   6.689   1.577  0.8899  0.2742 -0.0557
 1477SOL    HW2 6439  10.759   6.707   1.721  0.2022 -1.2849  0.3441
 1478SOL     OW 6440   3.885   1.128   8.534  0.2640 -1.0156  0.2306
 1478SOL    HW1 6441   3.964   1.145   8.483 -1.3005  3.5904 -1.1838
 1478SOL    HW2 6442   3.849   1.048   8.497  2.7519 -1.6556 -1.0181
 1479SOL     OW 6443   2.499  10.110   6.943 -0.0281  0.0535 -0.4492
 1479SOL    HW1 6444   2.536  10.172   6.879 -0.0364 -1.4674 -2.0084
 1479SOL    HW2 6445   2.415  10.084   6.905  1.1793 -2.9676 -1.3207
 1480SOL     OW 6446   0.489   3.415   8.811  0.5286 -0.3496 -0.1203
 1480SOL    HW1 6447   0.446   3.337   8.846  1.0442 -0.6292 -0.0893
 1480SOL    HW2 6448   0.575   3.384   8.783  1.8534  0.6819  2.4113
 1481SOL     OW 6449   5.371   4.007  10.392 -0.7578 -0.8169  0.2563
 1481SOL    HW1 6450   5.397   3.999  10.301  1.2776  0.8809  0.6109
 1481SOL    HW2 6451   5.372   4.101  10.409 -2.3959 -0.9959  1.7087
 1482SOL     OW 6452   8.839   6.102  11.250 -0.5787  0.4777 -0.1311
 1482SOL    HW1 6453   8.901   6.173  11.265 -1.6715  1.9939 -2.3266
 1482SOL    HW2 6454   8.880   6.048  11.183 -0.0932 -0.5861  0.9866
 1483SOL     OW 6455   5.403   4.101   0.089  0.2724  0.2078 -0.1010
 1483SOL    HW1 6456   5.420   4.016   0.047  1.6647 -0.0480  0.9172
 1483SOL    HW2 6457   5.308   4.106   0.094  0.1582 -1.2788 -0.2256
 1484SOL     OW 6458   7.632   8.310   2.895  0.0135  0.1709  0.3292
 1484SOL    HW1 6459   7.720   8.304   2.934 -0.5321 -1.6537  1.4171
 1484SOL    HW2 6460   7.584   8.369   2.953  1.0202  2.9165 -1.4408
 1485SOL     OW 6461   1.701   7.210   2.528  0.2818 -0.7247 -0.0222
 1485SOL    HW1 6462   1.699   7.142   2.460 -2.5215 -1.1561  0.3706
 1485SOL    HW2 6463   1.613   7.208   2.566  0.2129  2.8706  0.2888
 1486SOL     OW 6464   1.902   7.978   2.250  0.2082  0.1486 -0.0609
 1486SOL    HW1 6465   1.909   7.930   2.333 -1.9523 -1.4555 -0.7064
 1486SOL    HW2 6466   1.808   7.989   2.237  0.5730  2.0353 -1.4168
 1487SOL     OW 6467   3.889   9.763   5.421 -0.3228  0.0010 -0.1214
 1487SOL    HW1 6468   3.957   9.752   5.355  0.4800  1.3086  0.4429
 1487SOL    HW2 6469   3.834   9.686   5.412  0.9790 -0.8729 -0.8938
 1488SOL     OW 6470   5.043   7.076   3.067 -0.0676 -0.2053  0.0670
 1488SOL    HW1 6471   5.044   7.009   3.136 -1.5041 -0.1164  0.2011
 1488SOL    HW2 6472   5.048   7.159   3.115  2.8891 -0.1563 -0.1413
 1489SOL     OW 6473   1.421   7.129   1.267 -0.4487  0.5143  0.6346
 1489SOL    HW1 6474   1.351   7.112   1.204  0.5664  0.4818 -0.5080
 1489SOL    HW2 6475   1.380   7.183   1.334 -1.3795  1.1320 -0.4073
 1490SOL     OW 6476   2.041   5.082   6.802  0.7692 -0.3270 -0.1507
 1490SOL    HW1 6477   2.025   5.002   6.851  1.5792 -0.7491 -0.5653
 1490SOL    HW2 6478   2.064   5.053   6.714  1.4642  0.3299 -0.1992
 1491SOL     OW 6479   7.326   1.613  10.501 -0.3300  0.0999 -0.1067
 1491SOL    HW1 6480   7.341   1.594  10.409 -1.5193  0.5511 -0.4099
 1491SOL    HW2 6481   7.280   1.697  10.502 -0.3407  0.1045  0.8959
 1492SOL     OW 6482  10.371   1.251   9.802 -0.3076  0.1365 -0.3052
 1492SOL    HW1 6483  10.367   1.329   9.857  3.3757  0.6992 -0.5633
 1492SOL    HW2 6484  10.367   1.285   9.712  2.5157  0.3463 -0.4610
 1493SOL     OW 6485   1.352   5.295   3.230  0.3496  0.4466 -0.1033
 1493SOL    HW1 6486   1.264   5.328   3.213  0.5399  0.9212 -0.1714
 1493SOL    HW2 6487   1.358   5.215   3.178  1.0612  2.0561 -2.6621
 1494SOL     OW 6488   1.085   7.879   1.314  0.6468  0.5666  0.4783
 1494SOL    HW1 6489   1.145   7.878   1.239 -0.9654 -1.3030 -0.9007
 1494SOL    HW2 6490   1.008   7.926   1.282 -0.7846 -1.7726  0.2254
 1495SOL     OW 6491  10.036   8.279   4.737 -0.2009 -0.3433 -0.2315
 1495SOL    HW1 6492  10.019   8.294   4.830  0.2709  1.5998 -0.4167
 1495SOL    HW2 6493   9.954   8.243   4.704 -2.2958  3.6733 -0.0160
 1496SOL     OW 6494   7.482  10.876   8.019  0.0454 -0.3145  0.2768
 1496SOL    HW1 6495   7.414  10.944   8.013 -0.7545 -1.1918 -1.2047
 1496SOL    HW2 6496   7.433  10.794   8.016  1.0721 -0.9724  1.0793
 1497SOL     OW 6497   2.381   8.792   2.627  0.7440 -0.3277 -0.1104
 1497SOL    HW1 6498   2.436   8.718   2.601 -0.5756 -1.5390  0.3972
 1497SOL    HW2 6499   2.332   8.760   2.703 -1.6404  0.2035 -1.3341
 1498SOL     OW 6500   8.484   0.685   7.855  0.4401  0.3670 -0.1539
 1498SOL    HW1 6501   8.408   0.632   7.830  1.2750 -0.6285 -0.6442
 1498SOL    HW2 6502   8.446   0.764   7.892 -0.8980 -1.1721  2.0247
 1499SOL     OW 6503  11.070   3.977   3.456  0.1807 -0.6594 -0.5091
 1499SOL    HW1 6504  11.020   3.945   3.532  0.5652 -0.2724 -0.0862
 1499SOL    HW2 6505  11.088   3.898   3.405 -0.6563 -0.8317 -0.5418
 1500SOL     OW 6506   7.580  10.960   7.738  0.4769  0.0558 -0.0199
 1500SOL    HW1 6507   7.525  10.956   7.817 -1.4033  1.2657 -1.1877
 1500SOL    HW2 6508   7.619  11.047   7.741  2.4988 -0.8150  0.8297
 1501SOL     OW 6509   4.224   2.338   9.735 -0.5777  0.0157  0.6554
 1501SOL    HW1 6510   4.173   2.417   9.752  0.9171  1.2853 -0.3910
 1501SOL    HW2 6511   4.175   2.291   9.667  0.3368  2.0661 -1.5863
 1502SOL     OW 6512   2.571   1.904   4.084 -0.3236  0.4685  0.9156
 1502SOL    HW1 6513   2.488   1.951   4.076 -1.0188 -0.6563  1.3323
 1502SOL    HW2 6514   2.548   1.812   4.074  0.9913  0.1850  0.2609
 1503SOL     OW 6515   9.524   4.635   8.653  0.1564  0.2738  0.0510
 1503SOL    HW1 6516   9.501   4.715   8.701  0.0464  0.9166 -1.0483
 1503SOL    HW2 6517   9.616   4.647   8.631  0.2462 -0.0924  0.2264
 1504SOL     OW 6518   7.888   9.208   4.208  0.1354  0.0613 -0.1005
 1504SOL    HW1 6519   7.941   9.279   4.171  0.2690 -1.3394 -2.8497
 1504SOL    HW2 6520   7.890   9.223   4.303  1.3308  2.8588 -0.4729
 1505SOL     OW 6521   1.333   5.569   0.775  0.3373  0.9998  0.3350
 1505SOL    HW1 6522   1.365   5.528   0.856 -0.3142 -1.1596 -0.4338
 1505SOL    HW2 6523   1.397   5.543   0.709 -1.2178 -0.6757 -0.5886
 1506SOL     OW 6524   4.650   1.116   1.599 -0.3077  0.5093  0.0365
 1506SOL    HW1 6525   4.613   1.064   1.528  1.3456  0.8556 -1.1468
 1506SOL    HW2 6526   4.657   1.204   1.563 -2.2751  1.4367  1.7280
 1507SOL     OW 6527   5.128   1.369   9.985 -0.2749  0.3120 -0.0813
 1507SOL    HW1 6528   5.082   1.444  10.022 -0.7369  1.0461 -2.0357
 1507SOL    HW2 6529   5.161   1.321  10.061  1.0098  3.0751  1.2018
 1508SOL     OW 6530   3.066   5.363   0.150  0.2940  0.6045 -0.1570
 1508SOL    HW1 6531   3.118   5.309   0.210 -0.9558  1.2707  1.6222
 1508SOL    HW2 6532   3.101   5.451   0.160 -0.1269  0.7764 -0.1712
 1509SOL     OW 6533  10.373   9.344   1.296  0.1760  0.8426 -0.4568
 1509SOL    HW1 6534  10.291   9.387   1.273  1.2912  2.5921 -1.4777
 1509SOL    HW2 6535  10.374   9.342   1.391 -1.0585  0.7494 -0.4373
 1510SOL     OW 6536   0.375   4.337  11.017 -0.8443 -0.2419 -0.0693
 1510SOL    HW1 6537   0.280   4.325  11.024 -0.7151 -1.6738 -0.4294
 1510SOL    HW2 6538   0.394   4.413  11.072 -1.8557 -1.5137  2.1564
 1511SOL     OW 6539   3.382   2.323   6.038 -0.3950  0.3043  0.3785
 1511SOL    HW1 6540   3.289   2.332   6.021 -0.3195 -2.1586 -2.0023
 1511SOL    HW2 6541   3.424   2.374   5.968 -0.0215 -1.2381 -0.5707
 1512SOL     OW 6542  10.186  10.648   5.493 -0.0457 -0.9124  0.2553
 1512SOL    HW1 6543  10.278  10.650   5.467  0.1044  1.6479  0.6984
 1512SOL    HW2 6544  10.154  10.563   5.463  1.2593 -0.0681 -4.2127
 1513SOL     OW 6545   6.104   0.536   6.874 -0.3737  0.2966 -0.0977
 1513SOL    HW1 6546   6.164   0.583   6.933  0.3113  0.1189 -0.6389
 1513SOL    HW2 6547   6.020   0.538   6.919  0.0511  0.5050  0.7081
 1514SOL     OW 6548  10.032   5.728   7.994  0.1744  0.4227  0.1796
 1514SOL    HW1 6549  10.099   5.790   7.966 -0.8023  0.3242 -2.7652
 1514SOL    HW2 6550  10.036   5.658   7.929 -1.9979 -0.1245  0.5461
 1515SOL     OW 6551  10.952   3.579  10.206 -0.2786 -0.2487 -0.2565
 1515SOL    HW1 6552  11.020   3.519  10.174 -0.5272 -0.1060 -1.0638
 1515SOL    HW2 6553  10.966   3.660  10.158  1.1712  1.0072  2.0697
 1516SOL     OW 6554   8.678   5.382   5.921 -0.0111 -0.7490 -0.3971
 1516SOL    HW1 6555   8.608   5.408   5.862 -0.6095  0.5544  0.8212
 1516SOL    HW2 6556   8.644   5.305   5.967 -0.7805  0.0504  0.3943
 1517SOL     OW 6557   3.936   0.141   1.699 -0.0462 -0.4760  0.1612
 1517SOL    HW1 6558   3.880   0.064   1.700  0.8096 -1.2254  3.3702
 1517SOL    HW2 6559   4.021   0.110   1.731  0.4633  1.6813  1.1273
 1518SOL     OW 6560   2.497   6.057   5.120  0.1527 -0.2849 -0.1907
 1518SOL    HW1 6561   2.552   6.102   5.056  0.0677 -1.0986 -0.8465
 1518SOL    HW2 6562   2.484   5.970   5.084  1.0562 -1.1618  1.4793
 1519SOL     OW 6563   1.640   6.282   8.817  0.0235  0.3792 -0.0338
 1519SOL    HW1 6564   1.630   6.375   8.835  0.5736  0.3296  0.5704
 1519SOL    HW2 6565   1.729   6.273   8.782  0.3031 -0.0305  0.7536
 1520SOL     OW 6566  11.001   8.229   0.419  0.2294  0.5338 -0.9389
 1520SOL    HW1 6567  11.007   8.148   0.470  0.7616  0.8317 -0.5139
 1520SOL    HW2 6568  11.014   8.299   0.483 -2.0430  1.0654 -0.9690
 1521SOL     OW 6569   9.330   8.105   8.242 -0.5097  0.4545  0.3062
 1521SOL    HW1 6570   9.373   8.122   8.325 -2.5668 -1.6890  1.9451
 1521SOL    HW2 6571   9.267   8.035   8.261 -1.8909  0.6762 -2.7964
 1522SOL     OW 6572   0.138   7.021   7.957 -0.2269  0.2954 -0.0042
 1522SOL    HW1 6573   0.088   7.042   8.035  0.8210 -0.1871  0.8118
 1522SOL    HW2 6574   0.164   7.107   7.922  0.0403  0.4900  0.6645
 1523SOL     OW 6575   9.183   0.226   8.357  0.3176  0.0044 -0.3490
 1523SOL    HW1 6576   9.166   0.265   8.271  0.9991  0.3150 -0.3445
 1523SOL    HW2 6577   9.240   0.289   8.401 -0.8577  0.3534  0.7303
 1524SOL     OW 6578   9.938   9.709   0.978 -0.0113  0.4065  0.4303
 1524SOL    HW1 6579   9.911   9.626   1.017 -1.2860  1.3560  1.7294
 1524SOL    HW2 6580   9.876   9.723   0.906  0.7224 -0.1333 -0.3217
 1525SOL     OW 6581   1.359   8.257   9.885  0.4585 -0.2328  0.2571
 1525SOL    HW1 6582   1.373   8.176   9.933  0.8891 -0.6603 -0.5594
 1525SOL    HW2 6583   1.337   8.229   9.796 -0.3698  0.5334  0.2005
 1526SOL     OW 6584   6.562  11.162  10.290 -0.6060 -0.2586  0.2308
 1526SOL    HW1 6585   6.656  11.171  10.308 -0.2759  0.1589 -1.5642
 1526SOL    HW2 6586   6.532  11.251  10.275 -0.5619 -0.6281 -2.4373
 1527SOL     OW 6587   3.186   3.344   3.629 -0.6957  0.6781 -0.6815
 1527SOL    HW1 6588   3.212   3.277   3.566 -0.9145 -0.0312 -0.0302
 1527SOL    HW2 6589   3.128   3.402   3.580  1.7316  2.1202 -2.0947
 1528SOL     OW 6590   7.634   0.923   0.363 -0.4008  0.5370  0.4892
 1528SOL    HW1 6591   7.609   0.870   0.287  1.2645 -2.1869  1.6950
 1528SOL    HW2 6592   7.717   0.962   0.339 -1.4251  2.4148 -0.2342
 1529SOL     OW 6593  10.013  10.891   9.543  0.0313 -0.8466 -0.3247
 1529SOL    HW1 6594   9.953  10.823   9.572 -0.9803  0.8135  1.8662
 1529SOL    HW2 6595  10.038  10.867   9.454 -2.8917 -2.2905 -0.8535
 1530SOL     OW 6596   6.599  10.251   9.438 -1.0219 -0.3042 -0.2189
 1530SOL    HW1 6597   6.648  10.208   9.368 -0.4117 -0.7491  0.4620
 1530SOL    HW2 6598   6.517  10.201   9.443 -0.8708 -0.5640 -0.3025
 1531SOL     OW 6599   2.467   8.758  10.250 -0.6298 -0.2997 -0.4864
 1531SOL    HW1 6600   2.533   8.749  10.181 -1.3364 -1.9613 -1.0065
 1531SOL    HW2 6601   2.439   8.849  10.245  1.4230  0.4065 -0.4027
 1532SOL     OW 6602   0.539   6.909   8.481 -0.1404  0.6102 -0.3672
 1532SOL    HW1 6603   0.509   6.971   8.547  0.3775 -0.5917  1.0396
 1532SOL    HW2 6604   0.479   6.835   8.487 -0.0799  0.4739 -1.2456
 1533SOL     OW 6605   3.305   7.439  10.520  0.1056  0.8283  0.9232
 1533SOL    HW1 6606   3.311   7.417  10.427  1.7546  2.2512  0.6310
 1533SOL    HW2 6607   3.296   7.534  10.522 -1.3929  0.7009  2.2187
 1534SOL     OW 6608   0.249   3.833  10.059  0.5284  0.8100  0.0971
 1534SOL    HW1 6609   0.305   3.797  10.127  5.4414  1.9161 -2.8738
 1534SOL    HW2 6610   0.271   3.926  10.055 -1.5416  1.3370 -1.3512
 1535SOL     OW 6611   8.469   7.980   5.731  0.0704  0.0924  0.7110
 1535SOL    HW1 6612   8.488   7.948   5.643 -0.8092  0.2895  0.4334
 1535SOL    HW2 6613   8.533   8.049   5.746  0.0490  0.2478  0.1077
 1536SOL     OW 6614   9.954   0.624   7.865  0.1906 -0.1940  0.3168
 1536SOL    HW1 6615  10.015   0.690   7.900  0.6355  0.7853 -2.0843
 1536SOL    HW2 6616   9.983   0.542   7.904  1.6350  0.5897  0.9794
 1537SOL     OW 6617   2.346   2.403   5.533 -0.6656 -0.3724 -0.1730
 1537SOL    HW1 6618   2.294   2.333   5.573  0.1941 -0.9605 -0.0516
 1537SOL    HW2 6619   2.323   2.481   5.583 -1.5085 -0.5913 -0.1941
 1538SOL     OW 6620   0.094   8.419   1.431 -0.6405 -0.2795  0.0029
 1538SOL    HW1 6621   0.003   8.447   1.428 -0.9129 -0.9553  1.1643
 1538SOL    HW2 6622   0.089   8.323   1.439  0.2056 -0.4549 -1.2367
 1539SOL     OW 6623   5.507  10.785   0.533 -0.2667  0.2479  0.6680
 1539SOL    HW1 6624   5.440  10.717   0.549 -0.7946  0.4336 -0.6242
 1539SOL    HW2 6625   5.462  10.867   0.551 -0.1777  0.3343  0.4966
 1540SOL     OW 6626   5.375   7.492  11.033 -0.1593 -0.0914  0.0461
 1540SOL    HW1 6627   5.469   7.481  11.050 -0.3518  0.5105  1.6483
 1540SOL    HW2 6628   5.353   7.423  10.971  1.2611 -0.4727 -0.0630
 1541SOL     OW 6629   0.176   0.394   0.237 -0.1543  0.0250  0.3160
 1541SOL    HW1 6630   0.241   0.327   0.257  0.4491  0.4393 -0.2076
 1541SOL    HW2 6631   0.197   0.467   0.295  0.6444  0.6365 -0.6980
 1542SOL     OW 6632   5.382   1.187   2.799  0.1216  0.1429 -0.1339
 1542SOL    HW1 6633   5.420   1.120   2.855  1.0940  0.8984  0.1516
 1542SOL    HW2 6634   5.306   1.146   2.759  0.7825 -1.1699 -0.0759
 1543SOL     OW 6635   2.116   9.148   0.156  0.9690 -0.5030 -0.3654
 1543SOL    HW1 6636   2.138   9.057   0.136  3.3526 -0.1412  0.1834
 1543SOL    HW2 6637   2.056   9.174   0.087  1.1829 -2.1366 -1.2371
 1544SOL     OW 6638   1.706   5.851   9.396  0.2287 -0.4483 -0.0052
 1544SOL    HW1 6639   1.644   5.845   9.469  1.6511  0.3077  1.3237
 1544SOL    HW2 6640   1.711   5.762   9.361 -1.1476 -0.6365  0.2215
 1545SOL     OW 6641   0.774  10.397   3.662 -0.5407 -0.0161  0.2162
 1545SOL    HW1 6642   0.765  10.477   3.610  2.5556  0.9701  0.9808
 1545SOL    HW2 6643   0.711  10.407   3.734 -4.2982 -1.0198 -2.5794
 1546SOL     OW 6644   6.401   7.220  10.464  0.0375 -0.1174  0.1171
 1546SOL    HW1 6645   6.402   7.182  10.376 -0.0850 -0.5772  0.3114
 1546SOL    HW2 6646   6.397   7.144  10.523  1.2859  0.1428  0.5563
 1547SOL     OW 6647   3.269   8.875   7.638 -0.3779  0.3227  0.5109
 1547SOL    HW1 6648   3.221   8.956   7.630  0.5515  0.7585 -1.2348
 1547SOL    HW2 6649   3.352   8.900   7.679 -0.4934  0.0760  0.8993
 1548SOL     OW 6650   4.373   3.141  10.824  0.0626  0.1887 -0.2530
 1548SOL    HW1 6651   4.334   3.213  10.774  0.9081  0.4929 -0.4889
 1548SOL    HW2 6652   4.430   3.096  10.761  0.6231  0.1724  0.2538
 1549SOL     OW 6653   1.924   1.490   1.563 -0.2078  0.1234 -0.2528
 1549SOL    HW1 6654   1.943   1.516   1.653 -0.9830 -1.4400  0.3889
 1549SOL    HW2 6655   1.836   1.455   1.566  1.1142 -3.6712 -0.7545
 1550SOL     OW 6656   4.514  10.559   1.147 -0.1713  0.0524 -0.2835
 1550SOL    HW1 6657   4.495  10.619   1.075  0.2849  0.0933 -0.3769
 1550SOL    HW2 6658   4.489  10.473   1.115  0.6413 -0.0268 -0.7520
 1551SOL     OW 6659   4.556   3.422   5.521 -0.2867  0.7306 -0.8835
 1551SOL    HW1 6660   4.542   3.496   5.580 -1.8751  0.0629 -0.3560
 1551SOL    HW2 6661   4.624   3.369   5.564 -2.3283 -0.4365  1.1347
 1552SOL     OW 6662  10.294   3.885   0.210  0.1422  0.5197 -0.2635
 1552SOL    HW1 6663  10.382   3.903   0.246 -0.2172  1.4180  0.2106
 1552SOL    HW2 6664  10.237   3.885   0.287 -0.2286 -0.4046 -0.5336
 1553SOL     OW 6665  10.800   9.396   5.453  0.4369  0.5750  0.3938
 1553SOL    HW1 6666  10.886   9.354   5.459  0.8098  1.2123 -0.3422
 1553SOL    HW2 6667  10.810   9.462   5.384 -0.0550  2.0586  1.6816
 1554SOL     OW 6668   1.321  11.013  10.271 -0.2694  0.6745 -0.3556
 1554SOL    HW1 6669   1.402  10.966  10.254 -1.5820 -1.7958 -0.2951
 1554SOL    HW2 6670   1.328  11.042  10.362  0.0546 -0.6312  0.0512
 1555SOL     OW 6671  11.122   2.876   5.274 -0.0794 -0.1463 -0.3247
 1555SOL    HW1 6672  11.090   2.785   5.274 -1.9538  0.4387 -1.9152
 1555SOL    HW2 6673  11.161   2.886   5.187  1.0326  0.2953  0.2197
 1556SOL     OW 6674   2.651   6.007   4.113  0.1990  0.2389  0.3068
 1556SOL    HW1 6675   2.636   6.043   4.200  1.6256  1.2909  0.1553
 1556SOL    HW2 6676   2.563   5.991   4.078 -0.4341  1.3767  1.2994
 1557SOL     OW 6677   1.776   8.216  10.136  0.8513  0.2563  0.0667
 1557SOL    HW1 6678   1.832   8.292  10.119  0.8506  0.3334  0.3978
 1557SOL    HW2 6679   1.765   8.216  10.231 -1.3460  1.4119 -0.1301
 1558SOL     OW 6680   4.625   8.752   2.151 -0.4721 -0.4242 -0.2276
 1558SOL    HW1 6681   4.654   8.840   2.176 -1.6797 -0.4651  1.4690
 1558SOL    HW2 6682   4.530   8.760   2.142 -0.5669 -1.5157 -0.2917
 1559SOL     OW 6683   2.638   0.604   8.044  0.2969  0.5305  0.2384
 1559SOL    HW1 6684   2.554   0.563   8.023  0.3433  0.7144 -0.3267
 1559SOL    HW2 6685   2.651   0.669   7.974  0.6929  0.8156  0.5720
 1560SOL     OW 6686   6.433   2.150   3.822  0.4301  0.6002  0.4629
 1560SOL    HW1 6687   6.409   2.133   3.731 -0.7413  0.0693  0.8575
 1560SOL    HW2 6688   6.523   2.119   3.829 -0.8812 -3.8522  0.6217
 1561SOL     OW 6689   7.252   5.497   7.295 -0.4520 -0.1594 -0.1765
 1561SOL    HW1 6690   7.285   5.496   7.385  0.0312  1.1821 -0.3185
 1561SOL    HW2 6691   7.326   5.470   7.242 -1.6044 -4.2686 -0.0010
 1562SOL     OW 6692   4.783  10.498   3.230  0.8202 -0.9275  0.1579
 1562SOL    HW1 6693   4.853  10.549   3.269  0.4741 -0.3097 -0.0111
 1562SOL    HW2 6694   4.827  10.442   3.166  1.6140 -3.2062  2.5766
 1563SOL     OW 6695   9.981  10.611   0.496 -0.0477  0.4159  0.7357
 1563SOL    HW1 6696   9.945  10.529   0.463 -1.6312 -0.0616  3.3785
 1563SOL    HW2 6697  10.002  10.661   0.417  0.9984 -2.4751 -0.9832
 1564SOL     OW 6698   5.625   8.371   5.917  0.0831  0.1310 -0.0926
 1564SOL    HW1 6699   5.682   8.300   5.947 -0.4011  0.3498  1.4581
 1564SOL    HW2 6700   5.543   8.328   5.894  1.2227 -0.4114 -3.8725
 1565SOL     OW 6701   6.741  10.314   7.675 -0.8556  0.2740 -0.4865
 1565SOL    HW1 6702   6.789  10.335   7.755 -1.8565 -1.2940  0.5686
 1565SOL    HW2 6703   6.804  10.268   7.620 -0.8366 -0.8628  0.4636
 1566SOL     OW 6704   7.424   0.329   2.962 -0.3206  0.4587 -0.6845
 1566SOL    HW1 6705   7.473   0.278   2.897  0.8515 -0.2512  0.7081
 1566SOL    HW2 6706   7.459   0.302   3.046 -2.7620  0.3187  0.3797
 1567SOL     OW 6707   6.600   8.444  10.633  0.0258 -0.2932 -0.3830
 1567SOL    HW1 6708   6.607   8.442  10.538 -0.1242 -0.0462 -0.4007
 1567SOL    HW2 6709   6.507   8.430  10.651  0.4045 -3.0231 -0.1687
 1568SOL     OW 6710   8.653  11.180   7.311  0.4417 -0.0332 -0.2073
 1568SOL    HW1 6711   8.706  11.193   7.390  0.5599 -0.5226 -0.2021
 1568SOL    HW2 6712   8.583  11.245   7.318  0.2693 -0.2850  0.4566
 1569SOL     OW 6713   6.790   5.120   8.369  0.9191  0.3647 -1.1792
 1569SOL    HW1 6714   6.703   5.158   8.382  2.2179  2.6889  2.0083
 1569SOL    HW2 6715   6.780   5.028   8.394 -0.6692  0.5555 -1.0233
 1570SOL     OW 6716   7.248   9.576   0.661  0.3184 -0.0632  0.5663
 1570SOL    HW1 6717   7.336   9.545   0.681  0.0421  0.1013  2.2197
 1570SOL    HW2 6718   7.215   9.609   0.745 -1.0305  0.5946 -0.1885
 1571SOL     OW 6719   0.586   0.206   2.849 -0.5836 -0.1666  0.3408
 1571SOL    HW1 6720   0.659   0.177   2.904 -1.4055  1.5432  2.4545
 1571SOL    HW2 6721   0.628   0.246   2.773  0.5936 -2.2181 -0.1555
 1572SOL     OW 6722   8.700   6.177   2.550  0.1071 -0.0427  0.1013
 1572SOL    HW1 6723   8.612   6.195   2.517 -0.1900 -1.0257  0.3336
 1572SOL    HW2 6724   8.750   6.256   2.530 -0.9951  0.7842  0.5716
 1573SOL     OW 6725   9.061  10.844   4.672  0.5753  0.7294  0.2771
 1573SOL    HW1 6726   9.088  10.755   4.693  0.2218  0.6790  0.5198
 1573SOL    HW2 6727   9.106  10.864   4.589 -1.1132 -0.4976 -1.0035
 1574SOL     OW 6728   6.851   6.098  10.622 -0.4867 -0.5982  0.4085
 1574SOL    HW1 6729   6.942   6.122  10.641 -0.6434 -1.4617  2.4403
 1574SOL    HW2 6730   6.844   6.007  10.649 -1.8759 -0.6630 -0.1050
 1575SOL     OW 6731   9.257   9.365   0.931  0.2735  0.2448  0.0184
 1575SOL    HW1 6732   9.277   9.308   1.005 -1.3973  1.0138  1.1068
 1575SOL    HW2 6733   9.235   9.305   0.860 -2.6619 -0.6016  1.4693
 1576SOL     OW 6734   6.106  10.340   4.359 -0.3819 -0.3533 -0.3082
 1576SOL    HW1 6735   6.128  10.246   4.362 -0.2746 -0.4377 -2.1414
 1576SOL    HW2 6736   6.017  10.342   4.324 -0.3912  0.2163 -0.2503
 1577SOL     OW 6737   3.859   0.805   9.083 -0.5860  0.4542  0.0848
 1577SOL    HW1 6738   3.778   0.784   9.131  0.1710 -1.6183  0.6015
 1577SOL    HW2 6739   3.882   0.723   9.039  0.3914  1.4664 -1.3660
 1578SOL     OW 6740   2.292   3.872   9.341 -0.2312  0.2326 -0.5013
 1578SOL    HW1 6741   2.360   3.846   9.278  0.4095  0.8934 -0.1012
 1578SOL    HW2 6742   2.230   3.923   9.290  0.2174  0.6575 -0.6353
 1579SOL     OW 6743   7.074  11.250  11.078 -0.1615  0.6458 -0.5506
 1579SOL    HW1 6744   6.980  11.236  11.061 -0.4190  0.8087  0.6262
 1579SOL    HW2 6745   7.077  11.328  11.133  0.5605 -0.0219  0.3972
 1580SOL     OW 6746   8.582   9.251   4.643  0.4614  0.1303  0.2289
 1580SOL    HW1 6747   8.575   9.201   4.561 -1.1399 -3.9881  2.5928
 1580SOL    HW2 6748   8.676   9.264   4.655  0.8096 -0.5001 -1.5245
 1581SOL     OW 6749  10.259   5.035   0.902  0.2468 -0.1492  0.0176
 1581SOL    HW1 6750  10.223   5.099   0.964 -1.9950 -0.4734 -0.8544
 1581SOL    HW2 6751  10.200   4.960   0.909 -0.9218  0.2928 -3.3748
 1582SOL     OW 6752   6.697   7.649   4.696  0.3861  0.3099 -0.2531
 1582SOL    HW1 6753   6.609   7.670   4.664  1.0631  2.1356 -1.0756
 1582SOL    HW2 6754   6.702   7.690   4.782 -0.0930 -1.2117  0.5290
 1583SOL     OW 6755   0.024   7.448   6.218 -0.1312 -0.3316 -0.4712
 1583SOL    HW1 6756  -0.053   7.458   6.163 -1.1056 -0.9557  0.7425
 1583SOL    HW2 6757   0.093   7.417   6.159 -0.9673 -0.3504 -1.4457
 1584SOL     OW 6758  11.098   8.574   0.269 -0.0401 -0.3650  0.1836
 1584SOL    HW1 6759  11.031   8.511   0.295 -0.4346 -0.0852 -0.1455
 1584SOL    HW2 6760  11.128   8.612   0.352 -0.0141 -0.7667  0.3600
 1585SOL     OW 6761   9.210   8.481   1.781 -0.5304 -0.3197  0.9943
 1585SOL    HW1 6762   9.304   8.467   1.790 -0.2838  1.3167  1.2069
 1585SOL    HW2 6763   9.185   8.532   1.858 -1.7651 -1.4399  1.3668
 1586SOL     OW 6764  11.068   4.849   5.158 -0.3335 -0.1054  0.2578
 1586SOL    HW1 6765  11.055   4.789   5.232 -0.5693 -1.6890 -1.0049
 1586SOL    HW2 6766  11.055   4.794   5.080 -1.8080  1.8824 -0.9805
 1587SOL     OW 6767   4.385   0.361   8.232 -0.6007  0.3091  0.4057
 1587SOL    HW1 6768   4.386   0.363   8.136 -1.2634  1.4497  0.3998
 1587SOL    HW2 6769   4.457   0.419   8.258 -0.4032 -0.0228  0.5967
 1588SOL     OW 6770  10.914   4.425   3.747  0.0795 -0.1273  0.1571
 1588SOL    HW1 6771  10.833   4.420   3.696 -0.1480 -1.0132  0.5835
 1588SOL    HW2 6772  10.936   4.518   3.748 -0.7296  0.0787 -0.2812
 1589SOL     OW 6773   8.905   0.622   9.604 -0.2525  0.1353 -0.2232
 1589SOL    HW1 6774   8.835   0.623   9.669 -0.0380  2.4133  0.0501
 1589SOL    HW2 6775   8.873   0.676   9.532  0.9954  0.8162 -0.3073
 1590SOL     OW 6776   3.365   3.938   5.949 -0.4954  0.7869  0.2063
 1590SOL    HW1 6777   3.320   4.009   5.993 -1.3040 -0.8879  2.2391
 1590SOL    HW2 6778   3.319   3.859   5.977  1.2706 -0.6681 -0.7786
 1591SOL     OW 6779   7.379   4.234   8.221  0.4133  0.1876  0.2354
 1591SOL    HW1 6780   7.292   4.257   8.254 -0.3116 -0.1990 -1.2926
 1591SOL    HW2 6781   7.376   4.140   8.208  0.5277  0.3643 -1.2176
 1592SOL     OW 6782   4.661   0.479   7.495 -0.0214 -0.5198 -0.2476
 1592SOL    HW1 6783   4.658   0.501   7.588  0.7934 -0.9188 -0.1261
 1592SOL    HW2 6784   4.577   0.510   7.461 -0.3510 -0.4261  0.6287
 1593SOL     OW 6785   7.242   0.178   6.365 -0.5145  0.5739 -0.8624
 1593SOL    HW1 6786   7.259   0.121   6.290 -1.7825  0.3917 -1.0229
 1593SOL    HW2 6787   7.327   0.183   6.410 -0.4628 -1.8435 -0.5683
 1594SOL     OW 6788   1.969  10.813   2.048  0.2617 -0.4001 -0.0681
 1594SOL    HW1 6789   2.031  10.860   2.103  0.1140 -0.1668 -0.0985
 1594SOL    HW2 6790   1.933  10.745   2.104  0.9282 -0.8666 -0.2040
 1595SOL     OW 6791   5.567  11.219   6.586 -0.6898 -0.1133 -0.0692
 1595SOL    HW1 6792   5.638  11.280   6.607 -0.0793 -1.3391  1.6912
 1595SOL    HW2 6793   5.591  11.182   6.501 -0.9747  1.8921 -1.0749
 1596SOL     OW 6794   2.808   1.592   6.871  0.5062  0.0620 -0.1324
 1596SOL    HW1 6795   2.880   1.618   6.928  0.5789  0.4305 -0.3929
 1596SOL    HW2 6796   2.831   1.504   6.842  0.4634 -0.1365  0.4105
 1597SOL     OW 6797   6.727   2.418   5.281 -0.5418 -0.6659 -0.8088
 1597SOL    HW1 6798   6.717   2.503   5.239 -0.6597  1.3083  2.7361
 1597SOL    HW2 6799   6.820   2.411   5.301 -0.7957 -0.4187  0.5688
 1598SOL     OW 6800   9.630   5.464   6.950  0.6511 -0.9700 -0.3621
 1598SOL    HW1 6801   9.659   5.426   6.867  1.0824  0.9609 -1.1571
 1598SOL    HW2 6802   9.535   5.454   6.949  0.8381 -3.2636  0.1461
 1599SOL     OW 6803   5.717   3.425   6.982 -0.0413 -0.0663  0.5280
 1599SOL    HW1 6804   5.635   3.455   7.021  0.4952  2.0073  0.1570
 1599SOL    HW2 6805   5.691   3.390   6.896 -0.7018 -0.8384  1.0276
 1600SOL     OW 6806   5.597   4.635   9.630 -0.2175  0.8547 -0.1787
 1600SOL    HW1 6807   5.631   4.553   9.666 -0.9183  0.3642 -0.6174
 1600SOL    HW2 6808   5.572   4.614   9.541 -2.6267  0.9223  0.4245
 1601SOL     OW 6809   8.593   2.340   8.998 -0.3973 -0.4622  0.5621
 1601SOL    HW1 6810   8.608   2.429   9.031  2.1452 -0.7899  0.4569
 1601SOL    HW2 6811   8.503   2.320   9.023 -0.8375  1.9218  1.0857
 1602SOL     OW 6812   3.620  10.484   9.543  0.9488  0.1998 -0.4406
 1602SOL    HW1 6813   3.618  10.571   9.503 -2.3054 -0.4101 -1.8688
 1602SOL    HW2 6814   3.690  10.439   9.496  0.7972  1.1861 -1.6973
 1603SOL     OW 6815  11.003   5.117   9.560 -0.2213  0.4363 -0.0163
 1603SOL    HW1 6816  11.062   5.070   9.500  0.3511  0.6688  0.3563
 1603SOL    HW2 6817  11.056   5.133   9.638  0.0708  2.9461 -0.6681
 1604SOL     OW 6818  10.215   7.107   8.203 -0.1097 -0.1530  0.1399
 1604SOL    HW1 6819  10.286   7.079   8.144 -0.7737 -1.6240 -0.0075
 1604SOL    HW2 6820  10.148   7.039   8.194 -1.6178  1.2636  0.1894
 1605SOL     OW 6821   6.339   6.026  10.461 -0.0006  1.1477 -0.0594
 1605SOL    HW1 6822   6.340   6.114  10.423 -0.3146  1.0171 -0.3795
 1605SOL    HW2 6823   6.431   6.005  10.475  0.0506  2.5496  2.4586
 1606SOL     OW 6824   9.378   8.041   4.145  0.2298 -0.2686 -0.2765
 1606SOL    HW1 6825   9.409   7.988   4.218  0.2371 -0.4046 -0.3797
 1606SOL    HW2 6826   9.298   7.999   4.116  0.1426 -0.1260 -0.2467
 1607SOL     OW 6827   9.050  10.482   7.378  0.0250 -0.2697 -0.6011
 1607SOL    HW1 6828   9.066  10.443   7.292  2.0075  0.1769 -0.4920
 1607SOL    HW2 6829   9.022  10.409   7.433 -2.6546 -0.3359 -1.8841
 1608SOL     OW 6830   5.729   7.226   0.132 -0.2869 -0.0519  0.3255
 1608SOL    HW1 6831   5.729   7.220   0.227  0.5380 -1.3569  0.2842
 1608SOL    HW2 6832   5.808   7.276   0.111  1.4623 -2.6409  0.2866
 1609SOL     OW 6833  10.579   7.752   6.777  0.3656 -0.5603 -0.0607
 1609SOL    HW1 6834  10.539   7.665   6.783 -0.0172 -0.4327 -0.6769
 1609SOL    HW2 6835  10.655   7.748   6.835  1.2915 -1.8322 -1.2840
 1610SOL     OW 6836  10.670  11.005   1.315  0.2645  0.0157 -0.4374
 1610SOL    HW1 6837  10.711  10.954   1.245 -0.9121  1.0832 -1.9749
 1610SOL    HW2 6838  10.594  10.954   1.340  2.7925 -2.4665  3.1085
 1611SOL     OW 6839   1.929   8.344   2.528  0.3415  0.1728 -0.5095
 1611SOL    HW1 6840   1.849   8.383   2.493  1.1758  0.5683 -2.0638
 1611SOL    HW2 6841   1.951   8.275   2.466  1.2422  0.1111 -0.1354
 1612SOL     OW 6842   1.516   2.547  10.236  0.5666 -0.2195  0.6990
 1612SOL    HW1 6843   1.585   2.612  10.250  0.7750 -0.5769  1.3764
 1612SOL    HW2 6844   1.545   2.470  10.284 -0.7616 -0.0460  1.8636
 1613SOL     OW 6845   9.273   5.289   7.795  0.4036  0.5562  0.4470
 1613SOL    HW1 6846   9.182   5.282   7.823  0.2414 -0.2781 -0.2561
 1613SOL    HW2 6847   9.293   5.204   7.756  1.4628  0.7574  0.5214
 1614SOL     OW 6848   1.578   8.429   8.334  0.6889 -0.1606  0.5873
 1614SOL    HW1 6849   1.612   8.463   8.251  0.2357 -1.2474 -0.0625
 1614SOL    HW2 6850   1.627   8.348   8.349 -1.5099 -1.7553 -0.3648
 1615SOL     OW 6851   2.290   7.555  10.719  0.0815 -0.5916  0.2084
 1615SOL    HW1 6852   2.376   7.591  10.741 -0.1151 -0.4569  0.7648
 1615SOL    HW2 6853   2.291   7.466  10.755  0.1246 -0.7252 -0.1171
 1616SOL     OW 6854   6.740   4.627   6.084 -0.5212  0.0931  0.6317
 1616SOL    HW1 6855   6.708   4.537   6.087 -1.9487  0.4757 -1.2755
 1616SOL    HW2 6856   6.812   4.625   6.021  1.6435 -0.2450  2.9452
 1617SOL     OW 6857   0.410   1.936   1.401  0.3043  0.0570 -0.1608
 1617SOL    HW1 6858   0.413   1.911   1.493 -0.7557  1.6961  0.3692
 1617SOL    HW2 6859   0.352   2.012   1.399 -0.4171 -0.4771 -2.3108
 1618SOL     OW 6860   4.024   7.160   3.411 -0.6998  0.5446  0.0192
 1618SOL    HW1 6861   4.057   7.250   3.412 -0.2062  0.3951 -1.0682
 1618SOL    HW2 6862   3.968   7.154   3.488 -0.2211  1.5879  0.4701
 1619SOL     OW 6863  11.241   5.147   8.004  0.0428  0.2087 -0.2262
 1619SOL    HW1 6864  11.168   5.085   8.012  1.7849 -1.7614  1.8325
 1619SOL    HW2 6865  11.227   5.209   8.076  1.0487 -0.9639  1.0132
 1620SOL     OW 6866   5.724   5.113   3.169 -0.3921 -0.2191  0.1837
 1620SOL    HW1 6867   5.767   5.029   3.156  2.7634  0.9986  1.7104
 1620SOL    HW2 6868   5.737   5.133   3.262 -1.3515  1.7784 -0.0512
 1621SOL     OW 6869   3.914   9.814   7.536 -0.0079 -0.4612 -0.9161
 1621SOL    HW1 6870   3.835   9.769   7.564  2.1182 -2.6262  2.4403
 1621SOL    HW2 6871   3.947   9.856   7.616  2.3159  0.1582 -2.0979
 1622SOL     OW 6872   1.548   5.511   7.002 -0.2888 -0.9129 -0.4162
 1622SOL    HW1 6873   1.589   5.596   7.019 -2.1834  0.0820 -0.6206
 1622SOL    HW2 6874   1.574   5.458   7.077 -0.1444  0.2583  0.4009
 1623SOL     OW 6875   0.320   0.732  10.851  0.3214 -0.2595  0.1313
 1623SOL    HW1 6876   0.335   0.656  10.907 -1.0432 -1.0117 -0.4797
 1623SOL    HW2 6877   0.230   0.759  10.871  0.0473 -0.1360 -1.1938
 1624SOL     OW 6878   8.519   0.409   2.562  0.1562 -0.1183 -0.8492
 1624SOL    HW1 6879   8.528   0.324   2.519 -0.9010 -0.2919 -0.7465
 1624SOL    HW2 6880   8.584   0.407   2.632  0.5553 -0.6007 -1.2269
 1625SOL     OW 6881  10.393   4.387   5.248  0.1730  0.9786  0.5153
 1625SOL    HW1 6882  10.378   4.479   5.270  1.4600  1.1107  0.8932
 1625SOL    HW2 6883  10.443   4.352   5.322 -4.5713 -1.4480  3.0685
 1626SOL     OW 6884   8.391   0.237   4.898  0.0271  0.5307 -0.2249
 1626SOL    HW1 6885   8.461   0.300   4.917  0.6487  0.1212 -1.0549
 1626SOL    HW2 6886   8.319   0.290   4.866  0.4523  0.8548 -0.6636
 1627SOL     OW 6887   5.805   4.786   6.576 -0.3971 -0.1623  0.1324
 1627SOL    HW1 6888   5.878   4.735   6.610 -0.6714 -0.9031 -0.3558
 1627SOL    HW2 6889   5.776   4.839   6.650 -1.6717 -2.5177  1.4509
 1628SOL     OW 6890   1.672  10.694  10.794 -0.0493  0.4934  0.0133
 1628SOL    HW1 6891   1.645  10.643  10.870  2.1475 -0.2328  0.3804
 1628SOL    HW2 6892   1.607  10.764  10.788 -0.4909  0.3771  2.3380
 1629SOL     OW 6893   5.883   0.460  10.130 -0.3075  0.4584  0.3132
 1629SOL    HW1 6894   5.897   0.377  10.084  0.5831  0.4176  0.6418
 1629SOL    HW2 6895   5.788   0.470  10.132 -0.4617 -0.9115  0.8946
 1630SOL     OW 6896   9.349   9.137   8.574 -0.5433  0.4403  0.2611
 1630SOL    HW1 6897   9.378   9.058   8.620 -0.2776 -0.1512 -0.8745
 1630SOL    HW2 6898   9.319   9.105   8.489 -0.6286  1.5447 -0.1370
 1631SOL     OW 6899   3.137   0.466   9.767  0.4436  0.0338 -0.1676
 1631SOL    HW1 6900   3.059   0.410   9.769  0.0331  0.5728  2.4521
 1631SOL    HW2 6901   3.102   0.555   9.769  1.1410  0.3155 -0.3750
 1632SOL     OW 6902   9.319   5.877   9.925 -1.0259  0.0121  0.2071
 1632SOL    HW1 6903   9.272   5.804   9.885 -1.4189  1.1260 -1.4509
 1632SOL    HW2 6904   9.412   5.856   9.914 -1.1373 -0.1286 -0.4855
 1633SOL     OW 6905   6.019   7.116   4.391 -0.1214  0.6345  0.6314
 1633SOL    HW1 6906   5.969   7.096   4.470  0.5247 -1.4359  0.5662
 1633SOL    HW2 6907   6.107   7.138   4.423  0.0978 -0.0522  0.5232
 1634SOL     OW 6908  10.300   4.937   5.725  0.4459 -0.1541 -0.3332
 1634SOL    HW1 6909  10.285   4.905   5.636 -0.5542  0.4475 -0.3998
 1634SOL    HW2 6910  10.388   4.908   5.747  0.1766 -1.5352 -0.9828
 1635SOL     OW 6911   5.626   5.920   0.982 -0.3931  0.1167 -0.8802
 1635SOL    HW1 6912   5.698   5.863   1.008 -1.1434 -0.1728  0.6630
 1635SOL    HW2 6913   5.595   5.884   0.899 -0.1520 -1.0473 -0.4781
 1636SOL     OW 6914   7.413   7.767   4.007 -0.1798 -0.0658  0.0708
 1636SOL    HW1 6915   7.368   7.687   3.979  0.2609  0.7464 -3.4307
 1636SOL    HW2 6916   7.371   7.837   3.957  2.4890  1.2102 -0.5751
 1637SOL     OW 6917   1.567   9.775   2.195 -0.0890  0.2610 -0.2554
 1637SOL    HW1 6918   1.627   9.711   2.155 -0.3764 -0.4166  0.3792
 1637SOL    HW2 6919   1.561   9.845   2.130  1.1418  0.1913 -0.4691
 1638SOL     OW 6920   5.063   5.409   6.063 -0.5894 -0.3974 -0.2032
 1638SOL    HW1 6921   5.131   5.389   5.998  0.1565 -2.5669  1.1418
 1638SOL    HW2 6922   5.085   5.496   6.095  1.0544 -0.6836 -0.4656
 1639SOL     OW 6923   5.765  10.265   8.488 -0.1786  0.4232  0.8549
 1639SOL    HW1 6924   5.685  10.316   8.470 -0.7393 -0.6432  0.2382
 1639SOL    HW2 6925   5.831  10.306   8.432 -0.7778  0.0907 -0.1308
 1640SOL     OW 6926   4.679   3.616   7.575 -0.0704 -0.3488  0.5143
 1640SOL    HW1 6927   4.598   3.654   7.607 -0.8481 -0.0155 -1.6336
 1640SOL    HW2 6928   4.707   3.675   7.505  0.9932 -1.4577 -0.0357
 1641SOL     OW 6929   5.253   9.179   4.258  0.1318 -0.3930 -0.5899
 1641SOL    HW1 6930   5.206   9.257   4.233  1.2230 -0.5152 -3.3734
 1641SOL    HW2 6931   5.211   9.108   4.209  0.9772 -1.0533 -0.3959
 1642SOL     OW 6932   7.518  10.799   2.752 -0.0476 -0.6147  0.5044
 1642SOL    HW1 6933   7.444  10.858   2.768  1.6208  1.7743  0.0275
 1642SOL    HW2 6934   7.528  10.798   2.657  0.1933 -1.3685  0.5340
 1643SOL     OW 6935   2.071   2.062   2.428 -0.9144  0.6857  0.4273
 1643SOL    HW1 6936   2.032   1.987   2.474 -1.9603  1.7047  1.2712
 1643SOL    HW2 6937   2.148   2.084   2.480  1.9742 -2.3140 -2.0942
 1644SOL     OW 6938   4.743  10.614   4.504 -0.4118 -0.4749 -0.1802
 1644SOL    HW1 6939   4.718  10.664   4.427 -1.1972  2.0714  1.6094
 1644SOL    HW2 6940   4.838  10.620   4.508 -0.4825  0.7228 -0.1172
 1645SOL     OW 6941   3.905   2.125   8.935 -0.4021  0.1352  0.1863
 1645SOL    HW1 6942   3.894   2.035   8.903  1.2679  0.0677 -0.3117
 1645SOL    HW2 6943   3.828   2.171   8.903 -0.6367 -0.8276 -0.7084
 1646SOL     OW 6944   2.732   3.751   0.097 -0.0222 -0.2953  0.1710
 1646SOL    HW1 6945   2.775   3.749   0.012 -2.9996  0.7867 -1.5182
 1646SOL    HW2 6946   2.697   3.662   0.107 -1.2201  0.0533 -0.6769
 1647SOL     OW 6947   7.074   2.331   5.969 -0.1451 -0.0436 -0.0887
 1647SOL    HW1 6948   7.107   2.299   6.053 -0.6017  0.5132  0.3166
 1647SOL    HW2 6949   7.021   2.260   5.935 -1.2681  0.3117  0.8652
 1648SOL     OW 6950   9.751   0.816   4.584  0.7215  0.0958  0.6177
 1648SOL    HW1 6951   9.656   0.820   4.571  0.8082 -1.3474 -0.9000
 1648SOL    HW2 6952   9.766   0.860   4.667 -0.9631  2.7672 -0.3760
 1649SOL     OW 6953   3.638  11.175   1.004  0.3568  0.4786  1.5049
 1649SOL    HW1 6954   3.701  11.248   0.999  2.0333 -0.9615  0.0006
 1649SOL    HW2 6955   3.688  11.099   0.975 -1.4408 -1.2373  2.6703
 1650SOL     OW 6956   1.733   4.902   1.489  0.0790 -0.8683 -0.0865
 1650SOL    HW1 6957   1.750   4.928   1.399  0.6481  1.4416  0.6128
 1650SOL    HW2 6958   1.646   4.936   1.508  1.0260  1.1679  0.9968
 1651SOL     OW 6959   2.576   2.146   9.493 -0.1510 -0.2154  0.5541
 1651SOL    HW1 6960   2.618   2.066   9.463  2.8989  1.8995 -1.4526
 1651SOL    HW2 6961   2.527   2.178   9.418 -0.2556  0.4363  0.8889
 1652SOL     OW 6962   8.201  11.155   0.105 -0.6254  0.2439 -0.5052
 1652SOL    HW1 6963   8.286  11.114   0.088  0.6717  1.6947  1.9581
 1652SOL    HW2 6964   8.149  11.085   0.144  1.0321  0.3884  2.1836
 1653SOL     OW 6965   4.851   6.837   8.426  0.1284 -1.0677  0.1768
 1653SOL    HW1 6966   4.911   6.911   8.439  0.5491 -1.5054  0.8119
 1653SOL    HW2 6967   4.853   6.790   8.510  0.3466 -2.1344 -0.4166
 1654SOL     OW 6968   1.669   3.699   7.338  0.0361  0.5544 -0.4546
 1654SOL    HW1 6969   1.764   3.691   7.345 -0.0171  0.6312  0.6622
 1654SOL    HW2 6970   1.655   3.764   7.269  0.7575 -0.2078 -1.3362
 1655SOL     OW 6971   1.757   4.153  10.865  0.2606  0.7795  0.1886
 1655SOL    HW1 6972   1.826   4.148  10.799 -1.4066  2.6822 -1.8717
 1655SOL    HW2 6973   1.735   4.246  10.869 -1.2527  0.4037  1.7929
 1656SOL     OW 6974   1.665   7.623   6.314 -0.5111 -0.0173 -0.2019
 1656SOL    HW1 6975   1.742   7.680   6.307  0.1422 -0.7375  0.8504
 1656SOL    HW2 6976   1.615   7.659   6.387 -0.9722  0.2060 -0.6225
 1657SOL     OW 6977   8.276   2.025   1.570  0.2065  0.1103 -0.2246
 1657SOL    HW1 6978   8.356   2.076   1.560  1.1269 -0.7359  2.1270
 1657SOL    HW2 6979   8.236   2.059   1.650  0.2643 -2.0206  0.7734
 1658SOL     OW 6980   2.897  10.250   4.104  0.1898  0.6202  0.6693
 1658SOL    HW1 6981   2.957  10.312   4.144 -0.1763  1.0109  0.6197
 1658SOL    HW2 6982   2.810  10.285   4.123  0.0034  0.8239 -0.4735
 1659SOL     OW 6983   2.779   7.847   2.143  0.1805 -0.1556 -0.2766
 1659SOL    HW1 6984   2.812   7.765   2.106  0.0021 -0.5918  0.4934
 1659SOL    HW2 6985   2.843   7.913   2.116  1.6878 -0.9668  1.1162
 1660SOL     OW 6986  10.407   2.531   2.998 -1.0088  0.3744  0.1274
 1660SOL    HW1 6987  10.450   2.539   3.083 -1.4160  0.0168  0.3732
 1660SOL    HW2 6988  10.368   2.444   3.000 -1.2523  0.4735 -0.3205
 1661SOL     OW 6989  10.710   4.179  10.513  0.1076  0.2509 -0.2696
 1661SOL    HW1 6990  10.632   4.216  10.472 -0.2445 -0.1383  0.0387
 1661SOL    HW2 6991  10.747   4.121  10.446 -1.6459 -2.0572  0.6189
 1662SOL     OW 6992   4.915  10.020  10.311 -0.8528 -0.0525  0.0331
 1662SOL    HW1 6993   5.004   9.990  10.294 -0.2312  1.5785  0.2369
 1662SOL    HW2 6994   4.897  10.082  10.241 -1.9872 -0.6422 -0.2196
 1663SOL     OW 6995   0.136   9.118   0.302  0.4393 -0.5103 -0.6072
 1663SOL    HW1 6996   0.060   9.095   0.248  1.4123  0.6123 -2.6087
 1663SOL    HW2 6997   0.105   9.113   0.392 -1.5310 -1.6574 -1.2937
 1664SOL     OW 6998  10.056   9.274   0.657  0.1333 -0.2650  0.3036
 1664SOL    HW1 6999  10.033   9.354   0.609  4.1653  1.5022  0.9505
 1664SOL    HW2 7000  10.111   9.224   0.596 -1.1485 -1.9401  0.4320
 1665SOL     OW 7001   5.109   2.569   0.416  0.5493 -0.1743  0.4829
 1665SOL    HW1 7002   5.046   2.607   0.476  0.9504  0.1556  0.6993
 1665SOL    HW2 7003   5.155   2.644   0.378  0.7495 -0.4071  0.2606
 1666SOL     OW 7004  10.132   4.489   7.395 -0.1028 -0.0126 -0.0209
 1666SOL    HW1 7005  10.045   4.459   7.372 -0.8625  1.1914  1.1299
 1666SOL    HW2 7006  10.139   4.476   7.489  1.5792 -1.5412 -0.3004
 1667SOL     OW 7007  10.996   1.015  10.809 -0.3104  0.7268  0.8409
 1667SOL    HW1 7008  10.924   0.980  10.758  0.3726  1.6855 -0.8814
 1667SOL    HW2 7009  11.001   1.107  10.784  1.8474  0.5590  0.4674
 1668SOL     OW 7010   4.610   6.134   0.891 -0.1704  0.2713  0.3307
 1668SOL    HW1 7011   4.650   6.145   0.978  2.2348  0.1926 -0.6664
 1668SOL    HW2 7012   4.683   6.147   0.830 -2.0816  1.8496 -1.7677
 1669SOL     OW 7013   4.357   1.682   4.323  0.4072 -0.5783 -0.3329
 1669SOL    HW1 7014   4.301   1.657   4.396  0.3321 -0.6459 -0.4143
 1669SOL    HW2 7015   4.427   1.734   4.363  1.3662 -2.0852  0.0468
 1670SOL     OW 7016   4.425   8.461   2.299  0.1023  0.2560  0.0232
 1670SOL    HW1 7017   4.519   8.465   2.287  0.1645  1.0063  0.7034
 1670SOL    HW2 7018   4.408   8.513   2.378 -0.5096 -2.6869  1.9898
 1671SOL     OW 7019   3.412   9.361   1.705  0.2244  0.6418  1.3602
 1671SOL    HW1 7020   3.373   9.325   1.784  0.3722  1.7188  1.9448
 1671SOL    HW2 7021   3.501   9.385   1.732  0.2502  1.0813  0.8915
 1672SOL     OW 7022   0.580   0.666   8.224 -0.5873 -0.2008 -0.5646
 1672SOL    HW1 7023   0.531   0.621   8.293 -0.7143  0.2203 -0.3752
 1672SOL    HW2 7024   0.576   0.758   8.248  0.3843 -0.1704 -0.4943
 1673SOL     OW 7025   2.690   6.170  10.033  0.2777  0.0500  0.4583
 1673SOL    HW1 7026   2.639   6.250  10.045  1.1677  0.3278  2.9381
 1673SOL    HW2 7027   2.629   6.099  10.053  0.1840  0.2428  0.8593
 1674SOL     OW 7028  10.466   9.469   8.366 -0.1446 -0.5588  0.3656
 1674SOL    HW1 7029  10.403   9.489   8.296  0.5430  2.0588  0.3797
 1674SOL    HW2 7030  10.423   9.403   8.420 -1.4241 -1.3492 -1.5289
 1675SOL     OW 7031   4.786   5.030   8.544  0.3520 -0.2773  0.8494
 1675SOL    HW1 7032   4.699   5.043   8.507  1.4458  0.4906 -1.7071
 1675SOL    HW2 7033   4.794   4.935   8.552 -0.9110 -0.3384  1.7501
 1676SOL     OW 7034   8.257   8.119   3.738  0.0904 -0.1206  0.0266
 1676SOL    HW1 7035   8.195   8.190   3.722 -0.1275 -0.4758 -0.7275
 1676SOL    HW2 7036   8.293   8.138   3.825 -0.8429  0.2617  0.3424
 1677SOL     OW 7037  10.747  10.575   3.975 -0.3539 -0.4955  0.0145
 1677SOL    HW1 7038  10.812  10.617   3.920 -0.8263  1.2849  0.7360
 1677SOL    HW2 7039  10.778  10.590   4.065 -0.3453 -2.0627  0.3079
 1678SOL     OW 7040   2.335   5.133   3.921 -0.3440 -0.1542 -0.3643
 1678SOL    HW1 7041   2.330   5.065   3.853 -2.7698 -0.2072 -0.2237
 1678SOL    HW2 7042   2.399   5.099   3.983  0.3743 -1.0975 -1.5623
 1679SOL     OW 7043   3.615   1.193   5.810  0.3733  0.4491  0.2756
 1679SOL    HW1 7044   3.646   1.230   5.728  0.2103  1.1792  0.5397
 1679SOL    HW2 7045   3.522   1.216   5.814 -0.0350 -1.0356 -0.1247
 1680SOL     OW 7046   2.181   5.169   0.157 -0.3088 -0.1249  0.1036
 1680SOL    HW1 7047   2.164   5.075   0.163 -0.8385 -0.1398 -1.3826
 1680SOL    HW2 7048   2.270   5.179   0.191 -0.8652 -0.8995  1.9564
 1681SOL     OW 7049   7.633   5.176   7.509 -0.0815  0.1137 -0.0255
 1681SOL    HW1 7050   7.641   5.115   7.583 -1.6676 -3.5642 -2.5579
 1681SOL    HW2 7051   7.719   5.219   7.505  1.6043 -2.7450  1.4358
 1682SOL     OW 7052  10.629   0.776   5.890  0.4062  0.6498  0.2247
 1682SOL    HW1 7053  10.706   0.749   5.941 -0.7009 -0.5072  1.3670
 1682SOL    HW2 7054  10.556   0.732   5.933 -1.1188  2.9458  0.1373
 1683SOL     OW 7055   5.751   3.048   0.748 -0.5476  0.1268  0.2883
 1683SOL    HW1 7056   5.691   2.974   0.759 -0.3531  0.0291  0.7308
 1683SOL    HW2 7057   5.728   3.108   0.819 -2.3403  1.6597 -1.4619
 1684SOL     OW 7058   5.022   4.891   3.216  0.4929 -0.6220 -1.3066
 1684SOL    HW1 7059   5.056   4.869   3.302 -2.3652  1.7598  0.5989
 1684SOL    HW2 7060   5.079   4.962   3.185  0.3378 -0.1120 -0.4511
 1685SOL     OW 7061   6.561   2.996   7.003 -0.2318  0.5240 -0.7098
 1685SOL    HW1 7062   6.648   2.980   7.040 -0.5277  0.7179  0.0840
 1685SOL    HW2 7063   6.578   3.020   6.912  0.6836  2.0839 -0.1791
 1686SOL     OW 7064   7.909   4.866   2.075  0.2525  0.6821  0.6544
 1686SOL    HW1 7065   7.883   4.955   2.054 -2.0391  0.5126  2.4093
 1686SOL    HW2 7066   7.886   4.855   2.167  0.1816 -1.8080  0.4127
 1687SOL     OW 7067   6.257   4.155   0.055 -0.7657  0.7845  0.3666
 1687SOL    HW1 7068   6.271   4.220   0.124  0.4447  0.4452  0.4572
 1687SOL    HW2 7069   6.342   4.114   0.043 -0.4620  2.1072 -2.6502
 1688SOL     OW 7070   7.126   6.291   9.495 -0.2705 -0.6219  1.0313
 1688SOL    HW1 7071   7.124   6.290   9.399  2.9999 -1.4432  0.8629
 1688SOL    HW2 7072   7.112   6.383   9.518  0.7851 -0.0778 -0.3538
 1689SOL     OW 7073   8.856   1.305   7.511 -0.4624  0.0291  0.3275
 1689SOL    HW1 7074   8.880   1.310   7.604 -0.9118 -0.5138  0.4763
 1689SOL    HW2 7075   8.915   1.367   7.468 -1.5603  1.7590  1.2210
 1690SOL     OW 7076   8.728   4.042  10.925 -0.2305 -0.7034  0.1916
 1690SOL    HW1 7077   8.735   3.949  10.946 -4.2522 -1.0459  0.9372
 1690SOL    HW2 7078   8.660   4.046  10.857  1.2678  1.5895 -1.2999
 1691SOL     OW 7079   2.373  10.365   7.971  0.1963 -0.5405  0.2409
 1691SOL    HW1 7080   2.356  10.271   7.976 -3.7213 -0.1893 -1.8587
 1691SOL    HW2 7081   2.443  10.374   7.907 -0.7667 -2.0651 -1.1229
 1692SOL     OW 7082   7.774   5.333   0.769  0.6440 -0.3666 -0.6906
 1692SOL    HW1 7083   7.822   5.339   0.686  0.6639  0.0885 -0.6493
 1692SOL    HW2 7084   7.800   5.411   0.817  0.1962 -0.3410 -0.4869
 1693SOL     OW 7085   2.292  11.241   8.435 -0.2632  0.9029 -0.4086
 1693SOL    HW1 7086   2.315  11.334   8.434 -0.3167  0.9173 -1.7943
 1693SOL    HW2 7087   2.367  11.197   8.394 -0.1802  0.3007  0.3498
 1694SOL     OW 7088   2.873   9.075   4.139 -0.1305  0.2486 -0.1279
 1694SOL    HW1 7089   2.901   9.074   4.231 -0.0655  0.1407 -0.1490
 1694SOL    HW2 7090   2.933   9.135   4.096  0.0484  0.0407 -0.1673
 1695SOL     OW 7091  10.483   7.400   5.234  0.3698  0.6665  0.3428
 1695SOL    HW1 7092  10.518   7.312   5.250 -2.6042 -0.5002  1.2029
 1695SOL    HW2 7093  10.542   7.438   5.169  0.0046 -3.2420 -2.6310
 1696SOL     OW 7094  11.033   0.403   9.193  0.3797  0.0756  0.4083
 1696SOL    HW1 7095  11.119   0.370   9.168  0.1828  0.1239 -0.3645
 1696SOL    HW2 7096  11.028   0.388   9.287  1.1926 -0.0171  0.4470
 1697SOL     OW 7097   1.084   8.107  10.991 -0.3461  0.3093 -0.1182
 1697SOL    HW1 7098   1.055   8.192  10.957  0.6414  0.3389 -0.9211
 1697SOL    HW2 7099   1.057   8.044  10.924  2.0310  0.4213 -1.2703
 1698SOL     OW 7100   8.276   2.237   3.632 -0.3234 -0.0606 -0.4866
 1698SOL    HW1 7101   8.208   2.266   3.694  0.2968 -1.5478  0.9687
 1698SOL    HW2 7102   8.356   2.237   3.683  0.5266  0.2411 -1.7798
 1699SOL     OW 7103   7.243   6.166   4.282 -0.1418  0.1250  0.0189
 1699SOL    HW1 7104   7.295   6.186   4.360  3.6268 -0.1553 -2.1937
 1699SOL    HW2 7105   7.181   6.239   4.276 -0.7489  0.0295  3.2966
 1700SOL     OW 7106   4.625   7.129   9.723 -0.1507 -0.0902  0.4177
 1700SOL    HW1 7107   4.531   7.148   9.717 -0.3864 -0.7969  1.5513
 1700SOL    HW2 7108   4.666   7.214   9.739 -0.8322 -0.0469  2.0867
 1701SOL     OW 7109   7.095   2.015   5.161  0.0387  0.3770  0.2342
 1701SOL    HW1 7110   7.124   1.928   5.134  0.4188  0.4486  0.4044
 1701SOL    HW2 7111   7.090   2.010   5.256 -1.7984 -0.0333  0.1505
 1702SOL     OW 7112   6.512   2.247   8.202  0.8162 -0.5086 -0.1530
 1702SOL    HW1 7113   6.466   2.204   8.130 -0.4999  0.3399  0.1333
 1702SOL    HW2 7114   6.449   2.312   8.235  1.2745 -1.0193  1.9068
 1703SOL     OW 7115   9.580   8.942   3.881  0.0685  0.1166 -0.0727
 1703SOL    HW1 7116   9.553   8.873   3.820  0.5512  1.1882 -1.5715
 1703SOL    HW2 7117   9.676   8.938   3.881  0.0674 -0.8425  1.8283
 1704SOL     OW 7118   2.736   6.948   3.103 -0.2791 -0.0048  0.3253
 1704SOL    HW1 7119   2.677   6.874   3.085  0.0647 -0.0831 -0.5273
 1704SOL    HW2 7120   2.817   6.907   3.135 -1.0395  0.1539  2.5969
 1705SOL     OW 7121   3.060   8.866   2.597  0.4344  0.0639  0.2968
 1705SOL    HW1 7122   3.091   8.921   2.670  1.2664 -1.4204  1.1076
 1705SOL    HW2 7123   3.047   8.780   2.636  2.1883 -1.1252 -1.5911
 1706SOL     OW 7124   7.289   9.752   1.550 -0.1606  0.0126  0.3385
 1706SOL    HW1 7125   7.344   9.780   1.623  1.8250 -2.5710 -0.0500
 1706SOL    HW2 7126   7.200   9.757   1.584  0.4707  1.5792  1.9355
 1707SOL     OW 7127   6.850   0.738   5.419 -0.3644  0.2985  0.1039
 1707SOL    HW1 7128   6.793   0.670   5.383 -0.6757  0.3965  0.4117
 1707SOL    HW2 7129   6.931   0.730   5.368  0.1815 -1.3338  1.1279
 1708SOL     OW 7130   4.464  10.104  10.222 -0.5399 -0.6870  0.0663
 1708SOL    HW1 7131   4.517  10.173  10.261 -0.8207 -0.9112  0.8596
 1708SOL    HW2 7132   4.444  10.136  10.134  0.5523 -0.4199 -0.0927
 1709SOL     OW 7133   6.361   5.409   3.031  0.1962  0.3001 -0.1068
 1709SOL    HW1 7134   6.429   5.368   3.084  0.4498 -1.9838 -2.0271
 1709SOL    HW2 7135   6.293   5.342   3.023 -0.8758  1.4191 -0.7796
 1710SOL     OW 7136   4.613  10.171   4.632  0.2929 -0.1764  0.0978
 1710SOL    HW1 7137   4.591  10.259   4.602 -0.7874 -0.7920 -1.0282
 1710SOL    HW2 7138   4.709  10.170   4.636  0.2853  1.6196  2.0360
 1711SOL     OW 7139   7.819   3.771  11.041 -0.3459  0.1784 -0.0848
 1711SOL    HW1 7140   7.829   3.723  10.959 -1.9943  0.4912 -0.4990
 1711SOL    HW2 7141   7.757   3.841  11.021  1.1050  1.8113  0.8056
 1712SOL     OW 7142   0.839   3.386   4.097  0.3384 -0.7274  0.0508
 1712SOL    HW1 7143   0.824   3.302   4.140 -0.3215  0.2574  1.8289
 1712SOL    HW2 7144   0.752   3.413   4.068  0.4846 -0.4312 -0.1116
 1713SOL     OW 7145   2.385   1.246   9.546  0.2629  0.5481 -0.4419
 1713SOL    HW1 7146   2.424   1.225   9.462  1.6138  1.0199  0.0460
 1713SOL    HW2 7147   2.441   1.314   9.583 -0.2142  0.2492  0.9093
 1714SOL     OW 7148   9.360   4.157  10.417 -0.2058 -0.1200 -0.0211
 1714SOL    HW1 7149   9.345   4.224  10.484 -0.7518  1.5997 -1.7655
 1714SOL    HW2 7150   9.278   4.155  10.368  0.6904 -0.1866 -1.5778
 1715SOL     OW 7151   4.088  10.160   6.452  0.2175 -0.0286 -0.1159
 1715SOL    HW1 7152   4.024  10.135   6.518  1.6255  0.6799  1.6215
 1715SOL    HW2 7153   4.157  10.093   6.458  0.6661  0.3929 -0.4228
 1716SOL     OW 7154  10.660   2.979   3.956  0.2944 -0.5657 -0.1986
 1716SOL    HW1 7155  10.632   2.926   4.031 -1.8591  0.0826 -0.4852
 1716SOL    HW2 7156  10.734   2.930   3.919 -1.6312 -3.5429 -0.5305
 1717SOL     OW 7157   0.463   1.410   2.707 -0.2852 -0.2125 -0.2184
 1717SOL    HW1 7158   0.510   1.357   2.643 -0.1214  0.7022 -0.8643
 1717SOL    HW2 7159   0.531   1.455   2.756 -0.3692  3.2441 -2.9240
 1718SOL     OW 7160   8.618   9.502   4.501 -0.2184 -0.4529  0.9969
 1718SOL    HW1 7161   8.551   9.450   4.457  1.4475 -1.8182 -0.0635
 1718SOL    HW2 7162   8.649   9.446   4.572  1.4439 -0.8762 -0.0158
 1719SOL     OW 7163   8.166   5.473   9.016  0.3744  0.7198  0.6404
 1719SOL    HW1 7164   8.218   5.394   9.003  1.4801  1.5061  0.0124
 1719SOL    HW2 7165   8.174   5.493   9.109  2.9099  1.8944  0.2601
 1720SOL     OW 7166   7.267   5.475   0.076 -0.0853 -0.2343 -0.3959
 1720SOL    HW1 7167   7.317   5.447  -0.000 -1.0290 -2.0344 -0.4043
 1720SOL    HW2 7168   7.194   5.526   0.040  1.3519  1.9188 -0.4157
 1721SOL     OW 7169  10.355   1.589   7.897  0.0841 -0.0087  0.1413
 1721SOL    HW1 7170  10.441   1.547   7.890 -0.2237 -0.3767 -1.9556
 1721SOL    HW2 7171  10.372   1.668   7.948  1.6048 -0.2294  0.0390
 1722SOL     OW 7172  10.683   8.747   6.378  0.0672  0.2151 -0.0020
 1722SOL    HW1 7173  10.760   8.802   6.362 -0.2839  0.3524 -1.3959
 1722SOL    HW2 7174  10.694   8.673   6.318 -1.3719  0.7513 -0.9943
 1723SOL     OW 7175   3.214   5.899   0.285 -0.0409  0.5992  0.4328
 1723SOL    HW1 7176   3.274   5.860   0.222  1.6978 -0.4073  2.5919
 1723SOL    HW2 7177   3.256   5.982   0.308 -1.0058  1.2740 -0.1609
 1724SOL     OW 7178   6.341  10.456   9.712  0.2098 -0.3456  0.0745
 1724SOL    HW1 7179   6.337  10.525   9.646  1.8823  0.4386  0.7484
 1724SOL    HW2 7180   6.254  10.415   9.709 -0.8127  1.7193 -0.4156
 1725SOL     OW 7181   2.946   8.405   5.689  0.0375 -0.2044 -0.0071
 1725SOL    HW1 7182   2.982   8.356   5.764 -0.2353 -2.1337 -1.0714
 1725SOL    HW2 7183   2.863   8.440   5.721  0.8222  0.6956  1.1691
 1726SOL     OW 7184   2.762   1.270   3.432  0.3024  0.7800  0.4953
 1726SOL    HW1 7185   2.731   1.308   3.514  0.7658 -0.5213  1.3125
 1726SOL    HW2 7186   2.852   1.303   3.423  0.7085 -0.0855  1.2077
 1727SOL     OW 7187   9.540   8.630   1.108  0.6409 -0.4234 -0.0592
 1727SOL    HW1 7188   9.551   8.610   1.015  3.3698 -0.5549  0.2112
 1727SOL    HW2 7189   9.595   8.566   1.153 -0.1307  0.0316  1.6321
 1728SOL     OW 7190   7.876   4.557   2.005  0.0516  0.1738  0.2825
 1728SOL    HW1 7191   7.825   4.520   2.077 -0.4390 -0.7401 -0.5232
 1728SOL    HW2 7192   7.871   4.652   2.018 -0.2208  0.0277  1.3131
 1729SOL     OW 7193   8.184   0.959   6.681  1.0586  0.0266 -0.3291
 1729SOL    HW1 7194   8.212   1.028   6.742  1.4522 -1.3760  1.1569
 1729SOL    HW2 7195   8.182   0.880   6.735 -1.6184 -0.7457 -1.4106
 1730SOL     OW 7196   3.586   7.779   7.454 -0.2513  0.2453  0.2931
 1730SOL    HW1 7197   3.496   7.789   7.484  0.1298  0.2343  1.5028
 1730SOL    HW2 7198   3.611   7.866   7.423 -1.5335 -0.3370 -2.6890
 1731SOL     OW 7199   3.367   7.797   7.620  0.3302 -0.3368 -0.5558
 1731SOL    HW1 7200   3.276   7.793   7.592  0.3217  0.7895 -0.7584
 1731SOL    HW2 7201   3.362   7.801   7.716  0.0249  1.6573 -0.6018
 1732SOL     OW 7202   8.944   6.369   0.682  0.2374  0.6016  0.3538
 1732SOL    HW1 7203   8.945   6.311   0.758  0.6344  1.5170  1.0633
 1732SOL    HW2 7204   8.851   6.393   0.672 -0.2859 -1.8245 -1.2825
 1733SOL     OW 7205   7.878   2.473  10.605  0.2220 -0.5878 -0.1127
 1733SOL    HW1 7206   7.786   2.497  10.600 -0.2838 -2.5512 -1.3114
 1733SOL    HW2 7207   7.879   2.391  10.654  1.6174  0.4822  1.7880
 1734SOL     OW 7208   2.054   5.978  10.382  0.4795  0.2213  0.1044
 1734SOL    HW1 7209   2.112   5.960  10.456 -1.1358 -1.1796  1.0952
 1734SOL    HW2 7210   1.972   5.934  10.404  0.1213 -0.7929 -2.8045
 1735SOL     OW 7211   4.709   7.805   1.896 -0.3520 -0.4468  0.4547
 1735SOL    HW1 7212   4.769   7.731   1.906  1.1812  0.4876 -1.2856
 1735SOL    HW2 7213   4.665   7.787   1.812 -1.3215 -0.2840  0.9180
 1736SOL     OW 7214   1.755  11.180   2.070 -0.7842 -0.3372 -0.0349
 1736SOL    HW1 7215   1.725  11.262   2.109  0.6329  0.5031 -0.6181
 1736SOL    HW2 7216   1.799  11.133   2.142  0.4005  0.4710 -0.2055
 1737SOL     OW 7217   6.543   8.415   8.661 -0.6719 -0.1889  0.2124
 1737SOL    HW1 7218   6.504   8.329   8.677  1.3490 -1.1319  0.3412
 1737SOL    HW2 7219   6.536   8.427   8.567 -1.6061 -0.1470  0.2740
 1738SOL     OW 7220   6.326   6.147   4.074 -0.1920 -0.6739  1.0080
 1738SOL    HW1 7221   6.318   6.240   4.096 -0.8160 -0.7886  1.3114
 1738SOL    HW2 7222   6.414   6.123   4.101  0.3673  0.0808 -0.0593
 1739SOL     OW 7223   5.967   0.324   1.965  0.4575  0.0376  0.0439
 1739SOL    HW1 7224   5.932   0.239   1.992 -1.4913  0.9879  0.6766
 1739SOL    HW2 7225   5.971   0.375   2.045 -1.3218  1.5087 -0.7480
 1740SOL     OW 7226   2.496   3.099   2.774 -0.0488  0.1703  0.1225
 1740SOL    HW1 7227   2.428   3.138   2.829  1.4222  0.3308  1.9224
 1740SOL    HW2 7228   2.457   3.017   2.743 -0.6722 -0.3569  2.1286
 1741SOL     OW 7229   8.074  10.394   8.070 -0.2872  0.0713 -0.0232
 1741SOL    HW1 7230   8.030  10.315   8.038  2.0855 -0.3972 -2.4714
 1741SOL    HW2 7231   8.099  10.441   7.991  0.2376  2.2426  1.3540
 1742SOL     OW 7232   0.191   8.483  10.348  0.5916 -0.1359  0.2613
 1742SOL    HW1 7233   0.154   8.405  10.306  3.5500 -1.9320  0.7218
 1742SOL    HW2 7234   0.173   8.471  10.441  1.1127 -0.3309  0.3405
 1743SOL     OW 7235   2.684   2.378   4.076 -0.0073  0.1288  0.3775
 1743SOL    HW1 7236   2.772   2.405   4.050  0.6707 -2.0926  0.1045
 1743SOL    HW2 7237   2.694   2.285   4.099 -2.4743 -0.4334 -0.5789
 1744SOL     OW 7238   0.510   8.740   0.302 -0.9976 -0.5715 -0.5246
 1744SOL    HW1 7239   0.540   8.660   0.345 -0.9270 -0.6712 -0.7566
 1744SOL    HW2 7240   0.528   8.810   0.365  2.7269 -0.1513 -1.8638
 1745SOL     OW 7241   9.154   4.656   8.487  0.0713  0.0773  0.1299
 1745SOL    HW1 7242   9.205   4.618   8.415  2.3260  2.5690  0.2512
 1745SOL    HW2 7243   9.201   4.630   8.566  1.1531  2.2096  0.2613
 1746SOL     OW 7244   4.608   2.461   0.415 -1.0164 -0.2332  0.3156
 1746SOL    HW1 7245   4.519   2.494   0.402 -0.1120  1.9468 -0.9001
 1746SOL    HW2 7246   4.648   2.465   0.328 -0.3543 -3.3544  0.3727
 1747SOL     OW 7247   4.108   0.523   0.809 -0.2721  0.2632  0.1732
 1747SOL    HW1 7248   4.162   0.583   0.758  0.4291 -0.8182 -0.3835
 1747SOL    HW2 7249   4.031   0.509   0.754 -0.4047  0.5915  0.2726
 1748SOL     OW 7250   1.427   7.866   0.007 -0.6401 -0.0713  0.7441
 1748SOL    HW1 7251   1.423   7.932   0.076  1.2339 -0.6146  1.4546
 1748SOL    HW2 7252   1.509   7.885  -0.038 -0.3403 -1.5662  0.6196
 1749SOL     OW 7253   7.167   7.274   4.663  1.0354  0.3295 -0.7846
 1749SOL    HW1 7254   7.130   7.305   4.746 -0.4384 -0.3905 -1.1409
 1749SOL    HW2 7255   7.235   7.338   4.642  0.9748  0.8965  0.6341
 1750SOL     OW 7256   3.014   8.022   8.508  0.3240 -0.3387  0.0062
 1750SOL    HW1 7257   3.075   7.994   8.440  0.2899 -0.6985  0.1214
 1750SOL    HW2 7258   3.035   8.114   8.523  0.3751 -0.2728 -0.4457
 1751SOL     OW 7259   0.801  11.012   2.732  0.1226 -0.3820 -0.0971
 1751SOL    HW1 7260   0.889  10.978   2.749 -0.1285 -0.1638  1.9517
 1751SOL    HW2 7261   0.808  11.055   2.647  1.2496 -2.7615 -1.3066
 1752SOL     OW 7262   5.961   3.221   6.719  0.3595  0.6968 -0.0482
 1752SOL    HW1 7263   5.991   3.308   6.691  3.8594 -0.0098  0.9582
 1752SOL    HW2 7264   6.030   3.191   6.778 -2.9441 -0.9653  3.3378
 1753SOL     OW 7265   8.608   6.968   1.275 -0.0395  0.0272 -0.3847
 1753SOL    HW1 7266   8.642   7.010   1.196 -1.6622 -1.2682 -1.8707
 1753SOL    HW2 7267   8.575   6.883   1.244 -0.9617 -0.4119  1.6490
 1754SOL     OW 7268   5.388  11.163   3.126 -0.3472 -0.0095 -0.5966
 1754SOL    HW1 7269   5.422  11.088   3.078 -2.1691  0.0874 -2.1509
 1754SOL    HW2 7270   5.325  11.125   3.188  1.1828 -0.0242  1.0501
 1755SOL     OW 7271   7.929   5.091   7.742  0.4375 -0.8218  0.1033
 1755SOL    HW1 7272   7.843   5.052   7.757  0.8521 -1.4767  0.8715
 1755SOL    HW2 7273   7.991   5.031   7.785  0.9548  1.5729  3.0839
 1756SOL     OW 7274   4.088   5.885   4.837 -0.3497 -0.2801 -0.5484
 1756SOL    HW1 7275   4.032   5.962   4.826 -1.8841 -1.1377  0.7856
 1756SOL    HW2 7276   4.058   5.823   4.771 -0.1462 -0.3119 -0.6135
 1757SOL     OW 7277   8.401   4.023   1.364 -0.3464 -0.6701  0.2303
 1757SOL    HW1 7278   8.316   4.029   1.321  1.4438  0.7807 -3.6964
 1757SOL    HW2 7279   8.445   3.950   1.320  0.8278 -0.6723  1.3566
 1758SOL     OW 7280   2.731   8.844   8.683 -0.4942 -0.0298  0.1400
 1758SOL    HW1 7281   2.754   8.861   8.775  1.3918 -0.3435 -0.2199
 1758SOL    HW2 7282   2.657   8.785   8.688  0.4294 -1.1586  1.5110
 1759SOL     OW 7283   9.222   3.795   0.963 -0.1673  0.5657  0.3763
 1759SOL    HW1 7284   9.141   3.744   0.964 -0.6479  1.3191  0.8214
 1759SOL    HW2 7285   9.289   3.734   0.932 -1.0132  0.1018 -0.5504
 1760SOL     OW 7286   3.891   0.574   8.912  0.0124 -1.2777 -0.4142
 1760SOL    HW1 7287   3.873   0.491   8.956  1.3540 -0.9163  0.9042
 1760SOL    HW2 7288   3.842   0.569   8.830  1.0669 -3.9363 -0.9958
 1761SOL     OW 7289   1.425   7.887   7.951 -0.5003  0.7392  0.0334
 1761SOL    HW1 7290   1.478   7.963   7.975 -1.0068  1.3326 -0.6968
 1761SOL    HW2 7291   1.425   7.832   8.030 -1.0747  2.0276  0.9676
 1762SOL     OW 7292   7.082   3.875   5.535 -0.1529 -0.3434 -0.0954
 1762SOL    HW1 7293   7.066   3.968   5.516 -1.1306 -0.5776 -0.4726
 1762SOL    HW2 7294   7.077   3.832   5.450  0.4266 -0.7309  0.0654
 1763SOL     OW 7295   0.861   2.723   3.198 -0.0896  0.0298  0.6477
 1763SOL    HW1 7296   0.919   2.648   3.215 -0.8608 -0.1759  2.6128
 1763SOL    HW2 7297   0.778   2.683   3.171  0.2752  0.2947 -0.9842
 1764SOL     OW 7298  10.740   0.461   4.662  0.4586  0.7810 -0.0506
 1764SOL    HW1 7299  10.724   0.546   4.620 -2.1735 -0.5628 -2.0244
 1764SOL    HW2 7300  10.688   0.465   4.742  1.5275  1.4982  0.6501
 1765SOL     OW 7301  11.123   7.933   4.269 -0.3420  0.0783  0.1423
 1765SOL    HW1 7302  11.058   7.971   4.327 -0.8484 -0.4962 -0.0471
 1765SOL    HW2 7303  11.079   7.926   4.184 -0.1598 -0.6431  0.0981
 1766SOL     OW 7304   4.355   5.513   8.720  0.2716 -0.6309  0.0592
 1766SOL    HW1 7305   4.360   5.423   8.688 -0.4241 -0.1856 -1.3586
 1766SOL    HW2 7306   4.390   5.509   8.809  0.2463 -2.2969  0.0130
 1767SOL     OW 7307   4.446  10.943   5.525  0.0213 -0.1689  0.1135
 1767SOL    HW1 7308   4.429  10.880   5.456  0.8717 -2.0114  1.5153
 1767SOL    HW2 7309   4.405  10.905   5.603 -3.0372  2.9507  0.2921
 1768SOL     OW 7310   9.144  10.790   3.193  0.1043 -1.1020 -0.3233
 1768SOL    HW1 7311   9.083  10.805   3.266  0.4308 -1.0713 -0.0538
 1768SOL    HW2 7312   9.090  10.750   3.125 -0.4975  0.0252 -0.5403
 1769SOL     OW 7313   5.024  10.985  10.407  0.0481  0.6049 -0.1757
 1769SOL    HW1 7314   4.973  10.904  10.414  1.4425 -0.3981 -0.8574
 1769SOL    HW2 7315   5.027  11.019  10.496  0.0322 -0.4995  0.2724
 1770SOL     OW 7316   2.709   6.255   3.966  0.4952  0.0896 -0.8257
 1770SOL    HW1 7317   2.719   6.190   4.035 -1.0521  2.1199  1.5215
 1770SOL    HW2 7318   2.787   6.310   3.974  0.7114 -0.1629 -1.2351
 1771SOL     OW 7319   3.228   0.063   7.223  0.2969 -0.1879  0.5523
 1771SOL    HW1 7320   3.142   0.021   7.229  1.0901 -1.7285  1.7401
 1771SOL    HW2 7321   3.286  -0.006   7.190  1.1241  0.7967 -0.1142
 1772SOL     OW 7322   6.357   3.712   0.189  0.6594  0.6419 -0.3606
 1772SOL    HW1 7323   6.331   3.625   0.157  1.9561 -0.3797  1.2304
 1772SOL    HW2 7324   6.410   3.748   0.117  0.6203 -0.1391 -0.7970
 1773SOL     OW 7325   6.893   2.623   9.392 -0.2369 -0.2629  0.6810
 1773SOL    HW1 7326   6.983   2.623   9.360 -0.3548 -0.9443  0.3391
 1773SOL    HW2 7327   6.847   2.560   9.337 -1.1935  0.8886  0.1138
 1774SOL     OW 7328   9.963  10.101   0.180  0.6086 -0.1182 -0.3344
 1774SOL    HW1 7329  10.058  10.086   0.177  0.5773 -0.1849 -0.9526
 1774SOL    HW2 7330   9.928  10.049   0.109  0.1507  0.2799 -0.4032
 1775SOL     OW 7331   5.012   6.694   9.963 -0.7499 -0.5075  0.2488
 1775SOL    HW1 7332   4.983   6.610   9.929 -0.1481  0.0476 -1.7930
 1775SOL    HW2 7333   5.096   6.675  10.005  0.0094 -0.7655 -1.3171
 1776SOL     OW 7334   4.757   7.136   0.602 -0.5858 -0.0551 -1.2925
 1776SOL    HW1 7335   4.809   7.215   0.618  1.0653 -1.7665  3.1874
 1776SOL    HW2 7336   4.798   7.095   0.527 -0.5633  2.4909 -2.7982
 1777SOL     OW 7337   7.690   3.810   2.646 -0.2064  0.1387 -0.5690
 1777SOL    HW1 7338   7.762   3.759   2.683 -0.8201  0.2931  0.9103
 1777SOL    HW2 7339   7.630   3.823   2.720 -0.0259  3.1191 -0.8514
 1778SOL     OW 7340   8.371   1.914   7.714 -0.0161 -0.2934 -0.0087
 1778SOL    HW1 7341   8.374   2.002   7.751  1.7384 -0.9311  1.5408
 1778SOL    HW2 7342   8.344   1.858   7.787 -0.3918 -1.1419 -0.7751
 1779SOL     OW 7343   3.259   3.106   4.619  0.1474 -0.2383  0.2665
 1779SOL    HW1 7344   3.306   3.185   4.646  2.8091 -0.6812 -2.5663
 1779SOL    HW2 7345   3.211   3.133   4.541 -0.8838 -0.8871  0.6589
 1780SOL     OW 7346  10.429   9.966   4.366 -0.7257  0.1004 -1.0599
 1780SOL    HW1 7347  10.471  10.031   4.422  0.1993 -0.4738 -1.0584
 1780SOL    HW2 7348  10.464   9.983   4.278 -0.9263 -0.0300 -1.1666
 1781SOL     OW 7349   2.762   9.388   9.306  0.6273 -0.0056 -0.3500
 1781SOL    HW1 7350   2.781   9.482   9.316  2.2763 -0.3390 -0.0397
 1781SOL    HW2 7351   2.841   9.344   9.338 -1.7303 -1.7162  4.0256
 1782SOL     OW 7352   6.221   2.064   4.406  0.1826  0.4594 -0.3812
 1782SOL    HW1 7353   6.222   2.059   4.311  0.2531  0.6504 -0.3905
 1782SOL    HW2 7354   6.300   2.112   4.429 -0.0280  0.7505 -0.2491
 1783SOL     OW 7355   7.057  10.736   8.155 -0.0895 -0.0190 -0.6138
 1783SOL    HW1 7356   6.992  10.805   8.143  0.8618  1.0191  0.0344
 1783SOL    HW2 7357   7.140  10.782   8.167  1.1131 -1.3141 -3.1188
 1784SOL     OW 7358   5.305   2.309   4.246  0.1301 -0.4736 -0.5708
 1784SOL    HW1 7359   5.265   2.266   4.322  0.5693 -2.0523 -1.2097
 1784SOL    HW2 7360   5.314   2.401   4.273 -1.8007 -0.5390  0.4243
 1785SOL     OW 7361   0.487   2.089   2.414 -0.6148 -0.3550 -0.4719
 1785SOL    HW1 7362   0.450   2.170   2.379  0.4085 -0.6509 -2.3440
 1785SOL    HW2 7363   0.528   2.115   2.496  2.7060  1.8659 -2.6036
 1786SOL     OW 7364   3.791   5.306   9.081  0.6105 -0.2493  0.0077
 1786SOL    HW1 7365   3.801   5.360   9.003  0.7456  1.0713  0.9068
 1786SOL    HW2 7366   3.710   5.336   9.120  1.0711 -0.1691  0.9226
 1787SOL     OW 7367   0.696   0.611   4.080 -0.0528  0.6920 -0.1859
 1787SOL    HW1 7368   0.706   0.698   4.118  2.5287  0.8627 -1.0808
 1787SOL    HW2 7369   0.772   0.600   4.022 -2.4129 -0.5096 -3.4029
 1788SOL     OW 7370   1.506   8.810   0.797  0.3513  0.2461 -0.4019
 1788SOL    HW1 7371   1.425   8.860   0.789  0.0492  0.0424  1.0434
 1788SOL    HW2 7372   1.510   8.786   0.890  0.6922 -2.0441 -0.9431
 1789SOL     OW 7373   3.193   6.013   2.757 -0.6656  0.0212  0.7097
 1789SOL    HW1 7374   3.229   6.099   2.777 -1.4166  0.6954 -0.6634
 1789SOL    HW2 7375   3.264   5.952   2.775  0.1735  1.0199  0.8501
 1790SOL     OW 7376   8.767   9.897   6.465  0.0264 -0.5806  0.0163
 1790SOL    HW1 7377   8.780   9.917   6.558 -1.1480  0.1780  0.0448
 1790SOL    HW2 7378   8.792   9.978   6.420 -0.1714 -0.6733 -0.2585
 1791SOL     OW 7379   5.522   8.298   3.901 -0.1626  0.7955  0.7238
 1791SOL    HW1 7380   5.459   8.341   3.958 -2.1575 -0.8746 -0.0615
 1791SOL    HW2 7381   5.529   8.356   3.825 -0.5062  1.1660  0.9709
 1792SOL     OW 7382   6.696   8.789   9.505 -0.7064 -0.4769 -0.0454
 1792SOL    HW1 7383   6.613   8.823   9.470  0.3111  2.0389 -0.1686
 1792SOL    HW2 7384   6.682   8.787   9.600 -0.5573  1.0426  0.0287
 1793SOL     OW 7385   9.689   0.076  10.014  0.2545  0.1490 -0.0454
 1793SOL    HW1 7386   9.719   0.079  10.105  1.9552 -1.7310 -0.4654
 1793SOL    HW2 7387   9.760   0.117   9.964  0.9991 -1.9764 -0.8244
 1794SOL     OW 7388   8.586   9.454   9.749 -0.4578 -0.3721 -0.3405
 1794SOL    HW1 7389   8.559   9.545   9.737  0.4933  0.0973  0.9535
 1794SOL    HW2 7390   8.509   9.410   9.785 -0.5054  0.2186  0.2759
 1795SOL     OW 7391  11.188   2.194   5.680 -0.1731  0.0114 -0.1616
 1795SOL    HW1 7392  11.200   2.143   5.760  3.3282 -0.8275 -1.0419
 1795SOL    HW2 7393  11.096   2.181   5.657 -0.7383 -1.5236  2.5126
 1796SOL     OW 7394   2.000   4.182   4.034 -0.1892 -0.5469  0.0852
 1796SOL    HW1 7395   1.979   4.274   4.049  2.4265  0.0284  0.7065
 1796SOL    HW2 7396   1.944   4.156   3.961 -1.3334  1.3819  0.2143
 1797SOL     OW 7397   0.533   6.641   9.117 -0.1071  0.8968 -0.4488
 1797SOL    HW1 7398   0.489   6.621   9.035 -1.9419  3.6697 -0.2538
 1797SOL    HW2 7399   0.495   6.724   9.146 -0.2913 -0.4101  3.7234
 1798SOL     OW 7400   8.605   4.370   8.665  0.3726  0.4818 -0.2793
 1798SOL    HW1 7401   8.566   4.286   8.644  0.7012  0.2182  0.1397
 1798SOL    HW2 7402   8.577   4.388   8.755 -0.6752  1.3926 -0.7601
 1799SOL     OW 7403   8.333   3.834   9.663 -0.1105  0.0405  0.0510
 1799SOL    HW1 7404   8.240   3.817   9.679 -0.2945 -1.6816 -2.3368
 1799SOL    HW2 7405   8.377   3.751   9.682  1.0771  0.9606  1.6106
 1800SOL     OW 7406   6.587   1.133   8.502  0.2186  0.0221  0.4000
 1800SOL    HW1 7407   6.494   1.112   8.501 -0.0053  0.7931  1.7622
 1800SOL    HW2 7408   6.630   1.049   8.520  0.0457 -0.8741 -2.7658
 1801SOL     OW 7409   9.569   7.613   6.909 -0.3397  0.6146 -0.4969
 1801SOL    HW1 7410   9.579   7.519   6.921 -0.8158  0.8195  2.1872
 1801SOL    HW2 7411   9.490   7.622   6.855  0.6139 -0.5079 -2.1368
 1802SOL     OW 7412   3.907   7.257   1.101  0.3517 -0.6260 -0.2125
 1802SOL    HW1 7413   3.876   7.168   1.118  1.2922 -0.6040  1.9993
 1802SOL    HW2 7414   3.945   7.285   1.184 -0.4993  2.0995 -0.6641
 1803SOL     OW 7415   7.873   1.719   6.307 -0.4493  0.6690 -0.4127
 1803SOL    HW1 7416   7.889   1.633   6.268 -2.3042 -1.0073  2.1458
 1803SOL    HW2 7417   7.824   1.767   6.241 -0.8834 -0.9089 -1.2793
 1804SOL     OW 7418  10.947   0.371   4.432 -0.1072 -0.0584 -0.2270
 1804SOL    HW1 7419  10.855   0.388   4.454  0.2961  0.2725  1.2822
 1804SOL    HW2 7420  10.962   0.424   4.353 -1.2432 -0.2258 -0.5760
 1805SOL     OW 7421   8.412   6.970   6.084  0.0205  0.7012  0.2972
 1805SOL    HW1 7422   8.384   7.033   6.017 -0.0271  0.1157 -0.2469
 1805SOL    HW2 7423   8.336   6.912   6.094  0.7681 -0.5356 -0.7458
 1806SOL     OW 7424  10.455  11.217   5.709 -0.4974 -0.1603  0.3825
 1806SOL    HW1 7425  10.508  11.219   5.630  2.3346  0.9290  2.1539
 1806SOL    HW2 7426  10.478  11.297   5.756 -0.6639 -1.6024  3.1402
 1807SOL     OW 7427   5.471   0.391   3.531  0.0524 -0.5499  0.8319
 1807SOL    HW1 7428   5.453   0.339   3.452 -0.3201  2.1439 -0.9952
 1807SOL    HW2 7429   5.565   0.408   3.527 -0.3285  1.6478 -0.5187
 1808SOL     OW 7430   5.677   8.149   6.249  0.1829  0.1094 -0.3458
 1808SOL    HW1 7431   5.695   8.165   6.341 -0.1406  2.1738 -0.5864
 1808SOL    HW2 7432   5.759   8.173   6.204 -0.1268  0.5472 -0.6930
 1809SOL     OW 7433   4.085   5.168   9.543  0.2831  0.0185 -0.2469
 1809SOL    HW1 7434   4.108   5.236   9.479  0.7177 -0.1515 -0.2719
 1809SOL    HW2 7435   4.020   5.210   9.600  0.3436  0.3650 -0.4308
 1810SOL     OW 7436   2.025   1.255   0.798 -0.2276  0.9267 -0.6331
 1810SOL    HW1 7437   2.065   1.175   0.834  0.6710  1.7452  0.2620
 1810SOL    HW2 7438   1.955   1.277   0.859 -0.0346  1.1866 -0.5024
 1811SOL     OW 7439   7.926   1.606   4.279  0.4557 -0.1223 -0.6149
 1811SOL    HW1 7440   7.981   1.669   4.326  0.0643 -0.0353 -0.2649
 1811SOL    HW2 7441   7.957   1.521   4.308  0.4506 -0.0760 -0.4722
 1812SOL     OW 7442  10.874   4.528   3.052  0.1966  0.0516 -1.0097
 1812SOL    HW1 7443  10.851   4.533   3.145  1.7292 -2.3048 -0.4173
 1812SOL    HW2 7444  10.845   4.612   3.016  0.9132  1.7059  1.8848
 1813SOL     OW 7445   9.998   7.409   7.719 -0.8839  0.0792 -0.6321
 1813SOL    HW1 7446   9.921   7.359   7.744  0.2901 -1.2475  0.4820
 1813SOL    HW2 7447  10.067   7.344   7.709  0.8925  1.4700  1.5787
 1814SOL     OW 7448   4.919   5.742   2.210  0.6457  0.2370 -0.6018
 1814SOL    HW1 7449   4.831   5.770   2.236  1.2899  0.4404  1.5966
 1814SOL    HW2 7450   4.958   5.821   2.172  0.5846  0.7932  0.4421
 1815SOL     OW 7451   8.660   2.948   7.704  0.0581 -0.0506  0.0472
 1815SOL    HW1 7452   8.748   2.952   7.668  0.7507  0.7325  1.7601
 1815SOL    HW2 7453   8.605   2.924   7.629  1.3946  1.6686 -1.5907
 1816SOL     OW 7454   7.770   9.768   7.376 -0.2408 -0.2012 -0.2094
 1816SOL    HW1 7455   7.731   9.854   7.393 -0.4784  0.2168 -2.5673
 1816SOL    HW2 7456   7.728   9.710   7.440 -0.0182  1.4087  1.4832
 1817SOL     OW 7457   7.004  10.265   8.724  0.0797  0.0387  0.0788
 1817SOL    HW1 7458   6.917  10.258   8.684 -0.7183  3.8404  0.8101
 1817SOL    HW2 7459   6.988  10.245   8.817 -0.0228  0.7113  0.2083
 1818SOL     OW 7460   1.240  10.755   9.347  0.5199  0.4349  0.5381
 1818SOL    HW1 7461   1.201  10.819   9.407 -0.5797 -0.3563  0.6967
 1818SOL    HW2 7462   1.326  10.736   9.385 -0.3989 -0.5204  2.2377
 1819SOL     OW 7463   4.587   0.893   2.731  0.4895  0.1852  0.3194
 1819SOL    HW1 7464   4.652   0.824   2.720  2.3492  1.8810  0.0262
 1819SOL    HW2 7465   4.616   0.943   2.807  0.2713  1.7004 -0.5290
 1820SOL     OW 7466   5.274   8.331   1.362 -0.1457 -0.7661 -0.7092
 1820SOL    HW1 7467   5.353   8.281   1.382 -0.5794 -0.7762  1.2046
 1820SOL    HW2 7468   5.236   8.286   1.286  1.0886 -1.4356 -0.9602
 1821SOL     OW 7469   1.818  11.110  11.063 -0.2128 -0.0975  0.2564
 1821SOL    HW1 7470   1.759  11.036  11.075 -2.2874  1.5443  0.7299
 1821SOL    HW2 7471   1.826  11.119  10.968  0.9250 -1.5199  0.1828
 1822SOL     OW 7472   2.524   4.554   3.086  0.3315 -0.1085 -0.2793
 1822SOL    HW1 7473   2.614   4.571   3.113  1.0708  0.1875 -2.6888
 1822SOL    HW2 7474   2.521   4.460   3.069  0.2754 -0.0623 -0.5277
 1823SOL     OW 7475   4.048   9.532   0.369 -0.2843  0.1118  0.3314
 1823SOL    HW1 7476   4.051   9.483   0.287 -2.0156 -1.2266  0.9928
 1823SOL    HW2 7477   4.067   9.623   0.344  0.7433 -0.5039 -1.2787
 1824SOL     OW 7478   1.719   0.424   3.189  0.4155 -0.1707  0.3737
 1824SOL    HW1 7479   1.748   0.361   3.124 -0.0178 -1.2499  1.2075
 1824SOL    HW2 7480   1.729   0.509   3.145  0.3208 -0.8456 -1.0265
 1825SOL     OW 7481   1.763   3.651   9.230 -0.3024  0.3835  0.2621
 1825SOL    HW1 7482   1.848   3.624   9.197  0.6044  1.0375  1.9611
 1825SOL    HW2 7483   1.763   3.747   9.223 -0.4717  0.4664  1.2035
 1826SOL     OW 7484   6.325   9.190   6.456 -0.4096  0.1025 -0.2834
 1826SOL    HW1 7485   6.359   9.275   6.429 -0.0693  0.1106  0.1559
 1826SOL    HW2 7486   6.278   9.157   6.379  0.6392  0.0666 -0.9286
 1827SOL     OW 7487   9.656   2.320   2.845 -0.4237 -0.1405 -0.0217
 1827SOL    HW1 7488   9.712   2.393   2.870  1.0116 -1.1467 -0.1747
 1827SOL    HW2 7489   9.612   2.350   2.765  1.2711  0.0437 -0.9304
 1828SOL     OW 7490   7.505  10.494   5.212  0.0102  0.2687 -0.5141
 1828SOL    HW1 7491   7.535  10.403   5.214 -0.2526  0.1861 -0.3678
 1828SOL    HW2 7492   7.462  10.508   5.297  1.8589  1.1415  0.3456
 1829SOL     OW 7493   6.430   0.035   4.654  0.2427 -0.6986 -0.7456
 1829SOL    HW1 7494   6.491   0.054   4.583  1.2067 -0.9321 -0.0029
 1829SOL    HW2 7495   6.463  -0.046   4.692 -1.4411 -1.6794 -1.2909
 1830SOL     OW 7496   4.551   2.860   9.255 -0.3077 -0.0754  0.0682
 1830SOL    HW1 7497   4.511   2.808   9.186  1.4410 -1.4384  0.0064
 1830SOL    HW2 7498   4.603   2.926   9.207  0.2790 -0.5234  0.0796
 1831SOL     OW 7499   4.232   5.686  10.434 -0.1745  0.4602  0.5064
 1831SOL    HW1 7500   4.152   5.714  10.389 -0.3557  1.5213  1.4601
 1831SOL    HW2 7501   4.274   5.767  10.461  0.5239 -0.1253  1.2292
 1832SOL     OW 7502   1.560   2.617   7.732 -0.4639 -0.2973  0.2746
 1832SOL    HW1 7503   1.519   2.556   7.793 -1.7107  0.8667  0.6594
 1832SOL    HW2 7504   1.653   2.618   7.757 -0.8940 -0.0858  1.9773
 1833SOL     OW 7505   5.494  10.781   8.398  0.2822 -0.3728  0.0398
 1833SOL    HW1 7506   5.468  10.833   8.474  0.7489 -0.1861  0.0762
 1833SOL    HW2 7507   5.435  10.809   8.328  1.1022  0.8766 -0.1924
 1834SOL     OW 7508   7.817   8.147   0.375  0.6632 -0.5121 -0.0100
 1834SOL    HW1 7509   7.843   8.056   0.359  2.7911 -0.9223  4.2869
 1834SOL    HW2 7510   7.897   8.198   0.360  0.1008  0.3329 -0.2286
 1835SOL     OW 7511   3.562  10.674   4.516  0.4309  0.1146 -0.3235
 1835SOL    HW1 7512   3.544  10.596   4.463 -0.4623 -2.6129  3.5288
 1835SOL    HW2 7513   3.485  10.683   4.573  1.8144  1.9349  1.4163
 1836SOL     OW 7514   8.542   8.285   6.565  0.2261  0.8696  0.1467
 1836SOL    HW1 7515   8.525   8.298   6.471 -1.1289 -0.6602  0.1335
 1836SOL    HW2 7516   8.495   8.357   6.607 -0.8964  0.4001 -0.2641
 1837SOL     OW 7517   1.592   4.328   7.974 -0.0741  0.2520 -0.2265
 1837SOL    HW1 7518   1.560   4.238   7.964 -0.1851  0.2597  0.0659
 1837SOL    HW2 7519   1.561   4.373   7.896  0.2095 -0.0303 -0.5099
 1838SOL     OW 7520   5.691   6.815   2.797 -0.2958  0.4886 -0.1882
 1838SOL    HW1 7521   5.688   6.731   2.842 -0.7177 -0.3777 -1.7424
 1838SOL    HW2 7522   5.602   6.829   2.766 -0.6606  2.3960  1.5079
 1839SOL     OW 7523   5.572   4.515   6.827 -0.2592  0.2886 -0.1094
 1839SOL    HW1 7524   5.596   4.470   6.746 -0.3480  0.8371 -0.4468
 1839SOL    HW2 7525   5.625   4.594   6.826  0.8275 -0.3970  1.0996
 1840SOL     OW 7526   2.382   0.482   1.927  0.4976 -0.4069 -0.2619
 1840SOL    HW1 7527   2.440   0.542   1.881  2.5781 -1.8738  0.2934
 1840SOL    HW2 7528   2.298   0.527   1.930  0.6206  0.4642 -4.0821
 1841SOL     OW 7529  10.623   7.865   6.381 -0.0208  0.7001  0.0498
 1841SOL    HW1 7530  10.607   7.819   6.298  0.9775  1.6414 -0.7016
 1841SOL    HW2 7531  10.664   7.948   6.355 -0.1869  1.2583  1.4661
 1842SOL     OW 7532  10.248   8.993   1.235 -0.3407  0.0038 -0.0741
 1842SOL    HW1 7533  10.254   9.081   1.197  1.3054  1.0257  2.3025
 1842SOL    HW2 7534  10.290   9.001   1.320  0.1843 -3.2112  0.0819
 1843SOL     OW 7535   7.206   9.659   5.649  0.2449  0.6025  0.2428
 1843SOL    HW1 7536   7.244   9.704   5.574  1.2362  1.7958  1.4154
 1843SOL    HW2 7537   7.118   9.635   5.621  0.8233  0.4073 -1.5224
 1844SOL     OW 7538   9.631   5.892  11.099  0.4987  0.7283 -0.6404
 1844SOL    HW1 7539   9.695   5.848  11.155  0.5858 -0.4087 -1.5861
 1844SOL    HW2 7540   9.551   5.897  11.152  0.4883 -0.5975 -0.5112
 1845SOL     OW 7541   9.238  11.166   9.870  0.4111 -0.2619 -0.1634
 1845SOL    HW1 7542   9.254  11.080   9.908 -0.5144  0.1048  1.1425
 1845SOL    HW2 7543   9.187  11.212   9.936 -4.2440 -0.6758 -2.9959
 1846SOL     OW 7544   4.495   4.527   9.611 -0.0937 -0.0624 -0.9051
 1846SOL    HW1 7545   4.490   4.617   9.577  0.4849  0.6327  0.7553
 1846SOL    HW2 7546   4.421   4.482   9.569 -2.2945  2.0033  0.4999
 1847SOL     OW 7547  10.744   1.407   5.263 -0.2407  0.2625  0.0871
 1847SOL    HW1 7548  10.778   1.318   5.255  0.8375  0.6524  0.1076
 1847SOL    HW2 7549  10.688   1.405   5.340 -0.3313 -0.4249  0.0094
 1848SOL     OW 7550   1.345   8.631   0.326  0.1708 -0.0961 -0.4184
 1848SOL    HW1 7551   1.263   8.589   0.350  0.6753 -0.4740  0.6822
 1848SOL    HW2 7552   1.321   8.722   0.306 -0.5485 -0.2793 -0.3963
 1849SOL     OW 7553   3.570  10.766   3.686  0.3313  0.2641 -0.1673
 1849SOL    HW1 7554   3.512  10.822   3.634  0.3631  0.1220 -0.3589
 1849SOL    HW2 7555   3.510  10.714   3.741  0.3746  2.3327  1.9614
 1850SOL     OW 7556   2.212   2.607   4.697 -0.0257  0.3194  0.6431
 1850SOL    HW1 7557   2.241   2.665   4.626 -0.7396  0.3411  0.3623
 1850SOL    HW2 7558   2.128   2.644   4.725 -0.4545 -0.5294  0.5101
 1851SOL     OW 7559   5.549  10.801   9.063 -0.4611  0.3311 -0.7439
 1851SOL    HW1 7560   5.620  10.864   9.048  2.1169 -2.3276 -0.6642
 1851SOL    HW2 7561   5.501  10.798   8.980 -0.1014  1.7073 -1.0269
 1852SOL     OW 7562  11.274   8.406   3.865  0.1704 -0.8347 -0.7241
 1852SOL    HW1 7563  11.272   8.362   3.950 -0.9994  1.2131  0.3727
 1852SOL    HW2 7564  11.357   8.455   3.865 -0.6712  0.6552  0.0870
 1853SOL     OW 7565   1.277   0.480   6.853 -0.3843 -0.5268  0.1982
 1853SOL    HW1 7566   1.301   0.571   6.835 -2.4664  0.2475  1.0251
 1853SOL    HW2 7567   1.354   0.444   6.898  0.2565  0.9998  0.4044
 1854SOL     OW 7568   6.164   7.492   4.600  0.8191 -0.4303 -0.4216
 1854SOL    HW1 7569   6.078   7.466   4.633 -0.9491  2.0692 -2.6220
 1854SOL    HW2 7570   6.200   7.550   4.667 -0.6000  0.8403 -0.7097
 1855SOL     OW 7571   8.035   7.333   1.170  0.4353  0.3836  0.4451
 1855SOL    HW1 7572   8.049   7.276   1.094 -1.4033  1.1384 -0.5002
 1855SOL    HW2 7573   8.093   7.408   1.155 -0.0798  0.6335 -0.3290
 1856SOL     OW 7574   8.490   4.327  10.320  0.1353  0.0724 -0.7762
 1856SOL    HW1 7575   8.533   4.409  10.343  1.4034 -0.6665 -0.4059
 1856SOL    HW2 7576   8.489   4.325  10.225  1.1638 -0.0084 -0.7919
 1857SOL     OW 7577   5.726   0.612   6.545 -0.0645 -0.0647  0.0251
 1857SOL    HW1 7578   5.655   0.610   6.481  0.4852 -1.9777 -0.5887
 1857SOL    HW2 7579   5.790   0.673   6.508  0.3474 -1.3178 -1.3950
 1858SOL     OW 7580   0.379  10.231  10.670  0.0323 -0.5220 -0.4070
 1858SOL    HW1 7581   0.418  10.287  10.737 -0.4261  1.8833 -2.0259
 1858SOL    HW2 7582   0.451  10.176  10.640  0.4308 -1.0645  1.4484
 1859SOL     OW 7583   0.089   5.533   9.927 -0.4322 -0.7765 -0.0866
 1859SOL    HW1 7584   0.104   5.627   9.918 -1.3171 -0.6039  0.0765
 1859SOL    HW2 7585   0.154   5.493   9.869  0.7574 -0.1314  0.7561
 1860SOL     OW 7586   9.435   2.000   1.322  0.6704  0.1002  0.2550
 1860SOL    HW1 7587   9.376   1.934   1.359 -1.2849  0.9783 -1.1730
 1860SOL    HW2 7588   9.516   1.990   1.373 -0.8316 -0.8218  2.6326
 1861SOL     OW 7589   1.356   4.089   7.289 -0.4749  0.9921 -0.7546
 1861SOL    HW1 7590   1.416   4.158   7.317 -0.9989  0.6067  1.5373
 1861SOL    HW2 7591   1.324   4.118   7.204  2.9892  1.1540 -2.1714
 1862SOL     OW 7592   6.558   7.268   7.719  0.4176 -0.3018 -0.2164
 1862SOL    HW1 7593   6.597   7.356   7.718  0.9385 -0.5018  1.0916
 1862SOL    HW2 7594   6.624   7.213   7.677  0.4779 -0.2273 -0.2207
 1863SOL     OW 7595   8.638   6.988   5.316 -0.0267 -0.0790  0.0561
 1863SOL    HW1 7596   8.639   7.073   5.360 -0.5309  0.9375 -1.7800
 1863SOL    HW2 7597   8.728   6.957   5.321  0.0402  0.2713  1.2669
 1864SOL     OW 7598   3.774   7.692   4.959 -0.1213 -0.0201  0.1582
 1864SOL    HW1 7599   3.767   7.615   5.015  2.0684 -1.0377 -0.8433
 1864SOL    HW2 7600   3.844   7.671   4.898  0.2652  2.6044 -0.4344
 1865SOL     OW 7601   4.981   0.817   8.536 -0.1863  0.6104  0.1576
 1865SOL    HW1 7602   5.056   0.811   8.477 -1.3711 -0.6413 -1.3098
 1865SOL    HW2 7603   4.931   0.892   8.504 -0.6391  0.1543 -0.2234
 1866SOL     OW 7604   4.292   1.717   7.775 -0.6699 -0.7047 -0.1758
 1866SOL    HW1 7605   4.368   1.763   7.739 -0.5351  0.6028  1.6332
 1866SOL    HW2 7606   4.223   1.729   7.709  0.4176 -1.1402 -1.4261
 1867SOL     OW 7607   6.721  10.508   0.537 -0.1177 -0.7300  0.1078
 1867SOL    HW1 7608   6.759  10.576   0.481 -4.6819  0.0315 -2.6358
 1867SOL    HW2 7609   6.760  10.426   0.507  0.7551  0.0991 -1.1161
 1868SOL     OW 7610   6.700  10.142   2.108 -0.4351  0.3186  0.2814
 1868SOL    HW1 7611   6.678  10.228   2.142 -0.3567 -0.0194  1.2076
 1868SOL    HW2 7612   6.666  10.142   2.018 -0.1916  1.4041  0.1807
 1869SOL     OW 7613  10.134   2.799   0.478 -0.9287 -0.2009  0.4769
 1869SOL    HW1 7614  10.154   2.825   0.568  0.4906  1.4445 -0.2548
 1869SOL    HW2 7615  10.155   2.876   0.426 -3.0923 -0.6305 -1.1438
 1870SOL     OW 7616   9.318   3.614   0.159 -0.0316 -0.6259 -0.0305
 1870SOL    HW1 7617   9.273   3.557   0.221 -0.8360  0.4464  0.4006
 1870SOL    HW2 7618   9.257   3.687   0.144  1.2748  0.5285  0.0452
 1871SOL     OW 7619   0.730   4.311   5.797  0.1738 -0.3511 -0.2312
 1871SOL    HW1 7620   0.769   4.270   5.720  1.0772 -2.7303  1.3842
 1871SOL    HW2 7621   0.642   4.275   5.801 -0.0284  0.1180 -0.3717
 1872SOL     OW 7622   9.145   2.402  11.086  0.6031 -0.3995 -0.1527
 1872SOL    HW1 7623   9.078   2.471  11.086  2.2768  1.2983  0.1396
 1872SOL    HW2 7624   9.215   2.437  11.031  2.2755 -1.0757  1.4655
 1873SOL     OW 7625   4.059   2.060   7.859 -0.3076  0.0390  0.1110
 1873SOL    HW1 7626   4.079   1.982   7.807 -1.7609 -0.8103  0.7794
 1873SOL    HW2 7627   3.971   2.045   7.892 -0.6758  2.0490  0.1409
 1874SOL     OW 7628   7.759   8.705   5.223 -0.0198 -0.1410  1.0231
 1874SOL    HW1 7629   7.723   8.715   5.311 -1.2885  1.0279  0.4213
 1874SOL    HW2 7630   7.730   8.784   5.177  1.1592 -0.4219 -0.2695
 1875SOL     OW 7631   5.061   2.003   6.118 -0.1382 -0.8956  0.1902
 1875SOL    HW1 7632   5.049   2.090   6.155 -1.4878 -1.6005  1.4814
 1875SOL    HW2 7633   5.113   1.956   6.183 -0.1030 -1.3160 -0.1333
 1876SOL     OW 7634   5.724   2.884   7.737  0.0703 -0.6088  0.0646
 1876SOL    HW1 7635   5.739   2.863   7.829 -1.5902  1.2842  0.8436
 1876SOL    HW2 7636   5.629   2.882   7.727  0.1350  0.7456 -1.1829
 1877SOL     OW 7637   3.691   4.307   8.363  0.3727  0.3587 -0.2795
 1877SOL    HW1 7638   3.724   4.368   8.297 -0.7665  0.6939 -0.5676
 1877SOL    HW2 7639   3.769   4.278   8.410  1.2137  0.0641 -1.8062
 1878SOL     OW 7640   3.464  10.174   4.256 -0.2950  0.4471  0.0469
 1878SOL    HW1 7641   3.402  10.106   4.229 -0.8775  0.8686  0.3144
 1878SOL    HW2 7642   3.479  10.225   4.177 -3.3217  2.7399  0.7468
 1879SOL     OW 7643   8.334   4.744   3.463 -0.3351  0.3498 -0.5378
 1879SOL    HW1 7644   8.429   4.758   3.465 -0.4885  1.4226  0.5685
 1879SOL    HW2 7645   8.300   4.822   3.419 -0.7676  0.4007 -0.1154
 1880SOL     OW 7646   6.263   3.063   3.748  0.5619 -0.1892  0.0813
 1880SOL    HW1 7647   6.209   3.113   3.809  0.4731 -0.6468  0.3851
 1880SOL    HW2 7648   6.271   2.977   3.789 -0.6876 -0.9732 -1.2024
 1881SOL     OW 7649   8.264   4.485   9.182 -0.2670  0.0532  0.2208
 1881SOL    HW1 7650   8.188   4.458   9.234 -0.3741 -0.0110  0.0306
 1881SOL    HW2 7651   8.253   4.579   9.170 -0.4348  0.0057  0.0001
 1882SOL     OW 7652   6.771   8.468   4.089 -0.5271  0.2047 -0.8713
 1882SOL    HW1 7653   6.680   8.476   4.063 -1.1197 -1.1289  0.6484
 1882SOL    HW2 7654   6.786   8.374   4.096  0.4216  0.4353  0.6705
 1883SOL     OW 7655   6.157   5.714  11.195  0.7553 -1.5006 -0.4781
 1883SOL    HW1 7656   6.077   5.675  11.232 -0.0920 -0.2447 -0.9335
 1883SOL    HW2 7657   6.221   5.643  11.198 -0.7744 -3.0124 -1.4295
 1884SOL     OW 7658  10.522   1.096   6.449  0.1143  0.5292 -0.1434
 1884SOL    HW1 7659  10.481   1.010   6.442  1.5451 -0.1920 -0.0664
 1884SOL    HW2 7660  10.582   1.100   6.374 -0.1898  1.6170 -0.3487
 1885SOL     OW 7661   9.512   6.629   0.956 -0.1954  0.0618  0.1068
 1885SOL    HW1 7662   9.559   6.687   1.016  1.0137 -0.4974 -0.2500
 1885SOL    HW2 7663   9.484   6.555   1.011 -0.0643  0.0802  0.1989
 1886SOL     OW 7664   0.205   9.909   6.136 -0.5854 -0.2668 -0.0446
 1886SOL    HW1 7665   0.123   9.870   6.166 -0.6767  0.3493  0.5039
 1886SOL    HW2 7666   0.251   9.934   6.216  0.4427 -1.2027 -0.3158
 1887SOL     OW 7667   0.466  10.667   4.589  0.0413 -0.2647 -0.2484
 1887SOL    HW1 7668   0.375  10.671   4.559 -0.6497  0.2031  1.7727
 1887SOL    HW2 7669   0.506  10.746   4.553 -0.6690  0.1244 -0.2191
 1888SOL     OW 7670   3.012   9.227  10.265 -0.6934 -0.0099 -0.2167
 1888SOL    HW1 7671   3.001   9.311  10.309 -2.0437 -0.0975 -0.3468
 1888SOL    HW2 7672   2.924   9.190  10.261 -0.0699 -1.6171  0.2005
 1889SOL     OW 7673   8.661   6.052   1.059 -0.5357  0.8412  0.2894
 1889SOL    HW1 7674   8.637   6.049   0.967  1.0217 -0.6581 -0.1040
 1889SOL    HW2 7675   8.614   6.129   1.093 -4.3506 -0.7821 -0.7712
 1890SOL     OW 7676   4.783  10.069   4.415  0.2431 -0.8016  0.2534
 1890SOL    HW1 7677   4.756  10.149   4.368 -0.2516 -1.1984 -0.1577
 1890SOL    HW2 7678   4.703  10.040   4.459  0.1686 -1.5982 -0.3891
 1891SOL     OW 7679   8.810   4.300  10.458  0.0300 -0.4800  0.0467
 1891SOL    HW1 7680   8.791   4.298  10.552 -0.8160 -0.8452 -0.1227
 1891SOL    HW2 7681   8.746   4.361  10.422  0.7311  0.1080 -0.2193
 1892SOL     OW 7682   1.552   0.470   0.870  0.6931 -0.9903 -0.3237
 1892SOL    HW1 7683   1.492   0.441   0.802  0.2815 -1.9671  0.4389
 1892SOL    HW2 7684   1.510   0.548   0.907 -0.2848 -1.8417  0.4142
 1893SOL     OW 7685   5.551   3.971   8.788  0.1707  0.0683  0.6750
 1893SOL    HW1 7686   5.646   3.984   8.793 -0.0623  2.1747  0.7707
 1893SOL    HW2 7687   5.538   3.919   8.709  1.3629  0.5462  0.1320
 1894SOL     OW 7688   1.848   0.199   6.092  0.0391 -0.8563 -0.6441
 1894SOL    HW1 7689   1.865   0.142   6.016  1.7886  0.8499 -1.6076
 1894SOL    HW2 7690   1.934   0.236   6.113 -0.6862 -0.2136  1.3182
 1895SOL     OW 7691   5.798   2.239  10.726 -0.1049  0.1684 -0.4677
 1895SOL    HW1 7692   5.864   2.208  10.788  0.3248 -1.3858 -1.6275
 1895SOL    HW2 7693   5.848   2.282  10.657 -0.6182  2.4295  0.4718
 1896SOL     OW 7694   3.724   6.635   0.200  0.6042 -0.5420  0.4488
 1896SOL    HW1 7695   3.729   6.730   0.198  1.0257 -0.5409  1.2802
 1896SOL    HW2 7696   3.660   6.613   0.132  1.5594  0.2456 -0.7448
 1897SOL     OW 7697  10.208   4.873   2.453  0.2499 -0.2506  0.3378
 1897SOL    HW1 7698  10.202   4.897   2.361 -3.6539  3.0806  1.1545
 1897SOL    HW2 7699  10.293   4.906   2.481 -0.5317  3.5467 -1.1235
 1898SOL     OW 7700   0.576   0.589   2.609  0.0451  0.3329 -0.1847
 1898SOL    HW1 7701   0.548   0.616   2.696 -1.6622  0.1350 -0.6477
 1898SOL    HW2 7702   0.609   0.500   2.622  1.3540  0.8930  0.5204
 1899SOL     OW 7703   4.862  11.201   9.834 -0.3239 -0.1365  0.1748
 1899SOL    HW1 7704   4.884  11.225   9.924  2.6894  0.4279 -0.6078
 1899SOL    HW2 7705   4.782  11.251   9.814 -0.8713 -0.0380  2.3817
 1900SOL     OW 7706   6.616   0.198   7.093  0.1522 -0.1056 -0.3551
 1900SOL    HW1 7707   6.703   0.171   7.064  1.1947 -0.5663  2.8398
 1900SOL    HW2 7708   6.561   0.121   7.079  0.7805 -0.5734 -0.3128
 1901SOL     OW 7709   8.230   3.492   7.814  0.1406 -0.0336 -0.0039
 1901SOL    HW1 7710   8.177   3.474   7.892  0.2860 -0.5851 -0.0293
 1901SOL    HW2 7711   8.320   3.492   7.846  0.3191 -1.7883 -0.4262
 1902SOL     OW 7712   1.980   4.140   1.500 -0.1873  0.1261  0.5701
 1902SOL    HW1 7713   2.073   4.159   1.489 -0.6097  1.6161 -0.8928
 1902SOL    HW2 7714   1.944   4.218   1.542 -0.9538  0.0510  0.0745
 1903SOL     OW 7715   7.273   1.871   4.411  0.3844 -0.8703 -0.7015
 1903SOL    HW1 7716   7.267   1.797   4.351 -2.0162  0.4853 -2.3017
 1903SOL    HW2 7717   7.229   1.842   4.490  0.8095 -1.6416 -0.7403
 1904SOL     OW 7718   1.571   9.021   3.981  0.1501 -0.0871  0.3016
 1904SOL    HW1 7719   1.550   8.933   4.012 -0.3023  0.2629  1.0442
 1904SOL    HW2 7720   1.666   9.027   3.987  0.3571 -1.0807 -1.3518
 1905SOL     OW 7721   2.099  10.527   5.382 -0.0392  0.1334 -0.4653
 1905SOL    HW1 7722   2.062  10.482   5.458  1.1814  1.4301  0.9414
 1905SOL    HW2 7723   2.073  10.472   5.307 -0.8280 -1.4565  0.9102
 1906SOL     OW 7724   6.272   6.080   1.610 -0.0220  0.1062 -0.1291
 1906SOL    HW1 7725   6.194   6.028   1.625  0.0088 -0.1994 -0.9748
 1906SOL    HW2 7726   6.336   6.047   1.674 -0.5487  0.3108  0.5129
 1907SOL     OW 7727  10.758  10.276   8.840 -0.2902 -0.3363 -0.5871
 1907SOL    HW1 7728  10.760  10.242   8.930  0.0999  1.0358 -0.0481
 1907SOL    HW2 7729  10.847  10.310   8.826 -0.4432 -0.2534 -1.3830
 1908SOL     OW 7730   9.636   3.302  10.443  0.4725  0.4322  0.3193
 1908SOL    HW1 7731   9.692   3.354  10.386  2.0803 -0.5079  0.9880
 1908SOL    HW2 7732   9.695   3.262  10.507 -1.1211  0.4667  1.9121
 1909SOL     OW 7733   9.998   9.229   1.621  0.3639  0.5783 -0.2984
 1909SOL    HW1 7734  10.021   9.140   1.645 -1.0906  0.6001  1.2991
 1909SOL    HW2 7735   9.961   9.221   1.533  1.1268 -0.2336 -0.5581
 1910SOL     OW 7736   8.243   7.469   1.360 -0.5633  0.7007  0.1368
 1910SOL    HW1 7737   8.252   7.535   1.429  0.1352 -0.2917  1.0099
 1910SOL    HW2 7738   8.218   7.389   1.406 -1.8639  0.4353 -0.9574
 1911SOL     OW 7739   0.247   1.004   4.216  0.3068  0.2493 -0.6715
 1911SOL    HW1 7740   0.318   0.949   4.248  0.0382 -1.3275 -2.5792
 1911SOL    HW2 7741   0.288   1.087   4.194  1.6195 -0.6389 -1.7706
 1912SOL     OW 7742   3.279   1.476   8.620  0.3691  0.1043 -0.6228
 1912SOL    HW1 7743   3.234   1.448   8.700  1.5043  0.1030  0.0478
 1912SOL    HW2 7744   3.288   1.571   8.630 -1.3054  0.4099 -1.7404
 1913SOL     OW 7745  10.511   4.277   6.238  0.2269 -0.7005  0.5786
 1913SOL    HW1 7746  10.589   4.221   6.240  0.4597 -0.4520 -0.7748
 1913SOL    HW2 7747  10.447   4.231   6.293  1.0835 -1.2636  1.1283
 1914SOL     OW 7748   3.871   4.812   2.636 -0.8047 -0.1208  0.0317
 1914SOL    HW1 7749   3.878   4.717   2.621 -2.4159 -0.4219  0.8708
 1914SOL    HW2 7750   3.795   4.821   2.694 -1.5320  1.7838 -1.0998
 1915SOL     OW 7751   6.352   7.036   3.193  0.2463 -0.5268 -0.0784
 1915SOL    HW1 7752   6.407   6.984   3.135  0.9350 -0.8359  0.8279
 1915SOL    HW2 7753   6.398   7.035   3.277  0.0408  1.1645  0.0944
 1916SOL     OW 7754   2.205   4.873   8.878  1.3874  0.1052  0.7001
 1916SOL    HW1 7755   2.249   4.934   8.819  2.1476 -1.0332  0.0477
 1916SOL    HW2 7756   2.112   4.883   8.858  1.3872  1.9013  1.4636
 1917SOL     OW 7757   2.179   6.319   4.107  0.3003 -0.2950  0.2889
 1917SOL    HW1 7758   2.138   6.256   4.166  0.7953 -0.4024  0.5300
 1917SOL    HW2 7759   2.192   6.397   4.162 -0.7209  0.1786 -0.1321
 1918SOL     OW 7760   4.837   8.697   7.818 -0.2321 -0.9021 -0.0482
 1918SOL    HW1 7761   4.813   8.683   7.726  1.7261  0.1307 -0.7838
 1918SOL    HW2 7762   4.820   8.790   7.833  1.2176 -0.6207  0.0168
 1919SOL     OW 7763   7.999   0.144   0.689 -0.0611 -0.0258  0.4073
 1919SOL    HW1 7764   7.934   0.164   0.621 -0.4657 -2.3490  0.0378
 1919SOL    HW2 7765   8.081   0.131   0.641  0.1882  0.5755  0.6447
 1920SOL     OW 7766   0.481   7.108   8.655  0.0743 -0.9364  0.5355
 1920SOL    HW1 7767   0.395   7.148   8.667  1.2727  2.3879 -0.5356
 1920SOL    HW2 7768   0.516   7.098   8.743  0.2557  2.1001  0.9415
 1921SOL     OW 7769   0.867   8.912   4.578 -0.2388 -0.0921  0.0683
 1921SOL    HW1 7770   0.915   8.847   4.630  0.7848  0.8547  0.3603
 1921SOL    HW2 7771   0.808   8.954   4.641  0.5402  0.6129  0.3505
 1922SOL     OW 7772   3.080   2.828   9.613 -0.8365 -0.2580  0.0746
 1922SOL    HW1 7773   3.043   2.811   9.699 -3.3466  0.7135 -0.7327
 1922SOL    HW2 7774   3.072   2.745   9.566  1.0814 -0.9624  0.8882
 1923SOL     OW 7775  10.868   0.587   0.811 -0.0819  0.3147 -0.3051
 1923SOL    HW1 7776  10.817   0.662   0.842  0.1756  1.8021 -3.2188
 1923SOL    HW2 7777  10.802   0.528   0.774 -0.0739  0.1198 -0.0144
 1924SOL     OW 7778   3.681  10.788  11.022 -0.1076 -0.9654  0.4139
 1924SOL    HW1 7779   3.731  10.751  11.095  0.0083 -0.3096  0.6702
 1924SOL    HW2 7780   3.717  10.876  11.010  4.0401 -2.8318 -4.2384
 1925SOL     OW 7781   5.351   2.730   3.261 -0.5078 -0.0427 -0.5671
 1925SOL    HW1 7782   5.322   2.707   3.349 -1.0733  2.3780 -0.0640
 1925SOL    HW2 7783   5.294   2.801   3.234  0.0744 -0.3010 -2.6618
 1926SOL     OW 7784   8.472   5.016   5.097 -0.2093 -0.1864 -0.7633
 1926SOL    HW1 7785   8.443   4.974   5.017 -1.3273 -2.5115  0.7570
 1926SOL    HW2 7786   8.489   5.107   5.072 -0.1949 -0.9084 -3.6528
 1927SOL     OW 7787   5.713  10.879  11.260  0.3481 -0.4007 -0.2027
 1927SOL    HW1 7788   5.618  10.887  11.249  0.3834 -1.3490 -1.4578
 1927SOL    HW2 7789   5.733  10.790  11.231  1.7284  0.0836 -0.8212
 1928SOL     OW 7790  10.552   4.331   3.825  0.5345  0.5184 -0.0026
 1928SOL    HW1 7791  10.596   4.298   3.903  2.3644  1.4731 -0.5745
 1928SOL    HW2 7792  10.594   4.415   3.807  2.3649 -0.9827 -3.7403
 1929SOL     OW 7793   0.438   2.881   8.456 -0.6690  0.0255  0.5647
 1929SOL    HW1 7794   0.479   2.831   8.527  0.9571 -0.2731 -0.5292
 1929SOL    HW2 7795   0.421   2.817   8.388 -0.8542  0.5580  0.1033
 1930SOL     OW 7796   3.006  10.557   5.956  0.3082  0.0096 -0.5376
 1930SOL    HW1 7797   2.919  10.571   5.993 -0.0882 -1.6454 -0.7861
 1930SOL    HW2 7798   3.018  10.630   5.895 -0.2297  1.1325  0.6384
 1931SOL     OW 7799   3.179   9.146   5.682 -0.7512 -0.1612 -0.4056
 1931SOL    HW1 7800   3.223   9.196   5.751  0.8231  2.3458 -3.0098
 1931SOL    HW2 7801   3.118   9.209   5.643  0.5831 -0.4725 -3.1820
 1932SOL     OW 7802   5.004   4.787   1.460  0.3211 -0.4994 -0.6455
 1932SOL    HW1 7803   5.006   4.881   1.479 -1.5382 -0.7295  0.9798
 1932SOL    HW2 7804   5.089   4.755   1.493  0.0869  0.2924  0.8086
 1933SOL     OW 7805   1.620   4.572   2.422 -0.2986  0.5044 -0.5420
 1933SOL    HW1 7806   1.614   4.665   2.398 -1.5333  0.0052 -2.4010
 1933SOL    HW2 7807   1.561   4.562   2.497 -1.7789  0.8802 -1.6051
 1934SOL     OW 7808   6.388   4.292   9.144 -0.0055 -0.6059  0.2767
 1934SOL    HW1 7809   6.339   4.367   9.177  0.8226  0.0120  0.1495
 1934SOL    HW2 7810   6.475   4.303   9.183  0.4780 -0.8224 -0.7316
 1935SOL     OW 7811   1.105   4.190   1.700 -0.1929  0.7014 -0.2067
 1935SOL    HW1 7812   1.139   4.249   1.768  1.1197  0.0891 -0.2919
 1935SOL    HW2 7813   1.109   4.103   1.740 -1.3442  0.5682 -0.3647
 1936SOL     OW 7814   3.359  11.209   2.954 -0.3194 -0.7627  0.1974
 1936SOL    HW1 7815   3.402  11.277   2.903 -0.0970 -0.9712  0.1017
 1936SOL    HW2 7816   3.283  11.252   2.994  0.4238 -0.1806  1.0212
 1937SOL     OW 7817   3.255   2.283   0.601 -0.3677 -1.2359 -0.2004
 1937SOL    HW1 7818   3.191   2.264   0.670 -0.7038 -0.9700 -0.4376
 1937SOL    HW2 7819   3.282   2.373   0.618 -0.9944 -0.9173 -0.8456
 1938SOL     OW 7820   2.548   6.145   7.985  0.7050 -0.2530  0.0995
 1938SOL    HW1 7821   2.491   6.103   7.920  0.8461 -1.1984  0.5620
 1938SOL    HW2 7822   2.599   6.072   8.021  1.7773  0.4899  0.1214
 1939SOL     OW 7823   5.348   2.979   0.647  0.4212  0.1417  0.2114
 1939SOL    HW1 7824   5.343   3.011   0.737 -2.5912  0.8827 -0.0908
 1939SOL    HW2 7825   5.352   3.059   0.594 -1.7610 -0.0548 -0.3642
 1940SOL     OW 7826   3.318   1.552   1.138  0.3245 -0.6115  0.5428
 1940SOL    HW1 7827   3.298   1.555   1.045  0.7834 -2.2778  0.3546
 1940SOL    HW2 7828   3.341   1.642   1.161  0.7357 -0.2729 -1.0795
 1941SOL     OW 7829  11.207   2.196   7.714 -0.4681  0.3991  0.4445
 1941SOL    HW1 7830  11.119   2.218   7.684 -1.9385 -2.2776  2.3908
 1941SOL    HW2 7831  11.235   2.272   7.764 -0.7865  2.0778 -1.7483
 1942SOL     OW 7832   7.796   0.168   5.656 -0.4984  0.1086 -0.7186
 1942SOL    HW1 7833   7.874   0.223   5.660 -0.5672  0.1636 -0.0575
 1942SOL    HW2 7834   7.726   0.222   5.693 -1.2805  0.7462 -2.9609
 1943SOL     OW 7835   6.919   3.117   5.519 -0.1925 -0.0810  0.2040
 1943SOL    HW1 7836   6.836   3.071   5.505 -0.9356  0.8206  1.3837
 1943SOL    HW2 7837   6.932   3.114   5.614  0.9868  0.0557  0.0663
 1944SOL     OW 7838   7.861   2.662   0.109  0.5629 -0.8164 -0.0656
 1944SOL    HW1 7839   7.864   2.711   0.027  1.2142 -0.5573  0.1012
 1944SOL    HW2 7840   7.769   2.664   0.136  0.0505 -2.2467 -1.5766
 1945SOL     OW 7841   2.938   4.224   5.888  0.2886 -0.1162 -0.4483
 1945SOL    HW1 7842   2.887   4.227   5.807 -0.0435  0.5981 -0.2223
 1945SOL    HW2 7843   2.956   4.131   5.902 -2.6043 -0.6269  0.4983
 1946SOL     OW 7844   4.575   4.986   5.190 -0.6509  0.5651  0.9913
 1946SOL    HW1 7845   4.502   4.991   5.128 -0.3634  0.0618  0.5987
 1946SOL    HW2 7846   4.592   5.077   5.214  0.8929  1.1078 -1.6722
 1947SOL     OW 7847   0.014   7.064   2.632  0.1788 -0.1998 -0.3097
 1947SOL    HW1 7848   0.097   7.069   2.584 -0.3432  1.9792 -1.1239
 1947SOL    HW2 7849   0.002   6.971   2.650  2.8379 -0.5824 -0.0566
 1948SOL     OW 7850  10.599   5.698   6.994  0.1978  0.3357  0.6485
 1948SOL    HW1 7851  10.566   5.622   6.946 -0.9137  0.6514  0.8885
 1948SOL    HW2 7852  10.591   5.771   6.933 -1.9797  0.8975  1.5018
 1949SOL     OW 7853   3.315   5.884   9.677  0.0394 -0.2790 -0.1939
 1949SOL    HW1 7854   3.403   5.904   9.644  0.1084  4.1325  1.9517
 1949SOL    HW2 7855   3.262   5.875   9.598  1.8131  0.3353 -1.5410
 1950SOL     OW 7856   8.032   5.239  10.841 -0.1961  0.6630 -0.2043
 1950SOL    HW1 7857   8.044   5.289  10.922  1.2314 -1.5117  1.0331
 1950SOL    HW2 7858   8.076   5.292  10.774 -2.2597  2.9886  0.1431
 1951SOL     OW 7859   2.274   8.887   4.821  0.3304 -0.3753  0.3458
 1951SOL    HW1 7860   2.213   8.921   4.887 -0.9400 -0.8330 -0.5527
 1951SOL    HW2 7861   2.326   8.821   4.867 -1.3081 -1.5000  0.6467
 1952SOL     OW 7862   9.396  10.521   9.597  0.0397 -0.0445  0.0751
 1952SOL    HW1 7863   9.370  10.602   9.641  1.4631  0.2466  0.4342
 1952SOL    HW2 7864   9.486  10.538   9.566  0.6675 -1.7295  0.8472
 1953SOL     OW 7865  10.813   2.109  10.117  0.5639  0.0106  0.1113
 1953SOL    HW1 7866  10.796   2.139  10.206  1.8889  1.3344 -0.0477
 1953SOL    HW2 7867  10.814   2.189  10.064  0.6198 -0.6729 -0.9592
 1954SOL     OW 7868   3.619   8.183   7.911  0.5265 -0.0799  0.6109
 1954SOL    HW1 7869   3.557   8.221   7.849  2.0924 -0.1946 -1.0857
 1954SOL    HW2 7870   3.674   8.125   7.859  1.8428 -0.2764  2.1299
 1955SOL     OW 7871  10.516   3.638   7.316  0.3560  0.1328  0.8313
 1955SOL    HW1 7872  10.515   3.623   7.222 -2.0677  0.6700  0.7265
 1955SOL    HW2 7873  10.571   3.567   7.351  4.1522  1.7783 -1.1684
 1956SOL     OW 7874   8.752   4.644   4.557  0.2088  0.2896 -0.5810
 1956SOL    HW1 7875   8.706   4.718   4.598  0.3642 -0.5694  1.2253
 1956SOL    HW2 7876   8.843   4.656   4.581  0.3669 -0.0418 -1.0070
 1957SOL     OW 7877   5.264   8.437   7.287  0.0184 -1.0219  0.0198
 1957SOL    HW1 7878   5.296   8.352   7.256  2.8966 -0.0010 -0.0810
 1957SOL    HW2 7879   5.240   8.422   7.378 -0.7188 -2.2112 -0.3526
 1958SOL     OW 7880   6.785   0.866   1.708 -0.1329  0.0197 -0.6593
 1958SOL    HW1 7881   6.768   0.921   1.632  2.0057  0.9019 -0.5646
 1958SOL    HW2 7882   6.774   0.776   1.676 -2.9562  0.3779 -0.9979
 1959SOL     OW 7883   3.672   4.679   9.314 -0.5978 -0.6273 -0.5892
 1959SOL    HW1 7884   3.738   4.668   9.382  0.0369 -0.5245 -1.1741
 1959SOL    HW2 7885   3.602   4.729   9.356  0.1189  0.0899 -0.2175
 1960SOL     OW 7886   5.807   7.083   4.622  0.1201  0.0959  0.2760
 1960SOL    HW1 7887   5.731   7.044   4.579 -1.8033  1.2139  2.4202
 1960SOL    HW2 7888   5.793   7.065   4.715  1.2731  2.3035  0.9426
 1961SOL     OW 7889   0.371   0.198   0.279 -0.0803 -0.3503  0.0957
 1961SOL    HW1 7890   0.448   0.145   0.300 -1.0540 -0.7687  2.9476
 1961SOL    HW2 7891   0.332   0.155   0.203  2.2030 -0.3713 -1.1531
 1962SOL     OW 7892   0.450   8.055   6.874 -0.1777  0.1109 -0.1941
 1962SOL    HW1 7893   0.425   8.046   6.966  1.6778 -1.3748  0.2240
 1962SOL    HW2 7894   0.528   8.111   6.876 -1.1715  1.6191 -1.0981
 1963SOL     OW 7895   8.055   8.537   0.533  0.4026  0.1481 -0.3913
 1963SOL    HW1 7896   8.127   8.585   0.574  1.5993 -1.1576 -0.8783
 1963SOL    HW2 7897   8.032   8.590   0.456 -1.2191  2.1133  1.3467
 1964SOL     OW 7898   6.531   0.152   2.188 -0.7873 -0.8373 -0.2104
 1964SOL    HW1 7899   6.505   0.243   2.203  0.3714 -0.2745 -1.3308
 1964SOL    HW2 7900   6.485   0.127   2.108 -0.8685 -1.1319 -0.0725
 1965SOL     OW 7901   5.165   0.067   1.934  0.4042  0.4048 -0.2592
 1965SOL    HW1 7902   5.113  -0.006   1.967 -2.1473  1.8874 -0.7156
 1965SOL    HW2 7903   5.196   0.112   2.013  0.1234  0.0834  0.0367
 1966SOL     OW 7904   0.330   8.611   8.816  0.3372  0.1351 -0.2380
 1966SOL    HW1 7905   0.348   8.689   8.869 -0.1163  0.1726 -0.1349
 1966SOL    HW2 7906   0.235   8.601   8.820  0.4546 -0.8633  0.3808
 1967SOL     OW 7907   5.787   1.151   4.291  0.7240  0.0512 -0.2110
 1967SOL    HW1 7908   5.762   1.125   4.203  1.0622  1.4515 -0.7518
 1967SOL    HW2 7909   5.705   1.178   4.332  0.7532  0.7221 -0.5815
 1968SOL     OW 7910   5.484  10.863   5.206 -0.2595  0.0288 -0.8465
 1968SOL    HW1 7911   5.499  10.957   5.203 -1.1259  0.1550 -2.1400
 1968SOL    HW2 7912   5.561  10.825   5.163 -0.3726  0.2085 -1.2069
 1969SOL     OW 7913   4.906   4.064   9.824 -0.3045 -0.0219  0.4709
 1969SOL    HW1 7914   4.905   4.105   9.737  1.4599  1.0265  0.9064
 1969SOL    HW2 7915   4.842   4.115   9.875 -2.5001 -1.5905 -0.5458
 1970SOL     OW 7916   3.540   8.633   3.971  0.6992 -0.3578 -0.8440
 1970SOL    HW1 7917   3.524   8.554   4.023  1.6167  0.5040  0.8271
 1970SOL    HW2 7918   3.513   8.609   3.882  0.3655 -2.3355 -0.2581
 1971SOL     OW 7919   7.886   9.180   0.420 -0.8461  0.9805 -0.4259
 1971SOL    HW1 7920   7.816   9.122   0.449 -0.6733 -0.5175 -2.7241
 1971SOL    HW2 7921   7.882   9.176   0.324  4.5144 -2.1651 -0.9713
 1972SOL     OW 7922  10.363   7.129   4.901  0.5581 -0.3690  0.3232
 1972SOL    HW1 7923  10.368   7.223   4.919 -1.1302 -0.2883  0.6153
 1972SOL    HW2 7924  10.449   7.095   4.924  0.8943  0.9640  1.1563
 1973SOL     OW 7925   2.607   5.536  11.147  0.9535 -0.4719 -1.0722
 1973SOL    HW1 7926   2.528   5.589  11.136  0.3696 -1.2607 -0.6847
 1973SOL    HW2 7927   2.632   5.549  11.239  1.8384  0.5284 -1.4226
 1974SOL     OW 7928   9.696   4.190   7.444  1.0449  0.7853 -0.6144
 1974SOL    HW1 7929   9.608   4.200   7.408 -0.0325 -2.4747  0.7964
 1974SOL    HW2 7930   9.721   4.100   7.423  2.6889  0.5864  1.7588
 1975SOL     OW 7931   0.346   3.911   5.297  0.0385 -0.0843  0.2807
 1975SOL    HW1 7932   0.403   3.986   5.281 -0.2870  0.2658  0.7125
 1975SOL    HW2 7933   0.266   3.931   5.249  0.6510 -1.0831 -1.2314
 1976SOL     OW 7934   3.342   7.660   4.191  0.3015 -0.1364  0.4881
 1976SOL    HW1 7935   3.248   7.674   4.199  0.3825 -0.1827  1.7844
 1976SOL    HW2 7936   3.370   7.637   4.280  1.3421 -1.3346 -0.1288
 1977SOL     OW 7937   4.526  11.048   0.785  0.8128 -0.0523 -0.7034
 1977SOL    HW1 7938   4.462  11.058   0.715 -2.6791  0.0785  2.2128
 1977SOL    HW2 7939   4.547  10.955   0.786  0.1072 -0.2198 -1.2571
 1978SOL     OW 7940   8.055   5.796   7.820  0.0894  0.2606  0.0474
 1978SOL    HW1 7941   8.136   5.842   7.841 -0.2438  1.3298 -0.9372
 1978SOL    HW2 7942   8.076   5.744   7.743  0.1326 -0.3456  0.4574
 1979SOL     OW 7943   5.051   4.417   1.289 -0.4468 -0.9554 -0.5989
 1979SOL    HW1 7944   5.124   4.473   1.263 -1.0335 -0.5679 -1.4797
 1979SOL    HW2 7945   4.974   4.472   1.277 -0.8628 -1.2551  0.6363
 1980SOL     OW 7946   4.911  10.929   7.729 -0.1778 -0.7680 -0.2588
 1980SOL    HW1 7947   4.833  10.980   7.751 -0.2411 -0.9051 -0.1616
 1980SOL    HW2 7948   4.927  10.947   7.637  1.0000  1.0691  0.2245
 1981SOL     OW 7949   6.358  10.505   2.668  0.9312  0.6150 -0.1221
 1981SOL    HW1 7950   6.397  10.488   2.753 -1.3937  1.1408  1.1170
 1981SOL    HW2 7951   6.327  10.419   2.638  3.0597  0.1637 -1.1963
 1982SOL     OW 7952  10.524   5.079   4.278  0.1422  0.5307 -0.9729
 1982SOL    HW1 7953  10.471   5.000   4.265  0.3370  0.7220 -3.3985
 1982SOL    HW2 7954  10.549   5.076   4.371  0.2349 -2.3034 -1.0030
 1983SOL     OW 7955   9.959   5.556  10.927 -0.2008  0.3002  0.7324
 1983SOL    HW1 7956   9.933   5.646  10.903 -0.1032  0.1502  0.0283
 1983SOL    HW2 7957  10.037   5.568  10.981  0.6786  0.6086 -0.5411
 1984SOL     OW 7958   3.470   1.562   1.948  0.0871  0.1494  0.0852
 1984SOL    HW1 7959   3.390   1.520   1.979 -1.6876  2.8873 -0.4633
 1984SOL    HW2 7960   3.521   1.491   1.908 -3.1664 -1.3572 -1.7253
 1985SOL     OW 7961   5.783   6.081  10.380  0.4451 -0.4711 -0.1715
 1985SOL    HW1 7962   5.775   6.103  10.287  0.0413 -3.0233 -0.8057
 1985SOL    HW2 7963   5.877   6.064  10.392  0.8224  1.7000  0.4120
 1986SOL     OW 7964   9.481  10.918   5.479 -0.3342 -0.4830 -0.1046
 1986SOL    HW1 7965   9.540  10.882   5.545  0.4944 -1.0731 -1.1298
 1986SOL    HW2 7966   9.394  10.908   5.516  0.0703 -1.3381  0.6542
 1987SOL     OW 7967   1.225   4.107   7.599 -0.2003 -0.1474 -0.1899
 1987SOL    HW1 7968   1.256   4.056   7.674  2.8412  0.2987 -1.0126
 1987SOL    HW2 7969   1.186   4.042   7.541 -0.3838 -0.8593  0.6992
 1988SOL     OW 7970   2.125   5.900   3.899 -0.1459 -0.7684 -0.0952
 1988SOL    HW1 7971   2.061   5.969   3.915 -0.9156 -1.3089 -0.7639
 1988SOL    HW2 7972   2.200   5.946   3.860 -1.0854 -0.4179 -1.6033
 1989SOL     OW 7973   4.442   7.141   1.315 -0.4185 -0.1122 -0.1928
 1989SOL    HW1 7974   4.527   7.183   1.330 -0.4407 -0.7091  1.9544
 1989SOL    HW2 7975   4.379   7.214   1.312 -0.0743  0.2036  0.2038
 1990SOL     OW 7976   2.264  10.939  10.244 -0.3938  0.1982 -0.4781
 1990SOL    HW1 7977   2.323  11.015  10.240  1.6408 -1.1873  1.3316
 1990SOL    HW2 7978   2.184  10.973  10.285  1.0553  1.0945  1.7752
 1991SOL     OW 7979  11.232   9.762   7.515  0.4717 -0.1927 -0.3295
 1991SOL    HW1 7980  11.189   9.677   7.527 -0.8643  0.5145  0.0877
 1991SOL    HW2 7981  11.268   9.783   7.601 -1.4603  0.8153  0.3042
 1992SOL     OW 7982   9.399   5.047   7.662  0.8068 -0.0688  0.4058
 1992SOL    HW1 7983   9.403   4.962   7.619 -0.8045 -0.5976  1.2553
 1992SOL    HW2 7984   9.406   5.110   7.590  0.0792 -0.9282 -0.4483
 1993SOL     OW 7985   3.418   8.937   0.477 -0.3124  0.2105 -0.2599
 1993SOL    HW1 7986   3.438   8.964   0.566 -0.8981  3.2303 -0.9437
 1993SOL    HW2 7987   3.352   8.867   0.487 -0.6974  0.8050  1.6549
 1994SOL     OW 7988   8.283  11.134   5.030  0.0901 -0.3013 -0.0151
 1994SOL    HW1 7989   8.277  11.219   5.072 -0.6117 -2.3220  4.5896
 1994SOL    HW2 7990   8.375  11.108   5.041  0.5512  0.1416 -2.2998
 1995SOL     OW 7991   7.391   1.273   3.540 -0.6977 -0.5278 -0.6544
 1995SOL    HW1 7992   7.434   1.323   3.472 -2.3680  1.2858 -0.4867
 1995SOL    HW2 7993   7.442   1.193   3.549 -0.3248 -0.7511 -3.8861
 1996SOL     OW 7994   0.739   7.718   3.069 -0.1672  0.1614 -0.1190
 1996SOL    HW1 7995   0.798   7.772   3.016 -1.7764  1.1373 -0.9671
 1996SOL    HW2 7996   0.674   7.685   3.008 -1.1181 -0.0526  0.9741
 1997SOL     OW 7997   7.506   6.751   2.063 -0.3188 -0.5388  0.0763
 1997SOL    HW1 7998   7.538   6.840   2.048 -0.5456 -0.3130  0.9204
 1997SOL    HW2 7999   7.550   6.699   1.995  0.3069  0.1021 -0.0258
 1998SOL     OW 8000  11.022   5.975   1.765  0.4235  0.1940  0.1061
 1998SOL    HW1 8001  11.012   6.011   1.852 -0.1557  0.0868  0.0867
 1998SOL    HW2 8002  10.964   5.899   1.763 -0.7022  1.0427 -0.8425
 1999SOL     OW 8003   4.091   9.520   4.884  0.1274  0.1578 -0.0149
 1999SOL    HW1 8004   4.132   9.598   4.846 -1.6354  1.8820  1.4494
 1999SOL    HW2 8005   4.068   9.466   4.808  0.4087  1.5559 -1.1314
 2000SOL     OW 8006   5.564   2.590   0.625 -0.4369  0.3329 -0.5738
 2000SOL    HW1 8007   5.508   2.539   0.568  0.1851 -1.9598  0.7334
 2000SOL    HW2 8008   5.630   2.528   0.656  0.2429  1.8725  1.2961
 2001SOL     OW 8009   7.331   5.751   5.483  0.1764  0.3547  0.3905
 2001SOL    HW1 8010   7.280   5.729   5.405 -0.9973 -1.1680  1.5086
 2001SOL    HW2 8011   7.411   5.699   5.475  0.4883  0.9063 -0.2111
 2002SOL     OW 8012   7.262   7.931   2.010  0.0538  0.2912 -0.0197
 2002SOL    HW1 8013   7.325   7.875   1.966 -0.1628  1.0868 -1.4024
 2002SOL    HW2 8014   7.179   7.883   2.005 -0.7760  1.7477 -3.6652
 2003SOL     OW 8015   0.071   7.737   3.938 -0.7868 -0.2866 -0.7477
 2003SOL    HW1 8016   0.126   7.773   3.868  0.4280  1.0645  0.8383
 2003SOL    HW2 8017  -0.014   7.778   3.925 -0.9443 -0.9598 -2.0991
 2004SOL     OW 8018   0.398   2.598   3.703 -0.0308  0.1340  0.4965
 2004SOL    HW1 8019   0.480   2.569   3.745  0.8838 -0.0619 -1.3438
 2004SOL    HW2 8020   0.367   2.521   3.655 -0.3980  0.7000 -0.1818
 2005SOL     OW 8021   1.130   4.471  10.772 -0.3919 -0.3480  0.7126
 2005SOL    HW1 8022   1.225   4.466  10.782 -0.2594  1.8580  1.0907
 2005SOL    HW2 8023   1.098   4.481  10.862 -0.6187  2.5460  0.4078
 2006SOL     OW 8024   8.582   6.358  10.905  0.4405  0.3038  0.3040
 2006SOL    HW1 8025   8.497   6.329  10.939 -0.0921  2.7001  1.1908
 2006SOL    HW2 8026   8.572   6.353  10.810  0.9755 -3.7776  0.2971
 2007SOL     OW 8027   2.333  10.011  10.253  0.0252 -0.8096  0.4130
 2007SOL    HW1 8028   2.286  10.026  10.171  0.7712  2.7788  0.4611
 2007SOL    HW2 8029   2.272  10.041  10.321  1.7060  2.9215  0.5365
 2008SOL     OW 8030   8.786   9.186   7.949 -0.1244  0.3542 -1.0277
 2008SOL    HW1 8031   8.748   9.098   7.947 -3.2232  1.5441 -0.6532
 2008SOL    HW2 8032   8.791   9.211   7.857 -1.6903  0.6738 -1.0542
 2009SOL     OW 8033   2.616  10.275   5.352 -0.3620  0.1536  0.0719
 2009SOL    HW1 8034   2.642  10.221   5.426  0.2615 -0.4047 -0.5475
 2009SOL    HW2 8035   2.572  10.351   5.392 -0.3299 -0.3009  0.9859
 2010SOL     OW 8036  10.763   6.232   6.263  0.5943 -0.1533 -0.3959
 2010SOL    HW1 8037  10.725   6.164   6.318  0.8020 -0.3878 -0.5426
 2010SOL    HW2 8038  10.689   6.267   6.213  0.5332 -0.4588 -0.5189
 2011SOL     OW 8039   3.860   9.589   1.068 -0.4516 -0.4809  0.1828
 2011SOL    HW1 8040   3.873   9.622   1.157  0.9696  0.1838 -0.2375
 2011SOL    HW2 8041   3.852   9.668   1.014  1.7192 -0.7719 -0.6639
 2012SOL     OW 8042   2.022   0.231   2.757 -0.1676  0.4804  0.0898
 2012SOL    HW1 8043   2.116   0.225   2.740 -0.2386  0.1760 -0.2094
 2012SOL    HW2 8044   1.982   0.175   2.690 -0.6269  1.4566 -0.4884
 2013SOL     OW 8045   0.320   3.568   9.136 -0.1277 -0.7915  0.4693
 2013SOL    HW1 8046   0.372   3.537   9.210  1.7067  0.6980 -0.0976
 2013SOL    HW2 8047   0.234   3.587   9.173 -0.0778 -2.5913  1.6238
 2014SOL     OW 8048  10.053  11.122   5.673  0.2739  0.1675 -0.9187
 2014SOL    HW1 8049  10.113  11.183   5.714  0.2637  0.9627 -2.0212
 2014SOL    HW2 8050  10.009  11.174   5.605 -2.7390  0.0299  0.7595
 2015SOL     OW 8051   8.327   5.771   0.630  0.1439 -0.4676  0.2071
 2015SOL    HW1 8052   8.339   5.681   0.601  1.4598  0.2379 -1.6838
 2015SOL    HW2 8053   8.387   5.780   0.705 -0.7079 -1.3927  1.0218
 2016SOL     OW 8054   2.471   0.965   9.173 -0.2926  0.3744  0.5894
 2016SOL    HW1 8055   2.437   0.995   9.089 -1.4460  2.0723  1.5966
 2016SOL    HW2 8056   2.492   0.873   9.159 -0.9912  0.4656 -1.3744
 2017SOL     OW 8057   7.790   5.691   5.912  0.5149  0.3029 -0.1723
 2017SOL    HW1 8058   7.700   5.689   5.881  0.6757 -0.6514 -0.6225
 2017SOL    HW2 8059   7.815   5.783   5.907 -0.6583  0.6893  0.6382
 2018SOL     OW 8060   2.931   3.475   9.983 -0.3126  0.0208 -0.4700
 2018SOL    HW1 8061   2.940   3.503  10.074  1.1059 -1.4017 -0.1221
 2018SOL    HW2 8062   3.009   3.510   9.940  2.6905 -4.6391  0.4256
 2019SOL     OW 8063   8.075   9.411   6.434 -1.5376  0.3775  0.6547
 2019SOL    HW1 8064   8.027   9.494   6.438 -1.2495  0.5829 -0.0557
 2019SOL    HW2 8065   8.057   9.369   6.518  0.7456  2.5133  2.3350
 2020SOL     OW 8066   3.709   8.043  10.273  0.4830 -0.0173 -0.0323
 2020SOL    HW1 8067   3.752   7.963  10.303  2.1522  1.2291  1.1128
 2020SOL    HW2 8068   3.780   8.096  10.236 -0.6441  0.7772 -1.1507
 2021SOL     OW 8069   2.783   1.183   5.569 -0.3091 -0.9251 -0.2532
 2021SOL    HW1 8070   2.852   1.181   5.503 -0.5532 -0.7272 -0.5173
 2021SOL    HW2 8071   2.710   1.136   5.529  0.2509 -2.6908  0.7002
 2022SOL     OW 8072   8.988   2.645   3.072  0.5633 -0.4879 -0.0374
 2022SOL    HW1 8073   8.926   2.615   3.005  1.2224 -2.5715  0.1954
 2022SOL    HW2 8074   9.014   2.732   3.044 -2.4249  0.4633 -0.1521
 2023SOL     OW 8075   6.128   7.578   7.914 -0.0877  0.3664  0.1486
 2023SOL    HW1 8076   6.113   7.483   7.910 -0.8813  0.5078 -0.3133
 2023SOL    HW2 8077   6.041   7.617   7.912  0.2047  1.1039  0.9024
 2024SOL     OW 8078   3.515   9.771   8.522 -0.3677  0.3710  1.2717
 2024SOL    HW1 8079   3.436   9.814   8.489  0.1739  0.2946 -0.2247
 2024SOL    HW2 8080   3.498   9.678   8.512  0.7337  0.3461 -1.3548
 2025SOL     OW 8081   4.410   5.409   2.563  0.4810  0.7951  0.0680
 2025SOL    HW1 8082   4.371   5.329   2.528  1.1680  1.1728 -1.6673
 2025SOL    HW2 8083   4.390   5.407   2.656 -0.4364 -0.8595 -0.1331
 2026SOL     OW 8084   1.251   9.517   1.724  0.4097 -0.0351  0.2612
 2026SOL    HW1 8085   1.192   9.550   1.791 -0.3052 -0.8943  0.0770
 2026SOL    HW2 8086   1.282   9.433   1.758 -0.5334 -0.8391 -0.7649
 2027SOL     OW 8087   3.758   4.756   4.222 -0.5071 -0.1491 -0.2324
 2027SOL    HW1 8088   3.673   4.775   4.262 -0.5016 -0.8902  0.1486
 2027SOL    HW2 8089   3.737   4.734   4.131 -0.4908  1.8513 -0.7721
 2028SOL     OW 8090   1.318   0.399   5.069  0.8806  0.5109 -0.5506
 2028SOL    HW1 8091   1.407   0.409   5.105  1.1484  1.8566 -1.5295
 2028SOL    HW2 8092   1.297   0.307   5.084  3.1445 -0.2994 -1.8701
 2029SOL     OW 8093   1.572  10.851  10.320 -0.3331 -0.1580 -0.3826
 2029SOL    HW1 8094   1.528  10.766  10.324  0.2336 -0.4153  1.0849
 2029SOL    HW2 8095   1.621  10.856  10.402  1.1035  0.7973 -1.2655
 2030SOL     OW 8096   0.725   2.767   9.564  0.3813  0.4711 -0.2464
 2030SOL    HW1 8097   0.702   2.792   9.654 -1.0143  2.1009 -0.9919
 2030SOL    HW2 8098   0.646   2.724   9.531  0.7721  0.1743 -0.7994
 2031SOL     OW 8099   8.426  10.111   4.285  1.0868 -0.6372 -0.1640
 2031SOL    HW1 8100   8.427  10.060   4.365  4.5599  0.4456  0.6263
 2031SOL    HW2 8101   8.381  10.192   4.309  2.2082 -0.2677  0.7863
 2032SOL     OW 8102   1.283   0.351   1.198  0.1547 -0.1101  0.2793
 2032SOL    HW1 8103   1.218   0.353   1.128  0.8751  0.8588 -0.3888
 2032SOL    HW2 8104   1.269   0.267   1.242  0.1898 -1.0822 -1.4997
 2033SOL     OW 8105   9.481   6.130   5.330  0.3888  0.0649  0.8162
 2033SOL    HW1 8106   9.463   6.037   5.347 -0.6469 -0.1603 -1.2483
 2033SOL    HW2 8107   9.546   6.129   5.259  2.2203  0.9545  2.3835
 2034SOL     OW 8108   0.737   5.137   1.853  0.2609  0.6241 -0.0202
 2034SOL    HW1 8109   0.726   5.103   1.942  1.3078  1.1412  0.3180
 2034SOL    HW2 8110   0.750   5.059   1.799 -1.5995  0.2097  0.0560
 2035SOL     OW 8111   1.934   8.161   3.883 -0.0567 -0.1049 -0.6209
 2035SOL    HW1 8112   1.906   8.102   3.813  0.5779  0.0465 -1.0159
 2035SOL    HW2 8113   1.878   8.238   3.873 -2.5803 -1.5268  1.3958
 2036SOL     OW 8114   6.586   0.761   8.141  0.2771 -0.2002 -0.1193
 2036SOL    HW1 8115   6.508   0.712   8.168  0.0821 -0.6016 -1.3632
 2036SOL    HW2 8116   6.565   0.852   8.162 -0.1091 -0.4208  0.4849
 2037SOL     OW 8117   4.828   7.816   9.462  0.3705 -0.2078 -0.6231
 2037SOL    HW1 8118   4.862   7.826   9.550 -1.6373  0.1041  0.1694
 2037SOL    HW2 8119   4.858   7.894   9.415 -0.2516  0.6474  0.3730
 2038SOL     OW 8120   2.705  11.161   6.990 -0.7135 -0.4842 -0.2297
 2038SOL    HW1 8121   2.766  11.234   6.983  0.8376 -1.4449  2.0208
 2038SOL    HW2 8122   2.677  11.162   7.082 -1.4979 -2.0765 -0.4104
 2039SOL     OW 8123   7.586   5.182  10.425  0.1122 -0.3989 -0.7947
 2039SOL    HW1 8124   7.664   5.187  10.480 -1.2077 -0.0565  1.1561
 2039SOL    HW2 8125   7.605   5.238  10.350  1.2225  0.7912  0.3397
 2040SOL     OW 8126   1.038   8.910   1.107  0.0032  0.4275 -0.3919
 2040SOL    HW1 8127   0.990   8.944   1.183  3.0256  1.5484  1.1487
 2040SOL    HW2 8128   0.981   8.930   1.032 -2.0698  1.3093  1.3158
 2041SOL     OW 8129   1.221   3.664   9.040 -0.2507  0.1248 -0.3397
 2041SOL    HW1 8130   1.195   3.642   8.950  2.9350  1.0826 -1.6254
 2041SOL    HW2 8131   1.155   3.726   9.069 -2.7383 -2.0038 -0.9970
 2042SOL     OW 8132   3.695   2.918  10.245  0.5770 -0.2360 -0.0608
 2042SOL    HW1 8133   3.773   2.876  10.210  0.4083  0.2320 -1.0391
 2042SOL    HW2 8134   3.722   2.955  10.329  0.9938 -1.3883  0.3307
 2043SOL     OW 8135   8.400   1.304   8.887  0.3685  0.4630 -0.4778
 2043SOL    HW1 8136   8.463   1.334   8.821  0.3534  1.5336 -0.0181
 2043SOL    HW2 8137   8.326   1.271   8.835  0.4730  1.0364 -1.0086
 2044SOL     OW 8138   7.749   7.847  11.265  0.3672 -0.3152  0.4138
 2044SOL    HW1 8139   7.670   7.793  11.256 -0.2524  0.1765  2.3484
 2044SOL    HW2 8140   7.800   7.828  11.186 -0.6577 -2.3414  0.1557
 2045SOL     OW 8141   2.766   9.702   9.309  0.4102  0.1863 -0.0412
 2045SOL    HW1 8142   2.841   9.666   9.357 -0.5950 -1.8991  0.0837
 2045SOL    HW2 8143   2.782   9.676   9.218 -0.6479 -1.2210  0.1491
 2046SOL     OW 8144  10.720   9.187   2.397 -0.6025 -0.1722 -0.0653
 2046SOL    HW1 8145  10.802   9.151   2.362 -0.8310  0.5317 -1.3944
 2046SOL    HW2 8146  10.713   9.274   2.357 -1.8710 -0.1234  0.2319
 2047SOL     OW 8147   5.893   2.973   0.299 -0.0056  0.3075 -0.8086
 2047SOL    HW1 8148   5.924   3.055   0.262 -0.9362  1.6258  1.1684
 2047SOL    HW2 8149   5.909   2.982   0.393 -0.0827 -1.8071 -0.5510
 2048SOL     OW 8150   6.770   6.716   5.821 -0.2386 -0.3560 -0.6037
 2048SOL    HW1 8151   6.820   6.795   5.802  0.7798 -1.2648 -1.9184
 2048SOL    HW2 8152   6.680   6.738   5.797 -0.1389  0.7085 -0.0170
 2049SOL     OW 8153   7.493   2.255   7.050 -0.3087  0.0913 -0.5055
 2049SOL    HW1 8154   7.401   2.254   7.076  0.7659 -2.7199  4.2479
 2049SOL    HW2 8155   7.510   2.166   7.021  0.7309  0.9491 -2.7707
 2050SOL     OW 8156   2.388   7.491   6.001 -0.6726  0.2827  0.0023
 2050SOL    HW1 8157   2.405   7.507   6.093 -1.3936 -1.4021  0.4684
 2050SOL    HW2 8158   2.473   7.501   5.958 -0.2288  0.5486  0.9204
 2051SOL     OW 8159  10.160   7.198   4.353 -0.0866  0.3933  0.2761
 2051SOL    HW1 8160  10.175   7.104   4.360 -0.6637  0.3772  1.5605
 2051SOL    HW2 8161  10.188   7.233   4.438  2.9120  1.7961 -1.1450
 2052SOL     OW 8162   3.944   2.615   0.853  0.4900  0.1778 -0.0422
 2052SOL    HW1 8163   3.914   2.558   0.924 -0.5278  0.1119 -0.5054
 2052SOL    HW2 8164   4.035   2.634   0.874  0.2014  0.1786  1.3056
 2053SOL     OW 8165   1.086   2.485   2.439 -0.2245 -0.2181  0.8101
 2053SOL    HW1 8166   1.048   2.452   2.358 -0.2908  2.7984 -0.5294
 2053SOL    HW2 8167   1.170   2.439   2.447 -0.2503 -0.6292 -0.9329
 2054SOL     OW 8168   3.614   4.583   2.994 -0.7274 -0.5030 -0.0617
 2054SOL    HW1 8169   3.674   4.610   3.064  1.7866  1.9418 -2.9000
 2054SOL    HW2 8170   3.656   4.506   2.955 -1.8081 -1.4783  0.6133
 2055SOL     OW 8171   3.251   4.096  11.095 -0.6745 -0.3750 -0.6441
 2055SOL    HW1 8172   3.222   4.006  11.078 -3.5375  0.6078 -1.4027
 2055SOL    HW2 8173   3.273   4.131  11.008  1.3584 -0.5551 -0.2601
 2056SOL     OW 8174   1.843   7.402   0.351  0.0630  0.0251 -0.3339
 2056SOL    HW1 8175   1.836   7.385   0.257 -3.0381  0.3414 -0.2887
 2056SOL    HW2 8176   1.837   7.316   0.391  0.6540 -0.0490 -0.3976
 2057SOL     OW 8177   4.408   6.291   1.126 -0.5298 -0.3199 -0.0510
 2057SOL    HW1 8178   4.478   6.261   1.184  0.0827  0.2272 -0.4876
 2057SOL    HW2 8179   4.331   6.298   1.182  0.5021  2.1262  1.1967
 2058SOL     OW 8180   9.796   8.279   7.380  0.1907 -0.2798  0.3734
 2058SOL    HW1 8181   9.844   8.259   7.300 -2.1708 -1.0157 -0.9642
 2058SOL    HW2 8182   9.769   8.371   7.369  0.9982  0.0443  0.9894
 2059SOL     OW 8183   5.072   2.489   1.177  0.0476 -0.9131 -0.2442
 2059SOL    HW1 8184   5.130   2.413   1.169 -0.4332 -1.2568 -0.4621
 2059SOL    HW2 8185   5.099   2.547   1.107  0.2034 -1.0228 -0.2755
 2060SOL     OW 8186  11.122   4.466   3.968 -0.7282  0.1411 -0.3105
 2060SOL    HW1 8187  11.081   4.480   4.054  0.0480  0.4823  0.0101
 2060SOL    HW2 8188  11.075   4.525   3.910 -1.9140 -0.7814 -0.3441
 2061SOL     OW 8189   1.813   6.464   7.192  0.9478  0.6151 -0.0673
 2061SOL    HW1 8190   1.732   6.430   7.155  0.2583  2.4651 -0.3715
 2061SOL    HW2 8191   1.882   6.426   7.138  0.1755  0.2787 -0.8373
 2062SOL     OW 8192   2.641   4.724   7.962 -0.0988  0.1602  0.4711
 2062SOL    HW1 8193   2.656   4.770   7.879 -1.3361  0.8769  0.6125
 2062SOL    HW2 8194   2.697   4.769   8.025  0.7724 -0.3228  0.0654
 2063SOL     OW 8195  11.247   8.641   4.086 -0.3117  0.6118  0.1742
 2063SOL    HW1 8196  11.209   8.554   4.074 -0.6620  0.3002  2.9250
 2063SOL    HW2 8197  11.323   8.642   4.028  0.4776 -2.0687  0.9963
 2064SOL     OW 8198   5.626   1.346  10.108 -0.3909 -0.3421 -0.3781
 2064SOL    HW1 8199   5.546   1.328  10.058 -0.5710  0.9195 -0.5800
 2064SOL    HW2 8200   5.598   1.401  10.180  0.1518 -0.7231  0.1377
 2065SOL     OW 8201   5.611   8.915   2.720  0.1434  0.6202 -0.5358
 2065SOL    HW1 8202   5.616   9.011   2.720  3.5313  0.5637  0.3161
 2065SOL    HW2 8203   5.700   8.886   2.701 -0.5211 -2.3934  0.3831
 2066SOL     OW 8204   8.417   8.319   5.101  0.0018  0.0212 -0.0324
 2066SOL    HW1 8205   8.483   8.298   5.167 -0.8626 -0.7214  0.6104
 2066SOL    HW2 8206   8.468   8.350   5.026  0.9478  3.5242  1.8301
 2067SOL     OW 8207   1.531   1.259   0.457 -0.2723 -0.0226  0.2922
 2067SOL    HW1 8208   1.438   1.281   0.459 -0.4586 -0.5947 -0.9717
 2067SOL    HW2 8209   1.555   1.264   0.364  0.6481 -1.0742  0.4432
 2068SOL     OW 8210   0.628   7.171   0.634 -0.0165  0.0668  0.0840
 2068SOL    HW1 8211   0.657   7.259   0.608  1.0314  0.6957  3.0398
 2068SOL    HW2 8212   0.707   7.118   0.630  0.4222  0.3974  2.5193
 2069SOL     OW 8213   3.297   8.971   5.501 -0.0278 -0.1675  0.0197
 2069SOL    HW1 8214   3.293   9.011   5.414 -2.8668 -0.0872  0.1179
 2069SOL    HW2 8215   3.256   9.034   5.559 -0.4019 -1.2699  0.9916
 2070SOL     OW 8216   2.966   1.167   5.390 -0.2878  0.0138 -0.4890
 2070SOL    HW1 8217   2.951   1.253   5.351 -0.3097  0.1093 -0.2724
 2070SOL    HW2 8218   3.056   1.145   5.368 -0.2847  0.0893 -0.5500
 2071SOL     OW 8219   4.234   0.445   7.630 -0.1221 -0.5692  0.6101
 2071SOL    HW1 8220   4.275   0.516   7.582 -2.9191 -0.2014 -1.4716
 2071SOL    HW2 8221   4.299   0.375   7.630  0.2007 -0.5176 -3.6269
 2072SOL     OW 8222  10.087   9.721   5.138 -0.2177  0.4933  0.5351
 2072SOL    HW1 8223  10.047   9.637   5.157 -0.3194  0.1196 -1.2422
 2072SOL    HW2 8224  10.021   9.786   5.163 -0.5849  0.0209  0.8005
 2073SOL     OW 8225   2.627   0.512   4.759  0.2179 -0.0819  0.3204
 2073SOL    HW1 8226   2.578   0.473   4.687 -0.0583 -0.5965  0.7840
 2073SOL    HW2 8227   2.563   0.567   4.804  0.2357 -0.2331  0.5305
 2074SOL     OW 8228   5.307   7.025   7.137 -0.5331 -0.0468 -0.6401
 2074SOL    HW1 8229   5.305   7.021   7.232 -2.2219 -2.2002 -0.6808
 2074SOL    HW2 8230   5.292   7.117   7.116  0.0288  0.4960  1.1434
 2075SOL     OW 8231   6.238   1.361   4.102  0.7400 -0.3703  0.5189
 2075SOL    HW1 8232   6.225   1.297   4.032 -0.1304 -0.5672  0.8478
 2075SOL    HW2 8233   6.331   1.358   4.121  1.4052  1.1090 -1.9892
 2076SOL     OW 8234   8.059   7.742   6.670 -0.1757  0.6223 -0.3356
 2076SOL    HW1 8235   8.111   7.665   6.691 -1.2863  0.3035  1.5117
 2076SOL    HW2 8236   8.106   7.785   6.599  2.6725  0.4315  1.2930
 2077SOL     OW 8237   2.984   6.004   2.962  0.3357 -0.4869 -0.4766
 2077SOL    HW1 8238   2.916   5.948   2.924 -0.8293 -0.0553  0.9098
 2077SOL    HW2 8239   3.058   5.994   2.902 -0.9148 -0.9987 -2.0252
 2078SOL     OW 8240   5.922   7.994   1.286  0.2923  0.4739  0.3326
 2078SOL    HW1 8241   5.888   8.024   1.201  0.8998  1.7724  0.5225
 2078SOL    HW2 8242   5.920   8.072   1.341 -0.1225 -0.3684  1.5383
 2079SOL     OW 8243   0.315   9.777   1.166 -0.2887 -0.1451 -0.0183
 2079SOL    HW1 8244   0.235   9.727   1.152 -0.1152 -0.7594  1.1153
 2079SOL    HW2 8245   0.385   9.721   1.134 -0.1914 -0.1515  0.2077
 2080SOL     OW 8246   5.627   4.401   3.320  0.0649 -0.1591 -0.3596
 2080SOL    HW1 8247   5.561   4.470   3.314 -0.7156 -0.8862 -0.2796
 2080SOL    HW2 8248   5.583   4.329   3.365  1.1306 -0.4109  0.3238
 2081SOL     OW 8249   1.792  10.843   6.588  0.1005  0.2004 -0.0682
 2081SOL    HW1 8250   1.736  10.766   6.584  1.9228 -1.3666  1.9331
 2081SOL    HW2 8251   1.870  10.813   6.635  1.3372  3.0219 -0.1277
 2082SOL     OW 8252  10.479  10.569  10.438 -0.4479  0.9957  0.2823
 2082SOL    HW1 8253  10.402  10.517  10.416  1.0990 -1.2602 -0.1795
 2082SOL    HW2 8254  10.445  10.645  10.486 -2.9313  0.2036 -0.1287
 2083SOL     OW 8255   3.016   3.934   4.758  0.3459  0.4801 -0.8217
 2083SOL    HW1 8256   3.074   3.906   4.687  0.8624  0.9678 -0.5962
 2083SOL    HW2 8257   2.960   3.858   4.773  1.9044 -0.5720 -0.0344
 2084SOL     OW 8258   6.078   7.647   6.251  0.1730  0.9894  0.4098
 2084SOL    HW1 8259   6.001   7.665   6.306  0.8887  2.9580  0.8372
 2084SOL    HW2 8260   6.120   7.572   6.293 -1.6569 -0.3452 -0.0276
 2085SOL     OW 8261   2.200   5.270   9.032 -0.3426 -0.0141  0.3150
 2085SOL    HW1 8262   2.181   5.235   8.945  0.5782  0.6799 -0.1909
 2085SOL    HW2 8263   2.146   5.349   9.038 -1.6255 -0.9003  1.0399
 2086SOL     OW 8264   2.572   7.148   5.465 -1.0741 -0.2952  0.1868
 2086SOL    HW1 8265   2.552   7.213   5.532  0.9340  1.3789 -0.7435
 2086SOL    HW2 8266   2.503   7.158   5.400 -0.1561  1.8380 -0.5364
 2087SOL     OW 8267   6.142   4.251   3.064 -0.9166 -0.0761 -0.2778
 2087SOL    HW1 8268   6.209   4.262   3.132  0.1431 -0.5768 -1.1999
 2087SOL    HW2 8269   6.104   4.338   3.053 -0.2330  0.2757  0.1034
 2088SOL     OW 8270   8.670   6.547  10.398  0.3857 -0.1176  0.0691
 2088SOL    HW1 8271   8.578   6.568  10.410  0.7832  0.9296  1.7237
 2088SOL    HW2 8272   8.716   6.621  10.439  1.9635 -0.3309 -1.2255
 2089SOL     OW 8273   9.846   2.621   9.920  0.5023 -0.4500 -0.0509
 2089SOL    HW1 8274   9.819   2.621   9.828  1.8606  0.8717 -0.4709
 2089SOL    HW2 8275   9.916   2.556   9.924  0.7127 -0.2209 -0.0316
 2090SOL     OW 8276   6.113   3.877   1.275  0.9191 -0.2117  0.0794
 2090SOL    HW1 8277   6.021   3.901   1.263  0.9437  0.1204  0.5567
 2090SOL    HW2 8278   6.110   3.796   1.326  0.9256  0.7741  1.7053
 2091SOL     OW 8279   3.969   6.595   4.804  0.3076  0.6869  0.2035
 2091SOL    HW1 8280   4.009   6.607   4.890 -1.0038 -1.1086  1.1112
 2091SOL    HW2 8281   3.886   6.642   4.810 -0.6153 -0.9513  0.5757
 2092SOL     OW 8282   2.224   6.790   2.878  0.4543 -0.4440  0.2283
 2092SOL    HW1 8283   2.282   6.773   2.804  0.0211  1.0294 -0.4794
 2092SOL    HW2 8284   2.183   6.705   2.896 -0.1955 -0.6268 -1.8895
 2093SOL     OW 8285   4.510   7.300   4.087  0.3336  0.1241 -0.9578
 2093SOL    HW1 8286   4.581   7.355   4.055 -1.0006  2.6451  0.1132
 2093SOL    HW2 8287   4.527   7.293   4.181 -0.6105  0.4598 -0.7542
 2094SOL     OW 8288   1.218   7.301   2.937  0.1494 -0.2687  0.1933
 2094SOL    HW1 8289   1.191   7.378   2.888 -0.1868 -2.0858 -2.7105
 2094SOL    HW2 8290   1.148   7.237   2.921  0.2447 -1.1457  2.7752
 2095SOL     OW 8291   2.194   4.399   1.291  0.0449  0.1078  0.4884
 2095SOL    HW1 8292   2.244   4.320   1.277 -0.8127 -0.1297 -1.6251
 2095SOL    HW2 8293   2.171   4.397   1.384  1.6918 -1.0828  0.9057
 2096SOL     OW 8294   9.788   6.677   2.734  0.0210 -0.3404 -0.3160
 2096SOL    HW1 8295   9.872   6.633   2.728 -0.1953 -0.6999 -0.7746
 2096SOL    HW2 8296   9.724   6.606   2.738 -0.1509 -0.1362  2.2450
 2097SOL     OW 8297   7.258   0.349   8.051  0.1598  0.4297  0.0927
 2097SOL    HW1 8298   7.163   0.339   8.050  0.0568  0.5327  2.5256
 2097SOL    HW2 8299   7.290   0.276   8.105  1.5861 -0.1530 -1.4441
 2098SOL     OW 8300   7.964   9.079   0.085 -0.2505 -0.2620 -0.3678
 2098SOL    HW1 8301   8.052   9.042   0.076  0.3844  0.8150  1.0188
 2098SOL    HW2 8302   7.971   9.167   0.047 -0.4305  0.2232  0.7029
 2099SOL     OW 8303   8.445   6.897   7.897  0.1515 -0.1925 -0.1337
 2099SOL    HW1 8304   8.485   6.903   7.984 -1.2714  1.5432  0.4575
 2099SOL    HW2 8305   8.382   6.825   7.905  0.8213 -0.7840 -0.0856
 2100SOL     OW 8306   3.925   8.880   9.997 -0.1887  0.4907  0.5574
 2100SOL    HW1 8307   3.851   8.901  10.055 -0.9669 -0.8153  0.0816
 2100SOL    HW2 8308   3.936   8.786  10.005  1.5519  0.6898  0.7268
 2101SOL     OW 8309   2.752   7.999   0.877  0.1124 -0.1483  0.4287
 2101SOL    HW1 8310   2.841   7.997   0.912  0.0298  0.9695  0.7375
 2101SOL    HW2 8311   2.751   7.932   0.809  1.4133  0.3311 -0.0902
 2102SOL     OW 8312   4.634   4.798   2.717 -0.9338 -0.4048 -0.0606
 2102SOL    HW1 8313   4.589   4.755   2.644 -1.6442 -1.3880  0.9414
 2102SOL    HW2 8314   4.702   4.735   2.743 -1.1782 -0.3887  0.6177
 2103SOL     OW 8315   5.558   2.370  10.706  0.6588 -0.3420 -0.2498
 2103SOL    HW1 8316   5.536   2.345  10.617  0.8499  0.0324 -0.4020
 2103SOL    HW2 8317   5.622   2.304  10.734 -1.2040 -1.9513  0.4929
 2104SOL     OW 8318   2.536   9.627   0.772  0.4511 -0.5174  0.3382
 2104SOL    HW1 8319   2.449   9.590   0.786 -0.9189  2.0365 -0.7314
 2104SOL    HW2 8320   2.541   9.643   0.678  2.1609 -0.7573  0.3506
 2105SOL     OW 8321   8.687   3.177   1.533  0.3744  0.4513 -0.0542
 2105SOL    HW1 8322   8.707   3.164   1.626  0.5160 -0.1906 -0.1714
 2105SOL    HW2 8323   8.605   3.226   1.533 -0.3020 -0.6490  0.4158
 2106SOL     OW 8324   2.519   4.065   7.308  0.3622  0.6975  0.5819
 2106SOL    HW1 8325   2.587   4.054   7.242 -0.1041  1.7984 -0.1064
 2106SOL    HW2 8326   2.555   4.130   7.369  0.3132  0.5571  0.7629
 2107SOL     OW 8327   2.073   1.828   3.191  0.3023  0.0991  0.6352
 2107SOL    HW1 8328   2.066   1.754   3.131  0.0263  1.1272 -0.6185
 2107SOL    HW2 8329   1.984   1.861   3.200  0.4214  0.2830  1.2093
 2108SOL     OW 8330   7.280   1.134   6.681 -0.0346 -0.0151  0.1751
 2108SOL    HW1 8331   7.224   1.110   6.606  0.7444  0.2805 -0.5157
 2108SOL    HW2 8332   7.267   1.228   6.691 -1.4181 -0.3038  1.5035
 2109SOL     OW 8333  10.265   2.361  10.392  0.1975  0.2408  0.6440
 2109SOL    HW1 8334  10.323   2.327  10.324  1.1786  1.0728  1.0353
 2109SOL    HW2 8335  10.318   2.358  10.472 -1.2229 -1.5961  1.6215
 2110SOL     OW 8336   3.444   8.986   5.861  0.5278  0.4677  0.5344
 2110SOL    HW1 8337   3.487   8.905   5.835  0.5168 -0.7115  3.7615
 2110SOL    HW2 8338   3.379   9.002   5.793  1.2257 -1.6703 -0.7085
 2111SOL     OW 8339   7.856   8.688   6.167  0.6029  0.1402 -0.2349
 2111SOL    HW1 8340   7.871   8.598   6.139  0.0102  0.0116 -0.1550
 2111SOL    HW2 8341   7.944   8.727   6.172  0.8415 -0.3531 -0.5249
 2112SOL     OW 8342   0.074   0.478   1.555  0.2344  0.2921 -0.5602
 2112SOL    HW1 8343   0.113   0.400   1.516 -1.6155 -1.9247  1.7229
 2112SOL    HW2 8344   0.107   0.478   1.645 -2.5330  0.0406  0.5288
 2113SOL     OW 8345   3.712   3.795   6.574 -0.7221  0.5448  0.0017
 2113SOL    HW1 8346   3.652   3.823   6.643 -2.0392 -0.8445 -0.5347
 2113SOL    HW2 8347   3.673   3.828   6.493 -0.8480 -0.4783 -0.3676
 2114SOL     OW 8348  10.938   9.647   8.214  0.1489 -0.1348  0.0312
 2114SOL    HW1 8349  10.950   9.742   8.212  0.5809 -0.1473  1.0815
 2114SOL    HW2 8350  10.845   9.635   8.237 -0.0359  0.0238 -0.6188
 2115SOL     OW 8351  10.304   9.925   6.871 -0.3772  0.2778 -0.3016
 2115SOL    HW1 8352  10.243   9.914   6.944 -1.1682  0.6460 -0.8905
 2115SOL    HW2 8353  10.369   9.856   6.883 -1.5097 -0.8005 -0.2463
 2116SOL     OW 8354   0.639   7.342   4.759  0.1813  0.3987 -0.3299
 2116SOL    HW1 8355   0.727   7.380   4.755 -0.5040  1.9802 -1.2736
 2116SOL    HW2 8356   0.604   7.371   4.843  0.1165  0.7914 -0.4935
 2117SOL     OW 8357   0.114  10.478   2.002 -0.0087 -0.0813  0.2826
 2117SOL    HW1 8358   0.088  10.567   2.023  1.7156  0.6756 -0.6145
 2117SOL    HW2 8359   0.035  10.439   1.964 -0.7297  1.1207  0.4876
 2118SOL     OW 8360   3.634   5.683   0.079 -0.1418 -0.1234  0.6936
 2118SOL    HW1 8361   3.625   5.622   0.006  0.2394 -1.1709  1.4898
 2118SOL    HW2 8362   3.724   5.715   0.072 -0.6158  1.0756 -0.2509
 2119SOL     OW 8363   5.487   3.744   4.918 -0.3291 -0.5382 -0.0101
 2119SOL    HW1 8364   5.575   3.742   4.881 -0.8806 -2.4760 -1.3482
 2119SOL    HW2 8365   5.439   3.805   4.862 -0.0367 -0.0690  0.2492
 2120SOL     OW 8366   7.045   6.964   9.470  0.0156  0.3816 -0.2049
 2120SOL    HW1 8367   7.070   7.008   9.552 -0.3723  0.3971 -0.0959
 2120SOL    HW2 8368   7.118   6.904   9.453 -1.0164 -1.4644  1.4839
 2121SOL     OW 8369   3.897  10.137  10.527  0.3728  0.3967  0.1170
 2121SOL    HW1 8370   3.924  10.092  10.446 -1.4729 -0.9742  0.1965
 2121SOL    HW2 8371   3.976  10.184  10.555  0.6985  2.2077 -3.2843
 2122SOL     OW 8372   9.088   9.662   0.069 -0.4259  0.7495  0.0960
 2122SOL    HW1 8373   9.052   9.741   0.028 -2.0486  0.2164  0.4198
 2122SOL    HW2 8374   9.030   9.591   0.039  0.7895 -0.2697  0.0835
 2123SOL     OW 8375  10.851   2.734   5.933 -0.6317  0.2981  0.2603
 2123SOL    HW1 8376  10.898   2.657   5.901 -0.5116  0.6741 -0.4919
 2123SOL    HW2 8377  10.840   2.719   6.027  0.3651 -0.1216  0.3169
 2124SOL     OW 8378   9.894   2.150   5.669 -0.0432  0.6276 -0.8119
 2124SOL    HW1 8379   9.915   2.233   5.626 -0.4097  0.7521 -0.7559
 2124SOL    HW2 8380   9.804   2.162   5.701  0.4452  0.7964  0.5773
 2125SOL     OW 8381   3.059   1.368   3.940  0.1093  0.1602  0.6730
 2125SOL    HW1 8382   3.093   1.328   3.861 -0.8453 -1.6987  1.1498
 2125SOL    HW2 8383   2.970   1.396   3.917 -0.2550 -0.5879  1.1175
 2126SOL     OW 8384   8.593   8.171   9.619  0.1897  0.2223  0.4933
 2126SOL    HW1 8385   8.541   8.130   9.688 -0.7914  0.2766 -0.1820
 2126SOL    HW2 8386   8.654   8.103   9.591 -1.6459 -0.9653 -0.8502
 2127SOL     OW 8387   6.275   9.099   1.744  0.2668  0.5778 -0.9443
 2127SOL    HW1 8388   6.272   9.166   1.812  2.6168 -1.4282  1.3564
 2127SOL    HW2 8389   6.365   9.100   1.713 -0.0037 -0.6099 -1.8549
 2128SOL     OW 8390   2.864   3.693   5.677 -0.5575 -0.1670 -0.0350
 2128SOL    HW1 8391   2.837   3.690   5.769  3.2065  0.7926  1.2778
 2128SOL    HW2 8392   2.814   3.766   5.639 -2.8177 -1.1297  0.9042
 2129SOL     OW 8393   3.112   0.779  10.941  0.4172  0.1462  0.0838
 2129SOL    HW1 8394   3.070   0.693  10.931  0.1275  0.4123 -1.2167
 2129SOL    HW2 8395   3.081   0.812  11.025 -0.8372 -0.2936 -0.1818
 2130SOL     OW 8396   2.529   6.217   3.340 -0.1402 -0.4774 -0.2758
 2130SOL    HW1 8397   2.498   6.168   3.264 -0.3937 -1.9803  0.7368
 2130SOL    HW2 8398   2.490   6.171   3.415 -1.4552  2.0566  0.7079
 2131SOL     OW 8399   8.992   7.364   8.781 -0.5742  0.5052 -0.4626
 2131SOL    HW1 8400   9.046   7.401   8.711 -1.8294  0.5288 -1.4656
 2131SOL    HW2 8401   9.012   7.270   8.780  0.8324  0.7687  0.4700
 2132SOL     OW 8402  11.112   7.817   0.545 -0.2075  0.0880  0.1983
 2132SOL    HW1 8403  11.160   7.898   0.562 -1.7765  0.9904  0.4893
 2132SOL    HW2 8404  11.139   7.758   0.615 -1.3749  1.4402  1.8618
 2133SOL     OW 8405   2.406   0.941   3.764  0.3673  0.6591  0.3508
 2133SOL    HW1 8406   2.313   0.938   3.788 -0.1684  3.8603 -0.8608
 2133SOL    HW2 8407   2.410   0.895   3.680 -0.4174  1.6009 -0.2280
 2134SOL     OW 8408   6.915   7.541   9.529 -0.2506  0.5179  0.2361
 2134SOL    HW1 8409   6.898   7.553   9.436  0.2509 -0.4875  0.0039
 2134SOL    HW2 8410   6.888   7.624   9.569 -2.1654  0.3111 -0.5530
 2135SOL     OW 8411   8.368   6.035   6.217  0.6063  0.3598 -0.2133
 2135SOL    HW1 8412   8.315   5.982   6.158  0.7363 -0.2270  0.1865
 2135SOL    HW2 8413   8.305   6.090   6.264  0.5263  1.0141 -1.0705
 2136SOL     OW 8414   9.258   4.226   5.274 -0.3611  0.0932  0.4361
 2136SOL    HW1 8415   9.338   4.176   5.289  0.1080 -0.2559 -2.5962
 2136SOL    HW2 8416   9.192   4.159   5.252 -0.3887  0.5662 -1.0828
 2137SOL     OW 8417   0.620   5.310   2.173 -0.4115 -0.1998 -0.4447
 2137SOL    HW1 8418   0.713   5.292   2.190 -0.5402  0.5871  1.3047
 2137SOL    HW2 8419   0.620   5.397   2.134 -0.5572  1.4823  2.9542
 2138SOL     OW 8420   2.390   4.227   5.842 -0.1665  0.2763 -0.8079
 2138SOL    HW1 8421   2.415   4.231   5.935  1.4789 -0.8656 -1.1611
 2138SOL    HW2 8422   2.472   4.236   5.795 -0.9360  0.3922 -2.1620
 2139SOL     OW 8423   9.982   9.388   9.303  0.3969  0.5459  0.4383
 2139SOL    HW1 8424  10.063   9.354   9.263  0.1596  1.6330 -1.0458
 2139SOL    HW2 8425   9.952   9.456   9.242 -0.4931  1.6515  2.0358
 2140SOL     OW 8426   7.630   3.042   7.627 -0.1178 -0.9389 -0.1879
 2140SOL    HW1 8427   7.549   3.035   7.678 -0.9581 -2.2025 -1.5935
 2140SOL    HW2 8428   7.617   3.118   7.571  1.3240  1.2328  2.2139
 2141SOL     OW 8429   7.312   9.461   9.702  0.0050  0.0737 -0.2177
 2141SOL    HW1 8430   7.344   9.448   9.791  1.4325 -1.9725 -0.9531
 2141SOL    HW2 8431   7.253   9.387   9.687 -1.6209  1.3458 -0.4447
 2142SOL     OW 8432   9.789   8.846   0.667 -0.8462 -0.8614  0.1628
 2142SOL    HW1 8433   9.728   8.867   0.596 -1.5110  0.0218  0.9578
 2142SOL    HW2 8434   9.874   8.875   0.634 -1.3153  0.5785  0.1219
 2143SOL     OW 8435   5.438   3.043   4.186  0.4006  0.6957  0.5422
 2143SOL    HW1 8436   5.522   3.040   4.231  0.6041  1.9593  0.2692
 2143SOL    HW2 8437   5.377   3.000   4.246  1.2933 -0.5813  0.5791
 2144SOL     OW 8438   0.151   2.526   0.353  0.2835  0.6194 -0.0917
 2144SOL    HW1 8439   0.166   2.538   0.259 -0.6157 -2.0130 -0.6673
 2144SOL    HW2 8440   0.235   2.498   0.388  0.0040 -1.1635 -0.7272
 2145SOL     OW 8441   0.217   2.594   5.912  0.2269  0.3628 -0.7948
 2145SOL    HW1 8442   0.131   2.566   5.883  0.2770  0.8571 -1.4252
 2145SOL    HW2 8443   0.224   2.685   5.884  1.7646 -0.2618 -2.6327
 2146SOL     OW 8444   5.780   4.299   7.715  0.0497 -0.3902 -0.2573
 2146SOL    HW1 8445   5.768   4.394   7.712 -0.6716 -0.4498  0.4587
 2146SOL    HW2 8446   5.849   4.282   7.651  1.5457  0.8289  0.9424
 2147SOL     OW 8447  10.539   6.156  10.789 -0.0459  0.8223  0.2445
 2147SOL    HW1 8448  10.532   6.113  10.704 -2.0930  1.9258 -0.2160
 2147SOL    HW2 8449  10.525   6.087  10.853 -0.7617  0.3577 -0.4006
 2148SOL     OW 8450   6.600  10.336   4.234 -0.5183 -1.1088  0.9636
 2148SOL    HW1 8451   6.656  10.370   4.303  0.4757  0.3618 -0.4956
 2148SOL    HW2 8452   6.513  10.369   4.254 -0.1447 -0.2946  1.2600
 2149SOL     OW 8453   8.658   1.880   9.113  0.3574  0.2970  0.4157
 2149SOL    HW1 8454   8.650   1.941   9.040 -1.1550 -1.4303 -0.9800
 2149SOL    HW2 8455   8.691   1.799   9.073 -3.8535 -1.8728  0.7530
 2150SOL     OW 8456  11.002   8.594   1.647 -0.4053  0.1687 -0.7327
 2150SOL    HW1 8457  11.064   8.666   1.643  0.0955 -0.0596  1.4732
 2150SOL    HW2 8458  10.926   8.631   1.692 -1.0289 -0.1248 -1.5183
 2151SOL     OW 8459   9.849   0.377   2.941  0.6345  0.1886  0.2166
 2151SOL    HW1 8460   9.781   0.332   2.991  0.4455  0.7205  0.4450
 2151SOL    HW2 8461   9.930   0.360   2.989  0.5167  0.3481  0.4742
 2152SOL     OW 8462   7.087   8.949   5.302 -0.0231 -0.0768 -0.3534
 2152SOL    HW1 8463   7.177   8.951   5.333  0.1854 -1.0972 -0.8410
 2152SOL    HW2 8464   7.094   8.931   5.209 -0.7035  0.9597 -0.6101
 2153SOL     OW 8465   6.777   1.322   3.433 -0.5376  0.1479  0.5865
 2153SOL    HW1 8466   6.854   1.375   3.412 -1.6503  1.2754 -0.8465
 2153SOL    HW2 8467   6.707   1.385   3.449 -1.8786 -0.8131 -1.0837
 2154SOL     OW 8468   4.958  10.510   6.934 -0.4645 -0.2615  0.7061
 2154SOL    HW1 8469   4.965  10.530   7.027  0.3901  0.1615  0.5626
 2154SOL    HW2 8470   5.046  10.485   6.908 -0.5906  0.0856 -0.0908
 2155SOL     OW 8471   9.956   5.360   7.668 -0.1045  0.0349  0.1856
 2155SOL    HW1 8472  10.045   5.334   7.642  0.0067  1.1200 -0.5538
 2155SOL    HW2 8473   9.899   5.295   7.625  0.2877 -0.2724  0.1192
 2156SOL     OW 8474   1.108   0.612   8.736  0.1953 -0.2468  0.6275
 2156SOL    HW1 8475   1.061   0.694   8.747 -1.3404 -1.1356  1.0898
 2156SOL    HW2 8476   1.149   0.619   8.649  1.5524  1.6493  1.3519
 2157SOL     OW 8477   7.625   8.826   9.485  0.2121  0.6711 -0.3817
 2157SOL    HW1 8478   7.678   8.833   9.565  1.7569  2.1570 -1.4530
 2157SOL    HW2 8479   7.608   8.732   9.476  0.5197  0.4127  1.3443
 2158SOL     OW 8480   6.375   9.353   2.630  0.4843  0.2984 -0.4600
 2158SOL    HW1 8481   6.383   9.258   2.619 -1.3988 -0.0245  0.5291
 2158SOL    HW2 8482   6.411   9.369   2.717 -2.9567 -0.2290  1.2395
 2159SOL     OW 8483   7.305   0.714  10.703 -0.2511 -0.0740 -0.0486
 2159SOL    HW1 8484   7.351   0.639  10.742  0.8215  0.5106 -0.1446
 2159SOL    HW2 8485   7.301   0.779  10.773  1.9259  1.0864 -0.9055
 2160SOL     OW 8486   3.704   7.862   4.692  0.6514 -0.2406  0.3856
 2160SOL    HW1 8487   3.611   7.838   4.690  0.4646  0.4842 -0.4787
 2160SOL    HW2 8488   3.727   7.860   4.785 -0.5070  0.5457  0.7201
 2161SOL     OW 8489   5.837   8.552   7.149  0.6376 -0.0661  0.7073
 2161SOL    HW1 8490   5.775   8.495   7.104 -0.1730 -0.8400  2.6610
 2161SOL    HW2 8491   5.781   8.613   7.199  1.4402 -0.1619  1.7580
 2162SOL     OW 8492   2.103   2.690   6.293  0.2992  0.4531 -0.2302
 2162SOL    HW1 8493   2.026   2.725   6.248 -0.8203 -1.8234 -0.2186
 2162SOL    HW2 8494   2.150   2.642   6.225  0.3707 -0.2114  0.2763
 2163SOL     OW 8495   2.299   3.237  10.614  0.1942  0.2630 -0.7340
 2163SOL    HW1 8496   2.303   3.142  10.598 -0.3704 -0.0432  0.7722
 2163SOL    HW2 8497   2.376   3.272  10.570 -0.2164 -0.7236 -2.3404
 2164SOL     OW 8498   2.266   7.891   7.750  0.2689  0.2209 -0.2422
 2164SOL    HW1 8499   2.173   7.882   7.767  0.4647 -2.0276 -0.1599
 2164SOL    HW2 8500   2.308   7.873   7.834  0.7815  4.1936  0.5524
 2165SOL     OW 8501  10.002   5.498   3.776  0.5705  0.3398  0.2362
 2165SOL    HW1 8502  10.037   5.550   3.704  2.1774 -0.0476  0.7081
 2165SOL    HW2 8503   9.958   5.562   3.832  0.3397  0.8150 -0.4648
 2166SOL     OW 8504   4.296   1.212   9.182  0.1919 -0.0544 -0.0939
 2166SOL    HW1 8505   4.362   1.262   9.230 -0.5257 -0.7511  1.6830
 2166SOL    HW2 8506   4.289   1.257   9.098  1.5862  1.1270  0.3698
 2167SOL     OW 8507   7.247   1.051   1.464 -0.0082  0.6029  0.0128
 2167SOL    HW1 8508   7.316   1.036   1.400 -1.6680 -0.9017 -1.5176
 2167SOL    HW2 8509   7.293   1.087   1.540  2.2400  0.9656 -1.4237
 2168SOL     OW 8510  10.498   3.761   3.303 -0.0354 -1.2219  0.6949
 2168SOL    HW1 8511  10.444   3.771   3.381 -0.6440 -2.4379  0.4395
 2168SOL    HW2 8512  10.442   3.716   3.240  0.9156 -1.5385  0.0518
 2169SOL     OW 8513   7.234  10.313   9.059 -0.0611 -0.3836 -0.2908
 2169SOL    HW1 8514   7.266  10.286   8.973 -0.4426 -2.1060  0.0585
 2169SOL    HW2 8515   7.304  10.367   9.095 -0.6255  1.8942 -2.3387
 2170SOL     OW 8516   4.770   9.347   1.685  0.0402 -0.0950  0.6417
 2170SOL    HW1 8517   4.860   9.367   1.708 -0.1817 -1.5170  3.0366
 2170SOL    HW2 8518   4.727   9.329   1.768 -1.6586 -2.5072 -0.6204
 2171SOL     OW 8519   6.124   5.623   3.488 -0.3508  0.7951  0.2679
 2171SOL    HW1 8520   6.057   5.644   3.554 -0.9579 -0.2214  0.0028
 2171SOL    HW2 8521   6.141   5.530   3.502  1.3268  1.1309  0.5962
 2172SOL     OW 8522   5.877   7.853  10.893  0.3103  0.1952 -0.1989
 2172SOL    HW1 8523   5.924   7.773  10.918 -2.7421 -1.6464  0.2227
 2172SOL    HW2 8524   5.792   7.822  10.863 -0.8242  3.3033 -0.5428
 2173SOL     OW 8525   0.778   2.932   5.172  0.6648  0.3955  0.5250
 2173SOL    HW1 8526   0.853   2.875   5.157  0.8559  0.4036  1.4045
 2173SOL    HW2 8527   0.708   2.895   5.118  0.7302 -0.8026  1.2327
 2174SOL     OW 8528   3.647   2.462   3.001 -0.2263  0.5639 -0.2560
 2174SOL    HW1 8529   3.584   2.535   3.008  0.0455  0.7741  0.0344
 2174SOL    HW2 8530   3.594   2.384   3.015 -0.4810  0.7193 -0.3297
 2175SOL     OW 8531   0.001   6.624   8.762  0.4075  0.3440 -0.5906
 2175SOL    HW1 8532   0.030   6.604   8.851  1.0008 -0.4059 -0.9447
 2175SOL    HW2 8533  -0.027   6.715   8.767 -1.0085 -0.1177  0.7246
 2176SOL     OW 8534   7.283   6.210  11.013  0.0318  0.7947  0.0407
 2176SOL    HW1 8535   7.366   6.163  11.017  1.3260  2.7613 -1.8539
 2176SOL    HW2 8536   7.307   6.301  10.998 -2.3743  2.1819  3.3471
 2177SOL     OW 8537  10.310   1.594   6.898  0.2170  0.3788 -0.6642
 2177SOL    HW1 8538  10.253   1.566   6.969 -0.4005  1.9899 -0.4699
 2177SOL    HW2 8539  10.332   1.685   6.919  3.1114 -0.2269 -0.5798
 2178SOL     OW 8540   2.867   2.833   1.778  0.2491  0.0444 -0.4376
 2178SOL    HW1 8541   2.887   2.910   1.725  2.0415 -0.4538 -0.5805
 2178SOL    HW2 8542   2.868   2.865   1.868 -1.5305  0.6439 -0.5979
 2179SOL     OW 8543   5.389   4.854   6.150 -0.1211  0.1058 -0.1613
 2179SOL    HW1 8544   5.400   4.845   6.244 -2.6446 -0.9378  0.0930
 2179SOL    HW2 8545   5.317   4.916   6.139 -1.0556 -1.1084 -1.3103
 2180SOL     OW 8546   9.581   5.277   3.037  0.2711  0.2460 -0.3337
 2180SOL    HW1 8547   9.646   5.319   2.980  0.6765 -1.2914 -1.0722
 2180SOL    HW2 8548   9.630   5.206   3.080 -0.6941 -0.3190 -0.1467
 2181SOL     OW 8549  10.972   8.043  10.615 -0.2386 -0.2641 -0.6108
 2181SOL    HW1 8550  10.991   7.983  10.687 -0.6490 -0.7726 -0.9235
 2181SOL    HW2 8551  10.945   7.986  10.543 -1.4470  0.3480 -0.6555
 2182SOL     OW 8552   7.542   9.471   2.575 -0.1782 -0.4527  0.0312
 2182SOL    HW1 8553   7.454   9.434   2.562  0.4898 -1.6717 -1.3117
 2182SOL    HW2 8554   7.592   9.401   2.616  0.3828 -0.0717  0.0060
 2183SOL     OW 8555   6.936  10.617   9.147  0.3146  0.0278 -0.4281
 2183SOL    HW1 8556   7.028  10.641   9.159  0.2075 -0.1556  0.9256
 2183SOL    HW2 8557   6.888  10.698   9.165 -0.0595 -0.9351  4.3262
 2184SOL     OW 8558   3.803   3.172   6.652 -0.0289  0.4936 -0.1070
 2184SOL    HW1 8559   3.841   3.250   6.693  1.1951 -1.3365  2.5001
 2184SOL    HW2 8560   3.869   3.145   6.588  0.6091  0.3116  0.6210
 2185SOL     OW 8561   8.171   0.720   8.878  0.8875 -0.5476  0.0457
 2185SOL    HW1 8562   8.185   0.811   8.902 -0.6069 -0.1377 -0.5083
 2185SOL    HW2 8563   8.229   0.705   8.803  0.7339  0.1195 -0.2123
 2186SOL     OW 8564  10.518   3.137   4.674  0.5266 -0.9540 -0.2209
 2186SOL    HW1 8565  10.499   3.220   4.719 -0.3785 -1.3089  0.0821
 2186SOL    HW2 8566  10.464   3.072   4.720 -1.0807 -1.2080 -2.2905
 2187SOL     OW 8567   4.504  10.824   9.193  0.4688  0.9561  0.2894
 2187SOL    HW1 8568   4.592  10.854   9.214  0.2506  1.1979  0.9064
 2187SOL    HW2 8569   4.483  10.866   9.110  1.9500 -1.2401 -1.3097
 2188SOL     OW 8570   2.058   8.917   9.839  0.3881  0.3402  0.6327
 2188SOL    HW1 8571   2.013   9.001   9.830 -1.2440 -0.3968  1.3587
 2188SOL    HW2 8572   2.137   8.926   9.786 -1.4124  1.1529 -2.1177
 2189SOL     OW 8573  10.887   3.475   7.582  0.2698  0.6999 -0.4792
 2189SOL    HW1 8574  10.905   3.418   7.507  0.6315  1.6461 -1.1300
 2189SOL    HW2 8575  10.936   3.555   7.564  0.0038  1.1171  0.5572
 2190SOL     OW 8576   3.107   1.472   0.249  0.2283 -0.3211 -0.5928
 2190SOL    HW1 8577   3.045   1.456   0.319 -1.1494 -2.4473 -2.1980
 2190SOL    HW2 8578   3.054   1.477   0.169  1.9397 -0.6086 -1.8240
 2191SOL     OW 8579   4.532   9.995   6.506 -0.4835 -0.3436 -0.3677
 2191SOL    HW1 8580   4.511  10.025   6.594 -2.3915 -0.1743 -0.8393
 2191SOL    HW2 8581   4.628   9.993   6.503 -0.2467 -3.2827  2.7118
 2192SOL     OW 8582   3.517   2.716   0.104 -0.2944  0.5498  0.4036
 2192SOL    HW1 8583   3.449   2.650   0.118 -0.0497  0.4222  1.0487
 2192SOL    HW2 8584   3.560   2.690   0.022 -2.0425  1.5384 -0.8854
 2193SOL     OW 8585  10.888   2.177   4.026 -0.4905 -0.0346 -0.7429
 2193SOL    HW1 8586  10.887   2.234   3.949 -0.1429  3.2101  1.4592
 2193SOL    HW2 8587  10.813   2.205   4.078  1.6706  1.0708  2.0926
 2194SOL     OW 8588   2.421   2.165   6.529 -0.2869  0.0647 -0.3089
 2194SOL    HW1 8589   2.500   2.119   6.561 -1.4895 -1.8939  0.0227
 2194SOL    HW2 8590   2.410   2.238   6.589  0.2161 -0.7738  0.8552
 2195SOL     OW 8591  10.054   4.757   8.598 -0.3862 -0.1283 -0.2797
 2195SOL    HW1 8592   9.984   4.794   8.543 -0.0006  0.0390 -0.6586
 2195SOL    HW2 8593  10.121   4.730   8.536 -0.5294 -1.1975  0.0190
 2196SOL     OW 8594   7.317   6.359   2.911  0.3186  0.3851 -0.0453
 2196SOL    HW1 8595   7.298   6.275   2.952  0.6996  0.3973  0.1591
 2196SOL    HW2 8596   7.236   6.408   2.918 -0.8710 -0.9585 -2.6558
 2197SOL     OW 8597   2.320   4.520   5.291 -0.0154 -0.5305 -0.5380
 2197SOL    HW1 8598   2.279   4.518   5.205  1.3960  0.9216 -1.3050
 2197SOL    HW2 8599   2.409   4.490   5.277 -0.1346 -1.5284  0.6770
 2198SOL     OW 8600   0.713   3.978   1.782 -0.6497 -0.0789  0.5882
 2198SOL    HW1 8601   0.681   3.900   1.737  1.2920 -0.3892 -0.3749
 2198SOL    HW2 8602   0.634   4.023   1.812 -2.0173 -0.4842 -2.1172
 2199SOL     OW 8603   3.006   7.231  11.008 -0.2597 -0.3074 -0.0379
 2199SOL    HW1 8604   2.955   7.199  10.933  0.3984  0.7832 -0.9984
 2199SOL    HW2 8605   3.095   7.198  10.992  0.2833  1.3697 -0.7066
 2200SOL     OW 8606   4.092   1.756   2.118 -0.2236  0.6093 -0.0891
 2200SOL    HW1 8607   4.139   1.820   2.171  1.8203 -1.2416  0.4838
 2200SOL    HW2 8608   4.144   1.748   2.038 -2.0282  1.6830 -1.4667
 2201SOL     OW 8609   6.841   0.851   0.216  0.5224 -0.4462 -0.2894
 2201SOL    HW1 8610   6.895   0.898   0.151  1.3588  2.8187  2.4655
 2201SOL    HW2 8611   6.755   0.891   0.208  1.2100  1.7675  1.9983
 2202SOL     OW 8612   5.115   4.262   6.307  0.4000  0.0828  0.2921
 2202SOL    HW1 8613   5.053   4.329   6.335  1.2141  0.3231  1.6267
 2202SOL    HW2 8614   5.151   4.295   6.225 -0.5895  0.3465 -0.0496
 2203SOL     OW 8615  11.113   7.503   5.994  0.0530  0.2381 -0.5485
 2203SOL    HW1 8616  11.041   7.481   6.052  0.9395 -1.4823 -0.0322
 2203SOL    HW2 8617  11.072   7.515   5.908 -0.7377 -1.9360 -0.5335
 2204SOL     OW 8618   1.916   7.610   3.150  0.5570 -0.1544  0.3950
 2204SOL    HW1 8619   1.931   7.693   3.194  1.3790 -1.2153  2.2729
 2204SOL    HW2 8620   1.854   7.630   3.080  1.7389  2.2299 -0.0392
 2205SOL     OW 8621   1.653  10.539   8.277  0.8758 -0.6040 -0.1797
 2205SOL    HW1 8622   1.664  10.445   8.262  1.8254 -0.4933 -0.2378
 2205SOL    HW2 8623   1.560  10.555   8.262  0.3402 -1.8405  1.5103
 2206SOL     OW 8624   7.503   5.528   5.512 -0.3114  0.1681 -0.4795
 2206SOL    HW1 8625   7.499   5.435   5.533 -2.0162  0.2004 -0.4886
 2206SOL    HW2 8626   7.524   5.571   5.595 -0.2348 -0.1762 -0.3202
 2207SOL     OW 8627   8.892   6.360   1.604  0.0630 -0.5315 -0.0052
 2207SOL    HW1 8628   8.811   6.363   1.654 -0.4248  0.9493 -0.8066
 2207SOL    HW2 8629   8.916   6.452   1.592  2.1984 -0.9289  0.7097
 2208SOL     OW 8630   7.802   1.143  10.801  0.2921  0.0113  0.3394
 2208SOL    HW1 8631   7.769   1.232  10.811  0.3640  0.0603  0.1495
 2208SOL    HW2 8632   7.883   1.153  10.750 -1.0212 -0.3926 -1.9601
 2209SOL     OW 8633   5.939   2.397   2.230  0.0721 -0.2790 -0.0937
 2209SOL    HW1 8634   5.894   2.330   2.282  0.5966 -0.7722 -0.2744
 2209SOL    HW2 8635   6.028   2.364   2.219  0.8190  1.1869  1.1741
 2210SOL     OW 8636   1.128   1.563   2.452  0.2144 -0.2956 -0.3606
 2210SOL    HW1 8637   1.082   1.639   2.415 -0.0797 -0.1307  0.3352
 2210SOL    HW2 8638   1.215   1.566   2.412 -0.0002  0.0524 -0.8100
 2211SOL     OW 8639   7.199  11.042   5.338 -0.5141  0.3838 -0.3092
 2211SOL    HW1 8640   7.242  10.956   5.337  2.4731  1.7534 -0.6225
 2211SOL    HW2 8641   7.260  11.100   5.291 -1.2960  3.1680  1.8295
 2212SOL     OW 8642  11.162   2.702   1.363  1.0945  0.7880 -0.0867
 2212SOL    HW1 8643  11.117   2.776   1.323 -1.4755 -0.0773  1.0352
 2212SOL    HW2 8644  11.173   2.728   1.455 -2.0273 -1.0269  0.9297
 2213SOL     OW 8645   5.720   9.046   6.242  0.0707  0.2487 -0.4111
 2213SOL    HW1 8646   5.775   8.968   6.241 -1.1282 -0.6332  0.0082
 2213SOL    HW2 8647   5.749   9.097   6.166  1.9148  0.1692  0.1957
 2214SOL     OW 8648   7.261   8.134   4.724  0.4385 -0.7582  0.4005
 2214SOL    HW1 8649   7.348   8.175   4.725 -0.7320  1.8710  0.7901
 2214SOL    HW2 8650   7.209   8.189   4.667 -1.4477 -1.2653  1.5502
 2215SOL     OW 8651  10.832   9.608   6.358  0.0004 -0.5023  0.1196
 2215SOL    HW1 8652  10.741   9.581   6.372  0.0634 -1.2923 -0.8641
 2215SOL    HW2 8653  10.842   9.612   6.263  0.9838 -0.4069  0.2128
 2216SOL     OW 8654  10.489   1.784   5.851  0.5401  0.6588  0.5011
 2216SOL    HW1 8655  10.561   1.750   5.903 -0.0368  0.7383  1.3792
 2216SOL    HW2 8656  10.528   1.805   5.766  1.7401  1.5204  1.2269
 2217SOL     OW 8657   3.336   8.121   5.573  0.0471  0.0054 -0.0448
 2217SOL    HW1 8658   3.384   8.115   5.656  0.3526 -0.0732 -0.2258
 2217SOL    HW2 8659   3.396   8.166   5.514  0.5119 -1.4231 -0.7133
 2218SOL     OW 8660  10.397   1.406   5.195 -0.0397 -0.6336 -0.4233
 2218SOL    HW1 8661  10.365   1.380   5.108  2.2877 -0.2484 -1.4449
 2218SOL    HW2 8662  10.488   1.379   5.197  0.2496  0.2832  1.5487
 2219SOL     OW 8663   1.254   7.377   1.656 -0.1527  0.9090 -0.3560
 2219SOL    HW1 8664   1.322   7.311   1.668 -0.7815  0.2329 -0.4478
 2219SOL    HW2 8665   1.201   7.371   1.736 -0.9530  0.4077 -0.9066
 2220SOL     OW 8666   1.513   3.288   1.442 -0.4606 -0.0618  0.4313
 2220SOL    HW1 8667   1.442   3.352   1.443 -2.0986 -1.6875 -1.9033
 2220SOL    HW2 8668   1.490   3.227   1.512 -0.2312  0.5193  1.0261
 2221SOL     OW 8669   5.617   5.435  10.456 -0.0179 -0.4547  0.0153
 2221SOL    HW1 8670   5.635   5.355  10.407 -0.3293 -0.5477  0.0555
 2221SOL    HW2 8671   5.548   5.479  10.407 -2.3012 -1.8653  1.7878
 2222SOL     OW 8672  10.146   2.382   9.207 -0.1777  0.0344 -0.1008
 2222SOL    HW1 8673  10.232   2.405   9.243  0.4246 -0.8071 -0.9122
 2222SOL    HW2 8674  10.122   2.301   9.252  1.1741 -1.7456 -2.3124
 2223SOL     OW 8675   0.581  10.464  11.228 -0.2550  0.5726  0.4534
 2223SOL    HW1 8676   0.654  10.516  11.260  0.1078  1.1037 -1.1327
 2223SOL    HW2 8677   0.551  10.510  11.149 -1.2501 -0.5153  0.1522
 2224SOL     OW 8678  10.998   7.120   3.662 -0.1786  0.4473  0.3913
 2224SOL    HW1 8679  10.926   7.174   3.694  0.1964  0.3921  1.3544
 2224SOL    HW2 8680  10.968   7.030   3.676 -1.4268  0.2696 -2.5371
 2225SOL     OW 8681   6.506   9.935   1.102  0.0379  0.0643 -0.0880
 2225SOL    HW1 8682   6.538  10.020   1.131  1.0408  0.5541 -2.3680
 2225SOL    HW2 8683   6.415   9.950   1.077  0.4479  0.7229 -1.2711
 2226SOL     OW 8684   6.964   0.844   4.700  0.1569 -0.9225  0.0275
 2226SOL    HW1 8685   6.898   0.863   4.633  1.5278 -0.5099 -1.2650
 2226SOL    HW2 8686   7.005   0.929   4.718  0.6802 -1.2571  0.4299
 2227SOL     OW 8687   1.029   3.016  10.202 -0.4333 -0.3399  0.5113
 2227SOL    HW1 8688   1.107   2.961  10.199  0.3618  0.6647  1.5322
 2227SOL    HW2 8689   1.045   3.075  10.276 -1.6513  0.6481  0.0192
 2228SOL     OW 8690   9.391  10.463   4.749  0.4221 -0.3887 -0.0907
 2228SOL    HW1 8691   9.455  10.424   4.809  2.5403  1.6251 -0.8448
 2228SOL    HW2 8692   9.422  10.438   4.662  0.9377  1.5259 -0.5159
 2229SOL     OW 8693   5.392   6.510   4.686 -0.0479 -0.0944  0.0020
 2229SOL    HW1 8694   5.347   6.537   4.766  3.2414 -0.1420  2.0482
 2229SOL    HW2 8695   5.352   6.425   4.664 -1.4296  0.1937  1.2090
 2230SOL     OW 8696   6.726  10.925   2.098 -0.1102 -0.3943  0.6819
 2230SOL    HW1 8697   6.639  10.954   2.068  0.8840  0.3481 -1.7000
 2230SOL    HW2 8698   6.730  10.833   2.074 -0.4113 -0.5539  1.2341
 2231SOL     OW 8699   1.316   1.864   5.562  0.0343 -0.7211 -0.3904
 2231SOL    HW1 8700   1.311   1.771   5.584  1.2006 -1.2282 -2.0997
 2231SOL    HW2 8701   1.336   1.866   5.469  0.4024  1.2585 -0.3196
 2232SOL     OW 8702   5.393   2.366   9.091  0.0423  0.1106 -0.4941
 2232SOL    HW1 8703   5.387   2.381   8.996 -0.1512 -0.5375 -0.5867
 2232SOL    HW2 8704   5.402   2.271   9.100 -0.1983  0.1454  0.1525
 2233SOL     OW 8705   9.390   5.613   5.403 -0.1857  0.2066  0.1821
 2233SOL    HW1 8706   9.459   5.578   5.346 -1.6614 -0.7449 -1.0937
 2233SOL    HW2 8707   9.424   5.600   5.492  0.1533 -2.8836 -0.2802
 2234SOL     OW 8708   3.770  10.960   2.040  0.3180  0.3025  0.2884
 2234SOL    HW1 8709   3.709  10.985   2.109  0.1051 -2.6861  1.3261
 2234SOL    HW2 8710   3.806  10.876   2.069  3.6320  1.0757 -1.1359
 2235SOL     OW 8711   3.365   6.174   2.340  0.2427 -0.1956  0.4139
 2235SOL    HW1 8712   3.281   6.139   2.371 -0.7498  1.4860 -0.2499
 2235SOL    HW2 8713   3.406   6.210   2.418  0.4022 -1.0948  0.7563
 2236SOL     OW 8714   4.962   2.449   9.702  0.1714 -0.0042  0.3513
 2236SOL    HW1 8715   5.025   2.446   9.630  0.6050  2.5671  0.5040
 2236SOL    HW2 8716   5.012   2.421   9.778  0.9946  1.3330  0.3443
 2237SOL     OW 8717   2.761   0.743  10.452  0.7510 -0.1079  0.1938
 2237SOL    HW1 8718   2.712   0.670  10.490 -0.3240  0.5323  0.0569
 2237SOL    HW2 8719   2.806   0.783  10.526  1.5236 -1.0114  0.2450
 2238SOL     OW 8720   4.307   5.581   8.125 -0.3543 -0.2786  0.1939
 2238SOL    HW1 8721   4.249   5.655   8.106 -0.6381 -0.1915  1.3102
 2238SOL    HW2 8722   4.351   5.606   8.206  0.4855 -0.7977 -0.0955
 2239SOL     OW 8723   1.978   0.879   5.880  0.1364 -0.1688  0.1176
 2239SOL    HW1 8724   1.931   0.876   5.797 -0.6658  0.0635  0.5496
 2239SOL    HW2 8725   1.991   0.788   5.905 -0.3831 -0.2374  0.1499
 2240SOL     OW 8726   1.991   3.959   8.980  0.3127  1.0134  0.2998
 2240SOL    HW1 8727   1.989   3.887   8.917  1.3273  1.4879 -0.2981
 2240SOL    HW2 8728   2.035   4.030   8.933 -2.6385  2.8575  0.0263
 2241SOL     OW 8729   0.180   1.372   0.097  0.0712  0.5104  0.1993
 2241SOL    HW1 8730   0.104   1.426   0.115  0.5191  1.5457 -0.8951
 2241SOL    HW2 8731   0.144   1.289   0.065 -0.7152  2.2162 -3.9630
 2242SOL     OW 8732   8.508   0.930   5.485  0.2699 -0.5749 -0.0405
 2242SOL    HW1 8733   8.459   0.906   5.563  0.2365 -0.2888  0.0287
 2242SOL    HW2 8734   8.600   0.931   5.513  0.3207 -1.1593 -0.1823
 2243SOL     OW 8735   0.999   4.066   4.081 -0.0041  0.1649  0.1758
 2243SOL    HW1 8736   0.925   4.044   4.024 -0.1318  0.8058  0.0803
 2243SOL    HW2 8737   0.987   4.159   4.100  1.0452  0.4072 -0.2461
 2244SOL     OW 8738   6.480   6.777   1.265 -0.3492 -0.4940  0.1179
 2244SOL    HW1 8739   6.451   6.701   1.214  1.2992 -0.1712 -1.3740
 2244SOL    HW2 8740   6.421   6.848   1.238 -0.3025 -0.6428 -0.3773
 2245SOL     OW 8741  11.187  10.033   6.305  0.2384 -0.2707  0.1351
 2245SOL    HW1 8742  11.131  10.033   6.383  0.0312 -1.9385  0.0365
 2245SOL    HW2 8743  11.225   9.945   6.304  1.9934  0.4494 -0.4320
 2246SOL     OW 8744   4.183   2.937   4.711 -0.0912 -0.2523 -0.0560
 2246SOL    HW1 8745   4.168   2.851   4.751  1.6874 -0.3643  0.4712
 2246SOL    HW2 8746   4.161   2.999   4.780  0.0803 -0.3530  0.0928
 2247SOL     OW 8747   9.191   6.235   6.337  0.1935 -0.3009  0.5388
 2247SOL    HW1 8748   9.188   6.288   6.258 -0.4835  0.4952  1.0916
 2247SOL    HW2 8749   9.109   6.186   6.337  0.1381 -0.2081  0.8171
 2248SOL     OW 8750   5.787   9.196   0.082  0.1818 -0.4189 -0.2776
 2248SOL    HW1 8751   5.765   9.105   0.102  0.1008 -0.3438 -0.0213
 2248SOL    HW2 8752   5.836   9.227   0.158 -2.7886  0.8333  1.2660
 2249SOL     OW 8753   6.233   9.498   6.469  0.0129  0.2731 -0.0874
 2249SOL    HW1 8754   6.311   9.540   6.505 -0.2671 -0.8207  1.9933
 2249SOL    HW2 8755   6.197   9.447   6.542 -0.6910 -2.0715 -1.9062
 2250SOL     OW 8756   9.946   8.528   0.436 -0.0294 -0.3378  0.2101
 2250SOL    HW1 8757   9.970   8.610   0.394 -1.0187 -0.7671 -1.2884
 2250SOL    HW2 8758  10.019   8.469   0.418 -0.2260 -0.3704 -0.5161
 2251SOL     OW 8759   7.910   4.816   8.912 -0.1074  0.6206  0.7344
 2251SOL    HW1 8760   7.945   4.829   9.000  1.2309 -0.3810  0.3840
 2251SOL    HW2 8761   7.855   4.892   8.896 -0.5758  0.6948  2.5289
 2252SOL     OW 8762   8.527   6.353   6.251  0.3517  0.0980  0.4170
 2252SOL    HW1 8763   8.506   6.264   6.281 -1.4830  0.3400 -0.0385
 2252SOL    HW2 8764   8.600   6.380   6.306 -0.7073 -0.7396  2.3675
 2253SOL     OW 8765   3.838   3.465   4.846 -0.4274 -0.6740  0.1829
 2253SOL    HW1 8766   3.914   3.457   4.902  2.0190  3.0064 -2.1952
 2253SOL    HW2 8767   3.870   3.443   4.758 -2.1901  0.5684 -0.8398
 2254SOL     OW 8768   2.947   9.530   8.746 -0.6155  0.2455  0.1948
 2254SOL    HW1 8769   2.901   9.494   8.822 -0.9429  2.0732  0.9177
 2254SOL    HW2 8770   3.031   9.485   8.745 -1.0984 -0.6930  0.9027
 2255SOL     OW 8771   9.488   8.000  10.312 -0.7391 -0.6090 -0.1606
 2255SOL    HW1 8772   9.431   8.001  10.389 -0.3057 -3.1440  0.3068
 2255SOL    HW2 8773   9.537   7.918  10.320  1.1420  0.2496 -1.8682
 2256SOL     OW 8774   2.140   0.798  10.064  0.1607  0.1567  0.4384
 2256SOL    HW1 8775   2.142   0.762   9.975 -4.5586 -0.1765  0.2636
 2256SOL    HW2 8776   2.112   0.725  10.119  2.9745  0.3600  2.3750
 2257SOL     OW 8777   6.284   7.488   3.185 -0.8042 -0.6719 -0.2565
 2257SOL    HW1 8778   6.319   7.488   3.096 -2.7716  0.5852 -1.1006
 2257SOL    HW2 8779   6.260   7.397   3.202 -0.3018 -0.9393 -0.9726
 2258SOL     OW 8780   9.207   5.006   6.912 -0.2639 -0.3188  0.0883
 2258SOL    HW1 8781   9.204   4.930   6.970 -1.5677  0.1258  0.6554
 2258SOL    HW2 8782   9.298   5.011   6.883 -0.1443 -2.0586  0.0671
 2259SOL     OW 8783   9.102   5.110   6.049 -0.0151  0.1338  0.8305
 2259SOL    HW1 8784   9.164   5.040   6.067  1.4939  1.8657  2.8641
 2259SOL    HW2 8785   9.109   5.125   5.955  2.0636 -0.2911  0.8825
 2260SOL     OW 8786   9.657  10.245   2.562  0.0206  0.3179 -0.0023
 2260SOL    HW1 8787   9.665  10.183   2.634  1.0607  0.6635  0.1997
 2260SOL    HW2 8788   9.563  10.248   2.542 -0.0577 -1.2561  0.0263
 2261SOL     OW 8789   3.319  10.173   7.632 -0.3236  0.1627 -0.3120
 2261SOL    HW1 8790   3.396  10.199   7.580 -0.9301  0.8461 -0.8950
 2261SOL    HW2 8791   3.332  10.080   7.649  0.4614  0.1905 -0.7100
 2262SOL     OW 8792   0.344   2.042   0.673 -0.4772  0.4437  0.2812
 2262SOL    HW1 8793   0.403   2.030   0.747 -0.0857  0.1424 -0.0690
 2262SOL    HW2 8794   0.259   2.059   0.712 -0.4455 -0.5020  0.8054
 2263SOL     OW 8795  10.639   5.918   7.742 -0.2182 -0.0270  0.5582
 2263SOL    HW1 8796  10.627   5.824   7.752  0.3054 -0.2917 -1.0502
 2263SOL    HW2 8797  10.565   5.946   7.687 -0.8527  0.6766  1.7191
 2264SOL     OW 8798   7.444   9.130   8.358  0.8875 -0.1577 -0.1686
 2264SOL    HW1 8799   7.379   9.175   8.304  0.9415 -0.2061 -0.2734
 2264SOL    HW2 8800   7.453   9.044   8.318 -0.2270 -0.7682  0.8275
 2265SOL     OW 8801   9.401   5.885   4.317  0.1042 -0.0182  0.3638
 2265SOL    HW1 8802   9.394   5.789   4.320  1.0497 -0.1443 -0.8324
 2265SOL    HW2 8803   9.466   5.907   4.383  0.1107 -0.2287  0.4276
 2266SOL     OW 8804   6.098   3.154   7.075  0.3271 -0.7354  0.5616
 2266SOL    HW1 8805   6.013   3.148   7.119 -1.2854  1.5612 -1.9198
 2266SOL    HW2 8806   6.102   3.245   7.043  3.9415 -0.6336  0.8997
 2267SOL     OW 8807   1.516   5.741   4.968  0.2820  0.4981 -0.3075
 2267SOL    HW1 8808   1.592   5.714   5.019 -0.6910 -0.6697  0.5907
 2267SOL    HW2 8809   1.485   5.820   5.011 -0.6612 -0.6007  1.1131
 2268SOL     OW 8810   3.499   3.176   8.595  0.1818  0.2258  0.1735
 2268SOL    HW1 8811   3.490   3.254   8.541 -1.2782 -1.7299 -2.6969
 2268SOL    HW2 8812   3.418   3.128   8.582  1.3141 -2.1406  1.1934
 2269SOL     OW 8813   0.641   6.181   2.866  0.1848 -0.4266  0.0208
 2269SOL    HW1 8814   0.627   6.104   2.922 -3.8094  0.4521  0.5234
 2269SOL    HW2 8815   0.645   6.145   2.777 -0.6794 -1.2966  0.3163
 2270SOL     OW 8816   0.922   3.170   5.221  0.4502 -0.0118 -0.1954
 2270SOL    HW1 8817   0.868   3.103   5.262  1.4647 -0.7837 -0.0788
 2270SOL    HW2 8818   0.934   3.140   5.131  0.9789 -0.0371 -0.1188
 2271SOL     OW 8819   3.635   2.058   7.663  0.4260 -0.0640 -0.8073
 2271SOL    HW1 8820   3.677   2.076   7.579 -1.8141  1.3752 -1.7263
 2271SOL    HW2 8821   3.692   2.099   7.727 -0.4516  3.7172 -2.1862
 2272SOL     OW 8822   2.381   3.412   8.074  0.3754  0.2580  0.0952
 2272SOL    HW1 8823   2.373   3.319   8.091  0.3622  0.3210  0.4514
 2272SOL    HW2 8824   2.316   3.430   8.006 -0.5319  0.2365  0.9262
 2273SOL     OW 8825   1.205   3.685   9.954 -0.0885  0.2130 -0.0308
 2273SOL    HW1 8826   1.175   3.705   9.865 -0.2721  2.3642  0.4562
 2273SOL    HW2 8827   1.243   3.598   9.948  0.6153  0.6298 -2.3861
 2274SOL     OW 8828  10.277   2.745   4.028 -0.5344 -0.2712 -0.5239
 2274SOL    HW1 8829  10.315   2.660   4.009 -1.6682 -0.7468 -0.7694
 2274SOL    HW2 8830  10.347   2.808   4.011 -0.2135 -1.0083 -2.1421
 2275SOL     OW 8831   8.135   6.024   3.018  0.0234 -0.3700 -0.2029
 2275SOL    HW1 8832   8.220   5.985   3.040  0.2174 -0.7532 -1.5612
 2275SOL    HW2 8833   8.101   5.970   2.947 -0.8088  0.4975 -0.4862
 2276SOL     OW 8834  10.164   4.463   1.841 -0.1244  1.0070  0.7357
 2276SOL    HW1 8835  10.191   4.376   1.871  0.1923  1.4106  1.6413
 2276SOL    HW2 8836  10.188   4.464   1.748  2.3069  1.0601  1.3080
 2277SOL     OW 8837   5.717   1.088   7.905  0.1219 -0.5097 -0.2429
 2277SOL    HW1 8838   5.643   1.148   7.900  1.3641  1.0078 -2.3113
 2277SOL    HW2 8839   5.783   1.135   7.956  0.4316 -0.9639 -0.2143
 2278SOL     OW 8840   9.054   7.500   5.859 -0.0903  0.3425 -0.6972
 2278SOL    HW1 8841   9.051   7.407   5.838  0.8634 -0.0294  0.7500
 2278SOL    HW2 8842   9.010   7.508   5.944  1.0086  1.0126 -0.1735
 2279SOL     OW 8843   3.580   4.984   2.235  0.2442 -0.0100  0.1052
 2279SOL    HW1 8844   3.512   4.932   2.193 -0.4308  1.7651 -1.1286
 2279SOL    HW2 8845   3.535   5.030   2.306  0.7265 -0.7038  0.8797
 2280SOL     OW 8846   6.704   9.316   2.545  0.5806 -0.3261 -0.4329
 2280SOL    HW1 8847   6.688   9.222   2.550  1.7400 -0.4916  0.5086
 2280SOL    HW2 8848   6.710   9.335   2.451  2.9982 -1.6916 -0.6147
 2281SOL     OW 8849   6.986   9.138  10.950 -0.6488 -0.2944 -0.6391
 2281SOL    HW1 8850   7.043   9.181  10.886 -0.4071 -0.1526 -0.3272
 2281SOL    HW2 8851   7.040   9.070  10.989 -0.2625  0.7126  0.6263
 2282SOL     OW 8852   2.077  10.302   1.302  0.1831  0.1051  0.4156
 2282SOL    HW1 8853   2.043  10.241   1.367  0.7244 -0.7900 -0.1137
 2282SOL    HW2 8854   2.172  10.287   1.303  0.3273  0.9687  0.2998
 2283SOL     OW 8855   4.377   8.693   4.172 -0.4906 -0.4260 -0.1152
 2283SOL    HW1 8856   4.452   8.658   4.221  0.6302  3.6368  1.4870
 2283SOL    HW2 8857   4.304   8.691   4.234 -0.2470  0.5889  0.2185
 2284SOL     OW 8858   6.591   4.631   1.640 -0.3938 -0.2136 -0.0090
 2284SOL    HW1 8859   6.537   4.626   1.561 -1.6321 -0.5825  0.8140
 2284SOL    HW2 8860   6.645   4.708   1.628 -0.4713 -0.3393 -1.2678
 2285SOL     OW 8861   9.091   4.093   7.521  0.2335  0.4166  0.1354
 2285SOL    HW1 8862   9.010   4.072   7.567 -0.7460 -0.3603 -1.8105
 2285SOL    HW2 8863   9.073   4.175   7.476 -0.2184 -0.6821 -1.8182
 2286SOL     OW 8864  10.068   3.851   8.273 -0.4596 -0.4342 -0.3062
 2286SOL    HW1 8865   9.991   3.860   8.328 -1.1280 -0.4721 -1.2078
 2286SOL    HW2 8866  10.120   3.929   8.292 -0.1955 -0.9271  1.0838
 2287SOL     OW 8867   9.693   2.902   6.447 -0.1727  0.4625  0.4274
 2287SOL    HW1 8868   9.673   2.987   6.488 -0.8838  0.2996  0.4346
 2287SOL    HW2 8869   9.613   2.851   6.459 -1.0098  0.9139 -2.5183
 2288SOL     OW 8870   3.966   3.597   0.996  0.1577 -0.0690 -0.1388
 2288SOL    HW1 8871   3.944   3.632   1.083 -0.6302  1.2457 -0.8350
 2288SOL    HW2 8872   4.048   3.551   1.009  0.9324  1.5283  0.9847
 2289SOL     OW 8873   1.130   7.670   1.146  0.1913 -0.1644  0.2984
 2289SOL    HW1 8874   1.101   7.673   1.055  0.4067  1.5263  0.2405
 2289SOL    HW2 8875   1.049   7.660   1.196  0.0714 -1.0733 -0.0669
 2290SOL     OW 8876   1.080   0.258   3.654 -0.1983 -0.9375  0.1731
 2290SOL    HW1 8877   1.116   0.172   3.672  2.5730  0.1471  0.3788
 2290SOL    HW2 8878   1.108   0.278   3.564  0.0408  0.0985  0.4591
 2291SOL     OW 8879   6.768  10.649   4.194 -1.1086 -0.2674  0.8283
 2291SOL    HW1 8880   6.728  10.734   4.212 -1.6143 -0.4083  0.3620
 2291SOL    HW2 8881   6.809  10.624   4.278 -0.9786  0.4169  0.9733
 2292SOL     OW 8882   6.156   0.338  10.111 -0.0727 -0.8683 -0.3154
 2292SOL    HW1 8883   6.124   0.398  10.179 -1.2177 -1.1795 -0.5589
 2292SOL    HW2 8884   6.089   0.270  10.105  0.7995 -1.7342 -0.6340
 2293SOL     OW 8885   1.497  10.624   2.423 -0.3856  0.8802 -0.5980
 2293SOL    HW1 8886   1.509  10.717   2.404  3.5863  0.9580  1.3861
 2293SOL    HW2 8887   1.553  10.578   2.361 -0.8094 -0.0704 -0.3052
 2294SOL     OW 8888   5.425   9.996   9.506 -0.0539  0.3255  0.0389
 2294SOL    HW1 8889   5.471   9.931   9.452 -1.6545 -1.1093  0.3089
 2294SOL    HW2 8890   5.457  10.080   9.474  1.3548 -0.5516 -1.0180
 2295SOL     OW 8891   4.319   8.772   8.066 -0.0186 -0.5268  0.0533
 2295SOL    HW1 8892   4.361   8.754   8.150 -0.7028 -2.9688 -0.0378
 2295SOL    HW2 8893   4.353   8.704   8.007 -0.1392  0.6603 -1.4578
 2296SOL     OW 8894   7.592   2.506   0.977  0.2778 -0.0305  0.5655
 2296SOL    HW1 8895   7.635   2.587   0.949 -1.0165  0.5813  0.2754
 2296SOL    HW2 8896   7.633   2.437   0.925  1.5297  0.3899  0.9550
 2297SOL     OW 8897   8.702   8.002   1.640  0.0180  0.0893  0.0500
 2297SOL    HW1 8898   8.788   8.041   1.624  0.5384 -0.1690  1.9985
 2297SOL    HW2 8899   8.659   8.061   1.701 -1.1007  0.0581 -0.6760
 2298SOL     OW 8900   7.048   0.155   9.585  0.4887 -0.0267  0.0435
 2298SOL    HW1 8901   7.007   0.231   9.628  1.6730  1.1489 -0.8347
 2298SOL    HW2 8902   6.975   0.109   9.543 -0.2661  0.5638  0.6675
 2299SOL     OW 8903   6.440   7.148   3.906  0.2953 -0.4093 -0.2357
 2299SOL    HW1 8904   6.375   7.197   3.957  0.3547 -0.0276 -0.5220
 2299SOL    HW2 8905   6.459   7.204   3.831  0.3627 -0.8783 -0.5717
 2300SOL     OW 8906   2.954   5.762   9.825  0.2954  0.1956 -0.0889
 2300SOL    HW1 8907   2.957   5.804   9.739  0.4981 -1.1508 -0.7498
 2300SOL    HW2 8908   2.923   5.832   9.883 -0.6437  0.9124 -1.3799
 2301SOL     OW 8909   4.532   2.380   2.911 -0.0952 -0.1642 -0.3736
 2301SOL    HW1 8910   4.492   2.371   2.825  0.8385 -2.3397 -0.6389
 2301SOL    HW2 8911   4.474   2.332   2.970  0.4610 -0.6420 -0.2067
 2302SOL     OW 8912   3.321   9.086   9.000 -0.1906 -0.3393 -0.3060
 2302SOL    HW1 8913   3.231   9.118   8.992  0.1796  1.1299  0.8361
 2302SOL    HW2 8914   3.375   9.159   8.969  0.6193 -1.0259 -0.5300
 2303SOL     OW 8915   1.470   3.603   7.091 -0.3107 -0.1156  0.3201
 2303SOL    HW1 8916   1.518   3.533   7.135  1.8707  0.5783 -0.8504
 2303SOL    HW2 8917   1.507   3.684   7.127  0.9423  0.4581 -2.0569
 2304SOL     OW 8918   9.801   3.780   0.690  0.0062 -0.4153 -0.3611
 2304SOL    HW1 8919   9.744   3.703   0.697  0.8931 -0.9523  1.6792
 2304SOL    HW2 8920   9.889   3.745   0.705  0.3778  1.0499  1.0607
 2305SOL     OW 8921   3.506   4.580  10.274 -0.2481  0.3034 -0.4011
 2305SOL    HW1 8922   3.587   4.529  10.273  0.1741  0.9633 -1.1502
 2305SOL    HW2 8923   3.436   4.514  10.276  0.2923 -0.2843 -0.5034
 2306SOL     OW 8924   8.970   7.685   5.628  0.0161 -0.0798 -0.0586
 2306SOL    HW1 8925   8.889   7.641   5.599  1.5006 -3.3512  0.2731
 2306SOL    HW2 8926   8.995   7.639   5.708  1.7873  1.4250  0.3275
 2307SOL     OW 8927   2.333   9.053   1.116 -1.0685 -0.4128  0.1584
 2307SOL    HW1 8928   2.341   9.100   1.033  0.6841 -0.9808 -0.0403
 2307SOL    HW2 8929   2.393   9.098   1.175 -0.5047 -1.4462  0.4042
 2308SOL     OW 8930   2.645   8.241   6.118  0.3661  0.2337  0.0963
 2308SOL    HW1 8931   2.738   8.253   6.100  1.0867 -2.5808  1.3734
 2308SOL    HW2 8932   2.642   8.205   6.207 -2.0122  0.8693  0.3534
 2309SOL     OW 8933   5.278   5.835   5.089  0.1972 -0.4481 -0.3260
 2309SOL    HW1 8934   5.207   5.778   5.118  2.2633 -1.4810  3.2780
 2309SOL    HW2 8935   5.267   5.915   5.140  1.8154 -0.8256  0.6959
 2310SOL     OW 8936   7.291   6.115   6.894 -0.4634  0.3508  0.0181
 2310SOL    HW1 8937   7.278   6.073   6.979 -0.5138  0.3941  0.0320
 2310SOL    HW2 8938   7.347   6.055   6.846 -1.0374 -0.0286 -0.1857
 2311SOL     OW 8939   2.754   1.989   3.891 -0.5542 -0.7748 -0.4248
 2311SOL    HW1 8940   2.701   2.056   3.849 -1.2432  0.6352  2.4519
 2311SOL    HW2 8941   2.695   1.948   3.955  0.0621 -3.6717 -1.5532
 2312SOL     OW 8942   2.738   2.638   4.631  0.2259 -0.0201  0.3070
 2312SOL    HW1 8943   2.757   2.723   4.672  1.6540  0.4100 -1.1241
 2312SOL    HW2 8944   2.806   2.580   4.664 -1.4256 -0.9986  2.1961
 2313SOL     OW 8945  10.519   5.361   7.093  0.0910 -0.0419  0.2796
 2313SOL    HW1 8946  10.527   5.411   7.011  0.4136 -0.4762  0.0375
 2313SOL    HW2 8947  10.468   5.284   7.069  2.9940 -1.9204 -0.3851
 2314SOL     OW 8948   0.925   8.782  10.465  1.2676  0.4122  0.1202
 2314SOL    HW1 8949   0.875   8.714  10.511 -0.5641  0.3445 -1.8246
 2314SOL    HW2 8950   1.006   8.737  10.439  1.2704 -0.2268  1.1577
 2315SOL     OW 8951   5.545   8.705   3.215 -0.6032 -0.8385 -0.2160
 2315SOL    HW1 8952   5.554   8.770   3.284 -0.8398  2.7701 -3.3036
 2315SOL    HW2 8953   5.635   8.685   3.189 -0.5510  0.0774 -0.7731
 2316SOL     OW 8954   6.786   9.265   6.715  0.0807 -0.2120  0.0693
 2316SOL    HW1 8955   6.830   9.321   6.779 -1.2382  1.5561 -0.4842
 2316SOL    HW2 8956   6.696   9.299   6.711 -0.1517 -0.9297 -1.9500
 2317SOL     OW 8957   2.222   6.742   4.561 -0.0242 -0.1320 -0.1810
 2317SOL    HW1 8958   2.247   6.652   4.582 -1.0679 -0.8038 -1.6755
 2317SOL    HW2 8959   2.135   6.753   4.599  0.5417  0.6684  0.9788
 2318SOL     OW 8960   7.633   5.429   1.628 -0.1734  0.4259  0.5752
 2318SOL    HW1 8961   7.539   5.423   1.611 -0.5036  0.7181  2.1331
 2318SOL    HW2 8962   7.674   5.398   1.548 -1.6004 -0.2022  0.0561
 2319SOL     OW 8963   3.846  10.624   6.853  0.8438 -0.7126 -1.0110
 2319SOL    HW1 8964   3.874  10.705   6.811  2.0352 -0.7169 -0.2739
 2319SOL    HW2 8965   3.777  10.590   6.796  0.1703  0.9199 -1.2098
 2320SOL     OW 8966   6.529   3.261   0.043 -1.0637 -0.1329  0.4567
 2320SOL    HW1 8967   6.561   3.174   0.020  0.8108 -0.5052  3.8859
 2320SOL    HW2 8968   6.607   3.316   0.044 -2.3586  2.0646 -2.8624
 2321SOL     OW 8969   1.293  10.674   2.902  0.0178  0.5731  0.5275
 2321SOL    HW1 8970   1.211  10.692   2.949  0.2227 -0.6769  1.3954
 2321SOL    HW2 8971   1.311  10.582   2.919  1.3310  0.6939 -0.1091
 2322SOL     OW 8972   9.564  10.452   4.950 -0.3781 -0.3792  0.3516
 2322SOL    HW1 8973   9.629  10.522   4.949 -0.1267 -0.6180 -0.3082
 2322SOL    HW2 8974   9.487  10.492   4.990  0.6716 -0.5673  2.7103
 2323SOL     OW 8975   6.162   5.823   8.608 -0.1444  0.3336  0.1427
 2323SOL    HW1 8976   6.152   5.831   8.513  0.5577 -0.4217 -0.0076
 2323SOL    HW2 8977   6.097   5.757   8.633  0.5196 -0.3924 -0.0070
 2324SOL     OW 8978   9.206   0.412   1.693 -0.6056  0.3111  0.4930
 2324SOL    HW1 8979   9.203   0.479   1.625 -0.5392 -0.3416 -0.1525
 2324SOL    HW2 8980   9.148   0.445   1.762 -1.7322  0.3382 -0.4537
 2325SOL     OW 8981   8.577   9.759   6.044  0.1871 -0.1224 -0.6157
 2325SOL    HW1 8982   8.527   9.713   6.111  1.0972 -0.5195 -0.2013
 2325SOL    HW2 8983   8.659   9.781   6.086  0.3015  0.6697 -1.2465
 2326SOL     OW 8984   6.811   0.944   3.953  0.4622  0.1073 -0.4181
 2326SOL    HW1 8985   6.854   0.896   4.024  1.5601 -0.3012 -1.3264
 2326SOL    HW2 8986   6.730   0.896   3.937 -0.8895  1.4158  1.9409
 2327SOL     OW 8987   3.680  10.821   8.521  0.0803 -0.2251 -0.1546
 2327SOL    HW1 8988   3.760  10.850   8.477  0.5731  0.4816  1.1743
 2327SOL    HW2 8989   3.609  10.861   8.471  0.5413 -0.7343 -1.2569
 2328SOL     OW 8990   7.274   3.823   7.252 -0.5968  0.4925 -0.1829
 2328SOL    HW1 8991   7.342   3.886   7.272 -0.2305 -0.3817  1.5376
 2328SOL    HW2 8992   7.320   3.749   7.213 -1.0181  1.2127 -2.1528
 2329SOL     OW 8993   2.137   4.026   9.177 -0.4248 -0.1410 -0.3205
 2329SOL    HW1 8994   2.089   3.975   9.112  1.5607 -2.2227 -0.2998
 2329SOL    HW2 8995   2.158   4.108   9.133 -1.4676 -0.3849 -1.3176
 2330SOL     OW 8996   9.211   2.659   4.476 -0.7478 -0.1088  0.1225
 2330SOL    HW1 8997   9.123   2.653   4.515 -1.0998  0.3904 -0.5696
 2330SOL    HW2 8998   9.211   2.592   4.408  0.1191 -1.4773  1.4259
 2331SOL     OW 8999   0.233  10.597  11.097  0.1837 -0.7368 -0.0602
 2331SOL    HW1 9000   0.184  10.656  11.154 -1.3483 -0.5056 -1.5355
 2331SOL    HW2 9001   0.206  10.621  11.008 -0.0976 -3.2557 -0.7543
 2332SOL     OW 9002   8.099   3.431   4.745 -0.7137 -0.0978 -0.1365
 2332SOL    HW1 9003   8.028   3.388   4.794 -0.9152 -0.2023 -0.5173
 2332SOL    HW2 9004   8.172   3.432   4.807 -1.2032  0.4948  0.4509
 2333SOL     OW 9005   4.605   9.838   5.194 -0.1565  0.2852 -0.0158
 2333SOL    HW1 9006   4.532   9.776   5.190  0.4930 -0.8849  3.1735
 2333SOL    HW2 9007   4.563   9.924   5.191 -1.3300 -0.2892 -1.6016
 2334SOL     OW 9008   1.772   3.200   6.548 -0.2326  0.4171  0.2016
 2334SOL    HW1 9009   1.825   3.228   6.473 -0.4098 -1.2277 -0.6070
 2334SOL    HW2 9010   1.783   3.105   6.550  0.1775  0.4591  2.6227
 2335SOL     OW 9011   5.726   5.116   5.159 -0.0062 -0.6789  0.0156
 2335SOL    HW1 9012   5.685   5.081   5.238  0.3954  1.0094  1.0348
 2335SOL    HW2 9013   5.655   5.154   5.109 -0.1975 -1.3237 -0.2110
 2336SOL     OW 9014   1.168   5.043   7.857  0.9886 -0.0446 -0.4732
 2336SOL    HW1 9015   1.152   5.057   7.951  0.5796 -0.8705 -0.4096
 2336SOL    HW2 9016   1.229   5.112   7.833 -1.3764  2.2639 -0.3321
 2337SOL     OW 9017   0.345   3.773   5.531 -0.6314  0.5311 -0.3856
 2337SOL    HW1 9018   0.424   3.754   5.583 -0.5472  0.7713 -0.4244
 2337SOL    HW2 9019   0.378   3.802   5.446 -0.7733 -1.8469 -1.3249
 2338SOL     OW 9020   0.003   1.961   0.110  0.3302  0.1477  0.0224
 2338SOL    HW1 9021   0.006   2.019   0.035  0.7410 -0.1020 -0.1574
 2338SOL    HW2 9022   0.092   1.927   0.118  0.8122  1.6284  1.7702
 2339SOL     OW 9023   4.843   1.606   9.387  0.3479 -1.0013  0.3701
 2339SOL    HW1 9024   4.824   1.553   9.310 -2.7486  1.4071 -0.7069
 2339SOL    HW2 9025   4.831   1.696   9.358  2.0055  0.1760  2.9713
 2340SOL     OW 9026   5.895   5.738   3.651 -0.2240 -0.3908 -0.3072
 2340SOL    HW1 9027   5.959   5.808   3.666  0.4092 -0.9470 -0.3850
 2340SOL    HW2 9028   5.811   5.776   3.678  0.2819  0.0029  0.7422
 2341SOL     OW 9029   7.156   8.473   0.456 -0.5100 -0.3592  0.3388
 2341SOL    HW1 9030   7.091   8.538   0.430  0.7155  0.3958 -1.0085
 2341SOL    HW2 9031   7.234   8.495   0.404  1.7279  0.3818  3.6429
 2342SOL     OW 9032   4.951   1.458   5.961 -0.5967 -0.2104  0.2682
 2342SOL    HW1 9033   4.901   1.514   6.021  1.0576  0.1553  1.3800
 2342SOL    HW2 9034   4.900   1.377   5.955 -0.8710 -0.2129  2.0902
 2343SOL     OW 9035   2.766   7.347   9.340  0.1909  0.1810  0.2824
 2343SOL    HW1 9036   2.695   7.286   9.359 -0.9157  0.9189 -1.2470
 2343SOL    HW2 9037   2.841   7.312   9.387 -0.7362 -1.6220  0.5053
 2344SOL     OW 9038  10.117  10.906   4.641  0.4381 -0.8077 -0.4145
 2344SOL    HW1 9039  10.162  10.988   4.662  0.6013 -0.4298 -2.0684
 2344SOL    HW2 9040  10.174  10.837   4.676  0.5434 -0.2441  0.5535
 2345SOL     OW 9041   1.675   0.862   4.506  0.1089  0.3037  0.1536
 2345SOL    HW1 9042   1.602   0.827   4.456 -1.5786 -0.0483  2.6668
 2345SOL    HW2 9043   1.724   0.785   4.535  0.7035  0.4717 -0.3708
 2346SOL     OW 9044   5.951   7.965   6.406  0.4776 -0.2158  1.0216
 2346SOL    HW1 9045   5.878   7.929   6.456  0.2882 -3.3998 -1.1858
 2346SOL    HW2 9046   6.029   7.929   6.449  0.4253 -1.0379  0.4633
 2347SOL     OW 9047   1.900   3.488   9.933  0.1791 -0.4216 -0.3006
 2347SOL    HW1 9048   1.822   3.493   9.878  0.3358  0.8428 -0.4307
 2347SOL    HW2 9049   1.929   3.579   9.943 -0.7450 -0.3617  3.1516
 2348SOL     OW 9050   0.284   9.766   3.272 -0.8629  0.0579  0.0351
 2348SOL    HW1 9051   0.209   9.788   3.217  0.3138  1.4921 -1.0631
 2348SOL    HW2 9052   0.315   9.850   3.305 -0.0567 -0.5649  0.9089
 2349SOL     OW 9053   1.690   9.473   1.482  0.0604 -0.3311  0.3947
 2349SOL    HW1 9054   1.655   9.557   1.454 -0.1436 -0.4544  0.2764
 2349SOL    HW2 9055   1.771   9.462   1.432  0.4592  0.1162  0.9259
 2350SOL     OW 9056   0.330   0.623  10.269  0.3572  0.5348 -0.2314
 2350SOL    HW1 9057   0.422   0.639  10.292  0.3382  1.2758 -0.6380
 2350SOL    HW2 9058   0.323   0.528  10.262  1.2318  0.4987 -0.7458
 2351SOL     OW 9059   8.750   3.066   3.098 -0.2139  0.2544 -0.1851
 2351SOL    HW1 9060   8.671   3.115   3.121  0.4696  1.1112  0.3887
 2351SOL    HW2 9061   8.776   3.100   3.012 -0.4250  0.0152 -0.3461
 2352SOL     OW 9062   8.912   4.544   3.499  0.6941  0.4460  0.0646
 2352SOL    HW1 9063   8.894   4.624   3.450 -0.3818  0.0835 -0.1549
 2352SOL    HW2 9064   8.995   4.513   3.463  1.4815  1.8141  0.6327
 2353SOL     OW 9065   8.696   6.753   6.275  0.0090 -0.2767  0.0583
 2353SOL    HW1 9066   8.713   6.677   6.331  2.3450  0.4635  0.4498
 2353SOL    HW2 9067   8.606   6.779   6.298  0.8856  0.1373  3.6953
 2354SOL     OW 9068   9.571   8.300   6.646  0.0644 -0.0598  0.0919
 2354SOL    HW1 9069   9.647   8.354   6.665  1.0723 -1.3180 -0.2665
 2354SOL    HW2 9070   9.602   8.235   6.583 -1.8151  0.6236 -1.6752
 2355SOL     OW 9071   0.801   2.157  11.074 -0.4056  0.1522 -0.0995
 2355SOL    HW1 9072   0.713   2.145  11.039 -1.3817 -1.9991  2.7284
 2355SOL    HW2 9073   0.788   2.207  11.155  1.0441  0.1636  0.1528
 2356SOL     OW 9074   2.974   9.044   2.355  0.8620 -0.2274  0.9542
 2356SOL    HW1 9075   3.048   8.986   2.339 -0.7208 -2.9708  2.6393
 2356SOL    HW2 9076   2.956   9.035   2.449 -1.1621  0.8541  0.7394
 2357SOL     OW 9077   6.962   2.358   8.203 -0.0505  0.0115  0.5343
 2357SOL    HW1 9078   6.962   2.388   8.294  1.5370 -1.3622  1.0294
 2357SOL    HW2 9079   6.932   2.267   8.207 -0.6073  0.1322 -0.4154
 2358SOL     OW 9080   3.872   0.686   6.501 -0.0395 -0.2518  1.1800
 2358SOL    HW1 9081   3.931   0.738   6.448  0.1632 -1.9352 -0.3414
 2358SOL    HW2 9082   3.791   0.680   6.450  0.2638 -2.1448  0.8422
 2359SOL     OW 9083  10.749   2.454   5.460  0.7150 -0.2576 -0.3181
 2359SOL    HW1 9084  10.809   2.524   5.486 -2.0386  1.8142  0.9246
 2359SOL    HW2 9085  10.733   2.405   5.540 -0.4629  0.2386 -0.2273
 2360SOL     OW 9086   8.878   3.601   6.802  0.0491 -0.1723  0.1312
 2360SOL    HW1 9087   8.793   3.575   6.838 -1.1323  1.6380 -1.1522
 2360SOL    HW2 9088   8.857   3.670   6.738  2.3278 -0.9717 -1.6175
 2361SOL     OW 9089   6.954   8.340  10.251  0.0869  0.0145  0.0807
 2361SOL    HW1 9090   6.949   8.292  10.169  0.6763  2.4454 -1.4653
 2361SOL    HW2 9091   6.884   8.404  10.246 -1.9159 -1.6941  2.9238
 2362SOL     OW 9092   7.944  11.120   4.989  0.4018  0.3165  0.3191
 2362SOL    HW1 9093   7.978  11.173   4.916  0.2955 -1.3985 -1.0332
 2362SOL    HW2 9094   7.858  11.091   4.958 -0.2151  0.6238  1.6966
 2363SOL     OW 9095   3.970   4.169   8.743 -0.2140  1.0285 -0.4580
 2363SOL    HW1 9096   3.900   4.232   8.761 -0.1742  2.0150 -3.2756
 2363SOL    HW2 9097   3.940   4.122   8.666  2.1071  1.3541 -1.6467
 2364SOL     OW 9098   3.710   7.556   0.985  0.1562 -0.1723  0.2702
 2364SOL    HW1 9099   3.796   7.520   1.010  0.2975 -0.0876 -0.0916
 2364SOL    HW2 9100   3.647   7.497   1.025  0.3778  0.1505  1.1224
 2365SOL     OW 9101   6.719   4.721   2.542 -0.4154  0.0910  0.6066
 2365SOL    HW1 9102   6.756   4.706   2.629  3.4495 -0.2286 -0.8922
 2365SOL    HW2 9103   6.722   4.816   2.532  1.2246  0.0290  0.1274
 2366SOL     OW 9104   4.031   9.358   1.859  0.3881  0.1555  0.0360
 2366SOL    HW1 9105   4.049   9.362   1.953  0.3974 -0.5246  0.0625
 2366SOL    HW2 9106   4.025   9.265   1.839 -2.0800  0.3048 -0.1839
 2367SOL     OW 9107   7.671   4.166   5.740  0.4058 -0.4093 -0.5392
 2367SOL    HW1 9108   7.688   4.255   5.709 -0.9920  0.0856  0.0290
 2367SOL    HW2 9109   7.577   4.155   5.729 -0.4076  0.0468  3.9468
 2368SOL     OW 9110   8.423   3.221   6.617 -0.0766  0.1264 -0.1485
 2368SOL    HW1 9111   8.492   3.191   6.558 -1.3760 -1.4494 -0.9408
 2368SOL    HW2 9112   8.467   3.231   6.702  1.2548 -0.2422 -0.7700
 2369SOL     OW 9113   3.232   3.611   9.496 -0.5421  0.3340  0.1895
 2369SOL    HW1 9114   3.259   3.686   9.550 -1.2815 -0.0074  1.0566
 2369SOL    HW2 9115   3.140   3.629   9.475 -0.1190  0.7643 -1.5062
 2370SOL     OW 9116   8.575   5.890   3.657  0.7739  0.5299 -0.1327
 2370SOL    HW1 9117   8.541   5.816   3.706 -1.1232  1.7561  0.5242
 2370SOL    HW2 9118   8.551   5.873   3.566  1.5731 -0.2866 -0.2024
 2371SOL     OW 9119   6.967   7.502  10.570 -0.5770 -0.5367  0.1949
 2371SOL    HW1 9120   6.927   7.460  10.493  0.3503  0.3410 -0.8019
 2371SOL    HW2 9121   7.061   7.492  10.556 -0.3916 -0.0629  1.0605
 2372SOL     OW 9122   7.352   7.606   1.569  0.5708 -0.0174  0.1002
 2372SOL    HW1 9123   7.278   7.607   1.630  0.8742 -0.4647  0.4896
 2372SOL    HW2 9124   7.349   7.518   1.530  0.7784  0.0341 -0.0315
 2373SOL     OW 9125   0.481   3.662   3.590  0.3065 -0.5040 -0.2074
 2373SOL    HW1 9126   0.468   3.755   3.570 -0.7649 -0.0427  2.1968
 2373SOL    HW2 9127   0.432   3.616   3.522  0.4228  0.7027 -1.1477
 2374SOL     OW 9128   0.073   2.080   4.123  0.1598  0.3386  0.5035
 2374SOL    HW1 9129  -0.007   2.104   4.077 -0.7750 -2.0026  0.7571
 2374SOL    HW2 9130   0.045   2.064   4.213  0.2742 -3.0396  0.0773
 2375SOL     OW 9131   6.313   4.933   0.793  0.1043 -0.1008 -0.3292
 2375SOL    HW1 9132   6.240   4.992   0.814  0.0205  0.2194 -1.4244
 2375SOL    HW2 9133   6.380   4.953   0.859 -0.4751  0.1996  0.1814
 2376SOL     OW 9134   8.815   5.519   8.059 -0.1271  0.6793 -0.0624
 2376SOL    HW1 9135   8.833   5.429   8.033 -1.3150  0.9122 -1.8857
 2376SOL    HW2 9136   8.888   5.569   8.021  0.5977  0.5102  1.0532
 2377SOL     OW 9137   0.576   3.757   2.764  0.3936  0.1565 -0.3300
 2377SOL    HW1 9138   0.503   3.790   2.817  1.0362  0.0537  0.6598
 2377SOL    HW2 9139   0.569   3.662   2.772  0.5566  0.1434 -0.3475
 2378SOL     OW 9140   0.068   0.530   8.445 -0.4744 -0.5128  0.2700
 2378SOL    HW1 9141   0.027   0.445   8.456  0.4186 -1.0206 -0.2221
 2378SOL    HW2 9142   0.147   0.526   8.499 -0.0470 -0.2647 -0.3312
 2379SOL     OW 9143   4.115   0.437   4.127 -0.1026  0.6531  0.0091
 2379SOL    HW1 9144   4.191   0.495   4.124 -0.7300  1.5842  1.5344
 2379SOL    HW2 9145   4.051   0.479   4.069  1.0152 -0.9590 -2.5976
 2380SOL     OW 9146   2.991   4.994   6.980  0.1049 -0.8590  0.3241
 2380SOL    HW1 9147   2.919   5.014   7.040  0.7906  0.2534  0.8042
 2380SOL    HW2 9148   2.991   5.066   6.918 -0.9060 -2.2447 -1.3522
 2381SOL     OW 9149   8.697   2.016   5.654  0.3130 -0.4274 -0.1149
 2381SOL    HW1 9150   8.641   2.090   5.630  0.5205 -1.0820 -2.9824
 2381SOL    HW2 9151   8.786   2.049   5.647  0.3891 -0.2155  1.4670
 2382SOL     OW 9152   5.254   8.482   7.746  0.9107 -0.3163 -0.0973
 2382SOL    HW1 9153   5.306   8.560   7.765 -1.5435  1.3227  0.2696
 2382SOL    HW2 9154   5.198   8.470   7.823 -0.3262 -1.1055 -1.0709
 2383SOL     OW 9155   7.354   3.398   4.106  0.0698 -0.1711 -0.3888
 2383SOL    HW1 9156   7.288   3.330   4.092  0.7547 -1.1148  0.7790
 2383SOL    HW2 9157   7.375   3.393   4.199  1.5173  0.3498 -0.6548
 2384SOL     OW 9158  10.404   7.751   9.922  0.0631  0.0890 -0.4092
 2384SOL    HW1 9159  10.392   7.765   9.828 -0.2716  1.2512 -0.2032
 2384SOL    HW2 9160  10.402   7.655   9.932 -1.9411 -0.0152 -1.3190
 2385SOL     OW 9161   5.178   0.223   9.562 -0.2139  0.4197 -0.1905
 2385SOL    HW1 9162   5.240   0.173   9.615 -1.8226 -0.0142  1.4034
 2385SOL    HW2 9163   5.177   0.179   9.477  0.8536 -0.2066  0.1059
 2386SOL     OW 9164   8.425   5.501   7.360 -0.3563 -0.8098 -0.8044
 2386SOL    HW1 9165   8.491   5.463   7.302  0.3760  0.4781 -0.8439
 2386SOL    HW2 9166   8.355   5.531   7.302  0.3086  0.3429 -1.0268
 2387SOL     OW 9167   9.530   4.782   5.177  0.2666 -0.3013  0.5280
 2387SOL    HW1 9168   9.465   4.839   5.135 -1.1845  0.6822  3.8360
 2387SOL    HW2 9169   9.592   4.843   5.217  0.7544 -1.1605  1.1039
 2388SOL     OW 9170   5.001   4.402  10.585  0.0844 -0.3714 -0.2962
 2388SOL    HW1 9171   4.926   4.432  10.637  0.9722 -1.3837  1.7119
 2388SOL    HW2 9172   4.995   4.452  10.504 -0.7713  2.2518  1.2246
 2389SOL     OW 9173   4.504   0.854   5.830  0.1803 -0.1720 -0.0670
 2389SOL    HW1 9174   4.587   0.873   5.873  0.8090 -2.5142 -0.1276
 2389SOL    HW2 9175   4.437   0.881   5.894  0.9945  0.4975  0.5255
 2390SOL     OW 9176   1.106   5.769   5.630  0.1360  0.1416  0.1740
 2390SOL    HW1 9177   1.149   5.843   5.588 -0.4922  0.2617 -0.2722
 2390SOL    HW2 9178   1.088   5.798   5.720  2.3439 -0.4525  0.8741
 2391SOL     OW 9179   0.662   1.441   6.015  0.0097 -0.0209  0.0486
 2391SOL    HW1 9180   0.725   1.409   5.951  0.8118  3.0743 -0.9006
 2391SOL    HW2 9181   0.669   1.381   6.089  2.0131 -1.3727 -1.1593
 2392SOL     OW 9182   0.898   2.937   6.330  0.0166 -0.9436 -0.3065
 2392SOL    HW1 9183   0.988   2.952   6.300 -0.6527  1.5330 -1.2658
 2392SOL    HW2 9184   0.862   2.874   6.267  0.6001 -0.7748 -0.8165
 2393SOL     OW 9185  10.249   4.594   8.872 -0.0172  0.2551 -0.3625
 2393SOL    HW1 9186  10.159   4.563   8.862  0.1431 -0.4733  0.2920
 2393SOL    HW2 9187  10.242   4.689   8.879 -0.8705  0.1228  0.9249
 2394SOL     OW 9188  10.952   3.660   6.432 -0.3920  0.1809  0.3654
 2394SOL    HW1 9189  11.028   3.712   6.457 -0.2698  0.7049 -1.0219
 2394SOL    HW2 9190  10.892   3.722   6.392 -0.9985 -0.4595  0.2467
 2395SOL     OW 9191   5.999   0.068   2.670  0.1638  0.2905 -0.2507
 2395SOL    HW1 9192   6.094   0.071   2.681  0.1707  0.8721 -0.3918
 2395SOL    HW2 9193   5.987   0.082   2.576 -0.0834  0.9748 -0.1230
 2396SOL     OW 9194   1.920   4.125   7.423  0.2420 -0.1080 -0.1614
 2396SOL    HW1 9195   1.842   4.140   7.478 -0.7934  1.0444 -1.8500
 2396SOL    HW2 9196   1.906   4.180   7.346  4.0634  2.4058  0.6568
 2397SOL     OW 9197   3.418  10.540   0.508 -0.0709 -0.4101  0.1841
 2397SOL    HW1 9198   3.469  10.532   0.589 -1.9602  0.4454  1.5262
 2397SOL    HW2 9199   3.378  10.626   0.512 -1.3359 -0.8968 -0.9798
 2398SOL     OW 9200   9.176   8.876   2.899  0.3643 -0.7065 -0.5117
 2398SOL    HW1 9201   9.257   8.832   2.924  1.9176  3.1955  2.4274
 2398SOL    HW2 9202   9.110   8.841   2.959  1.7976  1.2966  2.5062
 2399SOL     OW 9203  10.967   7.366   7.565  0.0022 -0.7931 -0.1483
 2399SOL    HW1 9204  10.915   7.377   7.645 -0.0226 -1.3672 -0.0814
 2399SOL    HW2 9205  10.954   7.448   7.517 -0.1189 -0.5112  0.3560
 2400SOL     OW 9206   0.866   1.829   6.080  0.1388 -0.3220  0.3082
 2400SOL    HW1 9207   0.923   1.899   6.113  0.1878 -0.2818  0.1406
 2400SOL    HW2 9208   0.831   1.864   5.998 -0.0499 -0.3875  0.3625
 2401SOL     OW 9209   2.338   8.040  10.375 -0.2802  0.1619 -1.1086
 2401SOL    HW1 9210   2.311   7.989  10.299  0.3834 -2.7745  0.4758
 2401SOL    HW2 9211   2.313   7.986  10.450  2.4076  1.1349  0.6465
 2402SOL     OW 9212   5.148   4.718   1.911 -0.0302  0.4043 -0.0368
 2402SOL    HW1 9213   5.106   4.781   1.853 -1.3998  1.0043  1.5172
 2402SOL    HW2 9214   5.094   4.639   1.904  0.6659 -0.0274 -0.6670
 2403SOL     OW 9215   8.825  10.326   7.694 -0.1039  0.0066  0.5515
 2403SOL    HW1 9216   8.733  10.307   7.712 -0.3819 -0.4438 -1.1498
 2403SOL    HW2 9217   8.833  10.421   7.703 -1.4126  0.4208 -1.8644
 2404SOL     OW 9218   3.661  10.052   3.968 -0.5128  0.0683 -0.9607
 2404SOL    HW1 9219   3.596   9.983   3.958 -0.4599 -0.3145  0.8603
 2404SOL    HW2 9220   3.744  10.009   3.947 -0.4537 -0.5338  0.3740
 2405SOL     OW 9221   9.134   5.388   0.933  0.3637 -0.1683 -0.2719
 2405SOL    HW1 9222   9.122   5.448   0.859 -0.4405  0.9490  0.7390
 2405SOL    HW2 9223   9.046   5.354   0.951  0.4742 -0.0788  0.4591
 2406SOL     OW 9224   2.987   0.286   2.724 -0.6094 -0.0120 -0.2130
 2406SOL    HW1 9225   2.896   0.283   2.752 -0.6850 -1.4287 -0.5261
 2406SOL    HW2 9226   2.985   0.259   2.632  0.2344 -1.2757  0.1162
 2407SOL     OW 9227   6.999   5.200   9.244 -0.2004 -1.1893  0.1476
 2407SOL    HW1 9228   7.005   5.105   9.234 -3.1039 -1.5425  0.9410
 2407SOL    HW2 9229   6.937   5.227   9.176  1.8724  0.4806 -1.2426
 2408SOL     OW 9230   9.272   6.464   2.853  0.6602 -0.5777 -0.5048
 2408SOL    HW1 9231   9.216   6.441   2.778  2.0234 -1.3541 -1.3165
 2408SOL    HW2 9232   9.300   6.553   2.835 -2.3894  0.9178  1.2611
 2409SOL     OW 9233   3.685  10.915   9.156  0.0273  0.4448 -0.4885
 2409SOL    HW1 9234   3.626  10.864   9.101  0.5019  1.2891 -1.8182
 2409SOL    HW2 9235   3.753  10.853   9.183 -2.3519 -1.0719  2.6647
 2410SOL     OW 9236  10.256   3.034   8.851 -0.3043 -0.2049 -0.1524
 2410SOL    HW1 9237  10.221   2.967   8.910  0.5937  1.8455  2.9075
 2410SOL    HW2 9238  10.309   2.984   8.789 -0.1573 -2.4094  1.5940
 2411SOL     OW 9239   6.578  10.561   3.353  0.1157  0.3390  0.0007
 2411SOL    HW1 9240   6.543  10.648   3.336  0.3782  0.3020 -0.7256
 2411SOL    HW2 9241   6.633  10.572   3.431 -2.4420  0.1679  1.9881
 2412SOL     OW 9242   7.535   0.212   3.181 -0.0608 -0.2118 -0.1996
 2412SOL    HW1 9243   7.602   0.145   3.167  1.8132  1.7612 -1.4166
 2412SOL    HW2 9244   7.499   0.193   3.267  3.0081 -0.6830  1.1234
 2413SOL     OW 9245   2.257   3.517   1.709  0.1644  0.3490 -0.3644
 2413SOL    HW1 9246   2.214   3.446   1.757 -0.0655  2.0019  2.0913
 2413SOL    HW2 9247   2.306   3.474   1.639  1.2175 -2.3906  1.8864
 2414SOL     OW 9248   7.866   3.557   7.080 -0.0804 -0.2497  0.3216
 2414SOL    HW1 9249   7.841   3.646   7.057 -1.7287 -1.1390 -1.6317
 2414SOL    HW2 9250   7.791   3.524   7.130  1.4222  0.0698  2.9823
 2415SOL     OW 9251  10.911   6.742   4.711 -0.6829 -0.5817 -0.0864
 2415SOL    HW1 9252  10.831   6.725   4.661 -0.8633 -1.5522  0.5082
 2415SOL    HW2 9253  10.880   6.768   4.798 -0.4637  3.8243 -1.1155
 2416SOL     OW 9254  10.945   7.395   3.205  0.3518 -0.2604  0.0351
 2416SOL    HW1 9255  10.937   7.490   3.198  2.6976  0.0428  0.5108
 2416SOL    HW2 9256  10.857   7.362   3.191 -0.9281  2.1085  1.7428
 2417SOL     OW 9257   4.676   4.034   7.132 -0.7074  0.0383  0.1258
 2417SOL    HW1 9258   4.747   3.984   7.092  1.4364  1.9193  1.3695
 2417SOL    HW2 9259   4.646   4.092   7.062 -0.1720  0.0791 -0.0794
 2418SOL     OW 9260   4.906   9.130   5.022  0.2664  0.3783 -0.5182
 2418SOL    HW1 9261   4.904   9.065   5.092 -0.2254  0.3725 -0.5331
 2418SOL    HW2 9262   4.821   9.173   5.027  1.3167  2.4704  0.8529
 2419SOL     OW 9263  11.218   1.434   7.178  0.2888  0.2815  0.4335
 2419SOL    HW1 9264  11.197   1.385   7.099  1.2554  0.9052 -0.2431
 2419SOL    HW2 9265  11.191   1.378   7.250 -0.3710 -0.4107 -0.3389
 2420SOL     OW 9266   7.957   9.691   1.614  0.2131  0.1072  0.5398
 2420SOL    HW1 9267   7.958   9.784   1.639 -0.1632  0.4641 -0.6685
 2420SOL    HW2 9268   7.900   9.649   1.678  1.9914  0.2891  2.3583
 2421SOL     OW 9269   6.937   3.284   9.908 -0.6422 -1.1087  0.1285
 2421SOL    HW1 9270   6.922   3.224   9.982  0.1859 -1.4454  0.0368
 2421SOL    HW2 9271   7.005   3.241   9.856  0.7082  0.3689  0.5883
 2422SOL     OW 9272   9.408   5.510   2.161  0.7827  0.0083  0.4480
 2422SOL    HW1 9273   9.425   5.556   2.243  1.5223  0.5611 -0.0033
 2422SOL    HW2 9274   9.369   5.576   2.104 -1.6035 -0.8459  0.9459
 2423SOL     OW 9275   9.414   1.591   2.764 -0.5269 -0.0646  0.3062
 2423SOL    HW1 9276   9.412   1.627   2.853  2.8307  0.3074  0.3616
 2423SOL    HW2 9277   9.481   1.522   2.768 -1.9195 -1.6040 -1.4450
 2424SOL     OW 9278  10.947  11.286   9.882  0.2915 -0.5730 -0.2042
 2424SOL    HW1 9279  10.922  11.214   9.940  2.2206  0.7449  2.4946
 2424SOL    HW2 9280  11.003  11.245   9.816 -0.7584 -1.9339 -0.2826
 2425SOL     OW 9281  10.517   9.088   5.120  0.0849  0.7409 -0.7420
 2425SOL    HW1 9282  10.465   9.052   5.048  0.9046  0.6593 -1.3105
 2425SOL    HW2 9283  10.598   9.036   5.119 -1.0265 -1.3181  2.1283
 2426SOL     OW 9284   1.986   4.177   2.486 -0.1374  0.5991  0.0750
 2426SOL    HW1 9285   2.026   4.257   2.450  0.3881  0.0648 -0.5701
 2426SOL    HW2 9286   1.893   4.198   2.491  0.1190  1.6278  0.9418
 2427SOL     OW 9287   7.243  11.039  11.225 -0.0772 -0.9698 -0.3106
 2427SOL    HW1 9288   7.292  11.108  11.270  0.6478 -1.8884  0.3476
 2427SOL    HW2 9289   7.186  11.086  11.164 -0.4164  0.2661  0.9089
 2428SOL     OW 9290   1.978   2.144   9.855 -0.1286 -0.1149  0.9991
 2428SOL    HW1 9291   1.969   2.050   9.866  1.3313 -0.5640 -0.9134
 2428SOL    HW2 9292   1.896   2.172   9.814 -0.1297 -0.7897  0.5168
 2429SOL     OW 9293   3.311   7.904   9.643  0.3423  0.7220 -0.8088
 2429SOL    HW1 9294   3.325   7.982   9.590 -1.2768  1.0630 -0.7875
 2429SOL    HW2 9295   3.241   7.856   9.598  0.2271  0.0885  0.0053
 2430SOL     OW 9296   4.995   7.341  10.460 -0.5700  0.2826 -0.3328
 2430SOL    HW1 9297   4.967   7.261  10.415  0.0987 -0.2841  0.2347
 2430SOL    HW2 9298   5.080   7.362  10.421 -0.8562  0.8691 -0.6576
 2431SOL     OW 9299   3.676   8.500   9.405 -0.5451  0.9099  0.0690
 2431SOL    HW1 9300   3.662   8.438   9.333 -0.4212  1.5690 -0.5338
 2431SOL    HW2 9301   3.588   8.518   9.439 -0.4227 -1.7543  2.1516
 2432SOL     OW 9302  11.222   9.180  10.167  0.0181 -0.1900  0.3915
 2432SOL    HW1 9303  11.157   9.128  10.215 -0.7581  0.9619  0.6232
 2432SOL    HW2 9304  11.306   9.138  10.188 -0.6408 -1.7716  0.0010
 2433SOL     OW 9305   9.048   3.542  11.181 -0.1857 -0.4185  0.0459
 2433SOL    HW1 9306   8.967   3.492  11.189 -0.0017 -0.6060  0.7763
 2433SOL    HW2 9307   9.118   3.476  11.189  0.0502 -0.1195  0.4930
 2434SOL     OW 9308   5.765   6.343   6.904  0.1283  0.1276  0.0729
 2434SOL    HW1 9309   5.695   6.367   6.844 -1.3046 -1.7575  0.8546
 2434SOL    HW2 9310   5.782   6.250   6.886  3.6317  0.8592 -1.1874
 2435SOL     OW 9311   5.349   4.306  10.425 -0.1917 -0.1412 -0.0267
 2435SOL    HW1 9312   5.376   4.334  10.338  3.1028  0.0893  0.9377
 2435SOL    HW2 9313   5.287   4.373  10.453  0.5175  1.1115 -1.3131
 2436SOL     OW 9314   7.311   1.023  10.409 -0.3989  0.8078  0.0444
 2436SOL    HW1 9315   7.355   0.959  10.465 -1.1927  0.0616 -0.1751
 2436SOL    HW2 9316   7.254   1.072  10.469  0.5870  1.6673  0.3001
 2437SOL     OW 9317   1.336   6.075   5.965  0.0771 -0.0207  0.1936
 2437SOL    HW1 9318   1.259   6.062   6.020  0.9229 -0.0714  1.4122
 2437SOL    HW2 9319   1.410   6.057   6.023  1.0029 -2.0185 -1.4903
 2438SOL     OW 9320   9.987   9.788   7.126  0.2956 -0.6278 -0.0402
 2438SOL    HW1 9321   9.949   9.835   7.052  0.8054 -0.8750 -0.4666
 2438SOL    HW2 9322  10.052   9.849   7.162 -0.1488 -0.3952  0.3897
 2439SOL     OW 9323   2.885   1.440   5.133  0.6862  0.9788  0.1506
 2439SOL    HW1 9324   2.827   1.443   5.209 -0.4951 -0.9628 -0.6154
 2439SOL    HW2 9325   2.967   1.478   5.165 -0.0217  0.9405  2.1643
 2440SOL     OW 9326   9.400   8.733   9.094  0.4702 -0.3529  0.1334
 2440SOL    HW1 9327   9.379   8.822   9.067  0.9088 -0.2536  0.1051
 2440SOL    HW2 9328   9.348   8.719   9.173  0.7042  0.0704  0.3663
 2441SOL     OW 9329   5.708   3.697  11.095 -0.4906 -0.4589  0.3136
 2441SOL    HW1 9330   5.638   3.648  11.137  0.1460 -0.7837  1.0041
 2441SOL    HW2 9331   5.775   3.632  11.074 -1.0108 -0.4146 -1.7326
 2442SOL     OW 9332  10.542   3.489   6.029  0.3780  0.7733 -0.2525
 2442SOL    HW1 9333  10.609   3.502   5.962  0.5260  0.1131 -0.2376
 2442SOL    HW2 9334  10.590   3.455   6.104  0.2831  1.9336  0.3506
 2443SOL     OW 9335   2.169   7.289  10.820 -0.0458  0.3513  0.4463
 2443SOL    HW1 9336   2.245   7.234  10.840 -0.3591 -0.5000 -0.6331
 2443SOL    HW2 9337   2.114   7.281  10.898 -0.6643 -1.9041 -0.1530
 2444SOL     OW 9338  10.136   9.946   4.364  0.2889 -0.2322  0.2254
 2444SOL    HW1 9339  10.226   9.952   4.397  0.6637 -0.9931 -0.5979
 2444SOL    HW2 9340  10.145   9.961   4.270 -0.0557 -2.9008 -0.3104
 2445SOL     OW 9341   2.147  10.075   3.358  0.6191 -0.0578 -0.6343
 2445SOL    HW1 9342   2.189  10.161   3.355  0.1278  0.1590 -2.9541
 2445SOL    HW2 9343   2.200  10.020   3.300  1.5630 -1.6880  1.6146
 2446SOL     OW 9344  10.091   6.504   9.471  0.2312  0.0631  0.0456
 2446SOL    HW1 9345  10.143   6.431   9.505  0.4322  0.4144  0.4992
 2446SOL    HW2 9346  10.024   6.462   9.417  0.6001 -0.4308 -0.0374
 2447SOL     OW 9347   2.014   4.252   5.298  0.2441 -0.8036  0.3537
 2447SOL    HW1 9348   2.074   4.179   5.286 -0.6185 -1.4230 -0.2910
 2447SOL    HW2 9349   2.030   4.282   5.388  0.3723 -1.9993  0.7408
 2448SOL     OW 9350   3.960   5.104   9.832 -0.3024  0.0568 -0.6052
 2448SOL    HW1 9351   3.909   5.112   9.913 -1.6955  1.5819 -1.5575
 2448SOL    HW2 9352   4.044   5.147   9.852 -1.4341  2.4290 -0.5430
 2449SOL     OW 9353   4.869   3.204   4.982  0.0110  0.0723 -0.1372
 2449SOL    HW1 9354   4.957   3.173   5.004 -0.0052 -0.7187 -1.0816
 2449SOL    HW2 9355   4.830   3.131   4.934 -0.4970  1.0976 -1.3406
 2450SOL     OW 9356   1.714   9.693   2.903  0.9106 -0.0059  0.3400
 2450SOL    HW1 9357   1.684   9.687   2.994  0.4423  1.2444  0.2898
 2450SOL    HW2 9358   1.644   9.741   2.859  1.8747  0.8097 -0.3315
 2451SOL     OW 9359  10.120   8.804   1.805  0.5747  0.0442  0.2999
 2451SOL    HW1 9360  10.164   8.889   1.809  1.0464 -0.2283  1.1325
 2451SOL    HW2 9361  10.031   8.822   1.837  0.1178  0.5505 -1.1754
 2452SOL     OW 9362   0.520   5.346   2.454  0.5017 -0.1276 -0.3779
 2452SOL    HW1 9363   0.558   5.310   2.374 -1.1684  0.6115 -1.5686
 2452SOL    HW2 9364   0.441   5.295   2.468  0.9682 -0.4912  1.0457
 2453SOL     OW 9365   2.987   7.161   0.614 -0.1980  0.7679 -0.1832
 2453SOL    HW1 9366   3.045   7.219   0.663  0.6818  0.6996 -1.1141
 2453SOL    HW2 9367   2.909   7.152   0.670  0.7563  0.7008  1.1778
 2454SOL     OW 9368   6.664   8.653   3.787 -0.6806 -0.3513 -0.1422
 2454SOL    HW1 9369   6.626   8.619   3.706 -1.5751 -0.8386  0.4733
 2454SOL    HW2 9370   6.747   8.606   3.796 -0.6504 -0.4123 -0.6774
 2455SOL     OW 9371   6.820   8.090   1.156 -0.7640 -0.3934 -0.1087
 2455SOL    HW1 9372   6.795   8.114   1.245 -1.2108  0.3559 -0.4242
 2455SOL    HW2 9373   6.910   8.122   1.147 -0.9491  0.1366 -0.1376
 2456SOL     OW 9374   6.654   2.016   1.027 -0.2327  0.0681  0.4353
 2456SOL    HW1 9375   6.634   2.099   0.983 -1.6844  0.0099  0.9222
 2456SOL    HW2 9376   6.678   2.042   1.116  2.4773  0.1680 -0.2368
 2457SOL     OW 9377   7.731   7.287   9.933  0.4426  0.2512 -0.1652
 2457SOL    HW1 9378   7.824   7.300   9.950  0.4259  1.7477 -1.0471
 2457SOL    HW2 9379   7.688   7.323  10.011  0.5383  2.3808 -1.0251
 2458SOL     OW 9380   7.736   2.574   1.707 -0.2501  0.0808  0.2549
 2458SOL    HW1 9381   7.775   2.562   1.794  0.8846  0.9362 -0.1125
 2458SOL    HW2 9382   7.809   2.564   1.646 -1.3516 -2.6343 -0.8204
 2459SOL     OW 9383   7.044   8.891   6.334 -0.4952  0.5632 -0.0364
 2459SOL    HW1 9384   7.003   8.952   6.272  0.3087  3.0383  1.6986
 2459SOL    HW2 9385   6.970   8.843   6.372 -1.1125 -0.0034 -1.8714
 2460SOL     OW 9386   0.069   3.765   5.618  0.4304 -0.4287  1.1438
 2460SOL    HW1 9387   0.063   3.842   5.561  0.2047  0.3904  2.2363
 2460SOL    HW2 9388   0.159   3.767   5.651 -0.3060  0.9872  3.2996
 2461SOL     OW 9389   9.154   7.782   9.117 -0.4585 -0.3255 -0.3738
 2461SOL    HW1 9390   9.102   7.782   9.036 -1.2569 -0.7680  0.1238
 2461SOL    HW2 9391   9.204   7.700   9.113 -1.1318 -0.7653 -0.0389
 2462SOL     OW 9392   5.561   5.842  10.527  0.0422  0.7076  0.6384
 2462SOL    HW1 9393   5.628   5.788  10.568  0.0424  0.7469  0.6893
 2462SOL    HW2 9394   5.595   5.931  10.531  2.6102  0.2809 -4.2600
 2463SOL     OW 9395   2.246   2.392   8.264 -0.0611 -0.7485  0.5352
 2463SOL    HW1 9396   2.310   2.354   8.324  0.8032  0.0946  0.1669
 2463SOL    HW2 9397   2.200   2.316   8.227  0.6196 -1.3569  0.9207
 2464SOL     OW 9398   8.655   8.607  10.908  0.3132 -0.2756 -0.4091
 2464SOL    HW1 9399   8.705   8.600  10.989 -0.0393 -0.5964 -0.2135
 2464SOL    HW2 9400   8.662   8.699  10.883  0.6286 -0.2280 -0.1488
 2465SOL     OW 9401   3.918   9.490   8.425  0.0470 -0.0115  0.0335
 2465SOL    HW1 9402   3.872   9.438   8.360  0.5934  0.7713 -1.0185
 2465SOL    HW2 9403   3.999   9.442   8.442  0.0184 -0.0941 -0.0667
 2466SOL     OW 9404   5.907   6.853   0.150 -0.5462 -0.2564  0.2506
 2466SOL    HW1 9405   5.884   6.930   0.099  1.1650  0.0599 -0.1078
 2466SOL    HW2 9406   5.851   6.783   0.116  0.1139  0.0922 -1.6367
 2467SOL     OW 9407   9.512   9.719   9.684  0.1233  0.0823 -0.1177
 2467SOL    HW1 9408   9.431   9.683   9.647 -0.2160 -2.0470  2.3946
 2467SOL    HW2 9409   9.520   9.677   9.770  1.6856  3.4613  1.5828
 2468SOL     OW 9410   8.079   9.940   5.023  0.1802  0.0216 -0.7433
 2468SOL    HW1 9411   8.088  10.027   5.061 -2.0372  1.1778 -2.6331
 2468SOL    HW2 9412   8.167   9.917   4.994  0.7084  1.8995 -0.7346
 2469SOL     OW 9413   4.789   7.114   2.438  0.3125  0.3573 -0.1710
 2469SOL    HW1 9414   4.860   7.054   2.460  1.4414  1.2819 -1.1530
 2469SOL    HW2 9415   4.833   7.193   2.408 -1.1393  1.7953  1.3187
 2470SOL     OW 9416   6.596   6.652  10.692 -0.4348 -0.0302  0.7741
 2470SOL    HW1 9417   6.534   6.636  10.764 -0.1885  0.3958  1.0907
 2470SOL    HW2 9418   6.682   6.638  10.732 -0.3440 -1.7156  0.0505
 2471SOL     OW 9419   8.011   6.996   5.384 -0.0833  0.0033 -0.0914
 2471SOL    HW1 9420   8.094   6.967   5.346 -0.1146  1.2600 -1.2049
 2471SOL    HW2 9421   7.974   7.055   5.318 -1.6691 -0.2057  0.5670
 2472SOL     OW 9422   8.592  11.212   2.154  0.6179 -0.2766 -0.6157
 2472SOL    HW1 9423   8.658  11.264   2.107 -0.0405  0.3893 -0.8167
 2472SOL    HW2 9424   8.515  11.213   2.096  0.1961 -0.4653 -0.0621
 2473SOL     OW 9425  10.337   9.861   7.246  0.5057  0.2853  0.9441
 2473SOL    HW1 9426  10.420   9.892   7.210 -1.4921  0.6595 -4.1289
 2473SOL    HW2 9427  10.290   9.940   7.271  0.8692  0.2020  1.9365
 2474SOL     OW 9428   1.624   5.435   8.225  0.0263 -0.6013  0.0771
 2474SOL    HW1 9429   1.653   5.396   8.142 -1.7917 -0.3352 -0.7317
 2474SOL    HW2 9430   1.529   5.439   8.217 -0.1445 -0.1222  2.0011
 2475SOL     OW 9431   8.711   6.668   3.251  0.2789  0.2849  0.0794
 2475SOL    HW1 9432   8.717   6.572   3.252 -1.5452  0.1115 -1.1748
 2475SOL    HW2 9433   8.802   6.697   3.249  0.9000 -1.3756  1.4857
 2476SOL     OW 9434   3.859   5.751   5.630 -0.2155  0.4458 -0.1707
 2476SOL    HW1 9435   3.857   5.711   5.544  1.1192  1.4587 -0.7093
 2476SOL    HW2 9436   3.924   5.700   5.679 -1.4116 -0.5159  0.4729
 2477SOL     OW 9437   6.688  10.123   6.428 -0.1484 -0.5037  0.6414
 2477SOL    HW1 9438   6.778  10.111   6.458 -0.0354  3.8265  2.7311
 2477SOL    HW2 9439   6.692  10.109   6.333  2.2948 -2.0515  0.9033
 2478SOL     OW 9440  11.180   6.665   3.521  0.1837 -1.0545 -0.9666
 2478SOL    HW1 9441  11.164   6.706   3.436  3.0187 -0.0016 -1.1261
 2478SOL    HW2 9442  11.218   6.580   3.500  1.3245 -0.6061 -0.8362
 2479SOL     OW 9443   4.683   0.989   6.006  0.4663 -0.3779 -0.2567
 2479SOL    HW1 9444   4.716   1.053   6.069 -0.1454 -0.1092 -0.2003
 2479SOL    HW2 9445   4.710   0.905   6.041  0.5085 -0.2027  0.1369
 2480SOL     OW 9446   3.845   8.844   2.354  0.5949  0.3992 -0.2268
 2480SOL    HW1 9447   3.820   8.929   2.318 -1.2625 -0.5918 -1.4332
 2480SOL    HW2 9448   3.764   8.793   2.353  1.7913 -1.5898 -0.0974
 2481SOL     OW 9449   1.811   6.905   0.949  0.0691 -0.0597 -0.4291
 2481SOL    HW1 9450   1.751   6.980   0.941 -0.0024  0.2322  2.0866
 2481SOL    HW2 9451   1.755   6.834   0.979  0.9075  0.2908  2.2564
 2482SOL     OW 9452   7.263   8.851   4.115  0.4318  0.0694  0.5025
 2482SOL    HW1 9453   7.183   8.854   4.062  0.6820  0.9494  0.1461
 2482SOL    HW2 9454   7.334   8.844   4.051  0.7232  0.9287  0.7179
 2483SOL     OW 9455  11.256   5.606   1.785 -0.2191  0.0740 -0.8740
 2483SOL    HW1 9456  11.230   5.640   1.870  1.4795 -2.4776  0.8052
 2483SOL    HW2 9457  11.173   5.587   1.741 -1.1526  0.4597  0.6379
 2484SOL     OW 9458   9.458   9.957  10.011 -0.0144  0.2969  0.4453
 2484SOL    HW1 9459   9.384   9.944  10.071  2.6104 -0.2907  3.8695
 2484SOL    HW2 9460   9.486  10.047  10.027  0.7519  0.1209  0.1276
 2485SOL     OW 9461  10.745   0.870   9.268  0.4552  0.3060 -0.4721
 2485SOL    HW1 9462  10.751   0.955   9.225  0.7230  0.4703 -0.1209
 2485SOL    HW2 9463  10.706   0.888   9.353  0.5085  0.0799 -0.3964
 2486SOL     OW 9464   3.687  10.653  10.465  0.6282  0.2679 -0.3069
 2486SOL    HW1 9465   3.728  10.569  10.440  1.6449  0.5203  0.4165
 2486SOL    HW2 9466   3.712  10.665  10.556 -0.8306  0.6155  0.0721
 2487SOL     OW 9467  10.626   3.450   9.588 -0.1385  0.6056 -0.9787
 2487SOL    HW1 9468  10.700   3.508   9.605  0.4985 -0.3009 -0.5692
 2487SOL    HW2 9469  10.663   3.381   9.532 -0.1281 -0.9705  0.8625
 2488SOL     OW 9470   2.623   2.000  11.206  0.0906 -0.0557  0.2198
 2488SOL    HW1 9471   2.563   1.936  11.166 -0.2486 -0.4236  1.2892
 2488SOL    HW2 9472   2.590   2.085  11.176  1.0214 -0.3786 -1.8693
 2489SOL     OW 9473   1.842   6.548   9.873 -0.7035 -0.1822  0.6762
 2489SOL    HW1 9474   1.887   6.591   9.946 -0.5327  1.6964 -0.4775
 2489SOL    HW2 9475   1.749   6.563   9.890 -0.6341  1.1373  0.0515
 2490SOL     OW 9476   0.644   2.608  10.436 -0.2543 -0.7573 -0.2732
 2490SOL    HW1 9477   0.705   2.682  10.431 -1.3961  0.4414  2.1428
 2490SOL    HW2 9478   0.655   2.563  10.352 -0.2646  2.7187 -2.3318
 2491SOL     OW 9479   7.733   3.204   2.728  0.4574 -0.7066  0.6281
 2491SOL    HW1 9480   7.764   3.188   2.817 -1.5872  1.9417  1.9801
 2491SOL    HW2 9481   7.811   3.200   2.674  2.0442 -0.7354  2.7982
 2492SOL     OW 9482   2.077   2.755   2.947 -0.0389 -0.2349  0.3658
 2492SOL    HW1 9483   2.142   2.689   2.922 -0.3459 -1.1052  1.7619
 2492SOL    HW2 9484   2.128   2.834   2.965  0.6608 -0.9322  1.5350
 2493SOL     OW 9485  11.022   8.975   2.849  0.1262  0.0928 -0.3377
 2493SOL    HW1 9486  11.073   8.917   2.793 -0.0084  0.5405 -0.9404
 2493SOL    HW2 9487  10.969   8.917   2.903  0.6301 -0.3556 -0.3193
 2494SOL     OW 9488   4.311   3.988   4.113  0.4898 -0.4178 -0.5941
 2494SOL    HW1 9489   4.267   3.941   4.041  0.4532 -0.7340 -0.3695
 2494SOL    HW2 9490   4.401   3.955   4.111  0.9892  0.8888 -1.6269
 2495SOL     OW 9491   0.890   2.988  10.860  0.2171 -0.1749  0.0170
 2495SOL    HW1 9492   0.806   2.950  10.834  0.8482 -0.3071 -2.0494
 2495SOL    HW2 9493   0.868   3.074  10.896 -0.8446 -0.4643  0.0940
 2496SOL     OW 9494   7.987  10.288   3.535  0.0478 -0.0724 -0.6654
 2496SOL    HW1 9495   7.924  10.258   3.599  1.6249  0.4951  1.2435
 2496SOL    HW2 9496   7.948  10.266   3.450 -3.1014  1.0705  0.3525
 2497SOL     OW 9497   5.552   4.977  11.035 -0.2215  0.1453  0.0882
 2497SOL    HW1 9498   5.624   4.952  11.092  1.2345  2.7315 -0.4576
 2497SOL    HW2 9499   5.559   4.917  10.960  0.5894 -0.4488  0.6274
 2498SOL     OW 9500   2.487   0.032   0.065 -0.1466  0.2014  0.0217
 2498SOL    HW1 9501   2.521   0.050  -0.022  0.3247 -0.7847 -0.0086
 2498SOL    HW2 9502   2.408  -0.019   0.049 -0.7810  1.1128  0.1456
 2499SOL     OW 9503   6.780   3.793   0.048 -0.8190 -0.6231  0.1605
 2499SOL    HW1 9504   6.872   3.781   0.073  0.2898  1.0902 -2.6147
 2499SOL    HW2 9505   6.767   3.888   0.051 -2.3067 -0.7932 -0.1718
 2500SOL     OW 9506   7.368   5.821   2.494  0.4359  0.1290  0.8110
 2500SOL    HW1 9507   7.428   5.811   2.420  1.0452  1.3524  1.1124
 2500SOL    HW2 9508   7.417   5.872   2.558 -0.9912  1.3533  0.9862
 2501SOL     OW 9509  10.715   4.468   4.632 -0.4766 -0.0059 -0.4083
 2501SOL    HW1 9510  10.754   4.448   4.716  0.5162  1.1090 -0.5800
 2501SOL    HW2 9511  10.620   4.469   4.649 -0.3606 -1.0397  0.3875
 2502SOL     OW 9512   0.873   4.863   8.283  0.8943 -0.3319  0.1156
 2502SOL    HW1 9513   0.821   4.854   8.203  0.1781  0.9510  0.4015
 2502SOL    HW2 9514   0.917   4.947   8.274 -2.3197  1.9051  2.6917
 2503SOL     OW 9515   5.374   1.045   4.402 -0.0268  0.1155  0.5557
 2503SOL    HW1 9516   5.327   1.091   4.333 -1.3594 -0.2718  1.1656
 2503SOL    HW2 9517   5.442   1.107   4.430 -0.5396  0.9366  0.0375
 2504SOL     OW 9518   3.625   2.777   3.627  0.4791  0.1089 -0.0899
 2504SOL    HW1 9519   3.553   2.825   3.666 -0.0264 -0.3570 -0.4213
 2504SOL    HW2 9520   3.593   2.686   3.622  2.0432 -0.6196  2.0786
 2505SOL     OW 9521   2.891   1.919   9.250  0.3046 -0.0717 -0.4370
 2505SOL    HW1 9522   2.933   1.856   9.192  2.4509  1.3238 -0.5056
 2505SOL    HW2 9523   2.948   1.923   9.327 -0.7180  0.5431  0.3233
 2506SOL     OW 9524   0.528   0.715   8.636 -0.2213  0.3432 -0.1819
 2506SOL    HW1 9525   0.548   0.652   8.567 -0.0760  0.3363 -0.1337
 2506SOL    HW2 9526   0.607   0.768   8.644 -0.9327  1.6486 -1.4018
 2507SOL     OW 9527   1.644   3.209   4.401 -0.6744 -0.2636 -1.0722
 2507SOL    HW1 9528   1.677   3.144   4.339  0.0972 -0.3692 -0.5758
 2507SOL    HW2 9529   1.657   3.293   4.358  1.3987 -0.1998 -0.4506
 2508SOL     OW 9530   1.597   1.432   9.622  0.3542  0.2073 -0.0177
 2508SOL    HW1 9531   1.644   1.512   9.597 -0.1211  0.5438  0.1554
 2508SOL    HW2 9532   1.533   1.419   9.553 -0.5491  0.7957  0.6878
 2509SOL     OW 9533   5.166   4.350   9.771  0.2195 -0.1441  0.1817
 2509SOL    HW1 9534   5.250   4.305   9.763  0.9012  1.0366  0.5687
 2509SOL    HW2 9535   5.143   4.342   9.864 -0.1513 -0.5228  0.0658
 2510SOL     OW 9536   5.945   4.164  10.154 -0.7628  0.7060 -0.0465
 2510SOL    HW1 9537   6.007   4.094  10.173  0.5107  1.5365 -0.9203
 2510SOL    HW2 9538   5.930   4.206  10.239 -0.8732 -0.0790  0.3336
 2511SOL     OW 9539   9.636   1.719   0.529  0.1132 -0.1643 -0.0317
 2511SOL    HW1 9540   9.591   1.714   0.613  2.0956 -0.8225  1.0424
 2511SOL    HW2 9541   9.724   1.752   0.550  0.8454 -0.8957 -1.7499
 2512SOL     OW 9542   5.455   2.930   7.144 -0.2351 -0.0766  0.2203
 2512SOL    HW1 9543   5.472   2.854   7.088 -0.2976 -0.3317  0.5466
 2512SOL    HW2 9544   5.384   2.977   7.100  0.6036  0.4398 -0.6101
 2513SOL     OW 9545   0.381   6.423  11.024 -0.3932  0.4634  0.1079
 2513SOL    HW1 9546   0.296   6.386  10.998 -0.6745  1.2345 -0.1033
 2513SOL    HW2 9547   0.409   6.369  11.098  0.3156 -1.6446 -1.6088
 2514SOL     OW 9548   0.562   3.895   7.897  0.5543 -0.1527  0.2686
 2514SOL    HW1 9549   0.648   3.924   7.928  0.7212 -1.1066  0.7149
 2514SOL    HW2 9550   0.563   3.800   7.907 -0.4847 -0.1950  0.0982
 2515SOL     OW 9551   6.659   6.548   6.080  0.3124  0.4894 -0.2618
 2515SOL    HW1 9552   6.584   6.603   6.103 -0.3676 -0.4701 -0.1386
 2515SOL    HW2 9553   6.729   6.610   6.063 -1.0681  1.5887 -2.5796
 2516SOL     OW 9554   5.841   0.592   7.541 -0.4457  0.1631 -0.1926
 2516SOL    HW1 9555   5.818   0.684   7.527 -1.4835  0.2524  1.8327
 2516SOL    HW2 9556   5.763   0.543   7.514 -0.1468 -0.0894 -0.6165
 2517SOL     OW 9557   6.049   5.968   0.733  0.6337  0.2511 -0.9560
 2517SOL    HW1 9558   5.996   5.909   0.787  0.9992  0.1048 -0.7539
 2517SOL    HW2 9559   6.109   6.010   0.794  0.5891  0.6020 -1.1469
 2518SOL     OW 9560   5.464   2.109   0.240  0.1160 -0.3499  0.5185
 2518SOL    HW1 9561   5.416   2.181   0.199  1.2055  0.5715  0.8017
 2518SOL    HW2 9562   5.435   2.109   0.331  0.6711  0.2398  0.7017
 2519SOL     OW 9563   0.631   5.781   1.030  0.7166  0.6310 -0.0045
 2519SOL    HW1 9564   0.563   5.718   1.055  1.2608  0.2734  0.6145
 2519SOL    HW2 9565   0.665   5.748   0.947  0.8769  0.1912  0.2300
 2520SOL     OW 9566  11.093   0.795   4.326  0.1758 -0.5942  0.3746
 2520SOL    HW1 9567  11.093   0.703   4.302 -0.0157 -0.2914 -0.8680
 2520SOL    HW2 9568  11.182   0.825   4.306  0.1113 -0.4147  0.3548
 2521SOL     OW 9569   4.626   6.754   9.244 -0.3598 -0.5705  0.5124
 2521SOL    HW1 9570   4.689   6.810   9.199 -1.6011  0.3264 -0.2091
 2521SOL    HW2 9571   4.607   6.800   9.326  1.2398 -1.7573  1.5876
 2522SOL     OW 9572   1.265   8.795   1.268  0.8336  0.0594  0.2759
 2522SOL    HW1 9573   1.325   8.844   1.212 -0.6318  1.5703 -0.0590
 2522SOL    HW2 9574   1.178   8.815   1.233 -0.2005  1.5335  3.3378
 2523SOL     OW 9575   0.088   2.960   2.222 -0.2004  0.3852 -0.3063
 2523SOL    HW1 9576   0.027   3.028   2.195 -2.5018 -0.9022  1.3582
 2523SOL    HW2 9577   0.054   2.879   2.182  0.3439 -0.3758  0.7139
 2524SOL     OW 9578  10.721   1.083   0.747 -0.1776 -0.1451 -0.1928
 2524SOL    HW1 9579  10.728   1.176   0.770 -1.2064 -0.0578 -0.2049
 2524SOL    HW2 9580  10.797   1.042   0.789 -0.2591  0.5365  0.6490
 2525SOL     OW 9581   3.896   0.775  10.418 -0.8130  0.2785  0.2249
 2525SOL    HW1 9582   3.927   0.686  10.436  0.7195  0.5416 -0.8702
 2525SOL    HW2 9583   3.831   0.763  10.348  0.1608  0.0707 -0.6811
 2526SOL     OW 9584   2.572   1.327   3.110  0.4502 -0.0620  0.4145
 2526SOL    HW1 9585   2.655   1.311   3.067  1.0385  1.5656  0.8842
 2526SOL    HW2 9586   2.514   1.358   3.040  0.6299  0.0770  0.3277
 2527SOL     OW 9587   3.404   0.343   6.680  0.2157  0.0776 -0.7372
 2527SOL    HW1 9588   3.389   0.256   6.645  1.7694 -0.4878 -0.1021
 2527SOL    HW2 9589   3.412   0.330   6.775  2.1311  0.6223 -0.7876
 2528SOL     OW 9590   0.275   5.389   9.471  0.4852 -0.3265  0.0628
 2528SOL    HW1 9591   0.197   5.429   9.507  0.8757  0.5176 -0.0150
 2528SOL    HW2 9592   0.243   5.335   9.398 -0.0127  0.0445  0.0072
 2529SOL     OW 9593   0.081   5.849   2.743 -0.2576  0.0579 -0.3792
 2529SOL    HW1 9594   0.093   5.822   2.834 -1.7522  1.5656  0.3486
 2529SOL    HW2 9595   0.000   5.805   2.715 -2.2416  2.7982  0.5461
 2530SOL     OW 9596   3.974   7.438  11.201  0.0153  0.0076 -0.1057
 2530SOL    HW1 9597   3.991   7.389  11.120 -2.4318 -0.1526 -0.5993
 2530SOL    HW2 9598   3.983   7.372  11.271 -3.6848 -1.4617 -0.7963
 2531SOL     OW 9599   0.193   8.320   3.066  0.0986  0.0430 -0.0627
 2531SOL    HW1 9600   0.222   8.409   3.087  0.5360 -0.1492  0.1519
 2531SOL    HW2 9601   0.184   8.320   2.970 -0.1620  0.3926 -0.0407
 2532SOL     OW 9602  10.105   4.387   8.212 -0.4715  0.2903  0.0173
 2532SOL    HW1 9603  10.133   4.362   8.123  0.2250 -1.9867  0.8043
 2532SOL    HW2 9604  10.164   4.457   8.237  2.1517 -1.8030  0.1539
 2533SOL     OW 9605  11.219   6.176   3.229  0.3528  0.2538  0.5399
 2533SOL    HW1 9606  11.305   6.177   3.270  0.6444 -0.2415 -0.0486
 2533SOL    HW2 9607  11.189   6.267   3.234  0.6362  0.3124  1.3031
 2534SOL     OW 9608   4.992   2.932   8.252 -0.6133  0.5300  0.8280
 2534SOL    HW1 9609   5.002   2.838   8.235  1.5967  1.1078 -1.9303
 2534SOL    HW2 9610   4.921   2.959   8.193 -0.4318  0.7707  0.7187
 2535SOL     OW 9611  10.686   7.396   5.050  0.7756 -1.0940 -0.1744
 2535SOL    HW1 9612  10.729   7.315   5.025 -0.1847 -1.2888 -1.2823
 2535SOL    HW2 9613  10.720   7.461   4.988  0.1596 -1.0643 -0.4901
 2536SOL     OW 9614   3.802   3.343   7.289  0.6341  0.1353  0.1129
 2536SOL    HW1 9615   3.734   3.385   7.237 -0.2050 -0.4352  0.7300
 2536SOL    HW2 9616   3.758   3.318   7.370  1.5747 -0.2761  0.5107
 2537SOL     OW 9617   9.095   5.034   6.610 -0.5530  0.5384 -0.1683
 2537SOL    HW1 9618   9.041   4.980   6.552  0.2126  0.6172 -0.9733
 2537SOL    HW2 9619   9.046   5.037   6.692 -1.7367  0.5326 -0.8402
 2538SOL     OW 9620   3.940   1.546   3.026  0.0904  0.6542 -0.1576
 2538SOL    HW1 9621   3.985   1.495   2.959 -1.4603 -1.9853  0.6830
 2538SOL    HW2 9622   3.958   1.500   3.108  0.3922  2.7323  1.0193
 2539SOL     OW 9623   4.786   5.910   2.903 -0.3674 -0.2595 -0.5879
 2539SOL    HW1 9624   4.734   5.896   2.982 -0.6292  0.0364 -0.7011
 2539SOL    HW2 9625   4.821   5.999   2.913  0.3663 -0.5735 -0.3755
 2540SOL     OW 9626   6.562   0.884   7.522  0.3022 -0.2749 -0.1649
 2540SOL    HW1 9627   6.502   0.811   7.505  1.4622 -1.5070  0.8577
 2540SOL    HW2 9628   6.559   0.896   7.617 -0.9901  2.0415 -0.4097
 2541SOL     OW 9629  10.989   2.113   3.270  0.4657 -0.0040  0.9482
 2541SOL    HW1 9630  11.060   2.146   3.216  0.5761 -1.8160 -0.0715
 2541SOL    HW2 9631  10.923   2.183   3.269  0.5241  0.0713 -1.4215
 2542SOL     OW 9632   0.790   9.472   2.485  0.5956 -0.5771 -0.2915
 2542SOL    HW1 9633   0.839   9.516   2.555 -0.5762 -0.5285  0.5388
 2542SOL    HW2 9634   0.852   9.410   2.448  1.6133  0.2548 -0.0180
 2543SOL     OW 9635   9.110   3.589  10.837 -0.3436 -0.7789  0.0692
 2543SOL    HW1 9636   9.103   3.501  10.874  0.2046 -0.6754  0.4215
 2543SOL    HW2 9637   9.030   3.633  10.863  1.1707  0.2189  3.5829
 2544SOL     OW 9638   3.374   5.853  10.979  0.9772  0.6212  0.8148
 2544SOL    HW1 9639   3.396   5.942  11.005 -0.6436  1.0675  0.7872
 2544SOL    HW2 9640   3.446   5.825  10.923  1.3339  2.0501  0.5215
 2545SOL     OW 9641   3.511   6.045   6.658  0.1714  0.1132 -0.3649
 2545SOL    HW1 9642   3.553   6.056   6.743  1.4221 -0.4505 -0.8877
 2545SOL    HW2 9643   3.573   5.994   6.606 -1.2792 -0.9857 -1.0960
 2546SOL     OW 9644   1.863   6.116   9.214 -0.4551 -0.2905  0.2030
 2546SOL    HW1 9645   1.907   6.090   9.295 -0.9991 -0.4981  0.4358
 2546SOL    HW2 9646   1.929   6.101   9.146  0.4220  1.0119  0.7238
 2547SOL     OW 9647   3.606   3.505   7.450 -0.0792 -1.3205  0.0541
 2547SOL    HW1 9648   3.682   3.471   7.497  0.5860  0.8193  0.6645
 2547SOL    HW2 9649   3.558   3.556   7.515 -0.3890 -0.1782 -1.0193
 2548SOL     OW 9650   4.340   8.503   5.818 -0.5998  0.3896 -0.3411
 2548SOL    HW1 9651   4.246   8.514   5.801 -0.7058  0.2559  0.1407
 2548SOL    HW2 9652   4.346   8.493   5.913  0.0106  1.5424 -0.2339
 2549SOL     OW 9653   1.359   4.706   1.017 -0.0439 -0.2884  0.1771
 2549SOL    HW1 9654   1.449   4.675   1.017  0.5770  1.3817 -0.5366
 2549SOL    HW2 9655   1.324   4.679   0.932  0.6861  1.3381 -0.7006
 2550SOL     OW 9656   0.357   6.851   4.375 -0.0238  0.0398 -0.2994
 2550SOL    HW1 9657   0.291   6.785   4.398  1.5260 -1.5362 -0.1601
 2550SOL    HW2 9658   0.438   6.820   4.417  1.6741 -0.0618 -3.3485
 2551SOL     OW 9659   0.160   8.676   1.543 -0.4397 -0.6517  0.0138
 2551SOL    HW1 9660   0.190   8.668   1.633 -2.2037  0.4032  0.7627
 2551SOL    HW2 9661   0.117   8.592   1.524  1.0894 -1.3786 -0.3462
 2552SOL     OW 9662   7.688   9.036   7.364 -0.3830 -0.1102  0.3816
 2552SOL    HW1 9663   7.608   9.022   7.312 -0.0133  0.0241 -0.2238
 2552SOL    HW2 9664   7.745   8.963   7.339 -1.0104 -1.3103  2.2090
 2553SOL     OW 9665   3.042   7.772  10.196  0.2939  0.3788 -0.1857
 2553SOL    HW1 9666   3.072   7.862  10.210 -0.7459  0.5974  0.8529
 2553SOL    HW2 9667   2.977   7.758  10.265  0.7722 -1.3350 -0.0347
 2554SOL     OW 9668   8.070   8.528   4.857  0.2175  0.0321  0.0977
 2554SOL    HW1 9669   8.162   8.511   4.834  0.4071  1.4283 -0.2757
 2554SOL    HW2 9670   8.071   8.617   4.892 -0.6147 -0.8126  2.4783
 2555SOL     OW 9671  10.958   0.338   6.196  0.5316 -0.2265  0.2590
 2555SOL    HW1 9672  10.985   0.402   6.262 -1.7065  1.0283  0.0646
 2555SOL    HW2 9673  11.027   0.339   6.130  2.6785 -1.2734  2.3476
 2556SOL     OW 9674   2.942   8.320   1.421 -0.9339 -0.0489 -0.4472
 2556SOL    HW1 9675   2.993   8.396   1.448 -0.3350 -0.9209  0.9788
 2556SOL    HW2 9676   2.852   8.352   1.417 -0.8174  0.5432  1.0089
 2557SOL     OW 9677   3.774   1.004   1.728 -0.2391  0.0543 -0.7813
 2557SOL    HW1 9678   3.798   1.095   1.711 -0.3641  0.4775  1.0684
 2557SOL    HW2 9679   3.710   1.009   1.800 -1.5873 -1.4031 -1.8095
 2558SOL     OW 9680   6.819   1.336   8.663  0.2868  0.6112  0.4396
 2558SOL    HW1 9681   6.854   1.254   8.629 -0.4153 -0.3749  1.9860
 2558SOL    HW2 9682   6.739   1.351   8.613  0.8706  0.8524 -0.4541
 2559SOL     OW 9683   5.174   7.023   2.830 -0.3399 -0.0367 -0.2041
 2559SOL    HW1 9684   5.127   7.071   2.761 -0.7112 -1.0611 -0.6886
 2559SOL    HW2 9685   5.149   7.068   2.911 -2.5963 -0.8159 -0.3800
 2560SOL     OW 9686   2.371   2.796   5.476 -0.4573  0.0859 -0.2836
 2560SOL    HW1 9687   2.462   2.772   5.458 -0.5308  0.4634 -1.2484
 2560SOL    HW2 9688   2.364   2.794   5.572  1.2618  2.4500 -0.0119
 2561SOL     OW 9689   4.620  10.591   5.145 -0.6475 -0.3672  0.1607
 2561SOL    HW1 9690   4.627  10.661   5.210  1.7979  1.3332 -1.7710
 2561SOL    HW2 9691   4.553  10.622   5.084 -1.5535 -1.0658  0.7719
 2562SOL     OW 9692   7.747   0.256   1.937 -0.2673 -0.5010  0.5109
 2562SOL    HW1 9693   7.752   0.297   1.850  0.9783  0.2888  0.9295
 2562SOL    HW2 9694   7.838   0.238   1.960 -0.4537  0.5112  2.2107
 2563SOL     OW 9695   3.741   1.112   2.276 -0.0401 -0.5060  0.3483
 2563SOL    HW1 9696   3.804   1.074   2.215  0.5903 -0.3115  0.8777
 2563SOL    HW2 9697   3.702   1.185   2.228  1.2687  0.3573  0.5750
 2564SOL     OW 9698   4.036   3.363   4.005 -0.4892  0.2317  0.1882
 2564SOL    HW1 9699   4.036   3.307   3.926  0.8024 -1.3847  1.2541
 2564SOL    HW2 9700   4.100   3.432   3.985 -1.5519  0.9486 -0.8634
 2565SOL     OW 9701   0.785  10.921   7.328 -0.4680 -0.4995 -0.0968
 2565SOL    HW1 9702   0.710  10.886   7.375 -1.0237  0.4540 -0.2451
 2565SOL    HW2 9703   0.754  11.004   7.290 -0.1370 -1.3643 -2.4234
 2566SOL     OW 9704   7.305   4.433   7.090  0.1816 -1.2210  0.0050
 2566SOL    HW1 9705   7.278   4.452   7.179  1.4827  3.1604 -0.2897
 2566SOL    HW2 9706   7.227   4.399   7.047 -1.0789 -1.2569  2.2064
 2567SOL     OW 9707   6.635   8.654   9.141  0.5604 -0.2152  0.2972
 2567SOL    HW1 9708   6.620   8.590   9.211 -0.0053  0.7003  1.0226
 2567SOL    HW2 9709   6.549   8.667   9.101 -0.2943  3.1508  2.8387
 2568SOL     OW 9710   0.791  10.953   9.617 -0.1236  0.2341  0.4728
 2568SOL    HW1 9711   0.741  11.018   9.568 -3.0095 -1.3327  1.0495
 2568SOL    HW2 9712   0.829  11.001   9.690 -0.8524  1.5551  0.0098
 2569SOL     OW 9713   7.177   8.696   6.190  0.1449  0.1253 -0.2286
 2569SOL    HW1 9714   7.216   8.641   6.258 -1.8995 -2.2048 -0.8079
 2569SOL    HW2 9715   7.140   8.770   6.237  1.4098  0.1328  0.8153
 2570SOL     OW 9716   3.162  10.798   8.934  0.0267  0.0804 -0.1753
 2570SOL    HW1 9717   3.112  10.728   8.894 -0.0078  0.1766 -0.3006
 2570SOL    HW2 9718   3.099  10.845   8.989 -0.5930  1.6342 -2.1174
 2571SOL     OW 9719  10.124   8.550   4.966  0.0670  0.0704 -0.4869
 2571SOL    HW1 9720  10.046   8.586   4.923  1.0661  0.9418 -1.6526
 2571SOL    HW2 9721  10.108   8.456   4.969  0.1395 -0.1398 -3.3628
 2572SOL     OW 9722   8.003   9.144   8.276 -0.1243  0.3706  0.2670
 2572SOL    HW1 9723   8.096   9.164   8.270 -0.5863  2.7058 -0.3238
 2572SOL    HW2 9724   7.999   9.052   8.301  2.3248  0.3397  0.7584
 2573SOL     OW 9725   4.139   4.277   9.750  0.6887 -0.3964  0.1953
 2573SOL    HW1 9726   4.178   4.196   9.783 -1.1485 -1.7911 -0.8522
 2573SOL    HW2 9727   4.046   4.257   9.742  0.3983  1.3246 -1.4813
 2574SOL     OW 9728   8.389   5.651   8.531 -0.4095  0.8302 -0.2814
 2574SOL    HW1 9729   8.403   5.568   8.485 -1.5191 -1.9531  3.8186
 2574SOL    HW2 9730   8.477   5.687   8.543  0.7858 -2.3562  1.8855
 2575SOL     OW 9731   0.367   8.072   7.510  0.4320  0.3789  0.3217
 2575SOL    HW1 9732   0.454   8.047   7.541 -0.1882 -1.2254  0.8997
 2575SOL    HW2 9733   0.382   8.115   7.426  1.6721 -1.4695 -0.4542
 2576SOL     OW 9734   8.535   0.047   6.444 -0.5276 -0.1659 -0.0747
 2576SOL    HW1 9735   8.449   0.032   6.482 -0.4420 -0.8753 -0.1451
 2576SOL    HW2 9736   8.524   0.029   6.350 -0.8636  2.0867 -0.5036
 2577SOL     OW 9737   5.249  10.236   2.065  0.2501 -0.3367  0.0177
 2577SOL    HW1 9738   5.259  10.220   1.971 -1.4574  2.4991 -0.7847
 2577SOL    HW2 9739   5.156  10.220   2.082 -0.0593  1.6989  0.5590
 2578SOL     OW 9740   5.476   9.600   4.924  0.4688  0.6174  0.4355
 2578SOL    HW1 9741   5.554   9.551   4.950  0.0603 -0.1880  0.1951
 2578SOL    HW2 9742   5.430   9.541   4.864  0.0676  1.3910 -0.0323
 2579SOL     OW 9743   3.246   8.908   8.241 -0.3009 -0.2710  0.3566
 2579SOL    HW1 9744   3.152   8.924   8.236 -0.4334 -0.7657  1.1351
 2579SOL    HW2 9745   3.274   8.956   8.319 -0.4955 -2.7157  2.0349
 2580SOL     OW 9746   0.409   6.620   0.359 -0.2657 -0.1711 -0.3431
 2580SOL    HW1 9747   0.477   6.639   0.294  1.4471 -2.2685  0.6899
 2580SOL    HW2 9748   0.417   6.690   0.424  2.5855 -1.5080  0.9380
 2581SOL     OW 9749   8.042   2.496   2.446  0.6207  0.2978  0.1329
 2581SOL    HW1 9750   8.055   2.552   2.370 -1.3147 -0.9910 -1.2444
 2581SOL    HW2 9751   7.998   2.418   2.411  1.1820 -1.0889  2.3180
 2582SOL     OW 9752   2.205   0.072   1.835  0.1712 -0.2031 -0.6161
 2582SOL    HW1 9753   2.155   0.134   1.887  1.7928  0.4020  0.2616
 2582SOL    HW2 9754   2.204   0.109   1.746  0.5422  0.7212 -0.2437
 2583SOL     OW 9755   4.468   6.850   2.737 -0.0572  0.5778 -0.2682
 2583SOL    HW1 9756   4.451   6.876   2.828  1.4396 -0.4216  0.3379
 2583SOL    HW2 9757   4.556   6.812   2.739  0.7144  2.0412 -2.4594
 2584SOL     OW 9758  10.941   6.190   5.144  0.0169 -0.5127  0.4087
 2584SOL    HW1 9759  10.951   6.166   5.052 -1.1157 -1.0832  0.4243
 2584SOL    HW2 9760  10.847   6.186   5.160  0.1861 -0.2342  1.5423
 2585SOL     OW 9761   7.355   9.207   0.387  0.4365  0.1176  0.5606
 2585SOL    HW1 9762   7.417   9.257   0.334  0.7080  0.3125  1.0550
 2585SOL    HW2 9763   7.387   9.216   0.477 -0.3799  0.3308  0.8434
 2586SOL     OW 9764   2.056   3.791   7.461  0.2158 -0.2453  0.3831
 2586SOL    HW1 9765   2.142   3.787   7.503 -0.3734 -1.7874  1.5521
 2586SOL    HW2 9766   2.002   3.730   7.512 -2.1924  2.2757  1.1118
 2587SOL     OW 9767   1.240   8.871   4.201  0.2828 -0.7353  0.2816
 2587SOL    HW1 9768   1.311   8.934   4.216  0.7968 -0.5380 -2.4416
 2587SOL    HW2 9769   1.173   8.895   4.265  0.1227  3.1596 -1.0744
 2588SOL     OW 9770   5.022   8.894   8.684 -0.7571  0.4600 -0.1478
 2588SOL    HW1 9771   5.091   8.958   8.698 -1.0214  1.1413 -1.7461
 2588SOL    HW2 9772   5.031   8.832   8.756  1.3557  0.6624 -0.1924
 2589SOL     OW 9773  10.846   6.600   1.359 -0.3850  0.0756  0.9003
 2589SOL    HW1 9774  10.850   6.584   1.454 -0.7230 -2.3191  0.5597
 2589SOL    HW2 9775  10.929   6.644   1.339 -0.9050  1.9178  2.4812
 2590SOL     OW 9776   0.618   7.598  11.001  0.1865 -0.4019  0.1551
 2590SOL    HW1 9777   0.607   7.649  11.081  0.7716 -1.5511  0.9991
 2590SOL    HW2 9778   0.699   7.548  11.015  1.0712  0.4060 -1.7301
 2591SOL     OW 9779   7.225   8.781   1.174  0.3831  0.5154 -0.1428
 2591SOL    HW1 9780   7.254   8.805   1.086  0.4240  1.9998  0.2562
 2591SOL    HW2 9781   7.305   8.779   1.226  0.6162 -2.0526 -0.4370
 2592SOL     OW 9782   8.767   2.400   1.050  0.3802 -0.0625  0.0867
 2592SOL    HW1 9783   8.728   2.317   1.023 -2.2045  1.5307 -1.4152
 2592SOL    HW2 9784   8.715   2.467   1.006  2.5706  2.3882  0.9742
 2593SOL     OW 9785   6.208   7.784   8.927  0.7923 -0.4214  0.0176
 2593SOL    HW1 9786   6.300   7.789   8.952  0.9573 -3.4749  0.3565
 2593SOL    HW2 9787   6.170   7.720   8.987 -1.6327  0.9095  0.0039
 2594SOL     OW 9788   2.787   6.087   1.130 -0.1485 -0.0875  0.4217
 2594SOL    HW1 9789   2.779   5.995   1.155  0.5787  0.6082  3.6203
 2594SOL    HW2 9790   2.778   6.135   1.212  1.1380  2.6284 -0.8971
 2595SOL     OW 9791   6.982   5.492   5.788  0.4301  0.4038 -0.0531
 2595SOL    HW1 9792   6.981   5.418   5.727 -0.4721 -0.0244  0.4605
 2595SOL    HW2 9793   7.030   5.459   5.864 -0.6940  0.0501  0.5167
 2596SOL     OW 9794   0.490   9.242   9.418 -0.0160  0.4533  0.5105
 2596SOL    HW1 9795   0.542   9.163   9.426  0.0009  0.3348 -0.6127
 2596SOL    HW2 9796   0.423   9.234   9.487 -0.7953 -1.1485 -0.3760
 2597SOL     OW 9797   5.055   4.298   3.633  0.0078  0.1872 -0.2290
 2597SOL    HW1 9798   5.006   4.248   3.568  3.0226 -0.3597 -2.2622
 2597SOL    HW2 9799   5.100   4.232   3.686  2.6423  0.5648 -1.8273
 2598SOL     OW 9800   1.120   4.237   2.580  0.2778  0.8275 -0.3742
 2598SOL    HW1 9801   1.035   4.199   2.560  1.8647 -2.6050 -1.3229
 2598SOL    HW2 9802   1.124   4.238   2.676 -0.2093 -0.6807 -0.3092
 2599SOL     OW 9803   6.756   4.969   7.481  0.6791 -0.4690 -0.6946
 2599SOL    HW1 9804   6.758   5.055   7.439  0.9284 -0.1668 -0.0748
 2599SOL    HW2 9805   6.726   4.910   7.413 -0.7436  0.3148 -0.7729
 2600SOL     OW 9806   6.999   9.321   8.779  0.4627  0.3788 -0.0107
 2600SOL    HW1 9807   7.034   9.308   8.868  0.7780 -0.9050 -0.2950
 2600SOL    HW2 9808   6.904   9.318   8.791  0.4954  0.7227  0.3558
 2601SOL     OW 9809  10.810   8.573   7.467  0.2320  0.6560  0.0435
 2601SOL    HW1 9810  10.882   8.518   7.435 -0.6344  0.7218 -2.1500
 2601SOL    HW2 9811  10.804   8.644   7.404 -2.8282 -0.2647 -0.8980
 2602SOL     OW 9812   6.705   1.453   8.226 -0.3516 -0.0921  0.0183
 2602SOL    HW1 9813   6.786   1.474   8.273 -0.9769  2.1549  0.2182
 2602SOL    HW2 9814   6.734   1.413   8.144  0.9100 -0.3635  0.5737
 2603SOL     OW 9815  11.096   6.311   9.546 -0.1611 -0.1088 -0.0976
 2603SOL    HW1 9816  11.150   6.386   9.521 -0.3698  0.0590 -0.0437
 2603SOL    HW2 9817  11.010   6.348   9.565 -0.0516 -0.2472  0.7338
 2604SOL     OW 9818   3.475   1.653   4.045  0.1184 -0.2088 -0.0342
 2604SOL    HW1 9819   3.545   1.616   3.991 -0.0536 -2.2700  1.0381
 2604SOL    HW2 9820   3.498   1.630   4.135 -0.4393  1.7037  0.6505
 2605SOL     OW 9821   9.309   4.523  10.002 -0.4021  0.1616  0.2922
 2605SOL    HW1 9822   9.326   4.566   9.918  1.4583 -1.3378 -0.1743
 2605SOL    HW2 9823   9.381   4.551  10.058  0.3108 -1.5201  0.2720
 2606SOL     OW 9824   0.803   9.900   1.148  0.7669 -0.3171 -0.4228
 2606SOL    HW1 9825   0.864   9.954   1.198 -0.2713  0.7542 -0.2561
 2606SOL    HW2 9826   0.756   9.849   1.214 -0.4530  0.9390 -0.2818
 2607SOL     OW 9827   7.255   3.205   8.426 -0.2618 -0.4564  0.0982
 2607SOL    HW1 9828   7.346   3.232   8.420 -0.5449  0.2427 -2.0531
 2607SOL    HW2 9829   7.207   3.286   8.446 -0.5206 -0.5456 -0.1491
 2608SOL     OW 9830   3.223   4.964  10.169 -0.0167  0.0269  0.0450
 2608SOL    HW1 9831   3.312   4.930  10.181 -0.1938 -0.3570  0.2880
 2608SOL    HW2 9832   3.185   4.908  10.101 -0.0019  0.3300 -0.2145
 2609SOL     OW 9833   8.695   3.591   9.521  0.0340 -0.1473 -0.0815
 2609SOL    HW1 9834   8.755   3.582   9.447 -1.9436  1.3698 -1.9856
 2609SOL    HW2 9835   8.699   3.683   9.545 -0.4020 -0.3404  0.7854
 2610SOL     OW 9836   6.869  11.025   9.667 -0.3580 -0.6780  0.1640
 2610SOL    HW1 9837   6.930  11.029   9.741  0.8697 -1.0752 -0.8055
 2610SOL    HW2 9838   6.865  11.115   9.634  0.7299 -0.8964 -0.5783
 2611SOL     OW 9839   6.630  11.125   1.899  0.7796 -0.1293  0.1863
 2611SOL    HW1 9840   6.707  11.113   1.843  0.6199  1.2308 -0.3635
 2611SOL    HW2 9841   6.596  11.211   1.875 -1.5216 -1.0971 -0.3297
 2612SOL     OW 9842   2.858  11.280   3.978 -0.1594 -0.6665  0.3475
 2612SOL    HW1 9843   2.887  11.195   4.011 -1.6673 -0.3185  2.7693
 2612SOL    HW2 9844   2.932  11.338   3.992 -0.1218 -0.9528  1.3680
 2613SOL     OW 9845   2.691   0.008   8.006 -0.5668 -0.2448  0.3432
 2613SOL    HW1 9846   2.600  -0.020   8.003 -2.4106  4.7730  0.5224
 2613SOL    HW2 9847   2.717  -0.001   8.097 -1.5177 -0.1737  0.6294
 2614SOL     OW 9848   1.663   8.831   9.232  0.3988 -0.7201 -0.4927
 2614SOL    HW1 9849   1.683   8.852   9.323  0.9598  0.0321 -0.7763
 2614SOL    HW2 9850   1.702   8.903   9.182  0.6967 -1.4755 -1.3764
 2615SOL     OW 9851   0.836   7.442   8.709  0.2574 -0.1871 -0.2324
 2615SOL    HW1 9852   0.923   7.481   8.716  0.4013 -0.5947  0.3062
 2615SOL    HW2 9853   0.843   7.358   8.755 -1.0269  0.7926  1.8598
 2616SOL     OW 9854   9.470   0.102   2.494 -0.4287 -0.5693  0.4368
 2616SOL    HW1 9855   9.524   0.053   2.556  0.6107 -0.0671 -0.0516
 2616SOL    HW2 9856   9.520   0.101   2.413 -0.5921  0.9125  0.2953
 2617SOL     OW 9857   8.838   5.004   0.466 -0.1751  0.6078  0.5240
 2617SOL    HW1 9858   8.800   4.934   0.412  1.0818 -0.2838  0.7386
 2617SOL    HW2 9859   8.825   4.975   0.556  1.2406  0.1289  0.5970
 2618SOL     OW 9860   9.751  11.192   3.416 -0.5590 -0.0609 -0.4785
 2618SOL    HW1 9861   9.687  11.232   3.475 -0.6667 -2.4769  1.2089
 2618SOL    HW2 9862   9.719  11.102   3.404  1.1401 -0.5476 -1.7462
 2619SOL     OW 9863   5.826  10.012  10.939 -0.1197 -0.6627  0.0931
 2619SOL    HW1 9864   5.878  10.075  10.889  0.5597 -0.5116  0.9761
 2619SOL    HW2 9865   5.738  10.018  10.900  0.3988 -0.5834 -1.0965
 2620SOL     OW 9866  10.008   2.174   7.025 -0.3342 -0.2795  0.6355
 2620SOL    HW1 9867   9.993   2.264   7.052 -0.0252  0.0606 -0.2761
 2620SOL    HW2 9868   9.991   2.121   7.103  0.5323  0.6488  1.4717
 2621SOL     OW 9869   2.868   8.734   3.027 -0.1801 -0.3172  0.2444
 2621SOL    HW1 9870   2.947   8.679   3.031 -0.0568 -0.1472  0.1307
 2621SOL    HW2 9871   2.897   8.819   3.058 -1.0520 -1.0716  3.4336
 2622SOL     OW 9872   2.728   7.855   2.575 -0.0395  0.4922  0.0166
 2622SOL    HW1 9873   2.756   7.900   2.495  0.6899 -1.0033 -0.6206
 2622SOL    HW2 9874   2.710   7.766   2.546 -1.0834  0.2737  1.2981
 2623SOL     OW 9875   7.674   8.656  10.574 -0.2821  0.3616 -0.4330
 2623SOL    HW1 9876   7.636   8.572  10.549 -1.1843  0.4842  0.4687
 2623SOL    HW2 9877   7.700   8.645  10.666 -0.6826  1.1435 -0.2114
 2624SOL     OW 9878   3.496   2.084   9.598 -0.2470  0.2292 -0.5155
 2624SOL    HW1 9879   3.433   2.134   9.547 -2.7390 -1.1351  1.0425
 2624SOL    HW2 9880   3.544   2.149   9.649 -0.7882  1.2475 -1.2921
 2625SOL     OW 9881   5.904  10.560   6.540  0.1267 -0.4206 -0.4658
 2625SOL    HW1 9882   5.850  10.603   6.473  1.7904  1.5602 -0.6629
 2625SOL    HW2 9883   5.993  10.591   6.521  0.7324 -0.2127  2.3131
 2626SOL     OW 9884   7.259   0.992  10.866 -0.3414 -0.4439 -0.3874
 2626SOL    HW1 9885   7.346   1.029  10.858  0.6018 -2.2886  0.5508
 2626SOL    HW2 9886   7.207   1.036  10.799  1.6398 -0.2311 -1.8681
 2627SOL     OW 9887   6.194   0.807   0.504  0.1896 -0.4773  0.1559
 2627SOL    HW1 9888   6.171   0.718   0.531 -0.0870 -0.4806 -0.0889
 2627SOL    HW2 9889   6.214   0.799   0.411 -0.7400 -0.1193 -0.0847
 2628SOL     OW 9890   4.412   2.066   0.167  0.0781 -0.2374  0.0997
 2628SOL    HW1 9891   4.328   2.108   0.185 -1.1835 -1.6016 -2.2077
 2628SOL    HW2 9892   4.439   2.028   0.251 -2.7975 -1.7763  0.4452
 2629SOL     OW 9893   1.522   4.227   8.755  0.9076  0.0004 -0.6054
 2629SOL    HW1 9894   1.529   4.133   8.739 -1.5394 -0.3120 -0.2716
 2629SOL    HW2 9895   1.434   4.250   8.726  0.2434  1.5220  2.2083
 2630SOL     OW 9896   8.653   2.079   6.566  0.0691 -0.0111  0.5815
 2630SOL    HW1 9897   8.613   2.166   6.563 -2.2090 -0.8651 -4.7337
 2630SOL    HW2 9898   8.622   2.041   6.648  0.2112  3.6312  2.5407
 2631SOL     OW 9899   1.242  10.154   7.528 -0.4456 -0.6096  0.4018
 2631SOL    HW1 9900   1.325  10.201   7.518  1.3170 -3.3792  0.8631
 2631SOL    HW2 9901   1.193  10.205   7.592  2.6808 -0.9546  3.3361
 2632SOL     OW 9902   3.909   2.073   5.141 -0.6664 -0.1288  0.1725
 2632SOL    HW1 9903   3.843   2.014   5.175  0.1044 -1.0840  0.0668
 2632SOL    HW2 9904   3.868   2.114   5.065 -2.7311  2.6909  2.5854
 2633SOL     OW 9905   3.279   2.310   6.921  0.8475  0.4595  0.6757
 2633SOL    HW1 9906   3.287   2.367   6.998 -0.6554  1.2711  0.2661
 2633SOL    HW2 9907   3.298   2.367   6.847 -2.5936  1.0629  0.1019
 2634SOL     OW 9908   8.950   6.705   9.145 -0.5829 -0.0113 -0.5564
 2634SOL    HW1 9909   8.956   6.774   9.210 -0.0712 -1.6483  1.2474
 2634SOL    HW2 9910   8.877   6.730   9.088 -3.7116 -0.3004  2.9715
 2635SOL     OW 9911   0.334   9.413   6.353 -0.0385 -0.5145  0.0107
 2635SOL    HW1 9912   0.286   9.456   6.283  0.3954  0.7792  0.4803
 2635SOL    HW2 9913   0.418   9.459   6.357 -0.3200 -0.0787  1.8506
 2636SOL     OW 9914   0.309   2.099   4.058  0.3399 -0.8534  0.2601
 2636SOL    HW1 9915   0.215   2.108   4.074  0.3134  0.2600 -0.4048
 2636SOL    HW2 9916   0.351   2.149   4.128  0.3925 -0.3750 -0.1087
 2637SOL     OW 9917   4.216  10.600   8.361 -0.4493  0.0629 -0.5918
 2637SOL    HW1 9918   4.155  10.534   8.331 -0.5664 -0.4898  0.7674
 2637SOL    HW2 9919   4.180  10.630   8.445  1.3038 -0.5713  0.4574
 2638SOL     OW 9920   1.445   6.960   5.793  0.1054  0.0137  0.3543
 2638SOL    HW1 9921   1.523   7.008   5.768  0.0890  1.0813  2.1628
 2638SOL    HW2 9922   1.434   6.893   5.725  2.7826 -0.4029  0.2378
 2639SOL     OW 9923   0.233   7.670   9.667 -0.5109 -0.2825 -0.0450
 2639SOL    HW1 9924   0.197   7.754   9.696 -2.0169 -0.7306 -0.5416
 2639SOL    HW2 9925   0.160   7.609   9.671  0.0685 -1.1357 -1.5254
 2640SOL     OW 9926   1.208   4.942   9.548  0.0960  0.4363 -0.1683
 2640SOL    HW1 9927   1.230   4.881   9.479  1.0608  1.6967 -1.0216
 2640SOL    HW2 9928   1.229   5.028   9.512 -1.6864  1.3395  0.7983
 2641SOL     OW 9929   6.764   2.529   5.917 -0.0368 -0.2910  0.2365
 2641SOL    HW1 9930   6.677   2.567   5.932 -0.3440 -0.4576 -1.0202
 2641SOL    HW2 9931   6.822   2.579   5.975 -1.0528 -0.5815  1.5506
 2642SOL     OW 9932   9.220  10.121   1.366  0.1751  0.0149  0.4591
 2642SOL    HW1 9933   9.189  10.039   1.326  1.5138 -0.5404  0.5241
 2642SOL    HW2 9934   9.254  10.172   1.293  0.2387  0.0960  0.5455
 2643SOL     OW 9935   5.168   6.325   6.003  0.2901  0.0329 -0.0934
 2643SOL    HW1 9936   5.155   6.315   5.909  0.8642  1.7412 -0.3999
 2643SOL    HW2 9937   5.260   6.303   6.017  0.7846  1.7840 -0.3173
 2644SOL     OW 9938   2.080   1.434   4.563 -0.2431 -0.2184  0.4049
 2644SOL    HW1 9939   2.167   1.393   4.562 -0.0017  0.2924  0.1160
 2644SOL    HW2 9940   2.038   1.400   4.642 -0.2307 -1.3993 -0.0676
 2645SOL     OW 9941   0.866  11.026   3.625 -0.4039  0.3400  0.1578
 2645SOL    HW1 9942   0.905  10.940   3.642 -1.6945 -0.1608  0.7358
 2645SOL    HW2 9943   0.879  11.074   3.707  0.0176  0.5702 -0.0469
 2646SOL     OW 9944   5.520   1.918   5.883 -0.1514 -0.0154  0.7846
 2646SOL    HW1 9945   5.494   1.944   5.795  0.2853 -3.1085 -0.3780
 2646SOL    HW2 9946   5.451   1.859   5.912  0.7897 -0.7454  1.5987
 2647SOL     OW 9947   9.167   7.404   9.894 -0.9877 -0.2422  0.2221
 2647SOL    HW1 9948   9.097   7.341   9.880 -0.9032 -0.1511 -0.6786
 2647SOL    HW2 9949   9.137   7.484   9.850  0.4294 -0.7371 -1.8218
 2648SOL     OW 9950   1.256   6.739   1.771 -0.1544 -0.5180  0.1289
 2648SOL    HW1 9951   1.273   6.663   1.715  0.9679  0.1727 -0.4930
 2648SOL    HW2 9952   1.212   6.702   1.848 -1.4175 -1.5290 -1.0299
 2649SOL     OW 9953  10.096   4.767   0.987 -0.1898  0.2524  0.3544
 2649SOL    HW1 9954  10.137   4.708   1.051 -0.1944 -1.4894 -1.1672
 2649SOL    HW2 9955  10.002   4.755   0.999 -0.1907 -0.1347 -0.0105
 2650SOL     OW 9956   2.934  11.037   8.147 -0.0617  0.4071  1.2861
 2650SOL    HW1 9957   2.936  11.041   8.243  0.5717  0.3687  1.2815
 2650SOL    HW2 9958   3.015  11.080   8.120 -0.6850  1.2534  0.7294
 2651SOL     OW 9959   8.029   5.880   4.230 -0.2689  0.4263  1.1359
 2651SOL    HW1 9960   7.992   5.966   4.251  0.1183  1.5370 -2.2591
 2651SOL    HW2 9961   7.956   5.831   4.194 -0.2554 -0.3794  2.1570
 2652SOL     OW 9962   0.967   3.119   2.000 -0.1659 -0.5371 -0.1023
 2652SOL    HW1 9963   0.904   3.146   1.932 -1.0667 -0.8741  0.5734
 2652SOL    HW2 9964   0.954   3.025   2.009 -2.6014 -0.0887  2.9160
 2653SOL     OW 9965   8.582   3.488   6.157 -0.3082 -0.2603  0.8068
 2653SOL    HW1 9966   8.595   3.538   6.077 -3.1347  0.5540  0.7474
 2653SOL    HW2 9967   8.563   3.555   6.224 -0.2198 -1.0537  1.6422
 2654SOL     OW 9968   3.100   0.921  10.117 -0.0899 -0.3552 -0.8266
 2654SOL    HW1 9969   3.103   0.998  10.174 -0.9134 -0.9800  0.1188
 2654SOL    HW2 9970   3.148   0.854  10.165 -1.7115 -1.2094 -0.2958
 2655SOL     OW 9971   6.896   4.867   3.015 -0.1364 -0.0033 -0.3197
 2655SOL    HW1 9972   6.811   4.829   2.991 -0.2319  0.7574 -1.2530
 2655SOL    HW2 9973   6.874   4.946   3.064  0.0356  0.0374 -0.3078
 2656SOL     OW 9974   2.644   2.346   3.432  0.0958  0.3096  0.2714
 2656SOL    HW1 9975   2.562   2.318   3.391 -0.2840  2.3017 -0.4346
 2656SOL    HW2 9976   2.706   2.352   3.360 -0.3542  3.0404  0.0137
 2657SOL     OW 9977   2.174   6.994   2.166  0.0962 -0.4721  0.3977
 2657SOL    HW1 9978   2.166   7.082   2.203  1.5830  0.1137 -0.5642
 2657SOL    HW2 9979   2.155   7.005   2.073  0.6800 -1.0922  0.1991
 2658SOL     OW 9980   0.906   7.989   8.465 -0.2351 -0.2461 -0.3334
 2658SOL    HW1 9981   0.961   8.045   8.410  0.1445  0.2729  0.5551
 2658SOL    HW2 9982   0.944   7.996   8.552 -0.4767 -1.5263 -0.1061
 2659SOL     OW 9983   0.267   5.792   2.523  0.3009  0.4027 -0.0008
 2659SOL    HW1 9984   0.250   5.698   2.518 -0.4305  0.5708 -0.8045
 2659SOL    HW2 9985   0.216   5.821   2.599  1.4453 -0.0150  0.9830
 2660SOL     OW 9986   7.728   1.162   0.991 -0.4127 -0.4986  0.4480
 2660SOL    HW1 9987   7.784   1.208   0.929  0.2531  0.0514  1.4382
 2660SOL    HW2 9988   7.713   1.076   0.951  1.6478 -0.9031  0.4380
 2661SOL     OW 9989   9.000   5.418   2.378  0.2218  0.2862 -0.3778
 2661SOL    HW1 9990   8.937   5.414   2.450 -0.2438  1.1175 -0.7185
 2661SOL    HW2 9991   9.084   5.438   2.420 -0.0592  0.8376 -0.0659
 2662SOL     OW 9992   4.644   7.502   3.581  0.2045  0.4986 -0.8741
 2662SOL    HW1 9993   4.610   7.445   3.512 -2.3553  2.1406 -1.1062
 2662SOL    HW2 9994   4.570   7.559   3.603  0.5243 -0.5797  3.9811
 2663SOL     OW 9995   0.128   6.235   3.395  0.3715  0.2072  0.2800
 2663SOL    HW1 9996   0.169   6.151   3.418  0.8612  0.1509 -0.7668
 2663SOL    HW2 9997   0.045   6.235   3.443  0.5695 -0.6797  0.6377
 2664SOL     OW 9998   2.668   5.470   8.789  0.3505 -0.5797 -0.2193
 2664SOL    HW1 9999   2.732   5.535   8.819  1.3588 -0.8424 -1.6749
 2664SOL    HW210000   2.655   5.413   8.864 -0.1054  0.9369  0.9028
 2665SOL     OW10001   7.845  10.614   6.055  0.1529 -0.8819 -0.8392
 2665SOL    HW110002   7.939  10.607   6.067  0.0272 -0.3592  0.7162
 2665SOL    HW210003   7.808  10.581   6.137 -1.0018 -0.6783 -1.2555
 2666SOL     OW10004   0.503   3.959   3.299  1.0742  0.1722  0.1873
 2666SOL    HW110005   0.576   3.985   3.243  0.5556 -0.5399 -0.8450
 2666SOL    HW210006   0.532   3.878   3.341  1.4128  0.6377  0.8701
 2667SOL     OW10007  10.992  10.754  10.555  0.3309 -0.2922 -0.3534
 2667SOL    HW110008  10.948  10.761  10.640 -0.7264  1.3098 -0.9953
 2667SOL    HW210009  11.023  10.842  10.536  1.2733 -0.8000 -1.2814
 2668SOL     OW10010   8.042   8.915   6.595 -0.1689  0.1197  0.3226
 2668SOL    HW110011   8.124   8.964   6.600  0.8720 -1.4452 -0.5720
 2668SOL    HW210012   8.043   8.858   6.672 -1.1825  1.1619  1.1419
 2669SOL     OW10013   3.851  10.484   3.858  0.0590 -0.3429  0.1002
 2669SOL    HW110014   3.869  10.517   3.770  1.7191 -1.6379 -0.1109
 2669SOL    HW210015   3.842  10.563   3.912  0.5514  0.4586 -0.9449
 2670SOL     OW10016   8.274   2.682   9.372  0.2854  0.0576 -0.0382
 2670SOL    HW110017   8.205   2.639   9.321  1.9266 -1.3452 -1.2114
 2670SOL    HW210018   8.287   2.626   9.448  1.3907 -0.7706 -0.7995
 2671SOL     OW10019   6.098   5.971  11.134 -0.7631 -0.1976 -0.4362
 2671SOL    HW110020   6.109   5.877  11.149 -1.7507 -0.4053 -0.9142
 2671SOL    HW210021   6.121   5.983  11.042 -2.4605 -0.3194 -0.9149
 2672SOL     OW10022   7.740   6.590   9.548 -0.6890  0.4091 -0.3505
 2672SOL    HW110023   7.730   6.545   9.464  1.1190  1.1309 -1.0023
 2672SOL    HW210024   7.793   6.530   9.601  2.2449  1.8688 -1.4286
 2673SOL     OW10025   5.860   0.848   4.844  0.3879 -0.0997 -0.4169
 2673SOL    HW110026   5.946   0.821   4.810  1.1725  1.8585 -0.1698
 2673SOL    HW210027   5.875   0.937   4.875 -1.1161 -0.6380  2.0569
 2674SOL     OW10028   7.118  10.374   4.002 -0.3806  0.1175 -0.1849
 2674SOL    HW110029   7.066  10.374   4.082  1.3056 -0.6169  0.9776
 2674SOL    HW210030   7.197  10.422   4.025  0.6875 -1.1782 -0.9858
 2675SOL     OW10031   6.055   4.772   0.077  0.6824 -0.3389 -0.4236
 2675SOL    HW110032   6.013   4.852   0.108  0.8134 -0.1706 -0.6792
 2675SOL    HW210033   6.042   4.709   0.148  0.1156 -0.2498 -0.4433
 2676SOL     OW10034  10.003   2.066  10.951  0.2945  0.2288 -0.0097
 2676SOL    HW110035  10.002   2.157  10.980 -1.2372 -0.5104  2.5734
 2676SOL    HW210036   9.920   2.030  10.983 -0.0475 -1.6219 -2.6506
 2677SOL     OW10037   9.968   7.517   5.274  0.3173 -0.3057  0.2136
 2677SOL    HW110038   9.953   7.443   5.216  0.1031  1.7422 -2.5559
 2677SOL    HW210039  10.062   7.534   5.268  0.2261  0.1793  0.1197
 2678SOL     OW10040   2.688   9.290   4.130  0.1375 -0.3005  0.1468
 2678SOL    HW110041   2.752   9.220   4.130  1.4360  0.8371 -0.2743
 2678SOL    HW210042   2.729   9.361   4.080 -2.6211 -0.5345 -2.8024
 2679SOL     OW10043   3.559   7.713   9.203 -0.3777  0.3675 -0.2485
 2679SOL    HW110044   3.512   7.756   9.131  0.2789  0.0010 -0.9086
 2679SOL    HW210045   3.562   7.779   9.272  0.5042  1.3722 -1.1996
 2680SOL     OW10046  10.046   4.185   2.928 -0.1620 -0.2583 -0.2487
 2680SOL    HW110047  10.114   4.242   2.963 -0.7167 -0.9421  2.1338
 2680SOL    HW210048  10.028   4.220   2.841  1.0507  1.8346  0.2662
 2681SOL     OW10049   2.264   0.739   5.914 -0.2464  0.0290 -0.5333
 2681SOL    HW110050   2.319   0.705   5.843  0.9596  0.2681  0.2443
 2681SOL    HW210051   2.247   0.830   5.890  0.3146  0.1639 -0.4384
 2682SOL     OW10052   1.438   6.839   0.983 -0.4834  0.0269 -0.4024
 2682SOL    HW110053   1.485   6.921   0.998 -0.4028 -0.0368 -0.3036
 2682SOL    HW210054   1.376   6.859   0.912 -1.3103  0.5107  0.4321
 2683SOL     OW10055   9.332   4.311   6.389  0.3720 -0.5687  0.1950
 2683SOL    HW110056   9.340   4.361   6.307  1.0797 -2.2345 -0.7996
 2683SOL    HW210057   9.421   4.310   6.424  0.5711 -1.9192 -0.3038
 2684SOL     OW10058   2.406   9.050   6.669  0.1914  0.5761  0.3185
 2684SOL    HW110059   2.430   9.062   6.577 -1.4769  0.1357 -0.2222
 2684SOL    HW210060   2.323   9.097   6.678 -1.3146 -1.9822  0.7562
 2685SOL     OW10061   9.420   4.359   1.890  0.0538 -0.4780  0.6490
 2685SOL    HW110062   9.470   4.302   1.949  1.3461  0.7503  0.7691
 2685SOL    HW210063   9.337   4.312   1.878  0.4480 -1.6112  2.0214
 2686SOL     OW10064   5.515  11.138   5.045  0.1672  0.3994 -0.0571
 2686SOL    HW110065   5.520  11.192   5.125 -0.2983 -0.0559  0.2861
 2686SOL    HW210066   5.574  11.182   4.983  0.9155  0.4961  0.6947
 2687SOL     OW10067  10.622   3.823   2.690  0.9699 -0.0036 -0.0713
 2687SOL    HW110068  10.547   3.764   2.689  0.3068  0.8256 -0.2663
 2687SOL    HW210069  10.619   3.864   2.776  1.1293  0.1249 -0.1269
 2688SOL     OW10070   3.988   1.763   5.698  0.2037  0.1276  0.1370
 2688SOL    HW110071   4.057   1.766   5.764  1.9817 -1.4671 -1.5275
 2688SOL    HW210072   3.982   1.671   5.674 -1.2400  0.4971 -1.0772
 2689SOL     OW10073   3.021  10.830   9.878  0.2163 -0.3583 -0.3900
 2689SOL    HW110074   3.076  10.876   9.941  2.0691  0.5107 -2.4816
 2689SOL    HW210075   2.999  10.747   9.920  1.9506 -0.1158  1.0978
 2690SOL     OW10076   2.360   7.653   9.949 -0.1277 -0.2343 -0.4848
 2690SOL    HW110077   2.302   7.641   9.874  1.0176 -0.0217 -1.4363
 2690SOL    HW210078   2.436   7.698   9.913  0.5504 -0.3374  0.7709
 2691SOL     OW10079   6.156   9.103   0.207 -0.8885 -0.2223 -0.2759
 2691SOL    HW110080   6.115   9.186   0.229  1.3916  0.6328  1.0503
 2691SOL    HW210081   6.103   9.068   0.135 -1.0886  3.0300 -1.8823
 2692SOL     OW10082   6.545   8.835   5.960 -0.1357 -0.3688  0.6600
 2692SOL    HW110083   6.632   8.807   5.929  1.0618  0.2370  3.2229
 2692SOL    HW210084   6.501   8.866   5.881  1.3817 -2.0982 -0.9926
 2693SOL     OW10085   1.224   0.913   3.747 -0.1232 -0.1416 -0.1875
 2693SOL    HW110086   1.284   0.925   3.821  2.4293 -0.2844 -2.1188
 2693SOL    HW210087   1.238   0.823   3.718 -0.1504  0.2898 -1.6095
 2694SOL     OW10088  11.274   3.736   9.983  0.1452  0.4419 -0.5345
 2694SOL    HW110089  11.356   3.766  10.022  0.2651 -0.2417 -0.2356
 2694SOL    HW210090  11.230   3.816   9.954  1.4685  0.7383 -1.8114
 2695SOL     OW10091   7.618   9.121   6.098 -0.0205 -0.1731 -0.4351
 2695SOL    HW110092   7.567   9.042   6.078 -0.4466 -0.7559  2.5648
 2695SOL    HW210093   7.665   9.100   6.178 -0.2983  2.6651  0.5867
 2696SOL     OW10094   0.784   2.233  10.507 -0.1849 -0.0509 -0.1267
 2696SOL    HW110095   0.854   2.276  10.555  0.7699 -0.7572 -0.8421
 2696SOL    HW210096   0.776   2.147  10.549  2.3733 -1.6934 -2.6254
 2697SOL     OW10097   8.737   6.531   6.442  0.3812  0.3544 -0.0590
 2697SOL    HW110098   8.808   6.556   6.502  0.6240 -3.0873  1.3037
 2697SOL    HW210099   8.685   6.468   6.491 -1.3332 -0.1674 -2.3895
 2698SOL     OW10100  10.435   7.655   4.500  0.0917  0.3424 -0.4921
 2698SOL    HW110101  10.469   7.734   4.457  2.1520 -0.9544 -1.4487
 2698SOL    HW210102  10.514   7.606   4.523 -1.1313 -1.5001 -0.0520
 2699SOL     OW10103   5.584  10.071   7.552  0.1011  0.0193  0.0336
 2699SOL    HW110104   5.625  10.009   7.612  0.3701 -1.1646 -1.3266
 2699SOL    HW210105   5.630  10.058   7.469  0.3908  2.2941 -0.2172
 2700SOL     OW10106  11.193   9.176   7.660 -0.1059  0.4370 -0.4739
 2700SOL    HW110107  11.171   9.091   7.623 -0.1832  0.7028 -1.0546
 2700SOL    HW210108  11.231   9.225   7.587  2.1278  0.1213  0.3911
 2701SOL     OW10109   6.724   9.109  10.270 -0.1917 -0.5225 -0.1037
 2701SOL    HW110110   6.758   9.101  10.359  2.2027 -1.7296 -1.0338
 2701SOL    HW210111   6.785   9.168  10.226 -1.1274 -0.2248 -1.0629
 2702SOL     OW10112   4.231   8.467   7.616 -0.2945 -0.2667 -0.6374
 2702SOL    HW110113   4.294   8.486   7.547  2.1858 -1.8216  1.0408
 2702SOL    HW210114   4.228   8.546   7.670  0.1793 -0.1642 -0.7657
 2703SOL     OW10115   3.136  11.070   4.856  0.6527 -0.7516 -0.3742
 2703SOL    HW110116   3.041  11.081   4.855  0.7997  1.5243  1.8530
 2703SOL    HW210117   3.158  11.043   4.767 -1.9299 -0.0196 -1.3170
 2704SOL     OW10118   2.635   7.702   4.095  0.1481  0.4164 -0.4499
 2704SOL    HW110119   2.716   7.685   4.144  0.5487  0.3669 -1.1151
 2704SOL    HW210120   2.566   7.694   4.160  0.6428  0.0095  0.0391
 2705SOL     OW10121   5.255   2.678  10.165  0.0914 -0.2857  0.2405
 2705SOL    HW110122   5.219   2.647  10.248 -1.1786  0.6905  0.0889
 2705SOL    HW210123   5.338   2.632  10.156  1.8535  1.8359  3.5847
 2706SOL     OW10124   5.984   4.465   0.016  0.4376  0.5371  0.8307
 2706SOL    HW110125   5.989   4.502   0.104 -0.1402 -0.2680  1.2161
 2706SOL    HW210126   5.946   4.534  -0.038 -0.1733  0.6733  1.4315
 2707SOL     OW10127   8.937   4.190   1.326 -0.4913 -0.0668  0.7660
 2707SOL    HW110128   9.025   4.225   1.311 -1.4693  2.6638  0.7021
 2707SOL    HW210129   8.918   4.137   1.249  0.3985  0.9451 -0.1882
 2708SOL     OW10130   1.521   0.651   1.496  0.1919 -0.4972  0.0892
 2708SOL    HW110131   1.570   0.723   1.456  1.1187 -1.1167  0.0602
 2708SOL    HW210132   1.445   0.639   1.440  0.2198  0.2268 -0.1061
 2709SOL     OW10133   0.619   9.779   0.804  0.2312 -0.4307  0.0212
 2709SOL    HW110134   0.610   9.849   0.869 -1.3444  0.3496 -0.9881
 2709SOL    HW210135   0.663   9.821   0.730 -0.2406 -0.6436 -0.3842
 2710SOL     OW10136   4.888   7.798   3.973 -0.4424 -0.6150  0.0333
 2710SOL    HW110137   4.929   7.865   3.918  2.0378 -1.3775  0.8223
 2710SOL    HW210138   4.922   7.715   3.940 -1.7061 -1.3346  0.4783
 2711SOL     OW10139   3.069   3.766   5.269  0.6030 -0.0483  0.3887
 2711SOL    HW110140   3.032   3.680   5.251  0.7183 -0.3511  1.5027
 2711SOL    HW210141   3.080   3.806   5.183  0.3264 -1.0524 -0.1324
 2712SOL     OW10142   0.523   5.956   2.986  0.3980 -0.1693  0.2347
 2712SOL    HW110143   0.517   5.911   3.070  0.3531  1.7293  1.3247
 2712SOL    HW210144   0.492   5.893   2.922 -2.3053 -0.7918  1.9786
 2713SOL     OW10145   0.337   5.297   3.319  0.4579 -0.0147 -0.3848
 2713SOL    HW110146   0.403   5.247   3.366  2.0054  0.4275 -1.9625
 2713SOL    HW210147   0.369   5.387   3.321 -0.2194  0.2557 -0.9978
 2714SOL     OW10148   4.740   6.634   5.871 -0.8136  0.3229 -0.1952
 2714SOL    HW110149   4.664   6.578   5.859 -1.4888  1.3531 -0.8492
 2714SOL    HW210150   4.813   6.582   5.836 -1.0947 -0.8529  0.8440
 2715SOL     OW10151   1.520  10.286   7.141  0.1251  0.1905 -0.0069
 2715SOL    HW110152   1.473  10.211   7.105  0.3908 -0.2042  0.4560
 2715SOL    HW210153   1.545  10.259   7.229 -1.0719  1.3854  0.7305
 2716SOL     OW10154   6.913   7.156   2.584 -0.4232  0.8691  0.0875
 2716SOL    HW110155   7.003   7.124   2.586 -0.6906 -0.0494 -1.2125
 2716SOL    HW210156   6.896   7.186   2.673  0.9069  0.3579  0.5418
 2717SOL     OW10157  11.279   2.118   3.117  0.2256 -0.1154 -0.3579
 2717SOL    HW110158  11.233   2.034   3.125  1.0722 -0.4903  1.1109
 2717SOL    HW210159  11.367   2.100   3.152 -0.3656  1.9497  2.5913
 2718SOL     OW10160   9.601   1.231   4.736 -0.5498  0.5076 -0.3647
 2718SOL    HW110161   9.681   1.265   4.776  1.2445  0.1726 -3.3447
 2718SOL    HW210162   9.537   1.302   4.744  1.3431  2.4252 -1.4918
 2719SOL     OW10163   8.937   5.270   7.368 -0.2405 -0.2392  0.1507
 2719SOL    HW110164   8.852   5.226   7.367 -0.7626  0.6230  2.1208
 2719SOL    HW210165   8.916   5.363   7.374  0.8448  0.0014  0.4984
 2720SOL     OW10166   9.361   0.287   7.487 -0.0442  0.3392 -0.0922
 2720SOL    HW110167   9.356   0.234   7.567  0.7284 -2.0903 -1.5463
 2720SOL    HW210168   9.398   0.370   7.516 -0.3859 -0.2240  2.1656
 2721SOL     OW10169  10.419   8.611   3.747  0.1419 -1.2941 -0.0222
 2721SOL    HW110170  10.461   8.594   3.831  0.6149  3.3160  0.9317
 2721SOL    HW210171  10.358   8.538   3.736  1.3720 -3.0514  3.3785
 2722SOL     OW10172   8.122   7.760   8.176  0.1320 -0.1275 -0.1041
 2722SOL    HW110173   8.030   7.734   8.181 -0.1579  0.9076  0.3448
 2722SOL    HW210174   8.135   7.816   8.253  1.3696 -0.9514  0.3089
 2723SOL     OW10175   7.620   0.800   5.549  0.9950  0.9288  0.2513
 2723SOL    HW110176   7.585   0.890   5.553  3.0995  1.8197 -0.1770
 2723SOL    HW210177   7.678   0.800   5.473 -0.1698 -1.3144 -0.7398
 2724SOL     OW10178   9.541   8.816   0.091  0.2258  0.4546  0.1956
 2724SOL    HW110179   9.500   8.767   0.162 -0.5335 -0.0945 -0.5982
 2724SOL    HW210180   9.471   8.870   0.056  0.2702 -0.1934 -0.9217
 2725SOL     OW10181   5.302   5.327   1.873  0.0386  0.3978  0.5566
 2725SOL    HW110182   5.248   5.302   1.948 -1.2945  0.7119 -0.2598
 2725SOL    HW210183   5.390   5.296   1.895 -0.5128 -0.3369  1.8347
 2726SOL     OW10184   9.318   5.915   6.182  0.0926 -1.0068  0.1851
 2726SOL    HW110185   9.370   5.985   6.142  1.0606 -0.9970  1.3999
 2726SOL    HW210186   9.228   5.938   6.162  0.4571 -0.0523 -0.4467
 2727SOL     OW10187   3.754   7.312   1.621 -0.0149  1.3693 -0.0446
 2727SOL    HW110188   3.784   7.346   1.706  0.5214 -1.1205  0.8352
 2727SOL    HW210189   3.661   7.336   1.618 -0.0498  1.5062  1.2467
 2728SOL     OW10190   6.322   2.995   8.324  0.3324 -0.0088  0.4310
 2728SOL    HW110191   6.356   3.057   8.259  0.3201 -0.9141 -0.4572
 2728SOL    HW210192   6.244   2.959   8.284  0.2039 -0.4237  1.0453
 2729SOL     OW10193   6.694   4.360   9.750  0.1594  0.2030 -0.2201
 2729SOL    HW110194   6.612   4.378   9.704 -0.8758 -3.1174  0.0313
 2729SOL    HW210195   6.736   4.446   9.760 -3.7702  2.2276  0.6378
 2730SOL     OW10196   3.523   2.961   1.978  0.9869  0.5490  0.4664
 2730SOL    HW110197   3.619   2.966   1.979  1.1041 -1.0108 -0.2579
 2730SOL    HW210198   3.504   2.868   1.984 -0.4719  0.7847 -0.1467
 2731SOL     OW10199   9.101   6.769   7.814  0.9344  0.0434 -0.2958
 2731SOL    HW110200   9.058   6.822   7.746 -0.0774  0.5781  0.7202
 2731SOL    HW210201   9.092   6.821   7.894  2.9209 -0.1481  0.1020
 2732SOL     OW10202   5.302   7.145   1.917 -0.6633 -0.6224  0.4652
 2732SOL    HW110203   5.245   7.221   1.904  0.4321  0.1555  0.0782
 2732SOL    HW210204   5.258   7.074   1.870 -0.1178  0.5529 -2.0164
 2733SOL     OW10205   5.459   2.626   5.916 -0.0294 -0.2718 -0.3877
 2733SOL    HW110206   5.464   2.666   5.829 -1.6777 -1.4041 -1.0574
 2733SOL    HW210207   5.503   2.688   5.974  2.4274 -0.1636 -2.2110
 2734SOL     OW10208   7.730   0.251   7.597  0.4647  0.2217  0.3687
 2734SOL    HW110209   7.650   0.248   7.650  0.2332  0.8398  0.0537
 2734SOL    HW210210   7.800   0.267   7.661  0.4790 -1.3499  0.7794
 2735SOL     OW10211  10.832   1.385   7.558 -0.1024  0.8017  0.3026
 2735SOL    HW110212  10.737   1.390   7.552 -0.1160  1.2838  0.7872
 2735SOL    HW210213  10.864   1.411   7.472 -0.4553 -2.6791 -1.0255
 2736SOL     OW10214   1.543   0.199   1.464  0.1824  0.1289  1.1159
 2736SOL    HW110215   1.452   0.172   1.460 -0.2257  1.4291  1.0852
 2736SOL    HW210216   1.590   0.123   1.498 -1.0343 -0.2790  1.9238
 2737SOL     OW10217   1.190   1.095   8.739  0.4232  0.0899 -0.1484
 2737SOL    HW110218   1.206   1.063   8.650 -2.7145  1.6835 -1.3937
 2737SOL    HW210219   1.132   1.170   8.729  1.9355  1.9466  3.1373
 2738SOL     OW10220  10.847   8.315   5.505  0.1134 -0.1008  0.0098
 2738SOL    HW110221  10.838   8.223   5.531  2.5301 -0.4631 -0.2436
 2738SOL    HW210222  10.906   8.353   5.571 -0.7498  1.2708  0.0442
 2739SOL     OW10223   2.738   2.591   8.512 -0.5156  0.1667 -0.1765
 2739SOL    HW110224   2.749   2.498   8.490 -0.6355  0.2302 -0.5024
 2739SOL    HW210225   2.812   2.634   8.469 -1.0356  0.3589 -0.8859
 2740SOL     OW10226   5.380   6.501  10.980 -0.2414  0.6845 -0.8272
 2740SOL    HW110227   5.290   6.495  11.010  0.0312  1.8138  0.2972
 2740SOL    HW210228   5.373   6.512  10.885 -1.2641  0.5368 -0.7784
 2741SOL     OW10229   6.122  10.557  10.834  0.0297 -0.3854 -0.1364
 2741SOL    HW110230   6.139  10.651  10.847 -0.5292 -0.1535 -1.0013
 2741SOL    HW210231   6.206  10.515  10.850  0.4540  0.3431 -0.3991
 2742SOL     OW10232   3.587  10.792   7.181  0.1620 -0.5705  0.0927
 2742SOL    HW110233   3.505  10.796   7.131  0.1813 -3.0548 -0.3096
 2742SOL    HW210234   3.644  10.857   7.140 -1.9018  2.0552  1.1234
 2743SOL     OW10235   5.980   6.445   7.724 -0.1209  0.7279  0.1936
 2743SOL    HW110236   5.938   6.465   7.640  0.5505  1.7628  0.0840
 2743SOL    HW210237   6.057   6.394   7.701 -2.0647 -2.6198  0.5036
 2744SOL     OW10238   7.824   1.483   9.204 -0.2196 -0.0832 -0.6166
 2744SOL    HW110239   7.838   1.576   9.225 -3.8207  0.2855  0.8161
 2744SOL    HW210240   7.831   1.439   9.289  1.0269 -1.1202 -1.2270
 2745SOL     OW10241   1.115  10.612   7.113  0.6562  0.0855 -0.4968
 2745SOL    HW110242   1.157  10.563   7.184 -0.2331 -1.0035 -0.6976
 2745SOL    HW210243   1.188  10.655   7.068  1.4580 -0.9577 -0.2436
 2746SOL     OW10244   0.025   0.032   1.595  0.6760 -0.6629  0.6870
 2746SOL    HW110245  -0.062   0.054   1.561  1.3236  0.4710 -0.3056
 2746SOL    HW210246   0.019   0.050   1.689 -0.0956 -0.3935  0.5949
 2747SOL     OW10247   3.391   8.701   2.110 -0.2558  0.3778 -0.2627
 2747SOL    HW110248   3.466   8.748   2.073  0.3520 -1.4757 -1.5001
 2747SOL    HW210249   3.429   8.637   2.170 -0.8468 -0.3895 -0.6821
 2748SOL     OW10250   9.049   9.847   9.292 -0.4594 -0.6135  0.5383
 2748SOL    HW110251   9.074   9.927   9.338  1.8019 -1.3213  0.6641
 2748SOL    HW210252   8.977   9.874   9.235  0.7910  1.7387 -0.0695
 2749SOL     OW10253  10.630  11.048   8.087 -0.1787  0.2937  0.0442
 2749SOL    HW110254  10.600  11.132   8.052 -1.2260 -0.6509 -1.4315
 2749SOL    HW210255  10.719  11.038   8.053 -0.5301  0.2118 -0.8706
 2750SOL     OW10256   1.402   2.319   4.259  0.1816  0.0567  0.0027
 2750SOL    HW110257   1.438   2.230   4.252  1.0435  0.4310 -0.5841
 2750SOL    HW210258   1.480   2.375   4.264 -0.3422  0.7132  1.5434
 2751SOL     OW10259  10.517  10.476   2.762  0.1817  0.8500 -1.2223
 2751SOL    HW110260  10.581  10.481   2.833 -1.3456  0.6804  0.2478
 2751SOL    HW210261  10.535  10.392   2.720 -0.6666 -0.4730  0.8600
 2752SOL     OW10262   4.868   7.936  10.322  0.3279  0.0737 -0.3644
 2752SOL    HW110263   4.780   7.926  10.358  0.6624 -1.4009  0.1033
 2752SOL    HW210264   4.896   7.847  10.301  2.4322  0.2753  1.2559
 2753SOL     OW10265   5.375  11.244   9.620 -0.0693  0.2216 -0.6067
 2753SOL    HW110266   5.317  11.209   9.688 -0.0225 -1.4133 -1.3775
 2753SOL    HW210267   5.411  11.324   9.659 -1.5024  0.3506  0.5499
 2754SOL     OW10268   6.384   7.504  10.485 -0.1876  0.0967  0.1705
 2754SOL    HW110269   6.361   7.411  10.491  0.0971 -0.0980 -1.3212
 2754SOL    HW210270   6.386   7.522  10.391  1.4813  1.1761  0.3752
 2755SOL     OW10271   4.873   5.001   1.836 -0.1627 -0.4579 -0.1554
 2755SOL    HW110272   4.882   5.037   1.747  0.6099 -1.1131 -0.3517
 2755SOL    HW210273   4.857   4.908   1.823 -0.6915 -0.4499  0.3883
 2756SOL     OW10274   8.102   0.871   2.589  0.4772  1.1327 -0.0177
 2756SOL    HW110275   8.173   0.870   2.525  0.1943 -2.4704 -0.4826
 2756SOL    HW210276   8.146   0.859   2.673  0.5348 -0.8313 -0.2794
 2757SOL     OW10277   7.324   7.917   5.808  0.3998 -0.1458  0.3990
 2757SOL    HW110278   7.280   7.995   5.842 -1.0117 -1.0487  0.7127
 2757SOL    HW210279   7.376   7.949   5.734 -0.9414  0.9507 -0.1060
 2758SOL     OW10280   5.355   3.121   4.494  0.0210  0.0855 -0.1163
 2758SOL    HW110281   5.285   3.169   4.450 -2.1489 -1.8894  0.9228
 2758SOL    HW210282   5.357   3.157   4.583  0.8186  0.5977 -0.3372
 2759SOL     OW10283  10.269   3.841  10.243  0.0213  0.0224  0.1436
 2759SOL    HW110284  10.293   3.920  10.290 -0.1581  0.5013 -0.5596
 2759SOL    HW210285  10.283   3.862  10.151  2.5322 -1.6079  0.0439
 2760SOL     OW10286   0.907   8.879   5.831 -0.1689  0.1347  0.1008
 2760SOL    HW110287   0.839   8.892   5.898  1.0367  1.3648  1.1449
 2760SOL    HW210288   0.897   8.787   5.805 -2.0175  0.1921  0.4326
 2761SOL     OW10289   1.009   3.402   4.973  0.2754 -0.4803 -0.9725
 2761SOL    HW110290   0.993   3.308   4.983 -2.0981 -0.2210 -1.6261
 2761SOL    HW210291   1.093   3.407   4.927  1.7933 -2.1412  1.4111
 2762SOL     OW10292   6.858   2.212   5.844 -0.2936  0.7920  0.4241
 2762SOL    HW110293   6.852   2.122   5.876 -0.3303  0.7071  0.1736
 2762SOL    HW210294   6.840   2.266   5.922 -0.2074  0.5859  0.5881
 2763SOL     OW10295   5.242  11.204   1.508 -0.6806  0.3912 -0.1923
 2763SOL    HW110296   5.225  11.111   1.496 -2.4124  0.6182  0.2837
 2763SOL    HW210297   5.285  11.210   1.593 -1.3155  0.0875  0.1587
 2764SOL     OW10298   7.684   8.683   2.173  0.0941 -0.4038 -0.1036
 2764SOL    HW110299   7.666   8.605   2.121  1.0591 -0.5464 -0.2387
 2764SOL    HW210300   7.719   8.746   2.110  1.3816 -0.6169  0.3669
 2765SOL     OW10301   4.659   3.656   5.115 -0.0670  0.0331 -0.0389
 2765SOL    HW110302   4.717   3.641   5.040  0.6003  0.1223  0.4456
 2765SOL    HW210303   4.631   3.569   5.142  0.3140 -0.0548  0.0814
 2766SOL     OW10304   9.331   7.553   5.865  0.0585 -0.2376 -0.0976
 2766SOL    HW110305   9.367   7.570   5.777 -1.1618 -0.7124 -0.7114
 2766SOL    HW210306   9.244   7.517   5.848  0.0803 -0.9957  1.3044
 2767SOL     OW10307   2.401  10.772   9.186  0.5179 -0.4367 -0.4076
 2767SOL    HW110308   2.330  10.718   9.152  1.2978 -1.4394 -0.5030
 2767SOL    HW210309   2.464  10.777   9.114 -0.5989  2.7022 -1.3178
 2768SOL     OW10310   6.127   2.238   5.505  0.0045  0.1311  0.1527
 2768SOL    HW110311   6.201   2.284   5.545 -0.1220 -0.0207  0.5765
 2768SOL    HW210312   6.087   2.302   5.447  0.3202  0.2936  0.1124
 2769SOL     OW10313   4.700   2.366   3.850  0.4721 -0.5175 -0.0008
 2769SOL    HW110314   4.691   2.364   3.945 -0.3704 -0.6912 -0.0730
 2769SOL    HW210315   4.785   2.407   3.834  0.1948  0.4040  0.8089
 2770SOL     OW10316   2.582  10.562   4.055 -0.4393 -0.1327 -0.2421
 2770SOL    HW110317   2.494  10.599   4.044  0.2828  1.6418 -0.3023
 2770SOL    HW210318   2.621  10.565   3.968  0.7210  1.9710  0.2709
 2771SOL     OW10319   8.915   0.368  10.592  0.1546 -0.6208 -0.2137
 2771SOL    HW110320   8.901   0.277  10.618 -1.0732 -0.7815 -1.3373
 2771SOL    HW210321   8.886   0.372  10.500 -1.9266  1.3652  0.4185
 2772SOL     OW10322   6.415   4.310   6.069  0.0291 -0.0260 -0.4560
 2772SOL    HW110323   6.388   4.375   6.134  1.3491  0.5330 -0.4285
 2772SOL    HW210324   6.338   4.256   6.055 -0.9693  1.2821 -0.1502
 2773SOL     OW10325   5.858  10.987   4.151  0.3347  0.5033 -0.1624
 2773SOL    HW110326   5.898  11.061   4.106  2.9847 -0.3178  0.6741
 2773SOL    HW210327   5.867  10.913   4.091  0.5492  0.1981  0.2354
 2774SOL     OW10328   5.356   5.167   0.294 -0.1853  0.5694 -0.1470
 2774SOL    HW110329   5.298   5.094   0.314  1.0147 -0.7246 -1.1820
 2774SOL    HW210330   5.309   5.218   0.228 -0.8226  0.4705  0.2264
 2775SOL     OW10331  10.839   6.631   0.041  0.2197  0.2119  0.1000
 2775SOL    HW110332  10.789   6.666  -0.033 -0.7678  1.6589  1.3825
 2775SOL    HW210333  10.776   6.577   0.089  1.4772 -2.7068 -1.3160
 2776SOL     OW10334   2.349   7.328  10.196 -0.7500  0.3273 -0.2422
 2776SOL    HW110335   2.393   7.276  10.263 -2.5281 -1.5788 -0.4314
 2776SOL    HW210336   2.316   7.405  10.243 -0.0696  0.1245  0.5901
 2777SOL     OW10337   8.813  10.881   9.416 -0.0317  0.3086 -0.8707
 2777SOL    HW110338   8.731  10.842   9.447 -1.0320  2.1194 -1.1589
 2777SOL    HW210339   8.840  10.824   9.344 -0.3908 -0.9760 -0.0404
 2778SOL     OW10340   9.716   3.140   6.556  0.2900 -0.2517 -0.7564
 2778SOL    HW110341   9.765   3.135   6.638  0.2083  0.9508 -0.6103
 2778SOL    HW210342   9.698   3.234   6.545 -1.6361 -0.6057 -1.0058
 2779SOL     OW10343   1.356  10.800   8.150  0.1271 -0.1674  0.8900
 2779SOL    HW110344   1.296  10.813   8.076  1.4983  2.1071  0.0530
 2779SOL    HW210345   1.346  10.880   8.202  3.3307  1.0215 -0.0542
 2780SOL     OW10346   0.878   5.023   2.924 -0.2348 -0.2435  0.4109
 2780SOL    HW110347   0.938   4.949   2.937  0.4734 -0.2374 -2.2166
 2780SOL    HW210348   0.795   4.982   2.898 -0.1714 -0.1461  0.0550
 2781SOL     OW10349   7.972   8.337   4.328 -0.0318  0.2577  0.3284
 2781SOL    HW110350   8.036   8.292   4.273 -0.0070 -2.0070  2.0627
 2781SOL    HW210351   8.013   8.342   4.414 -1.3234  0.7446  0.9495
 2782SOL     OW10352   6.408   8.066   8.199  0.0159 -0.2937 -0.0490
 2782SOL    HW110353   6.324   8.045   8.158 -1.0734  1.3717  1.1754
 2782SOL    HW210354   6.464   8.092   8.127 -0.3003 -2.0386 -0.9628
 2783SOL     OW10355   6.035   2.785   4.059 -0.5970  0.4662  0.0556
 2783SOL    HW110356   6.027   2.777   3.964 -0.4374  1.5240 -0.0568
 2783SOL    HW210357   5.946   2.776   4.092 -0.8836  1.6784 -0.3324
 2784SOL     OW10358   0.086   3.467   4.731 -0.7280 -0.1703  0.9744
 2784SOL    HW110359   0.096   3.383   4.687 -1.9444 -0.0732  0.4720
 2784SOL    HW210360   0.116   3.451   4.820  0.6504 -0.6754  0.4386
 2785SOL     OW10361   4.082   8.444   2.133 -0.8468 -0.1581 -0.3298
 2785SOL    HW110362   4.063   8.359   2.173  0.2287 -0.5372 -0.6038
 2785SOL    HW210363   4.104   8.501   2.207  1.6923 -1.0039 -0.3548
 2786SOL     OW10364  11.248   7.361   0.411  0.7322 -0.0981 -0.1826
 2786SOL    HW110365  11.203   7.421   0.351 -0.2722  0.1673  0.7929
 2786SOL    HW210366  11.177   7.311   0.452  1.4110 -0.4274  0.6158
 2787SOL     OW10367   4.473  10.097   5.491  0.0905  0.4258  0.0221
 2787SOL    HW110368   4.542  10.051   5.539  0.7981 -0.2091 -1.5248
 2787SOL    HW210369   4.392  10.070   5.533  0.6155 -0.9997  0.1634
 2788SOL     OW10370   8.564   7.411   7.438 -0.4240  0.1644  0.6381
 2788SOL    HW110371   8.638   7.471   7.454 -1.1549  0.8440  1.6164
 2788SOL    HW210372   8.584   7.334   7.490 -0.3732  0.3299  0.8669
 2789SOL     OW10373   8.658  10.357   6.174 -0.0455 -0.2592  0.0799
 2789SOL    HW110374   8.606  10.437   6.178  1.0854  0.5177 -0.3264
 2789SOL    HW210375   8.644  10.315   6.259  0.6220  1.1875  0.9363
 2790SOL     OW10376   1.909   2.099   2.939 -0.1450 -0.1975 -0.8391
 2790SOL    HW110377   1.988   2.141   2.971 -0.9144  0.5215  0.1866
 2790SOL    HW210378   1.847   2.172   2.925 -1.5570 -0.9449  1.1188
 2791SOL     OW10379   2.123   6.450   2.397  0.2159  0.0787 -0.3806
 2791SOL    HW110380   2.189   6.452   2.466  0.3731  1.2388 -0.5442
 2791SOL    HW210381   2.076   6.368   2.411  1.3076 -0.4859  0.0933
 2792SOL     OW10382   9.015   1.662   2.625  0.7249 -0.7597 -0.3481
 2792SOL    HW110383   9.032   1.611   2.705 -0.5545 -1.1270 -0.2920
 2792SOL    HW210384   9.101   1.695   2.599  1.2368 -1.0562  0.8998
 2793SOL     OW10385   7.631   4.241   2.569  0.3916  0.4031 -0.6642
 2793SOL    HW110386   7.547   4.202   2.545  0.9059 -1.6414  0.5908
 2793SOL    HW210387   7.685   4.166   2.595  1.6353  1.9294  1.4168
 2794SOL     OW10388   8.621   5.164  10.943  0.7438  0.2766  0.4880
 2794SOL    HW110389   8.634   5.218  10.864 -0.4645  0.1592  0.1968
 2794SOL    HW210390   8.547   5.204  10.988  1.3579  0.2762  1.5288
 2795SOL     OW10391   5.827   1.768  11.155  0.2036 -0.9654 -0.4494
 2795SOL    HW110392   5.849   1.688  11.108 -0.0482 -1.3365  0.0571
 2795SOL    HW210393   5.865   1.756  11.242  0.5251 -0.3516 -0.4966
 2796SOL     OW10394   0.006   3.316   6.322  0.1342  0.3120 -0.0739
 2796SOL    HW110395  -0.074   3.275   6.290 -1.5419  2.2658  1.3608
 2796SOL    HW210396   0.009   3.402   6.278  2.2902 -0.2733 -1.2385
 2797SOL     OW10397   3.559   2.328   1.484  0.5517 -0.1744  0.2324
 2797SOL    HW110398   3.521   2.255   1.533  0.3734 -0.8391 -0.8386
 2797SOL    HW210399   3.549   2.404   1.541  3.2138 -1.4006  2.5946
 2798SOL     OW10400   9.131   7.041   0.966 -0.2667  0.1712  0.7391
 2798SOL    HW110401   9.193   7.006   1.030  1.1010 -0.3288 -0.7956
 2798SOL    HW210402   9.097   6.964   0.921 -1.6192  0.4805  1.1710
 2799SOL     OW10403   0.778   5.554   3.550 -0.2778  0.0034 -0.4069
 2799SOL    HW110404   0.722   5.478   3.531  0.5021 -0.4593 -0.9151
 2799SOL    HW210405   0.724   5.611   3.605 -0.9886 -0.7684 -0.2920
 2800SOL     OW10406   2.340   1.282   1.462 -0.0238 -0.2090 -0.2325
 2800SOL    HW110407   2.318   1.300   1.371 -0.2902 -0.2343 -0.1728
 2800SOL    HW210408   2.436   1.273   1.462  0.2184  1.8287 -0.1639
 2801SOL     OW10409   4.384   4.063   4.560 -0.0352  0.0717  0.1453
 2801SOL    HW110410   4.400   4.094   4.471  0.9865  0.9537  0.6094
 2801SOL    HW210411   4.293   4.085   4.577 -0.4308 -0.6866 -0.8950
 2802SOL     OW10412   0.250   7.089   3.619 -0.0548 -0.0129  0.3512
 2802SOL    HW110413   0.207   7.011   3.653 -0.7256  0.1521 -0.0989
 2802SOL    HW210414   0.324   7.056   3.568  0.7842 -0.2727  1.6857
 2803SOL     OW10415   8.421   4.958   0.820 -0.5176  0.1620  0.5794
 2803SOL    HW110416   8.374   5.028   0.865 -1.1987  0.0608  0.0489
 2803SOL    HW210417   8.375   4.948   0.736  0.8697  0.5239 -0.2652
 2804SOL     OW10418   7.746   0.400  11.278 -0.2313  0.5363 -0.0508
 2804SOL    HW110419   7.786   0.480  11.244  0.1777  0.7658  0.9362
 2804SOL    HW210420   7.805   0.372  11.347 -1.0060  0.0452  0.4206
 2805SOL     OW10421   4.692   1.311   5.439 -0.0458  0.0604  0.0967
 2805SOL    HW110422   4.698   1.224   5.478  0.9173 -0.5401 -1.3068
 2805SOL    HW210423   4.601   1.337   5.450 -1.6917 -3.1738 -3.5741
 2806SOL     OW10424   8.838   2.532   4.822 -0.1268  0.0909  0.0035
 2806SOL    HW110425   8.886   2.604   4.781 -1.0191  0.4273 -0.4892
 2806SOL    HW210426   8.790   2.574   4.894 -0.2238 -0.1137  0.0582
 2807SOL     OW10427   2.248  10.870   5.479 -0.4596 -0.2651  0.2307
 2807SOL    HW110428   2.221  10.858   5.570 -1.1324 -1.7261 -0.1204
 2807SOL    HW210429   2.207  10.952   5.452 -1.5307 -0.5950  0.8061
 2808SOL     OW10430  10.245  11.223   9.346  0.5414  0.1179 -0.0636
 2808SOL    HW110431  10.152  11.243   9.353  0.6715  0.3685  1.1940
 2808SOL    HW210432  10.289  11.303   9.376  1.1330 -0.5278  0.8325
 2809SOL     OW10433   6.580   1.514   9.076  0.1486  0.0165 -0.1657
 2809SOL    HW110434   6.672   1.496   9.054 -0.0456 -0.2049 -0.8343
 2809SOL    HW210435   6.550   1.435   9.120  0.3302  0.1622  0.2221
 2810SOL     OW10436   2.898   5.370  11.057  0.1135  0.4829 -0.0578
 2810SOL    HW110437   2.876   5.321  11.137  0.3314 -0.1163 -0.3630
 2810SOL    HW210438   2.858   5.456  11.071  1.2502  0.8441  1.2759
 2811SOL     OW10439   7.074   4.484   4.288  0.4868 -0.4967  0.3688
 2811SOL    HW110440   7.023   4.499   4.368 -2.3555  1.1373 -1.5646
 2811SOL    HW210441   7.031   4.410   4.246  0.4377  0.1320 -0.7244
 2812SOL     OW10442   2.171   4.607   0.188 -0.0739 -0.3185 -0.0789
 2812SOL    HW110443   2.216   4.572   0.265  1.9667 -1.2346 -1.6045
 2812SOL    HW210444   2.123   4.532   0.153  0.3914 -0.3532 -0.6489
 2813SOL     OW10445   6.450   0.162   7.363 -0.0814  0.1657 -0.2261
 2813SOL    HW110446   6.502   0.113   7.426  1.0300 -0.0116 -1.2440
 2813SOL    HW210447   6.414   0.096   7.304 -1.0628  0.3302  0.1747
 2814SOL     OW10448   7.018   0.932   1.365  0.6166 -0.3275 -0.3539
 2814SOL    HW110449   6.990   0.985   1.291 -1.3428 -0.1577  0.4369
 2814SOL    HW210450   7.090   0.981   1.405  1.4897 -0.2771 -1.9139
 2815SOL     OW10451   2.153   1.187   2.178 -0.2152  0.2186 -0.2985
 2815SOL    HW110452   2.240   1.147   2.172  1.2280  2.9033  0.5741
 2815SOL    HW210453   2.111   1.143   2.252  1.0164 -0.1399  0.2172
 2816SOL     OW10454   0.979   4.982  10.641 -0.5755 -0.4360  0.2069
 2816SOL    HW110455   0.955   4.997  10.732  0.5071 -1.0722  0.6186
 2816SOL    HW210456   0.943   4.895  10.621 -1.0177 -0.1985 -0.0624
 2817SOL     OW10457   5.865   8.397   4.261  0.2350 -0.3625 -0.4757
 2817SOL    HW110458   5.945   8.443   4.235 -0.1266  0.4706 -0.1541
 2817SOL    HW210459   5.879   8.376   4.354  0.4359 -1.0023 -0.6433
 2818SOL     OW10460   4.976   5.259   8.451 -0.3902 -0.0529 -0.7764
 2818SOL    HW110461   4.955   5.176   8.494 -2.2521  0.4182 -0.7027
 2818SOL    HW210462   4.967   5.241   8.358 -0.3184 -0.0551 -0.7828
 2819SOL     OW10463   4.885   4.681   4.888 -0.5326 -0.5642  0.3849
 2819SOL    HW110464   4.899   4.587   4.900  3.0558 -0.0054  1.9703
 2819SOL    HW210465   4.794   4.689   4.859 -0.6303 -4.5636 -0.9186
 2820SOL     OW10466   6.403   8.618   3.260  0.5357 -0.6715 -0.2840
 2820SOL    HW110467   6.434   8.590   3.346  2.5773 -1.3094 -1.1674
 2820SOL    HW210468   6.319   8.572   3.249 -1.6111  2.0610  2.6958
 2821SOL     OW10469   4.225   8.867   6.928  0.1448 -0.0407 -0.1635
 2821SOL    HW110470   4.180   8.859   6.844  1.3076  1.4288 -0.9827
 2821SOL    HW210471   4.215   8.960   6.951  1.3736 -0.0316  0.4072
 2822SOL     OW10472   0.158   0.634   7.161  0.1636  0.4638  1.0590
 2822SOL    HW110473   0.132   0.720   7.126  1.0054  0.5796  0.7015
 2822SOL    HW210474   0.153   0.575   7.085 -1.9684 -0.1794  1.6257
 2823SOL     OW10475   2.164   6.786   9.399 -0.1606 -0.1127 -1.2797
 2823SOL    HW110476   2.243   6.763   9.447 -0.4694  0.7719 -0.3089
 2823SOL    HW210477   2.096   6.728   9.434 -0.5251  0.9541 -0.1650
 2824SOL     OW10478   1.362   0.021   3.110  0.4763 -0.1772 -0.3321
 2824SOL    HW110479   1.280  -0.028   3.118  1.7371 -2.3322  0.0779
 2824SOL    HW210480   1.342   0.107   3.147 -0.9955 -1.4105  1.9585
 2825SOL     OW10481   6.517   9.628   9.400 -0.5648 -0.0909  0.1195
 2825SOL    HW110482   6.594   9.628   9.343 -0.5572 -0.8854  0.1260
 2825SOL    HW210483   6.549   9.663   9.483 -0.0881 -0.9085  0.2853
 2826SOL     OW10484  10.674   9.344   8.269 -0.7890 -0.0475  0.7814
 2826SOL    HW110485  10.596   9.397   8.283 -0.1161  1.8612 -2.0324
 2826SOL    HW210486  10.653   9.289   8.194  0.6807  0.8748 -0.3638
 2827SOL     OW10487   9.621   1.616   7.996 -0.1065  0.3562  0.5609
 2827SOL    HW110488   9.672   1.689   7.961 -0.6492  0.1275 -0.7549
 2827SOL    HW210489   9.683   1.567   8.051  1.3646 -0.4007 -1.6677
 2828SOL     OW10490  11.247   6.176   8.696  0.0550 -0.0862  0.6997
 2828SOL    HW110491  11.342   6.180   8.683  0.1035 -0.3377  0.9786
 2828SOL    HW210492  11.211   6.206   8.612  0.3781  0.1503  0.6388
 2829SOL     OW10493   9.781   6.754   3.621  0.1807  0.3259 -0.3014
 2829SOL    HW110494   9.732   6.808   3.683  1.1251 -0.0217  0.7711
 2829SOL    HW210495   9.731   6.760   3.539 -0.6916  1.3719  0.2882
 2830SOL     OW10496   9.285   3.440   1.996 -0.2458  0.0872 -0.1532
 2830SOL    HW110497   9.376   3.411   1.990 -0.5298 -0.6497 -1.3337
 2830SOL    HW210498   9.276   3.506   1.928 -0.3443  0.9147  0.6465
 2831SOL     OW10499   2.268   6.010  10.207 -0.4249 -0.4667 -0.1479
 2831SOL    HW110500   2.184   6.006  10.254 -0.9230 -2.4850 -1.1172
 2831SOL    HW210501   2.254   6.074  10.137  0.1586  2.1849  1.9599
 2832SOL     OW10502   6.467   3.821   7.549 -0.4535  0.0369  0.1893
 2832SOL    HW110503   6.439   3.807   7.458  0.2808  0.7537 -0.1603
 2832SOL    HW210504   6.510   3.739   7.574  0.8425  0.4072 -0.6979
 2833SOL     OW10505   8.004  10.760   4.826 -0.1583 -0.8324  0.4233
 2833SOL    HW110506   7.937  10.818   4.790  0.9444  0.6589  0.7224
 2833SOL    HW210507   8.071  10.818   4.861  1.2137 -2.2853  0.3224
 2834SOL     OW10508   6.711   5.799   9.104 -0.3821 -0.8568  0.0292
 2834SOL    HW110509   6.681   5.879   9.147  0.7638 -0.7551  0.6697
 2834SOL    HW210510   6.806   5.801   9.112 -0.1368 -1.0755 -2.1099
 2835SOL     OW10511  10.634   5.361   9.196  0.4172  0.1036  0.0426
 2835SOL    HW110512  10.633   5.437   9.138 -1.0010 -2.1478 -3.1921
 2835SOL    HW210513  10.727   5.339   9.206  0.9484  2.7502  1.9641
 2836SOL     OW10514   9.128   4.200   8.904  0.2519  0.3382 -0.2042
 2836SOL    HW110515   9.211   4.161   8.932 -0.0316  1.0789  1.8057
 2836SOL    HW210516   9.088   4.132   8.850  0.4366 -1.6216  1.9797
 2837SOL     OW10517   3.013   4.180   1.757 -0.3548  0.5055 -0.2518
 2837SOL    HW110518   3.052   4.262   1.726  2.2535 -0.2623  0.7879
 2837SOL    HW210519   3.085   4.117   1.756 -1.3794 -0.8678  2.4130
 2838SOL     OW10520   6.808   6.672   4.086  0.0103  0.3572  0.2654
 2838SOL    HW110521   6.893   6.676   4.043 -1.1946 -1.4638 -2.5060
 2838SOL    HW210522   6.816   6.733   4.160  3.5447  0.5242 -0.1016
 2839SOL     OW10523   7.970  10.294   3.077  0.9677  0.5370  0.4016
 2839SOL    HW110524   7.945  10.269   3.165 -1.7938 -2.1794 -0.9998
 2839SOL    HW210525   7.929  10.380   3.064 -2.4557 -0.9402  0.4191
 2840SOL     OW10526   4.426   5.589   1.123 -0.4774  0.7385  0.2535
 2840SOL    HW110527   4.479   5.663   1.154 -0.8973  0.6288  1.2791
 2840SOL    HW210528   4.398   5.614   1.036  0.1446  1.3878  0.2305
 2841SOL     OW10529   3.361   3.909   8.988  0.4811 -0.2714 -0.2324
 2841SOL    HW110530   3.446   3.873   9.014  0.5985  2.1551  3.6058
 2841SOL    HW210531   3.372   4.004   8.995 -2.0687  0.2138 -1.5380
 2842SOL     OW10532  10.437   1.551   9.524  0.0825 -0.2547  0.1671
 2842SOL    HW110533  10.449   1.637   9.564  0.9822 -0.1852 -0.2072
 2842SOL    HW210534  10.506   1.497   9.563 -0.1625 -0.6719  0.0307
 2843SOL     OW10535   3.470   6.252   2.606 -0.1075 -0.0545  0.2359
 2843SOL    HW110536   3.554   6.260   2.652 -0.3192  0.0213  0.6073
 2843SOL    HW210537   3.425   6.181   2.650  0.9031 -2.0383 -1.7380
 2844SOL     OW10538   5.169   5.351   8.578 -0.0812 -0.3817 -0.3693
 2844SOL    HW110539   5.166   5.446   8.592 -0.8810 -0.3231 -0.8781
 2844SOL    HW210540   5.087   5.331   8.533 -0.4965 -1.4951  0.8220
 2845SOL     OW10541  10.074   8.644   8.600  0.4741  0.2518 -0.5479
 2845SOL    HW110542  10.167   8.669   8.591 -0.1359  2.3036 -2.0258
 2845SOL    HW210543  10.047   8.621   8.511 -1.3572  3.6081 -1.0171
 2846SOL     OW10544   5.574   0.956   6.876 -0.1203 -0.7668 -0.7177
 2846SOL    HW110545   5.646   0.979   6.935  0.7108 -0.2841 -1.8831
 2846SOL    HW210546   5.556   0.864   6.894 -1.7408  0.0101  2.2007
 2847SOL     OW10547   8.133   4.151   1.339 -0.0045  0.4374 -0.3562
 2847SOL    HW110548   8.085   4.194   1.268 -1.3303  0.7075  0.6697
 2847SOL    HW210549   8.144   4.220   1.405 -1.6767 -0.5701  1.0770
 2848SOL     OW10550   9.777   6.431   5.438 -0.0000 -0.7054  0.4053
 2848SOL    HW110551   9.811   6.511   5.479  0.1515 -0.9849  0.8306
 2848SOL    HW210552   9.766   6.370   5.511 -0.4070 -0.9702  0.1219
 2849SOL     OW10553   3.425   7.837   7.873 -0.7428 -0.0072 -0.4555
 2849SOL    HW110554   3.408   7.911   7.931 -2.9147 -1.7811  1.3192
 2849SOL    HW210555   3.521   7.835   7.863 -0.3075  0.5957  2.7782
 2850SOL     OW10556   9.723  10.497   0.062 -0.2864  0.3257  0.3045
 2850SOL    HW110557   9.817  10.514   0.068  0.3648 -2.7999  0.4123
 2850SOL    HW210558   9.682  10.577   0.096  2.3675  0.7226  2.9357
 2851SOL     OW10559   1.081   5.048   1.980 -0.1717 -0.1398  0.1511
 2851SOL    HW110560   1.097   5.137   1.948  0.8164 -0.7032 -1.0156
 2851SOL    HW210561   1.129   5.043   2.063  2.0415 -0.3572 -1.0645
 2852SOL     OW10562   7.415   0.272   4.275 -0.4633 -0.2530  0.4243
 2852SOL    HW110563   7.358   0.323   4.217  0.8780  2.0858  1.0425
 2852SOL    HW210564   7.503   0.283   4.239  0.0045 -1.3978  1.1321
 2853SOL     OW10565  10.843   5.948   0.086  0.5118  0.1363 -0.3964
 2853SOL    HW110566  10.933   5.953   0.052  0.3923  3.0898 -0.5368
 2853SOL    HW210567  10.788   5.969   0.010 -0.1295  0.8970  0.2652
 2854SOL     OW10568   4.088   9.982  10.909  0.2885 -0.1466 -0.8643
 2854SOL    HW110569   4.017  10.039  10.938 -0.4685 -2.0136  1.3088
 2854SOL    HW210570   4.067   9.961  10.818 -1.1974  0.4102 -0.6753
 2855SOL     OW10571   8.545   0.506   4.645  0.1796 -0.4460 -0.2687
 2855SOL    HW110572   8.609   0.569   4.677 -0.0679 -1.2756  2.0637
 2855SOL    HW210573   8.471   0.514   4.706  0.2856 -3.1637  0.3652
 2856SOL     OW10574   4.610   4.766   9.155  0.0373 -0.4177 -0.4402
 2856SOL    HW110575   4.660   4.786   9.077  0.7040  1.7829  0.4707
 2856SOL    HW210576   4.670   4.785   9.228 -1.0111 -1.0362  0.6254
 2857SOL     OW10577  10.529   5.485   4.928 -0.1738  0.1679 -0.0294
 2857SOL    HW110578  10.580   5.438   4.994 -1.6849 -0.7405  0.5714
 2857SOL    HW210579  10.537   5.577   4.951  2.1380  0.1850 -0.6953
 2858SOL     OW10580   7.248   7.028  11.063  0.3072  0.0410  0.2906
 2858SOL    HW110581   7.242   7.113  11.107 -2.1745  0.1801 -0.1445
 2858SOL    HW210582   7.182   7.032  10.993  2.7106 -0.9121 -2.2281
 2859SOL     OW10583   2.184   0.697   0.420 -0.5477 -0.4586 -0.0037
 2859SOL    HW110584   2.225   0.698   0.333 -1.1069 -1.2231 -0.2865
 2859SOL    HW210585   2.091   0.711   0.403 -0.6189 -0.2892  0.5021
 2860SOL     OW10586   6.580   9.356   3.346  0.1346  0.1071 -0.4626
 2860SOL    HW110587   6.549   9.266   3.357 -0.7742  0.3214 -1.1543
 2860SOL    HW210588   6.593   9.388   3.436  1.1261 -0.9220 -0.2239
 2861SOL     OW10589   7.264   3.644   6.933 -0.3555 -0.6818 -0.4990
 2861SOL    HW110590   7.200   3.574   6.949  0.9365 -1.6939  0.5413
 2861SOL    HW210591   7.256   3.663   6.840 -1.0104 -1.9731 -0.7373
 2862SOL     OW10592   6.083  10.964   6.699 -0.2185 -0.2076  0.2635
 2862SOL    HW110593   6.108  10.885   6.651 -1.3036  0.3236 -1.2896
 2862SOL    HW210594   6.103  10.945   6.790  1.5771 -1.4386 -0.3342
 2863SOL     OW10595   4.553  10.547   5.585  0.2159  0.2588  0.5445
 2863SOL    HW110596   4.469  10.528   5.542  0.5492 -3.2194  1.1905
 2863SOL    HW210597   4.534  10.623   5.640 -3.2815 -1.6774  2.4141
 2864SOL     OW10598   9.299   4.644   6.782  0.1676  0.2008  0.4804
 2864SOL    HW110599   9.366   4.622   6.717 -0.7099  0.1039 -0.3997
 2864SOL    HW210600   9.297   4.568   6.841  2.7905  1.3226  2.2337
 2865SOL     OW10601   0.755   5.422   2.553  0.3462 -0.3017  0.6472
 2865SOL    HW110602   0.799   5.353   2.603  0.0057  0.2398  1.7255
 2865SOL    HW210603   0.675   5.381   2.522  1.1861 -1.0481 -0.6309
 2866SOL     OW10604   1.358   1.534   2.290  0.2458 -0.3552  0.3245
 2866SOL    HW110605   1.435   1.550   2.345  0.6575 -0.4498 -0.2079
 2866SOL    HW210606   1.371   1.445   2.257 -0.3533 -0.5593  0.6322
 2867SOL     OW10607   2.435   3.920   0.440  0.6919 -0.6284 -0.2500
 2867SOL    HW110608   2.472   3.975   0.371 -0.1602 -1.1510 -1.1492
 2867SOL    HW210609   2.384   3.981   0.493 -1.1564 -0.6411 -1.8803
 2868SOL     OW10610   1.783   9.591   4.176  0.0267 -0.4500 -0.4981
 2868SOL    HW110611   1.690   9.574   4.163  0.0940 -0.1206 -1.5386
 2868SOL    HW210612   1.794   9.684   4.155  0.6944 -0.6389 -1.0372
 2869SOL     OW10613   7.350   4.109  11.083 -0.4789 -0.1751  0.1613
 2869SOL    HW110614   7.256   4.120  11.070 -0.7005 -0.8230  1.0430
 2869SOL    HW210615   7.384   4.198  11.094 -0.5994  0.2414 -2.3399
 2870SOL     OW10616   4.290   2.723   0.053  0.6337  0.4365 -0.2266
 2870SOL    HW110617   4.279   2.669  -0.025 -0.1366  0.0904  0.1197
 2870SOL    HW210618   4.302   2.812   0.018 -0.1653  0.3597 -0.7314
 2871SOL     OW10619   9.338   0.235   8.038 -0.5350  0.5872 -0.4829
 2871SOL    HW110620   9.431   0.237   8.013 -0.3929 -1.0575 -0.1935
 2871SOL    HW210621   9.295   0.189   7.966 -0.4346 -2.4132  1.2375
 2872SOL     OW10622   7.886   5.132   8.638  1.3746 -0.2608  0.0524
 2872SOL    HW110623   7.867   5.120   8.546  0.2206  1.2831  0.0445
 2872SOL    HW210624   7.905   5.226   8.647  0.4813 -0.1755  1.5229
 2873SOL     OW10625   0.618   1.254   3.762 -0.3749 -0.4783 -0.4594
 2873SOL    HW110626   0.641   1.330   3.708 -1.0629 -0.3809 -0.6363
 2873SOL    HW210627   0.547   1.286   3.818 -0.5342 -0.9353 -0.3968
 2874SOL     OW10628   1.976   8.239   6.337  0.0316  0.1867  0.8295
 2874SOL    HW110629   1.997   8.157   6.380 -0.6799  0.3970  1.6017
 2874SOL    HW210630   1.929   8.213   6.257 -0.3757 -0.1542  1.1772
 2875SOL     OW10631   9.334   1.896   8.494 -0.2466 -0.0579 -0.0135
 2875SOL    HW110632   9.395   1.832   8.457 -1.0999 -0.4669 -0.7490
 2875SOL    HW210633   9.250   1.874   8.455 -1.0785 -0.1250  1.7196
 2876SOL     OW10634   7.557   1.378   1.094  0.0986  0.1981 -0.5007
 2876SOL    HW110635   7.629   1.422   1.138 -0.7690  1.6035 -0.4250
 2876SOL    HW210636   7.595   1.298   1.058  1.2079 -0.1513  1.3329
 2877SOL     OW10637   1.167   3.120   9.915  0.2717  0.5436 -0.4507
 2877SOL    HW110638   1.084   3.129   9.962  0.7707 -0.4697  0.6742
 2877SOL    HW210639   1.145   3.137   9.824 -1.3723 -0.6495 -0.3163
 2878SOL     OW10640  11.216   0.784   1.089 -0.0524  0.1874 -0.0781
 2878SOL    HW110641  11.302   0.802   1.127  0.2671  0.4921 -0.9108
 2878SOL    HW210642  11.233   0.724   1.017 -0.5629  0.0811 -0.1149
 2879SOL     OW10643  10.396   4.215   1.333 -0.5500 -0.7874  0.3699
 2879SOL    HW110644  10.421   4.146   1.395 -1.3600 -0.8352  0.6453
 2879SOL    HW210645  10.471   4.220   1.272  0.9020  0.2271  2.1301
 2880SOL     OW10646  10.599   0.800   3.759  0.6309  0.3866  0.1509
 2880SOL    HW110647  10.690   0.792   3.733  0.6798 -0.9561  0.6724
 2880SOL    HW210648  10.560   0.715   3.736 -0.1853  0.5046  1.0568
 2881SOL     OW10649   5.704   4.268   5.748  0.2806 -0.1617 -0.4557
 2881SOL    HW110650   5.681   4.256   5.656  0.7594 -0.3171 -0.5535
 2881SOL    HW210651   5.693   4.181   5.787 -1.6419  0.2364  0.0297
 2882SOL     OW10652   0.855   8.610   4.719 -0.4227 -0.0288  0.1260
 2882SOL    HW110653   0.867   8.538   4.657  0.7660  1.5111 -1.5084
 2882SOL    HW210654   0.876   8.572   4.805 -1.7069 -2.0906 -0.3965
 2883SOL     OW10655   2.181   7.682   7.469 -0.0073  0.0215  0.1832
 2883SOL    HW110656   2.194   7.589   7.486  0.9705 -0.0680 -0.9042
 2883SOL    HW210657   2.087   7.690   7.451 -0.0804 -0.7692  0.1731
 2884SOL     OW10658   5.061   0.526   4.826 -0.8957  0.2407  0.9505
 2884SOL    HW110659   5.031   0.551   4.914 -1.0620  1.3783  0.5910
 2884SOL    HW210660   4.980   0.507   4.778 -0.8505  0.3031  0.8488
 2885SOL     OW10661   5.847   9.181  10.880 -1.0848  0.4686 -0.5651
 2885SOL    HW110662   5.899   9.184  10.800 -0.3294 -1.6918 -0.2192
 2885SOL    HW210663   5.911   9.195  10.950 -1.7163  2.1985 -0.2839
 2886SOL     OW10664   5.738   3.702   9.964  0.3365  0.2143 -0.1690
 2886SOL    HW110665   5.660   3.704   9.909  1.8348 -1.4429 -2.5310
 2886SOL    HW210666   5.769   3.792   9.965 -0.4364  0.5027 -0.9417
 2887SOL     OW10667   2.619   5.902   8.260 -0.4736 -0.1664  0.1447
 2887SOL    HW110668   2.664   5.895   8.176  0.0398 -3.7522  0.5673
 2887SOL    HW210669   2.664   5.974   8.305  0.2385  0.8319 -2.0101
 2888SOL     OW10670   0.361   8.745   6.196 -0.2358 -0.3218  0.1027
 2888SOL    HW110671   0.415   8.818   6.164 -2.5886  1.2684 -0.5329
 2888SOL    HW210672   0.374   8.745   6.291 -0.6002  1.3136  0.1785
 2889SOL     OW10673   0.254   1.583   1.182 -0.2440  0.6155 -0.4610
 2889SOL    HW110674   0.276   1.498   1.144 -0.8654  0.8203 -1.3131
 2889SOL    HW210675   0.271   1.572   1.276  0.4457 -0.1932 -0.6611
 2890SOL     OW10676   1.251   4.739   4.581 -0.4798  0.3841 -0.1781
 2890SOL    HW110677   1.289   4.755   4.495 -2.3277 -0.2576 -1.1931
 2890SOL    HW210678   1.262   4.821   4.628  1.7559  0.3408 -0.5051
 2891SOL     OW10679   9.140   3.868  10.967 -0.3269 -0.1599  0.0992
 2891SOL    HW110680   9.195   3.791  10.980 -0.1494  0.0626  0.6671
 2891SOL    HW210681   9.104   3.856  10.879  3.0450  1.2047 -1.6407
 2892SOL     OW10682  10.994   5.132   2.815 -0.3426  0.1210  0.3196
 2892SOL    HW110683  10.920   5.131   2.875 -0.7963  2.3938 -0.1011
 2892SOL    HW210684  10.974   5.203   2.754  0.5274 -1.5086 -1.9965
 2893SOL     OW10685   0.461   3.367   7.359 -0.2820  0.6885 -0.3341
 2893SOL    HW110686   0.436   3.299   7.296  0.5561  0.8757 -0.8903
 2893SOL    HW210687   0.485   3.319   7.438  0.7418  0.2905 -0.8705
 2894SOL     OW10688   0.996   8.201   3.614  0.3706  0.4334 -1.7269
 2894SOL    HW110689   1.061   8.272   3.621  0.7527  0.0180 -0.9507
 2894SOL    HW210690   0.917   8.245   3.583  1.4532  0.6938 -4.4326
 2895SOL     OW10691   9.867   6.512  10.670  0.1280 -0.3331 -0.1405
 2895SOL    HW110692   9.804   6.444  10.690  1.1217 -0.7367  1.8538
 2895SOL    HW210693   9.841   6.586  10.725  1.0168 -0.2993  0.2516
 2896SOL     OW10694   3.329   2.823   8.902 -0.4500 -0.2155 -0.4602
 2896SOL    HW110695   3.413   2.790   8.933 -0.7488  0.6158  1.3426
 2896SOL    HW210696   3.277   2.837   8.981 -2.2620 -0.5929 -1.5112
 2897SOL     OW10697   4.231   1.137   1.355 -0.2938 -0.2454 -0.0528
 2897SOL    HW110698   4.180   1.198   1.407 -0.3964  0.9530 -1.4962
 2897SOL    HW210699   4.197   1.050   1.378 -1.0675  0.3352  1.0340
 2898SOL     OW10700   8.317   5.736   7.187  1.0221  0.1165  0.0188
 2898SOL    HW110701   8.336   5.805   7.252  2.1299  1.0036 -1.1819
 2898SOL    HW210702   8.357   5.769   7.106 -0.8071 -0.6958 -1.2725
 2899SOL     OW10703   6.345   9.451   8.614 -0.3677 -0.2328 -0.0523
 2899SOL    HW110704   6.440   9.449   8.624 -0.4313  0.5547  0.9231
 2899SOL    HW210705   6.317   9.360   8.621  0.3094 -0.4667 -0.3521
 2900SOL     OW10706   9.158   6.064   1.678  0.9263 -0.9128 -0.0353
 2900SOL    HW110707   9.088   6.045   1.741  1.2938  0.2171  0.7376
 2900SOL    HW210708   9.112   6.072   1.594 -0.2581  1.9310  0.7673
 2901SOL     OW10709   5.344   3.676   5.501  0.0903  0.3346  0.4278
 2901SOL    HW110710   5.341   3.752   5.443  0.7658 -0.1623 -0.2712
 2901SOL    HW210711   5.386   3.709   5.581 -0.5422  0.9380  0.5190
 2902SOL     OW10712  11.145   3.734   6.160  0.4030 -0.1299 -0.6047
 2902SOL    HW110713  11.084   3.757   6.230 -1.6604  1.1278 -2.6604
 2902SOL    HW210714  11.232   3.747   6.199 -0.6356  0.3090  1.7397
 2903SOL     OW10715   6.423   9.791   8.565  0.5209  0.2324 -1.0012
 2903SOL    HW110716   6.337   9.751   8.556 -0.7462  2.5160  0.0267
 2903SOL    HW210717   6.443   9.825   8.478 -0.2792  0.8354 -0.9701
 2904SOL     OW10718   0.776  11.095  10.265 -0.3661 -0.2496  0.0003
 2904SOL    HW110719   0.698  11.142  10.293 -1.0232 -0.7531 -0.9492
 2904SOL    HW210720   0.811  11.147  10.193  0.0538 -0.1448  0.2748
 2905SOL     OW10721  11.141   7.226   2.514 -0.3238  0.0676  0.1368
 2905SOL    HW110722  11.203   7.175   2.565  0.0135 -2.4677 -2.5462
 2905SOL    HW210723  11.056   7.184   2.530 -0.4093  0.0140 -0.4296
 2906SOL     OW10724   3.167   5.204   3.920 -0.3022 -0.7030  0.1852
 2906SOL    HW110725   3.077   5.198   3.887 -0.3754  0.0481  0.2463
 2906SOL    HW210726   3.185   5.116   3.953 -1.1052 -0.7897  0.4254
 2907SOL     OW10727   0.820   1.102   1.062  0.3034  0.1726 -0.3964
 2907SOL    HW110728   0.729   1.108   1.036 -0.1458  2.0847  1.3743
 2907SOL    HW210729   0.859   1.185   1.036  1.1211  0.0245  0.2919
 2908SOL     OW10730   2.735   8.494   4.041 -0.1888 -0.0315 -0.2122
 2908SOL    HW110731   2.830   8.498   4.037 -0.1094  1.0924  1.5023
 2908SOL    HW210732   2.715   8.505   4.134 -1.9816 -0.5713 -0.4956
 2909SOL     OW10733   3.334   2.406   9.081 -0.1108 -0.3455 -0.8581
 2909SOL    HW110734   3.382   2.323   9.075 -0.2491 -0.4470 -0.5810
 2909SOL    HW210735   3.343   2.432   9.173 -0.1626 -0.1105 -0.9198
 2910SOL     OW10736   8.028   1.128  10.686  0.3366  0.3275 -0.6343
 2910SOL    HW110737   8.003   1.150  10.596 -1.6474 -0.0613 -0.2298
 2910SOL    HW210738   8.018   1.033  10.691 -0.8598  0.4746  0.3234
 2911SOL     OW10739   4.307   2.600   5.242  0.2899  0.0169 -0.2167
 2911SOL    HW110740   4.391   2.556   5.256  1.4614  2.5867  1.5279
 2911SOL    HW210741   4.255   2.579   5.319 -0.0552 -0.2602 -0.5237
 2912SOL     OW10742   2.504   9.580   2.764 -0.0879 -0.3505  0.1822
 2912SOL    HW110743   2.412   9.575   2.738 -0.2442 -2.6599  0.9094
 2912SOL    HW210744   2.502   9.582   2.860  0.6023 -0.4800  0.2089
 2913SOL     OW10745  10.627   7.972   0.374 -0.1102  0.0071  0.4500
 2913SOL    HW110746  10.588   7.922   0.302 -0.0265  1.2885 -0.5353
 2913SOL    HW210747  10.657   7.906   0.436  1.1486 -1.2389 -1.3775
 2914SOL     OW10748   2.971   7.437   7.289 -0.0486  0.1842 -0.7095
 2914SOL    HW110749   2.937   7.408   7.204 -1.3322 -1.9851  0.4596
 2914SOL    HW210750   3.067   7.433   7.279 -0.0498 -4.1430 -0.9453
 2915SOL     OW10751   8.984   6.942   7.666  0.0631 -0.3964 -0.7852
 2915SOL    HW110752   8.964   7.027   7.704  0.2547 -0.5776 -0.2657
 2915SOL    HW210753   8.901   6.911   7.630 -0.5433 -0.9655  0.9909
 2916SOL     OW10754   9.046   2.818   9.697  0.3445  0.4924 -0.9913
 2916SOL    HW110755   9.133   2.787   9.723  0.3755  2.2398  1.3206
 2916SOL    HW210756   9.035   2.900   9.745 -1.9887  1.0964 -2.4284
 2917SOL     OW10757   3.599  10.145   2.406  0.3644 -0.4062 -0.0355
 2917SOL    HW110758   3.590  10.060   2.363  2.0341 -0.2374 -0.8254
 2917SOL    HW210759   3.639  10.125   2.491 -1.1599 -0.5647  0.6739
 2918SOL     OW10760   0.468   8.683   1.985  0.0536  0.6285 -0.1554
 2918SOL    HW110761   0.498   8.762   2.029 -0.7892  1.0629 -0.3322
 2918SOL    HW210762   0.493   8.611   2.043 -0.2009  1.1184  0.5723
 2919SOL     OW10763   3.028   7.077   6.352  0.2161  0.4222  0.2134
 2919SOL    HW110764   2.935   7.072   6.330  0.4210 -1.9345 -0.4127
 2919SOL    HW210765   3.041   7.009   6.418  1.5148  0.6148  0.1859
 2920SOL     OW10766   0.945   7.005   9.169  0.3166 -0.0227 -0.4549
 2920SOL    HW110767   0.971   6.919   9.136  2.9151  1.4774 -2.6988
 2920SOL    HW210768   1.017   7.032   9.225  0.3646  1.3442 -1.1237
 2921SOL     OW10769   8.023  10.024   1.335  0.0948  0.5206  0.0415
 2921SOL    HW110770   7.934   9.995   1.356 -0.5380  3.0401  1.1852
 2921SOL    HW210771   8.079   9.984   1.402 -0.6850  1.5232  1.3341
 2922SOL     OW10772   2.129   7.081  10.646  0.3615 -0.1249 -0.0162
 2922SOL    HW110773   2.126   7.007  10.707  0.1339  0.0180  0.1487
 2922SOL    HW210774   2.140   7.157  10.702 -0.2662  0.0475 -0.1234
 2923SOL     OW10775   5.060   3.916   8.949  0.1940 -0.1996  0.1247
 2923SOL    HW110776   5.063   3.820   8.953  0.5975 -0.2139 -0.3816
 2923SOL    HW210777   5.152   3.943   8.953  0.0111  0.2709  2.2397
 2924SOL     OW10778   1.565  10.048  11.174 -0.1226  0.1118 -0.5370
 2924SOL    HW110779   1.613   9.971  11.145 -2.7374 -1.8148 -0.1772
 2924SOL    HW210780   1.590  10.060  11.266  0.8777  0.2160 -0.8105
 2925SOL     OW10781   1.661   0.470  10.422  0.0163 -0.2399  0.0921
 2925SOL    HW110782   1.631   0.380  10.430  0.3047 -0.2810  0.7667
 2925SOL    HW210783   1.589   0.515  10.378 -0.0048 -0.8565 -0.5241
 2926SOL     OW10784   3.749   4.236   3.656 -0.4442  0.2251 -0.0373
 2926SOL    HW110785   3.760   4.150   3.698 -0.9227 -0.8037 -1.9362
 2926SOL    HW210786   3.827   4.285   3.683  0.2524 -1.0763  0.4142
 2927SOL     OW10787   9.226   3.100   2.585  0.3726  0.0463 -0.1131
 2927SOL    HW110788   9.273   3.029   2.541  0.0402 -1.7814  2.2454
 2927SOL    HW210789   9.288   3.132   2.651  0.2376  1.4485 -0.6485
 2928SOL     OW10790   1.693   8.475   2.460 -0.2732  0.1469 -0.9810
 2928SOL    HW110791   1.725   8.513   2.378  1.4049 -1.5708 -1.1884
 2928SOL    HW210792   1.605   8.444   2.439 -0.1517  0.3883 -1.9033
 2929SOL     OW10793  10.012  10.075   3.119 -0.5585  0.2763 -0.5993
 2929SOL    HW110794  10.050  10.131   3.187  0.3610  0.0777 -0.9355
 2929SOL    HW210795  10.087  10.032   3.078 -1.1929 -0.5783 -0.8984
 2930SOL     OW10796   1.232   2.484  10.427  0.6602 -0.5381 -0.3287
 2930SOL    HW110797   1.175   2.520  10.494  0.8590 -0.0968 -0.3922
 2930SOL    HW210798   1.282   2.416  10.472 -0.4602 -1.4714 -0.4609
 2931SOL     OW10799   9.801   3.932   8.371  0.0560 -0.5240  0.2689
 2931SOL    HW110800   9.801   4.024   8.344  0.1485 -1.0603 -1.7613
 2931SOL    HW210801   9.717   3.899   8.339 -0.9170 -0.7061  2.8051
 2932SOL     OW10802   3.928   3.601   7.099 -0.4237 -0.3719 -0.4537
 2932SOL    HW110803   4.008   3.654   7.104 -1.4246  1.1321  0.8296
 2932SOL    HW210804   3.957   3.511   7.112  0.8900  0.3322  2.3439
 2933SOL     OW10805   7.743   0.147   3.381  1.1141  0.3020  0.6298
 2933SOL    HW110806   7.780   0.075   3.433 -1.0860 -3.3035 -2.3113
 2933SOL    HW210807   7.770   0.129   3.291 -0.9822  2.1614 -0.4797
 2934SOL     OW10808   3.773  11.107   0.607  0.5420  0.2323  0.4951
 2934SOL    HW110809   3.826  11.178   0.571  0.1719 -0.1002 -0.7502
 2934SOL    HW210810   3.684  11.125   0.578  0.5597 -1.1296 -0.5086
 2935SOL     OW10811   4.641   6.805   8.788 -0.0057 -0.4735  0.1591
 2935SOL    HW110812   4.703   6.878   8.783  2.1731 -2.2406 -0.5032
 2935SOL    HW210813   4.590   6.812   8.707 -0.2463  0.6226  0.3857
 2936SOL     OW10814   6.259   0.968   5.603 -0.5550 -0.5233  0.0902
 2936SOL    HW110815   6.226   1.038   5.547  2.1221  1.7123  1.0939
 2936SOL    HW210816   6.229   0.992   5.691  0.2323 -0.7549  0.4249
 2937SOL     OW10817   2.901   5.953   4.890  0.3058 -0.1478  0.4014
 2937SOL    HW110818   2.815   5.913   4.907 -0.2332  1.1481  0.8873
 2937SOL    HW210819   2.890   6.044   4.918  2.6030 -0.5342  2.9009
 2938SOL     OW10820   2.101   3.945   2.586 -0.3038 -0.4278  0.1979
 2938SOL    HW110821   2.153   3.941   2.505  0.9671 -0.7910  0.9953
 2938SOL    HW210822   2.085   4.038   2.600  2.5018 -0.0276  1.3337
 2939SOL     OW10823   5.975   3.074   4.956 -0.5178  0.7611 -0.4806
 2939SOL    HW110824   5.902   3.121   4.916 -1.4425 -0.9125 -0.8455
 2939SOL    HW210825   5.944   3.049   5.042  0.6562  2.3923  0.4695
 2940SOL     OW10826   5.301   6.373   1.335  0.1328 -0.1144  0.0209
 2940SOL    HW110827   5.396   6.384   1.330  0.0377  0.1771 -1.3035
 2940SOL    HW210828   5.279   6.314   1.263 -0.6368 -0.7018  0.7049
 2941SOL     OW10829   2.615   9.364   0.481 -0.3456 -0.3217  0.1538
 2941SOL    HW110830   2.631   9.387   0.572  2.3763  0.3972 -0.4170
 2941SOL    HW210831   2.665   9.428   0.430 -3.5487  0.7032 -1.9958
 2942SOL     OW10832   4.578   7.483   2.354  0.9774  0.7485  0.2770
 2942SOL    HW110833   4.567   7.577   2.335 -1.9922  0.4271 -0.1113
 2942SOL    HW210834   4.643   7.454   2.290 -0.5959  1.9322 -2.0401
 2943SOL     OW10835   7.471   7.252   4.254 -0.1113  1.0855  0.2411
 2943SOL    HW110836   7.474   7.277   4.162 -1.6510  1.1401  0.1785
 2943SOL    HW210837   7.410   7.315   4.294 -1.1798 -0.2615  0.8278
 2944SOL     OW10838   7.734   4.508   4.090 -0.1905 -0.4687 -0.1036
 2944SOL    HW110839   7.772   4.594   4.072  0.1232 -0.5508  0.1459
 2944SOL    HW210840   7.809   4.449   4.089 -0.3392 -0.6621  0.2238
 2945SOL     OW10841   7.621   2.306  10.405  0.3137 -0.3923 -0.1927
 2945SOL    HW110842   7.628   2.211  10.412  2.8537 -0.3195 -0.8496
 2945SOL    HW210843   7.597   2.335  10.493 -3.1203 -1.7254 -0.5176
 2946SOL     OW10844   7.699   7.238   3.427 -0.0863  0.4137  0.8680
 2946SOL    HW110845   7.784   7.218   3.465 -0.4206  0.8865  1.9111
 2946SOL    HW210846   7.636   7.216   3.496 -0.8062  0.2504  0.1851
 2947SOL     OW10847   6.719   4.988   4.819  0.4008 -0.1685  0.2865
 2947SOL    HW110848   6.667   4.966   4.741  1.0335 -0.1964 -0.1387
 2947SOL    HW210849   6.762   4.906   4.843  0.0507 -0.2096  0.7962
 2948SOL     OW10850   2.933   0.878  10.623 -0.2646 -1.1093 -0.1320
 2948SOL    HW110851   2.997   0.865  10.694 -2.9864  0.5922  2.9307
 2948SOL    HW210852   2.944   0.970  10.598  0.5698 -1.6595 -1.9545
 2949SOL     OW10853   1.863   2.962   8.648 -0.3052 -0.5097  0.4857
 2949SOL    HW110854   1.795   2.903   8.679 -1.0270  0.2867  0.4688
 2949SOL    HW210855   1.887   3.014   8.725  1.5315 -1.9077  0.9339
 2950SOL     OW10856   1.314   5.176   2.628  0.3268 -0.0997 -0.2615
 2950SOL    HW110857   1.298   5.217   2.543 -0.7635 -0.7399 -0.3829
 2950SOL    HW210858   1.277   5.237   2.692  1.4817  0.5629 -0.1974
 2951SOL     OW10859   4.521   5.104   5.968  0.0455 -0.5731  0.0607
 2951SOL    HW110860   4.442   5.157   5.983  0.5794  0.0406  0.7542
 2951SOL    HW210861   4.568   5.107   6.051  0.4247 -1.5811 -0.1083
 2952SOL     OW10862   1.578   6.172   0.010  0.4034  0.0871  0.1780
 2952SOL    HW110863   1.606   6.144   0.097 -1.7087 -0.4728  0.7560
 2952SOL    HW210864   1.566   6.267   0.018  2.9248  0.5139 -0.3781
 2953SOL     OW10865   2.300   3.331   3.330  0.0505 -0.4981 -0.6630
 2953SOL    HW110866   2.335   3.414   3.299  0.5462 -0.2414  0.5233
 2953SOL    HW210867   2.314   3.333   3.425 -2.2333 -0.8423 -0.2687
 2954SOL     OW10868   2.567   4.388   2.188 -0.0543 -0.1809 -0.4716
 2954SOL    HW110869   2.540   4.309   2.141  2.8353 -0.5973 -1.6836
 2954SOL    HW210870   2.558   4.459   2.125  1.1210 -0.2730 -0.7828
 2955SOL     OW10871   6.416   8.654   1.372  0.4587  0.5169 -0.5880
 2955SOL    HW110872   6.368   8.577   1.403 -1.4961  1.9434  0.1572
 2955SOL    HW210873   6.400   8.655   1.277  0.7937 -0.1701 -0.6564
 2956SOL     OW10874   0.538   5.339   3.573  0.3930 -0.1385 -0.2948
 2956SOL    HW110875   0.541   5.249   3.542 -0.3232 -0.3839  0.3235
 2956SOL    HW210876   0.466   5.341   3.636  0.8021  0.7185  0.1649
 2957SOL     OW10877   4.799   8.877   5.613 -0.1837 -0.6178 -0.0549
 2957SOL    HW110878   4.761   8.789   5.615  1.7742 -1.6627 -2.5867
 2957SOL    HW210879   4.727   8.934   5.589 -0.7005 -2.2375 -2.7794
 2958SOL     OW10880   6.034   5.837   9.643  0.7303 -0.4659 -0.4344
 2958SOL    HW110881   5.948   5.875   9.663  0.4964 -1.2680  0.1154
 2958SOL    HW210882   6.048   5.859   9.550  1.1222  1.9119  0.1074
 2959SOL     OW10883   4.817  11.099   8.500 -0.2499 -0.2940 -0.3825
 2959SOL    HW110884   4.788  11.170   8.443 -1.1392  0.0821  0.5022
 2959SOL    HW210885   4.912  11.110   8.505 -0.4654  1.5699  0.6267
 2960SOL     OW10886   7.064   4.484   1.168 -0.2293 -0.6614 -0.2442
 2960SOL    HW110887   6.971   4.506   1.160 -0.0918  0.0750  0.0719
 2960SOL    HW210888   7.077   4.413   1.105 -0.8078 -0.1475 -0.9776
 2961SOL     OW10889   6.279   5.379   9.643 -0.5682  0.1549 -0.5240
 2961SOL    HW110890   6.371   5.355   9.637 -0.7233 -0.7579  0.4462
 2961SOL    HW210891   6.239   5.342   9.564 -0.3665 -0.7891 -0.1974
 2962SOL     OW10892   3.961   0.847   4.875  0.4176 -0.5268 -0.2981
 2962SOL    HW110893   4.048   0.857   4.914 -0.0100 -0.5574  0.7129
 2962SOL    HW210894   3.923   0.934   4.879 -0.0759 -0.7683  0.4787
 2963SOL     OW10895   8.202   7.669   5.069 -0.2946 -0.4164  0.2604
 2963SOL    HW110896   8.246   7.645   4.988 -0.5537  1.5564 -0.5319
 2963SOL    HW210897   8.181   7.586   5.111  1.1224 -1.4550 -0.9864
 2964SOL     OW10898  11.157   3.607   5.569 -0.0030  0.4061 -0.2898
 2964SOL    HW110899  11.099   3.682   5.563 -1.4967  0.0627  4.7894
 2964SOL    HW210900  11.240   3.643   5.600  0.0829  0.1908 -0.2639
 2965SOL     OW10901   3.301   5.955   5.849  0.2720  0.0323 -0.0811
 2965SOL    HW110902   3.333   5.985   5.764 -2.1463  0.9948 -0.7190
 2965SOL    HW210903   3.232   6.017   5.872 -0.2523 -1.1812  1.8026
 2966SOL     OW10904   9.171   5.601   9.860  0.1521 -0.3456 -0.2502
 2966SOL    HW110905   9.101   5.537   9.847 -0.9311  0.6042  0.6013
 2966SOL    HW210906   9.139   5.680   9.815 -0.1348  0.6085  1.5312
 2967SOL     OW10907   2.223  11.111   8.134 -0.5881  0.4097 -0.0159
 2967SOL    HW110908   2.193  11.029   8.174 -2.1197  1.6222  1.4388
 2967SOL    HW210909   2.162  11.127   8.063  0.0400  0.0437 -0.6540
 2968SOL     OW10910   4.047   2.425   0.385 -0.3218  0.3663 -0.4634
 2968SOL    HW110911   4.017   2.501   0.336 -0.8473  0.7717  0.4572
 2968SOL    HW210912   3.992   2.424   0.464  0.3403 -0.3996  0.0068
 2969SOL     OW10913   3.040   6.088  10.567 -0.7547  0.0164  0.1490
 2969SOL    HW110914   2.980   6.059  10.637  0.5253 -2.9596  0.1543
 2969SOL    HW210915   3.062   6.008  10.520 -0.3267  1.7063 -2.7628
 2970SOL     OW10916   3.992   4.755   4.835 -0.0332 -0.1302 -0.8065
 2970SOL    HW110917   3.980   4.841   4.796  2.5413 -0.1566 -1.7873
 2970SOL    HW210918   3.992   4.771   4.930 -1.6665  0.5942 -0.8964
 2971SOL     OW10919   4.508   1.218   2.439 -0.6382  0.4110  0.4118
 2971SOL    HW110920   4.589   1.269   2.435 -1.1223  1.1364 -1.3663
 2971SOL    HW210921   4.453   1.264   2.503 -0.0260  0.4952  0.8806
 2972SOL     OW10922   8.268   3.145   2.382  0.2194  0.2150 -0.2363
 2972SOL    HW110923   8.257   3.239   2.367 -1.2369  0.0208 -0.5637
 2972SOL    HW210924   8.290   3.109   2.296  0.7391  0.2386 -0.1183
 2973SOL     OW10925   0.636   9.301   6.639  0.3506 -0.5153  0.1529
 2973SOL    HW110926   0.687   9.343   6.570 -0.7384 -1.5917 -1.3688
 2973SOL    HW210927   0.578   9.241   6.593 -2.2163  0.5186  1.7978
 2974SOL     OW10928   7.640   5.998   7.600  0.1941  0.1638  0.2394
 2974SOL    HW110929   7.601   5.923   7.554 -2.8700  0.9555  1.3376
 2974SOL    HW210930   7.586   6.073   7.574  0.3957  1.2030  2.5823
 2975SOL     OW10931   5.485   1.963   3.337  0.6726  0.3741  0.0718
 2975SOL    HW110932   5.390   1.971   3.327  0.5746 -0.6212  0.0746
 2975SOL    HW210933   5.519   1.963   3.248  0.6665  0.6811  0.0692
 2976SOL     OW10934   5.445   2.339   0.428 -0.0077 -0.0542  0.2424
 2976SOL    HW110935   5.412   2.343   0.518 -1.5143 -0.4969 -0.2603
 2976SOL    HW210936   5.371   2.367   0.374  0.1850 -1.7910 -0.9971
 2977SOL     OW10937  11.198   6.480   4.547  0.4897 -0.8107 -0.1794
 2977SOL    HW110938  11.257   6.427   4.600  0.7197 -1.3256 -0.9345
 2977SOL    HW210939  11.167   6.420   4.479  0.9824  0.1012 -1.2217
 2978SOL     OW10940   9.678   1.797   1.021  0.4408  0.1128  0.4776
 2978SOL    HW110941   9.689   1.747   1.102 -0.7610 -1.8023 -0.4737
 2978SOL    HW210942   9.755   1.854   1.018  1.9179 -1.6792  1.6455
 2979SOL     OW10943  10.071   0.263   0.078 -0.1897  0.1355 -0.0269
 2979SOL    HW110944  10.027   0.344   0.103  1.0396  0.1372  2.4432
 2979SOL    HW210945  10.151   0.262   0.130  0.9762 -1.5879 -1.7016
 2980SOL     OW10946   0.744  10.423  10.387  0.1362 -0.2096  0.2490
 2980SOL    HW110947   0.708  10.511  10.390  0.7606  0.0200  1.1189
 2980SOL    HW210948   0.809  10.420  10.456  0.6107 -1.1463 -0.2098
 2981SOL     OW10949   4.758   1.577   6.206  0.1051 -0.3308  0.0881
 2981SOL    HW110950   4.757   1.544   6.295  1.2985 -0.2998  0.1231
 2981SOL    HW210951   4.720   1.507   6.154  2.3644 -1.7256  0.1938
 2982SOL     OW10952   5.851   9.912   2.889  0.3106  0.6838 -0.3903
 2982SOL    HW110953   5.849   9.965   2.969  0.5297  0.7967 -0.4590
 2982SOL    HW210954   5.825   9.972   2.820  0.6799  0.7355 -0.4865
 2983SOL     OW10955   5.620   4.251   8.699 -0.4827 -0.7062  0.1462
 2983SOL    HW110956   5.627   4.341   8.731  1.6931 -1.0204  0.7698
 2983SOL    HW210957   5.706   4.212   8.720 -0.1483 -1.9650 -3.0578
 2984SOL     OW10958   8.011   9.482   7.892 -0.5254 -0.7061 -0.2149
 2984SOL    HW110959   7.998   9.471   7.798 -0.9978 -1.5510 -0.0582
 2984SOL    HW210960   8.086   9.425   7.912  0.6967  0.7692 -0.3497
 2985SOL     OW10961   0.168  10.237   1.649 -0.6877  0.3805 -0.2679
 2985SOL    HW110962   0.251  10.268   1.686 -0.7290  2.4259 -1.7545
 2985SOL    HW210963   0.191  10.156   1.603  0.2305  0.3232  0.2542
 2986SOL     OW10964   4.653   7.613   9.991 -0.0530 -0.4972  0.0239
 2986SOL    HW110965   4.571   7.612  10.041 -0.5288 -1.3204 -0.7365
 2986SOL    HW210966   4.625   7.627   9.900  0.7957  0.9864 -0.0373
 2987SOL     OW10967  11.056   4.329   1.038  0.5264  0.2180 -0.1477
 2987SOL    HW110968  11.087   4.243   1.012  0.7907  0.7075 -1.5516
 2987SOL    HW210969  10.992   4.312   1.107  0.1057 -1.1371 -0.8410
 2988SOL     OW10970   3.019   2.857   7.118  0.0198 -0.3092  0.3424
 2988SOL    HW110971   3.008   2.897   7.032  1.6294 -0.6971 -0.0603
 2988SOL    HW210972   2.987   2.767   7.107 -2.6701  0.4656  0.9964
 2989SOL     OW10973   7.153   4.908   8.370 -0.0819  0.2650  0.2066
 2989SOL    HW110974   7.225   4.922   8.308 -0.5142  0.8657 -0.1757
 2989SOL    HW210975   7.112   4.995   8.379 -0.7024 -0.0505  0.4819
 2990SOL     OW10976   4.941   1.285   1.575 -0.2626  0.3639  0.0420
 2990SOL    HW110977   4.902   1.329   1.499  1.7837 -2.7607 -3.1850
 2990SOL    HW210978   5.021   1.334   1.594  0.5496 -0.2101 -1.6622
 2991SOL     OW10979  10.804   8.745   4.394  0.0628  0.2125 -0.4407
 2991SOL    HW110980  10.855   8.730   4.474  0.1142  1.6391 -0.1778
 2991SOL    HW210981  10.773   8.835   4.402  1.1186  0.8440 -2.6015
 2992SOL     OW10982   7.020   0.875   7.442 -0.1986 -0.3491  0.0053
 2992SOL    HW110983   7.082   0.869   7.369  0.3815 -3.1866  0.6437
 2992SOL    HW210984   6.964   0.798   7.433 -1.5558  0.4300  1.3268
 2993SOL     OW10985   3.383   1.497   0.223  0.6960  0.2982  0.8530
 2993SOL    HW110986   3.298   1.455   0.206  0.9205  0.5905 -1.1318
 2993SOL    HW210987   3.438   1.425   0.256  0.7126 -0.7565 -1.3198
 2994SOL     OW10988   6.479   4.507   8.851  0.4309 -0.3925  0.1347
 2994SOL    HW110989   6.443   4.430   8.806 -0.7475 -0.6132  1.4012
 2994SOL    HW210990   6.574   4.494   8.848  0.2505 -1.9528  0.4233
 2995SOL     OW10991   2.305  10.981   7.534  0.1688  0.3424 -0.1648
 2995SOL    HW110992   2.258  10.913   7.487  1.5161 -1.3377  0.7867
 2995SOL    HW210993   2.342  11.037   7.465  0.6159 -1.0169 -1.0787
 2996SOL     OW10994   0.062   5.630   7.889  0.1412 -0.3460 -0.2338
 2996SOL    HW110995   0.110   5.713   7.883 -0.8121  0.2434  0.1489
 2996SOL    HW210996   0.110   5.570   7.832 -0.9283  1.3152 -3.0481
 2997SOL     OW10997   6.103   6.732   7.362 -0.6267 -0.0049  0.3669
 2997SOL    HW110998   6.019   6.755   7.402 -1.0848 -0.0987 -0.5318
 2997SOL    HW210999   6.163   6.725   7.437 -0.9771  1.8680  0.8748
 2998SOL     OW11000  10.861   0.417   2.005  0.4405 -0.1287  0.2885
 2998SOL    HW111001  10.834   0.348   1.944 -0.7251  0.3974  0.1813
 2998SOL    HW211002  10.890   0.489   1.949 -1.9885  0.9106  0.2379
 2999SOL     OW11003   9.146   7.024   7.961  0.4060  0.0394 -0.6328
 2999SOL    HW111004   9.169   7.036   8.053  1.2875 -2.0956 -0.5058
 2999SOL    HW211005   9.228   7.038   7.913  0.0004  0.9248 -1.0983
 3000SOL     OW11006   0.343   0.847   8.446  0.3015  0.5991  0.8529
 3000SOL    HW111007   0.283   0.789   8.400 -0.5228  1.2122  1.1301
 3000SOL    HW211008   0.371   0.797   8.523  0.4960  0.1456  0.4875
 3001SOL     OW11009   0.357   3.538   2.224 -0.5607 -0.1848 -0.9485
 3001SOL    HW111010   0.433   3.567   2.274 -1.3467  0.2755  0.0012
 3001SOL    HW211011   0.394   3.506   2.142  0.5756  0.9073 -0.8906
 3002SOL     OW11012   2.576   1.744   1.290 -0.4623  0.1598  0.5808
 3002SOL    HW111013   2.604   1.757   1.381 -2.4296  3.2676  0.9011
 3002SOL    HW211014   2.566   1.833   1.255  0.5414 -0.9310 -2.8398
 3003SOL     OW11015   3.902  10.742  10.654 -0.3786  0.5540 -0.5686
 3003SOL    HW111016   3.924  10.833  10.633 -0.1094  0.1022 -2.4313
 3003SOL    HW211017   3.960  10.690  10.598  0.2024 -0.8047  1.2093
 3004SOL     OW11018   4.367   4.421   4.363  0.6941  0.1511  0.1491
 3004SOL    HW111019   4.293   4.470   4.327  0.4616 -1.2372 -1.4303
 3004SOL    HW211020   4.354   4.332   4.330  0.9516 -1.0943  3.0892
 3005SOL     OW11021   1.722   1.097   4.053 -0.5472  0.3404  0.1600
 3005SOL    HW111022   1.717   1.096   4.148 -0.6215  3.6066  0.3218
 3005SOL    HW211023   1.816   1.099   4.033 -0.4692  2.7571  0.4231
 3006SOL     OW11024   8.814   8.552   1.232 -0.4496 -0.1819 -0.0161
 3006SOL    HW111025   8.743   8.603   1.272 -0.0692 -0.2537  0.7558
 3006SOL    HW211026   8.835   8.601   1.152 -1.2475 -0.0684 -0.1720
 3007SOL     OW11027  10.982  10.526  10.911 -0.4307  0.5222  0.7276
 3007SOL    HW111028  11.034  10.606  10.906  0.6416 -0.1489  0.7182
 3007SOL    HW211029  10.975  10.508  11.005  0.8494 -0.3006  0.6914
 3008SOL     OW11030  10.676   2.623   3.257 -0.5839 -0.1392  0.1916
 3008SOL    HW111031  10.709   2.713   3.252 -0.1602 -0.2955  0.1313
 3008SOL    HW211032  10.700   2.594   3.345  0.3304 -0.5887 -0.1905
 3009SOL     OW11033   6.037  10.421   1.574  0.0171 -0.1571  0.1672
 3009SOL    HW111034   6.075  10.507   1.556  2.0696 -1.3480 -1.6384
 3009SOL    HW211035   6.100  10.380   1.633 -1.9116  0.1727  2.6400
 3010SOL     OW11036   6.187   6.269   7.690  0.3464  0.1913 -0.1464
 3010SOL    HW111037   6.214   6.209   7.621  0.1832 -0.3391  0.2438
 3010SOL    HW211038   6.250   6.255   7.760 -0.2980 -0.2785  0.3501
 3011SOL     OW11039   7.768   8.549   7.728  0.0581  0.2190 -0.5503
 3011SOL    HW111040   7.819   8.617   7.684  0.1746 -0.1353 -0.9684
 3011SOL    HW211041   7.800   8.466   7.691  0.3223 -0.1067  0.3611
 3012SOL     OW11042   4.166   3.145   4.134  0.0406 -0.2062  0.7987
 3012SOL    HW111043   4.196   3.233   4.157 -0.5049  0.9723 -2.4389
 3012SOL    HW211044   4.122   3.156   4.049  0.3817 -3.6850  0.0149
 3013SOL     OW11045   4.568   3.394   8.157 -0.2013  0.2417 -0.1577
 3013SOL    HW111046   4.568   3.298   8.151 -2.7903  0.0631  1.4796
 3013SOL    HW211047   4.514   3.423   8.083 -1.7041  0.2286  0.9017
 3014SOL     OW11048   4.034   1.203   4.168  0.5624  0.3092  0.8620
 3014SOL    HW111049   4.086   1.136   4.123  1.1170  2.5975 -2.2176
 3014SOL    HW211050   4.098   1.250   4.222  0.5402 -0.3266  1.4673
 3015SOL     OW11051   4.566   9.399   1.377  0.3181  0.2141  0.4635
 3015SOL    HW111052   4.525   9.442   1.302  1.4577  1.8709  0.7166
 3015SOL    HW211053   4.499   9.341   1.412 -0.4244 -0.1700 -1.4813
 3016SOL     OW11054   3.804   9.778   4.192 -0.3838 -0.2519  0.6202
 3016SOL    HW111055   3.876   9.737   4.145 -0.7272 -0.0392 -0.1067
 3016SOL    HW211056   3.825   9.872   4.192 -0.3294 -0.2653  0.9807
 3017SOL     OW11057   1.297   3.443   5.164 -0.8346 -0.1967  0.5946
 3017SOL    HW111058   1.384   3.434   5.201  1.1812  1.4794 -3.1788
 3017SOL    HW211059   1.297   3.386   5.087 -1.6618  2.3730 -1.4729
 3018SOL     OW11060   3.774   0.676   4.096 -0.2253  0.4348  0.3380
 3018SOL    HW111061   3.683   0.707   4.105 -0.1540  1.7581 -2.3992
 3018SOL    HW211062   3.827   0.749   4.127 -0.0804  0.3092  0.3847
 3019SOL     OW11063   3.268   2.059   4.530 -0.6587 -0.1940 -0.1001
 3019SOL    HW111064   3.260   2.100   4.444  0.3999 -1.1899 -0.6807
 3019SOL    HW211065   3.205   1.987   4.529 -1.1456  0.2144  0.2309
 3020SOL     OW11066   8.666   3.764   5.536 -0.2999  0.3185 -0.0261
 3020SOL    HW111067   8.605   3.827   5.573  0.6458  0.3438  1.5590
 3020SOL    HW211068   8.745   3.814   5.517  0.6170 -0.4029  1.6469
 3021SOL     OW11069   3.094   4.691   8.542 -0.0025  0.3036 -0.0376
 3021SOL    HW111070   3.133   4.778   8.531 -0.9972  0.7940  0.2066
 3021SOL    HW211071   3.048   4.675   8.460 -0.8310  0.5433  0.3702
 3022SOL     OW11072   3.178  10.443   8.857  0.4515 -0.2054 -0.0899
 3022SOL    HW111073   3.232  10.513   8.822  1.5239  0.0643  1.9535
 3022SOL    HW211074   3.096  10.448   8.808  1.5271  0.6787 -1.8661
 3023SOL     OW11075   2.031   0.307   9.853 -0.6502 -0.0150  0.2688
 3023SOL    HW111076   2.069   0.320   9.939 -2.0471 -1.6263  1.1929
 3023SOL    HW211077   1.957   0.368   9.850  1.0601  2.1340 -0.9942
 3024SOL     OW11078   3.787   1.780   3.021  0.2512  0.3820 -0.2242
 3024SOL    HW111079   3.806   1.824   3.103 -0.4263 -0.4039  0.3804
 3024SOL    HW211080   3.836   1.698   3.025 -0.2316  0.0790 -0.3381
 3025SOL     OW11081   5.608   7.799   0.308 -0.0226 -0.0874 -0.2158
 3025SOL    HW111082   5.559   7.869   0.353 -0.4227 -1.4425  1.5762
 3025SOL    HW211083   5.700   7.824   0.317 -0.1640  0.2588  0.3327
 3026SOL     OW11084   9.601   6.124   1.642  0.0643  0.3137  0.3568
 3026SOL    HW111085   9.514   6.147   1.675 -1.0641 -0.6003 -1.7321
 3026SOL    HW211086   9.583   6.073   1.562  2.5304  0.1939 -0.2010
 3027SOL     OW11087   4.306   4.280   2.851 -0.3525 -0.3633  0.0736
 3027SOL    HW111088   4.283   4.225   2.776 -2.4886 -1.0137  1.1337
 3027SOL    HW211089   4.359   4.350   2.814  1.7360 -2.6046 -1.4824
 3028SOL     OW11090   6.068   5.554   8.699  0.5177  0.3360 -0.5867
 3028SOL    HW111091   6.104   5.487   8.640  0.9590 -0.1430  0.2067
 3028SOL    HW211092   6.015   5.505   8.761  1.4074  0.6214  0.4341
 3029SOL     OW11093  10.480   8.878   4.015  0.2425 -0.3144 -0.1874
 3029SOL    HW111094  10.436   8.847   3.936  0.5953  0.5674 -0.7372
 3029SOL    HW211095  10.437   8.961   4.036  1.1773  0.2231 -0.3452
 3030SOL     OW11096   6.886  10.686   2.651 -0.9592 -0.6502 -0.0072
 3030SOL    HW111097   6.872  10.631   2.728  1.4817 -0.1569  0.8828
 3030SOL    HW211098   6.953  10.640   2.600 -1.5011 -0.2524 -1.1202
 3031SOL     OW11099   7.242   3.298   1.504  0.7235  0.0283 -0.3836
 3031SOL    HW111100   7.263   3.214   1.544  0.6932  0.4896  0.6311
 3031SOL    HW211101   7.161   3.326   1.546  1.8215  1.5316  0.8548
 3032SOL     OW11102   2.502   1.520   8.595  0.3862 -0.5131 -0.5429
 3032SOL    HW111103   2.464   1.559   8.674  0.3744 -2.0455  0.2519
 3032SOL    HW211104   2.426   1.502   8.539  0.1857 -1.2122 -0.0565
 3033SOL     OW11105  10.144   4.129   8.353 -0.1760  0.2881  0.4676
 3033SOL    HW111106  10.113   4.142   8.442  0.2806  1.2047  0.5076
 3033SOL    HW211107  10.128   4.213   8.309  1.4333  0.5215  0.2674
 3034SOL     OW11108   4.016   9.915   2.779  0.5344  0.4254  0.0051
 3034SOL    HW111109   4.031   9.825   2.809 -0.7234  0.6829  1.5583
 3034SOL    HW211110   4.104   9.951   2.766  1.0489 -1.3739 -1.8701
 3035SOL     OW11111   9.491   7.199   2.764  0.4944  0.7631  0.0191
 3035SOL    HW111112   9.532   7.199   2.678 -1.9298  1.0609 -1.2468
 3035SOL    HW211113   9.472   7.291   2.782 -2.0072  0.4935 -0.7792
 3036SOL     OW11114   8.212   5.592  10.504 -0.2223 -0.0485  0.3472
 3036SOL    HW111115   8.160   5.648  10.448  0.1932  0.0667  0.0737
 3036SOL    HW211116   8.232   5.515  10.450  0.6009  0.2899  0.1597
 3037SOL     OW11117   7.968  10.806   1.863 -0.1468  0.3031  0.0077
 3037SOL    HW111118   7.936  10.896   1.860 -0.7911  0.0903  0.4390
 3037SOL    HW211119   7.984  10.788   1.955 -0.1613 -0.0805 -0.0616
 3038SOL     OW11120   4.565   2.152   8.847  0.7147 -0.1011  0.1367
 3038SOL    HW111121   4.620   2.074   8.852 -0.7141 -1.1610 -0.1464
 3038SOL    HW211122   4.509   2.137   8.771 -0.4506  0.6201  0.8314
 3039SOL     OW11123   8.286   0.751   0.023  0.0074 -0.5693 -0.2022
 3039SOL    HW111124   8.311   0.659   0.017 -2.0147 -1.1113 -1.2548
 3039SOL    HW211125   8.368   0.799   0.012  0.7569 -2.2096 -2.4290
 3040SOL     OW11126   5.457   8.393  10.279 -0.6475 -0.1095 -0.0474
 3040SOL    HW111127   5.432   8.380  10.187 -0.9886 -0.3919  0.0815
 3040SOL    HW211128   5.391   8.453  10.313 -1.4188 -1.1615  0.3962
 3041SOL     OW11129   1.544  10.510   9.149 -0.4492  0.1224 -0.3380
 3041SOL    HW111130   1.512  10.420   9.140 -0.2523  0.1234 -1.1322
 3041SOL    HW211131   1.482  10.562   9.098 -1.2046  0.6013  1.0139
 3042SOL     OW11132   1.774   6.699   4.532 -0.0495  0.2384  0.0676
 3042SOL    HW111133   1.730   6.618   4.558 -0.3800 -1.1250 -4.0292
 3042SOL    HW211134   1.823   6.726   4.610 -1.8395 -2.5197  2.3431
 3043SOL     OW11135  11.176   9.295   1.740  0.4154 -0.0719 -0.0541
 3043SOL    HW111136  11.154   9.378   1.783  0.5986 -0.3770  0.6385
 3043SOL    HW211137  11.250   9.316   1.683  2.3666 -0.3286  2.2453
 3044SOL     OW11138  10.334   1.889   7.757 -0.3986 -0.3019  0.4075
 3044SOL    HW111139  10.397   1.871   7.687 -2.1162  2.1378 -1.9679
 3044SOL    HW211140  10.388   1.919   7.830  1.5498 -3.9629  0.6893
 3045SOL     OW11141   9.415   1.859  11.215 -0.1810 -0.8113  0.2788
 3045SOL    HW111142   9.340   1.819  11.259  0.5725 -3.2501 -0.4553
 3045SOL    HW211143   9.488   1.845  11.274  1.1861 -5.5708 -2.0308
 3046SOL     OW11144   3.600  10.338   4.069  0.2497 -0.0156 -0.2350
 3046SOL    HW111145   3.672  10.318   4.129  1.8200  3.0580 -0.8779
 3046SOL    HW211146   3.613  10.277   3.996  1.2380 -0.5730  0.3719
 3047SOL     OW11147   8.134   5.426   1.314  0.6250  0.1147  0.0337
 3047SOL    HW111148   8.210   5.377   1.343  0.0834 -0.7794 -0.0267
 3047SOL    HW211149   8.147   5.441   1.221  1.2250  0.9034  0.2321
 3048SOL     OW11150   0.022   4.302   8.403 -0.4129 -0.2032  0.0561
 3048SOL    HW111151   0.014   4.300   8.308  2.5055  0.0309 -0.2679
 3048SOL    HW211152   0.103   4.256   8.422 -0.9339 -0.2839  2.4663
 3049SOL     OW11153   3.215   9.762   6.833 -0.1184  0.3264  0.4814
 3049SOL    HW111154   3.243   9.821   6.903  0.7273 -0.2755  0.6576
 3049SOL    HW211155   3.263   9.681   6.849 -0.2577  0.0298 -0.5378
 3050SOL     OW11156  10.942  10.265  10.220 -0.6455 -0.8788 -0.1215
 3050SOL    HW111157  10.871  10.304  10.270  0.2354  0.3790  0.1982
 3050SOL    HW211158  10.981  10.200  10.278  0.4896  0.6985  0.9682
 3051SOL     OW11159   9.405   5.072   1.725 -0.5614 -0.1999  0.2501
 3051SOL    HW111160   9.458   4.994   1.708 -2.3722 -1.3894 -0.1886
 3051SOL    HW211161   9.419   5.128   1.649 -1.6571 -1.5229 -0.9836
 3052SOL     OW11162   0.553  10.571   2.693 -0.7362 -0.2714 -0.3500
 3052SOL    HW111163   0.526  10.613   2.611 -0.3065  0.4203 -0.1498
 3052SOL    HW211164   0.519  10.482   2.687 -0.9824 -0.1334 -1.1415
 3053SOL     OW11165  11.246   4.299  10.465  0.9925  0.7984  0.3958
 3053SOL    HW111166  11.192   4.373  10.495 -0.1666  0.6771 -1.2210
 3053SOL    HW211167  11.269   4.252  10.545  0.0663  1.7979  1.2871
 3054SOL     OW11168  10.988   8.161   4.988  0.2730  0.5651  0.1503
 3054SOL    HW111169  10.927   8.114   5.046  0.7117 -0.6318 -0.3267
 3054SOL    HW211170  10.931   8.213   4.932 -0.2860 -0.0390  0.1406
 3055SOL     OW11171   7.171   1.179   0.631 -0.1573  0.8568  0.1700
 3055SOL    HW111172   7.149   1.121   0.558  0.1310  0.8607  0.0784
 3055SOL    HW211173   7.186   1.120   0.705  2.6382  0.5833 -0.5171
 3056SOL     OW11174   5.786  10.714   3.218 -0.5461 -0.1463  0.7520
 3056SOL    HW111175   5.711  10.771   3.235 -1.3283 -0.3573 -1.6139
 3056SOL    HW211176   5.862  10.765   3.244 -1.3661  1.1235  0.7114
 3057SOL     OW11177   5.747   0.547   9.026 -0.0430  0.1825  0.2519
 3057SOL    HW111178   5.837   0.575   9.040 -0.8395  2.2203  2.0795
 3057SOL    HW211179   5.714   0.529   9.114 -0.9693 -2.2985 -0.5138
 3058SOL     OW11180   2.020   5.627   7.102 -0.4407  0.4077  0.1351
 3058SOL    HW111181   2.069   5.606   7.182 -0.2793  0.0438 -0.0575
 3058SOL    HW211182   1.988   5.543   7.071  0.2461  0.4254 -0.6683
 3059SOL     OW11183   7.179   3.030   7.005 -0.3887 -0.2842 -0.7000
 3059SOL    HW111184   7.176   3.074   6.920  1.0043  0.1229 -0.5736
 3059SOL    HW211185   7.256   3.068   7.048 -0.9819 -0.5940  0.6830
 3060SOL     OW11186   5.953   5.572  11.009 -0.0473 -0.4809 -0.4924
 3060SOL    HW111187   5.973   5.511  10.938  0.1184 -1.3147  0.2487
 3060SOL    HW211188   6.013   5.645  10.996  0.5463 -1.0055 -0.7371
 3061SOL     OW11189   0.863   8.638   5.709  0.9062  0.2530  0.0272
 3061SOL    HW111190   0.790   8.606   5.656  0.7835 -0.7252  0.7598
 3061SOL    HW211191   0.922   8.681   5.646 -0.2295  0.9617 -0.5816
 3062SOL     OW11192   1.271   8.285   0.232 -0.0306  0.2230  0.3222
 3062SOL    HW111193   1.234   8.335   0.159  1.4512 -0.0037 -0.6418
 3062SOL    HW211194   1.227   8.200   0.229 -0.4269  0.4407  0.0775
 3063SOL     OW11195   9.703   9.756   5.160 -0.2584  0.2375  0.3037
 3063SOL    HW111196   9.729   9.691   5.226 -2.8746 -0.8901  0.3365
 3063SOL    HW211197   9.632   9.805   5.202 -0.9588  0.5021 -1.1227
 3064SOL     OW11198   2.254   3.434   5.012 -0.4526 -0.2142 -0.1075
 3064SOL    HW111199   2.202   3.357   4.989 -0.5444 -0.4447  0.8362
 3064SOL    HW211200   2.254   3.434   5.108 -1.1113  1.3979 -0.0838
 3065SOL     OW11201  10.121   9.230   4.834 -0.3863 -0.1559  0.2507
 3065SOL    HW111202  10.135   9.144   4.873  2.0051  1.2390  2.8983
 3065SOL    HW211203  10.088   9.284   4.906 -2.1690  1.1147 -1.4276
 3066SOL     OW11204   5.612   1.398   7.366  0.2138 -0.0484 -0.6757
 3066SOL    HW111205   5.633   1.489   7.343  2.6138  0.1816  1.8614
 3066SOL    HW211206   5.696   1.355   7.373 -0.5355 -1.3325  2.1793
 3067SOL     OW11207   6.132   2.183   5.853  0.2721 -0.1269 -0.8473
 3067SOL    HW111208   6.043   2.159   5.826 -0.3025  0.8015  0.1272
 3067SOL    HW211209   6.133   2.171   5.948  1.3460 -0.5677 -0.8997
 3068SOL     OW11210  10.298   9.666   2.205  0.0017  0.5361 -0.2330
 3068SOL    HW111211  10.294   9.609   2.281 -1.0925  1.1484  0.1931
 3068SOL    HW211212  10.211   9.707   2.201  0.3212  1.1520 -1.3088
 3069SOL     OW11213   2.449   3.390   1.549  0.0884 -0.0841 -0.0377
 3069SOL    HW111214   2.513   3.389   1.621  1.7268  2.8006 -1.3225
 3069SOL    HW211215   2.466   3.309   1.501  1.3752 -0.3442  0.8138
 3070SOL     OW11216   2.414   5.854   4.162 -0.3686  0.2047 -0.0885
 3070SOL    HW111217   2.352   5.919   4.195  1.8266  2.2201  0.3179
 3070SOL    HW211218   2.456   5.819   4.240  1.1614  1.1592 -0.4440
 3071SOL     OW11219   8.518   7.960   1.090 -0.0043 -0.1029  0.3619
 3071SOL    HW111220   8.535   8.045   1.131 -0.7506  0.6304 -0.7896
 3071SOL    HW211221   8.424   7.961   1.071  0.0877 -0.9439 -0.1909
 3072SOL     OW11222   5.937   4.384  10.910  0.5263  0.3209 -0.2050
 3072SOL    HW111223   5.884   4.455  10.874  0.7294  2.3478  3.1195
 3072SOL    HW211224   5.875   4.328  10.956  0.8301  0.9557  1.0293
 3073SOL     OW11225   8.570   7.768   6.440 -0.1009  0.0950 -0.0811
 3073SOL    HW111226   8.489   7.780   6.390 -0.1529  1.1053  0.2330
 3073SOL    HW211227   8.541   7.762   6.531 -0.0707 -2.3787 -0.1730
 3074SOL     OW11228   8.563   0.572   5.508  0.2321  0.2479  0.3642
 3074SOL    HW111229   8.616   0.611   5.578 -0.0165  2.5430 -0.6205
 3074SOL    HW211230   8.476   0.562   5.548  0.3790  0.4554  0.7472
 3075SOL     OW11231   1.181   0.161   5.404  0.1824  0.7061 -0.2401
 3075SOL    HW111232   1.125   0.109   5.461 -0.9019 -0.0474 -1.9111
 3075SOL    HW211233   1.262   0.111   5.398 -0.8811 -0.9589 -1.9177
 3076SOL     OW11234   3.116   5.964  10.825 -1.0072  0.3251  0.7233
 3076SOL    HW111235   3.053   5.902  10.788  0.1371 -1.0092  0.9154
 3076SOL    HW211236   3.182   5.909  10.867 -1.0497  1.7340  2.7726
 3077SOL     OW11237   3.779   2.995   3.905 -0.4978 -0.0598  0.4393
 3077SOL    HW111238   3.785   3.043   3.987 -2.2592  0.9989 -0.0045
 3077SOL    HW211239   3.840   2.921   3.915  1.2268  1.4492  1.6800
 3078SOL     OW11240   0.223   4.871   1.463 -0.0149  0.8981  0.2631
 3078SOL    HW111241   0.293   4.811   1.437  0.3148  1.1364  0.5906
 3078SOL    HW211242   0.191   4.836   1.546 -0.2168  0.8464  0.1636
 3079SOL     OW11243   1.708   0.591  11.039 -0.4795 -0.6608 -1.0106
 3079SOL    HW111244   1.741   0.509  11.005  0.2651 -0.1893 -1.4414
 3079SOL    HW211245   1.757   0.659  10.992 -0.4810  0.0176 -0.0629
 3080SOL     OW11246   9.512   2.097   4.330  0.4984 -0.1589 -0.1686
 3080SOL    HW111247   9.419   2.100   4.312  0.2494  0.2447  1.0709
 3080SOL    HW211248   9.552   2.062   4.250 -0.8270 -1.5036 -0.2807
 3081SOL     OW11249   8.743  10.879   4.620  0.3557 -0.4544  0.3030
 3081SOL    HW111250   8.836  10.864   4.635  0.2760  1.0420  2.8630
 3081SOL    HW211251   8.699  10.809   4.669  0.1101 -0.4836  0.0480
 3082SOL     OW11252   8.508   2.496   2.237  0.1159  0.6367  0.0670
 3082SOL    HW111253   8.591   2.512   2.283  0.4892 -3.5773  1.2827
 3082SOL    HW211254   8.441   2.528   2.297  0.7730 -0.6190  1.5598
 3083SOL     OW11255   9.166  10.737   5.771 -0.8717 -0.4720 -0.3268
 3083SOL    HW111256   9.103  10.809   5.770 -0.8030 -0.4101 -0.1842
 3083SOL    HW211257   9.247  10.776   5.736 -0.2988  0.0182  1.4451
 3084SOL     OW11258   2.535   1.135   4.415 -0.3449 -0.6770  0.0747
 3084SOL    HW111259   2.493   1.170   4.337  0.2651  0.5530  0.2710
 3084SOL    HW211260   2.520   1.041   4.410 -2.7380 -0.3355 -0.0650
 3085SOL     OW11261   6.397   5.840   3.815 -0.1222  0.6046  0.1922
 3085SOL    HW111262   6.432   5.778   3.751  1.8208 -0.7030  2.3705
 3085SOL    HW211263   6.421   5.804   3.900 -1.2283  3.0336  1.6575
 3086SOL     OW11264   1.377   3.216   0.722  0.1924  0.3264  0.2747
 3086SOL    HW111265   1.325   3.230   0.801  3.2048 -1.2838  2.7669
 3086SOL    HW211266   1.420   3.300   0.705 -1.6725  1.1398 -0.7383
 3087SOL     OW11267   3.890   6.209   7.219  0.3109  0.0028 -0.1435
 3087SOL    HW111268   3.841   6.271   7.165 -2.8463 -1.7506  0.4586
 3087SOL    HW211269   3.940   6.264   7.279  0.8217  1.9316 -2.1757
 3088SOL     OW11270   2.572  11.011  10.195 -0.0899 -0.6303 -0.9089
 3088SOL    HW111271   2.616  11.043  10.273  2.2528 -2.0780 -1.5473
 3088SOL    HW211272   2.521  11.086  10.164 -0.1050  0.3425  1.2850
 3089SOL     OW11273   0.352   0.835   5.468  0.5259  1.0862 -0.1990
 3089SOL    HW111274   0.379   0.887   5.543  1.9711  1.0139 -0.6344
 3089SOL    HW211275   0.377   0.746   5.490 -1.9359  0.5012  0.5384
 3090SOL     OW11276   4.427   9.663   2.520 -0.6907  0.4657  0.5437
 3090SOL    HW111277   4.355   9.719   2.492  0.7492  1.5331 -1.2656
 3090SOL    HW211278   4.458   9.703   2.602  1.6337  3.8256 -1.7008
 3091SOL     OW11279   3.606  10.319   7.740 -0.1946 -0.0625  0.3014
 3091SOL    HW111280   3.573  10.407   7.758 -0.1640 -0.0013  0.0606
 3091SOL    HW211281   3.575  10.300   7.651  0.7665  0.1580 -0.0908
 3092SOL     OW11282  10.041   6.720   7.095  0.0065 -0.4229  0.0424
 3092SOL    HW111283  10.006   6.747   7.180  0.6099 -0.0057  0.1636
 3092SOL    HW211284  10.098   6.646   7.116 -0.0045 -0.4491 -0.0226
 3093SOL     OW11285   6.875   5.737   2.915 -0.0794 -0.4969  0.1176
 3093SOL    HW111286   6.802   5.678   2.934  0.3953 -0.6108  1.7188
 3093SOL    HW211287   6.874   5.800   2.987  2.0090 -1.1012  0.7299
 3094SOL     OW11288   9.413   5.562   0.278  0.1416 -0.0525 -0.4417
 3094SOL    HW111289   9.502   5.586   0.303  0.5197  0.7266 -2.3668
 3094SOL    HW211290   9.359   5.635   0.308  0.5881  0.8686 -1.7776
 3095SOL     OW11291  10.469   6.671  10.793 -0.4348  0.1653  0.4329
 3095SOL    HW111292  10.540   6.711  10.743 -1.2553 -0.1805 -1.0580
 3095SOL    HW211293  10.491   6.578  10.798 -0.3411  0.2016  0.7681
 3096SOL     OW11294  11.224   0.013   7.942  0.7174  0.1345  0.6606
 3096SOL    HW111295  11.251   0.014   8.034  1.9320 -0.0000  0.3242
 3096SOL    HW211296  11.132  -0.013   7.945 -0.0369  2.5221  2.0020
 3097SOL     OW11297   6.277  10.539   6.223  0.1274 -0.3671 -0.3800
 3097SOL    HW111298   6.243  10.628   6.217  0.4799 -0.0541  1.5822
 3097SOL    HW211299   6.200  10.483   6.226 -0.2286  0.1449  1.4258
 3098SOL     OW11300   4.263   3.417   4.999  0.2507 -0.1523 -1.1207
 3098SOL    HW111301   4.325   3.353   4.964  0.1600 -0.2173 -1.1620
 3098SOL    HW211302   4.288   3.427   5.091  0.4289 -0.0516 -1.1777
 3099SOL     OW11303   1.069   4.366   3.779 -0.5852 -0.7374 -0.7178
 3099SOL    HW111304   1.109   4.279   3.767 -2.2985 -1.5968 -0.5302
 3099SOL    HW211305   1.120   4.406   3.849 -0.5660 -2.1378  0.1144
 3100SOL     OW11306   6.035  11.277   3.131  0.1810 -0.8928 -0.5059
 3100SOL    HW111307   5.988  11.265   3.213  0.9968  0.6912  0.2473
 3100SOL    HW211308   6.100  11.207   3.130  0.5515 -0.5861  0.5143
 3101SOL     OW11309   1.356   1.274   9.802 -0.8983  0.0420  0.4966
 3101SOL    HW111310   1.441   1.305   9.833 -0.4641 -1.3547  0.8008
 3101SOL    HW211311   1.363   1.178   9.805 -0.8122 -0.2611 -3.9633
 3102SOL     OW11312   0.083   6.261   3.855  0.3753  0.0631  0.7076
 3102SOL    HW111313   0.075   6.166   3.842 -0.5334  0.1653  0.5024
 3102SOL    HW211314   0.073   6.273   3.949 -1.2523  0.1160  0.5413
 3103SOL     OW11315  10.641   6.444   1.265  0.5526  0.3319 -0.4629
 3103SOL    HW111316  10.733   6.469   1.277  1.3871 -0.7842 -3.6058
 3103SOL    HW211317  10.613   6.490   1.186 -2.4835  2.5234  1.6699
 3104SOL     OW11318   9.902   8.442  10.643  0.4360 -0.5332  0.3433
 3104SOL    HW111319   9.917   8.419  10.735  1.1271 -0.2529  0.3060
 3104SOL    HW211320   9.857   8.526  10.646  0.3927 -0.5602  0.4321
 3105SOL     OW11321   9.711   0.142   1.388  0.6722 -0.0462 -0.1309
 3105SOL    HW111322   9.634   0.092   1.361  2.1442 -2.3499 -0.3034
 3105SOL    HW211323   9.758   0.159   1.307 -0.0426  2.1936 -0.1487
 3106SOL     OW11324   7.408   4.111   7.243  0.3938  0.2957  0.3571
 3106SOL    HW111325   7.381   4.197   7.210 -0.5444 -0.4580 -0.9777
 3106SOL    HW211326   7.477   4.083   7.182 -0.1884 -0.4133  0.0059
 3107SOL     OW11327   9.136   5.391   8.988  0.3310  0.2361  0.4969
 3107SOL    HW111328   9.194   5.466   8.977  0.4125 -0.1634 -2.6863
 3107SOL    HW211329   9.169   5.346   9.065  3.4039  0.8111 -0.3694
 3108SOL     OW11330   1.016   1.648   7.990  0.1265 -0.1640  0.2059
 3108SOL    HW111331   1.033   1.554   7.997  2.0901  0.0472 -0.9779
 3108SOL    HW211332   0.922   1.656   8.007 -0.0129 -2.2645  0.8088
 3109SOL     OW11333   6.370   1.551  10.283 -0.2134 -0.8232  0.2277
 3109SOL    HW111334   6.343   1.459  10.280 -0.6685 -0.6551 -1.3960
 3109SOL    HW211335   6.316   1.589  10.352 -0.4223 -1.6388  0.5368
 3110SOL     OW11336  10.904   2.863   6.571  0.2209 -0.2138 -0.6517
 3110SOL    HW111337  10.909   2.896   6.661 -0.7694  0.6569 -0.8950
 3110SOL    HW211338  10.814   2.831   6.563  0.3105 -0.3118 -1.3258
 3111SOL     OW11339   6.311   5.350   0.356  0.0683 -0.0390  0.0899
 3111SOL    HW111340   6.366   5.364   0.432  0.0704  1.0859 -0.0959
 3111SOL    HW211341   6.319   5.256   0.336  3.2200  0.3331 -0.9085
 3112SOL     OW11342  10.798   0.718   4.040  0.8166 -0.8011  0.8963
 3112SOL    HW111343  10.762   0.658   3.974 -1.1209  1.2390 -0.0082
 3112SOL    HW211344  10.893   0.717   4.024  0.6458 -2.2527 -0.2315
 3113SOL     OW11345   6.224   2.294   1.932 -0.4946  0.4081  0.6985
 3113SOL    HW111346   6.146   2.321   1.884 -1.6815 -0.9616  1.7441
 3113SOL    HW211347   6.215   2.337   2.018  0.4359  1.0387  0.4914
 3114SOL     OW11348   7.138   0.976   8.255 -0.4652 -0.5866  0.2373
 3114SOL    HW111349   7.139   1.029   8.175  3.7307 -1.4355 -0.4726
 3114SOL    HW211350   7.084   0.900   8.232 -1.3768  0.3417 -0.8595
 3115SOL     OW11351   6.832  11.216   7.132  0.0744  0.3981 -0.5138
 3115SOL    HW111352   6.850  11.303   7.095 -0.3389  0.9667  0.5754
 3115SOL    HW211353   6.857  11.223   7.224 -0.7133 -0.3907 -0.2212
 3116SOL     OW11354   8.990   6.438   3.010 -0.1418  0.2161 -0.0335
 3116SOL    HW111355   8.999   6.454   3.104  0.5682  0.3996 -0.1238
 3116SOL    HW211356   8.902   6.468   2.988  0.5053  2.4273  0.1321
 3117SOL     OW11357   1.777   7.087   2.997 -0.0620  0.3399  0.1901
 3117SOL    HW111358   1.794   7.167   3.047  0.7279 -0.7348  1.7537
 3117SOL    HW211359   1.863   7.059   2.966 -0.4183  0.4430 -0.9307
 3118SOL     OW11360   8.344   4.798   4.965 -0.2412  0.4150 -0.2489
 3118SOL    HW111361   8.414   4.746   4.926 -1.4897 -0.0715 -1.9769
 3118SOL    HW211362   8.265   4.745   4.952 -1.0157  1.1137  1.3133
 3119SOL     OW11363   0.053   4.014   5.927  0.6820  0.6864 -0.1116
 3119SOL    HW111364   0.091   4.034   6.012  2.8053  1.3395 -1.1451
 3119SOL    HW211365   0.034   3.920   5.931 -0.3694  0.9284  1.4473
 3120SOL     OW11366   0.324   1.911   8.206  0.1815 -0.1596  0.0645
 3120SOL    HW111367   0.243   1.900   8.255  0.5260 -2.0287  0.3039
 3120SOL    HW211368   0.296   1.917   8.114 -0.2197 -1.4984  0.0786
 3121SOL     OW11369   0.511   3.048   9.209  0.3015 -0.5347  0.3065
 3121SOL    HW111370   0.578   3.116   9.202  0.0618 -0.2948  0.3273
 3121SOL    HW211371   0.560   2.968   9.232  0.7997 -0.7616 -1.4382
 3122SOL     OW11372   8.289   5.745   3.589  0.2659  1.3146  0.3214
 3122SOL    HW111373   8.335   5.673   3.545  2.1478  1.7532  1.4842
 3122SOL    HW211374   8.279   5.812   3.521 -0.1851  0.5691 -0.3732
 3123SOL     OW11375   8.143   5.743   2.157 -0.4400 -0.2596 -0.1410
 3123SOL    HW111376   8.162   5.721   2.066  0.1092  0.5855 -0.2491
 3123SOL    HW211377   8.103   5.830   2.152 -0.6651 -0.3283  0.4029
 3124SOL     OW11378   5.146   8.476   3.501  0.0540 -0.8216  0.3426
 3124SOL    HW111379   5.222   8.479   3.443 -1.2140 -0.9470 -1.4320
 3124SOL    HW211380   5.073   8.453   3.443 -1.3565 -0.6118  1.9545
 3125SOL     OW11381   7.392   6.970  10.093  0.1434  0.3472 -0.6868
 3125SOL    HW111382   7.410   7.029  10.166 -0.2625  0.9544 -1.0776
 3125SOL    HW211383   7.479   6.942  10.064  0.2978 -0.6352  0.6014
 3126SOL     OW11384   6.896   1.472   2.648 -0.1736 -0.9350 -0.6470
 3126SOL    HW111385   6.944   1.428   2.577 -0.6153 -0.8401 -1.0111
 3126SOL    HW211386   6.837   1.533   2.603 -0.5514 -0.9642 -0.1995
 3127SOL     OW11387   7.662   5.313   3.408  0.0769  0.0879 -0.0497
 3127SOL    HW111388   7.725   5.341   3.342  1.7767 -3.2106 -0.0568
 3127SOL    HW211389   7.684   5.221   3.425 -0.8751  0.4570  4.4601
 3128SOL     OW11390  10.295  10.490   6.209  0.2838 -0.4406  0.2421
 3128SOL    HW111391  10.355  10.482   6.282 -0.0009  0.3850  0.5738
 3128SOL    HW211392  10.240  10.411   6.215 -0.6532  0.2839  1.7682
 3129SOL     OW11393   9.175   5.616   7.432  0.8397  0.5686  0.5258
 3129SOL    HW111394   9.224   5.583   7.357  0.2868 -0.1988  0.4866
 3129SOL    HW211395   9.209   5.565   7.506 -1.2314 -1.4352  0.2101
 3130SOL     OW11396   4.354   4.417   7.765 -0.1372  0.0251  0.0464
 3130SOL    HW111397   4.307   4.364   7.701 -0.7049  1.3902 -0.7190
 3130SOL    HW211398   4.290   4.484   7.792  0.2355 -0.2605  1.7276
 3131SOL     OW11399   5.201   0.776   5.702 -0.6552 -0.0322  0.4067
 3131SOL    HW111400   5.258   0.828   5.759 -0.1592  0.2671 -0.3605
 3131SOL    HW211401   5.164   0.710   5.761  0.6183 -0.3441  0.8914
 3132SOL     OW11402   0.596   5.387   1.438 -0.1677 -0.2571 -0.7787
 3132SOL    HW111403   0.587   5.481   1.421  1.6321  0.1673  0.3423
 3132SOL    HW211404   0.519   5.348   1.396 -1.8922  1.8810  0.1644
 3133SOL     OW11405   2.862   8.650   7.642 -0.0900  0.1238  0.2975
 3133SOL    HW111406   2.908   8.581   7.596  0.3227  1.1465 -0.8903
 3133SOL    HW211407   2.776   8.654   7.600  0.6031  1.6715 -1.1029
 3134SOL     OW11408   7.349   2.215   3.593 -0.5012  0.4918 -0.2326
 3134SOL    HW111409   7.325   2.229   3.502  0.3568 -2.9265 -1.1604
 3134SOL    HW211410   7.439   2.246   3.600 -0.5724  0.7690 -0.5662
 3135SOL     OW11411   3.515   3.232   1.971 -0.2722  0.2803  0.1230
 3135SOL    HW111412   3.610   3.233   1.985 -0.4348  1.6735  1.3785
 3135SOL    HW211413   3.492   3.139   1.973  1.0198 -0.0701  0.0519
 3136SOL     OW11414   7.111   7.103   3.413 -0.0618 -0.3965 -0.7037
 3136SOL    HW111415   7.115   7.098   3.508  0.1178  0.6285 -0.6555
 3136SOL    HW211416   7.098   7.012   3.385 -0.3143 -0.6780  0.3010
 3137SOL     OW11417   2.766   6.458   9.669 -0.4555  0.9450  0.2925
 3137SOL    HW111418   2.712   6.380   9.682 -0.0134  0.6042  0.1351
 3137SOL    HW211419   2.844   6.442   9.723 -0.9058  1.8412  1.2364
 3138SOL     OW11420  10.254   9.056   6.693  0.3920  0.0668 -0.4425
 3138SOL    HW111421  10.278   8.981   6.639  0.6456 -0.1484 -0.0306
 3138SOL    HW211422  10.197   9.020   6.760  2.2609 -0.1756  1.0952
 3139SOL     OW11423   3.230   0.923   6.726 -0.3903 -0.4238  0.3349
 3139SOL    HW111424   3.155   0.893   6.777  1.0631 -2.6230  1.3479
 3139SOL    HW211425   3.293   0.952   6.791  0.9316 -1.8809 -0.2287
 3140SOL     OW11426   3.583   1.322   2.176 -0.2565 -0.5339  0.1662
 3140SOL    HW111427   3.566   1.369   2.095  2.7638  0.6786  0.1322
 3140SOL    HW211428   3.620   1.387   2.235  1.8871 -2.3241  0.9205
 3141SOL     OW11429   0.528   9.782   8.364  0.1887 -0.2851 -0.1843
 3141SOL    HW111430   0.596   9.848   8.355 -0.6707  0.7621  0.6984
 3141SOL    HW211431   0.531   9.756   8.456  0.2162 -1.1693 -0.4197
 3142SOL     OW11432   0.099   5.264   3.889  0.0768  0.1477  0.1672
 3142SOL    HW111433   0.066   5.206   3.821  0.1534  0.7753 -0.4139
 3142SOL    HW211434   0.029   5.327   3.904  0.8019  1.2201 -0.7623
 3143SOL     OW11435   6.378   2.783   9.907  0.2209  0.3661  0.7573
 3143SOL    HW111436   6.422   2.732   9.974  1.5101  2.8459  1.9151
 3143SOL    HW211437   6.447   2.834   9.866 -0.8209  0.2954 -1.2220
 3144SOL     OW11438   5.959   1.750   7.425  0.3489  0.1730  0.1239
 3144SOL    HW111439   6.021   1.811   7.463  0.4287 -0.4157  0.9755
 3144SOL    HW211440   5.985   1.742   7.333 -1.6897  3.9810 -0.9994
 3145SOL     OW11441  10.812  10.354   0.872  0.3478 -0.0615  0.7318
 3145SOL    HW111442  10.871  10.344   0.796  0.2795  1.5347  0.4392
 3145SOL    HW211443  10.732  10.308   0.846  0.5000  0.0487  0.0403
 3146SOL     OW11444   3.092   2.672   6.082  0.0458 -0.0234 -0.2371
 3146SOL    HW111445   3.176   2.710   6.105 -0.1916  0.4877 -0.1908
 3146SOL    HW211446   3.098   2.655   5.987 -0.1810  1.0277 -0.4518
 3147SOL     OW11447   2.060   6.402   3.877 -0.1462  0.0072 -0.1948
 3147SOL    HW111448   2.121   6.374   3.945 -4.3587 -2.2727  3.0857
 3147SOL    HW211449   2.057   6.498   3.885  1.7328  0.0362  0.6197
 3148SOL     OW11450   2.294   5.652   3.057  0.5402  0.4976  0.0917
 3148SOL    HW111451   2.229   5.586   3.031 -2.1792  2.8261  0.5837
 3148SOL    HW211452   2.294   5.716   2.986  2.6226  0.4257 -0.0471
 3149SOL     OW11453   6.115   9.254   7.274  0.1917  0.5436  0.3114
 3149SOL    HW111454   6.040   9.297   7.230 -0.3286  1.2395  1.8227
 3149SOL    HW211455   6.110   9.285   7.364  0.7256 -1.5454  1.0913
 3150SOL     OW11456   3.503   7.806   3.827 -0.4152 -0.3460  0.2036
 3150SOL    HW111457   3.590   7.802   3.866 -1.0644  0.6117  1.8890
 3150SOL    HW211458   3.447   7.840   3.898 -2.5589 -2.8860 -0.0956
 3151SOL     OW11459   9.189   8.424  11.015 -0.2795 -0.2203  0.3092
 3151SOL    HW111460   9.163   8.362  11.082  1.2954 -2.5032 -1.0537
 3151SOL    HW211461   9.111   8.436  10.961 -1.6400  1.8494  2.5672
 3152SOL     OW11462   6.416   0.617   0.749 -0.5861  0.6947  0.5373
 3152SOL    HW111463   6.446   0.703   0.722  0.8520  0.3186  0.8717
 3152SOL    HW211464   6.353   0.591   0.682  1.1175  0.7921 -1.1666
 3153SOL     OW11465   8.416   8.031   6.452 -0.6757 -0.1953 -0.3816
 3153SOL    HW111466   8.436   8.027   6.546  1.4457 -2.7294 -0.8085
 3153SOL    HW211467   8.495   8.069   6.413 -1.1079 -0.1801 -1.2644
 3154SOL     OW11468   5.862   0.607  11.220 -0.7781  0.2018 -0.2028
 3154SOL    HW111469   5.957   0.599  11.227 -0.8736 -1.1673 -0.0889
 3154SOL    HW211470   5.847   0.637  11.130 -0.1937  2.2775  0.3359
 3155SOL     OW11471  10.401   5.255   7.421 -0.1756 -0.8348 -0.0866
 3155SOL    HW111472  10.365   5.176   7.382  0.3452 -1.3252  0.4159
 3155SOL    HW211473  10.364   5.258   7.509 -1.6639  0.4786 -0.7121
 3156SOL     OW11474   6.683   4.247   4.831  0.2299 -0.0711  0.0616
 3156SOL    HW111475   6.643   4.259   4.745  0.1163  1.7126  0.3220
 3156SOL    HW211476   6.609   4.239   4.891  0.3004 -2.4663 -0.0975
 3157SOL     OW11477  10.282   1.179   0.827 -0.4060  0.2851 -0.0424
 3157SOL    HW111478  10.192   1.201   0.803  0.3167  1.9508 -1.4870
 3157SOL    HW211479  10.306   1.247   0.891 -0.4826 -0.7894  1.1702
 3158SOL     OW11480   3.763   4.658   2.035 -0.6507  0.0183  0.2938
 3158SOL    HW111481   3.796   4.703   2.113  0.3600  0.5877 -0.4396
 3158SOL    HW211482   3.823   4.584   2.023 -1.4311 -0.6936  0.6445
 3159SOL     OW11483   9.620   4.395   6.878 -0.4148  0.3833  0.0089
 3159SOL    HW111484   9.649   4.356   6.961 -0.1569 -0.7064 -0.5756
 3159SOL    HW211485   9.526   4.404   6.888 -0.5044 -0.5331  0.1151
 3160SOL     OW11486   7.369   1.517   8.901 -0.0639  0.6214 -0.7107
 3160SOL    HW111487   7.313   1.586   8.937  0.3169  0.5375  0.0746
 3160SOL    HW211488   7.439   1.508   8.965 -0.0890 -0.4713 -0.8169
 3161SOL     OW11489   9.936   0.135   6.696 -0.1083 -0.7342  0.1194
 3161SOL    HW111490   9.884   0.140   6.776 -0.9099  0.2405 -0.4435
 3161SOL    HW211491   9.906   0.054   6.653 -1.5867  0.0929 -0.4655
 3162SOL     OW11492   0.694   0.255   1.387  0.6099  0.0021 -0.2455
 3162SOL    HW111493   0.706   0.345   1.418  0.1595  0.3460 -1.0457
 3162SOL    HW211494   0.660   0.209   1.463  1.2050  0.4144  0.2852
 3163SOL     OW11495  10.539   4.974   8.300  0.1271 -0.4432 -0.2505
 3163SOL    HW111496  10.621   5.021   8.318 -0.7703  0.5266  1.6212
 3163SOL    HW211497  10.512   4.940   8.386 -1.9231  0.1075 -0.6256
 3164SOL     OW11498   8.994   0.745   1.627  0.0023 -0.1185 -0.4921
 3164SOL    HW111499   8.965   0.812   1.565  1.7069  1.3753  0.2472
 3164SOL    HW211500   9.087   0.733   1.608  0.1372 -0.9467  0.5935
 3165SOL     OW11501   9.165   8.431   8.313 -0.3154 -0.2020 -0.8238
 3165SOL    HW111502   9.228   8.497   8.342  0.2810 -0.5020 -1.4017
 3165SOL    HW211503   9.200   8.348   8.346 -0.4801 -0.3520 -1.0288
 3166SOL     OW11504   4.208   2.840   5.580 -0.0371 -0.1233 -0.5782
 3166SOL    HW111505   4.278   2.784   5.547 -1.1989 -1.6786 -0.5148
 3166SOL    HW211506   4.230   2.856   5.672  2.1388  2.5340 -1.4321
 3167SOL     OW11507   7.597   4.387   1.935 -0.2173 -0.2656  0.4365
 3167SOL    HW111508   7.610   4.334   1.856  1.4505  0.7619 -0.0357
 3167SOL    HW211509   7.672   4.446   1.936 -1.9635  2.0556  0.9750
 3168SOL     OW11510   7.785   7.178   0.013 -0.1507 -0.1726 -0.3979
 3168SOL    HW111511   7.802   7.272   0.021  0.1026 -0.3430  1.4759
 3168SOL    HW211512   7.777   7.163  -0.081  1.4510  1.4422 -0.8390
 3169SOL     OW11513   3.968   7.292   6.884 -0.1007  0.3355  0.0348
 3169SOL    HW111514   4.038   7.240   6.923  0.1002  0.5693 -0.0138
 3169SOL    HW211515   3.905   7.228   6.852  0.5757  0.0924 -0.8374
 3170SOL     OW11516   4.515   1.302   6.698 -0.1502 -0.5680 -0.0216
 3170SOL    HW111517   4.476   1.234   6.642 -0.7642  0.5042 -0.9290
 3170SOL    HW211518   4.550   1.253   6.773 -2.4941 -1.7046  0.4409
 3171SOL     OW11519   8.979   3.923   4.855  0.1479 -0.0971 -0.2357
 3171SOL    HW111520   9.046   3.875   4.904 -1.3057 -1.5249  0.4152
 3171SOL    HW211521   9.003   3.910   4.763  1.5594  0.6448 -0.0069
 3172SOL     OW11522   5.204   7.726   8.879  0.3557 -0.2674  0.0808
 3172SOL    HW111523   5.233   7.673   8.805 -1.5545 -0.5964 -0.4657
 3172SOL    HW211524   5.286   7.753   8.922  1.5322  0.0181 -2.1758
 3173SOL     OW11525   7.097  10.459   2.856  0.3048  0.3304 -0.0215
 3173SOL    HW111526   7.178  10.500   2.885 -0.1571  1.5254 -0.3916
 3173SOL    HW211527   7.097  10.470   2.761  0.5174 -1.1902 -0.2243
 3174SOL     OW11528  10.620   7.784   4.946  0.1397  0.1004  0.1046
 3174SOL    HW111529  10.533   7.813   4.973  0.2955  0.8364 -0.1588
 3174SOL    HW211530  10.670   7.781   5.027 -0.1423 -0.3667  0.2635
 3175SOL     OW11531   9.991   3.624   3.316 -0.2225  0.0049  0.0990
 3175SOL    HW111532   9.979   3.697   3.377  2.0100  1.5180 -1.1438
 3175SOL    HW211533   9.951   3.655   3.234 -1.1885 -1.0958  0.1317
 3176SOL     OW11534   6.006   6.753   2.219 -0.0995 -0.7318 -0.1054
 3176SOL    HW111535   6.004   6.657   2.216 -2.3272 -0.8058  1.6550
 3176SOL    HW211536   6.014   6.774   2.312 -0.1728  0.8152 -0.4202
 3177SOL     OW11537   5.955   8.796   7.856  0.0415  0.0680  0.5007
 3177SOL    HW111538   5.882   8.856   7.844  0.6143  0.6316 -0.2446
 3177SOL    HW211539   6.031   8.844   7.823  0.4229 -1.2856 -0.6861
 3178SOL     OW11540  10.585   3.729   5.802  0.2589 -0.5154  0.2529
 3178SOL    HW111541  10.670   3.767   5.779  1.2807 -3.1816 -0.8113
 3178SOL    HW211542  10.603   3.673   5.877 -0.2293 -2.0905 -0.7529
 3179SOL     OW11543   8.488   0.187   8.586  0.2886 -0.0584 -0.8705
 3179SOL    HW111544   8.486   0.092   8.594  2.5223  0.0054  2.9434
 3179SOL    HW211545   8.548   0.204   8.513 -0.5613 -1.4699 -1.9671
 3180SOL     OW11546   4.475   2.397   3.707  0.1844 -0.0235 -0.3487
 3180SOL    HW111547   4.440   2.314   3.741  3.2550 -1.8049 -1.0930
 3180SOL    HW211548   4.555   2.411   3.758  1.2807  0.8717 -2.2179
 3181SOL     OW11549   1.114   1.664   9.884  0.2724 -0.2554 -0.2040
 3181SOL    HW111550   1.121   1.589   9.825  0.2724 -0.3839 -0.0432
 3181SOL    HW211551   1.138   1.629   9.970  3.3139  0.6088 -0.5835
 3182SOL     OW11552   0.731   4.491   2.024 -0.3179  0.2619  0.0792
 3182SOL    HW111553   0.747   4.482   1.930  2.9368  0.5546  0.4947
 3182SOL    HW211554   0.644   4.454   2.037  0.3104 -2.5366 -2.6225
 3183SOL     OW11555   4.609   8.986   4.827  0.4722 -0.5256 -0.0447
 3183SOL    HW111556   4.629   8.960   4.738  1.0481  0.2785 -0.1634
 3183SOL    HW211557   4.624   8.908   4.880 -0.8669 -1.3051 -0.7612
 3184SOL     OW11558   4.309   7.881   9.836 -0.3618 -0.0822  0.2894
 3184SOL    HW111559   4.389   7.884   9.784 -0.7463  1.1271 -0.2548
 3184SOL    HW211560   4.310   7.962   9.887 -1.2425 -0.0512  0.2710
 3185SOL     OW11561   9.760   3.347   5.860  0.6847  0.1451 -0.1074
 3185SOL    HW111562   9.834   3.288   5.870 -0.0126 -0.6475  0.5195
 3185SOL    HW211563   9.685   3.297   5.891  0.0636  1.3418  0.3975
 3186SOL     OW11564   8.145   7.575   3.517 -0.6810  0.2588  0.1700
 3186SOL    HW111565   8.108   7.658   3.546 -0.8941  0.6679 -1.1982
 3186SOL    HW211566   8.240   7.589   3.519 -0.7183  1.2851 -1.9502
 3187SOL     OW11567   1.840  10.101   4.730  0.3064 -0.0568 -0.0611
 3187SOL    HW111568   1.869  10.123   4.642  0.5081  0.3915  0.1130
 3187SOL    HW211569   1.772  10.166   4.750  0.0983 -0.2984  0.0296
 3188SOL     OW11570   7.378   9.342   5.821  0.0053 -0.0059  0.1230
 3188SOL    HW111571   7.338   9.281   5.883  0.0004 -0.1228  0.0059
 3188SOL    HW211572   7.471   9.341   5.844  0.0150 -0.1072  0.0811
 3189SOL     OW11573  10.145   7.619   8.780 -0.3725 -0.0708  0.1460
 3189SOL    HW111574  10.215   7.573   8.734 -1.7371 -0.9121 -1.1532
 3189SOL    HW211575  10.083   7.644   8.712 -0.2541  2.7505  0.9557
 3190SOL     OW11576   3.399   6.708   4.738  0.0471  0.4657  0.4907
 3190SOL    HW111577   3.376   6.749   4.822 -1.1323  1.9002 -0.4784
 3190SOL    HW211578   3.416   6.782   4.680 -1.2920 -0.4004 -1.0918
 3191SOL     OW11579   4.599   4.658   4.842  0.0902  0.7062  0.0387
 3191SOL    HW111580   4.509   4.690   4.850 -0.3067 -0.3468 -0.0809
 3191SOL    HW211581   4.619   4.665   4.749 -0.4552 -0.5639 -0.1886
 3192SOL     OW11582   3.050   1.833   0.274  0.1742 -0.3452 -0.3238
 3192SOL    HW111583   3.132   1.834   0.224  0.7395  1.4844  0.5597
 3192SOL    HW211584   2.982   1.832   0.206  0.8962 -1.3908 -1.0728
 3193SOL     OW11585   3.258   9.872   4.724  0.4744  0.2025 -0.0859
 3193SOL    HW111586   3.351   9.893   4.719  0.4577  0.1748 -0.5676
 3193SOL    HW211587   3.215   9.940   4.673  0.2330  0.1894  0.0978
 3194SOL     OW11588   1.245   1.960   3.815 -0.9138  0.0620 -0.2176
 3194SOL    HW111589   1.274   2.016   3.887 -0.6447  1.2571 -1.2383
 3194SOL    HW211590   1.261   1.871   3.847 -1.0048  0.5521  1.2859
 3195SOL     OW11591   8.409   4.863   2.357 -0.0389  0.1444  0.1284
 3195SOL    HW111592   8.484   4.819   2.396  0.0052  0.5559  0.5200
 3195SOL    HW211593   8.368   4.797   2.301 -0.6701 -0.7665  1.6035
 3196SOL     OW11594  10.349   7.915   4.393  0.1810  0.2050 -0.6431
 3196SOL    HW111595  10.337   7.856   4.318  1.6365 -1.1448  0.1176
 3196SOL    HW211596  10.268   7.908   4.443 -0.6706  0.8670 -1.8961
 3197SOL     OW11597   0.821   7.961   4.515  0.2762 -0.0527 -0.1243
 3197SOL    HW111598   0.864   8.043   4.541  1.3137 -0.6063 -0.0233
 3197SOL    HW211599   0.729   7.984   4.506  0.3831  0.8755  0.9501
 3198SOL     OW11600  10.841   5.596   1.599  0.1415 -0.1154 -0.0772
 3198SOL    HW111601  10.858   5.632   1.512 -1.0471 -3.4535 -1.8762
 3198SOL    HW211602  10.757   5.635   1.625  1.2328  2.0981  0.4060
 3199SOL     OW11603   1.477   5.393   2.776 -0.6658  0.6115  0.2918
 3199SOL    HW111604   1.381   5.390   2.771 -0.5992  0.2577 -1.8508
 3199SOL    HW211605   1.502   5.458   2.710  0.5340  2.3021  2.2811
 3200SOL     OW11606   6.750   2.925  10.675  0.1504  0.0272 -0.6482
 3200SOL    HW111607   6.678   2.952  10.733  2.4625  0.1284  2.4460
 3200SOL    HW211608   6.819   2.990  10.690  2.0538 -1.7952 -0.9787
 3201SOL     OW11609   7.026   3.995   1.507 -0.3922  0.0521  0.0606
 3201SOL    HW111610   6.995   4.058   1.443  0.2514  0.2714 -0.0396
 3201SOL    HW211611   7.085   4.045   1.564  0.5064 -0.5544 -0.3132
 3202SOL     OW11612   2.606   3.172   3.419  0.0356  0.2091  0.6421
 3202SOL    HW111613   2.648   3.103   3.469 -2.6313  0.6664  3.8199
 3202SOL    HW211614   2.540   3.127   3.367 -0.3907  0.1682  1.2149
 3203SOL     OW11615   8.143   0.980   8.514 -0.1800 -0.2516 -0.8507
 3203SOL    HW111616   8.147   0.896   8.468 -1.5402 -1.7590  1.5010
 3203SOL    HW211617   8.049   0.991   8.534  0.3066  0.2648  1.4568
 3204SOL     OW11618   5.738   6.029   7.895  0.4120  0.6171 -0.1727
 3204SOL    HW111619   5.803   6.082   7.942  2.4874 -2.0554  0.2622
 3204SOL    HW211620   5.674   6.004   7.962  0.4716  1.0292  0.0401
 3205SOL     OW11621   2.150   1.248   8.667 -0.7830  0.2881 -0.0633
 3205SOL    HW111622   2.216   1.210   8.609 -0.3911  2.3935 -1.0730
 3205SOL    HW211623   2.074   1.260   8.610 -0.0440  3.4056 -0.5508
 3206SOL     OW11624  10.857   5.791   1.367 -0.5005 -0.2756 -0.5459
 3206SOL    HW111625  10.873   5.870   1.315  1.5062 -1.5072 -1.9403
 3206SOL    HW211626  10.778   5.812   1.418  0.3214  2.8416 -0.3236
 3207SOL     OW11627   4.229   4.475   1.344  0.0947 -0.3638 -0.0646
 3207SOL    HW111628   4.217   4.544   1.409  0.7870  0.6069 -0.9297
 3207SOL    HW211629   4.322   4.481   1.320 -0.3872  0.1282 -1.9989
 3208SOL     OW11630   0.231   1.020   6.247  0.1998  0.2078 -0.6039
 3208SOL    HW111631   0.135   1.018   6.246  0.1514  1.1195  0.1613
 3208SOL    HW211632   0.255   1.025   6.154 -0.5547  1.3414 -0.7698
 3209SOL     OW11633   9.513   9.581   1.997  0.3439  0.5963 -0.1158
 3209SOL    HW111634   9.495   9.665   2.039  0.8000  0.8630 -0.4395
 3209SOL    HW211635   9.583   9.542   2.050  0.8773  0.9054 -0.5858
 3210SOL     OW11636   5.760   8.952   3.904 -0.1586  0.3631  0.2647
 3210SOL    HW111637   5.833   8.901   3.869 -0.6570 -0.6032  0.5980
 3210SOL    HW211638   5.712   8.980   3.826  0.6257  1.1209  0.0371
 3211SOL     OW11639   4.034   5.912   0.566  0.0885 -0.0758 -0.4407
 3211SOL    HW111640   4.080   5.933   0.647  0.5750  0.3284 -0.8184
 3211SOL    HW211641   3.959   5.972   0.565 -0.3807 -0.6332  0.1006
 3212SOL     OW11642   9.428   6.880   8.227 -0.2485  0.5412  0.1443
 3212SOL    HW111643   9.360   6.843   8.283 -1.6414  1.7693 -0.6765
 3212SOL    HW211644   9.427   6.825   8.148 -2.1295  2.0504 -0.9599
 3213SOL     OW11645  10.976   6.784   1.962  0.0529  0.2319  0.4300
 3213SOL    HW111646  10.899   6.838   1.945 -0.9040 -1.7464 -2.2464
 3213SOL    HW211647  11.048   6.846   1.966 -0.8876  1.8228 -3.0988
 3214SOL     OW11648   7.705   9.365  10.901 -0.3563  0.1026 -0.0814
 3214SOL    HW111649   7.786   9.318  10.880 -1.0950 -0.8702 -0.9091
 3214SOL    HW211650   7.703   9.367  10.997  0.1189 -0.8320 -0.0353
 3215SOL     OW11651   3.888   6.128   6.741  0.2156  0.5201  0.2793
 3215SOL    HW111652   3.794   6.126   6.727  0.2855 -1.0907 -0.1266
 3215SOL    HW211653   3.920   6.196   6.681 -0.4673 -0.4030 -1.1826
 3216SOL     OW11654   1.913  11.121   6.552 -0.4064 -0.0522 -0.3777
 3216SOL    HW111655   1.862  11.049   6.515 -0.9107  0.3258 -0.4309
 3216SOL    HW211656   1.941  11.172   6.476 -0.4558  0.0727 -0.3126
 3217SOL     OW11657   5.385   3.518   8.857 -0.3272 -0.1288 -0.0441
 3217SOL    HW111658   5.416   3.521   8.767 -1.5196  0.9718 -0.4379
 3217SOL    HW211659   5.306   3.465   8.853 -0.1317 -0.4707  0.4550
 3218SOL     OW11660   0.759   5.704   3.153 -0.4497  0.3982  0.3534
 3218SOL    HW111661   0.740   5.798   3.152  1.6448  0.8956  0.7524
 3218SOL    HW211662   0.841   5.697   3.103 -0.2026 -1.1209  0.9345
 3219SOL     OW11663   0.058   9.132   2.028  0.5653  0.2592 -0.0116
 3219SOL    HW111664  -0.032   9.133   1.996  0.8902 -0.8242 -1.0179
 3219SOL    HW211665   0.079   9.225   2.043 -0.1443  0.6871 -1.4521
 3220SOL     OW11666   6.329   6.501   2.240 -0.1350  0.4406 -0.7187
 3220SOL    HW111667   6.281   6.501   2.322  0.1219  0.3716 -0.5660
 3220SOL    HW211668   6.366   6.412   2.234 -2.9035 -0.7136 -2.5377
 3221SOL     OW11669  10.538   6.042  10.552  0.3121  0.0314 -0.7747
 3221SOL    HW111670  10.580   5.969  10.507 -0.9239 -0.5411 -1.0167
 3221SOL    HW211671  10.477   6.078  10.488  0.8619  1.2577 -0.6365
 3222SOL     OW11672   6.123   0.120   8.527 -0.0911 -0.8370 -0.0611
 3222SOL    HW111673   6.125   0.026   8.506 -0.0508 -0.2114 -3.3831
 3222SOL    HW211674   6.055   0.156   8.470 -0.4233  1.1413  1.4720
 3223SOL     OW11675   2.241   3.995  10.576 -0.1954  0.3916 -0.6957
 3223SOL    HW111676   2.314   4.056  10.565  1.4144 -1.4942 -0.9951
 3223SOL    HW211677   2.201   3.989  10.489  0.7698 -0.3137 -1.1031
 3224SOL     OW11678   2.177   8.721   2.844 -0.3671  0.1761 -0.0487
 3224SOL    HW111679   2.099   8.717   2.900 -1.0440  1.3998 -0.8543
 3224SOL    HW211680   2.163   8.653   2.779 -0.2127 -0.3577  0.4655
 3225SOL     OW11681   4.115   3.659   4.837 -0.5994 -0.1748  0.6186
 3225SOL    HW111682   4.103   3.641   4.743 -2.3470  0.6373  0.6443
 3225SOL    HW211683   4.152   3.578   4.871  2.9475  0.4789 -1.2088
 3226SOL     OW11684   5.947   9.971   3.146  0.4206  0.4214  0.1184
 3226SOL    HW111685   5.985  10.058   3.161  2.3261 -0.5406  1.1480
 3226SOL    HW211686   6.006   9.911   3.190 -0.9077 -1.4247 -0.5075
 3227SOL     OW11687   8.373   8.902   3.239 -0.2842 -0.2573  0.2146
 3227SOL    HW111688   8.396   8.814   3.269 -1.5821 -0.7947 -0.2671
 3227SOL    HW211689   8.285   8.917   3.274 -0.9469 -0.0272 -1.4249
 3228SOL     OW11690   2.662   1.786   1.533  0.8742 -0.3635 -0.3348
 3228SOL    HW111691   2.592   1.782   1.599  1.4003  3.8026  0.7247
 3228SOL    HW211692   2.742   1.771   1.583  1.1135  0.4389 -0.4756
 3229SOL     OW11693   6.579   4.759  11.040 -0.2611 -0.2502  0.4841
 3229SOL    HW111694   6.604   4.800  11.123  0.2228 -2.7028  1.6390
 3229SOL    HW211695   6.497   4.802  11.016  0.8542  2.2898  0.8398
 3230SOL     OW11696   6.251   9.300   4.983  0.4648  0.5626  0.2176
 3230SOL    HW111697   6.340   9.323   4.954  0.7362  0.5248  0.9857
 3230SOL    HW211698   6.205   9.278   4.903  2.0648 -2.5606 -0.0018
 3231SOL     OW11699   6.007   9.385   2.236  0.0030  0.1900 -0.3078
 3231SOL    HW111700   5.951   9.395   2.159 -0.7618 -0.0571  0.2017
 3231SOL    HW211701   5.997   9.467   2.284  2.5735  1.4690 -1.7761
 3232SOL     OW11702   1.376   8.243   3.835 -0.4028 -0.4488 -0.7086
 3232SOL    HW111703   1.300   8.186   3.853  0.1525 -0.4025  2.2987
 3232SOL    HW211704   1.445   8.183   3.806 -1.0757 -0.6736 -1.9495
 3233SOL     OW11705   3.947   0.237   2.286 -0.9287 -0.3338  0.2853
 3233SOL    HW111706   4.002   0.233   2.208 -0.4843 -0.5162  0.6059
 3233SOL    HW211707   3.948   0.148   2.321  1.0888  0.2834  1.9973
 3234SOL     OW11708   5.826   9.169   2.637  0.3708  0.7220 -0.0159
 3234SOL    HW111709   5.824   9.256   2.598 -0.5190  0.2614 -1.0296
 3234SOL    HW211710   5.860   9.112   2.568  3.6174  0.6341  1.4818
 3235SOL     OW11711   1.128   8.982   7.607  0.2298  0.3932 -0.1602
 3235SOL    HW111712   1.212   9.018   7.635 -0.6464  0.1835  3.1489
 3235SOL    HW211713   1.063   9.043   7.641 -1.0430 -0.7257 -0.4980
 3236SOL     OW11714   5.019   7.805   1.526 -0.0917 -0.7593 -0.4416
 3236SOL    HW111715   5.090   7.776   1.583  0.2842  3.0161  1.3533
 3236SOL    HW211716   4.949   7.741   1.538  0.8973 -1.4450  2.3747
 3237SOL     OW11717   8.191   0.053  11.211  0.1600  0.0647 -0.2842
 3237SOL    HW111718   8.101   0.085  11.204  0.3562  0.2536 -2.6072
 3237SOL    HW211719   8.186  -0.022  11.270 -1.5109  0.0994 -0.3537
 3238SOL     OW11720   0.199  10.293   8.211 -0.7029 -0.2936  0.5638
 3238SOL    HW111721   0.183  10.331   8.125 -0.2583  0.6848  0.9002
 3238SOL    HW211722   0.122  10.238   8.228 -2.5329  2.2088  1.0210
 3239SOL     OW11723   5.093   9.348   0.573 -0.3963 -0.4914 -0.3996
 3239SOL    HW111724   5.055   9.290   0.506 -0.9553 -1.4495  0.7068
 3239SOL    HW211725   5.075   9.303   0.655  1.2305  0.1275  0.3274
 3240SOL     OW11726   2.527   2.285  10.348 -0.4093 -0.0044 -0.0555
 3240SOL    HW111727   2.544   2.195  10.372  0.1678 -0.0024 -0.4404
 3240SOL    HW211728   2.585   2.302  10.274 -1.7958  0.1203 -1.1628
 3241SOL     OW11729   0.308   0.294   2.076  0.1280 -0.0377 -0.0697
 3241SOL    HW111730   0.328   0.283   1.983  3.8381 -2.6273  0.8193
 3241SOL    HW211731   0.385   0.338   2.112 -0.4243 -0.7283  2.0706
 3242SOL     OW11732   7.474   0.514   8.026  0.1408  0.4023 -0.4148
 3242SOL    HW111733   7.464   0.543   7.935 -0.1182  1.8007  0.0306
 3242SOL    HW211734   7.396   0.462   8.043  0.4356 -0.2930 -1.1407
 3243SOL     OW11735   0.511   5.688   4.113  0.0342 -0.0745  0.4960
 3243SOL    HW111736   0.557   5.639   4.045  0.1828 -0.9028  1.1649
 3243SOL    HW211737   0.448   5.742   4.066 -0.8972 -1.7051 -0.2342
 3244SOL     OW11738   7.862  10.444   8.392  0.1262 -0.2588  0.0307
 3244SOL    HW111739   7.906  10.522   8.426  2.4818 -1.0539 -1.0061
 3244SOL    HW211740   7.814  10.475   8.315  0.8164  0.2388 -0.2083
 3245SOL     OW11741   2.937   4.881   6.548  0.3946 -0.0149 -0.2277
 3245SOL    HW111742   2.841   4.871   6.545  0.3983  0.1560 -1.2963
 3245SOL    HW211743   2.951   4.975   6.548  0.5787 -0.0317 -1.2825
 3246SOL     OW11744   6.297   4.727   4.888  0.2609  0.0473 -0.1651
 3246SOL    HW111745   6.222   4.713   4.946  1.1507  0.0910  1.0107
 3246SOL    HW211746   6.310   4.822   4.887 -1.2854  0.3277 -2.4565
 3247SOL     OW11747   8.081   5.236   3.672 -0.2034  0.0944 -0.8682
 3247SOL    HW111748   8.052   5.184   3.747 -0.8372  1.4440 -0.1362
 3247SOL    HW211749   8.076   5.176   3.598  0.1395 -1.1869  0.1096
 3248SOL     OW11750   3.777   5.177   2.535 -0.4142 -0.2230 -0.0430
 3248SOL    HW111751   3.817   5.163   2.621  0.3764 -0.7087 -0.4817
 3248SOL    HW211752   3.838   5.136   2.473 -1.3279 -0.5108 -0.7739
 3249SOL     OW11753   0.285  10.636   7.714 -0.0306  0.3454 -0.0915
 3249SOL    HW111754   0.362  10.616   7.767  0.4611  1.1213 -0.4748
 3249SOL    HW211755   0.317  10.632   7.624  0.1342  2.7120 -0.2145
 3250SOL     OW11756   2.638   0.639   2.406  0.0082  0.1712 -0.4326
 3250SOL    HW111757   2.704   0.610   2.344  0.4340  2.0997 -0.9290
 3250SOL    HW211758   2.678   0.625   2.492  1.6475  2.4914 -0.7405
 3251SOL     OW11759   0.005   5.457   6.516  0.0784  0.0736 -0.1190
 3251SOL    HW111760  -0.000   5.364   6.535  1.9813  0.4657  2.9639
 3251SOL    HW211761   0.085   5.486   6.559 -0.4763  3.1779 -0.9141
 3252SOL     OW11762   2.235   7.312   8.170  0.5389  0.6393  0.2137
 3252SOL    HW111763   2.267   7.268   8.248  0.0644  2.2410  1.3664
 3252SOL    HW211764   2.239   7.405   8.191 -0.1074  1.0950 -1.4779
 3253SOL     OW11765   8.630   0.657   6.320 -0.0988  0.3866 -0.4995
 3253SOL    HW111766   8.550   0.687   6.363  0.3239 -0.1503  0.7256
 3253SOL    HW211767   8.685   0.624   6.392  0.3623 -1.2182 -1.5223
 3254SOL     OW11768   4.250   6.579   1.581  0.2292 -0.0888  0.0745
 3254SOL    HW111769   4.212   6.665   1.563  1.0287  0.3724  0.5371
 3254SOL    HW211770   4.175   6.523   1.603 -0.1337  1.0046  1.7950
 3255SOL     OW11771   3.274  11.225   8.260 -0.5051 -0.2851  0.3315
 3255SOL    HW111772   3.183  11.247   8.284 -0.1809  0.1794  1.1881
 3255SOL    HW211773   3.296  11.288   8.191 -0.9826 -0.7123 -0.2240
 3256SOL     OW11774   6.943   0.238   1.543 -0.0643 -0.3209 -0.4776
 3256SOL    HW111775   6.968   0.330   1.550  2.2968 -0.9004 -0.3607
 3256SOL    HW211776   6.853   0.239   1.512 -0.4352  2.0257  0.5058
 3257SOL     OW11777  10.803   1.862   6.751  0.4793  0.0929 -0.3722
 3257SOL    HW111778  10.776   1.774   6.722 -0.8790  0.9783 -1.9720
 3257SOL    HW211779  10.722   1.913   6.751  1.2707  1.3949  0.3920
 3258SOL     OW11780  10.160   2.984   3.775  0.5544  0.1706  0.4439
 3258SOL    HW111781  10.219   2.977   3.850  0.0487  4.1362  1.4167
 3258SOL    HW211782  10.072   2.977   3.813  0.2930 -0.9790 -0.3130
 3259SOL     OW11783   7.668   3.258  10.425  0.5050 -0.9125  0.0470
 3259SOL    HW111784   7.660   3.312  10.503 -1.2401  0.6195 -1.0971
 3259SOL    HW211785   7.618   3.179  10.445 -0.9524 -0.0115  0.0947
 3260SOL     OW11786  10.801   3.917   1.614  0.3241  0.1873  0.0502
 3260SOL    HW111787  10.856   3.843   1.641  0.6140 -0.5009 -2.1986
 3260SOL    HW211788  10.859   3.993   1.620  1.2094 -0.3524 -1.1622
 3261SOL     OW11789   5.455   9.332   8.490  0.5821 -0.0325  0.8631
 3261SOL    HW111790   5.370   9.295   8.514 -1.5840  2.6361 -1.9071
 3261SOL    HW211791   5.491   9.270   8.426 -0.5253  0.0330  0.1566
 3262SOL     OW11792   7.631   1.036   9.494 -0.4270  0.1369 -0.5705
 3262SOL    HW111793   7.537   1.024   9.504 -0.6364  1.1475 -1.1471
 3262SOL    HW211794   7.646   1.128   9.518  0.9851 -0.8848  3.2440
 3263SOL     OW11795   0.959  10.822   1.595  0.3835  0.1050 -0.7191
 3263SOL    HW111796   0.886  10.761   1.588  0.1939  0.1905  0.3535
 3263SOL    HW211797   0.942  10.888   1.527 -2.0405  1.6454  1.2080
 3264SOL     OW11798   9.401   4.081   5.447  0.2960  0.6918  0.3348
 3264SOL    HW111799   9.445   4.086   5.532  0.9361 -0.0041  0.0566
 3264SOL    HW211800   9.448   4.012   5.400  0.1209  1.2587 -0.6889
 3265SOL     OW11801   4.003   9.556   6.517  0.6078 -0.3475 -0.1307
 3265SOL    HW111802   3.918   9.592   6.543  1.1053  1.5240 -0.9232
 3265SOL    HW211803   3.995   9.538   6.424  1.8620  2.5205 -0.8944
 3266SOL     OW11804   5.306   3.179   1.372 -0.1371  0.0416  0.1889
 3266SOL    HW111805   5.317   3.240   1.444 -0.3993 -0.3582  0.5749
 3266SOL    HW211806   5.307   3.233   1.293 -2.0437  0.7593  0.6102
 3267SOL     OW11807   1.364   0.867   3.370  0.0828  0.1553  0.2172
 3267SOL    HW111808   1.432   0.807   3.399 -0.9470 -0.2701  1.8828
 3267SOL    HW211809   1.410   0.936   3.322  1.9788  1.0313  3.0583
 3268SOL     OW11810   8.801   5.330   2.539  1.2240 -0.5641  0.2735
 3268SOL    HW111811   8.802   5.235   2.526 -1.0197 -0.7636  1.1644
 3268SOL    HW211812   8.781   5.342   2.631  1.5493  0.7949  0.1874
 3269SOL     OW11813   3.607   1.963  10.236  0.2127 -0.1446 -0.3075
 3269SOL    HW111814   3.566   1.925  10.314 -0.5426 -0.0574 -0.6476
 3269SOL    HW211815   3.620   2.055  10.259  0.9641 -0.3440  0.0910
 3270SOL     OW11816   5.382   8.355   3.009 -0.3538  0.3287 -0.5616
 3270SOL    HW111817   5.328   8.277   3.014 -0.2686  0.3282  1.2334
 3270SOL    HW211818   5.466   8.329   3.048 -0.7053  1.5603  1.1755
 3271SOL     OW11819  10.739   2.831   8.440 -0.4957 -0.0882 -0.3689
 3271SOL    HW111820  10.663   2.861   8.389  0.9185  0.9583 -1.9668
 3271SOL    HW211821  10.737   2.884   8.519 -0.4732  1.1808 -1.1938
 3272SOL     OW11822   5.423   5.815   4.228 -0.4117 -0.6482 -0.2499
 3272SOL    HW111823   5.515   5.791   4.224  0.1367  1.3838 -0.9547
 3272SOL    HW211824   5.421   5.895   4.281 -1.6679 -0.2761 -0.8051
 3273SOL     OW11825   4.821   6.866   8.119 -0.2038 -0.5947  0.2324
 3273SOL    HW111826   4.864   6.919   8.052  0.8861 -0.4169  1.0478
 3273SOL    HW211827   4.735   6.845   8.082 -0.3651  1.1006 -0.4057
 3274SOL     OW11828   1.415   8.572   0.033 -0.5633  0.4593 -0.4672
 3274SOL    HW111829   1.320   8.583   0.041 -0.4856  0.4254  0.7881
 3274SOL    HW211830   1.428   8.478   0.024 -0.6505  0.4557 -0.5482
 3275SOL     OW11831   0.668   3.691  11.245  0.1450  0.4361  0.0761
 3275SOL    HW111832   0.638   3.601  11.238  0.1923  0.3250  1.0892
 3275SOL    HW211833   0.753   3.692  11.202  0.0516  0.0436 -0.1125
 3276SOL     OW11834   2.774   2.896   9.370 -0.0259  0.2600 -1.0097
 3276SOL    HW111835   2.680   2.898   9.352  0.0150 -1.7378 -1.6783
 3276SOL    HW211836   2.807   2.823   9.318  1.8850  0.8364 -0.6747
 3277SOL     OW11837   8.454   2.792   8.904  0.6674  0.2579 -0.0518
 3277SOL    HW111838   8.370   2.825   8.873  0.7077  1.1077  0.7078
 3277SOL    HW211839   8.440   2.698   8.912 -0.4305  0.4612  0.6879
 3278SOL     OW11840   7.398   8.357   9.419  0.2193 -0.2299 -0.1473
 3278SOL    HW111841   7.412   8.332   9.511 -1.1018 -0.1813  0.0793
 3278SOL    HW211842   7.344   8.436   9.424 -0.1525 -0.4280 -0.9830
 3279SOL     OW11843   5.160   0.607   4.422  0.7764 -0.1511  0.5895
 3279SOL    HW111844   5.227   0.634   4.360 -0.0680 -0.1664 -0.3569
 3279SOL    HW211845   5.156   0.678   4.486  1.7485 -0.1985  0.7101
 3280SOL     OW11846   8.712   0.408   3.828  0.7254  0.3601  0.1093
 3280SOL    HW111847   8.751   0.324   3.802  1.0756  0.1294  1.3234
 3280SOL    HW211848   8.738   0.468   3.759  1.7405 -0.2033 -0.0207
 3281SOL     OW11849   2.790   7.418  10.742  0.0056  0.7272 -0.2777
 3281SOL    HW111850   2.856   7.459  10.686  0.0790  0.2992 -0.5028
 3281SOL    HW211851   2.793   7.469  10.823  0.8435  0.5027 -0.1617
 3282SOL     OW11852   4.572   7.770   1.662 -0.4750 -0.4578  0.2765
 3282SOL    HW111853   4.484   7.731   1.663  0.1405 -1.9653 -0.5285
 3282SOL    HW211854   4.582   7.804   1.573  0.4829 -2.1565 -0.3120
 3283SOL     OW11855   9.467   3.016   1.049 -0.1196 -0.1941 -0.2622
 3283SOL    HW111856   9.526   2.978   0.983 -0.4756  0.3404 -0.9082
 3283SOL    HW211857   9.523   3.035   1.124  0.4290 -0.1908 -0.6661
 3284SOL     OW11858   1.943   2.347  10.847 -0.5162 -1.0290  0.4679
 3284SOL    HW111859   1.908   2.290  10.916  0.6100 -0.1459  1.8528
 3284SOL    HW211860   1.883   2.336  10.774 -1.3863 -2.5455  1.3388
 3285SOL     OW11861   4.384   0.831   5.276  0.6595  0.4718 -0.1711
 3285SOL    HW111862   4.367   0.793   5.362  1.2153 -1.0938 -0.7164
 3285SOL    HW211863   4.298   0.860   5.244 -0.0700 -1.6752 -0.3197
 3286SOL     OW11864   1.135   5.394   8.848  0.2746 -0.2015 -0.6729
 3286SOL    HW111865   1.106   5.444   8.924 -1.2682  0.1992 -1.4931
 3286SOL    HW211866   1.120   5.453   8.774  0.6394 -1.0277 -1.4205
 3287SOL     OW11867  11.070   4.928   3.592  0.1303 -0.2456  0.0956
 3287SOL    HW111868  11.137   4.895   3.532 -1.2023 -3.9082  0.3592
 3287SOL    HW211869  10.991   4.937   3.538  0.2193  1.8409  0.2457
 3288SOL     OW11870  10.810   5.686  10.390 -0.3671  0.2144  0.4866
 3288SOL    HW111871  10.770   5.621  10.333  0.1136  0.2530  0.0953
 3288SOL    HW211872  10.737   5.728  10.434 -0.7533  0.2591 -0.1844
 3289SOL     OW11873   4.110   0.718   6.688 -0.0774  0.3539  0.1631
 3289SOL    HW111874   4.085   0.692   6.599 -0.5215  2.2133 -0.3078
 3289SOL    HW211875   4.036   0.692   6.743  0.2892 -0.9974  0.0507
 3290SOL     OW11876   3.965  11.136   3.719 -0.1832  0.3721 -0.6089
 3290SOL    HW111877   4.012  11.181   3.790  0.4622 -0.8909 -0.1989
 3290SOL    HW211878   3.878  11.176   3.719 -0.1031  0.6115  0.6982
 3291SOL     OW11879   3.056   0.498   0.353 -0.1834  0.6378  0.1703
 3291SOL    HW111880   3.136   0.549   0.362 -0.6596  1.0120  3.3292
 3291SOL    HW211881   2.992   0.544   0.407 -2.3576 -0.0741 -1.6461
 3292SOL     OW11882  10.139   7.461   6.816 -0.0289  0.3394 -0.3900
 3292SOL    HW111883  10.058   7.509   6.836 -0.4598 -0.4095 -0.2889
 3292SOL    HW211884  10.135   7.384   6.872  1.8374  1.3560  1.2784
 3293SOL     OW11885   4.043   8.600   1.881 -0.1737  0.1556 -0.5854
 3293SOL    HW111886   4.074   8.512   1.900 -1.2385 -0.6082 -2.1550
 3293SOL    HW211887   4.051   8.647   1.964 -0.7944 -1.7778  0.6411
 3294SOL     OW11888   0.273   5.085   1.859 -0.0943 -0.0870  0.4339
 3294SOL    HW111889   0.293   5.176   1.836  1.8910 -0.7157 -0.5781
 3294SOL    HW211890   0.304   5.076   1.949 -1.6334  0.5692  1.0764
 3295SOL     OW11891  10.576   4.638   1.603  0.5308  0.6554 -0.2359
 3295SOL    HW111892  10.624   4.710   1.562  0.0843  1.7629  1.0912
 3295SOL    HW211893  10.532   4.594   1.530  1.2500  1.3742 -1.1379
 3296SOL     OW11894  10.041   3.975   7.002  0.4125  0.6892 -0.0817
 3296SOL    HW111895   9.955   3.973   6.960  0.1344 -0.7334  0.5084
 3296SOL    HW211896  10.099   3.934   6.938  0.3500  0.2298  0.1552
 3297SOL     OW11897   1.355   2.431   5.858 -0.8918 -0.0060 -0.0732
 3297SOL    HW111898   1.264   2.413   5.835 -1.0724 -0.4185  0.8902
 3297SOL    HW211899   1.394   2.465   5.778 -1.8804  0.1303 -0.5143
 3298SOL     OW11900   8.534   7.348   5.591 -0.0017  0.2262  0.4379
 3298SOL    HW111901   8.550   7.269   5.642  0.1304  0.6726  1.1041
 3298SOL    HW211902   8.490   7.317   5.511 -1.0179 -0.3881  1.2105
 3299SOL     OW11903   7.213   2.744   5.963 -0.0709 -0.7604 -0.5103
 3299SOL    HW111904   7.170   2.790   5.892 -0.0058 -0.8847 -0.6298
 3299SOL    HW211905   7.274   2.809   6.000 -0.8622 -0.3498  0.1171
 3300SOL     OW11906   6.948  10.173   9.959  0.0851 -1.0267 -0.6833
 3300SOL    HW111907   6.943  10.109  10.030 -0.8365 -1.3362 -1.0081
 3300SOL    HW211908   6.895  10.246   9.988  0.9357 -0.5044 -0.4204
 3301SOL     OW11909   6.640   0.435   3.205 -0.0277  0.4819 -0.2740
 3301SOL    HW111910   6.594   0.473   3.130  0.2755  1.2949 -0.0477
 3301SOL    HW211911   6.591   0.466   3.281  1.4933  2.2570  0.0446
 3302SOL     OW11912   4.957   2.119   0.575  0.2244  0.8860 -0.4395
 3302SOL    HW111913   4.878   2.171   0.559  0.0940  0.4012 -1.4190
 3302SOL    HW211914   5.003   2.118   0.491  0.2716 -0.4775 -0.4162
 3303SOL     OW11915   9.793   7.922   3.207  0.1957  0.2151 -0.0535
 3303SOL    HW111916   9.794   8.014   3.183  1.2577  0.1520 -0.3056
 3303SOL    HW211917   9.708   7.909   3.250  0.4383  1.5326  0.8820
 3304SOL     OW11918   9.181   0.048   8.576 -0.1752  0.0619  0.0817
 3304SOL    HW111919   9.270   0.016   8.562 -0.4418 -0.9129  0.5579
 3304SOL    HW211920   9.152   0.075   8.489  1.2638  2.2570  0.2062
 3305SOL     OW11921  11.237   6.404   2.645 -0.1465  0.3287 -0.2873
 3305SOL    HW111922  11.236   6.499   2.656 -2.0750  0.1948  1.0129
 3305SOL    HW211923  11.320   6.387   2.599  0.7384  2.5181  0.3445
 3306SOL     OW11924   1.114   9.749   3.009  0.0230 -0.1817  0.9179
 3306SOL    HW111925   1.162   9.673   2.978  0.0452 -0.2230  1.0498
 3306SOL    HW211926   1.175   9.822   3.000 -0.7831  0.2668 -1.4580
 3307SOL     OW11927   1.102   1.749   6.915  0.5565 -0.1642  0.6515
 3307SOL    HW111928   1.017   1.710   6.934  0.1993  1.0079  1.5861
 3307SOL    HW211929   1.158   1.722   6.987  0.6856 -0.0963  0.5772
 3308SOL     OW11930   7.850   4.777   9.978  0.4249 -0.7745 -0.5686
 3308SOL    HW111931   7.755   4.780   9.993  0.4421  0.5174 -0.5930
 3308SOL    HW211932   7.883   4.716  10.044 -0.2093  0.2439  0.7400
 3309SOL     OW11933   8.416   9.431   7.391 -0.3585 -0.2764  0.1013
 3309SOL    HW111934   8.439   9.477   7.471  1.1610 -1.5634  0.4388
 3309SOL    HW211935   8.497   9.392   7.361 -0.9082  0.0813 -2.0457
 3310SOL     OW11936   9.760   6.665   6.309  0.3556 -0.2565  0.5182
 3310SOL    HW111937   9.769   6.634   6.399  1.0254  1.5787  1.1234
 3310SOL    HW211938   9.810   6.747   6.306 -3.7684  2.5339 -0.1005
 3311SOL     OW11939   3.705   5.561   9.017  0.5927 -0.8810  0.2156
 3311SOL    HW111940   3.765   5.627   8.982 -0.6494 -0.0230 -0.3880
 3311SOL    HW211941   3.716   5.566   9.112  1.0641 -0.3320  0.1342
 3312SOL     OW11942   0.276   6.535   1.834 -0.3297  0.4678 -0.7054
 3312SOL    HW111943   0.218   6.463   1.857 -1.7815  1.3117 -1.4935
 3312SOL    HW211944   0.257   6.603   1.899 -0.4328  0.8511 -1.1300
 3313SOL     OW11945   6.880   7.251   5.273 -0.2118 -0.3914 -0.3211
 3313SOL    HW111946   6.853   7.258   5.364  1.0822 -2.0605  0.2267
 3313SOL    HW211947   6.963   7.204   5.275  0.9243  1.3184 -2.2183
 3314SOL     OW11948   4.476   1.158   5.309  0.5607  0.4414  0.3073
 3314SOL    HW111949   4.412   1.207   5.362  0.8282 -0.9231  1.9843
 3314SOL    HW211950   4.515   1.096   5.371  1.4233 -0.7429 -1.3636
 3315SOL     OW11951   2.186   7.236   7.113 -0.1931  0.4995 -0.1629
 3315SOL    HW111952   2.203   7.329   7.099 -0.7233  0.4614 -1.1681
 3315SOL    HW211953   2.111   7.217   7.056  1.9494 -1.2773 -2.5829
 3316SOL     OW11954   3.487   7.041  10.659  0.7115 -0.0146  0.1483
 3316SOL    HW111955   3.422   6.977  10.689  1.2059  0.2146  1.7990
 3316SOL    HW211956   3.504   7.017  10.568 -0.2655 -1.2608  0.2715
 3317SOL     OW11957   7.602   4.721   0.616 -0.1599  0.2368  0.2505
 3317SOL    HW111958   7.655   4.764   0.682  0.2475 -0.1149  0.1595
 3317SOL    HW211959   7.512   4.729   0.647  0.1958 -2.2502  2.2350
 3318SOL     OW11960   6.665   5.252   1.003  0.0256 -0.0791  0.1287
 3318SOL    HW111961   6.646   5.329   1.057 -0.1228 -0.0369  0.0165
 3318SOL    HW211962   6.627   5.273   0.918  0.5225 -0.0186 -0.0813
 3319SOL     OW11963   6.506   2.066   4.795 -0.1844  0.0504  0.0526
 3319SOL    HW111964   6.502   2.150   4.841 -0.9278  1.4694 -2.4198
 3319SOL    HW211965   6.440   2.012   4.839 -0.0671  0.9269  1.3608
 3320SOL     OW11966   4.712   3.718  10.298  0.0625  0.1658 -0.1609
 3320SOL    HW111967   4.803   3.702  10.322  0.0650  2.1947  1.3909
 3320SOL    HW211968   4.661   3.684  10.371 -0.3690  0.1165 -0.4802
 3321SOL     OW11969   5.400   1.185   8.836  0.4579 -0.4084 -0.1101
 3321SOL    HW111970   5.370   1.153   8.751  0.6397  1.0136 -0.7361
 3321SOL    HW211971   5.400   1.107   8.892 -0.7751 -1.1580 -1.0900
 3322SOL     OW11972   2.876   4.293   8.627  0.3365  0.1362 -0.2697
 3322SOL    HW111973   2.895   4.200   8.620 -1.6469 -0.2879 -0.5913
 3322SOL    HW211974   2.813   4.311   8.557  2.0060  2.1214 -1.3628
 3323SOL     OW11975   5.079   7.343   0.170 -0.7890 -0.0144 -0.5042
 3323SOL    HW111976   5.098   7.360   0.078 -0.2757  1.6660 -0.1362
 3323SOL    HW211977   5.165   7.339   0.212 -1.0320 -0.1597 -0.0109
 3324SOL     OW11978   7.398   0.102   7.792 -0.8182 -0.3902 -0.4427
 3324SOL    HW111979   7.395   0.068   7.881 -0.8543  0.8416  0.0570
 3324SOL    HW211980   7.307   0.111   7.766 -0.8797  1.0602  0.1584
 3325SOL     OW11981   5.523   3.329   3.479  0.1783 -0.0447 -0.0762
 3325SOL    HW111982   5.511   3.418   3.445  1.8534  0.1713 -0.1704
 3325SOL    HW211983   5.457   3.277   3.434  0.3724  0.8032 -1.3906
 3326SOL     OW11984   3.168   6.495   6.085  0.2250 -0.0871  0.2513
 3326SOL    HW111985   3.072   6.487   6.080  0.3795 -1.5516 -0.9759
 3326SOL    HW211986   3.191   6.450   6.167 -0.2676  2.2897  1.8069
 3327SOL     OW11987  10.168   0.699   9.054 -0.8928  0.3465 -0.1143
 3327SOL    HW111988  10.201   0.738   8.974  0.1366  0.5260  0.3770
 3327SOL    HW211989  10.211   0.748   9.124 -0.9673 -0.4881  0.5306
 3328SOL     OW11990   5.138   4.845   0.080  0.1667 -0.2820 -0.2409
 3328SOL    HW111991   5.190   4.777   0.036  1.7899  1.0953 -0.5632
 3328SOL    HW211992   5.057   4.850   0.029 -0.2100 -2.2581  0.0739
 3329SOL     OW11993   8.638   7.442   0.235 -0.6951 -0.0431  0.6115
 3329SOL    HW111994   8.551   7.410   0.259 -1.5963  1.9090  0.1462
 3329SOL    HW211995   8.655   7.512   0.299 -0.1955  0.6882 -0.3090
 3330SOL     OW11996   0.374   2.151   3.423 -0.2102  0.3390  0.4002
 3330SOL    HW111997   0.278   2.146   3.425 -0.3339  1.7957 -0.6894
 3330SOL    HW211998   0.399   2.117   3.337  0.3093 -0.5495  0.8874
 3331SOL     OW11999   7.983   5.134   5.949  0.6312 -0.2346  0.3222
 3331SOL    HW112000   7.993   5.156   5.856 -0.4478 -1.1249 -0.0192
 3331SOL    HW212001   8.072   5.116   5.979  0.9203 -0.5826 -0.7107
 3332SOL     OW12002   4.187   4.262  10.097 -0.0883 -0.4812  0.6113
 3332SOL    HW112003   4.117   4.271  10.032  0.2847 -2.1746 -0.0993
 3332SOL    HW212004   4.261   4.311  10.060 -0.1184 -0.8031  0.1165
 3333SOL     OW12005   8.267   0.271   5.755 -0.7270  0.3470 -0.5091
 3333SOL    HW112006   8.346   0.222   5.777 -1.1660 -0.2068 -0.1531
 3333SOL    HW212007   8.251   0.326   5.832 -0.0409  1.3150 -1.0455
 3334SOL     OW12008   5.701   4.441   7.371 -0.3961  0.2752 -0.2570
 3334SOL    HW112009   5.607   4.444   7.356 -0.1585  1.9102 -1.7446
 3334SOL    HW212010   5.722   4.348   7.376 -2.3269 -0.1326  2.0265
 3335SOL     OW12011  11.097  10.835   7.811 -0.8161  0.4840 -0.0188
 3335SOL    HW112012  11.129  10.837   7.901 -1.1732 -1.6913  0.2138
 3335SOL    HW212013  11.175  10.847   7.757 -0.4264  0.6770  0.5820
 3336SOL     OW12014   4.692   3.532   4.081 -0.0375 -0.0641 -0.3881
 3336SOL    HW112015   4.737   3.489   4.154  2.9758  2.0433 -0.8146
 3336SOL    HW212016   4.599   3.524   4.102  0.6247  1.1474  4.1532
 3337SOL     OW12017   4.269   2.617   3.959  0.2209  0.0498  0.4802
 3337SOL    HW112018   4.241   2.678   4.026  4.2475  0.0715  2.4339
 3337SOL    HW212019   4.263   2.530   4.000  1.4686 -0.0674  0.4602
 3338SOL     OW12020   8.484   6.109   4.265 -0.6016 -0.4673 -0.1126
 3338SOL    HW112021   8.466   6.165   4.189 -0.6994  0.3658  0.5110
 3338SOL    HW212022   8.556   6.052   4.237 -0.2716  0.2006 -0.6401
 3339SOL     OW12023   0.768  10.218   1.628  0.3532 -0.3594 -0.5540
 3339SOL    HW112024   0.843  10.230   1.687 -1.5291  2.8316  1.4746
 3339SOL    HW212025   0.780  10.285   1.560 -0.4002 -0.1552 -0.4919
 3340SOL     OW12026   4.406  10.434   4.491  0.6081  0.2485 -0.6053
 3340SOL    HW112027   4.401  10.506   4.554  0.9947 -0.8838  0.7493
 3340SOL    HW212028   4.363  10.469   4.412  0.0372  1.6567  0.2872
 3341SOL     OW12029   1.641   2.914   1.684 -0.1655  0.1115  0.4606
 3341SOL    HW112030   1.735   2.903   1.670  0.0624 -0.3398  2.1842
 3341SOL    HW212031   1.634   2.979   1.753 -1.0883 -0.6464  1.1072
 3342SOL     OW12032   1.998   9.586   4.355 -0.1000 -0.3238 -0.8210
 3342SOL    HW112033   2.037   9.670   4.332 -0.1776 -1.0967 -4.4797
 3342SOL    HW212034   1.917   9.582   4.304  0.2432 -2.8473 -1.3117
 3343SOL     OW12035   2.177   2.186   2.914  0.0747  0.0780 -0.3617
 3343SOL    HW112036   2.195   2.144   2.831  0.9736 -2.6309  1.0896
 3343SOL    HW212037   2.126   2.264   2.892 -0.5689 -1.0892 -3.3108
 3344SOL     OW12038   9.401   2.948   8.595  0.0950 -0.3087  0.2756
 3344SOL    HW112039   9.377   3.007   8.667  0.7237 -0.2647  0.4603
 3344SOL    HW212040   9.406   3.005   8.518  2.7662  0.3465  0.8226
 3345SOL     OW12041   6.236  10.991   8.927  0.3690  0.3884 -0.3054
 3345SOL    HW112042   6.231  10.972   9.021 -2.6841 -0.8053 -0.5760
 3345SOL    HW212043   6.167  11.055   8.912  1.3579  1.1749 -1.6371
 3346SOL     OW12044   8.869   9.846   0.173 -0.5570  0.0727 -0.0024
 3346SOL    HW112045   8.864   9.750   0.173  0.7377 -0.0091  0.9255
 3346SOL    HW212046   8.844   9.870   0.084 -2.1582 -1.0379  0.1051
 3347SOL     OW12047   6.790   1.181   1.857  0.3320 -0.4096  0.9866
 3347SOL    HW112048   6.841   1.227   1.791  0.1970  0.0752  1.2162
 3347SOL    HW212049   6.732   1.123   1.807  0.8022 -0.6484  0.7117
 3348SOL     OW12050   4.756   8.685  10.907 -0.1618 -0.4470 -0.6719
 3348SOL    HW112051   4.822   8.754  10.921 -0.7618  0.0333 -0.1552
 3348SOL    HW212052   4.675   8.723  10.940 -1.2981  0.0037 -3.6409
 3349SOL     OW12053   7.486   9.221   4.879 -0.9427  0.9948  0.0917
 3349SOL    HW112054   7.511   9.129   4.882 -1.7568  0.7807  1.4067
 3349SOL    HW212055   7.404   9.223   4.830 -0.9336  1.0135  0.0772
 3350SOL     OW12056   2.882  10.497   8.005 -0.3416 -0.2385 -0.1142
 3350SOL    HW112057   2.879  10.585   7.968 -1.5842 -0.0221  0.4371
 3350SOL    HW212058   2.863  10.509   8.098 -3.4574 -1.2988 -0.4840
 3351SOL     OW12059  10.615  10.924  10.568  0.3421 -0.6823 -0.1142
 3351SOL    HW112060  10.520  10.918  10.578  0.0027  2.2128 -0.8154
 3351SOL    HW212061  10.648  10.928  10.657 -0.1352 -1.8436  0.1391
 3352SOL     OW12062   9.436   8.859   7.766 -0.8524  0.2709 -0.1931
 3352SOL    HW112063   9.354   8.902   7.788 -0.6216  0.1846  0.8855
 3352SOL    HW212064   9.497   8.931   7.747 -1.1921  0.3311 -1.0875
 3353SOL     OW12065   3.274   4.090   4.281  0.2551 -0.3895  0.0457
 3353SOL    HW112066   3.261   4.161   4.344 -0.1200  0.1964 -0.6704
 3353SOL    HW212067   3.241   4.126   4.198  0.1268 -1.3771 -0.3436
 3354SOL     OW12068   9.544   4.421   5.600 -0.2422 -0.0708  0.1450
 3354SOL    HW112069   9.537   4.471   5.518 -2.4874  2.8831  1.9617
 3354SOL    HW212070   9.462   4.372   5.604  0.2964 -0.9812  0.2046
 3355SOL     OW12071  10.747   7.834  11.265 -0.5707 -0.2454 -0.6428
 3355SOL    HW112072  10.820   7.796  11.314 -0.6796  0.6149  0.2146
 3355SOL    HW212073  10.744   7.783  11.184  1.4994  0.2083 -1.0767
 3356SOL     OW12074   6.213   7.515   3.751 -0.3941 -0.3774 -0.1525
 3356SOL    HW112075   6.202   7.554   3.838  0.9195  0.3844 -0.2928
 3356SOL    HW212076   6.127   7.481   3.728 -1.5786  2.3184  0.0457
 3357SOL     OW12077   2.745   3.015   8.839 -0.4139  0.3571  0.7530
 3357SOL    HW112078   2.759   2.920   8.842 -1.8287 -0.1224 -2.8537
 3357SOL    HW212079   2.818   3.051   8.889  1.5843 -2.5493  0.1847
 3358SOL     OW12080   4.794   3.724   2.973  0.0104 -0.1362  0.1325
 3358SOL    HW112081   4.770   3.764   2.889  3.1371  2.7005  0.3609
 3358SOL    HW212082   4.756   3.782   3.038 -0.8464 -1.2896  0.6859
 3359SOL     OW12083   9.228   6.218   3.245 -0.1081 -0.3580 -0.1594
 3359SOL    HW112084   9.214   6.185   3.334  2.7162  0.4529  0.7060
 3359SOL    HW212085   9.183   6.302   3.244  0.3257 -0.0943  0.7483
 3360SOL     OW12086  10.692   6.689  11.113  0.5549 -0.6059 -0.3802
 3360SOL    HW112087  10.695   6.769  11.061 -0.8176 -0.2999 -0.0296
 3360SOL    HW212088  10.601   6.661  11.108  1.1025 -2.4787 -0.9624
 3361SOL     OW12089   2.213   6.160   6.896  0.1389 -0.2033 -0.1987
 3361SOL    HW112090   2.220   6.085   6.955  2.1843 -1.5066 -1.9306
 3361SOL    HW212091   2.137   6.141   6.841 -1.3511  0.6814  1.4578
 3362SOL     OW12092   3.354   3.564   8.550  0.0775  0.3947 -0.1917
 3362SOL    HW112093   3.360   3.656   8.577 -0.2233  0.2215  0.5010
 3362SOL    HW212094   3.444   3.540   8.525  0.4012  0.5351  0.7965
 3363SOL     OW12095   4.157  10.552   5.988  0.5544 -0.0275  0.8635
 3363SOL    HW112096   4.182  10.462   5.970 -0.7217 -0.3236  0.5033
 3363SOL    HW212097   4.128  10.586   5.903  0.3677  0.4997  1.1356
 3364SOL     OW12098   1.790   2.709   5.901  0.3556  0.3091  0.4181
 3364SOL    HW112099   1.750   2.629   5.867  2.4207 -0.0484 -1.4646
 3364SOL    HW212100   1.719   2.755   5.946 -0.7758 -2.8247  2.1117
 3365SOL     OW12101   9.073  10.989   2.414  0.3349 -0.0036  0.0980
 3365SOL    HW112102   9.010  10.961   2.481 -0.3085 -1.6951 -1.1188
 3365SOL    HW212103   9.138  10.918   2.411  0.6734  0.3259 -0.6332
 3366SOL     OW12104  10.088   2.583  10.198  0.4185  0.0772 -0.2167
 3366SOL    HW112105   9.998   2.570  10.230  1.1401  2.0820  3.1072
 3366SOL    HW212106  10.082   2.661  10.142  0.2232  0.9883  1.0288
 3367SOL     OW12107   5.215   1.821   2.212 -0.0448 -0.8070  0.0713
 3367SOL    HW112108   5.286   1.858   2.161 -0.6700 -0.6326 -0.6955
 3367SOL    HW212109   5.240   1.729   2.225  0.5605 -0.6177  0.2605
 3368SOL     OW12110   0.912   1.750   5.605 -0.0377  0.3576 -0.4751
 3368SOL    HW112111   0.978   1.734   5.672  1.0844 -0.2741 -1.6780
 3368SOL    HW212112   0.944   1.828   5.559 -0.3564  0.2997 -0.7963
 3369SOL     OW12113   6.205   0.596   6.515 -0.0392 -0.5918 -0.2688
 3369SOL    HW112114   6.256   0.635   6.586  0.2677  0.1773 -0.9016
 3369SOL    HW212115   6.128   0.652   6.506 -1.6189 -2.3333  1.3921
 3370SOL     OW12116   6.118  11.138   4.230  0.0154  0.3478  0.0425
 3370SOL    HW112117   6.133  11.044   4.243 -1.0501  0.1440 -0.1529
 3370SOL    HW212118   6.101  11.172   4.318  0.3947  0.3657  0.1123
 3371SOL     OW12119   6.452   1.330  10.862  0.4038  0.0674 -0.4316
 3371SOL    HW112120   6.378   1.274  10.840 -0.2728 -0.0488  1.8835
 3371SOL    HW212121   6.424   1.418  10.835  0.4853 -0.3193 -1.8483
 3372SOL     OW12122   2.042   4.547   4.333 -0.8167 -0.5215 -0.0159
 3372SOL    HW112123   2.026   4.487   4.260  3.5569 -3.0766  0.7549
 3372SOL    HW212124   1.991   4.511   4.405 -2.4010 -0.0754 -0.8792
 3373SOL     OW12125   5.674   6.333   8.323  0.6439 -0.6775 -0.5404
 3373SOL    HW112126   5.716   6.379   8.250 -1.8150  2.5581 -0.1153
 3373SOL    HW212127   5.732   6.348   8.397 -0.3969  2.6300 -0.2448
 3374SOL     OW12128   8.797   0.673   8.380  0.2584  0.1612  0.0914
 3374SOL    HW112129   8.808   0.767   8.365 -0.0468  0.4647  1.5325
 3374SOL    HW212130   8.831   0.631   8.301  0.0807  1.4919 -0.7208
 3375SOL     OW12131   2.582   4.371   2.596  0.1002 -0.6157  0.2000
 3375SOL    HW112132   2.529   4.327   2.529 -0.7025 -1.4359  1.3525
 3375SOL    HW212133   2.537   4.454   2.612 -0.7553 -1.2339  1.0492
 3376SOL     OW12134   5.901   7.179   2.288  0.3139  0.9257  0.0245
 3376SOL    HW112135   5.871   7.174   2.379 -1.9503 -0.6163 -0.7051
 3376SOL    HW212136   5.992   7.149   2.291  0.1565  0.4987  1.7318
 3377SOL     OW12137  10.820   1.519   0.394 -0.3636 -0.5555  0.0118
 3377SOL    HW112138  10.859   1.465   0.325  1.8460 -1.6125  1.9329
 3377SOL    HW212139  10.894   1.570   0.428 -1.2155 -0.6271  2.0751
 3378SOL     OW12140   0.979   7.371   3.933 -0.3120  0.0837  0.6537
 3378SOL    HW112141   1.072   7.359   3.952 -0.0212  1.4568  0.2483
 3378SOL    HW212142   0.934   7.341   4.013  0.6254  1.4286  1.7429
 3379SOL     OW12143   7.427   9.797  10.851 -0.2273  0.4300  0.1654
 3379SOL    HW112144   7.463   9.709  10.853 -0.3051  0.3716 -0.7761
 3379SOL    HW212145   7.333   9.785  10.860 -0.1172  0.5404  1.8588
 3380SOL     OW12146   8.442   3.548   3.683 -0.0073 -0.0241  0.2912
 3380SOL    HW112147   8.525   3.521   3.644 -0.1916 -0.3225  0.1031
 3380SOL    HW212148   8.457   3.638   3.713  1.2333 -0.9355  2.6964
 3381SOL     OW12149   4.933   5.400   3.255  0.5461 -0.2676 -0.2196
 3381SOL    HW112150   4.940   5.419   3.349 -0.4077 -0.3886 -0.1140
 3381SOL    HW212151   4.843   5.370   3.243  0.4627  0.3414 -1.2801
 3382SOL     OW12152   1.269  10.503   8.548 -0.5131  0.1503  0.6994
 3382SOL    HW112153   1.294  10.595   8.555 -1.2284  0.2694  2.0194
 3382SOL    HW212154   1.287  10.480   8.457  1.4565  1.0637  0.7972
 3383SOL     OW12155   2.435   0.615   5.721 -0.1004 -0.7665  0.0839
 3383SOL    HW112156   2.460   0.674   5.649 -1.1323  2.8450  2.4309
 3383SOL    HW212157   2.518   0.585   5.757  0.6731  1.9039  0.7494
 3384SOL     OW12158   8.230   7.229   1.469  0.4544 -0.1382 -0.0115
 3384SOL    HW112159   8.239   7.135   1.455  2.9446  0.0348 -0.0163
 3384SOL    HW212160   8.216   7.238   1.564  3.2730 -0.4577  0.5232
 3385SOL     OW12161   8.727   2.863   2.751  0.1490  0.2851 -0.0518
 3385SOL    HW112162   8.654   2.808   2.778 -0.7219  0.8933 -1.0969
 3385SOL    HW212163   8.699   2.953   2.772  0.4043  0.5606 -0.8398
 3386SOL     OW12164   7.891   0.649   7.874  0.2559  0.4158  0.0326
 3386SOL    HW112165   7.963   0.598   7.837 -0.2545  0.2157 -0.7117
 3386SOL    HW212166   7.850   0.591   7.938  0.4411  0.3418  0.0842
 3387SOL     OW12167   0.350  10.667   8.085  0.8556 -0.2677  0.2558
 3387SOL    HW112168   0.346  10.739   8.022 -0.5503 -2.4343 -2.3376
 3387SOL    HW212169   0.258  10.640   8.095  1.3537 -1.7072  1.1654
 3388SOL     OW12170  11.169   0.169   1.074 -0.1291 -0.2723 -0.5767
 3388SOL    HW112171  11.226   0.132   1.007 -0.4327 -1.4621 -0.1898
 3388SOL    HW212172  11.113   0.096   1.102 -0.8509  0.5103  0.0878
 3389SOL     OW12173   9.783   8.179   3.015 -0.0507  0.2225 -0.4683
 3389SOL    HW112174   9.721   8.223   3.074  0.8046 -0.5813  1.0912
 3389SOL    HW212175   9.730   8.152   2.940 -1.7147 -0.9249  1.0552
 3390SOL     OW12176   9.684   2.808   2.613 -0.6197 -0.2721  0.8083
 3390SOL    HW112177   9.651   2.779   2.698  1.7157 -2.1276  1.1720
 3390SOL    HW212178   9.632   2.759   2.549 -0.3597 -1.1608  1.2721
 3391SOL     OW12179   4.078   2.319   3.601  0.0176  0.0134  0.6624
 3391SOL    HW112180   4.048   2.271   3.677  0.2561  0.6610  1.1727
 3391SOL    HW212181   4.125   2.254   3.549  0.9273 -0.1607  1.6740
 3392SOL     OW12182   4.244   9.937   2.111  0.1211  1.1452  0.5306
 3392SOL    HW112183   4.318   9.998   2.102  0.9067  0.1435 -0.0452
 3392SOL    HW212184   4.236   9.923   2.206  1.1290  0.7542  0.5729
 3393SOL     OW12185   0.392   1.851   4.875 -0.5667 -0.1542 -0.0554
 3393SOL    HW112186   0.310   1.806   4.856  0.1579 -1.7460  0.4067
 3393SOL    HW212187   0.412   1.827   4.965  1.2654 -1.3015 -0.6993
 3394SOL     OW12188   1.091   0.260   7.077 -0.1511 -0.3024  0.2195
 3394SOL    HW112189   1.129   0.174   7.099  1.1599  0.1124 -0.3054
 3394SOL    HW212190   1.133   0.321   7.137 -1.8181 -0.1333  1.2650
 3395SOL     OW12191   6.357   3.933   8.347  0.5690  0.0896  0.4997
 3395SOL    HW112192   6.272   3.904   8.382  1.4060 -1.2389  1.5080
 3395SOL    HW212193   6.344   4.026   8.327 -0.5107  0.4654  2.6409
 3396SOL     OW12194   4.805   8.178   9.494  0.4944  0.4933  0.1118
 3396SOL    HW112195   4.832   8.187   9.403  1.4059  1.0011  0.4140
 3396SOL    HW212196   4.709   8.176   9.491  0.5195 -2.0824 -1.0744
 3397SOL     OW12197   0.652  10.419   1.208  0.0971  0.9276 -0.4136
 3397SOL    HW112198   0.598  10.492   1.178  0.4277  0.2625 -2.8917
 3397SOL    HW212199   0.597  10.342   1.195 -0.1627  0.6439  1.9460
 3398SOL     OW12200  10.996   0.795  10.187 -0.6325  0.7552 -0.3709
 3398SOL    HW112201  10.945   0.736  10.242 -0.8076  0.3768 -0.9304
 3398SOL    HW212202  11.053   0.842  10.248  0.7673 -1.2150 -0.0437
 3399SOL     OW12203   7.217   4.319   4.067 -0.4249  0.2111 -0.3612
 3399SOL    HW112204   7.250   4.313   4.157 -0.1019 -0.1837 -0.5069
 3399SOL    HW212205   7.177   4.406   4.063 -0.9058  0.0372  0.3216
 3400SOL     OW12206   4.322   1.364   5.421 -0.4315  0.4506 -0.2948
 3400SOL    HW112207   4.269   1.363   5.500 -1.2107 -0.3560 -0.8163
 3400SOL    HW212208   4.260   1.383   5.350  0.2930  1.4070 -0.7041
 3401SOL     OW12209   1.936   5.864   5.943  0.0670 -0.0675 -0.1595
 3401SOL    HW112210   1.970   5.929   5.880 -2.5201 -0.3953 -2.0320
 3401SOL    HW212211   2.003   5.796   5.944  1.3826  1.1501 -0.5496
 3402SOL     OW12212   7.950   2.596   5.791 -0.1787  0.1475  0.5367
 3402SOL    HW112213   7.970   2.689   5.803 -3.1609  0.7210  1.8954
 3402SOL    HW212214   7.879   2.594   5.728  0.4580 -1.3386 -0.1907
 3403SOL     OW12215   0.052   5.688   1.389  0.0055 -0.2936 -0.2753
 3403SOL    HW112216   0.036   5.766   1.336 -0.0614 -0.7549 -0.9505
 3403SOL    HW212217   0.135   5.653   1.355 -0.5066 -1.1044 -0.7202
 3404SOL     OW12218   0.824   0.733   1.452 -0.1607 -0.1470  0.5141
 3404SOL    HW112219   0.838   0.796   1.381  0.4708 -0.6431  0.1900
 3404SOL    HW212220   0.912   0.706   1.478 -0.4308 -1.4107  0.1865
 3405SOL     OW12221   4.528   4.211   9.171  0.0103  0.3152 -0.2268
 3405SOL    HW112222   4.482   4.156   9.234  0.0114  1.8643  1.1864
 3405SOL    HW212223   4.541   4.294   9.216  2.6479  0.5347 -1.1906
 3406SOL     OW12224   7.327   8.945   3.002  0.1470  0.3613  1.1149
 3406SOL    HW112225   7.282   9.005   2.942 -1.1913  0.3067  2.0449
 3406SOL    HW212226   7.372   9.002   3.064  2.5935  0.4602 -0.5901
 3407SOL     OW12227   7.964   4.539   8.993 -0.7119 -0.1492 -0.0145
 3407SOL    HW112228   7.905   4.512   9.064 -1.1093  1.1868  0.1905
 3407SOL    HW212229   7.921   4.614   8.953 -0.4269 -0.8235 -1.6229
 3408SOL     OW12230   6.783   6.687   3.680  0.1102  0.1484  0.1048
 3408SOL    HW112231   6.752   6.624   3.615  3.1291 -1.8991  0.4611
 3408SOL    HW212232   6.747   6.656   3.763  1.3481 -1.0383  0.2355
 3409SOL     OW12233   2.489  10.467   4.503  0.0281 -0.0404 -0.4779
 3409SOL    HW112234   2.472  10.558   4.478  0.3680 -0.0566 -0.7698
 3409SOL    HW212235   2.509  10.471   4.597  1.0742  0.3205 -0.7050
 3410SOL     OW12236  10.947  11.171   0.159 -0.4900 -0.1750  0.0436
 3410SOL    HW112237  10.872  11.220   0.127 -0.2399  0.8486  0.9948
 3410SOL    HW212238  10.910  11.107   0.220 -0.6725 -0.2794 -0.1745
 3411SOL     OW12239   3.133   2.528   8.888 -0.1558 -0.1672 -0.1559
 3411SOL    HW112240   3.210   2.494   8.934  1.0021 -0.6212 -2.2711
 3411SOL    HW212241   3.114   2.461   8.822 -0.9863  0.9681 -1.0984
 3412SOL     OW12242   2.257   9.855   6.384 -0.8333 -0.3181 -0.3839
 3412SOL    HW112243   2.209   9.855   6.301  1.0767  1.4211 -1.5592
 3412SOL    HW212244   2.347   9.877   6.360 -0.2118  0.1803  2.1586
 3413SOL     OW12245   5.504   4.049   5.810  0.5953 -0.0320  0.4296
 3413SOL    HW112246   5.590   4.030   5.846  1.0275  1.1469  0.0618
 3413SOL    HW212247   5.473   4.125   5.859  0.2804  0.2827 -0.2359
 3414SOL     OW12248   3.591   4.254   7.892 -0.0538  0.2170  0.3831
 3414SOL    HW112249   3.501   4.267   7.924  0.5813 -0.0431  2.4160
 3414SOL    HW212250   3.614   4.166   7.921  1.6802  1.1559  2.1281
 3415SOL     OW12251   3.012   6.612   2.915 -0.6876 -0.5493 -0.2816
 3415SOL    HW112252   2.928   6.657   2.912  0.0348  1.0496 -5.0639
 3415SOL    HW212253   2.990   6.520   2.929 -3.0819 -0.0172 -0.1469
 3416SOL     OW12254   2.238   2.370   8.568 -1.0812 -0.1840  0.6509
 3416SOL    HW112255   2.318   2.422   8.559 -2.6148  2.0094 -1.6566
 3416SOL    HW212256   2.204   2.393   8.654 -0.4600  0.7512  0.6580
 3417SOL     OW12257   5.419   6.045   4.364  0.8698 -0.4399  0.0200
 3417SOL    HW112258   5.407   6.138   4.350  2.5857  0.0466  1.4790
 3417SOL    HW212259   5.356   6.022   4.432  1.3850 -0.0440  0.6329
 3418SOL     OW12260   5.187  10.650   9.791  0.2675 -0.0454  0.7199
 3418SOL    HW112261   5.192  10.720   9.726 -0.2122  0.3365  1.0890
 3418SOL    HW212262   5.170  10.571   9.739 -3.7951  0.7246  0.5561
 3419SOL     OW12263   1.571   5.999   0.348  0.8216 -0.5547  0.1339
 3419SOL    HW112264   1.535   6.025   0.432  0.0416 -4.2783  1.1459
 3419SOL    HW212265   1.500   5.950   0.305  2.0140 -0.9140 -1.5447
 3420SOL     OW12266   7.648   3.528   8.067 -0.2233 -0.0029  0.6412
 3420SOL    HW112267   7.682   3.499   8.151  0.5798  0.2867  0.4265
 3420SOL    HW212268   7.584   3.461   8.042 -1.0198  0.2944  1.8121
 3421SOL     OW12269  10.604   3.133   6.571 -0.1260  0.1251  0.0252
 3421SOL    HW112270  10.533   3.197   6.569  0.2832  0.6151  0.8870
 3421SOL    HW212271  10.624   3.121   6.663  0.2161 -0.7985 -0.1512
 3422SOL     OW12272   9.596   6.511   6.788 -0.2397 -0.6113 -0.4089
 3422SOL    HW112273   9.540   6.575   6.744 -2.8397 -1.2440  1.7227
 3422SOL    HW212274   9.661   6.564   6.835 -0.0499  0.2368 -1.5863
 3423SOL     OW12275   4.913   5.370   4.239  0.0941 -0.6089 -0.2149
 3423SOL    HW112276   4.915   5.290   4.187  1.9491 -0.7521  0.0236
 3423SOL    HW212277   4.910   5.441   4.174  0.3505 -0.8320 -0.4706
 3424SOL     OW12278  10.641   0.768   7.316  0.4991 -1.1628  0.2536
 3424SOL    HW112279  10.680   0.681   7.311 -0.4869 -1.7661  2.0880
 3424SOL    HW212280  10.690   0.813   7.385  0.6604 -0.4514 -0.3178
 3425SOL     OW12281   5.860   3.844  10.876  0.3531  0.3701  0.8855
 3425SOL    HW112282   5.799   3.832  10.949 -1.1289  0.5662 -0.2758
 3425SOL    HW212283   5.807   3.885  10.807  0.0778 -4.5833 -2.3320
 3426SOL     OW12284   6.071   8.257   8.845  0.2261  0.0465  0.2614
 3426SOL    HW112285   6.080   8.193   8.774  2.2753 -0.3435  0.8216
 3426SOL    HW212286   6.004   8.318   8.813 -0.8404 -1.6150 -0.8434
 3427SOL     OW12287   4.685   3.852   7.382 -0.5629  0.2194  0.0140
 3427SOL    HW112288   4.688   3.929   7.326 -0.7141 -0.6839 -1.2721
 3427SOL    HW212289   4.706   3.779   7.324 -0.0622 -0.6828  1.2749
 3428SOL     OW12290   6.537   8.029   4.570  0.2532  0.1413 -0.2194
 3428SOL    HW112291   6.459   8.030   4.514 -0.3568  1.1836  0.6072
 3428SOL    HW212292   6.504   8.005   4.656  0.6535  1.5116  0.3514
 3429SOL     OW12293   8.030   9.719   5.702 -0.7382 -0.4381  0.2492
 3429SOL    HW112294   8.093   9.686   5.637  0.4744  2.5746 -0.2462
 3429SOL    HW212295   7.949   9.732   5.652  0.1243  1.6422 -0.6977
 3430SOL     OW12296   9.593  10.728   0.108  0.8359  0.5580  0.6765
 3430SOL    HW112297   9.508  10.711   0.068  1.2946  0.8878 -0.5016
 3430SOL    HW212298   9.600  10.824   0.109  0.7727  0.5618  1.7127
 3431SOL     OW12299   1.488   9.019   3.048  0.1152 -0.0788  0.1076
 3431SOL    HW112300   1.562   9.053   3.099  1.7947 -1.0334 -1.5372
 3431SOL    HW212301   1.468   8.934   3.087 -0.0199  0.1181  0.4691
 3432SOL     OW12302   0.570  10.741  10.574  0.5054  0.4272 -0.2398
 3432SOL    HW112303   0.632  10.699  10.634 -0.4993 -0.1950  0.3990
 3432SOL    HW212304   0.587  10.700  10.489  2.1475  1.5250 -0.4903
 3433SOL     OW12305   1.082   3.338   6.918 -0.4292  0.3641 -0.6320
 3433SOL    HW112306   1.144   3.399   6.959  0.1871 -1.3467  1.1569
 3433SOL    HW212307   1.124   3.253   6.927 -1.6132 -0.4539 -2.3715
 3434SOL     OW12308   7.328   3.820   4.986  0.6533 -0.0966 -0.0901
 3434SOL    HW112309   7.259   3.864   5.036 -1.4407 -1.0942 -1.9515
 3434SOL    HW212310   7.380   3.775   5.053  0.0594  1.3536  1.4415
 3435SOL     OW12311   9.874   3.684   3.030 -0.3321  0.1510 -0.4506
 3435SOL    HW112312   9.917   3.694   2.945  0.6325 -0.0612  0.0005
 3435SOL    HW212313   9.853   3.774   3.057 -0.5129  0.2299 -0.8370
 3436SOL     OW12314   5.066   5.868   9.648  0.9375  0.5841  0.2932
 3436SOL    HW112315   5.055   5.794   9.588  2.5947 -1.6104  2.4842
 3436SOL    HW212316   4.981   5.911   9.648 -0.1144 -1.3132 -1.0994
 3437SOL     OW12317   3.719  10.358   4.844 -0.5358  0.9151  0.0052
 3437SOL    HW112318   3.719  10.263   4.828  1.8542  0.6621  1.1452
 3437SOL    HW212319   3.632  10.376   4.878 -0.6986 -1.0935  0.8171
 3438SOL     OW12320   4.302   3.552   8.096  0.3903 -0.5116  0.1527
 3438SOL    HW112321   4.353   3.566   8.016  1.7175 -0.8536  0.8900
 3438SOL    HW212322   4.261   3.466   8.084 -0.6995  0.1232 -0.7882
 3439SOL     OW12323   5.940   7.898   2.441  0.1392  0.3622  0.1383
 3439SOL    HW112324   5.927   7.804   2.428  2.0902  0.2691 -1.7124
 3439SOL    HW212325   5.926   7.912   2.535 -2.7841 -1.2535  0.0677
 3440SOL     OW12326   1.427   7.235   7.004 -0.3498  0.0094 -0.4647
 3440SOL    HW112327   1.418   7.172   7.076  2.4783 -0.2678 -0.2438
 3440SOL    HW212328   1.425   7.181   6.925 -0.4707 -0.0273 -0.4382
 3441SOL     OW12329   4.610   8.561   0.709 -0.2242 -0.4019 -0.0332
 3441SOL    HW112330   4.619   8.474   0.748 -1.7194  0.2078  1.8255
 3441SOL    HW212331   4.535   8.600   0.754 -1.0294  1.0289 -2.3842
 3442SOL     OW12332   2.027  11.181   2.300  0.2451  0.4660  0.3118
 3442SOL    HW112333   2.068  11.188   2.213  0.9162  0.1227  0.5922
 3442SOL    HW212334   2.055  11.095   2.333 -2.2839 -0.6891 -0.2743
 3443SOL     OW12335   8.015   1.136   4.706  0.3662 -0.7745 -0.0312
 3443SOL    HW112336   7.925   1.166   4.694  0.5385 -1.1194 -3.1324
 3443SOL    HW212337   8.063   1.214   4.734 -0.5105 -0.0021 -0.5999
 3444SOL     OW12338  11.190   9.605   3.026 -0.4543 -0.2270 -0.2899
 3444SOL    HW112339  11.153   9.632   3.110 -3.2879 -1.5682 -1.0054
 3444SOL    HW212340  11.209   9.512   3.037 -0.2434 -0.2657 -0.9525
 3445SOL     OW12341  10.766   5.777   1.026  0.3122 -0.7647  0.1932
 3445SOL    HW112342  10.671   5.779   1.016  0.2901  1.2332  0.5197
 3445SOL    HW212343  10.800   5.811   0.943  0.7386 -1.0157  0.2596
 3446SOL     OW12344   5.767   2.572   2.085 -0.4398 -0.5299 -0.5446
 3446SOL    HW112345   5.813   2.514   2.145  0.3971 -0.6261 -1.2580
 3446SOL    HW212346   5.679   2.579   2.121  0.0821 -0.4666  0.7656
 3447SOL     OW12347   5.741   9.893   7.739 -0.3995 -0.0397 -0.2887
 3447SOL    HW112348   5.726   9.809   7.695 -2.6864 -0.0217  0.3444
 3447SOL    HW212349   5.820   9.927   7.698  0.5593 -2.4453 -0.6356
 3448SOL     OW12350   3.707   8.197   8.610  0.1676 -0.0681 -0.1626
 3448SOL    HW112351   3.757   8.140   8.551  0.0577 -0.2670 -0.0657
 3448SOL    HW212352   3.616   8.186   8.582 -0.4399 -3.1838  2.4447
 3449SOL     OW12353   8.267   3.874   8.671  0.2711 -0.5168  0.3297
 3449SOL    HW112354   8.182   3.909   8.697 -1.3603 -2.3610 -2.0482
 3449SOL    HW212355   8.284   3.804   8.734 -2.0154 -2.7557 -1.3293
 3450SOL     OW12356   4.946   7.320   2.367 -0.4906  0.5053 -0.8342
 3450SOL    HW112357   4.982   7.272   2.292  1.2950  1.3999 -0.6101
 3450SOL    HW212358   4.962   7.412   2.346  0.7557  0.7481  0.9393
 3451SOL     OW12359   2.243   9.687   0.490 -0.2851  0.0043  0.0636
 3451SOL    HW112360   2.226   9.650   0.577 -0.8004  0.7711  0.3029
 3451SOL    HW212361   2.156   9.706   0.455 -0.0325  1.3823  0.1338
 3452SOL     OW12362  10.132   5.496   8.718  0.6528  0.4684  0.0886
 3452SOL    HW112363  10.184   5.509   8.797 -1.2167  0.8087  1.3215
 3452SOL    HW212364  10.042   5.510   8.746 -0.1073  0.1334 -2.0174
 3453SOL     OW12365   7.929   6.596   5.414  0.1468 -0.0796  0.5565
 3453SOL    HW112366   7.880   6.589   5.332 -0.1555 -1.8436  0.8500
 3453SOL    HW212367   8.010   6.549   5.398  0.4018  0.1856  1.0448
 3454SOL     OW12368   9.418   7.138   8.219 -0.5851  0.1916 -0.0523
 3454SOL    HW112369   9.323   7.155   8.220 -0.3258  1.9192 -1.1945
 3454SOL    HW212370   9.425   7.045   8.241 -2.6365 -0.3243 -1.2530
 3455SOL     OW12371   2.395   6.029  10.470 -0.9399  0.1329  0.5600
 3455SOL    HW112372   2.365   6.052  10.381  0.8378  0.5198  0.0221
 3455SOL    HW212373   2.464   6.093  10.489  1.9444 -2.7106  0.3409
 3456SOL     OW12374   0.601   4.019   2.552  0.2746  0.0048  0.3975
 3456SOL    HW112375   0.656   3.940   2.549 -0.3380 -0.4297  0.4698
 3456SOL    HW212376   0.512   3.986   2.543  0.0359  0.7224  0.0983
 3457SOL     OW12377   2.431   0.892   2.844 -0.3562  0.2073  0.8865
 3457SOL    HW112378   2.410   0.825   2.779  0.6053  1.0146 -0.2994
 3457SOL    HW212379   2.377   0.967   2.819  1.6323  1.2969 -0.4144
 3458SOL     OW12380   0.670   8.189   2.530 -0.0725  0.0113 -0.1008
 3458SOL    HW112381   0.747   8.187   2.474 -0.3490  0.9315 -0.5243
 3458SOL    HW212382   0.667   8.278   2.565 -2.0995  0.6777 -1.7583
 3459SOL     OW12383   6.930   6.665   9.918 -0.0521  0.1375 -0.3167
 3459SOL    HW112384   6.974   6.694   9.839  2.1616 -1.5377  0.2050
 3459SOL    HW212385   6.997   6.618   9.967 -1.1294  1.6247  2.8974
 3460SOL     OW12386   7.891  11.169   6.001  0.1648  0.1330 -0.7273
 3460SOL    HW112387   7.846  11.182   5.917  0.2928  2.1381 -0.5201
 3460SOL    HW212388   7.958  11.237   6.004  0.6577 -0.3730  0.6969
 3461SOL     OW12389  10.445   6.023   6.269  0.2779  0.1011  0.4523
 3461SOL    HW112390  10.471   6.115   6.267 -1.0973  0.5737  2.0254
 3461SOL    HW212391  10.354   6.023   6.240  0.2389 -0.7514  0.5546
 3462SOL     OW12392   0.633   7.220   5.997 -0.4820 -0.0067  0.0885
 3462SOL    HW112393   0.629   7.244   5.905  0.7598  0.3440  0.1092
 3462SOL    HW212394   0.542   7.216   6.025 -0.9183 -0.9600 -1.3584
 3463SOL     OW12395   8.583   7.260  10.894  0.2828  0.0329 -0.1136
 3463SOL    HW112396   8.537   7.344  10.885 -0.5861 -0.4362 -0.2221
 3463SOL    HW212397   8.513   7.197  10.909  0.8502 -0.8120 -0.9182
 3464SOL     OW12398   6.922   7.645   2.291  0.1619  0.0672  0.5283
 3464SOL    HW112399   6.970   7.700   2.354 -0.9318  0.9558  0.6143
 3464SOL    HW212400   6.891   7.571   2.342 -0.5594  0.6873  1.0169
 3465SOL     OW12401   4.585   0.578   8.104  1.1943  0.5474 -0.2571
 3465SOL    HW112402   4.503   0.623   8.126  0.8237  0.2263 -0.9606
 3465SOL    HW212403   4.637   0.582   8.185  0.4366  0.6441  0.2322
 3466SOL     OW12404   6.988   0.806   8.829 -0.3159 -0.9937 -0.5010
 3466SOL    HW112405   7.001   0.884   8.776  1.5072 -0.3906  0.7548
 3466SOL    HW212406   6.917   0.829   8.890  0.2826 -0.2773 -0.0708
 3467SOL     OW12407   6.876   9.889   8.302 -0.1726 -0.1290 -0.0616
 3467SOL    HW112408   6.932   9.848   8.236 -0.0334  1.6515 -1.1291
 3467SOL    HW212409   6.934   9.949   8.349 -0.7752  0.3752  0.0557
 3468SOL     OW12410   7.666   5.715   4.736 -0.5652  0.0102  0.1407
 3468SOL    HW112411   7.605   5.742   4.805 -1.6955 -0.0195 -0.8039
 3468SOL    HW212412   7.658   5.784   4.670 -0.7404 -0.7793 -0.6784
 3469SOL     OW12413   7.030   0.218   2.309 -0.7505  0.0032  0.5100
 3469SOL    HW112414   7.118   0.184   2.324 -0.3773  0.5089 -0.4115
 3469SOL    HW212415   7.017   0.283   2.378 -1.5459 -2.0272  2.4084
 3470SOL     OW12416   1.771   5.741   8.943 -0.0384 -0.5779  0.2768
 3470SOL    HW112417   1.706   5.769   8.879  0.0050  1.0668  0.8868
 3470SOL    HW212418   1.721   5.731   9.025  0.6496  2.7365  1.2760
 3471SOL     OW12419   1.484   0.143   5.937  0.0811 -0.0673 -0.8209
 3471SOL    HW112420   1.512   0.093   6.014 -0.1152 -1.8348 -1.8372
 3471SOL    HW212421   1.464   0.076   5.871  3.3684  1.3241 -3.5556
 3472SOL     OW12422   4.234   2.747   3.267  0.5717 -0.9039 -0.0111
 3472SOL    HW112423   4.302   2.787   3.214  1.3918 -2.8331 -0.5169
 3472SOL    HW212424   4.251   2.776   3.356 -0.6116  2.1101 -0.6274
 3473SOL     OW12425   4.227  11.217   4.800 -0.8541  0.2781  0.2549
 3473SOL    HW112426   4.215  11.162   4.722 -0.3573 -0.1497  0.4679
 3473SOL    HW212427   4.142  11.257   4.814 -0.9310  0.4226 -0.5553
 3474SOL     OW12428   2.159  10.169   2.667  0.1453 -0.1771  0.5433
 3474SOL    HW112429   2.170  10.075   2.682 -2.6388 -0.2624  2.9505
 3474SOL    HW212430   2.215  10.211   2.731  0.1311 -0.2300  0.5900
 3475SOL     OW12431   3.919   1.673  11.017  0.9384  0.1843  0.2791
 3475SOL    HW112432   3.914   1.645  11.108  0.5591 -1.6238 -0.2608
 3475SOL    HW212433   3.893   1.596  10.966 -1.2016  1.8125 -1.2925
 3476SOL     OW12434   5.613   8.056   9.148 -0.0352 -0.1643 -0.0718
 3476SOL    HW112435   5.572   8.098   9.224  1.5943  0.9979  0.2157
 3476SOL    HW212436   5.648   7.973   9.182 -1.7539 -1.0215 -0.2501
 3477SOL     OW12437   5.424   7.982   5.288  0.2245  0.3809  0.2029
 3477SOL    HW112438   5.380   7.928   5.354  2.1884 -0.1175  1.1767
 3477SOL    HW212439   5.372   8.062   5.285 -1.9625 -0.9746 -0.2767
 3478SOL     OW12440   8.444   1.649   2.333 -0.2683  0.0858 -0.4528
 3478SOL    HW112441   8.459   1.731   2.285  0.7108 -0.4684 -1.1371
 3478SOL    HW212442   8.354   1.655   2.363 -1.0787  0.2877 -2.7357
 3479SOL     OW12443  11.195   3.132   5.421  0.1732  0.3236  0.4087
 3479SOL    HW112444  11.179   3.201   5.485 -0.0575 -0.8353  1.6667
 3479SOL    HW212445  11.154   3.054   5.460  0.2446 -0.4743 -1.0475
 3480SOL     OW12446   2.809   3.997   7.808 -0.3200 -0.0935  0.5573
 3480SOL    HW112447   2.724   4.032   7.779  0.1214  1.4787  1.0600
 3480SOL    HW212448   2.857   3.980   7.726 -1.0394 -0.8290  0.2752
 3481SOL     OW12449   1.222   4.598   3.557  0.5551 -0.4427 -0.0363
 3481SOL    HW112450   1.143   4.628   3.512  1.5813  1.1174 -0.9159
 3481SOL    HW212451   1.194   4.582   3.647 -0.6406  0.7293 -0.1661
 3482SOL     OW12452   8.247   7.243   3.883  0.1627  0.2953  0.0287
 3482SOL    HW112453   8.273   7.159   3.921 -2.0745 -1.4700 -1.9555
 3482SOL    HW212454   8.276   7.237   3.792  0.0603  1.7233 -0.1136
 3483SOL     OW12455   6.154   2.315   1.014 -0.2047 -0.5988  0.3131
 3483SOL    HW112456   6.220   2.251   1.044  0.3295 -0.6291 -0.8635
 3483SOL    HW212457   6.127   2.283   0.928  0.1649  0.8098 -0.3643
 3484SOL     OW12458   0.537   8.425   2.196 -0.1594  0.5236  0.7611
 3484SOL    HW112459   0.563   8.379   2.116 -0.9291 -1.0255  1.3560
 3484SOL    HW212460   0.479   8.363   2.241 -1.8401  2.3688  1.2756
 3485SOL     OW12461   3.599   7.153   8.238  0.0788 -0.5718  0.2882
 3485SOL    HW112462   3.676   7.100   8.257 -0.0221 -0.8460 -0.0616
 3485SOL    HW212463   3.540   7.139   8.312 -0.0600 -1.1593  0.0726
 3486SOL     OW12464   5.421   5.921   9.045  0.0854  0.2083  0.0022
 3486SOL    HW112465   5.511   5.947   9.026  0.4046 -0.3666  0.6917
 3486SOL    HW212466   5.417   5.913   9.140  0.7552 -4.6327 -0.1511
 3487SOL     OW12467   0.637   6.605   8.112 -0.3926 -0.0112 -0.2074
 3487SOL    HW112468   0.592   6.587   8.195  1.2696 -0.5028  0.6309
 3487SOL    HW212469   0.660   6.698   8.118  1.7066 -0.5360  0.9645
 3488SOL     OW12470   2.071   2.639   0.884 -0.0870  0.4060  0.1566
 3488SOL    HW112471   1.976   2.642   0.871  0.1169  1.3571 -1.3883
 3488SOL    HW212472   2.096   2.551   0.858 -0.4712  0.3625 -0.0732
 3489SOL     OW12473   1.902   7.216   0.951  0.1983 -0.2425  0.8391
 3489SOL    HW112474   1.812   7.226   0.979 -0.6506 -0.8878 -1.4447
 3489SOL    HW212475   1.952   7.272   1.011 -1.7361  0.4321  1.9063
 3490SOL     OW12476   5.316   8.341   8.500 -0.0691 -0.3843  0.0052
 3490SOL    HW112477   5.380   8.294   8.554 -0.1308 -0.8796 -0.3474
 3490SOL    HW212478   5.309   8.289   8.420  0.6217  0.7775 -0.8432
 3491SOL     OW12479   5.885   2.905   6.624 -0.9895  0.7567  0.3094
 3491SOL    HW112480   5.942   2.979   6.604  0.5862 -0.4683  0.0264
 3491SOL    HW212481   5.855   2.920   6.713  0.5039  1.0280  0.7898
 3492SOL     OW12482   7.329   9.472   5.023  0.3535  0.8413 -0.1220
 3492SOL    HW112483   7.377   9.429   5.093 -1.2153  0.0834  0.5475
 3492SOL    HW212484   7.322   9.407   4.954 -1.1218  0.3335  0.4700
 3493SOL     OW12485   4.870   4.171   9.590 -0.2631 -0.2020  0.2924
 3493SOL    HW112486   4.909   4.254   9.619  2.5558 -1.0979 -0.5812
 3493SOL    HW212487   4.892   4.165   9.497 -1.7275 -1.2601 -0.0164
 3494SOL     OW12488   0.867   3.669   2.107 -0.1544 -0.0154  0.0085
 3494SOL    HW112489   0.874   3.707   2.019 -1.3122 -1.8601 -0.9482
 3494SOL    HW212490   0.904   3.581   2.098  0.5916  0.1011  1.6321
 3495SOL     OW12491   9.623   0.178   6.177 -0.3712  0.1179  0.1516
 3495SOL    HW112492   9.624   0.147   6.268  0.3125  0.1851  0.1701
 3495SOL    HW212493   9.575   0.261   6.181  1.1142  0.9932  0.7536
 3496SOL     OW12494  10.684   4.144   0.429 -0.5667 -0.0684 -0.0198
 3496SOL    HW112495  10.728   4.128   0.345  0.4208 -0.4474  0.5531
 3496SOL    HW212496  10.659   4.236   0.426 -3.4422 -0.7622 -2.0491
 3497SOL     OW12497   8.192   0.744  10.259 -1.0102 -0.0050  0.1355
 3497SOL    HW112498   8.191   0.832  10.221  0.7864  0.3290  0.7928
 3497SOL    HW212499   8.118   0.744  10.321  0.6655  2.1137  2.3363
 3498SOL     OW12500  10.304   2.710   7.938 -0.2018  0.2374 -0.5677
 3498SOL    HW112501  10.340   2.727   7.851  1.9276 -0.7825  0.0324
 3498SOL    HW212502  10.381   2.702   7.995 -1.4591 -0.7924  1.0991
 3499SOL     OW12503   8.997   5.681   7.666  0.3226  0.2686 -0.3571
 3499SOL    HW112504   9.046   5.638   7.596  1.1479  3.1517 -1.7041
 3499SOL    HW212505   8.909   5.694   7.628  0.1840  0.0902 -0.0968
 3500SOL     OW12506   8.591   0.439   7.797  0.0992 -0.4175  0.0455
 3500SOL    HW112507   8.581   0.519   7.848  1.5514 -0.4398  0.4071
 3500SOL    HW212508   8.515   0.386   7.820 -0.1493  0.2768  0.8717
 3501SOL     OW12509   7.067   9.938   6.698 -0.1591 -0.1383 -0.2413
 3501SOL    HW112510   7.161   9.932   6.714 -0.1963 -0.4855 -0.1514
 3501SOL    HW212511   7.036  10.005   6.759  0.1924  0.7110 -0.9721
 3502SOL     OW12512  10.715   9.015   4.378  0.4139 -0.2555  0.0444
 3502SOL    HW112513  10.782   9.083   4.366 -0.1896  0.8834  2.4330
 3502SOL    HW212514  10.638   9.049   4.333  0.9074 -0.7753 -1.2501
 3503SOL     OW12515   0.888   2.161   6.755 -0.1209  0.7707  0.3006
 3503SOL    HW112516   0.857   2.217   6.683  0.0987  1.1183  0.4721
 3503SOL    HW212517   0.930   2.087   6.713 -0.5685  0.6490  0.0671
 3504SOL     OW12518   4.756   1.722   3.488  0.1001  0.0058  0.2014
 3504SOL    HW112519   4.663   1.746   3.495  0.4712  1.1902  1.4349
 3504SOL    HW212520   4.787   1.718   3.578  0.9650 -1.6807 -0.1320
 3505SOL     OW12521   5.931   8.606  10.744  0.1470 -0.1769  0.0144
 3505SOL    HW112522   6.002   8.643  10.692 -1.0655  0.9605 -0.9197
 3505SOL    HW212523   5.928   8.661  10.823 -1.3742  1.5565 -1.1768
 3506SOL     OW12524   9.306   4.345   0.678  0.0023 -0.5063 -0.0750
 3506SOL    HW112525   9.272   4.316   0.593  0.3950 -0.4969 -0.2396
 3506SOL    HW212526   9.231   4.382   0.723  0.0534  0.6705 -0.9250
 3507SOL     OW12527   6.330   3.427   3.955 -0.5321  0.7266 -0.2301
 3507SOL    HW112528   6.323   3.400   4.046  0.5275  0.6842 -0.1382
 3507SOL    HW212529   6.271   3.502   3.947 -3.4384 -1.4091 -0.4735
 3508SOL     OW12530   3.387   0.827  10.947  0.8311  0.0561  0.0004
 3508SOL    HW112531   3.303   0.796  10.912  0.3932  0.6787  0.4810
 3508SOL    HW212532   3.372   0.919  10.967  0.3099 -0.6759  3.8486
 3509SOL     OW12533  10.708   8.934   3.239  0.3265 -0.1213 -0.0902
 3509SOL    HW112534  10.751   8.866   3.290  0.2922 -0.4013 -0.4254
 3509SOL    HW212535  10.689   9.004   3.301 -3.8973 -2.2422  1.3651
 3510SOL     OW12536  10.357   3.162   6.034 -0.1124 -0.0395  0.4457
 3510SOL    HW112537  10.421   3.161   5.963 -0.2359  1.7708  0.2512
 3510SOL    HW212538  10.314   3.247   6.026 -3.1170 -1.4786  0.0800
 3511SOL     OW12539   7.889   9.011   5.958  0.4277 -0.8579 -0.0819
 3511SOL    HW112540   7.842   8.955   5.897  0.1105 -1.5826  0.8067
 3511SOL    HW212541   7.821   9.067   5.997  0.9481  1.4709 -2.2488
 3512SOL     OW12542   4.591   1.832   8.295  0.1509 -0.4225  0.7064
 3512SOL    HW112543   4.504   1.855   8.327  0.2254 -2.0320  2.2333
 3512SOL    HW212544   4.651   1.881   8.352  0.3073  1.1413 -0.7101
 3513SOL     OW12545   3.787  10.152   0.429 -0.4548 -0.4705  0.4705
 3513SOL    HW112546   3.813  10.163   0.337  2.9818  1.4734  1.4951
 3513SOL    HW212547   3.698  10.187   0.433  0.0902  1.4702 -1.7761
 3514SOL     OW12548  10.800   0.837   0.980 -0.6808 -0.0129  0.1087
 3514SOL    HW112549  10.788   0.859   1.073 -1.8321 -0.4916  0.0896
 3514SOL    HW212550  10.716   0.856   0.940  0.5310  2.8033 -1.4347
 3515SOL     OW12551   7.892   3.856   9.926 -0.5802  0.0976  0.3926
 3515SOL    HW112552   7.842   3.840  10.006  1.4235 -1.2976  1.4782
 3515SOL    HW212553   7.854   3.797   9.861  0.8195 -2.5477  1.7830
 3516SOL     OW12554  11.106   6.944   8.488  0.1198 -0.7167  0.6102
 3516SOL    HW112555  11.077   6.854   8.504  0.3091 -0.8713  0.1057
 3516SOL    HW212556  11.105   6.952   8.393 -0.3260 -0.0388  0.6691
 3517SOL     OW12557  10.552   5.646   4.364 -0.1264  0.5031 -0.1133
 3517SOL    HW112558  10.462   5.672   4.349 -0.5997  0.1969  1.8976
 3517SOL    HW212559  10.558   5.633   4.459  1.7653 -0.4349 -0.3057
 3518SOL     OW12560   9.511   3.706   4.521  0.2475  0.4167 -0.4532
 3518SOL    HW112561   9.522   3.628   4.467  0.9287 -0.0931  0.4006
 3518SOL    HW212562   9.546   3.777   4.468  3.0807 -0.4054  0.1642
 3519SOL     OW12563   1.482   3.492   7.679 -0.6026  0.3520 -0.8318
 3519SOL    HW112564   1.511   3.431   7.611  1.0496 -0.2702  0.3443
 3519SOL    HW212565   1.389   3.505   7.663 -0.5490 -0.8877 -2.3362
 3520SOL     OW12566   5.756   6.992   3.039  0.1982  0.0239  0.1490
 3520SOL    HW112567   5.715   6.942   2.968  0.5272  1.1018 -0.8286
 3520SOL    HW212568   5.682   7.023   3.092 -0.1060  0.0175 -0.2689
 3521SOL     OW12569   6.840   4.405   3.356 -0.1893 -0.1259 -1.0368
 3521SOL    HW112570   6.906   4.336   3.346  1.0818  0.6916  0.9214
 3521SOL    HW212571   6.870   4.475   3.298  0.4953  0.0923 -0.4383
 3522SOL     OW12572   8.025   2.031   4.876 -0.0466  0.3993 -0.4833
 3522SOL    HW112573   8.056   1.943   4.898 -0.1655  0.7770  1.3576
 3522SOL    HW212574   8.106   2.082   4.867  0.0069  0.6482  1.0532
 3523SOL     OW12575   3.959   3.803   3.865  0.2049 -0.4356 -0.3351
 3523SOL    HW112576   3.914   3.725   3.835  1.1421 -1.1504  0.0478
 3523SOL    HW212577   3.919   3.875   3.817 -0.8502 -1.1217 -0.4957
 3524SOL     OW12578   2.473   7.573   6.341  0.2808 -0.1036 -0.1217
 3524SOL    HW112579   2.411   7.613   6.402  1.1375  0.4275  0.4223
 3524SOL    HW212580   2.494   7.643   6.280  0.5729 -0.1871 -0.1181
 3525SOL     OW12581   9.312   1.504  10.631 -0.0854 -0.0680  0.3530
 3525SOL    HW112582   9.359   1.521  10.713  1.1631 -2.5218  0.2511
 3525SOL    HW212583   9.255   1.430  10.652 -1.8675  1.0678 -0.2938
 3526SOL     OW12584   4.329   7.238   3.324  0.1594  0.1752 -0.1696
 3526SOL    HW112585   4.262   7.171   3.310  0.8362 -0.1271 -2.3709
 3526SOL    HW212586   4.284   7.307   3.373 -1.2678 -0.7742 -0.0850
 3527SOL     OW12587   4.990   9.059   9.605 -0.0634  0.1570 -0.2329
 3527SOL    HW112588   4.970   9.074   9.512  1.1860 -1.0461 -0.7257
 3527SOL    HW212589   5.084   9.070   9.611 -0.0981 -0.0409  0.8505
 3528SOL     OW12590   3.712   6.691   1.316 -0.5330 -0.2268  0.4087
 3528SOL    HW112591   3.745   6.711   1.229 -0.1528 -3.1583 -0.2020
 3528SOL    HW212592   3.778   6.728   1.375 -0.1309  0.6507 -0.5525
 3529SOL     OW12593   0.030   6.975   4.807  0.7616  0.2319  0.1295
 3529SOL    HW112594   0.093   7.046   4.802  0.1531  0.8590  0.9682
 3529SOL    HW212595   0.012   6.951   4.716  0.9262  1.1925 -0.1603
 3530SOL     OW12596   3.111   1.682   7.528  0.2510  0.0258  0.3006
 3530SOL    HW112597   3.115   1.756   7.588 -0.2838  0.1867  0.1434
 3530SOL    HW212598   3.185   1.626   7.554  0.3158  0.3296  0.7863
 3531SOL     OW12599   2.442   6.253  11.179  0.3861 -0.2611  0.5847
 3531SOL    HW112600   2.478   6.256  11.090 -0.8265  2.7755  0.0669
 3531SOL    HW212601   2.397   6.169  11.185 -0.3191 -0.1368 -2.0269
 3532SOL     OW12602  10.930   5.950   6.234 -0.0062  0.1275 -0.7723
 3532SOL    HW112603  10.999   6.016   6.227  0.3664 -0.1195  0.3750
 3532SOL    HW212604  10.971   5.868   6.209  0.2085 -0.0698  0.2041
 3533SOL     OW12605   6.221   8.254   3.895  0.0127 -0.1275 -0.0503
 3533SOL    HW112606   6.310   8.236   3.926  0.1220  0.7408  0.1644
 3533SOL    HW212607   6.167   8.252   3.974 -0.6321 -3.1841 -0.4462
 3534SOL     OW12608   4.245   3.793  10.526  0.1860 -0.4281  0.2365
 3534SOL    HW112609   4.287   3.837  10.452 -1.0246 -0.7199 -0.6709
 3534SOL    HW212610   4.313   3.784  10.592  0.6925  2.0378  0.1179
 3535SOL     OW12611   1.370   7.463   9.852  0.1280  0.2720 -0.1346
 3535SOL    HW112612   1.318   7.484   9.775 -2.4914  2.6302  2.0548
 3535SOL    HW212613   1.358   7.369   9.865  0.1147 -0.0545 -2.1579
 3536SOL     OW12614   6.580   1.786  10.632  1.7046 -0.0395  0.1744
 3536SOL    HW112615   6.609   1.732  10.705 -1.4059  0.1451  1.7055
 3536SOL    HW212616   6.548   1.866  10.672 -1.0194 -0.3357 -1.1798
 3537SOL     OW12617   1.591  10.062   0.297  0.8287  0.5801 -0.1255
 3537SOL    HW112618   1.506  10.027   0.324  0.5028  2.4253  1.4557
 3537SOL    HW212619   1.570  10.142   0.249  1.6628  1.0831  0.3254
 3538SOL     OW12620   3.133   4.779   2.628  0.0478 -0.3524  0.0256
 3538SOL    HW112621   3.042   4.750   2.618  0.1679 -0.2203 -1.7082
 3538SOL    HW212622   3.135   4.822   2.713 -1.2405 -1.3438  0.5946
 3539SOL     OW12623   1.585   9.453   4.602 -0.5778 -0.1157 -0.2454
 3539SOL    HW112624   1.647   9.421   4.537 -1.2137 -1.8475 -0.0285
 3539SOL    HW212625   1.631   9.442   4.686 -1.0434 -1.1011 -0.1126
 3540SOL     OW12626   6.810   4.206   8.956 -0.2503  0.4186  0.3054
 3540SOL    HW112627   6.765   4.281   8.916  1.0992  1.1033 -0.0033
 3540SOL    HW212628   6.753   4.131   8.936 -0.6971  1.0716 -1.0547
 3541SOL     OW12629   9.508   2.784   0.525  0.3201  0.3161  0.2122
 3541SOL    HW112630   9.601   2.801   0.544  0.0380  1.6726  0.4661
 3541SOL    HW212631   9.482   2.720   0.592  1.1044 -0.2141  0.0305
 3542SOL     OW12632   7.248   9.659   7.455 -0.4305  0.1821 -0.0127
 3542SOL    HW112633   7.265   9.744   7.495  1.0807  0.9614 -2.1043
 3542SOL    HW212634   7.335   9.624   7.435 -1.0693 -0.8258 -1.1892
 3543SOL     OW12635   0.956   2.845   4.009 -0.7512  0.3335  0.3718
 3543SOL    HW112636   0.926   2.756   4.028  0.8092 -0.1990  0.4473
 3543SOL    HW212637   1.000   2.873   4.089 -0.7677  0.9753  0.1609
 3544SOL     OW12638   7.818   4.355   6.027  0.3623 -0.5486 -0.1681
 3544SOL    HW112639   7.889   4.420   6.032  0.9693 -1.1169 -1.0647
 3544SOL    HW212640   7.860   4.276   5.995 -0.6280 -1.0037 -0.3874
 3545SOL     OW12641   3.317   8.444  10.450 -0.0841 -0.6953  0.2165
 3545SOL    HW112642   3.403   8.487  10.446 -1.3143  1.9706  0.2742
 3545SOL    HW212643   3.337   8.351  10.441  2.6384 -0.0514 -2.0226
 3546SOL     OW12644   5.266   1.970   9.663 -0.1908  0.7068  0.3450
 3546SOL    HW112645   5.295   1.969   9.571  0.4012  2.2636  0.4852
 3546SOL    HW212646   5.192   1.910   9.665 -1.4071  2.0272 -1.5848
 3547SOL     OW12647   6.077   6.712   1.024 -0.7575 -0.2680  0.0771
 3547SOL    HW112648   6.127   6.756   0.955  0.3877 -0.4574  0.7733
 3547SOL    HW212649   5.996   6.684   0.980 -1.5767  2.5194 -0.3948
 3548SOL     OW12650   7.982   4.198   7.648 -0.7052  0.3560  0.1493
 3548SOL    HW112651   8.022   4.113   7.633 -1.0297  0.5838 -2.3598
 3548SOL    HW212652   7.888   4.181   7.647 -0.7629  0.6107  0.6530
 3549SOL     OW12653   2.687   1.136   2.250 -0.6843  0.1465  0.4212
 3549SOL    HW112654   2.606   1.180   2.277 -0.8058  0.0282  0.2547
 3549SOL    HW212655   2.677   1.046   2.282 -0.0180  0.4731  1.6012
 3550SOL     OW12656  10.065   7.647   0.731  0.1823  0.8230  0.2503
 3550SOL    HW112657  10.133   7.681   0.672 -1.1507 -1.8303 -3.1984
 3550SOL    HW212658  10.113   7.617   0.808  2.4055  2.2198 -0.4786
 3551SOL     OW12659   5.407   4.441   3.593 -0.9480  0.6175 -0.2392
 3551SOL    HW112660   5.458   4.370   3.555 -3.0860 -1.1933  0.0750
 3551SOL    HW212661   5.467   4.483   3.656  0.7783  0.0132 -1.4047
 3552SOL     OW12662  11.217  10.155   2.650 -0.1937 -0.0140 -0.1792
 3552SOL    HW112663  11.133  10.199   2.639 -1.0595 -1.5046  0.1784
 3552SOL    HW212664  11.272  10.191   2.580 -0.9369  1.3625 -0.1029
 3553SOL     OW12665   8.214   0.915   2.842  0.0051  0.2529  0.2970
 3553SOL    HW112666   8.222   0.853   2.915  0.4453 -0.8383 -0.6441
 3553SOL    HW212667   8.157   0.984   2.875 -0.9045 -0.9043  1.2310
 3554SOL     OW12668  10.910   2.904   7.104 -0.1385  0.3577  0.4440
 3554SOL    HW112669  10.962   2.824   7.103  0.7859  0.8494 -2.7698
 3554SOL    HW212670  10.959   2.965   7.159  0.1876 -0.6489  1.2851
 3555SOL     OW12671   9.735  10.140   3.064 -0.3932 -0.4878 -0.1216
 3555SOL    HW112672   9.751  10.045   3.066 -1.6997 -0.7467 -0.7844
 3555SOL    HW212673   9.821  10.179   3.084  0.0448 -1.8008  0.7449
 3556SOL     OW12674   7.572   3.469   9.470 -0.8293  0.1427  0.6088
 3556SOL    HW112675   7.527   3.472   9.385  0.6848  1.4375 -0.1923
 3556SOL    HW212676   7.535   3.543   9.519 -0.1421  0.7553  0.2247
 3557SOL     OW12677   4.537   4.983   2.120 -0.2629  0.2977  0.1274
 3557SOL    HW112678   4.492   4.936   2.050  1.6116  0.6204 -1.3794
 3557SOL    HW212679   4.512   5.075   2.106 -0.0950  0.3297  0.0341
 3558SOL     OW12680   9.781   2.253  10.446  0.4188  0.0464 -0.5642
 3558SOL    HW112681   9.865   2.242  10.401  0.4805  0.3950 -0.5299
 3558SOL    HW212682   9.734   2.318  10.394 -0.1336 -0.6986 -1.0155
 3559SOL     OW12683   2.766  10.377   3.092 -0.2023 -0.7999  0.3831
 3559SOL    HW112684   2.839  10.315   3.086  0.8469  0.5435 -2.4849
 3559SOL    HW212685   2.744  10.397   3.001 -0.6431  2.8263  1.1382
 3560SOL     OW12686   0.463   2.875   3.306  0.5539 -0.1526 -0.5350
 3560SOL    HW112687   0.422   2.802   3.260  0.5676 -0.3302 -0.2716
 3560SOL    HW212688   0.488   2.838   3.391  0.6181  0.1422 -0.4251
 3561SOL     OW12689   8.303   2.559   1.693  0.5276 -0.0321  0.2517
 3561SOL    HW112690   8.372   2.604   1.742  1.3921  1.1812 -1.9499
 3561SOL    HW212691   8.320   2.466   1.709  1.5899  0.2846  1.1521
 3562SOL     OW12692   0.368   0.103  10.418 -0.4570  0.4020  0.1112
 3562SOL    HW112693   0.460   0.124  10.434 -0.0124 -0.4091 -1.1584
 3562SOL    HW212694   0.319   0.171  10.464  0.8398  3.4694 -2.5789
 3563SOL     OW12695   6.466   1.107   2.655  0.1032 -0.3388  0.3466
 3563SOL    HW112696   6.503   1.019   2.660 -0.9054 -0.7264  2.0199
 3563SOL    HW212697   6.490   1.139   2.568  2.0538 -1.5443  0.3880
 3564SOL     OW12698   3.150   6.972   9.583  0.2189 -0.0626  0.1915
 3564SOL    HW112699   3.227   7.026   9.563  0.0926  0.6024  1.4427
 3564SOL    HW212700   3.173   6.885   9.551  1.6998  0.0144  0.9853
 3565SOL     OW12701   4.053   0.674   5.968 -0.1468  0.5220  0.3401
 3565SOL    HW112702   3.984   0.738   5.954 -0.4953  0.1218  0.2146
 3565SOL    HW212703   4.120   0.721   6.018 -0.9247  0.6542  1.2846
 3566SOL     OW12704   6.536   9.885  10.438  0.6937 -0.2260 -0.0675
 3566SOL    HW112705   6.599   9.814  10.457  1.1933 -0.0830 -1.1442
 3566SOL    HW212706   6.584   9.945  10.381 -0.5432 -0.3129 -1.2482
 3567SOL     OW12707   9.601   5.358   5.284  0.3026 -0.1540 -0.3355
 3567SOL    HW112708   9.612   5.288   5.348  0.9927  2.0401  2.1784
 3567SOL    HW212709   9.642   5.325   5.205  1.8108 -2.0771  1.1404
 3568SOL     OW12710   1.689   3.214   7.716 -0.6051 -0.0794 -0.3607
 3568SOL    HW112711   1.665   3.209   7.624 -2.2501 -2.3672  0.1127
 3568SOL    HW212712   1.749   3.141   7.729  2.0292  1.9578 -0.1605
 3569SOL     OW12713   7.471   6.143   3.248 -0.2276 -0.9892  0.3158
 3569SOL    HW112714   7.419   6.131   3.327  0.0658 -0.4608  0.5899
 3569SOL    HW212715   7.539   6.205   3.273 -0.2098 -0.7171 -0.3907
 3570SOL     OW12716   6.335   2.296  10.886 -0.2228 -0.0019  0.2450
 3570SOL    HW112717   6.378   2.348  10.954 -3.4286  0.4229  2.1129
 3570SOL    HW212718   6.331   2.208  10.922  1.5911 -0.7577 -1.2107
 3571SOL     OW12719  10.032   2.984  11.010 -0.1913  0.0212  0.9249
 3571SOL    HW112720  10.024   2.960  10.918  0.3873 -0.0128  0.8817
 3571SOL    HW212721   9.945   3.015  11.034  0.0470  1.6103 -0.0792
 3572SOL     OW12722   7.243   1.280   9.333  0.5075 -0.3161  0.1644
 3572SOL    HW112723   7.153   1.269   9.304  0.3214 -0.2973  0.7336
 3572SOL    HW212724   7.289   1.203   9.298 -0.1927 -1.5140  1.7430
 3573SOL     OW12725   6.201   4.755   2.860  1.1051  0.4835 -0.7517
 3573SOL    HW112726   6.143   4.762   2.784 -0.8764  0.2083  0.6634
 3573SOL    HW212727   6.275   4.812   2.838  0.6797  0.3098 -2.9282
 3574SOL     OW12728   4.756   5.151   7.134 -0.2515  0.2315 -0.6218
 3574SOL    HW112729   4.776   5.243   7.145  1.1699  0.0551 -1.4662
 3574SOL    HW212730   4.677   5.137   7.186  0.4839  1.5340  0.9148
 3575SOL     OW12731   2.177   9.701   1.656 -0.6907 -0.0937 -0.1662
 3575SOL    HW112732   2.128   9.642   1.598 -0.5071 -0.5704  0.1581
 3575SOL    HW212733   2.269   9.676   1.644 -0.5591  0.4934 -0.4338
 3576SOL     OW12734   5.721   0.956   0.527  0.0413  0.6267 -0.6583
 3576SOL    HW112735   5.629   0.953   0.555  0.4141 -0.6037  0.5657
 3576SOL    HW212736   5.726   1.030   0.467 -1.7287  0.7767 -0.6574
 3577SOL     OW12737   0.292   5.225   3.656  0.5180 -0.5091 -0.1466
 3577SOL    HW112738   0.197   5.222   3.645  0.3744  0.8146  0.4612
 3577SOL    HW212739   0.323   5.140   3.627 -1.0091 -1.5506  1.1115
 3578SOL     OW12740   3.008   6.259  11.220  0.7789 -0.3658  0.0721
 3578SOL    HW112741   2.993   6.191  11.153 -1.6192  0.4077 -0.2832
 3578SOL    HW212742   2.937   6.246  11.283 -0.3238  2.3321 -0.4971
 3579SOL     OW12743   0.583   4.223  10.865  0.2440 -0.4002 -0.7314
 3579SOL    HW112744   0.507   4.254  10.914  0.6375 -0.9293  0.2575
 3579SOL    HW212745   0.551   4.149  10.814  0.1192 -0.7025 -0.2192
 3580SOL     OW12746   4.520   6.865  10.387  1.0960  0.6876  0.2219
 3580SOL    HW112747   4.571   6.786  10.370  0.0820  0.5117 -2.3785
 3580SOL    HW212748   4.578   6.937  10.361  0.8113  0.5940 -0.7072
 3581SOL     OW12749   4.358   3.149   8.041 -0.5125  0.2263 -0.5815
 3581SOL    HW112750   4.426   3.097   7.998  0.5067  0.3780  0.7355
 3581SOL    HW212751   4.320   3.090   8.106  0.8473  1.0908  1.1215
 3582SOL     OW12752   1.862   4.305   8.088  0.0315 -0.4651 -1.4716
 3582SOL    HW112753   1.878   4.372   8.155  0.0590 -0.3213 -1.6236
 3582SOL    HW212754   1.787   4.337   8.039 -0.0781 -0.6408 -1.4214
 3583SOL     OW12755   0.896   7.956   9.444 -0.0304 -0.0850 -0.8602
 3583SOL    HW112756   0.831   7.904   9.490 -1.0020 -0.8813 -2.9771
 3583SOL    HW212757   0.980   7.930   9.482 -0.8015 -0.0624  0.9564
 3584SOL     OW12758   4.279   6.614   0.834 -0.5106 -0.2820 -0.1355
 3584SOL    HW112759   4.222   6.659   0.771 -0.5266  0.9904  0.7397
 3584SOL    HW212760   4.218   6.579   0.899 -0.3465  2.8874  1.9713
 3585SOL     OW12761   3.040   4.490   4.843 -0.3989  0.0331 -0.2338
 3585SOL    HW112762   3.074   4.500   4.932  1.5527 -0.0291 -0.9326
 3585SOL    HW212763   3.060   4.400   4.818 -0.6125  0.1510 -0.8714
 3586SOL     OW12764   8.810  10.494  10.252 -0.5260  0.1286 -0.1338
 3586SOL    HW112765   8.877  10.537  10.199 -0.6937 -0.4146 -0.8064
 3586SOL    HW212766   8.779  10.422  10.197 -1.4964  0.2300  0.2543
 3587SOL     OW12767   8.180   0.207   8.009  0.2946  0.1401  0.3131
 3587SOL    HW112768   8.194   0.262   7.932  1.4444 -0.8779 -0.2292
 3587SOL    HW212769   8.138   0.265   8.072  2.0173  1.8328 -0.0104
 3588SOL     OW12770   2.423   3.756   3.400 -0.2431  0.0360  0.6012
 3588SOL    HW112771   2.511   3.719   3.387  0.3299  1.5623 -0.1740
 3588SOL    HW212772   2.370   3.715   3.331  0.1349 -0.0645  0.3626
 3589SOL     OW12773  10.300   3.826   5.351 -0.2137 -0.0864 -0.1792
 3589SOL    HW112774  10.258   3.789   5.428 -0.3808  0.9940  0.2706
 3589SOL    HW212775  10.393   3.813   5.366 -0.3056 -1.9310 -0.8901
 3590SOL     OW12776   2.129   4.468   3.213  0.8481  0.1370  1.0507
 3590SOL    HW112777   2.160   4.551   3.175  0.3425  0.4252  1.2690
 3590SOL    HW212778   2.166   4.468   3.301  1.2662 -0.1072  0.8771
 3591SOL     OW12779   0.464   7.180   8.940 -0.7203 -0.2979  0.5683
 3591SOL    HW112780   0.370   7.168   8.949 -0.6476 -0.2156  1.5430
 3591SOL    HW212781   0.475   7.275   8.931 -0.9849 -0.4830 -3.2090
 3592SOL     OW12782   1.894   5.389   7.123 -0.4063  0.2220 -0.0018
 3592SOL    HW112783   1.955   5.347   7.185 -0.5446 -1.9944 -1.2602
 3592SOL    HW212784   1.809   5.348   7.142 -0.4318 -0.5461 -1.6637
 3593SOL     OW12785   1.153   9.874   8.587 -0.0398  0.1283 -0.2189
 3593SOL    HW112786   1.246   9.854   8.592  0.1809  0.8847 -1.1625
 3593SOL    HW212787   1.111   9.789   8.573  0.1033 -0.8515  3.9098
 3594SOL     OW12788   0.338   0.072   2.437  0.3544  0.2355  0.0502
 3594SOL    HW112789   0.283   0.050   2.512  0.2160 -1.1756 -0.4388
 3594SOL    HW212790   0.298   0.151   2.401 -0.6712 -0.1115  0.3891
 3595SOL     OW12791  10.046   3.761   4.725 -0.2062 -0.3672 -0.3898
 3595SOL    HW112792   9.969   3.818   4.738  0.5454  0.1139  2.7872
 3595SOL    HW212793  10.011   3.685   4.680 -1.8299  1.3156 -2.1782
 3596SOL     OW12794   8.005  11.013   7.170  0.1270 -0.0876 -0.3445
 3596SOL    HW112795   8.100  11.021   7.158  0.0764  0.8030 -0.2584
 3596SOL    HW212796   7.973  10.974   7.089  0.9224 -3.5343  0.8384
 3597SOL     OW12797  10.172   5.952   9.258 -0.4613  0.5394  0.1193
 3597SOL    HW112798  10.264   5.931   9.274 -0.5756  0.3996  0.6175
 3597SOL    HW212799  10.156   6.029   9.313 -0.5716  0.7271 -0.1750
 3598SOL     OW12800   4.312   6.275   9.827  0.4044 -0.6130 -0.5113
 3598SOL    HW112801   4.259   6.272   9.747 -0.6571 -1.5393  0.1928
 3598SOL    HW212802   4.381   6.210   9.813  0.3539 -0.6166 -0.7537
 3599SOL     OW12803   3.287   3.601   3.978 -0.0162  0.5528 -0.1591
 3599SOL    HW112804   3.371   3.566   3.950 -1.9312 -1.5216 -4.1005
 3599SOL    HW212805   3.300   3.696   3.982  2.7045  0.2216  0.4444
 3600SOL     OW12806   4.632   2.430   8.271 -0.3270  0.2095 -0.0621
 3600SOL    HW112807   4.566   2.373   8.231  0.5715 -0.8433 -0.1008
 3600SOL    HW212808   4.714   2.383   8.259  0.8566  2.6359 -2.2981
 3601SOL     OW12809   2.933   1.843  10.440 -0.3906  0.0940 -0.2016
 3601SOL    HW112810   2.866   1.818  10.377  0.5325  0.2557 -1.2800
 3601SOL    HW212811   2.887   1.846  10.524 -1.4461 -1.0473 -0.6997
 3602SOL     OW12812   4.118   9.215  10.509  0.3140 -0.0872 -0.1941
 3602SOL    HW112813   4.198   9.230  10.559 -0.6100  1.5603  0.8809
 3602SOL    HW212814   4.055   9.278  10.545 -1.2618 -0.8618 -1.4753
 3603SOL     OW12815   8.566   6.840  10.749  0.1447  0.1352 -0.0730
 3603SOL    HW112816   8.539   6.920  10.794  1.3111  0.0487  0.8126
 3603SOL    HW212817   8.603   6.870  10.666 -2.1443  0.2844 -1.1199
 3604SOL     OW12818  11.051   2.562   8.757  0.6215  0.1832 -0.0670
 3604SOL    HW112819  11.084   2.541   8.845  0.7362  2.2527  0.4412
 3604SOL    HW212820  11.122   2.536   8.699  1.9277  1.7212  0.7572
 3605SOL     OW12821   1.738   4.903  10.398 -0.6158  0.0401 -0.1217
 3605SOL    HW112822   1.716   4.887  10.306  1.3741 -0.0215 -0.6206
 3605SOL    HW212823   1.803   4.836  10.419 -0.1632  0.8032  0.9814
 3606SOL     OW12824   0.604   1.580   0.282 -0.1466  0.0865 -0.5687
 3606SOL    HW112825   0.610   1.568   0.377 -2.3386  0.6548 -0.2965
 3606SOL    HW212826   0.650   1.662   0.265 -0.4467  0.4147  0.1488
 3607SOL     OW12827  10.624  10.033   4.566 -0.0169 -0.2649 -0.4123
 3607SOL    HW112828  10.700  10.084   4.538 -1.4915  0.4090 -3.6198
 3607SOL    HW212829  10.659   9.945   4.582  1.7156  0.4622  0.0087
 3608SOL     OW12830   8.873   7.302  11.161  0.3642 -0.4054 -0.4302
 3608SOL    HW112831   8.929   7.245  11.215 -1.0358 -2.5698 -1.1527
 3608SOL    HW212832   8.785   7.292  11.198  0.0302  1.2472 -0.6708
 3609SOL     OW12833  10.011   3.440   8.648  0.2224  0.2180 -0.1524
 3609SOL    HW112834   9.963   3.417   8.568  1.2955  0.0527 -0.7750
 3609SOL    HW212835  10.036   3.356   8.686  0.1518  0.2998  0.0728
 3610SOL     OW12836   1.060   8.099   7.041 -0.1485 -0.1006 -0.3330
 3610SOL    HW112837   1.104   8.063   6.964 -0.3834 -0.7331 -0.1811
 3610SOL    HW212838   1.010   8.025   7.077 -1.7898  0.7006 -0.8334
 3611SOL     OW12839   0.261   9.729   7.183 -0.7870 -0.4004  0.0774
 3611SOL    HW112840   0.332   9.782   7.147 -0.4336 -0.0704  1.2259
 3611SOL    HW212841   0.298   9.691   7.263 -2.2771  0.8351  1.4322
 3612SOL     OW12842   7.808   0.464   8.046  0.6213 -0.2219 -0.0328
 3612SOL    HW112843   7.817   0.462   8.142 -0.7945 -0.6075  0.1149
 3612SOL    HW212844   7.727   0.415   8.029 -1.0519  2.6772 -1.1659
 3613SOL     OW12845   7.497   2.705   2.371  0.1379  0.2987 -0.0979
 3613SOL    HW112846   7.559   2.741   2.435  0.8484 -1.3046  0.1493
 3613SOL    HW212847   7.417   2.690   2.422  0.7745 -1.1972  0.5013
 3614SOL     OW12848   4.768  10.936   2.531 -0.2315 -0.2418 -0.4288
 3614SOL    HW112849   4.839  11.000   2.537 -0.2181 -0.3751  1.1254
 3614SOL    HW212850   4.811  10.852   2.523 -0.2259 -0.2568 -0.2371
 3615SOL     OW12851   7.448   5.961   6.500  0.2421 -0.1777  0.6170
 3615SOL    HW112852   7.525   5.964   6.444 -0.0580 -2.5962 -0.0250
 3615SOL    HW212853   7.436   5.869   6.521 -0.3564  0.4656  3.7596
 3616SOL     OW12854   7.706   2.109   5.750  0.2881  0.0662  0.0976
 3616SOL    HW112855   7.650   2.031   5.751  1.7364 -1.0765 -1.3414
 3616SOL    HW212856   7.663   2.171   5.809 -1.7377 -1.2368  0.0702
 3617SOL     OW12857  10.027  10.802  11.226  0.0867  0.3980 -0.6345
 3617SOL    HW112858  10.103  10.820  11.281 -1.3889 -1.2667  2.1930
 3617SOL    HW212859   9.956  10.855  11.263 -0.9602 -0.7437 -0.9082
 3618SOL     OW12860   3.027   3.920   0.018 -0.3219 -0.9436  0.2333
 3618SOL    HW112861   3.041   3.865   0.095 -2.0150 -0.5955  0.8361
 3618SOL    HW212862   2.970   3.868  -0.038 -0.2352 -0.6274 -0.1487
 3619SOL     OW12863   0.209   6.685   7.083 -0.4514  0.7842 -0.5862
 3619SOL    HW112864   0.284   6.636   7.049 -0.5776  0.1067  0.0769
 3619SOL    HW212865   0.167   6.723   7.006 -1.7578 -2.1215 -1.4389
 3620SOL     OW12866   0.963   0.093   8.089  0.1442 -0.4433  0.2610
 3620SOL    HW112867   1.005   0.027   8.144 -1.1838  0.1948  2.1473
 3620SOL    HW212868   1.019   0.170   8.098  0.0886 -0.4293  0.5002
 3621SOL     OW12869   0.048   9.116   5.234  0.0582 -0.5939 -0.0755
 3621SOL    HW112870   0.123   9.169   5.260 -0.1037  0.4748 -1.6635
 3621SOL    HW212871   0.072   9.082   5.148 -0.7356 -1.3542 -0.0067
 3622SOL     OW12872   6.434   5.681   8.808 -0.4253  0.3225  0.2191
 3622SOL    HW112873   6.458   5.650   8.721  2.2798 -1.4265  1.4609
 3622SOL    HW212874   6.482   5.763   8.819  2.1590 -1.1929  1.2215
 3623SOL     OW12875   1.662   7.436   4.659  0.4166 -0.0710  0.0113
 3623SOL    HW112876   1.652   7.341   4.668  0.8033 -0.3076 -1.6601
 3623SOL    HW212877   1.750   7.453   4.692  0.2311 -0.2334  0.6102
 3624SOL     OW12878   1.661   3.897  10.761 -0.4269 -0.4563  0.2778
 3624SOL    HW112879   1.754   3.880  10.774 -0.5301 -0.8266  0.5499
 3624SOL    HW212880   1.657   3.990  10.739  0.0144 -0.4588  0.1679
 3625SOL     OW12881   3.176   6.118   8.865 -0.2268  0.2521 -0.0899
 3625SOL    HW112882   3.238   6.102   8.794 -0.6934  2.4885 -1.0810
 3625SOL    HW212883   3.222   6.175   8.926 -0.3987 -0.3188  0.6010
 3626SOL     OW12884   9.763   0.596   0.937  0.5228 -0.1354  0.0305
 3626SOL    HW112885   9.852   0.565   0.956  0.7917  0.2622 -0.5390
 3626SOL    HW212886   9.776   0.671   0.879 -0.2438 -1.4082 -1.9155
 3627SOL     OW12887   8.400  10.475   4.131 -0.5695 -0.0609 -0.5632
 3627SOL    HW112888   8.341  10.548   4.110  0.2016  0.3561 -1.3678
 3627SOL    HW212889   8.487  10.506   4.104  0.2974 -0.0711  1.9517
 3628SOL     OW12890   7.265   4.639  10.999  0.7010 -0.3340 -0.0319
 3628SOL    HW112891   7.317   4.644  10.919 -0.2753 -0.1494 -0.6639
 3628SOL    HW212892   7.297   4.712  11.052 -0.5030  1.2717 -1.4017
 3629SOL     OW12893   4.890   0.838   7.640  0.3035  0.1955 -0.1203
 3629SOL    HW112894   4.881   0.915   7.584  0.1228 -0.2697 -0.7536
 3629SOL    HW212895   4.803   0.799   7.642  0.2523  0.3406  0.7021
 3630SOL     OW12896   4.809   0.827   9.501 -0.5845 -0.1949  0.8081
 3630SOL    HW112897   4.819   0.917   9.534  0.0655 -0.1258  0.4417
 3630SOL    HW212898   4.804   0.838   9.406  1.0935 -0.6548  0.6351
 3631SOL     OW12899   6.130   7.271  10.075 -0.2276 -0.1100  0.0287
 3631SOL    HW112900   6.150   7.206  10.142  0.5164 -1.0531 -1.0525
 3631SOL    HW212901   6.204   7.265  10.014 -0.5615  1.1686 -0.5363
 3632SOL     OW12902   0.322   1.185  11.184 -0.0750 -0.1301 -0.6656
 3632SOL    HW112903   0.348   1.106  11.136  0.0869 -0.3074 -0.2894
 3632SOL    HW212904   0.328   1.160  11.276  0.9495  0.6241 -0.5130
 3633SOL     OW12905   5.316   6.899   5.916  0.0396 -0.0123  0.2076
 3633SOL    HW112906   5.371   6.841   5.862 -2.7576 -1.1671 -1.6405
 3633SOL    HW212907   5.281   6.841   5.984 -0.5087  0.1973  0.1060
 3634SOL     OW12908   7.531   9.601   1.944 -0.0181  0.0749  0.6632
 3634SOL    HW112909   7.575   9.632   2.023  0.6594  0.8140  0.0090
 3634SOL    HW212910   7.512   9.509   1.962 -0.4500  0.3941  1.9310
 3635SOL     OW12911   6.613   8.902   7.946  0.0874  0.1570  0.6524
 3635SOL    HW112912   6.684   8.877   8.005 -1.4828  0.9740  3.0164
 3635SOL    HW212913   6.579   8.819   7.914  2.5806 -0.2483 -1.2785
 3636SOL     OW12914   9.159   0.868   7.681  0.2049 -0.8781 -0.4562
 3636SOL    HW112915   9.138   0.793   7.737 -2.4884  0.4816  0.4824
 3636SOL    HW212916   9.134   0.839   7.593  1.2153 -1.7952 -0.4683
 3637SOL     OW12917  11.206  10.138  10.185 -0.6731 -0.0103  0.8786
 3637SOL    HW112918  11.156  10.071  10.230  0.2707 -0.7079  0.9136
 3637SOL    HW212919  11.194  10.217  10.238 -1.0163 -0.3823  1.3626
 3638SOL     OW12920   7.661   1.629   6.973 -0.3608  0.2686 -0.3874
 3638SOL    HW112921   7.623   1.543   6.993 -1.8380  0.7250 -1.1213
 3638SOL    HW212922   7.617   1.657   6.893  0.5707  1.4445 -0.5222
 3639SOL     OW12923   3.469   5.231   1.546  0.3730  0.5139  0.1892
 3639SOL    HW112924   3.503   5.171   1.612  1.9201 -0.5352 -1.4803
 3639SOL    HW212925   3.546   5.258   1.495 -0.6601  1.8810 -0.7409
 3640SOL     OW12926   7.849   6.378   9.698  0.3750 -0.4591 -0.2595
 3640SOL    HW112927   7.797   6.298   9.690  1.7336 -1.2371 -1.8533
 3640SOL    HW212928   7.937   6.348   9.718  0.5080  0.7797  1.2153
 3641SOL     OW12929   9.462  10.193   6.347  0.6617 -0.4591 -0.0680
 3641SOL    HW112930   9.396  10.158   6.406  2.2876 -0.5139  1.7961
 3641SOL    HW212931   9.418  10.268   6.305 -1.2007 -1.6768 -0.3993
 3642SOL     OW12932   5.477   8.780   3.949  0.5443  0.2175  0.6118
 3642SOL    HW112933   5.535   8.742   3.883 -2.8324  1.4634 -3.4919
 3642SOL    HW212934   5.518   8.863   3.972  1.4932  0.0487 -0.4039
 3643SOL     OW12935   3.954   2.724   1.911  0.3843  0.1944 -0.8943
 3643SOL    HW112936   4.025   2.766   1.863  2.7071  0.3786  2.3730
 3643SOL    HW212937   3.988   2.638   1.934  1.6253  1.7426  4.3799
 3644SOL     OW12938   7.021   9.756   2.346 -0.1412 -0.2571  0.2516
 3644SOL    HW112939   6.966   9.834   2.334 -0.3794 -0.3421  0.7536
 3644SOL    HW212940   7.094   9.787   2.399  0.2829 -0.1538 -0.3858
 3645SOL     OW12941   1.113   6.466   4.177 -0.3338 -0.3379 -0.4146
 3645SOL    HW112942   1.181   6.436   4.117 -2.4187 -1.0539 -2.5759
 3645SOL    HW212943   1.135   6.557   4.197  1.7182 -0.8283 -0.2562
 3646SOL     OW12944  10.804   6.134   3.122 -0.3215  0.1857 -0.4473
 3646SOL    HW112945  10.711   6.141   3.103 -0.4359  0.7991  0.3117
 3646SOL    HW212946  10.814   6.049   3.166 -1.3474  2.0763  3.9129
 3647SOL     OW12947   2.053   3.248   3.353  0.2468  0.1558  0.1512
 3647SOL    HW112948   2.020   3.305   3.422  1.5058 -3.3586  4.0311
 3647SOL    HW212949   2.145   3.274   3.342  0.0220  0.7748 -0.3320
 3648SOL     OW12950   6.901   3.588   6.673  0.1999  0.2225  0.2433
 3648SOL    HW112951   6.875   3.603   6.764  2.6324 -0.7463  1.2020
 3648SOL    HW212952   6.844   3.517   6.644 -1.9608  1.8467  0.2775
 3649SOL     OW12953   2.022   0.731   5.611  0.0843  0.2789 -0.0147
 3649SOL    HW112954   2.105   0.700   5.647 -0.2686  0.2067  0.7585
 3649SOL    HW212955   1.976   0.652   5.583  0.1813  0.3019 -0.2431
 3650SOL     OW12956  11.203   2.657   6.706 -0.6921 -0.6643  0.2701
 3650SOL    HW112957  11.264   2.607   6.760 -0.1644 -1.1057 -0.7228
 3650SOL    HW212958  11.186   2.736   6.757  0.2552 -0.8065  0.8247
 3651SOL     OW12959   9.053   2.719   0.053 -0.2400  0.2508 -0.5174
 3651SOL    HW112960   8.971   2.768   0.058  0.1149  0.7286  2.1705
 3651SOL    HW212961   9.029   2.630   0.077 -0.2267 -0.0070 -1.4302
 3652SOL     OW12962   9.349   8.267   4.436  0.3555  0.0365  0.0883
 3652SOL    HW112963   9.322   8.355   4.460  0.2959  1.7555 -5.0424
 3652SOL    HW212964   9.273   8.213   4.456 -1.5270  2.1286 -0.9584
 3653SOL     OW12965   8.561   7.824   5.951 -0.3869 -0.2557  0.3258
 3653SOL    HW112966   8.491   7.857   6.007 -1.1920 -1.0199 -0.1988
 3653SOL    HW212967   8.525   7.828   5.862 -0.0207 -1.2656  0.1160
 3654SOL     OW12968   4.945   0.277   4.950  0.5207  0.5355 -0.5799
 3654SOL    HW112969   4.875   0.283   4.884  1.4882 -0.9038 -1.7933
 3654SOL    HW212970   4.936   0.358   5.001 -2.8102 -0.1416  0.1565
 3655SOL     OW12971   4.702  10.145   3.728  0.3558  0.0366  0.1040
 3655SOL    HW112972   4.654  10.072   3.688  1.1420 -0.2867 -0.2768
 3655SOL    HW212973   4.672  10.222   3.681 -0.6905  0.0043  0.6970
 3656SOL     OW12974   2.702   9.343   6.186  0.2618  0.2564 -0.1463
 3656SOL    HW112975   2.675   9.360   6.096  2.6854  1.2666 -0.7697
 3656SOL    HW212976   2.762   9.269   6.179  0.1010  0.0342  0.7105
 3657SOL     OW12977   3.760   9.961   2.103  0.2951 -0.4915 -0.5551
 3657SOL    HW112978   3.740  10.045   2.062 -1.0157 -0.0690  0.8339
 3657SOL    HW212979   3.693   9.950   2.170  0.3997 -2.6987 -0.7244
 3658SOL     OW12980   6.492   6.831   3.739  0.0876 -0.1287  0.0106
 3658SOL    HW112981   6.470   6.823   3.646  1.2317  1.4873 -0.4589
 3658SOL    HW212982   6.533   6.748   3.762  3.4459  0.7539 -2.0749
 3659SOL     OW12983   4.364  10.270   6.930  0.1783 -0.0798  0.0169
 3659SOL    HW112984   4.423  10.242   6.999  0.1575  0.4089  0.2392
 3659SOL    HW212985   4.277  10.265   6.969  0.2766  1.5807  0.5256
 3660SOL     OW12986   8.171   3.497   2.073 -0.9922 -0.8492  0.3261
 3660SOL    HW112987   8.178   3.573   2.016 -1.2148 -0.6400  0.5740
 3660SOL    HW212988   8.086   3.458   2.050 -3.1947  1.6190  3.3585
 3661SOL     OW12989   7.369   2.344   9.270 -0.0627  0.2259 -0.0773
 3661SOL    HW112990   7.336   2.352   9.181 -2.2941  0.6515  0.7333
 3661SOL    HW212991   7.299   2.377   9.326  1.5876  0.7652  1.8234
 3662SOL     OW12992   8.533   3.248   2.138 -0.2372 -0.0664 -0.1389
 3662SOL    HW112993   8.524   3.334   2.179 -0.8678  0.9416 -2.2292
 3662SOL    HW212994   8.594   3.262   2.065  1.7171 -2.0300  0.9992
 3663SOL     OW12995   5.984   1.079   7.240 -0.2951  0.2581 -0.5651
 3663SOL    HW112996   6.066   1.037   7.267 -1.1236 -0.6255  0.6780
 3663SOL    HW212997   5.971   1.149   7.303 -0.5856  0.2797 -0.6457
 3664SOL     OW12998  10.832   8.432   6.401 -0.4641  0.0007  0.0197
 3664SOL    HW112999  10.804   8.448   6.311  1.4884 -1.3779 -0.8971
 3664SOL    HW213000  10.794   8.347   6.422 -1.1948  0.4693  0.6572
 3665SOL     OW13001  10.350   6.225   8.305 -0.0866  0.5031 -0.7580
 3665SOL    HW113002  10.263   6.187   8.302  0.1789 -0.0753 -2.3767
 3665SOL    HW213003  10.410   6.151   8.293  0.6266  0.9245  0.0621
 3666SOL     OW13004   7.658   4.402   5.584 -0.1812  0.2336  0.5342
 3666SOL    HW113005   7.725   4.463   5.552  0.3327 -0.7359 -0.2587
 3666SOL    HW213006   7.616   4.368   5.505 -1.1711  0.3129  1.0013
 3667SOL     OW13007   4.089  10.983   5.100  0.5181 -0.2145 -0.4496
 3667SOL    HW113008   4.043  11.049   5.152  1.2218  1.2104 -1.5592
 3667SOL    HW213009   4.169  11.026   5.072  0.4867 -1.1639 -2.1195
 3668SOL     OW13010   9.772   6.300   0.353  0.1225 -0.1823  0.9237
 3668SOL    HW113011   9.728   6.217   0.369 -0.2171 -0.1707  0.1330
 3668SOL    HW213012   9.811   6.324   0.437 -1.3564 -0.2072  1.6485
 3669SOL     OW13013   1.247   2.119   3.587  0.8448  0.0986  0.1034
 3669SOL    HW113014   1.210   2.061   3.654  1.3762 -3.3847 -2.3495
 3669SOL    HW213015   1.342   2.108   3.596  1.0147  1.4082  0.1647
 3670SOL     OW13016   8.363   9.822   1.867  0.4396  0.2694 -0.3175
 3670SOL    HW113017   8.438   9.854   1.817  0.3638  0.4714 -0.3046
 3670SOL    HW213018   8.350   9.887   1.936 -1.2783  1.6007 -1.7765
 3671SOL     OW13019   2.735   2.892   2.148  0.2372  0.3463 -0.2904
 3671SOL    HW113020   2.805   2.913   2.210 -1.2977  3.5085  0.6127
 3671SOL    HW213021   2.731   2.797   2.146  0.5813  0.0403  4.3139
 3672SOL     OW13022  10.168   8.194   1.769  0.4288 -0.5784  0.4555
 3672SOL    HW113023  10.159   8.243   1.687  3.3706 -0.7722 -0.1023
 3672SOL    HW213024  10.190   8.260   1.834  1.2802 -0.7841  0.3816
 3673SOL     OW13025   7.886   5.926   2.415  0.6386 -0.1146  0.9269
 3673SOL    HW113026   7.941   5.987   2.366 -0.6538 -0.3368 -0.9082
 3673SOL    HW213027   7.892   5.844   2.367 -1.5467 -0.0524  0.4270
 3674SOL     OW13028   7.852  10.434   8.953 -0.7202  0.0618  0.4529
 3674SOL    HW113029   7.778  10.399   9.003 -0.8455 -1.4486 -0.7024
 3674SOL    HW213030   7.907  10.358   8.936 -0.3191  0.6473 -1.0387
 3675SOL     OW13031   6.050  10.449   6.785 -0.5775  0.1804  0.1263
 3675SOL    HW113032   6.047  10.524   6.844 -0.5667 -1.8524  2.9058
 3675SOL    HW213033   5.976  10.463   6.725  1.0202  3.6524 -1.2746
 3676SOL     OW13034   1.859   3.856   4.769  0.0035  0.5028 -0.2089
 3676SOL    HW113035   1.939   3.901   4.797 -1.0290  2.2788  0.0880
 3676SOL    HW213036   1.801   3.864   4.845 -2.0601  3.3973 -1.9019
 3677SOL     OW13037   0.991   6.942  10.398 -0.5865 -0.2821 -0.2573
 3677SOL    HW113038   0.942   6.928  10.317  1.9677  0.2395 -2.0185
 3677SOL    HW213039   0.958   7.025  10.432 -0.4051  0.4775 -1.8424
 3678SOL     OW13040   4.946   1.553   8.149 -0.3371 -0.7602  0.2610
 3678SOL    HW113041   5.034   1.589   8.159  0.1679 -1.8987  0.0317
 3678SOL    HW213042   4.889   1.620   8.186  0.4446  0.9077 -1.3998
 3679SOL     OW13043   5.138   2.809   4.085 -0.0714  0.7243 -0.0043
 3679SOL    HW113044   5.197   2.813   4.160 -1.7611 -1.3709  1.5777
 3679SOL    HW213045   5.050   2.807   4.123 -0.9879 -0.9238 -1.9678
 3680SOL     OW13046  10.979   2.966   5.530 -0.8339  0.3773 -0.1811
 3680SOL    HW113047  10.922   3.017   5.473  1.1897  3.2710  0.1962
 3680SOL    HW213048  11.038   2.919   5.470 -0.7835  0.8611 -0.5133
 3681SOL     OW13049   4.863   5.554  11.055 -0.7084  0.2431 -0.3523
 3681SOL    HW113050   4.954   5.542  11.031 -0.5041  2.0014 -0.5759
 3681SOL    HW213051   4.834   5.467  11.083  0.4928 -0.7429 -2.0151
 3682SOL     OW13052   1.587   9.496   0.158  0.0500 -0.0876 -0.3303
 3682SOL    HW113053   1.525   9.564   0.185  0.8233  1.5936 -2.5311
 3682SOL    HW213054   1.547   9.457   0.081  1.7975  1.3196 -2.0556
 3683SOL     OW13055   3.265   2.193   4.261  0.1687 -0.4285  0.8426
 3683SOL    HW113056   3.269   2.183   4.166  0.6764 -1.0537  0.9290
 3683SOL    HW213057   3.174   2.173   4.283  0.1176 -0.5528  0.5249
 3684SOL     OW13058  10.781  10.269   9.282 -0.5614 -0.0525 -0.5152
 3684SOL    HW113059  10.700  10.248   9.328 -0.7680  0.2258 -0.7529
 3684SOL    HW213060  10.840  10.302   9.350 -1.0447  0.8591 -0.5394
 3685SOL     OW13061   8.764   5.583   9.168 -0.0864  0.5138 -0.0360
 3685SOL    HW113062   8.808   5.511   9.213 -1.7567 -1.0471 -0.7563
 3685SOL    HW213063   8.808   5.590   9.083  0.3066  0.5723  0.1739
 3686SOL     OW13064  10.460   0.526   2.848 -0.0029  0.1281 -0.1301
 3686SOL    HW113065  10.451   0.507   2.942  1.1199 -0.7980 -0.1946
 3686SOL    HW213066  10.397   0.597   2.833 -0.9075 -0.3505  1.1180
 3687SOL     OW13067   2.016   8.496   8.623  0.1394 -0.5381  0.2331
 3687SOL    HW113068   1.922   8.486   8.636 -0.0603 -1.9453 -1.8017
 3687SOL    HW213069   2.056   8.439   8.688 -0.5467 -2.2154 -0.7560
 3688SOL     OW13070   2.163   1.806   4.682 -0.2866 -0.0392 -0.2999
 3688SOL    HW113071   2.254   1.787   4.704 -0.5754  0.0760  1.0730
 3688SOL    HW213072   2.136   1.732   4.627  0.8211  0.2676 -1.2823
 3689SOL     OW13073   6.592   0.653   8.810  0.3102 -0.5421  0.1460
 3689SOL    HW113074   6.647   0.727   8.838 -0.4580  0.9573 -2.0049
 3689SOL    HW213075   6.624   0.579   8.861  1.6702  1.0922  1.8234
 3690SOL     OW13076  10.385  10.740   6.152  0.4052 -0.4620 -0.6006
 3690SOL    HW113077  10.361  10.654   6.188 -0.6342  0.6311  1.4867
 3690SOL    HW213078  10.304  10.791   6.155  1.6210  1.4905  1.0052
 3691SOL     OW13079  10.780   6.855  10.098  0.0299  0.3516  0.4710
 3691SOL    HW113080  10.719   6.869  10.025 -1.0980 -1.2211  1.0352
 3691SOL    HW213081  10.844   6.792  10.063 -1.1175 -1.2283  1.0832
 3692SOL     OW13082   3.559   1.737   6.421  0.7077 -0.2003 -0.9519
 3692SOL    HW113083   3.626   1.733   6.489 -0.3383  0.8729  0.1791
 3692SOL    HW213084   3.492   1.796   6.456 -0.7675 -1.1148 -2.1063
 3693SOL     OW13085   0.897   5.333   4.388  0.2905 -0.6584 -0.2314
 3693SOL    HW113086   0.905   5.261   4.325 -3.0015 -1.0466 -0.3672
 3693SOL    HW213087   0.879   5.410   4.334  3.2065  0.2849 -0.0424
 3694SOL     OW13088   0.289   7.704   5.806  0.5441 -0.5552  0.3213
 3694SOL    HW113089   0.351   7.762   5.762  0.1214  2.0630  2.8578
 3694SOL    HW213090   0.343   7.638   5.849  1.4345  0.4259  0.7484
 3695SOL     OW13091   3.449   6.919   1.399  0.8243 -0.1367  0.2761
 3695SOL    HW113092   3.368   6.884   1.437 -0.2719  0.4535 -1.4026
 3695SOL    HW213093   3.473   6.857   1.331  0.5864  0.7543 -0.6472
 3696SOL     OW13094   3.354   9.983   1.973  0.6024 -0.3233 -0.5730
 3696SOL    HW113095   3.396   9.957   1.892 -0.0490  0.2131 -1.0891
 3696SOL    HW213096   3.313   9.903   2.006  0.6592 -0.4854 -0.8966
 3697SOL     OW13097   1.132   6.241   1.726  0.1479 -0.2841 -0.0330
 3697SOL    HW113098   1.128   6.150   1.697  0.6148  0.1379 -1.4767
 3697SOL    HW213099   1.088   6.240   1.811 -0.1230 -1.8008 -0.1539
 3698SOL     OW13100  10.952  10.101   2.215 -0.1778 -0.2959  0.2840
 3698SOL    HW113101  10.981  10.060   2.134 -1.3989  2.5459 -1.7646
 3698SOL    HW213102  10.893  10.037   2.254 -1.1049 -1.0654 -2.1488
 3699SOL     OW13103   5.112   5.788   0.628 -0.5222 -0.1325  0.2416
 3699SOL    HW113104   5.203   5.816   0.615 -0.6580 -0.3178 -1.2934
 3699SOL    HW213105   5.108   5.762   0.721 -0.4321  4.9523  1.9519
 3700SOL     OW13106   2.409   1.952   3.079 -0.1563 -0.8163  0.0816
 3700SOL    HW113107   2.364   1.951   2.995  0.0024 -1.3817 -0.0011
 3700SOL    HW213108   2.478   1.887   3.070 -0.2704 -1.0336  0.7137
 3701SOL     OW13109   4.607   5.293   1.549  0.6874 -0.4002 -0.1671
 3701SOL    HW113110   4.594   5.266   1.458 -0.3348 -2.3353  0.4965
 3701SOL    HW213111   4.651   5.219   1.590 -0.0460 -0.1137  1.2138
 3702SOL     OW13112   5.530   7.485   1.496 -0.0717  0.2833 -0.1707
 3702SOL    HW113113   5.611   7.488   1.444  0.9986 -0.2001  1.3955
 3702SOL    HW213114   5.479   7.414   1.457  1.8662 -1.8806  1.0004
 3703SOL     OW13115   0.268   1.204   9.374  0.3122  0.4944  0.9761
 3703SOL    HW113116   0.264   1.111   9.397 -0.4472  0.4471  0.6669
 3703SOL    HW213117   0.292   1.248   9.455  2.8283 -0.1582  0.6721
 3704SOL     OW13118   1.597   8.706  11.129  0.1150  0.0894  0.6818
 3704SOL    HW113119   1.583   8.645  11.201 -0.1037 -0.5183  0.1355
 3704SOL    HW213120   1.509   8.736  11.105 -0.1163 -1.7888 -1.0868
 3705SOL     OW13121   9.000   7.279   4.607 -0.4342 -0.5158 -0.4326
 3705SOL    HW113122   8.920   7.294   4.558 -1.3680  2.2120  1.6557
 3705SOL    HW213123   8.984   7.199   4.657 -2.0559  0.1652  0.2096
 3706SOL     OW13124   4.159   7.921   1.681  0.5373 -0.3131 -0.8849
 3706SOL    HW113125   4.214   7.900   1.605 -1.0245  1.1757 -2.5414
 3706SOL    HW213126   4.186   8.009   1.707 -0.2033 -0.0510 -0.9609
 3707SOL     OW13127   1.556   6.436   8.470 -0.6508 -0.2112 -0.6480
 3707SOL    HW113128   1.593   6.356   8.433  1.0450  0.8391 -1.3883
 3707SOL    HW213129   1.462   6.428   8.455 -0.3345 -1.2217 -2.4485
 3708SOL     OW13130   1.751   5.512   1.488  0.8368 -0.4759 -0.2337
 3708SOL    HW113131   1.792   5.431   1.520  0.6786  0.1338  1.6145
 3708SOL    HW213132   1.811   5.582   1.516 -0.1583  0.2238  0.1814
 3709SOL     OW13133   7.199   2.393   8.543 -0.0371  0.4240  0.3680
 3709SOL    HW113134   7.241   2.442   8.473  1.1832  0.4212  1.0730
 3709SOL    HW213135   7.106   2.396   8.522  0.0759  2.3257 -0.0701
 3710SOL     OW13136  10.224   3.480   3.372 -0.5616  0.4873 -0.0213
 3710SOL    HW113137  10.132   3.504   3.362 -0.7473 -0.1041  0.2318
 3710SOL    HW213138  10.224   3.411   3.438 -0.2337 -1.3733 -1.8662
 3711SOL     OW13139   7.297   8.777   9.439  0.3656 -0.6361  0.5007
 3711SOL    HW113140   7.258   8.696   9.471  1.5993 -0.9055  1.3843
 3711SOL    HW213141   7.271   8.844   9.503 -2.5055  0.2189 -1.3542
 3712SOL     OW13142   0.685   6.162  10.412  0.5222 -0.5461 -0.1984
 3712SOL    HW113143   0.653   6.247  10.384  1.8469  0.5370  1.3877
 3712SOL    HW213144   0.665   6.158  10.505  3.8917 -0.2000  0.6851
 3713SOL     OW13145   7.007   5.394   2.410  0.2953  0.1500  0.1343
 3713SOL    HW113146   7.058   5.384   2.329  0.7904  1.3760  0.2712
 3713SOL    HW213147   6.916   5.397   2.380  0.5626  3.6976 -0.8248
 3714SOL     OW13148   5.734   0.061   2.619 -0.3222  0.2068 -0.3739
 3714SOL    HW113149   5.682   0.137   2.642  0.6207  0.3416  1.5132
 3714SOL    HW213150   5.820   0.077   2.658  0.6045 -0.8137 -1.8664
 3715SOL     OW13151   1.742   2.722  11.157  0.0765  0.2044 -0.8339
 3715SOL    HW113152   1.688   2.670  11.097 -0.8441 -1.8292  1.5820
 3715SOL    HW213153   1.814   2.663  11.181  0.2498  0.8544  0.2719
 3716SOL     OW13154  10.491   9.633  10.807 -0.0204  1.0002  0.4332
 3716SOL    HW113155  10.473   9.580  10.884 -0.9220  1.7735  0.7695
 3716SOL    HW213156  10.482   9.572  10.733 -1.2723  0.7173  0.7904
 3717SOL     OW13157   2.678   6.493   9.147 -0.2594 -0.1703 -0.3881
 3717SOL    HW113158   2.611   6.470   9.211 -1.8690 -0.9285 -2.2555
 3717SOL    HW213159   2.736   6.416   9.146  1.5486  1.0166  2.1963
 3718SOL     OW13160   9.661   9.911   7.571  0.6244  0.4713  0.1346
 3718SOL    HW113161   9.621   9.824   7.576 -0.3807  0.7820 -1.5497
 3718SOL    HW213162   9.728   9.903   7.503 -1.3422  1.6052 -2.0982
 3719SOL     OW13163   5.923   0.187   4.305  0.1853  0.4258 -0.0136
 3719SOL    HW113164   5.864   0.141   4.245 -1.5218  1.5245  0.7372
 3719SOL    HW213165   5.947   0.121   4.370 -0.6200  0.0645 -0.0727
 3720SOL     OW13166  10.738   9.951   3.560  0.1334  0.5457 -0.1883
 3720SOL    HW113167  10.671  10.020   3.560  0.7796  1.1950 -1.0851
 3720SOL    HW213168  10.761   9.941   3.652 -0.3634  1.1413  0.0131
 3721SOL     OW13169   9.323   8.207   7.975 -0.4378  0.2102  0.1962
 3721SOL    HW113170   9.404   8.165   7.947 -0.7167 -0.9858  1.1010
 3721SOL    HW213171   9.305   8.170   8.062 -1.0595  1.7179  0.7403
 3722SOL     OW13172   8.318   9.431  10.764  0.6747  0.2064  1.0352
 3722SOL    HW113173   8.378   9.501  10.790  1.5027 -0.2910  0.4926
 3722SOL    HW213174   8.375   9.360  10.734 -0.1805 -0.2632  0.4843
 3723SOL     OW13175   5.391   7.582   3.029 -0.4444 -0.3667 -0.4838
 3723SOL    HW113176   5.462   7.622   3.080 -1.7636 -0.7514  1.7815
 3723SOL    HW213177   5.429   7.566   2.942  2.6251 -1.6542  0.9622
 3724SOL     OW13178   2.472   0.968   6.134 -0.1111 -0.6921 -0.4733
 3724SOL    HW113179   2.479   1.014   6.050 -1.0394 -1.5570 -1.0416
 3724SOL    HW213180   2.476   1.038   6.200 -1.2924  0.1915 -1.3077
 3725SOL     OW13181   3.966   5.230   8.235 -0.0474 -0.2351  0.0158
 3725SOL    HW113182   3.992   5.319   8.210  0.6747 -0.8185 -1.3830
 3725SOL    HW213183   3.945   5.237   8.328 -0.1966  1.4417 -0.1081
 3726SOL     OW13184   7.833   7.339   7.409 -0.0122  0.1582 -0.1856
 3726SOL    HW113185   7.838   7.416   7.351 -1.3612 -1.9811 -3.4473
 3726SOL    HW213186   7.896   7.277   7.372  1.4680 -0.2232  2.7144
 3727SOL     OW13187   6.951   5.404   0.629 -0.5355 -0.0006 -1.0655
 3727SOL    HW113188   6.958   5.469   0.559  2.2020  0.7464 -0.2305
 3727SOL    HW213189   7.040   5.368   0.637 -0.3663  0.8410  2.7771
 3728SOL     OW13190   1.772   5.840   2.137  0.0017  0.2213  0.7910
 3728SOL    HW113191   1.807   5.856   2.050 -0.5909 -0.3619  0.4378
 3728SOL    HW213192   1.836   5.880   2.196  1.2956 -0.8748  0.1794
 3729SOL     OW13193  10.928   5.385  10.360 -0.7645 -0.0635 -0.1761
 3729SOL    HW113194  10.961   5.448  10.296  2.6397 -2.2800 -0.8405
 3729SOL    HW213195  10.894   5.312  10.308 -3.0034  0.3384  0.5981
 3730SOL     OW13196   4.366  11.157   3.767  0.8240 -0.2387 -0.0968
 3730SOL    HW113197   4.363  11.249   3.796 -0.6747 -0.0223 -0.8579
 3730SOL    HW213198   4.402  11.162   3.678  2.0749 -0.5604  0.3635
 3731SOL     OW13199   1.023   0.854   3.400 -0.2502 -0.0941 -0.1181
 3731SOL    HW113200   1.020   0.946   3.424  0.3785  0.2342 -1.2272
 3731SOL    HW213201   1.116   0.833   3.395 -0.3199 -1.4717  2.5001
 3732SOL     OW13202   7.107   3.311   5.870 -0.1759 -0.5092  0.1715
 3732SOL    HW113203   7.091   3.283   5.960 -1.2027 -0.8357 -0.1006
 3732SOL    HW213204   7.191   3.270   5.847 -0.4365 -1.3227  0.6178
 3733SOL     OW13205  10.625   5.716   8.501  0.4569  0.4836 -0.3778
 3733SOL    HW113206  10.600   5.707   8.409  1.1634 -0.0560 -0.5308
 3733SOL    HW213207  10.713   5.678   8.506  0.3990  0.4330  0.5390
 3734SOL     OW13208   9.338   6.948   5.142 -0.4329  0.0679  0.2972
 3734SOL    HW113209   9.367   6.979   5.228  2.4746 -1.5485  0.0257
 3734SOL    HW213210   9.271   6.883   5.161  1.0510 -1.1809  1.4768
 3735SOL     OW13211   5.808   2.031   7.550 -0.0071 -0.4232 -0.1662
 3735SOL    HW113212   5.740   1.975   7.512 -0.5597  0.4769 -0.5204
 3735SOL    HW213213   5.874   1.969   7.582 -0.2192 -1.2479 -1.2638
 3736SOL     OW13214  10.582   7.931   8.242 -0.5779  0.2242 -0.3013
 3736SOL    HW113215  10.540   7.846   8.244 -0.8995  0.2637 -2.4324
 3736SOL    HW213216  10.660   7.921   8.295 -1.4380 -0.9063  0.8010
 3737SOL     OW13217   3.834  10.654   9.866  0.5362 -0.2466  0.4698
 3737SOL    HW113218   3.768  10.719   9.891  0.0250 -0.3627 -0.5528
 3737SOL    HW213219   3.784  10.578   9.838  1.1220 -0.6825  0.5962
 3738SOL     OW13220  10.105   6.616   0.095  1.0651  0.2952  0.3187
 3738SOL    HW113221  10.129   6.524   0.096  0.4069  0.1047 -0.4587
 3738SOL    HW213222  10.016   6.618   0.131  0.4929  0.4385 -1.0605
 3739SOL     OW13223   3.630   4.381   4.906 -0.2731  0.2206 -0.0246
 3739SOL    HW113224   3.563   4.416   4.965  0.9491 -0.0049  1.5626
 3739SOL    HW213225   3.686   4.456   4.886  0.5633 -0.1374  0.8895
 3740SOL     OW13226  10.507   3.507   9.212  0.7776 -0.4024  0.2006
 3740SOL    HW113227  10.534   3.416   9.228 -0.5153 -0.7967  0.2393
 3740SOL    HW213228  10.413   3.508   9.232  0.5469  0.6979 -0.8466
 3741SOL     OW13229   7.641   6.967  10.309 -0.3998 -0.2843 -0.6190
 3741SOL    HW113230   7.599   7.041  10.352 -1.8384 -1.3503 -0.1254
 3741SOL    HW213231   7.666   6.909  10.381  1.7230  0.1813 -0.9183
 3742SOL     OW13232   8.153   8.257   0.129  0.2795 -0.0010  0.3648
 3742SOL    HW113233   8.172   8.180   0.183  1.9747  0.8551  1.0742
 3742SOL    HW213234   8.066   8.241   0.094 -0.1278 -1.4422  1.9055
 3743SOL     OW13235   0.184   4.277   5.449  0.2015  0.6117  0.0879
 3743SOL    HW113236   0.276   4.299   5.436  0.5784 -0.5631  0.6052
 3743SOL    HW213237   0.179   4.246   5.540 -0.6854  0.5998  0.0494
 3744SOL     OW13238   8.029   4.007   8.749 -0.2757  0.3097  0.1099
 3744SOL    HW113239   7.935   4.024   8.742 -0.5419 -0.7974  0.8004
 3744SOL    HW213240   8.068   4.093   8.764 -1.2474  0.6927  0.5172
 3745SOL     OW13241   5.588   0.906   7.286  0.2967 -0.2858 -0.2593
 3745SOL    HW113242   5.567   0.994   7.317  0.4305 -0.3787  0.1004
 3745SOL    HW213243   5.642   0.920   7.209  1.9299 -0.0398  0.8827
 3746SOL     OW13244   9.330   9.342   6.549  0.2884  0.6040  0.0359
 3746SOL    HW113245   9.260   9.293   6.592  2.5892 -1.5823  1.6102
 3746SOL    HW213246   9.338   9.423   6.599  0.2424 -0.0798  1.1750
 3747SOL     OW13247   3.853   9.113   4.564 -0.7149  0.2415  0.0483
 3747SOL    HW113248   3.790   9.044   4.543 -2.5712  1.5705  0.9218
 3747SOL    HW213249   3.886   9.142   4.479  0.6168 -2.0855 -0.3169
 3748SOL     OW13250   7.353   3.357   4.380  0.4886  0.3265  0.0871
 3748SOL    HW113251   7.435   3.317   4.406 -1.0201 -2.5385  0.8430
 3748SOL    HW213252   7.337   3.425   4.445  2.0975  0.7752  0.0513
 3749SOL     OW13253   5.287   8.239   0.245 -0.1283  0.3022  0.1656
 3749SOL    HW113254   5.326   8.158   0.277 -0.9397  0.5296  1.8650
 3749SOL    HW213255   5.256   8.219   0.157  1.0038 -0.7831  0.0004
 3750SOL     OW13256   4.463  10.900   4.424 -0.3134 -0.7908  0.3693
 3750SOL    HW113257   4.415  10.952   4.360  0.1362 -1.4762 -0.5464
 3750SOL    HW213258   4.479  10.960   4.497  0.9586  0.6465 -1.0111
 3751SOL     OW13259  10.626   1.403   6.387 -0.0172 -0.1379  0.3760
 3751SOL    HW113260  10.712   1.369   6.412  0.5418 -0.0719 -1.3091
 3751SOL    HW213261  10.618   1.486   6.434  0.5615 -0.4444  1.0325
 3752SOL     OW13262   2.657   2.541   0.775  0.5411  0.4375  0.1069
 3752SOL    HW113263   2.606   2.622   0.778 -1.2814 -0.6866  2.1876
 3752SOL    HW213264   2.611   2.485   0.713  1.8106  0.9436 -1.3474
 3753SOL     OW13265   2.728   4.341   0.588  0.9714 -0.8239  0.4143
 3753SOL    HW113266   2.792   4.320   0.656  1.0056 -1.6099  0.1586
 3753SOL    HW213267   2.780   4.355   0.509  0.8037 -5.3002 -0.7990
 3754SOL     OW13268   4.435   3.600   2.792 -0.1973 -0.9253  0.1331
 3754SOL    HW113269   4.528   3.602   2.767  0.1536  1.1826  1.3406
 3754SOL    HW213270   4.431   3.536   2.863  0.0133 -2.1600 -0.9379
 3755SOL     OW13271   5.971   8.704   6.923  0.6133  0.1476 -0.0150
 3755SOL    HW113272   5.946   8.782   6.973 -1.4206 -0.3518 -0.1790
 3755SOL    HW213273   5.969   8.633   6.987  0.8736 -0.0284 -0.2010
 3756SOL     OW13274   5.863   7.722   8.944  0.1686  0.1437 -0.1169
 3756SOL    HW113275   5.899   7.644   8.902  0.9865  1.6952 -2.5534
 3756SOL    HW213276   5.933   7.752   9.003 -0.0588 -0.7897  0.6512
 3757SOL     OW13277   8.137   3.424   8.864  0.3790  0.2084 -0.0638
 3757SOL    HW113278   8.103   3.424   8.775  0.9261  1.2955 -0.2902
 3757SOL    HW213279   8.163   3.515   8.880  2.0646 -0.3247  0.5026
 3758SOL     OW13280   5.720   2.801  10.738 -0.0974  0.0145  0.5628
 3758SOL    HW113281   5.711   2.875  10.798  1.4238  0.3674  0.3985
 3758SOL    HW213282   5.736   2.725  10.794  0.7602  0.2441  0.6356
 3759SOL     OW13283   7.430   7.328   1.726 -0.3475 -0.2538 -0.2962
 3759SOL    HW113284   7.377   7.326   1.647  1.0386 -0.3880 -1.2523
 3759SOL    HW213285   7.521   7.329   1.695  0.2270  0.6316  1.2678
 3760SOL     OW13286   5.759   4.740  10.269  0.5061 -0.3772  0.0848
 3760SOL    HW113287   5.852   4.738  10.248  0.3332  1.2368 -1.1362
 3760SOL    HW213288   5.716   4.759  10.185 -0.7555  0.6920  0.9192
 3761SOL     OW13289  10.894   3.067   6.773 -0.2046  0.8246  0.1682
 3761SOL    HW113290  10.816   3.093   6.822  0.2854  0.3159  1.2596
 3761SOL    HW213291  10.898   3.128   6.699 -0.9372  1.6630  0.8007
 3762SOL     OW13292   5.735   8.564   5.503  0.2396  0.4834 -0.7739
 3762SOL    HW113293   5.809   8.514   5.468  0.5285  0.6129 -0.3606
 3762SOL    HW213294   5.672   8.568   5.431  1.0377  1.1752 -1.4599
 3763SOL     OW13295   9.579   8.810   4.807 -0.1970 -0.0063  0.2072
 3763SOL    HW113296   9.627   8.892   4.812 -0.2543  0.0183  0.3766
 3763SOL    HW213297   9.628   8.756   4.745 -0.8104  0.5890 -0.8231
 3764SOL     OW13298   0.065   3.801   9.575  0.5930  0.4987  0.0550
 3764SOL    HW113299   0.096   3.741   9.642 -1.9686  0.9719  1.7855
 3764SOL    HW213300   0.116   3.777   9.497  3.1478 -0.5601  1.9063
 3765SOL     OW13301   1.447   2.977   1.179  0.3196 -0.1802 -0.1721
 3765SOL    HW113302   1.519   3.011   1.125  1.3495 -2.2903 -0.2351
 3765SOL    HW213303   1.480   2.981   1.269  1.6599 -3.4444 -0.3834
 3766SOL     OW13304   5.456   0.220   7.076 -0.1087  0.3068 -0.2199
 3766SOL    HW113305   5.443   0.181   6.989  1.1398  0.6637 -0.5875
 3766SOL    HW213306   5.551   0.219   7.088 -0.1694  1.6415  0.5036
 3767SOL     OW13307   1.408   7.531   0.283  0.5766 -0.1395 -0.2031
 3767SOL    HW113308   1.466   7.538   0.207 -0.6522 -2.1639 -1.4297
 3767SOL    HW213309   1.320   7.546   0.246  0.0508 -0.0786  1.0403
 3768SOL     OW13310   5.302   3.693  11.018  0.7639 -0.6812 -0.3494
 3768SOL    HW113311   5.318   3.646  10.937  1.7632 -0.7634 -0.1136
 3768SOL    HW213312   5.219   3.658  11.050  0.1961 -0.4111 -1.4888
 3769SOL     OW13313   8.358  11.005   4.386  0.6097  0.4951  0.4722
 3769SOL    HW113314   8.322  10.987   4.299  0.4569 -0.1688  0.6643
 3769SOL    HW213315   8.453  11.000   4.374  0.5798 -1.1757  0.6395
 3770SOL     OW13316   4.795   4.151   3.341 -0.0214 -0.0886 -0.0750
 3770SOL    HW113317   4.712   4.137   3.386 -0.4345  0.3622 -0.6710
 3770SOL    HW213318   4.861   4.138   3.408 -0.5841 -0.2883  0.4516
 3771SOL     OW13319  10.150   5.029   6.432 -0.0286  0.5185 -0.2627
 3771SOL    HW113320  10.164   4.939   6.460  1.3144  1.0052  0.7602
 3771SOL    HW213321  10.155   5.081   6.512  1.9662  1.7605 -1.0799
 3772SOL     OW13322   3.839   9.351   6.714 -0.2835 -0.2922  0.6126
 3772SOL    HW113323   3.876   9.263   6.724 -1.0633 -0.7319 -0.2159
 3772SOL    HW213324   3.796   9.350   6.629 -1.7991  0.3165  1.3185
 3773SOL     OW13325   3.841   3.455   9.092  0.2960 -0.1028  0.1871
 3773SOL    HW113326   3.772   3.407   9.045 -2.6813  3.6838  0.2228
 3773SOL    HW213327   3.884   3.388   9.146 -0.1358 -3.5354 -3.2444
 3774SOL     OW13328   4.258   0.253   9.210  0.2566 -0.2659 -0.3187
 3774SOL    HW113329   4.251   0.222   9.120 -1.0447 -1.0334  0.0127
 3774SOL    HW213330   4.177   0.302   9.225  0.1281 -0.7355  0.6362
 3775SOL     OW13331   7.202   0.204   0.902 -0.0723  0.4284  0.0724
 3775SOL    HW113332   7.229   0.264   0.972 -0.8683  2.5361 -1.3420
 3775SOL    HW213333   7.221   0.251   0.821  1.8773 -2.3772 -1.2763
 3776SOL     OW13334   4.013   4.649   1.259  0.3159 -0.7126 -0.5797
 3776SOL    HW113335   4.102   4.622   1.234  1.5855  2.0284  0.5186
 3776SOL    HW213336   3.978   4.691   1.181  0.6031 -0.4374 -0.5648
 3777SOL     OW13337   4.653   4.948   3.920  0.3875 -0.2833 -0.7022
 3777SOL    HW113338   4.571   4.953   3.872  0.2242  0.2155 -0.3797
 3777SOL    HW213339   4.653   4.859   3.958 -0.5563  0.0997  0.2547
 3778SOL     OW13340   9.332   4.438   6.926  0.2251  0.9969 -0.2803
 3778SOL    HW113341   9.335   4.455   7.020 -1.9579 -0.4265  0.1063
 3778SOL    HW213342   9.291   4.352   6.919  0.2286  1.1390 -2.5626
 3779SOL     OW13343   1.550   3.248   8.264 -0.0470  0.4098  0.1035
 3779SOL    HW113344   1.583   3.172   8.311 -0.7655  0.7517  1.1947
 3779SOL    HW213345   1.582   3.323   8.314 -0.2486  0.7921 -0.3342
 3780SOL     OW13346  11.109   5.613   4.135 -0.2227 -0.3615 -0.2634
 3780SOL    HW113347  11.070   5.656   4.211 -1.3426 -1.2834 -0.2977
 3780SOL    HW213348  11.066   5.654   4.060  0.9770  0.6412 -0.4396
 3781SOL     OW13349   2.475  10.077   2.693 -0.2617  0.0332  0.3059
 3781SOL    HW113350   2.483  10.172   2.704  3.5446 -0.0603 -0.2334
 3781SOL    HW213351   2.564  10.048   2.674 -1.4630 -3.5636 -0.5691
 3782SOL     OW13352   1.120   7.172   7.596  0.0214 -0.2463  0.2101
 3782SOL    HW113353   1.178   7.138   7.528  0.6466  0.3250  0.4511
 3782SOL    HW213354   1.117   7.267   7.582 -1.3365 -0.3190 -0.1655
 3783SOL     OW13355   7.396   3.862   3.394  0.1571 -0.1623 -0.5510
 3783SOL    HW113356   7.464   3.885   3.457 -0.9898 -0.6288  0.9012
 3783SOL    HW213357   7.324   3.922   3.412 -1.9109 -2.9969  1.6439
 3784SOL     OW13358   8.082   6.170  10.172  0.1043 -0.5497  0.0592
 3784SOL    HW113359   8.132   6.167  10.254 -1.7081 -0.4833  1.2225
 3784SOL    HW213360   8.017   6.239  10.186 -0.1972 -0.4946 -1.4768
 3785SOL     OW13361   7.685   7.026   9.218 -0.4886  0.0402  0.3280
 3785SOL    HW113362   7.769   6.984   9.200 -0.2926  0.7969 -0.6362
 3785SOL    HW213363   7.621   6.955   9.216 -0.2725 -0.1591 -2.0313
 3786SOL     OW13364   6.919   8.573   5.584 -0.7712  0.0778  0.2423
 3786SOL    HW113365   6.892   8.550   5.673  0.3202 -0.8266  0.3717
 3786SOL    HW213366   6.948   8.664   5.590  2.0123 -0.7648  1.5415
 3787SOL     OW13367  11.059   5.128   6.263  0.4935  0.0545  0.1906
 3787SOL    HW113368  11.104   5.212   6.274  1.1878 -0.3989  0.8910
 3787SOL    HW213369  10.997   5.125   6.337  1.3769 -0.6148  0.9136
 3788SOL     OW13370   8.649   6.541   7.251  0.2109 -0.1934  0.2671
 3788SOL    HW113371   8.659   6.455   7.211  0.0334  0.7557 -1.9380
 3788SOL    HW213372   8.554   6.555   7.253  0.1981 -0.3224  1.3177
 3789SOL     OW13373   4.700   0.441   2.339  0.2323 -0.1684 -0.1425
 3789SOL    HW113374   4.669   0.515   2.391  2.1668  1.4408 -1.1281
 3789SOL    HW213375   4.753   0.481   2.269  0.0573 -2.4053 -1.6614
 3790SOL     OW13376   2.093   5.745   4.560  0.1252 -0.4063  0.3293
 3790SOL    HW113377   2.108   5.744   4.654 -0.5622  0.2916  0.4631
 3790SOL    HW213378   2.023   5.682   4.546  0.1702 -0.4490  0.2948
 3791SOL     OW13379   6.159   7.784   0.313 -0.0672  0.0435  0.0465
 3791SOL    HW113380   6.241   7.776   0.266  1.4947  1.2354  2.3908
 3791SOL    HW213381   6.163   7.869   0.356 -2.5468  0.1512  0.2584
 3792SOL     OW13382   5.701   1.555   1.318 -0.0208  0.3385  0.1926
 3792SOL    HW113383   5.777   1.554   1.377 -0.2196  0.8017  0.4618
 3792SOL    HW213384   5.644   1.622   1.355  0.3361  1.4315 -1.1477
 3793SOL     OW13385  10.457  11.011   9.744 -0.3495 -0.1575  0.1622
 3793SOL    HW113386  10.362  11.017   9.731 -0.2409 -1.2851 -1.5002
 3793SOL    HW213387  10.493  11.019   9.656  1.4623  4.5713  1.0735
 3794SOL     OW13388   8.178   1.064   4.368  0.1475  0.3136 -0.5701
 3794SOL    HW113389   8.243   0.995   4.376 -0.0165  0.1754 -0.4071
 3794SOL    HW213390   8.102   1.031   4.417 -0.4744 -0.0455 -1.7491
 3795SOL     OW13391   1.688  10.989   5.064  0.2806  0.2543  0.1937
 3795SOL    HW113392   1.768  10.990   5.116  0.2122  2.3502  0.3326
 3795SOL    HW213393   1.634  10.921   5.105  1.5646 -0.4944  0.7156
 3796SOL     OW13394   6.300   0.159   0.152 -0.2973 -0.2245  0.2247
 3796SOL    HW113395   6.325   0.215   0.225  1.1059 -0.6473  0.0943
 3796SOL    HW213396   6.316   0.214   0.074  1.5656 -0.8996  0.0640
 3797SOL     OW13397   3.809   4.022   4.230  0.4159  0.2878 -0.0511
 3797SOL    HW113398   3.822   4.116   4.237 -1.9516  0.6377  0.4157
 3797SOL    HW213399   3.733   4.003   4.286 -0.3634 -1.5804 -1.5961
 3798SOL     OW13400   4.766   8.489   3.084  0.6241  0.0699  0.4281
 3798SOL    HW113401   4.754   8.430   3.010 -0.0654 -0.5145  0.9873
 3798SOL    HW213402   4.733   8.440   3.160  2.3934  0.1992  1.3296
 3799SOL     OW13403   8.907   2.357   7.277 -0.3024 -0.3352  0.3388
 3799SOL    HW113404   8.901   2.383   7.185 -0.2523  1.7521  0.8702
 3799SOL    HW213405   8.945   2.269   7.274 -0.8015 -0.5414 -1.6445
 3800SOL     OW13406   2.307   3.774   7.522 -0.3063  0.7461  0.1072
 3800SOL    HW113407   2.345   3.730   7.598 -2.5052 -2.2485 -0.3037
 3800SOL    HW213408   2.324   3.713   7.449 -0.2621  2.4338 -1.3552
 3801SOL     OW13409   8.563   6.994   0.232  0.3196 -0.5217 -0.1721
 3801SOL    HW113410   8.603   6.915   0.196 -1.9716 -0.9347 -2.0653
 3801SOL    HW213411   8.510   7.029   0.161 -0.7509  1.3015  1.4097
 3802SOL     OW13412   2.463   7.864   2.145  0.3076 -0.1562 -0.1967
 3802SOL    HW113413   2.441   7.778   2.107  1.6280 -0.8015  0.4225
 3802SOL    HW213414   2.542   7.891   2.099  0.6375  0.1111  0.5038
 3803SOL     OW13415  10.856   1.434   3.224 -0.2420 -0.0998  0.1568
 3803SOL    HW113416  10.786   1.446   3.288 -0.1810  1.7433 -0.0796
 3803SOL    HW213417  10.912   1.510   3.235  2.0173 -1.7376  0.6374
 3804SOL     OW13418   4.817   7.697   8.604  0.4157 -0.2822 -0.4978
 3804SOL    HW113419   4.896   7.702   8.550  1.1162 -0.9060  0.4339
 3804SOL    HW213420   4.829   7.767   8.669  0.7559 -1.0811  0.3280
 3805SOL     OW13421   0.967   4.319   8.374  0.1355  0.3067  0.3804
 3805SOL    HW113422   1.020   4.278   8.306  0.1945 -1.0041  1.1748
 3805SOL    HW213423   0.923   4.393   8.330  0.6913 -0.0953 -0.8871
 3806SOL     OW13424   5.195   9.934   6.311  0.3708 -0.2269  0.1059
 3806SOL    HW113425   5.269   9.990   6.288  0.2007 -0.4270 -1.0143
 3806SOL    HW213426   5.141   9.933   6.232 -0.2173 -1.0304  0.5063
 3807SOL     OW13427   4.936  10.017   0.429 -0.6554 -0.3170 -0.2850
 3807SOL    HW113428   4.874  10.075   0.386  1.0144  1.1454 -0.8127
 3807SOL    HW213429   4.902  10.007   0.518 -0.8674  1.6393 -0.1222
 3808SOL     OW13430   5.155   5.260   5.238 -0.0060 -0.0923  0.6750
 3808SOL    HW113431   5.099   5.325   5.278 -0.7558 -0.4300  0.1934
 3808SOL    HW213432   5.156   5.283   5.145  1.4943  0.5247  0.8156
 3809SOL     OW13433   8.285   9.822   3.565  1.1800 -0.6748  0.1419
 3809SOL    HW113434   8.370   9.859   3.589  0.5057 -0.4119  2.3523
 3809SOL    HW213435   8.280   9.740   3.615  0.8042 -1.5319 -1.2522
 3810SOL     OW13436   6.846   4.106   5.763 -0.7296  0.7481 -0.0616
 3810SOL    HW113437   6.896   4.138   5.688  2.0136 -0.2444  1.2171
 3810SOL    HW213438   6.822   4.016   5.740  0.2426  0.3920  0.2692
 3811SOL     OW13439   7.624   0.434   6.502  0.4960 -0.2173  0.3435
 3811SOL    HW113440   7.691   0.502   6.493  0.7554 -0.6582 -1.3565
 3811SOL    HW213441   7.546   0.482   6.531  1.1554  0.5118  0.9871
 3812SOL     OW13442   4.420   0.643   5.704  1.0962 -0.3013 -1.0508
 3812SOL    HW113443   4.465   0.641   5.620  1.0309  1.7961 -1.1683
 3812SOL    HW213444   4.467   0.708   5.755  0.5132 -0.8278  0.1965
 3813SOL     OW13445   0.647  11.086   3.216  1.1995 -0.2824  0.2106
 3813SOL    HW113446   0.561  11.044   3.211  1.7083 -1.2420 -1.8363
 3813SOL    HW213447   0.661  11.122   3.128  1.6426  2.5434  1.3478
 3814SOL     OW13448   3.613   5.807   6.017 -0.0047 -0.1326 -0.0354
 3814SOL    HW113449   3.681   5.853   6.065 -0.8972 -0.1457  1.2756
 3814SOL    HW213450   3.596   5.728   6.068 -1.5457  0.2507  0.0944
 3815SOL     OW13451  10.597   5.057   4.556 -0.2893  0.2614  0.0642
 3815SOL    HW113452  10.646   5.117   4.613  0.6606  0.7169 -1.1849
 3815SOL    HW213453  10.506   5.064   4.587  0.2593  0.0416  1.8810
 3816SOL     OW13454   0.106   0.859  10.679 -0.1373  0.0252  0.2333
 3816SOL    HW113455   0.107   0.792  10.610  0.0277 -0.5989  0.8274
 3816SOL    HW213456   0.013   0.881  10.689 -0.2794 -0.6975  0.5776
 3817SOL     OW13457   1.824   3.192  11.142 -0.2918  0.0703  0.4730
 3817SOL    HW113458   1.793   3.134  11.072  1.7059  0.9168 -1.2092
 3817SOL    HW213459   1.895   3.142  11.184  1.0906  1.0246 -0.6507
 3818SOL     OW13460   8.686   8.624   5.075  0.4331 -0.0331 -0.4487
 3818SOL    HW113461   8.659   8.700   5.023 -1.0430  1.1445  1.8811
 3818SOL    HW213462   8.762   8.654   5.124 -0.6394  0.2649  1.0889
 3819SOL     OW13463   0.489   5.965   6.510  0.9893 -0.0768 -0.6670
 3819SOL    HW113464   0.436   6.023   6.455  2.8275  0.6152 -1.7872
 3819SOL    HW213465   0.527   6.022   6.576  1.9681 -0.1673 -1.1348
 3820SOL     OW13466   4.149   5.083   0.377 -0.1262  0.3276 -0.2753
 3820SOL    HW113467   4.086   5.068   0.448  0.7098  1.0297  0.6525
 3820SOL    HW213468   4.199   5.159   0.406  2.3346 -1.2439 -0.1466
 3821SOL     OW13469   2.150  10.873   8.565 -0.0839 -0.4155 -0.0909
 3821SOL    HW113470   2.096  10.809   8.611 -0.1420  1.3941  2.6048
 3821SOL    HW213471   2.120  10.958   8.598  1.3187  0.9255 -2.0111
 3822SOL     OW13472   8.754   2.141   0.166  0.0888 -0.2351  0.1845
 3822SOL    HW113473   8.726   2.162   0.077 -2.4780  0.6326  1.1231
 3822SOL    HW213474   8.680   2.093   0.204  2.0352 -2.6599  1.1753
 3823SOL     OW13475   2.147   3.155   9.933 -0.1806 -0.2108 -0.2996
 3823SOL    HW113476   2.097   3.127  10.008 -3.2348  0.2479 -2.0161
 3823SOL    HW213477   2.178   3.074   9.892 -1.1528 -0.6350 -0.2197
 3824SOL     OW13478   8.906   6.254   6.004  0.6938 -0.3308 -0.0864
 3824SOL    HW113479   8.836   6.316   5.983  1.2866  0.8949  1.2985
 3824SOL    HW213480   8.947   6.292   6.082  3.2175 -0.7269 -1.1488
 3825SOL     OW13481   0.348  10.213   7.702  0.0200 -0.0249 -0.2619
 3825SOL    HW113482   0.402  10.210   7.624 -0.5450  1.2348 -0.7215
 3825SOL    HW213483   0.266  10.254   7.674 -0.5934 -0.4953  0.7572
 3826SOL     OW13484   7.400   1.526   4.881 -0.1424  0.3427  0.5498
 3826SOL    HW113485   7.335   1.463   4.913  1.1563 -0.8125  1.0066
 3826SOL    HW213486   7.405   1.509   4.787 -0.5390  0.5028  0.4937
 3827SOL     OW13487   7.977   7.156   5.928 -0.3841  0.0706 -0.1465
 3827SOL    HW113488   7.906   7.210   5.892 -0.4099  0.0755 -0.0889
 3827SOL    HW213489   7.938   7.070   5.943 -0.9775  0.6273  1.8597
 3828SOL     OW13490   1.941   0.738   2.866  0.6956 -0.1127  0.2867
 3828SOL    HW113491   1.987   0.655   2.872 -0.3446 -0.6936  0.3833
 3828SOL    HW213492   1.948   0.763   2.773 -0.8266 -1.3930 -0.2013
 3829SOL     OW13493   4.226   6.671   9.255 -0.2301  0.3961 -0.0973
 3829SOL    HW113494   4.156   6.623   9.298  1.0067 -0.3870  1.1124
 3829SOL    HW213495   4.188   6.700   9.172 -1.9052 -0.1668  0.4378
 3830SOL     OW13496   0.472   1.503   4.277 -0.1978  0.1849 -0.3482
 3830SOL    HW113497   0.501   1.412   4.270 -2.0511 -0.4708 -0.2213
 3830SOL    HW213498   0.552   1.553   4.294  0.5458 -1.8674  3.3986
 3831SOL     OW13499   9.727   8.092   9.278  0.3049  0.0255  0.1661
 3831SOL    HW113500   9.721   8.049   9.363  0.5668 -1.6093 -0.5977
 3831SOL    HW213501   9.785   8.167   9.292  1.1234 -0.7836  1.2033
 3832SOL     OW13502   1.277   7.782   2.180 -0.0675  0.5309 -0.5134
 3832SOL    HW113503   1.217   7.769   2.107 -0.7855 -0.2544  0.2028
 3832SOL    HW213504   1.307   7.694   2.203  0.7446  0.8411 -0.3487
 3833SOL     OW13505   2.092   8.151   2.098  0.0463  0.2956 -0.5389
 3833SOL    HW113506   2.152   8.108   2.038  0.1496 -0.9570  0.4320
 3833SOL    HW213507   2.042   8.080   2.138  0.9836  0.9098  1.9370
 3834SOL     OW13508   1.214   8.215   7.270  0.1880  0.6275 -0.3987
 3834SOL    HW113509   1.231   8.202   7.363 -1.3405  2.0349  0.1302
 3834SOL    HW213510   1.146   8.151   7.248 -0.8144  1.5239 -0.0340
 3835SOL     OW13511   5.965   0.987   0.909 -0.5431 -0.3581  0.3811
 3835SOL    HW113512   6.059   0.968   0.912 -0.4377  0.2846  2.6505
 3835SOL    HW213513   5.960   1.078   0.879 -0.2811  0.2632  2.1047
 3836SOL     OW13514   4.971   1.299   8.958 -0.4126 -0.1800 -0.3058
 3836SOL    HW113515   4.951   1.321   8.867 -0.5646  0.9647 -0.0068
 3836SOL    HW213516   5.066   1.305   8.964 -0.4988  1.0989 -0.0631
 3837SOL     OW13517   8.435   0.703   0.947 -0.2094  0.2823  0.3969
 3837SOL    HW113518   8.365   0.768   0.952 -2.3987 -1.8530 -0.4653
 3837SOL    HW213519   8.514   0.754   0.927 -1.7157  2.6673  0.1323
 3838SOL     OW13520   0.728   5.879   2.662 -0.2743  0.0174  0.0348
 3838SOL    HW113521   0.712   5.810   2.597 -0.0210  1.1512 -1.2885
 3838SOL    HW213522   0.646   5.928   2.666 -0.2017  0.1135  0.3818
 3839SOL     OW13523   1.219   6.472   9.886 -0.3155 -0.1659 -0.4315
 3839SOL    HW113524   1.305   6.453   9.923  0.0150  0.3723 -0.9136
 3839SOL    HW213525   1.234   6.545   9.826 -0.8982 -0.7869 -1.3536
 3840SOL     OW13526   7.815   5.358   6.747  0.0236 -0.1239  0.1313
 3840SOL    HW113527   7.797   5.352   6.653  1.3556 -1.6116 -0.0628
 3840SOL    HW213528   7.878   5.288   6.764  0.3557  0.5771  2.0093
 3841SOL     OW13529   3.185   8.938   7.287  0.2432  0.2359 -0.0428
 3841SOL    HW113530   3.255   8.963   7.347 -1.4075  2.2389  1.1927
 3841SOL    HW213531   3.167   8.847   7.306 -0.6529  0.9659  3.0541
 3842SOL     OW13532   7.645  10.984   9.771  0.0340  0.0278  0.4872
 3842SOL    HW113533   7.677  10.954   9.856  2.0411  1.7936  0.4481
 3842SOL    HW213534   7.550  10.976   9.777  0.1704 -0.6375  2.6018
 3843SOL     OW13535   1.611   5.398   3.370  0.7745  0.5935 -0.3658
 3843SOL    HW113536   1.677   5.342   3.329 -1.3367 -1.9228 -0.5865
 3843SOL    HW213537   1.539   5.401   3.307  0.1195  2.2469  0.3872
 3844SOL     OW13538   7.656   5.242   8.984  0.0863 -0.9978  0.3358
 3844SOL    HW113539   7.657   5.335   8.962  2.2497 -0.8931  0.6866
 3844SOL    HW213540   7.676   5.239   9.077 -1.7986 -1.7715  0.7613
 3845SOL     OW13541   0.033   4.093   0.060 -0.1555 -0.1297  0.3254
 3845SOL    HW113542   0.013   4.095  -0.034 -3.1355  2.2765  0.8453
 3845SOL    HW213543   0.116   4.045   0.066 -0.0542 -0.7467 -3.4543
 3846SOL     OW13544   2.143   7.473   1.658  0.8258 -0.1671  0.1766
 3846SOL    HW113545   2.172   7.388   1.690 -1.1798 -1.0857 -0.2096
 3846SOL    HW213546   2.049   7.461   1.643 -0.0075  2.8049  2.2523
 3847SOL     OW13547   9.428   1.061   3.904 -0.5011  0.7105  0.0981
 3847SOL    HW113548   9.487   1.009   3.958 -1.3194 -0.8038 -0.4248
 3847SOL    HW213549   9.381   1.116   3.967  0.7335  1.2143  0.6107
 3848SOL     OW13550   8.954   2.563   9.810 -0.1728 -0.1392  0.3260
 3848SOL    HW113551   8.949   2.618   9.733 -0.2568  0.6712  0.9022
 3848SOL    HW213552   8.868   2.571   9.851 -0.7994 -2.0515 -0.4771
 3849SOL     OW13553  10.542   5.335   4.642  0.4767  0.2650 -0.3313
 3849SOL    HW113554  10.570   5.426   4.638 -0.0939  0.5919  1.7409
 3849SOL    HW213555  10.451   5.339   4.674  0.0806 -0.9953 -1.2145
 3850SOL     OW13556   6.619   4.154   1.322  0.4502  0.2326 -0.2542
 3850SOL    HW113557   6.537   4.201   1.305 -1.2150 -2.1529  0.5902
 3850SOL    HW213558   6.679   4.221   1.354 -2.2834  1.6099  2.5925
 3851SOL     OW13559   9.093   9.001   4.197 -0.3236 -0.0014  0.1931
 3851SOL    HW113560   9.040   9.078   4.179 -2.1712 -0.5131  2.8901
 3851SOL    HW213561   9.167   9.033   4.248 -0.0022  0.2084 -0.3897
 3852SOL     OW13562   0.557   9.022   8.792 -0.8245  0.1528 -0.1580
 3852SOL    HW113563   0.502   9.017   8.714 -0.1605  1.7232 -0.7842
 3852SOL    HW213564   0.630   8.963   8.775  0.1873  1.6941 -1.5279
 3853SOL     OW13565   9.031   9.017   7.499 -0.5300  1.1028 -0.1003
 3853SOL    HW113566   9.049   9.015   7.593 -0.7792 -0.0950 -0.0652
 3853SOL    HW213567   9.111   9.053   7.460 -0.5730  1.9821  0.5879
 3854SOL     OW13568  10.789  11.134   2.928 -0.3342  0.4379 -0.4318
 3854SOL    HW113569  10.780  11.155   2.835  2.5186  0.7920 -0.7186
 3854SOL    HW213570  10.784  11.039   2.932 -0.8482  0.4406 -0.8728
 3855SOL     OW13571   8.294   5.673   1.008 -0.2897 -0.0058  0.2258
 3855SOL    HW113572   8.248   5.593   1.033  0.4061 -1.1384 -1.8102
 3855SOL    HW213573   8.305   5.722   1.090 -0.5350 -2.1065  1.5953
 3856SOL     OW13574   8.169  10.306   1.367  0.1770 -0.4412  0.3360
 3856SOL    HW113575   8.245  10.271   1.413  1.5927  1.1342 -0.6895
 3856SOL    HW213576   8.154  10.391   1.409  0.3306  0.1870 -0.8391
 3857SOL     OW13577  10.990   6.472   4.014 -0.0558  0.4483 -0.6245
 3857SOL    HW113578  10.930   6.473   4.089 -0.2144 -0.2498 -0.7398
 3857SOL    HW213579  11.037   6.555   4.020 -1.0304  0.9977 -0.5319
 3858SOL     OW13580   1.925   1.871   2.787  0.3008 -0.2477 -0.1711
 3858SOL    HW113581   1.929   1.953   2.836  1.7432 -0.1796 -0.3858
 3858SOL    HW213582   1.846   1.828   2.821 -2.2813  2.4821 -2.1125
 3859SOL     OW13583  10.654   1.270   3.537  0.3283  0.2927 -0.1261
 3859SOL    HW113584  10.623   1.185   3.505  0.1937  0.2317  0.1622
 3859SOL    HW213585  10.608   1.334   3.484 -0.2960  0.2030  0.2911
 3860SOL     OW13586   0.099   6.846   5.877 -0.0061 -0.5961 -0.5037
 3860SOL    HW113587   0.040   6.871   5.949  1.1299  0.2617  0.1580
 3860SOL    HW213588   0.163   6.917   5.874  0.6010 -1.1806 -1.6565
 3861SOL     OW13589   5.500  11.059   0.470 -0.6824 -0.4100  0.0473
 3861SOL    HW113590   5.565  11.121   0.503 -0.5999  1.2296 -2.8581
 3861SOL    HW213591   5.545  11.012   0.400 -1.7869 -1.2993 -0.0922
 3862SOL     OW13592   0.558   0.293   8.461 -0.6116 -0.2236 -0.5610
 3862SOL    HW113593   0.626   0.280   8.394  0.2411  0.8473  0.0716
 3862SOL    HW213594   0.595   0.254   8.540 -0.4191  0.9729 -0.0414
 3863SOL     OW13595   4.002   6.073   4.577  0.2408 -0.1147 -0.1185
 3863SOL    HW113596   4.031   6.138   4.640  1.7289  0.4350 -1.3251
 3863SOL    HW213597   4.067   6.075   4.507 -0.9378 -1.2423 -1.3256
 3864SOL     OW13598   5.261   2.822   2.915 -0.1472 -0.5941  0.0586
 3864SOL    HW113599   5.353   2.848   2.926 -1.1683  2.4549  3.0124
 3864SOL    HW213600   5.263   2.726   2.925  2.9405 -1.0509 -2.9872
 3865SOL     OW13601   0.750   7.473   6.181  0.8570  0.5472 -0.1924
 3865SOL    HW113602   0.729   7.465   6.088  0.0462  0.2931  0.0052
 3865SOL    HW213603   0.717   7.392   6.220 -2.6583  2.3589  0.9889
 3866SOL     OW13604  10.160   7.679   4.614 -0.1226 -0.0350 -0.0250
 3866SOL    HW113605  10.242   7.706   4.573  0.0804 -1.0968 -0.3272
 3866SOL    HW213606  10.102   7.755   4.601  0.6980  0.6006 -0.0888
 3867SOL     OW13607   5.042   1.391   5.458  0.3454  0.3511  0.1750
 3867SOL    HW113608   5.056   1.453   5.529 -1.5303  0.5911  0.3834
 3867SOL    HW213609   4.950   1.368   5.464  0.6236 -1.2254 -0.9125
 3868SOL     OW13610  10.872  10.601   8.202  0.0338  0.4324  0.1703
 3868SOL    HW113611  10.815  10.529   8.228 -0.3733  0.1154 -1.5223
 3868SOL    HW213612  10.828  10.641   8.127 -1.5637  4.6624  2.9905
 3869SOL     OW13613   9.555   1.609   9.164 -0.0708  0.0134 -0.3666
 3869SOL    HW113614   9.489   1.643   9.224 -0.3242 -1.0225 -0.0360
 3869SOL    HW213615   9.629   1.670   9.172 -1.1944  1.5675 -1.2384
 3870SOL     OW13616   9.500   2.655  10.644  0.2463  0.3337  0.1367
 3870SOL    HW113617   9.581   2.607  10.627 -0.7643 -0.6345 -2.4629
 3870SOL    HW213618   9.475   2.691  10.559 -1.8447  0.9599  0.9398
 3871SOL     OW13619  10.364   7.709   6.470  0.4418 -0.0670  0.2967
 3871SOL    HW113620  10.457   7.729   6.471  0.4248  0.4566 -2.1526
 3871SOL    HW213621  10.352   7.647   6.541  3.0903 -1.8417 -0.6643
 3872SOL     OW13622   8.641   2.098   8.533 -0.6647  0.0023 -0.1708
 3872SOL    HW113623   8.621   2.122   8.624 -2.2415 -0.7738 -0.2822
 3872SOL    HW213624   8.622   2.177   8.482  0.7352  0.6108  0.2033
 3873SOL     OW13625   9.200   1.603   6.469 -0.0864  0.3412 -0.2893
 3873SOL    HW113626   9.258   1.528   6.480 -2.9413 -2.1027 -0.6960
 3873SOL    HW213627   9.207   1.625   6.376 -0.3834 -0.4829 -0.5147
 3874SOL     OW13628   9.658  10.682   9.444  0.3214 -0.4886  0.2416
 3874SOL    HW113629   9.639  10.672   9.538 -1.2779  0.7598  0.0908
 3874SOL    HW213630   9.630  10.771   9.423  0.2047 -0.8973 -1.5211
 3875SOL     OW13631   4.736   5.869   0.311 -0.2043 -0.3508  0.2101
 3875SOL    HW113632   4.718   5.842   0.402  0.8475 -0.2846  0.4468
 3875SOL    HW213633   4.721   5.790   0.259  0.6662 -0.8124  0.6356
 3876SOL     OW13634   7.794   9.721   5.562 -0.0307  0.1232 -0.1641
 3876SOL    HW113635   7.731   9.667   5.610 -1.1976  1.7368  0.1753
 3876SOL    HW213636   7.755   9.808   5.560  2.4230  1.3163  0.4963
 3877SOL     OW13637   1.363   8.497   4.290  0.3586  0.8748 -0.5596
 3877SOL    HW113638   1.358   8.487   4.385  1.2935  2.4922 -0.2956
 3877SOL    HW213639   1.290   8.445   4.256  0.4010 -0.2663  0.9879
 3878SOL     OW13640   7.852   9.191   9.448  0.3437 -0.7142 -0.0516
 3878SOL    HW113641   7.884   9.110   9.407  0.8249  0.1097 -1.3470
 3878SOL    HW213642   7.842   9.252   9.375  4.3584  1.9055  1.2762
 3879SOL     OW13643   4.317   4.288   5.716 -0.4507 -0.2030 -0.3462
 3879SOL    HW113644   4.266   4.366   5.694 -0.8973 -0.3853  0.0294
 3879SOL    HW213645   4.353   4.258   5.633  1.1443  1.3831 -0.2961
 3880SOL     OW13646   4.325  10.167   4.393  0.0829 -0.4735  0.1762
 3880SOL    HW113647   4.388  10.227   4.430  0.7159 -1.6289  1.0272
 3880SOL    HW213648   4.318  10.096   4.457  0.7364 -2.2121 -1.5753
 3881SOL     OW13649   1.135  11.171   4.262  0.2129  0.0887  0.0824
 3881SOL    HW113650   1.075  11.138   4.195  1.3225 -1.3342 -0.2512
 3881SOL    HW213651   1.157  11.260   4.233  1.2104 -0.7343 -1.8383
 3882SOL     OW13652  10.010   4.708   4.469 -0.2017  0.7895  0.1470
 3882SOL    HW113653  10.080   4.648   4.496 -0.6403  0.6944  1.0910
 3882SOL    HW213654  10.055   4.791   4.450  0.2746  0.4692 -0.1656
 3883SOL     OW13655   9.877   3.384   0.942  0.6902  0.4640 -0.4324
 3883SOL    HW113656   9.914   3.315   0.886  0.1140 -0.1364 -0.0755
 3883SOL    HW213657   9.786   3.358   0.957 -0.4255  2.6762 -2.5508
 3884SOL     OW13658   7.212   8.587   5.507 -1.0897 -0.1875 -0.4080
 3884SOL    HW113659   7.156   8.616   5.579  0.4637 -2.6166  1.9547
 3884SOL    HW213660   7.267   8.664   5.488 -2.2306  0.8337  0.2526
 3885SOL     OW13661   1.370   4.541   6.407  0.4634 -0.1280  0.0779
 3885SOL    HW113662   1.275   4.545   6.395  0.5367  1.2126 -0.1931
 3885SOL    HW213663   1.392   4.449   6.394 -0.7829 -0.4430  0.0590
 3886SOL     OW13664   8.743   3.315   4.193 -0.0730  0.4197  0.2174
 3886SOL    HW113665   8.695   3.270   4.263  0.3384  0.6231  0.6405
 3886SOL    HW213666   8.824   3.264   4.184  0.3082  0.9503  0.5612
 3887SOL     OW13667   9.867   9.594   9.168  0.3260 -0.3167 -0.0482
 3887SOL    HW113668   9.855   9.665   9.231 -2.5642 -0.1410 -0.6220
 3887SOL    HW213669   9.791   9.602   9.110 -0.4506 -4.1771  0.1938
 3888SOL     OW13670   7.087   0.473   4.414  0.6749 -0.3621  0.0965
 3888SOL    HW113671   7.169   0.513   4.386 -1.4102  2.8996 -2.1695
 3888SOL    HW213672   7.067   0.514   4.498  0.3779  0.6003 -0.4209
 3889SOL     OW13673   8.900   6.651   3.502 -0.4465  0.5604  0.2257
 3889SOL    HW113674   8.894   6.704   3.422  0.4831 -2.9656 -2.4467
 3889SOL    HW213675   8.810   6.631   3.525 -0.7224  1.4237 -0.0723
 3890SOL     OW13676   1.727   1.426   3.481  0.4887  0.1136 -0.1539
 3890SOL    HW113677   1.664   1.409   3.412 -0.1439 -0.2010  0.4935
 3890SOL    HW213678   1.779   1.500   3.448  0.2066 -0.0375 -0.9600
 3891SOL     OW13679   1.528   1.043   3.184 -0.2846 -0.6578 -0.7454
 3891SOL    HW113680   1.475   1.000   3.118 -1.2711 -1.1391  0.3222
 3891SOL    HW213681   1.505   1.136   3.177 -0.2568 -0.6855 -1.1846
 3892SOL     OW13682   1.171   5.088   8.676 -0.3977 -0.5229 -0.2395
 3892SOL    HW113683   1.221   5.069   8.597  0.0432  0.5218 -0.2277
 3892SOL    HW213684   1.126   5.170   8.657 -2.1985 -1.4572 -0.2740
 3893SOL     OW13685  11.100   5.545   1.249 -0.0286 -0.5819 -0.0027
 3893SOL    HW113686  11.161   5.578   1.315 -1.0272  0.3106  0.5185
 3893SOL    HW213687  11.152   5.537   1.169  1.6250 -3.2210  1.2138
 3894SOL     OW13688   7.280   4.485   7.373  0.1064 -0.3715  0.0093
 3894SOL    HW113689   7.259   4.563   7.424  1.3471 -0.6137  0.9335
 3894SOL    HW213690   7.223   4.417   7.408  0.1920 -0.2760  0.3324
 3895SOL     OW13691   8.741   8.745   8.973 -0.1776 -0.3651 -0.3902
 3895SOL    HW113692   8.724   8.668   9.028 -0.6394  0.7432  1.0882
 3895SOL    HW213693   8.819   8.784   9.011 -0.4553  0.3773 -0.5707
 3896SOL     OW13694   3.740   3.248   0.703  0.2779 -0.2607 -0.2303
 3896SOL    HW113695   3.815   3.194   0.678  1.3410  0.8992  0.3490
 3896SOL    HW213696   3.771   3.297   0.779 -0.2683  1.9623 -1.3637
 3897SOL     OW13697   7.900   6.610   0.979 -0.8489 -0.2076  0.2565
 3897SOL    HW113698   7.957   6.541   1.013 -0.3740  0.6231  1.1626
 3897SOL    HW213699   7.936   6.691   1.014 -1.2039  0.5481 -1.0661
 3898SOL     OW13700   6.483   7.481   8.851 -0.7941  0.3682  0.4861
 3898SOL    HW113701   6.535   7.407   8.882 -1.8543 -0.6999 -0.2143
 3898SOL    HW213702   6.410   7.486   8.914  0.5148  2.3934  1.9738
 3899SOL     OW13703   9.478   6.352   9.209  0.5247  0.0586  0.0556
 3899SOL    HW113704   9.516   6.434   9.177 -0.1017  1.2157  2.1105
 3899SOL    HW213705   9.439   6.375   9.293 -1.9483 -1.7783 -0.4924
 3900SOL     OW13706   6.682   4.448   0.448  0.2133 -0.7689 -0.1949
 3900SOL    HW113707   6.705   4.381   0.512 -1.9736 -1.3512  0.0587
 3900SOL    HW213708   6.586   4.451   0.450  0.1147  4.2283  1.7560
 3901SOL     OW13709   3.066   5.844   1.426 -0.1178  0.0961  0.2459
 3901SOL    HW113710   3.059   5.770   1.486  0.0417 -0.4230 -0.3732
 3901SOL    HW213711   3.056   5.921   1.483 -0.9903 -0.4005  0.7948
 3902SOL     OW13712   2.812   8.280   9.058  0.3668  0.2061 -0.9056
 3902SOL    HW113713   2.771   8.283   8.971  2.1258  1.0967 -1.7633
 3902SOL    HW213714   2.906   8.280   9.040  0.7852 -1.4459  0.9865
 3903SOL     OW13715   9.027   4.891   2.865  0.0415  0.1506 -0.4302
 3903SOL    HW113716   9.050   4.978   2.833 -0.0437  0.0861 -0.6684
 3903SOL    HW213717   8.940   4.902   2.904  0.4314  0.3761  0.3921
 3904SOL     OW13718   9.498   6.623   9.187  0.1089  0.3124 -0.3407
 3904SOL    HW113719   9.545   6.623   9.270 -0.7494  1.1466  0.1672
 3904SOL    HW213720   9.432   6.692   9.197 -1.6416 -1.2001 -0.7931
 3905SOL     OW13721   7.192   3.893   2.663 -0.2819  0.1310 -0.0618
 3905SOL    HW113722   7.152   3.873   2.748 -2.1355  0.5183 -0.7934
 3905SOL    HW213723   7.141   3.842   2.600  0.7276  0.2546 -1.0057
 3906SOL     OW13724   7.762   9.432   8.654 -0.6283 -0.3385 -0.0699
 3906SOL    HW113725   7.726   9.354   8.611  0.0963 -0.2657 -0.8319
 3906SOL    HW213726   7.851   9.439   8.619 -1.4749  2.2914 -2.0361
 3907SOL     OW13727   9.654   9.436   7.773  0.5870 -0.2058 -0.4363
 3907SOL    HW113728   9.570   9.428   7.819  1.1439 -0.7640  0.5040
 3907SOL    HW213729   9.661   9.530   7.754 -0.8224 -0.3105 -1.6694
 3908SOL     OW13730   0.812   6.426   8.460 -0.3398  0.1542  0.4511
 3908SOL    HW113731   0.780   6.338   8.438  2.0554 -1.2940  2.2619
 3908SOL    HW213732   0.832   6.466   8.375  0.2626 -1.7800 -0.3776
 3909SOL     OW13733   2.830   0.506   7.454  0.2745  0.1872  0.0018
 3909SOL    HW113734   2.739   0.479   7.462 -0.5532  2.9238  1.1646
 3909SOL    HW213735   2.876   0.458   7.523 -0.7104  0.2725  0.7434
 3910SOL     OW13736   9.154   1.946  10.240  0.7241 -0.3885  0.3423
 3910SOL    HW113737   9.133   2.039  10.237  0.5116 -0.4038  1.2532
 3910SOL    HW213738   9.166   1.926  10.333  0.9108 -1.2402  0.1482
 3911SOL     OW13739   0.519   0.907   1.948 -0.2727 -0.3924  0.0970
 3911SOL    HW113740   0.614   0.904   1.938 -0.2571 -1.4367  0.4115
 3911SOL    HW213741   0.486   0.854   1.876 -0.7256  1.3806 -1.0518
 3912SOL     OW13742   4.963   3.346   5.243  0.8874  0.2086 -0.8830
 3912SOL    HW113743   5.038   3.406   5.247  1.1903 -0.1060 -1.6188
 3912SOL    HW213744   4.999   3.265   5.207 -0.2075  0.7445 -3.3766
 3913SOL     OW13745   0.094   6.311   4.115  0.1012  0.1224 -0.5307
 3913SOL    HW113746   0.036   6.384   4.136 -1.2314 -1.2204  0.6573
 3913SOL    HW213747   0.179   6.337   4.150 -0.6017  0.6715  0.8285
 3914SOL     OW13748   0.650  10.337   8.874  0.6134  0.5728 -0.1133
 3914SOL    HW113749   0.704  10.258   8.871  1.1862  0.9276  0.6166
 3914SOL    HW213750   0.643  10.364   8.783  3.0336  1.4171 -0.1125
 3915SOL     OW13751   0.626   8.413   0.009  0.1201 -0.0895 -0.0656
 3915SOL    HW113752   0.650   8.331  -0.035  2.0931 -0.3751  1.3701
 3915SOL    HW213753   0.542   8.394   0.050 -0.0680 -0.9681 -0.8123
 3916SOL     OW13754   8.539   6.602   2.590 -0.1617 -0.4672 -0.1206
 3916SOL    HW113755   8.559   6.678   2.645  2.3813 -2.0180  1.2796
 3916SOL    HW213756   8.619   6.586   2.539 -1.8787 -0.0828 -3.2147
 3917SOL     OW13757   4.996  10.702   1.370  0.3214  0.8795 -0.5017
 3917SOL    HW113758   4.919  10.658   1.334 -0.5120  2.0473 -0.2197
 3917SOL    HW213759   4.965  10.743   1.451  0.9516  2.2256 -0.9087
 3918SOL     OW13760  11.091   4.943   8.066 -0.2847 -0.2075  0.3410
 3918SOL    HW113761  11.076   4.901   7.981 -1.6460  1.1604 -0.1423
 3918SOL    HW213762  11.098   4.870   8.127 -0.7818 -1.1981 -0.7339
 3919SOL     OW13763   5.443  10.409  10.454  0.5051  0.6715  0.0199
 3919SOL    HW113764   5.439  10.465  10.376 -1.0049  0.2298 -0.2468
 3919SOL    HW213765   5.362  10.359  10.451  0.9992 -0.2240  1.2421
 3920SOL     OW13766   2.565   8.038   9.759  0.2506 -0.5275 -0.1865
 3920SOL    HW113767   2.483   8.068   9.798 -0.6413  0.0058 -2.3511
 3920SOL    HW213768   2.622   8.115   9.760 -0.3020 -0.0846 -1.2412
 3921SOL     OW13769   4.805   0.613   4.738  0.1065  0.0703 -0.0944
 3921SOL    HW113770   4.730   0.642   4.791 -0.3765  0.3844 -0.9285
 3921SOL    HW213771   4.765   0.562   4.667  0.8412 -1.5116  0.5751
 3922SOL     OW13772   9.818   7.280   5.559  0.3379  0.1174 -0.5662
 3922SOL    HW113773   9.784   7.195   5.586  0.3998 -0.4965 -2.3109
 3922SOL    HW213774   9.906   7.284   5.598 -0.1952  0.0198  0.7005
 3923SOL     OW13775   4.834   9.492   0.988  0.3574  0.2082 -0.1527
 3923SOL    HW113776   4.920   9.510   1.026 -0.1549 -1.7044  2.1497
 3923SOL    HW213777   4.774   9.547   1.038  0.0360  0.1154 -0.4326
 3924SOL     OW13778   2.096   7.636   4.690 -0.5062 -0.1518 -0.0734
 3924SOL    HW113779   2.049   7.584   4.755  2.1053 -0.4875  1.7312
 3924SOL    HW213780   2.030   7.694   4.653 -2.7352 -2.0941  0.6279
 3925SOL     OW13781   7.768   4.471   1.484  0.3993 -0.6580 -0.1214
 3925SOL    HW113782   7.690   4.504   1.441 -1.8867 -1.9826  2.6443
 3925SOL    HW213783   7.840   4.523   1.448 -2.2929  4.2429  0.6781
 3926SOL     OW13784   0.732   4.767   2.046  0.7503  0.6325  0.2380
 3926SOL    HW113785   0.682   4.753   1.966 -1.7180 -1.2104  1.9292
 3926SOL    HW213786   0.755   4.679   2.076  0.9894  1.2049  1.8658
 3927SOL     OW13787   0.423   2.768   0.820  0.0901  0.6963 -0.3064
 3927SOL    HW113788   0.429   2.676   0.849 -0.3025  0.6338 -0.4149
 3927SOL    HW213789   0.402   2.763   0.727 -3.1040  0.8380  0.2890
 3928SOL     OW13790   2.701   8.790   1.695 -0.0721 -0.0560 -0.7529
 3928SOL    HW113791   2.673   8.699   1.694 -0.7465  0.1208  0.4652
 3928SOL    HW213792   2.795   8.786   1.711 -0.0199 -0.5484 -1.1723
 3929SOL     OW13793   7.520   6.195   5.113  0.1604  0.2294  0.1803
 3929SOL    HW113794   7.429   6.191   5.081 -1.8264  0.2428  5.0257
 3929SOL    HW213795   7.562   6.259   5.055 -2.1929 -1.2427 -3.5613
 3930SOL     OW13796   6.092   4.944   7.629 -0.1139  0.0970 -0.3388
 3930SOL    HW113797   6.013   4.998   7.627 -0.1551  0.1118  0.8341
 3930SOL    HW213798   6.155   4.992   7.576 -1.1020 -0.2957 -1.9560
 3931SOL     OW13799   8.148   8.032   0.284 -0.0633  0.1427 -0.5936
 3931SOL    HW113800   8.202   7.968   0.237 -0.1118  0.8245 -1.6045
 3931SOL    HW213801   8.073   7.982   0.315  0.8467 -0.7086  0.3550
 3932SOL     OW13802   7.078   6.268   1.658 -0.2142 -0.2252  0.2386
 3932SOL    HW113803   7.058   6.198   1.720 -0.3982 -1.0460 -0.7245
 3932SOL    HW213804   6.994   6.291   1.620 -0.0387 -0.0483 -0.0419
 3933SOL     OW13805   8.720   5.771  10.402  0.1624  0.1155 -0.1847
 3933SOL    HW113806   8.646   5.751  10.459  0.4734 -1.2386 -0.2196
 3933SOL    HW213807   8.710   5.711  10.328  0.1757  1.3376 -1.2026
 3934SOL     OW13808   0.532   7.740   1.113 -0.7960 -0.0509  0.6510
 3934SOL    HW113809   0.443   7.769   1.093 -1.3151 -0.2159  2.4686
 3934SOL    HW213810   0.521   7.681   1.188  0.8845  0.3851  1.2872
 3935SOL     OW13811   9.866   0.812   0.798 -0.0513  0.0652 -0.5571
 3935SOL    HW113812   9.948   0.861   0.785  0.6702 -0.7307  0.7139
 3935SOL    HW213813   9.802   0.858   0.744  1.1376  0.9658 -1.2644
 3936SOL     OW13814   7.023   6.344   4.270 -0.5417 -0.0864  0.1079
 3936SOL    HW113815   6.962   6.282   4.311  0.9379 -1.0827  0.8717
 3936SOL    HW213816   7.017   6.423   4.325 -0.1984 -0.6383  0.9512
 3937SOL     OW13817   9.789   6.103   8.168 -0.2545  0.2881 -0.2662
 3937SOL    HW113818   9.858   6.121   8.105 -0.5266  1.1209 -0.3333
 3937SOL    HW213819   9.816   6.147   8.248 -0.9173  1.0133 -0.4286
 3938SOL     OW13820  10.950   8.516   7.718 -0.4681  0.1658  1.0738
 3938SOL    HW113821  11.009   8.589   7.733  0.6874 -0.2758 -0.9359
 3938SOL    HW213822  10.878   8.553   7.666  0.7260 -0.2733 -1.0120
 3939SOL     OW13823   2.010   0.048   8.395  0.4942  0.0301  0.3642
 3939SOL    HW113824   2.024  -0.046   8.395 -0.4764 -0.1243 -0.0665
 3939SOL    HW213825   2.015   0.072   8.488 -4.3540 -1.3218  1.2847
 3940SOL     OW13826   5.203   0.845   8.388  0.0700  0.0899  0.0909
 3940SOL    HW113827   5.271   0.790   8.350  0.2617 -0.4619  1.1941
 3940SOL    HW213828   5.251   0.921   8.422  0.1887 -0.4137  1.0855
 3941SOL     OW13829   8.986   5.680   3.008  0.5802 -0.1587  0.3964
 3941SOL    HW113830   8.963   5.597   3.050  0.0751  0.3324  1.1090
 3941SOL    HW213831   9.073   5.665   2.972  1.3850 -0.3465  2.3237
 3942SOL     OW13832   6.613   4.012   7.954  0.4705  0.0963  0.0626
 3942SOL    HW113833   6.622   4.100   7.918 -2.9895 -0.3401 -2.4001
 3942SOL    HW213834   6.634   4.022   8.047  2.4348  2.9568 -0.5489
 3943SOL     OW13835   1.477   6.768   8.037 -0.2018  0.2315  0.2270
 3943SOL    HW113836   1.459   6.756   8.130  0.1252  2.2368  0.5895
 3943SOL    HW213837   1.393   6.794   7.999 -0.2451 -0.2021  0.0125
 3944SOL     OW13838   1.817   8.882   1.917 -0.0393  0.4812 -0.1861
 3944SOL    HW113839   1.862   8.800   1.897  1.9379  1.7286 -1.1505
 3944SOL    HW213840   1.734   8.876   1.870 -0.1253 -1.1218  0.1178
 3945SOL     OW13841   0.139   5.611   6.235 -0.1649  0.8134  0.1464
 3945SOL    HW113842   0.147   5.617   6.330  1.2246 -2.0971  0.3137
 3945SOL    HW213843   0.228   5.629   6.203 -0.3960  0.7583 -0.5231
 3946SOL     OW13844   7.493   2.600   4.609 -0.9454 -0.0670  0.0594
 3946SOL    HW113845   7.469   2.642   4.527 -0.9329  0.8996  0.5388
 3946SOL    HW213846   7.566   2.542   4.587  0.8085  2.0954 -0.1709
 3947SOL     OW13847   8.194   1.682  11.250 -0.2705  0.1747 -0.0928
 3947SOL    HW113848   8.225   1.692  11.161  0.6115 -1.3496  0.0011
 3947SOL    HW213849   8.125   1.615  11.245 -0.9884  0.8696  0.2267
 3948SOL     OW13850   1.108   2.011  11.181 -0.6452  0.7506 -0.0260
 3948SOL    HW113851   1.052   1.990  11.107 -1.7936  1.2010  0.6815
 3948SOL    HW213852   1.198   2.002  11.147 -1.1376  1.2746 -1.5465
 3949SOL     OW13853  11.192   3.754   7.842  0.4499  0.7335  0.4780
 3949SOL    HW113854  11.141   3.794   7.912  1.1099  0.8831  0.8838
 3949SOL    HW213855  11.230   3.828   7.795 -1.7806  0.7641 -1.4794
 3950SOL     OW13856   9.657  10.897  10.591 -0.2340 -0.3715  0.3642
 3950SOL    HW113857   9.596  10.946  10.536 -0.4890 -0.3068  0.7008
 3950SOL    HW213858   9.617  10.899  10.678  0.2497 -0.3283  0.5872
 3951SOL     OW13859   9.951   6.561   8.902 -0.3359 -0.8023 -0.2063
 3951SOL    HW113860   9.874   6.526   8.857 -0.8517 -0.5885  0.4865
 3951SOL    HW213861   9.974   6.493   8.966 -2.1351  0.5631  2.0572
 3952SOL     OW13862   4.735   5.341   4.617  0.4017  0.7059  0.1666
 3952SOL    HW113863   4.827   5.336   4.643 -0.3067 -1.3413  2.6591
 3952SOL    HW213864   4.703   5.420   4.659  0.4788  0.1329  1.3278
 3953SOL     OW13865   8.300   5.620   4.065 -0.2348 -0.7011  0.0637
 3953SOL    HW113866   8.230   5.678   4.038 -0.9298 -1.6272 -0.1956
 3953SOL    HW213867   8.341   5.664   4.140 -2.4165 -1.0597  1.5570
 3954SOL     OW13868   2.930   0.210   5.724  0.4106  0.1762 -0.4186
 3954SOL    HW113869   3.012   0.188   5.768  0.7560  0.1621 -1.0563
 3954SOL    HW213870   2.951   0.204   5.630 -0.3432  0.0684 -0.5849
 3955SOL     OW13871   0.177   1.588   2.304  0.4219 -0.3340  0.0321
 3955SOL    HW113872   0.180   1.508   2.252  1.8903 -0.7108  0.6544
 3955SOL    HW213873   0.160   1.559   2.393  1.5151 -0.0198  0.3586
 3956SOL     OW13874   5.718   5.031   2.749 -0.3075 -0.3052 -0.5924
 3956SOL    HW113875   5.633   4.993   2.727  0.1452  0.0836 -3.2829
 3956SOL    HW213876   5.700   5.124   2.763 -0.4924 -0.4365  0.0829
 3957SOL     OW13877   5.079   2.901   6.038 -0.2094 -0.4505 -0.2622
 3957SOL    HW113878   5.065   2.846   6.115  1.0337  0.5362  0.7122
 3957SOL    HW213879   5.071   2.991   6.071  0.7161  0.0010 -1.2070
 3958SOL     OW13880   4.893   8.320   8.944  0.0256  0.4727  0.1142
 3958SOL    HW113881   4.975   8.280   8.972  0.2118  1.5587  1.1829
 3958SOL    HW213882   4.920   8.394   8.890 -0.2299  1.0529  0.7679
 3959SOL     OW13883   7.475   0.096   7.512 -0.0619 -0.0641 -0.0687
 3959SOL    HW113884   7.454   0.189   7.504 -0.5428  0.0193  1.6626
 3959SOL    HW213885   7.438   0.071   7.597 -0.3975 -1.9723 -0.7374
 3960SOL     OW13886   6.541   7.273   1.531  0.3526  0.1887 -0.1179
 3960SOL    HW113887   6.560   7.297   1.621  0.7943  0.4314 -0.2761
 3960SOL    HW213888   6.500   7.351   1.493  1.0409  0.4157 -0.3987
 3961SOL     OW13889   1.111   8.561  10.160 -0.0084  0.4555 -1.1269
 3961SOL    HW113890   1.105   8.503  10.084  0.0223  0.1631 -0.9080
 3961SOL    HW213891   1.195   8.539  10.199 -1.2181 -1.4520  0.6296
 3962SOL     OW13892   9.865   6.378   0.580  0.0134  0.2585  0.0564
 3962SOL    HW113893   9.843   6.297   0.627 -0.0354 -0.5283 -1.2745
 3962SOL    HW213894   9.816   6.446   0.625 -0.6628 -0.5903  0.6376
 3963SOL     OW13895   7.211   6.359   3.938 -0.3944 -0.9024  0.0762
 3963SOL    HW113896   7.132   6.309   3.957 -0.1131 -1.2346  0.3859
 3963SOL    HW213897   7.251   6.313   3.864 -1.8391  0.7705 -1.8741
 3964SOL     OW13898   1.453   4.155   5.775  0.0090 -0.1567  0.2132
 3964SOL    HW113899   1.513   4.149   5.701 -1.7679 -1.1572 -1.2094
 3964SOL    HW213900   1.476   4.238   5.817  1.5430  0.0810 -0.9996
 3965SOL     OW13901  10.665   0.434   4.323 -0.6502  0.3358 -0.3045
 3965SOL    HW113902  10.577   0.471   4.331 -0.3916  0.7711  0.6749
 3965SOL    HW213903  10.706   0.483   4.252 -1.8290 -1.1762 -2.1015
 3966SOL     OW13904   7.604   7.764   5.483 -0.2644 -0.0801  0.0332
 3966SOL    HW113905   7.562   7.848   5.464  0.8811  0.2220 -1.3029
 3966SOL    HW213906   7.654   7.780   5.563  0.4677  0.7371 -0.5614
 3967SOL     OW13907   8.869  10.044   2.421  0.1641 -0.1109 -0.1600
 3967SOL    HW113908   8.850  10.041   2.327  2.1136  0.4134 -0.6296
 3967SOL    HW213909   8.875  10.137   2.441  0.5049 -0.2310  0.3089
 3968SOL     OW13910   7.944   9.441   5.644  0.2532 -0.0053  0.9287
 3968SOL    HW113911   7.868   9.393   5.678  0.3659  0.2457  1.5413
 3968SOL    HW213912   7.963   9.507   5.710  1.1957 -0.2577  0.9305
 3969SOL     OW13913   8.405   8.050   3.330 -0.0777 -0.3653  0.2113
 3969SOL    HW113914   8.449   8.037   3.246 -1.7146 -0.1424 -0.7218
 3969SOL    HW213915   8.464   8.011   3.394  0.3701 -2.2512 -1.2534
 3970SOL     OW13916   4.078   7.708   1.550  0.2760  0.4753 -0.0018
 3970SOL    HW113917   4.087   7.793   1.592 -0.6965  1.1164 -1.0353
 3970SOL    HW213918   4.095   7.724   1.457 -1.1528 -0.1882 -0.4092
 3971SOL     OW13919   4.830   2.764   9.169 -0.0543  0.2304  0.4225
 3971SOL    HW113920   4.757   2.765   9.231 -0.3261  0.4413  0.1070
 3971SOL    HW213921   4.794   2.723   9.091  0.6328 -1.1345  0.8021
 3972SOL     OW13922   4.593   5.788  10.197  0.8689  0.2730  0.2856
 3972SOL    HW113923   4.608   5.707  10.246 -1.0542 -0.6994 -0.6450
 3972SOL    HW213924   4.632   5.856  10.252  2.1260 -1.2019  1.3163
 3973SOL     OW13925   0.249   8.263   2.374 -0.1600 -0.0186  0.3588
 3973SOL    HW113926   0.303   8.193   2.338 -2.7439 -2.2291  0.4251
 3973SOL    HW213927   0.263   8.337   2.315  0.0593 -1.7258 -1.8525
 3974SOL     OW13928   7.104   5.446   4.773  0.3687  0.1957  0.7902
 3974SOL    HW113929   7.075   5.390   4.700 -2.7925  0.7396  1.5075
 3974SOL    HW213930   7.106   5.387   4.848  1.7975  0.0625  0.6848
 3975SOL     OW13931   1.567   8.715   7.750 -0.4119  0.6791  0.5498
 3975SOL    HW113932   1.480   8.750   7.733 -0.7390  1.4064  3.2056
 3975SOL    HW213933   1.564   8.625   7.720 -2.6046  0.2230  1.9571
 3976SOL     OW13934   2.022   6.233   4.965  0.7022 -0.2282  0.1282
 3976SOL    HW113935   2.092   6.237   5.031  0.5592 -0.1019  0.2740
 3976SOL    HW213936   2.053   6.289   4.894  0.6880 -0.0549  0.2551
 3977SOL     OW13937   9.561   4.717   6.920  0.3508  0.5722  0.5128
 3977SOL    HW113938   9.604   4.665   6.988  2.2090  2.9298  1.2792
 3977SOL    HW213939   9.521   4.652   6.862  2.1708 -1.6846  1.6103
 3978SOL     OW13940   4.183   4.348  10.792 -0.0693  0.3678 -0.1827
 3978SOL    HW113941   4.119   4.280  10.815  1.8232 -1.1893  0.8707
 3978SOL    HW213942   4.168   4.418  10.855  0.0778 -0.5498  0.9039
 3979SOL     OW13943   0.992   3.936  10.788 -0.6488  0.3876 -0.2409
 3979SOL    HW113944   0.931   4.009  10.792 -1.0992 -0.0142  0.4429
 3979SOL    HW213945   1.033   3.943  10.701  0.6392  2.4951  0.4503
 3980SOL     OW13946   1.110   9.992  10.091  0.8532  0.6411 -0.3732
 3980SOL    HW113947   1.156   9.967  10.171 -0.9877  1.3002  0.9714
 3980SOL    HW213948   1.019   9.966  10.107  0.5527  0.2100 -2.5331
 3981SOL     OW13949  10.311   8.338   5.894 -0.7220  0.2633 -0.0821
 3981SOL    HW113950  10.324   8.247   5.922 -0.3743  0.6167  0.9388
 3981SOL    HW213951  10.347   8.390   5.964  1.0595  1.2069 -1.6149
 3982SOL     OW13952   1.171   0.961   1.946  0.0604  0.0520 -0.1359
 3982SOL    HW113953   1.139   0.976   1.857 -1.2174 -0.5725  0.1977
 3982SOL    HW213954   1.098   0.919   1.991  1.1872 -0.9830  0.7985
 3983SOL     OW13955  11.128   2.734   7.798  0.5300 -0.4477  0.3924
 3983SOL    HW113956  11.070   2.796   7.842  0.4775 -0.8934  0.9643
 3983SOL    HW213957  11.080   2.650   7.801  1.0259 -0.7309  0.5132
 3984SOL     OW13958   3.158   6.399  10.167 -0.0339  0.1574  0.0674
 3984SOL    HW113959   3.080   6.356  10.201 -0.2477  0.2988 -0.2406
 3984SOL    HW213960   3.183   6.347  10.091 -1.5531  1.7674 -1.6411
 3985SOL     OW13961   9.524   0.451   8.857  0.3386 -0.5282  0.0804
 3985SOL    HW113962   9.616   0.476   8.869  0.4320 -0.5352 -0.5916
 3985SOL    HW213963   9.475   0.524   8.894  0.6120 -0.4843  0.3658
 3986SOL     OW13964   2.143   0.354   3.103  0.4110  0.5546  0.2532
 3986SOL    HW113965   2.114   0.427   3.157  2.6452 -0.2390  2.7610
 3986SOL    HW213966   2.063   0.318   3.065 -1.3208  1.3490  2.8837
 3987SOL     OW13967   3.821   5.412   2.856  0.6284  0.1007 -0.3955
 3987SOL    HW113968   3.792   5.503   2.849 -0.1476 -0.1518 -0.5872
 3987SOL    HW213969   3.739   5.362   2.855  0.8696 -0.4584  2.2344
 3988SOL     OW13970   1.318   5.204   1.736 -0.7872  0.6873 -0.3192
 3988SOL    HW113971   1.226   5.230   1.745 -0.3148  2.4876 -0.2012
 3988SOL    HW213972   1.357   5.276   1.686  0.1762 -0.9636 -2.0586
 3989SOL     OW13973   0.911   8.588   7.738  0.2611 -0.6289  0.1567
 3989SOL    HW113974   0.982   8.566   7.799  0.3781 -0.7472 -0.0210
 3989SOL    HW213975   0.877   8.504   7.710 -0.4901 -0.5738  0.8573
 3990SOL     OW13976   8.235   9.478   2.525 -0.1383  0.4975 -0.1669
 3990SOL    HW113977   8.161   9.476   2.464  0.5033 -1.5557 -0.9755
 3990SOL    HW213978   8.312   9.474   2.469  0.5689  1.2723  0.7150
 3991SOL     OW13979   3.246   3.251   5.738  0.2244 -0.1259  0.2436
 3991SOL    HW113980   3.203   3.251   5.652  0.1734 -0.9091  0.2570
 3991SOL    HW213981   3.248   3.343   5.764 -2.7818 -0.1676  0.9341
 3992SOL     OW13982   9.374   5.794   5.867  0.5439  0.1277  0.0324
 3992SOL    HW113983   9.293   5.804   5.818 -1.5548 -1.9485  2.7725
 3992SOL    HW213984   9.348   5.802   5.959  3.6398  0.3265  1.0132
 3993SOL     OW13985   7.944   0.030   2.821 -0.8380 -0.1543 -0.4614
 3993SOL    HW113986   7.948   0.004   2.729 -1.7562  2.5209 -1.3789
 3993SOL    HW213987   7.960   0.124   2.819  2.3630 -0.4670  2.5283
 3994SOL     OW13988   0.466   8.494  10.407  0.5098  1.0090  0.0714
 3994SOL    HW113989   0.519   8.435  10.354  0.9593  1.4415  0.0387
 3994SOL    HW213990   0.386   8.445  10.425  0.7510  0.5101 -0.2195
 3995SOL     OW13991  11.274   7.267   6.796 -0.0321  0.3137 -0.2004
 3995SOL    HW113992  11.285   7.218   6.714  0.3669  0.1510 -0.0561
 3995SOL    HW213993  11.189   7.309   6.788 -0.4639 -0.5576 -0.2497
 3996SOL     OW13994   5.878   8.816   6.237  0.2070  0.6797  0.6083
 3996SOL    HW113995   5.962   8.836   6.197  0.4090  0.8642  1.1217
 3996SOL    HW213996   5.892   8.735   6.284  0.0824  0.6827  0.6516
 3997SOL     OW13997   5.797   2.584  10.348 -0.1295 -0.3458  0.2122
 3997SOL    HW113998   5.868   2.646  10.364  1.1520 -1.9527  1.0665
 3997SOL    HW213999   5.816   2.546  10.262 -0.5843  0.0199 -0.0515
 3998SOL     OW14000   0.919   2.220   1.995  0.1448 -0.2566  0.6310
 3998SOL    HW114001   0.896   2.193   1.906 -1.9528  2.0531  0.3594
 3998SOL    HW214002   0.835   2.240   2.036  1.1646 -0.0750  2.7419
 3999SOL     OW14003   2.669  10.247   7.801  0.2801 -1.1562  0.7108
 3999SOL    HW114004   2.707  10.185   7.863 -0.9314 -2.1397  0.5016
 3999SOL    HW214005   2.587  10.206   7.773 -0.4967  0.4780  0.4664
 4000SOL     OW14006   9.465   0.661   8.077  0.2031 -0.4225 -0.6407
 4000SOL    HW114007   9.433   0.744   8.041 -1.7369 -0.6880  0.2859
 4000SOL    HW214008   9.521   0.625   8.009  0.9296  1.5337 -1.1604
 4001SOL     OW14009   9.823   4.435  10.277 -0.5256 -0.0721 -0.4476
 4001SOL    HW114010   9.818   4.365  10.212  0.0525 -1.0136  0.4872
 4001SOL    HW214011   9.913   4.468  10.269 -0.2290 -0.6567  0.3119
 4002SOL     OW14012   6.714   9.074   6.175  0.7417 -0.6602  0.0794
 4002SOL    HW114013   6.762   9.153   6.199 -1.1656  0.8127 -0.6859
 4002SOL    HW214014   6.781   9.015   6.139  2.3779  0.1449  1.6632
 4003SOL     OW14015  10.291   7.618   5.191  0.2928 -0.4163 -0.3134
 4003SOL    HW114016  10.326   7.661   5.269 -0.3859  0.7334 -0.6288
 4003SOL    HW214017  10.337   7.534   5.188  1.4639  0.1640  0.4549
 4004SOL     OW14018   1.138   4.115   1.384  0.1165 -0.3780 -0.0254
 4004SOL    HW114019   1.140   4.128   1.479 -1.1914 -0.3558  0.0223
 4004SOL    HW214020   1.089   4.190   1.351  1.1623 -0.0133 -0.8113
 4005SOL     OW14021   4.421   6.610   3.172 -0.6656 -0.1832 -0.4897
 4005SOL    HW114022   4.398   6.702   3.180  0.0408  0.2625 -2.8962
 4005SOL    HW214023   4.490   6.597   3.237 -0.4589  1.1007 -0.4252
 4006SOL     OW14024   9.060   6.858  10.047 -0.6734  0.3464 -0.2435
 4006SOL    HW114025   9.005   6.840  10.124 -1.4976 -0.7551 -1.0598
 4006SOL    HW214026   9.120   6.927  10.077  0.6874 -1.7018  2.1757
 4007SOL     OW14027   9.900   4.077   4.704  0.1539 -0.0652 -0.5230
 4007SOL    HW114028   9.850   4.048   4.781  0.0019 -2.3061 -1.3807
 4007SOL    HW214029   9.886   4.171   4.701 -2.5469 -0.3349  0.3362
 4008SOL     OW14030   8.952   1.226   2.911  0.8441  0.3855 -0.6053
 4008SOL    HW114031   8.879   1.287   2.924  0.5484  0.5784 -2.8698
 4008SOL    HW214032   8.916   1.157   2.855  1.6891 -0.9679  0.4364
 4009SOL     OW14033   7.184   1.901   0.062  0.0521  0.0738 -0.7430
 4009SOL    HW114034   7.094   1.868   0.066 -1.1080  3.0717  0.3203
 4009SOL    HW214035   7.220   1.881   0.149 -0.3139  0.7256 -0.4381
 4010SOL     OW14036   9.645   1.642   1.253  0.1635 -0.0186  0.2378
 4010SOL    HW114037   9.688   1.720   1.289  0.4325 -0.1298  0.1625
 4010SOL    HW214038   9.599   1.603   1.328  0.2963  0.0347  0.3470
 4011SOL     OW14039   5.482   2.090   6.107 -0.0905 -0.1029  0.6876
 4011SOL    HW114040   5.416   2.152   6.076 -2.0335 -1.4716  1.8455
 4011SOL    HW214041   5.497   2.032   6.032  0.4679  0.7234  0.1447
 4012SOL     OW14042   2.863   7.995   3.145 -0.0785 -0.4352 -0.1060
 4012SOL    HW114043   2.811   7.949   3.080 -0.2156 -0.1637 -0.1912
 4012SOL    HW214044   2.817   7.982   3.228 -0.8737  0.6784 -0.3433
 4013SOL     OW14045  10.987   2.755   0.778 -0.0571  0.0860  0.4719
 4013SOL    HW114046  10.956   2.717   0.696  0.5971 -0.6686  0.5601
 4013SOL    HW214047  11.021   2.680   0.827  0.0987  0.6166  1.1797
 4014SOL     OW14048   5.364   3.871   2.864 -0.2664  0.4898 -0.4445
 4014SOL    HW114049   5.380   3.835   2.951 -0.2186  0.0146 -0.6496
 4014SOL    HW214050   5.405   3.958   2.867 -0.2525  0.4726 -0.0001
 4015SOL     OW14051   6.634   3.482   8.122  0.0379 -0.0442 -0.2405
 4015SOL    HW114052   6.602   3.563   8.161 -0.5945 -1.0589  1.5254
 4015SOL    HW214053   6.715   3.506   8.077  2.2337  0.9533  3.7340
 4016SOL     OW14054   9.400  10.020   5.227  0.3028  0.0188 -0.0868
 4016SOL    HW114055   9.357  10.011   5.142 -0.7471  0.5232  0.3765
 4016SOL    HW214056   9.390   9.934   5.268 -2.4864  0.7213  0.9952
 4017SOL     OW14057   7.728   0.437   4.865  0.0600 -0.0687  0.3468
 4017SOL    HW114058   7.773   0.509   4.822 -0.7487  0.3510  0.1818
 4017SOL    HW214059   7.635   0.458   4.856 -0.2425 -1.6435 -0.6305
 4018SOL     OW14060   3.889  10.079   8.367 -0.5822  0.0846 -0.1932
 4018SOL    HW114061   3.875  10.173   8.381 -1.6644 -0.0973  0.0573
 4018SOL    HW214062   3.811  10.038   8.404 -1.5020 -0.7289 -2.8287
 4019SOL     OW14063   0.189   7.164   9.046 -0.0883  0.2423 -0.8769
 4019SOL    HW114064   0.131   7.172   9.122 -1.0997  2.7213 -1.8032
 4019SOL    HW214065   0.168   7.240   8.992  0.2432 -1.6845 -3.9205
 4020SOL     OW14066   9.293   7.011   9.998 -0.8360  0.0940 -0.4481
 4020SOL    HW114067   9.314   7.096  10.035 -1.9560 -0.3522  1.2976
 4020SOL    HW214068   9.352   6.950  10.043 -0.4306 -0.1491 -1.2835
 4021SOL     OW14069   0.706   2.281   6.604  0.3527  0.0147  0.3453
 4021SOL    HW114070   0.642   2.335   6.650 -0.4068  0.2746 -0.9723
 4021SOL    HW214071   0.678   2.191   6.619 -0.2832  0.1251 -0.1414
 4022SOL     OW14072   6.614   9.115   3.178 -0.1519  0.5569  0.4144
 4022SOL    HW114073   6.649   9.177   3.243 -1.2188  1.1189  0.4745
 4022SOL    HW214074   6.521   9.109   3.199 -0.1787 -0.6078  0.0173
 4023SOL     OW14075   1.500   0.737   5.109 -0.0007 -0.9420 -0.4155
 4023SOL    HW114076   1.572   0.741   5.173  0.2987 -0.0182 -0.7977
 4023SOL    HW214077   1.485   0.643   5.097  0.1221 -1.1378  0.7981
 4024SOL     OW14078   6.360   9.440   4.048  0.1654  0.1498 -0.3834
 4024SOL    HW114079   6.405   9.390   4.115 -0.5383 -0.9340 -0.6995
 4024SOL    HW214080   6.424   9.451   3.978  0.1186 -0.9344 -0.6103
 4025SOL     OW14081   1.290   3.393   3.295  0.1232  0.3385  0.2313
 4025SOL    HW114082   1.291   3.445   3.375 -0.5505  0.2827  0.2793
 4025SOL    HW214083   1.327   3.308   3.320 -1.1224 -0.0729  0.7668
 4026SOL     OW14084   8.774   6.689   5.783  0.1674 -0.6758  0.2355
 4026SOL    HW114085   8.700   6.633   5.763  0.5480 -1.4770  1.0075
 4026SOL    HW214086   8.744   6.745   5.855 -0.7137  1.1910 -1.5059
 4027SOL     OW14087   5.311   9.313   2.161  0.5635  0.0715 -0.5656
 4027SOL    HW114088   5.263   9.235   2.134  0.3063  0.1547 -0.3530
 4027SOL    HW214089   5.334   9.297   2.253  0.8069  0.1001 -0.6196
 4028SOL     OW14090   8.418   1.819   9.913 -0.4588  0.7481 -0.2183
 4028SOL    HW114091   8.381   1.854   9.994 -1.4068  1.7394 -1.0411
 4028SOL    HW214092   8.463   1.739   9.939 -2.4676 -0.0776  0.9991
 4029SOL     OW14093   0.142   2.512   9.605  0.0464 -0.1447 -0.1032
 4029SOL    HW114094   0.182   2.597   9.587 -1.2654  0.2827 -1.1415
 4029SOL    HW214095   0.208   2.465   9.657  2.1665  0.2625 -2.2583
 4030SOL     OW14096  10.510   0.517   3.574  0.2034 -0.1243 -0.0923
 4030SOL    HW114097  10.527   0.428   3.605  2.2252 -0.3360 -1.6378
 4030SOL    HW214098  10.586   0.539   3.520  0.3826  3.0187  1.1953
 4031SOL     OW14099   3.017   1.084   8.286  0.3041 -0.2362 -0.2088
 4031SOL    HW114100   2.927   1.055   8.295 -1.0130  3.6127  0.6803
 4031SOL    HW214101   3.026   1.108   8.194 -0.4880  1.8047  0.2076
 4032SOL     OW14102   9.194   6.254  10.481 -0.1524  0.1920 -0.2469
 4032SOL    HW114103   9.112   6.279  10.437 -1.5550 -1.8598  1.0446
 4032SOL    HW214104   9.189   6.159  10.489  1.8329  0.1308  0.9377
 4033SOL     OW14105   1.122   3.177   8.149 -0.5255 -0.5802  0.2808
 4033SOL    HW114106   1.101   3.086   8.167  0.6140 -1.0551 -0.6181
 4033SOL    HW214107   1.201   3.173   8.095 -0.9313  0.9096 -0.4840
 4034SOL     OW14108   3.907   6.611   7.869  0.1732  0.0778 -0.7218
 4034SOL    HW114109   3.912   6.538   7.806  0.1198  0.5359 -1.2639
 4034SOL    HW214110   3.933   6.572   7.952  0.9879 -0.3755 -1.1697
 4035SOL     OW14111   7.655   6.409   0.242 -0.4347 -0.0967  0.1407
 4035SOL    HW114112   7.608   6.360   0.174  0.5493 -0.2302 -0.4601
 4035SOL    HW214113   7.603   6.489   0.253  0.2511  0.7210 -1.9929
 4036SOL     OW14114  10.575  10.768   8.115  0.6971  0.2088 -0.1570
 4036SOL    HW114115  10.660  10.756   8.072  2.0738  1.3527  2.0849
 4036SOL    HW214116  10.561  10.863   8.114 -0.8856  0.0047 -1.0098
 4037SOL     OW14117   1.413   3.795   3.875 -0.0017 -0.1836  0.0532
 4037SOL    HW114118   1.346   3.846   3.921 -1.3088 -0.7043 -1.2016
 4037SOL    HW214119   1.423   3.716   3.928  1.2136  0.8261  1.3962
 4038SOL     OW14120   7.798   1.879   2.366 -0.2262  0.2406 -0.1982
 4038SOL    HW114121   7.877   1.888   2.313  0.1029  0.7793  0.3806
 4038SOL    HW214122   7.799   1.788   2.395 -0.8427 -0.3145 -1.7734
 4039SOL     OW14123   1.890   0.678   1.288  0.0162  0.3171 -0.1860
 4039SOL    HW114124   1.881   0.614   1.217 -0.5522  0.7108 -0.4762
 4039SOL    HW214125   1.984   0.681   1.305  0.0573 -0.5337 -0.2246
 4040SOL     OW14126   4.663  11.201   8.752 -0.2391 -0.1087 -0.1120
 4040SOL    HW114127   4.711  11.128   8.713 -1.3034 -1.5417  1.1496
 4040SOL    HW214128   4.591  11.217   8.692  0.2288  0.2171 -0.6034
 4041SOL     OW14129   1.873   3.913   9.629  1.3684 -1.4883 -0.2315
 4041SOL    HW114130   1.819   3.942   9.703 -2.0401  1.1527 -3.3833
 4041SOL    HW214131   1.906   3.994   9.590  2.4312 -2.7149 -2.0754
 4042SOL     OW14132   7.690   5.848   6.740 -0.4955 -0.3036 -0.6855
 4042SOL    HW114133   7.691   5.756   6.768  0.4384  0.0845  0.6472
 4042SOL    HW214134   7.623   5.889   6.795 -0.0905  0.0560 -0.4623
 4043SOL     OW14135   3.858   9.955   0.612  0.1762 -0.2118 -0.4682
 4043SOL    HW114136   3.822   9.887   0.554  0.1402 -0.5980  0.0026
 4043SOL    HW214137   3.830  10.037   0.572 -0.4209 -0.4871 -0.6353
 4044SOL     OW14138   0.632   0.573   5.194  0.7104  0.0722 -0.1229
 4044SOL    HW114139   0.685   0.593   5.117 -0.6114  1.4532 -0.7192
 4044SOL    HW214140   0.609   0.658   5.231 -0.8522 -0.4846  0.2643
 4045SOL     OW14141   7.740   2.606   5.630  0.0192 -0.0544  0.1660
 4045SOL    HW114142   7.745   2.649   5.544  4.3166 -0.5552 -0.0691
 4045SOL    HW214143   7.653   2.568   5.633 -0.1626 -0.5074 -4.2925
 4046SOL     OW14144  10.339   0.394   0.440 -0.4862 -0.2168  0.5506
 4046SOL    HW114145  10.267   0.366   0.496 -0.6379  0.3033  0.6186
 4046SOL    HW214146  10.381   0.312   0.412 -1.4657 -0.5466  0.0102
 4047SOL     OW14147   4.874   5.067   4.464 -0.0156 -0.9549 -0.7625
 4047SOL    HW114148   4.900   4.983   4.427  0.5458 -1.3063  0.3706
 4047SOL    HW214149   4.870   5.051   4.558  0.7955  0.4507 -0.4556
 4048SOL     OW14150   0.255  10.735   3.246 -0.3438 -0.1032 -0.1842
 4048SOL    HW114151   0.219  10.721   3.334 -0.9886 -1.9140 -0.6911
 4048SOL    HW214152   0.183  10.774   3.197  0.1069  1.1755  0.1358
 4049SOL     OW14153   3.665   1.080   6.527 -0.3130 -0.9746 -0.3981
 4049SOL    HW114154   3.585   1.061   6.478  0.3687 -1.4825 -1.3191
 4049SOL    HW214155   3.709   1.148   6.476 -0.0863 -0.7886  0.0384
 4050SOL     OW14156   2.428   4.010  10.051  0.1547  0.1991  1.3098
 4050SOL    HW114157   2.387   3.933  10.013  0.2339  0.1263  1.3717
 4050SOL    HW214158   2.382   4.084  10.011  0.7678  0.1352  0.4800
 4051SOL     OW14159   8.308   1.965   3.180 -0.3569  0.3000 -0.0864
 4051SOL    HW114160   8.291   2.057   3.197 -0.3372  0.5021 -1.0949
 4051SOL    HW214161   8.307   1.957   3.084  2.3207 -0.2361 -0.1575
 4052SOL     OW14162   7.492   0.455   0.173 -0.2585  0.2288 -0.2215
 4052SOL    HW114163   7.505   0.398   0.097  0.5682 -0.0206  0.0996
 4052SOL    HW214164   7.576   0.454   0.219 -0.9646 -0.2081  1.0972
 4053SOL     OW14165   5.525   8.610   0.311 -0.2231 -0.2511  0.2610
 4053SOL    HW114166   5.464   8.643   0.378  0.3346  1.1840  0.0987
 4053SOL    HW214167   5.596   8.674   0.311  0.1941 -0.6974 -1.1198
 4054SOL     OW14168   2.063  11.019   4.596  0.1462 -0.6757  0.3058
 4054SOL    HW114169   2.100  10.942   4.639 -0.2716  0.6657  3.3699
 4054SOL    HW214170   2.134  11.083   4.597  0.1826 -0.6638 -1.2771
 4055SOL     OW14171   7.457   8.536   4.340  0.1311  0.5829  0.1839
 4055SOL    HW114172   7.407   8.518   4.420 -1.0111 -1.5529 -0.9217
 4055SOL    HW214173   7.546   8.507   4.360 -0.1905 -0.1115  0.6463
 4056SOL     OW14174   3.805   0.963   2.804  0.1980 -0.2731  0.0667
 4056SOL    HW114175   3.756   0.950   2.885 -2.0933 -0.0941 -1.2075
 4056SOL    HW214176   3.805   0.877   2.762  0.8520 -0.2278 -0.0450
 4057SOL     OW14177   3.755   1.991   5.935 -0.1286  0.0512 -0.0470
 4057SOL    HW114178   3.803   2.074   5.938 -0.0892  0.0012  0.8442
 4057SOL    HW214179   3.824   1.924   5.931 -0.1056 -0.0162  1.1393
 4058SOL     OW14180   7.449   2.095   3.026 -0.5963 -0.0138 -0.0700
 4058SOL    HW114181   7.381   2.153   3.060 -1.8743  1.3254 -4.3035
 4058SOL    HW214182   7.530   2.144   3.039 -1.1308  0.8220  0.2629
 4059SOL     OW14183   6.832   5.554   0.016 -0.3469  0.6179 -0.0259
 4059SOL    HW114184   6.785   5.636   0.032 -1.7466  0.1732 -1.5682
 4059SOL    HW214185   6.924   5.575   0.031 -0.5524  2.7490 -1.3445
 4060SOL     OW14186   7.976   5.416   4.809  0.7318  0.0474  0.1653
 4060SOL    HW114187   8.016   5.466   4.738  0.9106 -0.6685 -0.2446
 4060SOL    HW214188   8.035   5.342   4.823 -0.1058 -0.6758 -0.0155
 4061SOL     OW14189   2.474   7.118   0.570 -0.4612  0.6171 -0.1626
 4061SOL    HW114190   2.516   7.033   0.577 -0.6502  0.6729  3.4387
 4061SOL    HW214191   2.480   7.140   0.477  3.3849 -1.3710 -0.6007
 4062SOL     OW14192   2.614   1.209   1.130 -0.0444  0.2148  0.3077
 4062SOL    HW114193   2.580   1.214   1.041 -1.1649  1.1636  0.7684
 4062SOL    HW214194   2.669   1.131   1.131  0.0760  0.2620 -1.2433
 4063SOL     OW14195   5.772  10.899   9.671 -0.0019 -0.9221  0.3782
 4063SOL    HW114196   5.740  10.923   9.758 -1.7154  2.7032 -1.0265
 4063SOL    HW214197   5.807  10.980   9.635  0.5179 -2.2320 -2.3705
 4064SOL     OW14198   4.335   5.765   0.669  0.3543 -0.0418  0.5299
 4064SOL    HW114199   4.366   5.838   0.616  1.1541  1.3233  2.7576
 4064SOL    HW214200   4.355   5.687   0.617  3.5626  1.0427 -0.0452
 4065SOL     OW14201   6.026   7.021  11.126  0.1732  0.3763  0.0219
 4065SOL    HW114202   6.085   7.085  11.165  0.5912 -0.3744  0.6420
 4065SOL    HW214203   5.944   7.030  11.174 -0.0235  0.9697 -0.4104
 4066SOL     OW14204   2.406   4.829   3.219 -0.1725  0.4164  0.3493
 4066SOL    HW114205   2.458   4.750   3.208  1.0975  1.3583 -0.6624
 4066SOL    HW214206   2.333   4.819   3.158 -2.1554 -1.5848  2.8116
 4067SOL     OW14207   2.936  10.696   5.360 -0.6491 -0.5466 -0.9395
 4067SOL    HW114208   2.929  10.725   5.451 -0.3473  0.6273 -1.2749
 4067SOL    HW214209   3.024  10.723   5.332 -0.4212 -1.6452 -1.3339
 4068SOL     OW14210   0.576   5.787   7.617  0.4311 -0.2365  0.0069
 4068SOL    HW114211   0.651   5.845   7.607 -1.0461  1.5111 -2.1684
 4068SOL    HW214212   0.604   5.721   7.680  3.8411  0.1707 -0.8900
 4069SOL     OW14213   1.700   5.095   4.085  0.2689  0.1990 -0.9128
 4069SOL    HW114214   1.690   5.189   4.076 -0.0958  0.4239  1.2051
 4069SOL    HW214215   1.780   5.074   4.037 -0.0912  1.4277 -2.0952
 4070SOL     OW14216   2.085   6.921  10.906  0.4827 -0.0090  0.8035
 4070SOL    HW114217   2.167   6.873  10.898 -0.0233 -0.5770 -1.8694
 4070SOL    HW214218   2.017   6.854  10.894 -0.3352  0.7702  0.9843
 4071SOL     OW14219   2.464   7.607   1.430 -0.2949  0.2057  0.0787
 4071SOL    HW114220   2.405   7.632   1.359  1.5154  1.8816 -0.9420
 4071SOL    HW214221   2.429   7.652   1.507 -0.3531  1.2335 -0.5253
 4072SOL     OW14222   4.693   2.067  10.844  0.2008  0.2228  0.5874
 4072SOL    HW114223   4.613   2.109  10.876 -0.3826 -0.6240  0.2960
 4072SOL    HW214224   4.760   2.135  10.849 -0.0731  0.4102  2.7024
 4073SOL     OW14225   2.847   6.058   3.690  0.1526  0.2506 -0.1941
 4073SOL    HW114226   2.923   6.028   3.741  2.0452  1.2061 -2.2810
 4073SOL    HW214227   2.795   6.108   3.753  0.1517 -2.0200  1.7952
 4074SOL     OW14228   7.597   9.849   1.241 -0.0347 -0.5023 -0.0906
 4074SOL    HW114229   7.624   9.925   1.189  0.4981 -0.8060 -0.2615
 4074SOL    HW214230   7.644   9.858   1.323  0.1856 -0.7499 -0.1871
 4075SOL     OW14231   8.771   8.507   9.118 -0.3930 -0.2508  0.1519
 4075SOL    HW114232   8.778   8.526   9.212  0.7970 -1.2095  0.2784
 4075SOL    HW214233   8.696   8.448   9.111 -0.9393  0.3970  0.3927
 4076SOL     OW14234   3.475   8.929   3.735 -0.8023  0.0149  0.4975
 4076SOL    HW114235   3.560   8.929   3.778 -0.5749 -0.4892  0.0583
 4076SOL    HW214236   3.412   8.941   3.807 -0.5769 -2.8425  1.3164
 4077SOL     OW14237   6.450   8.324   9.650 -0.8847 -0.3685  0.0365
 4077SOL    HW114238   6.370   8.372   9.630 -2.5026 -3.4522 -1.8191
 4077SOL    HW214239   6.473   8.350   9.739 -2.6374  2.2855 -0.1795
 4078SOL     OW14240  10.800   8.183   9.392  0.5335 -0.2983  0.0493
 4078SOL    HW114241  10.853   8.185   9.472  0.6889 -1.4956  0.0014
 4078SOL    HW214242  10.813   8.094   9.358 -1.8103 -0.7715  0.2384
 4079SOL     OW14243   0.905   8.074   0.546  0.1355 -0.0406 -0.0772
 4079SOL    HW114244   0.846   8.070   0.621 -0.9917 -1.7950 -0.9858
 4079SOL    HW214245   0.863   8.136   0.486  1.7945  2.5456  1.2564
 4080SOL     OW14246   3.418   0.115   0.140 -0.5714  0.0331  0.0554
 4080SOL    HW114247   3.491   0.086   0.194 -1.2399 -0.3811  0.7558
 4080SOL    HW214248   3.421   0.210   0.144  0.5150  0.0455 -0.7323
 4081SOL     OW14249   0.662   8.508   5.131  0.8296 -0.2571 -0.0938
 4081SOL    HW114250   0.622   8.458   5.202 -0.9586  0.8386 -0.2782
 4081SOL    HW214251   0.596   8.571   5.105  2.5380  1.3672 -0.7442
 4082SOL     OW14252   2.263   8.041   0.926  0.6395  0.1222 -0.6356
 4082SOL    HW114253   2.258   7.979   0.999  1.7201 -0.3784 -0.9627
 4082SOL    HW214254   2.258   7.986   0.848 -2.6027  0.8000 -1.0490
 4083SOL     OW14255   7.051   4.673   8.294  0.1625  0.4216 -0.9318
 4083SOL    HW114256   7.103   4.751   8.312 -0.2391  0.9821 -2.0841
 4083SOL    HW214257   6.965   4.692   8.331  1.0354 -1.0139  2.1096
 4084SOL     OW14258   5.508   4.714   7.903  0.3868 -0.2432 -0.3559
 4084SOL    HW114259   5.431   4.661   7.882  0.4066 -0.2774 -0.3429
 4084SOL    HW214260   5.481   4.804   7.888 -0.7520  0.0846  2.8597
 4085SOL     OW14261   5.434   2.471  10.175 -0.5308 -0.4291 -0.6013
 4085SOL    HW114262   5.391   2.440  10.255 -1.0841  0.6582 -0.4507
 4085SOL    HW214263   5.424   2.400  10.112  1.4110 -2.0323  0.7832
 4086SOL     OW14264   9.776   4.418   9.036 -0.7053 -1.1792 -0.5110
 4086SOL    HW114265   9.784   4.329   9.068 -0.1985 -0.5400  1.2453
 4086SOL    HW214266   9.686   4.425   9.004 -0.6907 -2.3473 -0.8487
 4087SOL     OW14267   6.587   1.359   6.939 -0.1822 -0.5548  0.0390
 4087SOL    HW114268   6.655   1.296   6.965  1.0772  0.3783 -0.8684
 4087SOL    HW214269   6.635   1.430   6.897 -1.6164  0.7566  0.5192
 4088SOL     OW14270   6.548   3.945   1.814  0.3551 -0.0622 -0.0777
 4088SOL    HW114271   6.489   4.013   1.781 -1.3529 -1.1605  0.6060
 4088SOL    HW214272   6.540   3.873   1.751  1.8653  0.1762 -0.5907
 4089SOL     OW14273   0.662   5.687   2.472 -0.4937 -0.5094 -0.0357
 4089SOL    HW114274   0.671   5.598   2.505  1.5077 -1.4959 -2.8694
 4089SOL    HW214275   0.604   5.679   2.396  2.2550 -0.1191 -2.3329
 4090SOL     OW14276   5.718   5.769   2.835 -0.0547  0.3235  0.4155
 4090SOL    HW114277   5.734   5.859   2.805  1.0994  0.3801  1.1493
 4090SOL    HW214278   5.626   5.753   2.813  0.3647  0.8193 -1.9250
 4091SOL     OW14279  10.249  10.766  10.720 -0.2492 -0.5686 -0.4526
 4091SOL    HW114280  10.303  10.824  10.774 -0.1159 -1.7205  0.7164
 4091SOL    HW214281  10.254  10.803  10.632  1.8568 -0.2110 -0.2438
 4092SOL     OW14282   3.753  10.130   1.873 -0.1301 -0.0622  0.0692
 4092SOL    HW114283   3.812  10.098   1.805  0.1821  3.0555 -1.3204
 4092SOL    HW214284   3.672  10.151   1.826 -0.7779 -0.1330  1.1310
 4093SOL     OW14285   4.490   6.473  10.910  0.9780 -0.2551  0.2502
 4093SOL    HW114286   4.409   6.429  10.886 -0.1726  1.3286  1.0099
 4093SOL    HW214287   4.556   6.435  10.852 -0.0473 -2.4215  0.4094
 4094SOL     OW14288   8.952   9.005  10.061 -0.7956  0.3947  0.1146
 4094SOL    HW114289   9.028   9.054  10.093 -0.0155 -0.9297  0.3793
 4094SOL    HW214290   8.949   9.023   9.967 -0.8949  1.4151  0.3040
 4095SOL     OW14291   9.613   9.266   6.070 -0.1068 -0.1228  0.6391
 4095SOL    HW114292   9.638   9.358   6.058  2.0654 -0.6752  0.5274
 4095SOL    HW214293   9.586   9.260   6.161 -0.4314  0.6687  0.6024
 4096SOL     OW14294   0.605   8.886   5.360 -0.1030  0.6162 -0.2855
 4096SOL    HW114295   0.612   8.861   5.268 -3.2438 -1.0089 -0.2275
 4096SOL    HW214296   0.519   8.929   5.366 -0.9071 -1.1186  2.1668
 4097SOL     OW14297   3.496   0.352   2.927  0.1536 -0.4651  0.5024
 4097SOL    HW114298   3.589   0.358   2.946  0.1927  3.9810 -0.0323
 4097SOL    HW214299   3.456   0.322   3.009  1.9324 -1.7253  0.9533
 4098SOL     OW14300   8.878   6.930   2.163  0.0264  0.4490 -0.3173
 4098SOL    HW114301   8.904   7.013   2.203 -0.9861  1.8786 -2.4012
 4098SOL    HW214302   8.961   6.886   2.143  0.6903  1.9477 -1.0601
 4099SOL     OW14303   5.339   2.208   8.712  0.2191  0.5638 -0.3370
 4099SOL    HW114304   5.334   2.301   8.732  0.6726  0.2740  1.3001
 4099SOL    HW214305   5.248   2.180   8.704 -0.1059  0.5275  2.5333
 4100SOL     OW14306   6.728   1.487   2.339  0.0257 -0.6686  0.5251
 4100SOL    HW114307   6.708   1.446   2.255 -2.3552 -0.6411  1.0056
 4100SOL    HW214308   6.662   1.452   2.399 -0.0449  1.3662  1.7282
 4101SOL     OW14309   1.052   4.456  11.047  0.3281 -0.2114 -0.3794
 4101SOL    HW114310   0.973   4.462  11.100  0.8744  0.3540  0.3991
 4101SOL    HW214311   1.114   4.407  11.102 -0.0981 -2.4163 -1.7713
 4102SOL     OW14312   8.515   6.140   3.939 -0.5516 -0.2478 -0.2167
 4102SOL    HW114313   8.448   6.089   3.893 -1.4276  0.5468  0.1415
 4102SOL    HW214314   8.560   6.188   3.869  0.1975 -1.3778 -0.5450
 4103SOL     OW14315   9.901   3.996   0.489 -0.2016 -0.4735  0.3751
 4103SOL    HW114316   9.901   4.082   0.530  1.9142  0.6531 -1.7480
 4103SOL    HW214317   9.829   3.998   0.426 -1.4431 -1.0629  1.7180
 4104SOL     OW14318   3.474   7.650  10.731  0.1239  0.2443 -0.0006
 4104SOL    HW114319   3.473   7.712  10.804  1.6189 -0.3496  0.5479
 4104SOL    HW214320   3.414   7.581  10.759  0.8128 -0.0628  0.7555
 4105SOL     OW14321   2.010   7.964   5.697  0.3298 -0.4839  0.2165
 4105SOL    HW114322   2.029   7.900   5.765 -0.9758 -1.4072 -0.2453
 4105SOL    HW214323   2.067   8.039   5.717 -0.1444 -0.6495  2.4057
 4106SOL     OW14324   2.445   3.992   8.021 -0.7380 -0.0710  0.0672
 4106SOL    HW114325   2.411   3.928   8.083 -2.1152  0.2936 -0.2759
 4106SOL    HW214326   2.534   4.009   8.050 -0.1087 -2.5625 -0.1793
 4107SOL     OW14327   1.250   0.718   5.701  1.0986 -0.3047 -0.5298
 4107SOL    HW114328   1.301   0.639   5.718  0.0547 -0.7261  0.8414
 4107SOL    HW214329   1.225   0.750   5.788  1.3430  1.4390 -1.0693
 4108SOL     OW14330   0.567   2.932   9.783  0.0336 -0.3344  0.2907
 4108SOL    HW114331   0.531   2.976   9.706  0.0763  0.5221  0.7515
 4108SOL    HW214332   0.657   2.963   9.788  0.4700 -1.4606 -0.1006
 4109SOL     OW14333   3.549   8.244   8.398 -0.3304  0.6263 -0.2133
 4109SOL    HW114334   3.548   8.275   8.307  3.1487 -0.2560 -0.6753
 4109SOL    HW214335   3.573   8.321   8.449 -1.8779  1.0222 -0.0372
 4110SOL     OW14336   1.811   6.172   7.375  0.4964 -0.2152  0.5520
 4110SOL    HW114337   1.866   6.250   7.378  0.4863 -0.1303 -0.9207
 4110SOL    HW214338   1.723   6.203   7.399  0.1321  0.5966 -1.6815
 4111SOL     OW14339   2.810   5.091   9.135 -0.2137 -0.2010  0.4236
 4111SOL    HW114340   2.814   5.072   9.229 -2.1683 -0.7735  0.4328
 4111SOL    HW214341   2.816   5.006   9.092 -0.1354 -0.0188  0.0678
 4112SOL     OW14342   5.655   5.014   4.450  0.7370 -0.1339 -0.1010
 4112SOL    HW114343   5.603   5.093   4.468 -0.1419 -0.3362 -1.6177
 4112SOL    HW214344   5.742   5.036   4.484  1.4484  2.8317 -3.2593
 4113SOL     OW14345   0.252   9.471   7.573  0.1163 -0.0800 -0.2771
 4113SOL    HW114346   0.289   9.389   7.607 -1.0737 -0.0774  1.0847
 4113SOL    HW214347   0.308   9.493   7.499  0.6778 -1.9383 -0.4492
 4114SOL     OW14348   3.985   6.361   7.432  0.3396  0.2579  0.0887
 4114SOL    HW114349   3.937   6.306   7.494 -2.3937  3.4164  1.0746
 4114SOL    HW214350   3.922   6.428   7.406  3.4730  3.1482 -0.7146
 4115SOL     OW14351   3.476   5.574   5.324 -0.2697  0.0345 -0.0156
 4115SOL    HW114352   3.390   5.544   5.295 -0.0982 -1.3822  0.8477
 4115SOL    HW214353   3.473   5.565   5.419 -0.1658  2.7790  0.3254
 4116SOL     OW14354   0.470   3.912   9.170 -0.7187  0.1305  0.2492
 4116SOL    HW114355   0.455   4.002   9.200 -3.3642  0.8245 -2.5389
 4116SOL    HW214356   0.525   3.922   9.092  3.3802 -1.2926  2.6986
 4117SOL     OW14357   0.750   4.883   4.812 -0.2377  0.5492  0.2758
 4117SOL    HW114358   0.781   4.937   4.885  1.4132  0.6335 -0.4427
 4117SOL    HW214359   0.722   4.947   4.746  1.3905  0.5881 -0.4365
 4118SOL     OW14360  10.741   2.094   8.173 -0.0653  0.0594 -0.3965
 4118SOL    HW114361  10.762   2.121   8.262 -0.2533 -1.2389  0.0680
 4118SOL    HW214362  10.757   2.000   8.172  0.4101  0.1224 -1.8855
 4119SOL     OW14363  10.404   5.086  10.602 -0.4089 -0.0362  0.6188
 4119SOL    HW114364  10.458   5.139  10.662  0.7765 -1.3066  0.7261
 4119SOL    HW214365  10.467   5.050  10.540 -1.1617 -1.3937  0.6145
 4120SOL     OW14366   6.808   3.636   4.417  1.0326  0.3469 -0.2819
 4120SOL    HW114367   6.766   3.561   4.458  1.2340  0.6189  0.4291
 4120SOL    HW214368   6.748   3.662   4.347  0.1223  0.5733  0.5548
 4121SOL     OW14369   6.457   6.054  10.958  0.3990  0.3357  0.7412
 4121SOL    HW114370   6.417   6.080  10.875 -0.1372  0.1251  0.9265
 4121SOL    HW214371   6.423   6.117  11.021 -0.5234 -0.4978  1.1046
 4122SOL     OW14372   7.485   3.232   8.709  0.5342 -0.5818 -0.3819
 4122SOL    HW114373   7.436   3.285   8.771 -0.4607  0.2726 -1.8491
 4122SOL    HW214374   7.498   3.149   8.755  0.5680  0.2934  1.2730
 4123SOL     OW14375   5.162   9.654   7.723 -0.0637 -0.4396  0.0787
 4123SOL    HW114376   5.255   9.642   7.738 -0.2300 -0.0913  1.6220
 4123SOL    HW214377   5.136   9.581   7.667  0.9103 -1.2208  0.6246
 4124SOL     OW14378   7.608   8.558   1.944 -0.4982  0.3934  0.2605
 4124SOL    HW114379   7.563   8.600   1.870 -1.0622 -0.7458 -0.0749
 4124SOL    HW214380   7.539   8.508   1.988 -1.0351  3.7136  3.7208
 4125SOL     OW14381   6.669   3.634   7.686  0.2652 -0.2530  0.0179
 4125SOL    HW114382   6.730   3.613   7.615  1.0014 -2.5421  1.2288
 4125SOL    HW214383   6.724   3.670   7.756 -0.3910  1.5572 -0.3431
 4126SOL     OW14384   4.122   9.113   0.211  0.3561 -0.0045 -0.0252
 4126SOL    HW114385   4.090   9.032   0.251 -1.0347  0.8045  0.5764
 4126SOL    HW214386   4.182   9.084   0.142 -0.2671 -1.5470  0.0460
 4127SOL     OW14387   2.392   1.674   8.784  0.2954  0.0420 -0.4652
 4127SOL    HW114388   2.406   1.763   8.753 -2.0556  0.7781  0.3813
 4127SOL    HW214389   2.354   1.684   8.871 -1.6969 -1.6887 -1.0385
 4128SOL     OW14390   1.660   9.256   7.874  0.3286  0.9046  0.0513
 4128SOL    HW114391   1.594   9.314   7.912 -2.9304 -1.6586 -1.2520
 4128SOL    HW214392   1.655   9.176   7.925  1.1981  0.0282 -1.1653
 4129SOL     OW14393   4.878   5.991   3.640 -0.7532  0.0636 -0.0770
 4129SOL    HW114394   4.880   6.028   3.552 -0.9910  1.3259  0.4340
 4129SOL    HW214395   4.889   5.896   3.626  0.5458  0.3618 -1.3618
 4130SOL     OW14396   3.259   8.134  10.535  0.1115 -0.0919 -0.2883
 4130SOL    HW114397   3.340   8.122  10.486  0.5044  1.0895  0.0402
 4130SOL    HW214398   3.287   8.155  10.624 -0.4073  2.7627 -0.6831
 4131SOL     OW14399   6.831   2.486   9.706  0.3336 -0.0307 -0.2329
 4131SOL    HW114400   6.745   2.507   9.743  0.0114  0.0159 -0.9901
 4131SOL    HW214401   6.815   2.410   9.649 -0.0482  2.2654 -3.4921
 4132SOL     OW14402   9.180  10.806   1.424 -0.0819 -0.2727 -0.0750
 4132SOL    HW114403   9.240  10.783   1.495 -0.1894  0.1379  0.1570
 4132SOL    HW214404   9.190  10.736   1.360 -1.3145 -1.6293  1.1466
 4133SOL     OW14405   5.584   2.197   2.995  0.0007 -0.4575  0.4168
 4133SOL    HW114406   5.491   2.184   2.981  0.2387 -0.7933 -1.0045
 4133SOL    HW214407   5.597   2.182   3.089 -0.8757 -3.4543  0.1445
 4134SOL     OW14408   3.701   5.058   1.811 -0.3557 -0.3797  0.6989
 4134SOL    HW114409   3.734   5.141   1.778 -0.1092  0.1283  2.1747
 4134SOL    HW214410   3.748   4.992   1.760 -0.1163  0.3704 -0.0680
 4135SOL     OW14411   9.948   9.854   9.795  0.0903 -0.5731  0.3569
 4135SOL    HW114412   9.976   9.942   9.772  0.7888 -1.2481 -1.5589
 4135SOL    HW214413   9.881   9.867   9.862  0.6701  1.3622  0.6181
 4136SOL     OW14414   6.518   4.840   0.534 -0.2658 -0.0167 -0.3159
 4136SOL    HW114415   6.584   4.881   0.478  0.8063 -1.4837 -0.1774
 4136SOL    HW214416   6.548   4.858   0.623  0.6108 -1.6033 -0.2443
 4137SOL     OW14417   4.003   4.299   5.506 -0.7677 -0.1494 -0.1702
 4137SOL    HW114418   4.054   4.379   5.501 -2.1304  0.7290 -0.6378
 4137SOL    HW214419   4.019   4.265   5.594 -0.3010  0.7163  0.0874
 4138SOL     OW14420   2.492   5.947   6.832 -0.5084 -0.6812 -0.2379
 4138SOL    HW114421   2.444   5.997   6.898 -2.2960  0.7986 -2.5040
 4138SOL    HW214422   2.580   5.987   6.832 -0.6508 -0.3188  0.7976
 4139SOL     OW14423   4.197   9.980   7.168 -0.0825 -0.0921  0.3928
 4139SOL    HW114424   4.278   9.971   7.219 -0.0877 -0.5658  0.3138
 4139SOL    HW214425   4.206   9.919   7.096 -0.8912 -0.8024  0.8749
 4140SOL     OW14426   2.863   6.923   3.628  0.2388 -0.5014 -0.2461
 4140SOL    HW114427   2.887   6.997   3.684  4.0634 -0.7082 -1.3625
 4140SOL    HW214428   2.810   6.962   3.558  0.0239  0.6958  0.5480
 4141SOL     OW14429   6.349   2.588   5.487 -0.5994  0.5524 -0.1128
 4141SOL    HW114430   6.359   2.503   5.445  1.0874  0.5432  0.2176
 4141SOL    HW214431   6.276   2.577   5.547 -0.7277 -0.5060 -0.4399
 4142SOL     OW14432   6.562   9.429   0.787  0.3395  0.7686 -0.6080
 4142SOL    HW114433   6.581   9.351   0.838  1.4291  1.6873  0.4653
 4142SOL    HW214434   6.638   9.440   0.730  1.4502  2.4307  1.0880
 4143SOL     OW14435   4.536   8.446  11.003 -0.0538  0.0508 -0.2379
 4143SOL    HW114436   4.548   8.396  11.083 -1.2778  0.0646 -0.0359
 4143SOL    HW214437   4.449   8.421  10.971  0.3473  0.1650 -1.4761
 4144SOL     OW14438   5.035   4.755   9.912  0.0642  0.1224 -0.3981
 4144SOL    HW114439   5.126   4.728   9.928  0.5996  2.1950  0.3837
 4144SOL    HW214440   4.982   4.687   9.954  1.3181  0.1630  1.3681
 4145SOL     OW14441   3.153   6.299   5.888  0.1056 -0.1234  0.3393
 4145SOL    HW114442   3.096   6.232   5.926  1.3967 -1.0520  0.7058
 4145SOL    HW214443   3.148   6.372   5.950 -1.8740  0.4659 -0.4248
 4146SOL     OW14444   8.697  10.357   7.200  0.3257  0.5836 -0.4943
 4146SOL    HW114445   8.677  10.450   7.189 -0.1826  0.6768  0.9769
 4146SOL    HW214446   8.690  10.342   7.294  1.1417 -0.7884 -0.6241
 4147SOL     OW14447   1.074  10.946   3.234  0.3600  0.8345  0.5324
 4147SOL    HW114448   1.000  10.994   3.272  1.3240  1.1837  2.0643
 4147SOL    HW214449   1.034  10.889   3.169 -1.4879 -0.0934  2.3478
 4148SOL     OW14450   9.012  11.068   0.562 -0.6219  0.3219  0.6042
 4148SOL    HW114451   8.968  11.012   0.625 -0.8597  0.3766  0.4910
 4148SOL    HW214452   8.981  11.156   0.583 -1.1044  0.2826  0.0927
 4149SOL     OW14453  10.468   7.828  10.386  0.2269  0.2339 -0.0056
 4149SOL    HW114454  10.520   7.810  10.307 -0.4079 -1.7196 -0.0329
 4149SOL    HW214455  10.393   7.770  10.378  0.2227 -0.1041  2.1213
 4150SOL     OW14456   3.203   6.396   8.323  0.4640 -0.2380 -0.1485
 4150SOL    HW114457   3.282   6.446   8.303  1.1071 -0.9372  0.5784
 4150SOL    HW214458   3.200   6.393   8.419 -0.0346 -0.8411 -0.1781
 4151SOL     OW14459   0.288   3.425   0.400 -0.1456  0.2014 -0.6709
 4151SOL    HW114460   0.346   3.372   0.454 -1.1268  0.2563  0.4872
 4151SOL    HW214461   0.345   3.491   0.362  0.4901  0.6474  0.9474
 4152SOL     OW14462   4.097   5.985   0.813  0.4642 -0.4229 -0.4573
 4152SOL    HW114463   4.026   6.014   0.870  0.1687 -1.0042 -0.5254
 4152SOL    HW214464   4.174   6.033   0.845  0.7375 -2.1397  1.7147
 4153SOL     OW14465   1.825   1.687   7.342  0.2165  0.7975  0.3085
 4153SOL    HW114466   1.909   1.718   7.375  0.7588 -3.0620  3.2775
 4153SOL    HW214467   1.848   1.629   7.269 -0.1565  1.7773 -0.6078
 4154SOL     OW14468   6.990   5.716   5.644 -0.2303 -0.2300 -0.8184
 4154SOL    HW114469   6.900   5.746   5.657 -0.7210 -2.1149  0.5836
 4154SOL    HW214470   6.997   5.637   5.697  1.8335 -0.9525 -2.0446
 4155SOL     OW14471   0.557   2.539   8.577 -0.1768  0.3163  1.3463
 4155SOL    HW114472   0.465   2.536   8.605 -1.1341  1.5727 -1.2950
 4155SOL    HW214473   0.578   2.449   8.552 -1.5361  0.3994 -0.2720
 4156SOL     OW14474   4.148   9.879   5.589  0.1033  0.4052  0.4673
 4156SOL    HW114475   4.150   9.902   5.496 -0.0194 -0.5863  0.2051
 4156SOL    HW214476   4.219   9.816   5.600  1.5442  2.0957  1.5218
 4157SOL     OW14477   0.669   3.715  10.130 -0.1782 -0.0298 -0.3322
 4157SOL    HW114478   0.727   3.718  10.207  1.8491 -4.1067 -1.4257
 4157SOL    HW214479   0.596   3.772  10.153  1.4945  0.8787  3.5696
 4158SOL     OW14480   0.177   8.906  10.322 -0.1241  0.2189 -0.5953
 4158SOL    HW114481   0.249   8.854  10.358  1.4204 -0.2330 -3.9531
 4158SOL    HW214482   0.123   8.843  10.274  0.9680  1.3097 -3.5129
 4159SOL     OW14483   2.747   4.898   0.168 -0.2629  0.0590  0.3220
 4159SOL    HW114484   2.792   4.982   0.166  2.4390 -1.2160  1.8978
 4159SOL    HW214485   2.792   4.844   0.103 -0.7781 -0.7091  0.5824
 4160SOL     OW14486   4.827   4.449   6.893 -0.1144  0.0833  0.1060
 4160SOL    HW114487   4.825   4.488   6.806 -3.0646  1.3722  0.6244
 4160SOL    HW214488   4.912   4.473   6.929  0.2682  1.4535 -1.5860
 4161SOL     OW14489   9.829  10.831   5.302  0.4712 -0.2415  0.5624
 4161SOL    HW114490   9.839  10.736   5.299  1.3512 -0.1354 -0.1576
 4161SOL    HW214491   9.913  10.863   5.333  0.1486  0.3100  0.8864
 4162SOL     OW14492  11.128   2.333   1.456  0.0464 -0.2569  0.7551
 4162SOL    HW114493  11.088   2.253   1.491 -0.9312  0.4685  1.3489
 4162SOL    HW214494  11.061   2.371   1.399  0.0731  0.6868  1.3255
 4163SOL     OW14495   4.273   7.533   8.747 -0.4433 -1.1117 -0.7089
 4163SOL    HW114496   4.343   7.567   8.803 -1.6629 -1.2082  0.9491
 4163SOL    HW214497   4.200   7.594   8.761 -0.4608 -0.4789 -3.0986
 4164SOL     OW14498  10.292   3.066   4.808 -0.8351  0.6402  0.0939
 4164SOL    HW114499  10.344   3.103   4.879 -0.7754 -0.1621  0.4829
 4164SOL    HW214500  10.202   3.091   4.828 -1.1078 -1.4277  1.6814
 4165SOL     OW14501   1.490   3.970   5.055  0.2336  0.7336  0.2584
 4165SOL    HW114502   1.554   4.019   5.106  1.4137 -0.2404 -0.2305
 4165SOL    HW214503   1.479   4.021   4.975  1.3900  0.3012 -0.2081
 4166SOL     OW14504   3.546   6.784   0.546 -0.2330 -0.3986 -0.2330
 4166SOL    HW114505   3.551   6.787   0.642  0.0089 -0.9992 -0.2196
 4166SOL    HW214506   3.610   6.717   0.522  1.4093  1.3298 -0.9670
 4167SOL     OW14507   4.314   8.220   4.679 -0.6882 -0.4759  0.9490
 4167SOL    HW114508   4.244   8.238   4.616 -1.1359 -3.6423  0.3414
 4167SOL    HW214509   4.280   8.146   4.730  2.0642 -1.9136  0.8562
 4168SOL     OW14510   2.424   2.449   4.035 -0.3080 -0.4337 -0.2482
 4168SOL    HW114511   2.425   2.500   3.954 -0.7095 -0.6341 -0.3862
 4168SOL    HW214512   2.505   2.399   4.033  0.0264  0.0968 -0.1746
 4169SOL     OW14513   0.413   8.973   8.564  0.1509 -0.0082  0.7288
 4169SOL    HW114514   0.318   8.983   8.571 -0.0074 -1.3602  0.7734
 4169SOL    HW214515   0.427   8.942   8.474  0.6576  1.2059  0.3721
 4170SOL     OW14516   8.197   7.898  11.169  0.2340  0.2167  0.3565
 4170SOL    HW114517   8.199   7.874  11.261 -1.8160  1.1734  0.7094
 4170SOL    HW214518   8.289   7.903  11.143  0.9384  1.7448  2.8543
 4171SOL     OW14519   4.323   1.554   6.112  0.6747  0.1543 -0.1023
 4171SOL    HW114520   4.236   1.513   6.111  1.0611 -0.6862 -0.7011
 4171SOL    HW214521   4.343   1.563   6.205 -0.6629  1.7435  0.0739
 4172SOL     OW14522   3.338   5.121   1.163 -0.2484 -0.3858  0.4447
 4172SOL    HW114523   3.270   5.179   1.199 -0.7477  0.2786 -1.4395
 4172SOL    HW214524   3.414   5.179   1.151 -0.6369 -0.1388 -1.1121
 4173SOL     OW14525   9.501   2.331  10.626  0.7899 -0.3721 -0.6814
 4173SOL    HW114526   9.556   2.407  10.607 -2.5009  2.6880  0.9025
 4173SOL    HW214527   9.535   2.297  10.708  1.0192  0.8124 -0.2626
 4174SOL     OW14528   0.665   7.013  10.370  0.2938  0.7031 -0.1242
 4174SOL    HW114529   0.655   6.925  10.406  0.1326  0.6839 -0.2156
 4174SOL    HW214530   0.663   7.071  10.446  2.6260  0.4787  0.1899
 4175SOL     OW14531   1.209   1.538   8.982  0.7839 -0.1906  0.1311
 4175SOL    HW114532   1.218   1.443   8.969 -0.4542 -0.0902 -1.9719
 4175SOL    HW214533   1.219   1.574   8.894  2.1510  1.7515  1.0232
 4176SOL     OW14534  10.426   0.591   1.962  0.4958 -0.5622  0.5040
 4176SOL    HW114535  10.438   0.497   1.975  0.6000 -0.9152 -1.7570
 4176SOL    HW214536  10.506   0.631   1.996 -0.1130 -1.1169  2.7204
 4177SOL     OW14537   1.849   3.477   2.947 -0.1046 -0.7472 -0.7980
 4177SOL    HW114538   1.886   3.559   2.980 -0.5962 -0.2917 -1.3443
 4177SOL    HW214539   1.802   3.503   2.867 -1.9600 -1.2330  0.0926
 4178SOL     OW14540   3.773   6.099   1.284 -0.6013  0.7281  0.1807
 4178SOL    HW114541   3.678   6.111   1.282 -0.8393 -0.7725  1.0944
 4178SOL    HW214542   3.785   6.012   1.321  1.1231  0.6278 -0.5426
 4179SOL     OW14543   1.418   1.118  10.633  0.1382 -0.6628 -0.2096
 4179SOL    HW114544   1.446   1.156  10.716 -1.5984  1.3019 -0.4211
 4179SOL    HW214545   1.334   1.078  10.653 -0.3717 -0.0318 -1.0092
 4180SOL     OW14546   1.372   6.996   3.615  0.1317 -0.6436  0.0014
 4180SOL    HW114547   1.338   6.983   3.527  1.7599  0.5067 -0.8462
 4180SOL    HW214548   1.451   6.943   3.619  1.0027  0.6075  0.1455
 4181SOL     OW14549   3.536   5.054   8.866 -0.3095 -0.3608  0.2220
 4181SOL    HW114550   3.467   4.990   8.850 -0.8945  0.4548 -0.6168
 4181SOL    HW214551   3.549   5.097   8.782  1.8067 -1.0393  0.1482
 4182SOL     OW14552  10.185   4.581   2.118 -0.2658 -0.2619 -0.5352
 4182SOL    HW114553  10.164   4.603   2.209  2.3365 -1.8837  0.5646
 4182SOL    HW214554  10.240   4.503   2.124  2.9240  1.5282 -3.2319
 4183SOL     OW14555   1.214   9.568  10.897 -0.2906  0.2938 -0.7214
 4183SOL    HW114556   1.297   9.599  10.862  0.2772 -0.2342  0.1049
 4183SOL    HW214557   1.217   9.593  10.989 -0.8580 -0.1064 -0.5925
 4184SOL     OW14558   4.405   8.231   0.353 -0.5152  0.6387 -0.3317
 4184SOL    HW114559   4.438   8.142   0.367 -0.8370  0.8649  2.5556
 4184SOL    HW214560   4.317   8.219   0.318 -0.5062 -0.1972 -0.0987
 4185SOL     OW14561   7.804   1.569   6.711 -0.3978  0.4410 -0.1698
 4185SOL    HW114562   7.874   1.553   6.649 -0.0216  1.0590  0.0903
 4185SOL    HW214563   7.812   1.662   6.734  0.0303  0.0406  1.4557
 4186SOL     OW14564   5.438   2.986   9.336 -0.1904 -1.2644 -0.8631
 4186SOL    HW114565   5.372   3.001   9.268  0.3306  0.2601 -1.0773
 4186SOL    HW214566   5.502   2.928   9.295 -0.1853 -0.8256 -1.5021
 4187SOL     OW14567   2.704   0.550   4.098 -0.2340 -0.6191 -0.7296
 4187SOL    HW114568   2.611   0.573   4.092  0.2836  1.9644  0.0032
 4187SOL    HW214569   2.721   0.545   4.192  0.3645 -1.2031 -0.8611
 4188SOL     OW14570   1.526   2.755   8.819 -0.0514 -0.3287  0.1424
 4188SOL    HW114571   1.455   2.813   8.792 -0.0473  1.1118  2.8240
 4188SOL    HW214572   1.492   2.711   8.897  1.1758 -1.4296  0.0956
 4189SOL     OW14573   7.530   3.336   7.655 -0.0586  0.6498 -0.0852
 4189SOL    HW114574   7.550   3.304   7.742  0.1195 -0.2268 -0.4377
 4189SOL    HW214575   7.558   3.428   7.655  0.0150  0.6284  0.7429
 4190SOL     OW14576   0.880   3.038   0.316  0.4527 -0.6802  0.5770
 4190SOL    HW114577   0.817   3.017   0.247  2.5854 -0.5126 -1.5029
 4190SOL    HW214578   0.900   3.131   0.303  3.2044 -1.3545 -0.6828
 4191SOL     OW14579   9.864  10.205   5.316 -0.2653 -0.2258  0.2987
 4191SOL    HW114580   9.891  10.168   5.400  0.1907 -1.9743 -0.5570
 4191SOL    HW214581   9.771  10.223   5.325  0.1046  1.1492  1.6839
 4192SOL     OW14582   4.375   8.361   1.920  0.4107 -0.1718  0.2218
 4192SOL    HW114583   4.404   8.440   1.965  1.2532 -0.7544  0.7454
 4192SOL    HW214584   4.281   8.372   1.909  0.5221  0.9102  0.2468
 4193SOL     OW14585   7.958  10.205   7.748  0.1984  1.1462  0.9857
 4193SOL    HW114586   7.880  10.231   7.699  0.2240  0.0103  0.3067
 4193SOL    HW214587   8.022  10.184   7.680 -1.1833 -5.1158  1.0421
 4194SOL     OW14588   5.424   7.924   8.878 -0.0062 -0.4045  0.6244
 4194SOL    HW114589   5.492   7.954   8.817 -1.8760  1.7659 -0.5317
 4194SOL    HW214590   5.471   7.909   8.960  2.0318  0.0587 -0.3841
 4195SOL     OW14591   8.979   9.021   5.199  0.4547 -0.3846 -0.0195
 4195SOL    HW114592   8.920   9.075   5.147 -0.3917 -0.6109  0.6833
 4195SOL    HW214593   9.024   8.966   5.135 -1.9554 -2.0149 -0.4398
 4196SOL     OW14594   1.265  10.701   3.747 -0.4569 -0.2926 -0.6963
 4196SOL    HW114595   1.277  10.764   3.818  2.4584 -0.6527 -0.7645
 4196SOL    HW214596   1.290  10.748   3.668  2.2000 -1.5351 -0.6975
 4197SOL     OW14597   1.968   5.611   2.882  0.0978 -0.5055  0.1629
 4197SOL    HW114598   1.906   5.553   2.927 -0.7360 -1.1949 -1.7684
 4197SOL    HW214599   2.051   5.564   2.886 -0.1248 -0.8906  0.3558
 4198SOL     OW14600   2.273   0.262   0.474  0.0812  0.2000 -0.3289
 4198SOL    HW114601   2.325   0.205   0.530 -1.0005 -1.4133 -0.8902
 4198SOL    HW214602   2.312   0.254   0.387 -0.0774  0.3053 -0.4127
 4199SOL     OW14603   1.005   2.260   7.253 -0.7126 -0.2613 -0.0312
 4199SOL    HW114604   0.917   2.263   7.289 -1.3699  0.1910 -1.5813
 4199SOL    HW214605   1.039   2.175   7.280 -1.8725 -0.7292  0.0148
 4200SOL     OW14606   9.008   9.493   1.520 -0.1967 -0.9351 -0.4726
 4200SOL    HW114607   9.072   9.560   1.495 -3.4952  2.6873 -0.2027
 4200SOL    HW214608   9.026   9.474   1.612 -0.5711  1.5804  0.1997
 4201SOL     OW14609   2.576   4.661   4.979 -0.0522 -0.2047  0.1105
 4201SOL    HW114610   2.538   4.747   4.996 -0.1259 -0.2303  0.0741
 4201SOL    HW214611   2.515   4.599   5.019 -0.7874 -0.3326 -1.1742
 4202SOL     OW14612   4.463   0.416   8.809  0.3756 -0.5890 -0.2924
 4202SOL    HW114613   4.384   0.471   8.817 -0.2149 -1.6317  1.4689
 4202SOL    HW214614   4.505   0.447   8.728 -0.3849  1.8551  0.1489
 4203SOL     OW14615  10.587  10.235   2.636  0.7947  0.1211 -0.4913
 4203SOL    HW114616  10.621  10.282   2.560 -0.8200  0.0454 -1.3086
 4203SOL    HW214617  10.512  10.185   2.601  1.0357 -1.2167  0.8214
 4204SOL     OW14618  10.952   8.028   2.637 -0.6791  0.3049  0.3376
 4204SOL    HW114619  11.003   8.032   2.718  0.1940  0.8832 -0.2289
 4204SOL    HW214620  10.916   7.939   2.636  0.7359 -0.2941  0.5029
 4205SOL     OW14621   6.357   1.071   6.653 -0.2209 -0.1006 -0.5003
 4205SOL    HW114622   6.331   1.044   6.740  1.5832  0.4564  0.2523
 4205SOL    HW214623   6.274   1.087   6.607 -1.2277  1.5387  1.7158
 4206SOL     OW14624  10.242   2.995  10.588  0.1599 -0.3515  0.1234
 4206SOL    HW114625  10.211   2.938  10.659 -1.4385  1.7729  1.2484
 4206SOL    HW214626  10.276   2.934  10.522 -1.1451 -2.5868  1.3590
 4207SOL     OW14627  11.181   7.952   7.607 -0.1897  0.4924  0.0233
 4207SOL    HW114628  11.118   7.950   7.534 -1.0971 -0.2219  0.7975
 4207SOL    HW214629  11.132   7.919   7.682  1.8969 -3.0304  0.0517
 4208SOL     OW14630   9.474   5.781   8.169  0.2158 -0.8893  0.3134
 4208SOL    HW114631   9.482   5.757   8.262 -0.8481 -0.3375  0.5659
 4208SOL    HW214632   9.560   5.815   8.146  0.0953  0.3971  1.5471
 4209SOL     OW14633   0.881   1.741   9.219  0.1946 -0.9624 -0.8554
 4209SOL    HW114634   0.808   1.794   9.186 -0.3696 -0.4617  1.0855
 4209SOL    HW214635   0.939   1.804   9.261  0.6693 -1.6281 -0.5096
 4210SOL     OW14636   0.406   7.556   9.158 -0.1627 -0.6813  0.4591
 4210SOL    HW114637   0.322   7.599   9.170  0.6362  0.3963  2.7019
 4210SOL    HW214638   0.446   7.556   9.245  2.6645 -0.0483 -0.7291
 4211SOL     OW14639   0.854   1.078   8.854 -0.0027  0.3486 -0.7306
 4211SOL    HW114640   0.857   1.047   8.944  3.7239  0.7037 -0.5371
 4211SOL    HW214641   0.837   1.000   8.801 -1.1801 -0.0469  0.1987
 4212SOL     OW14642   0.139  11.223   1.999 -0.2739  0.0271  0.0915
 4212SOL    HW114643   0.078  11.227   2.073  0.5107  0.7928  0.7215
 4212SOL    HW214644   0.126  11.306   1.952 -1.3003 -0.7701 -1.0932
 4213SOL     OW14645   1.780   1.922  10.539 -0.0537  0.2990 -0.6327
 4213SOL    HW114646   1.691   1.929  10.575 -0.1765 -0.2229 -0.8328
 4213SOL    HW214647   1.783   1.836  10.498  1.1972 -0.5941  1.1646
 4214SOL     OW14648   8.260   1.080   1.240 -0.3902  0.9746  0.0257
 4214SOL    HW114649   8.336   1.077   1.182 -0.4733  0.8871 -0.0799
 4214SOL    HW214650   8.186   1.098   1.182 -0.5805  0.1371 -0.0027
 4215SOL     OW14651   4.932   4.369   7.718 -0.3764 -0.1573 -0.0851
 4215SOL    HW114652   4.953   4.462   7.714 -0.1080 -0.0498  2.2524
 4215SOL    HW214653   4.966   4.333   7.637  1.8644  1.3627  0.0910
 4216SOL     OW14654   8.678   7.572   3.571  0.0000  0.3601  0.3608
 4216SOL    HW114655   8.738   7.603   3.639  1.2170 -1.7810  0.3675
 4216SOL    HW214656   8.717   7.490   3.540 -2.0186 -0.2055 -0.9114
 4217SOL     OW14657   8.717  10.698   3.036  0.6027  0.1855 -0.0649
 4217SOL    HW114658   8.651  10.696   2.966  0.9460 -0.7070 -0.3882
 4217SOL    HW214659   8.670  10.727   3.113  0.2245  1.2493 -0.6747
 4218SOL     OW14660   1.680   3.887   1.151 -0.0144 -0.1556  0.0086
 4218SOL    HW114661   1.758   3.920   1.106  2.1554 -2.2343  1.9389
 4218SOL    HW214662   1.671   3.942   1.228  1.1187 -1.3720  1.0666
 4219SOL     OW14663   6.139   2.914   0.731 -0.0433 -0.5283 -0.6510
 4219SOL    HW114664   6.180   2.939   0.813 -0.0447 -1.0875 -0.4792
 4219SOL    HW214665   6.165   2.823   0.717 -2.1397 -1.2995  0.0427
 4220SOL     OW14666   1.986  10.421  10.329 -0.3897  0.4771 -0.5029
 4220SOL    HW114667   1.957  10.488  10.391  0.5765 -0.5380  1.1354
 4220SOL    HW214668   2.081  10.421  10.337 -0.2026  0.6642 -2.4079
 4221SOL     OW14669   9.390   3.662   0.705 -0.0653  0.4295 -0.4842
 4221SOL    HW114670   9.420   3.708   0.627  0.6673 -0.2710 -0.6278
 4221SOL    HW214671   9.301   3.694   0.719  0.2872  1.5958 -0.7976
 4222SOL     OW14672   9.288   4.165   1.545  0.8021  0.0889 -0.5958
 4222SOL    HW114673   9.276   4.242   1.488  2.2083  0.1987 -0.7823
 4222SOL    HW214674   9.378   4.172   1.576  1.3033 -1.9913 -1.3947
 4223SOL     OW14675   4.634   7.603   3.913 -0.6050 -0.8663 -0.1477
 4223SOL    HW114676   4.722   7.565   3.911 -0.7429 -1.3122  1.3493
 4223SOL    HW214677   4.624   7.635   4.002 -1.9470 -0.7553 -0.3240
 4224SOL     OW14678   2.369   3.160   7.698 -0.2105 -0.0216 -0.7319
 4224SOL    HW114679   2.425   3.123   7.630 -2.2015 -0.4977 -2.1989
 4224SOL    HW214680   2.340   3.085   7.750 -0.1788  0.1175 -0.5091
 4225SOL     OW14681   2.451  11.187   1.509  0.8756 -0.6399  0.5472
 4225SOL    HW114682   2.484  11.235   1.433  0.9460 -0.7357  0.5159
 4225SOL    HW214683   2.504  11.107   1.511  2.5752  0.4185  2.0988
 4226SOL     OW14684   3.849   4.531   0.079 -0.1390  0.7725  0.0973
 4226SOL    HW114685   3.916   4.476   0.037 -0.4144 -0.3133  1.0329
 4226SOL    HW214686   3.839   4.606   0.020  1.6238  0.7812 -0.2546
 4227SOL     OW14687   0.250  10.501   4.326  0.5226 -0.0343  0.2190
 4227SOL    HW114688   0.236  10.582   4.375  0.9348  0.1588  0.0170
 4227SOL    HW214689   0.255  10.433   4.394 -0.4242  0.0166  0.3587
 4228SOL     OW14690   2.074   6.829   0.978  0.4110 -0.4526  0.5475
 4228SOL    HW114691   1.985   6.865   0.972  0.9003  0.9549  1.2563
 4228SOL    HW214692   2.061   6.735   0.985 -0.9716 -0.3894 -0.5505
 4229SOL     OW14693   4.699   3.001   8.989 -0.5303  0.0237 -0.3047
 4229SOL    HW114694   4.782   2.976   9.030 -0.8344 -2.1333 -0.8830
 4229SOL    HW214695   4.664   2.919   8.954 -1.9986  1.1990 -1.7507
 4230SOL     OW14696   8.793   0.545   2.071  0.7583  0.4498  0.1684
 4230SOL    HW114697   8.831   0.613   2.126 -0.2017  0.6061  0.6610
 4230SOL    HW214698   8.723   0.508   2.125  0.5150 -0.1353 -0.5427
 4231SOL     OW14699   2.837   3.653   4.145 -0.1155  0.4852  0.5611
 4231SOL    HW114700   2.873   3.565   4.140 -1.0047  0.1357  0.1629
 4231SOL    HW214701   2.755   3.649   4.096 -0.0387  1.5982  0.3032
 4232SOL     OW14702   6.888   5.681   4.823  0.1162 -0.1988 -0.0786
 4232SOL    HW114703   6.821   5.728   4.873 -0.7729 -1.6677  0.1529
 4232SOL    HW214704   6.953   5.656   4.889  0.0061 -0.3103 -0.0134
 4233SOL     OW14705  10.822   3.268   5.139 -0.4501 -0.2489  0.4687
 4233SOL    HW114706  10.816   3.265   5.043 -1.8860  0.9068  0.4774
 4233SOL    HW214707  10.876   3.345   5.157 -0.2895 -0.3904  0.5965
 4234SOL     OW14708   1.230   4.222   7.107  0.2350  0.2513 -0.3586
 4234SOL    HW114709   1.228   4.287   7.036 -0.6472  0.0899 -0.4983
 4234SOL    HW214710   1.155   4.165   7.089  1.4585 -1.3458 -0.7352
 4235SOL     OW14711   7.513   9.657   4.262  0.4121 -0.0902 -0.4407
 4235SOL    HW114712   7.474   9.736   4.222 -1.8507 -0.5813  0.6315
 4235SOL    HW214713   7.590   9.689   4.309 -0.2322  1.4183 -0.3615
 4236SOL     OW14714   1.353   4.454   2.489  0.2013 -0.0896  0.1072
 4236SOL    HW114715   1.280   4.433   2.546  1.9587  1.0049  2.9461
 4236SOL    HW214716   1.312   4.486   2.408 -2.3807 -1.1467  0.9087
 4237SOL     OW14717   9.084   8.224   8.566  0.4591 -0.0289 -0.5406
 4237SOL    HW114718   9.169   8.241   8.608  0.9972  2.2578 -2.3299
 4237SOL    HW214719   9.022   8.278   8.614  0.0856 -1.2426  0.3874
 4238SOL     OW14720   0.338   3.284   1.364 -0.0572  0.8714 -0.2690
 4238SOL    HW114721   0.300   3.237   1.290 -2.4491  0.4316  1.1272
 4238SOL    HW214722   0.265   3.299   1.423  0.9640  4.6844  0.2994
 4239SOL     OW14723   0.252   5.799   3.366 -0.2767  0.2624 -0.2438
 4239SOL    HW114724   0.324   5.736   3.370 -1.3279 -1.0861 -1.3826
 4239SOL    HW214725   0.292   5.879   3.330  0.7594 -0.2848 -0.3360
 4240SOL     OW14726   3.347   8.173  10.217 -0.4534 -0.3635  0.0187
 4240SOL    HW114727   3.340   8.224  10.136 -1.5614 -1.3965 -0.5718
 4240SOL    HW214728   3.414   8.218  10.268  1.3557 -0.5254 -2.0941
 4241SOL     OW14729   6.186   3.664   8.592  0.1653 -0.0204  0.9769
 4241SOL    HW114730   6.254   3.604   8.623  0.9222 -0.4676 -1.3538
 4241SOL    HW214731   6.107   3.610   8.587  0.0892  0.0014  1.8590
 4242SOL     OW14732   0.553   7.259   3.318  0.3851  0.2743 -0.4220
 4242SOL    HW114733   0.507   7.283   3.398 -1.6529 -0.1712 -1.4003
 4242SOL    HW214734   0.640   7.298   3.328  0.4129 -0.2719  2.2377
 4243SOL     OW14735   9.454   0.672   7.006  0.7664 -1.0040  0.1539
 4243SOL    HW114736   9.386   0.608   7.030 -0.2343 -0.2664 -0.6105
 4243SOL    HW214737   9.441   0.743   7.069  0.2377 -0.4742 -0.5425
 4244SOL     OW14738   0.755   4.166   9.846  0.2013  0.4620 -0.5855
 4244SOL    HW114739   0.742   4.087   9.899  0.4175  1.2305  0.6719
 4244SOL    HW214740   0.827   4.143   9.787 -1.4131 -1.1267 -2.0825
 4245SOL     OW14741   1.418   3.799   1.147 -0.6527 -0.1833  0.7353
 4245SOL    HW114742   1.394   3.833   1.233  1.5161  0.2066  1.2592
 4245SOL    HW214743   1.513   3.790   1.151 -0.6212 -1.3081 -1.2255
 4246SOL     OW14744   7.596   2.971   8.004 -0.2220  0.2612  0.5649
 4246SOL    HW114745   7.601   3.011   8.091  0.4550 -0.5646  0.9261
 4246SOL    HW214746   7.587   2.877   8.022  1.7135 -0.1244 -0.2390
 4247SOL     OW14747   1.852   1.742   1.139 -0.6115  0.7063  0.1635
 4247SOL    HW114748   1.915   1.814   1.146  0.8854 -0.5106 -0.1166
 4247SOL    HW214749   1.874   1.684   1.212 -0.9819 -0.0523 -0.3200
 4248SOL     OW14750   8.250   7.414   2.872  0.3112  0.4452 -0.0961
 4248SOL    HW114751   8.218   7.331   2.835  0.1010 -0.5099  2.1112
 4248SOL    HW214752   8.196   7.480   2.829  0.2801 -0.5429 -1.7005
 4249SOL     OW14753   9.463   3.701   4.799  0.2398  0.5304 -0.1171
 4249SOL    HW114754   9.544   3.739   4.832 -0.1321  1.4209 -0.1968
 4249SOL    HW214755   9.471   3.708   4.704  0.0582  0.6474 -0.1238
 4250SOL     OW14756   5.077   8.241  10.061 -0.5592  0.1617  0.1796
 4250SOL    HW114757   5.104   8.287   9.982 -0.6509  0.8813  0.5595
 4250SOL    HW214758   4.983   8.257  10.068 -0.9991 -1.7486 -0.7542
 4251SOL     OW14759   1.714   6.034   2.814  0.0874  0.2855  0.3370
 4251SOL    HW114760   1.770   5.990   2.878 -0.0749 -0.6061 -0.1141
 4251SOL    HW214761   1.742   5.998   2.730 -1.2364 -0.2956  0.1152
 4252SOL     OW14762   0.900   0.420   2.125 -0.4981  0.0708  0.2739
 4252SOL    HW114763   0.982   0.391   2.163 -0.0279  0.2507 -0.5706
 4252SOL    HW214764   0.889   0.510   2.155 -1.3983 -0.5646  1.9874
 4253SOL     OW14765   1.566   4.477   3.320 -0.2947 -0.4715  0.1337
 4253SOL    HW114766   1.516   4.431   3.388 -2.1362  0.9462 -0.1848
 4253SOL    HW214767   1.623   4.410   3.283 -0.8521 -1.7996  1.5777
 4254SOL     OW14768   0.625   2.716   7.657 -0.6710  0.7142  0.2759
 4254SOL    HW114769   0.541   2.678   7.681 -0.4419 -0.7965 -1.1612
 4254SOL    HW214770   0.602   2.793   7.604 -1.2152 -0.5229 -1.3812
 4255SOL     OW14771   8.062   8.881  10.399 -0.2967  0.3816  0.5261
 4255SOL    HW114772   8.009   8.835  10.334  0.4335 -0.6848  0.6697
 4255SOL    HW214773   8.121   8.815  10.434  2.3922  1.8914 -0.8847
 4256SOL     OW14774   9.869   4.707   0.168 -0.2091 -0.6274  0.0923
 4256SOL    HW114775   9.782   4.747   0.158  0.7820  2.0966  1.4181
 4256SOL    HW214776   9.905   4.707   0.079  0.4230  3.4401  0.1255
 4257SOL     OW14777   2.549   0.891   0.360  0.4188  0.1270  0.1646
 4257SOL    HW114778   2.630   0.883   0.310  1.4467 -1.3190  1.9512
 4257SOL    HW214779   2.542   0.809   0.409 -1.2582  0.8905  1.3139
 4258SOL     OW14780   7.990   3.703   1.442  0.3736 -0.0825 -0.3387
 4258SOL    HW114781   8.053   3.721   1.511 -1.2629  2.3992  0.6354
 4258SOL    HW214782   7.952   3.788   1.421 -2.1367 -1.3508 -1.3810
 4259SOL     OW14783   1.944   1.342   5.659 -0.2625 -0.7290 -1.0730
 4259SOL    HW114784   1.877   1.367   5.595 -1.2103 -0.6027 -0.0693
 4259SOL    HW214785   2.026   1.344   5.610 -1.1615 -2.5408 -2.7733
 4260SOL     OW14786  10.053   1.400  10.006 -0.1351 -0.5323  0.1713
 4260SOL    HW114787   9.995   1.325  10.022 -2.3075  1.2172  1.1040
 4260SOL    HW214788  10.013   1.446   9.933 -0.9007  1.5331  1.7886
 4261SOL     OW14789   4.876   8.582   1.284  0.4816  0.4445 -0.0217
 4261SOL    HW114790   4.790   8.621   1.298  1.1139  0.9156  3.3824
 4261SOL    HW214791   4.937   8.642   1.327  2.1298 -1.4331  0.4104
 4262SOL     OW14792  10.014   5.855   4.175 -0.6527 -0.3976 -0.2940
 4262SOL    HW114793   9.931   5.836   4.132 -2.5162  3.0791  1.4146
 4262SOL    HW214794  10.040   5.941   4.142  2.5130 -1.4566 -0.9696
 4263SOL     OW14795  10.142   0.530   5.651  0.4400  0.7735  0.3689
 4263SOL    HW114796  10.186   0.506   5.732 -0.3592 -0.3567  0.4963
 4263SOL    HW214797  10.157   0.624   5.642  2.2024  0.5645  0.7875
 4264SOL     OW14798   0.460   9.220   6.113  0.5451  0.1180 -0.2880
 4264SOL    HW114799   0.423   9.144   6.068  2.7039 -2.6481  2.1370
 4264SOL    HW214800   0.385   9.275   6.134 -1.1080 -1.1911 -2.3758
 4265SOL     OW14801   7.635   3.163   4.298  0.3017  0.2781  0.0874
 4265SOL    HW114802   7.663   3.190   4.386  2.6309 -1.2289 -0.0850
 4265SOL    HW214803   7.582   3.085   4.313  1.0403 -0.2200  0.1699
 4266SOL     OW14804   5.990   3.885   4.738 -0.6602 -0.1562  0.0355
 4266SOL    HW114805   6.085   3.872   4.737 -0.7474 -0.8613 -1.5160
 4266SOL    HW214806   5.964   3.859   4.826  0.3047 -2.2832 -0.2522
 4267SOL     OW14807   7.844   9.960   4.874  0.1634 -0.7515 -0.3362
 4267SOL    HW114808   7.845  10.047   4.914 -0.4322 -0.1077 -1.6717
 4267SOL    HW214809   7.925   9.919   4.906  0.1787  0.0727  0.7501
 4268SOL     OW14810  10.951   2.478   7.184  0.5130 -0.6719 -0.4855
 4268SOL    HW114811  10.978   2.538   7.254  1.7445 -3.0469  1.2346
 4268SOL    HW214812  10.859   2.499   7.168  0.1222 -0.1360  2.0379
 4269SOL     OW14813   3.863  11.239   4.820  0.4805 -0.5702 -0.2486
 4269SOL    HW114814   3.834  11.326   4.848  0.1809 -0.3336 -1.2608
 4269SOL    HW214815   3.842  11.182   4.894  0.2681  0.1341  0.2477
 4270SOL     OW14816   0.073   6.709   7.926 -0.6258 -0.3398  0.5349
 4270SOL    HW114817   0.087   6.796   7.891 -0.0130 -0.7144 -0.1745
 4270SOL    HW214818   0.159   6.683   7.961  0.1369 -1.9218 -2.1818
 4271SOL     OW14819   7.575   4.144   5.986  0.1667  0.2578  0.4621
 4271SOL    HW114820   7.632   4.142   5.909 -0.2566 -0.7104  0.1607
 4271SOL    HW214821   7.602   4.222   6.034 -0.5486  1.7403 -1.4070
 4272SOL     OW14822   8.628  10.550   7.971 -0.4791 -0.3816 -0.1084
 4272SOL    HW114823   8.681  10.494   8.027 -0.6947  0.5376  1.0565
 4272SOL    HW214824   8.685  10.623   7.947 -0.7743 -0.1165 -0.0205
 4273SOL     OW14825  10.052   3.285   7.327 -0.1305  0.1514 -0.2986
 4273SOL    HW114826  10.100   3.208   7.357  3.8722  1.9186 -1.5024
 4273SOL    HW214827   9.962   3.256   7.320  1.0833 -4.2684 -0.2868
 4274SOL     OW14828   2.752   3.140   0.725  0.1582 -0.3239  0.1720
 4274SOL    HW114829   2.735   3.051   0.754 -1.7888  1.2863  5.0768
 4274SOL    HW214830   2.665   3.177   0.707  0.9121  0.7067 -1.7258
 4275SOL     OW14831   3.343   4.624   9.737  0.2365  0.3574  0.7391
 4275SOL    HW114832   3.250   4.602   9.728  0.4403 -0.2723  0.1539
 4275SOL    HW214833   3.373   4.643   9.648  0.3997  1.7090  1.0571
 4276SOL     OW14834   5.822   5.706   1.055  0.5900 -0.2859  0.5829
 4276SOL    HW114835   5.865   5.732   1.136 -0.0740  2.2729  0.1836
 4276SOL    HW214836   5.864   5.623   1.032  0.3512 -1.4684  3.8198
 4277SOL     OW14837   1.397   7.737   9.959 -0.7365  0.0414 -0.2833
 4277SOL    HW114838   1.435   7.658   9.919  1.6603 -0.1345  2.0663
 4277SOL    HW214839   1.390   7.799   9.887  1.6469 -0.8258 -1.3700
 4278SOL     OW14840   7.739   0.632   1.401  0.6623 -0.4246 -0.3640
 4278SOL    HW114841   7.771   0.560   1.456 -2.5796 -1.3584  0.5327
 4278SOL    HW214842   7.690   0.688   1.461 -0.0009  0.4729 -1.7012
 4279SOL     OW14843   2.752   5.266   2.490 -0.4194 -0.4891 -0.3043
 4279SOL    HW114844   2.679   5.255   2.429 -0.9201 -1.4878  0.4452
 4279SOL    HW214845   2.804   5.338   2.453 -0.2343 -1.6147 -2.3620
 4280SOL     OW14846   2.593   1.543   7.176 -0.9043 -0.2632  0.0176
 4280SOL    HW114847   2.500   1.562   7.165 -0.9362 -0.0296  0.6943
 4280SOL    HW214848   2.634   1.629   7.185 -1.0041 -0.4355  2.7440
 4281SOL     OW14849   9.377   7.201   3.384  0.4390 -0.2615  0.2133
 4281SOL    HW114850   9.411   7.261   3.451  2.1105  0.6112 -1.3002
 4281SOL    HW214851   9.324   7.138   3.432 -1.7007  2.5612  1.9051
 4282SOL     OW14852   3.719   4.877   0.273 -0.3973  0.4468 -0.4909
 4282SOL    HW114853   3.797   4.848   0.227  1.4560  1.0947  2.0202
 4282SOL    HW214854   3.671   4.796   0.292  0.4139 -0.1200 -0.8144
 4283SOL     OW14855  10.776   1.821   2.224  0.2037  0.4328  0.2880
 4283SOL    HW114856  10.784   1.741   2.173 -0.8599 -0.3546  1.3017
 4283SOL    HW214857  10.738   1.885   2.163  0.2601 -0.0815 -0.2909
 4284SOL     OW14858   7.924   0.176   5.054  0.5694  0.2926  0.4388
 4284SOL    HW114859   7.891   0.148   5.140 -2.7135 -0.4176 -0.9274
 4284SOL    HW214860   8.012   0.211   5.073  0.4890 -0.9717  3.8617
 4285SOL     OW14861   7.877  11.251   3.554  0.1740 -0.6358 -0.2151
 4285SOL    HW114862   7.892  11.157   3.553  2.4213 -0.3375  0.0340
 4285SOL    HW214863   7.871  11.274   3.647 -2.0451 -0.6939 -0.2772
 4286SOL     OW14864   5.485  11.187   0.095  0.3121 -0.0366  0.1333
 4286SOL    HW114865   5.503  11.257   0.158  0.0486  2.8984 -2.7560
 4286SOL    HW214866   5.502  11.227   0.010 -3.1057 -2.4409 -1.9272
 4287SOL     OW14867   7.496   8.426   7.916 -0.2252 -0.2527  0.5159
 4287SOL    HW114868   7.464   8.336   7.908 -0.7070  0.0565 -1.4613
 4287SOL    HW214869   7.511   8.455   7.826  2.3475  0.8201  1.1972
 4288SOL     OW14870   9.512  10.677   0.672  0.1624 -0.9806  0.3740
 4288SOL    HW114871   9.500  10.747   0.736 -0.3988 -0.9079  0.1983
 4288SOL    HW214872   9.464  10.706   0.595  0.5719 -1.2093  0.0244
 4289SOL     OW14873   4.756   3.147   1.525  0.5988  0.7863  0.1937
 4289SOL    HW114874   4.768   3.053   1.539 -0.8950  0.6407  0.6304
 4289SOL    HW214875   4.844   3.184   1.537  0.9689 -0.3828  1.3289
 4290SOL     OW14876   7.112   1.848   4.610  0.1348  0.5195 -0.3960
 4290SOL    HW114877   7.063   1.924   4.643 -1.8284 -1.0693  0.5480
 4290SOL    HW214878   7.124   1.792   4.687 -0.5127 -1.1830 -1.4726
 4291SOL     OW14879   2.574   6.455   4.859  0.5996 -0.0228  0.3718
 4291SOL    HW114880   2.498   6.402   4.837  1.5123 -0.6888 -1.3837
 4291SOL    HW214881   2.634   6.443   4.786  1.4953  2.2306  0.6490
 4292SOL     OW14882   6.875   4.404   7.353  0.5931 -0.7974 -0.1493
 4292SOL    HW114883   6.946   4.411   7.416  0.2456  1.4677  0.0705
 4292SOL    HW214884   6.798   4.438   7.400 -0.3317 -1.8260 -0.8613
 4293SOL     OW14885   4.040   4.654   6.557 -0.2969 -0.1638  0.1538
 4293SOL    HW114886   4.010   4.576   6.603 -0.7241 -2.2000 -3.2950
 4293SOL    HW214887   4.123   4.629   6.516 -0.3854  1.1911 -0.9455
 4294SOL     OW14888   5.113   4.548  10.330  0.2055 -0.1467  0.2935
 4294SOL    HW114889   5.187   4.567  10.273  0.3513 -1.4492  0.0272
 4294SOL    HW214890   5.098   4.454  10.320 -2.9644  0.3964 -1.4549
 4295SOL     OW14891   6.229   9.227   4.396  0.0304  0.3573 -0.2557
 4295SOL    HW114892   6.315   9.259   4.368  0.6081 -1.9657 -1.3979
 4295SOL    HW214893   6.189   9.193   4.316 -1.1628 -0.2601  0.5792
 4296SOL     OW14894   5.394   8.754   7.906 -0.8228 -0.8954  0.2515
 4296SOL    HW114895   5.440   8.686   7.954  2.4881  0.5215 -0.6690
 4296SOL    HW214896   5.462   8.802   7.859 -3.2061  1.7448 -0.8445
 4297SOL     OW14897   9.167   0.459   5.972 -0.2727  0.2956  0.0604
 4297SOL    HW114898   9.199   0.408   6.047  0.3940  1.0140  0.2672
 4297SOL    HW214899   9.074   0.473   5.991 -0.5235 -1.0238 -0.1071
 4298SOL     OW14900   7.312   3.870   9.490  0.1651  0.5240 -0.9816
 4298SOL    HW114901   7.340   3.793   9.540 -1.8067  0.2233 -0.2310
 4298SOL    HW214902   7.302   3.939   9.556 -3.1497 -0.0625 -0.6561
 4299SOL     OW14903   0.896   5.709   9.832  0.2518  0.2450 -0.1049
 4299SOL    HW114904   0.866   5.799   9.815 -0.7009  0.0657  0.5692
 4299SOL    HW214905   0.981   5.720   9.873  0.0469  0.8613  0.1790
 4300SOL     OW14906   1.723   6.227  11.055 -0.2652  0.4195  0.3276
 4300SOL    HW114907   1.675   6.198  10.977  0.0197 -0.0631  0.3229
 4300SOL    HW214908   1.669   6.198  11.128  0.6094 -1.3124  0.3601
 4301SOL     OW14909   5.182   6.421   8.388  0.0314 -0.0720  1.3565
 4301SOL    HW114910   5.098   6.384   8.360  0.0142  0.6157  0.4269
 4301SOL    HW214911   5.197   6.493   8.327  1.1515  0.0123  1.7163
 4302SOL     OW14912   1.248   9.089  10.569  0.3218 -0.1588 -0.4095
 4302SOL    HW114913   1.243   9.005  10.524 -1.0724 -1.4475  1.9287
 4302SOL    HW214914   1.245   9.154  10.500 -2.4759 -1.9582 -2.1580
 4303SOL     OW14915   4.300   6.884   8.197  0.1223  0.3364 -0.4577
 4303SOL    HW114916   4.361   6.904   8.268  0.6047  0.5144 -0.9129
 4303SOL    HW214917   4.253   6.966   8.182  0.7404  0.5973 -1.0241
 4304SOL     OW14918   9.769   9.118   0.801  0.1528 -0.6003  0.3452
 4304SOL    HW114919   9.793   9.032   0.766 -0.9410 -0.6958 -0.2341
 4304SOL    HW214920   9.737   9.099   0.890  1.0916 -0.6162  0.6877
 4305SOL     OW14921   3.725   1.055  10.308  0.2323  0.5419 -0.4247
 4305SOL    HW114922   3.732   0.961  10.293  1.7936  0.8360 -1.8381
 4305SOL    HW214923   3.631   1.070  10.321  0.0833 -1.3513  1.1484
 4306SOL     OW14924   1.615   7.767   5.615 -0.7188  0.2301 -0.2864
 4306SOL    HW114925   1.636   7.860   5.614  0.2128  0.0362 -0.2095
 4306SOL    HW214926   1.539   7.760   5.673 -0.9214  0.9570 -0.4486
 4307SOL     OW14927   1.764  10.748  10.533 -0.2442  0.3950 -0.2886
 4307SOL    HW114928   1.859  10.738  10.534 -0.3395 -1.0515 -1.7238
 4307SOL    HW214929   1.734  10.702  10.611  0.1323 -0.9246 -0.8920
 4308SOL     OW14930   1.544  10.264   7.474 -0.0803  0.2242 -0.1049
 4308SOL    HW114931   1.568  10.339   7.529 -0.9602  0.9088 -0.6257
 4308SOL    HW214932   1.576  10.188   7.522  0.3753  0.8974  0.6892
 4309SOL     OW14933   6.068   5.479  10.370  0.3026  0.4232  0.6398
 4309SOL    HW114934   6.077   5.425  10.291 -1.3019 -0.9080  1.3136
 4309SOL    HW214935   6.115   5.431  10.438 -2.1277 -0.8549  1.5326
 4310SOL     OW14936   1.501   8.930  10.148  0.8203  0.0808 -0.8456
 4310SOL    HW114937   1.593   8.954  10.135  0.9449 -0.5172 -1.1153
 4310SOL    HW214938   1.454   8.982  10.083  0.8590  1.0311 -0.1453
 4311SOL     OW14939   4.536   7.884   2.666 -0.2408  0.3906  0.3560
 4311SOL    HW114940   4.575   7.955   2.615 -0.1583  1.0949  1.3937
 4311SOL    HW214941   4.546   7.910   2.757 -0.6241 -0.7395  0.7393
 4312SOL     OW14942   7.097   6.087   1.020  0.2438  0.1489  0.6477
 4312SOL    HW114943   7.175   6.128   0.983  0.3351  0.2594  0.9621
 4312SOL    HW214944   7.114   6.084   1.114 -0.9971  2.0268  0.9768
 4313SOL     OW14945   9.789   9.671   2.874  0.4449  0.3332 -0.5115
 4313SOL    HW114946   9.817   9.740   2.814  1.4942  1.1023  0.8256
 4313SOL    HW214947   9.866   9.616   2.885  0.8381  1.2067  1.4699
 4314SOL     OW14948  10.908   3.267   2.625  0.4385 -0.2038  0.0959
 4314SOL    HW114949  10.954   3.301   2.701 -0.4315  1.6402 -0.1525
 4314SOL    HW214950  10.818   3.296   2.636 -0.0273 -1.1796 -0.9172
 4315SOL     OW14951  10.889   8.742   8.905  0.1920 -0.1766  0.2310
 4315SOL    HW114952  10.818   8.782   8.856 -1.7946 -1.0591  2.2031
 4315SOL    HW214953  10.960   8.806   8.902 -1.7521  2.1041  0.6624
 4316SOL     OW14954   6.531   0.374   0.922 -0.1792  0.5025  0.1601
 4316SOL    HW114955   6.454   0.325   0.953 -0.6458  2.0527  1.5996
 4316SOL    HW214956   6.497   0.436   0.858  0.1243  0.1966 -0.3053
 4317SOL     OW14957   7.838   6.189   6.294  0.6002 -0.0771  0.1840
 4317SOL    HW114958   7.805   6.231   6.373 -0.0465  1.8193 -1.0364
 4317SOL    HW214959   7.812   6.097   6.303 -3.1806  0.8420  0.3304
 4318SOL     OW14960   2.203   8.786   6.509  0.4881 -0.6436 -0.3080
 4318SOL    HW114961   2.242   8.831   6.434  0.1446 -2.2002 -1.4886
 4318SOL    HW214962   2.275   8.775   6.571  0.5286  1.6680  0.1355
 4319SOL     OW14963   4.562   3.333   2.288 -0.0031 -0.2970 -0.5264
 4319SOL    HW114964   4.513   3.254   2.311 -1.1921  0.4959 -0.2634
 4319SOL    HW214965   4.525   3.362   2.205 -0.9958  1.0915  0.3532
 4320SOL     OW14966   2.337   1.440   7.614 -0.1188 -0.7941  0.1220
 4320SOL    HW114967   2.272   1.501   7.650 -1.6889 -3.2767  1.7243
 4320SOL    HW214968   2.395   1.421   7.687 -0.7771 -2.6090  0.2078
 4321SOL     OW14969   2.985   3.035   8.456 -0.1202  0.2840  0.7642
 4321SOL    HW114970   3.074   3.046   8.492  0.4048 -0.9857 -0.1054
 4321SOL    HW214971   2.952   3.124   8.450  2.6415  1.2989 -2.7524
 4322SOL     OW14972   9.997   0.463   3.168  0.3610  0.3017  0.1299
 4322SOL    HW114973  10.082   0.496   3.197  1.9424 -0.9367 -2.6679
 4322SOL    HW214974   9.977   0.391   3.229 -0.7169  2.9015  3.1672
 4323SOL     OW14975   4.895   6.432   9.879 -0.1837  0.3063  0.4069
 4323SOL    HW114976   4.803   6.409   9.891  0.2480 -2.0156 -0.1465
 4323SOL    HW214977   4.908   6.434   9.784  0.3698  0.4801  0.4798
 4324SOL     OW14978   3.775   8.860   6.035  0.0757 -0.0457  0.0246
 4324SOL    HW114979   3.766   8.899   5.948  3.6351 -0.2029 -0.5350
 4324SOL    HW214980   3.732   8.775   6.028  0.1725  0.0121 -1.5460
 4325SOL     OW14981   1.593   4.468   1.501 -0.2696  0.2848 -0.6919
 4325SOL    HW114982   1.602   4.426   1.587  1.9786 -0.5290 -1.2444
 4325SOL    HW214983   1.605   4.562   1.519  0.1392  0.1280 -0.1137
 4326SOL     OW14984  10.682   9.568   4.104 -0.0843  0.1169 -0.1674
 4326SOL    HW114985  10.636   9.623   4.167  1.0184  0.6498  0.1832
 4326SOL    HW214986  10.688   9.483   4.146 -1.5262 -0.2289 -0.5885
 4327SOL     OW14987   7.764   4.051  10.734  0.3145 -0.1126  0.4949
 4327SOL    HW114988   7.845   4.009  10.760  0.2498 -0.7757 -0.3334
 4327SOL    HW214989   7.758   4.129  10.790  2.5217  1.0415 -0.7238
 4328SOL     OW14990   2.790   4.617   5.617  0.1136 -0.3873 -0.5052
 4328SOL    HW114991   2.885   4.629   5.620  0.1031 -0.3941  0.8842
 4328SOL    HW214992   2.755   4.706   5.610  0.2135 -0.2931  0.1219
 4329SOL     OW14993   1.433   2.384   8.399  0.4307 -0.3209  0.0834
 4329SOL    HW114994   1.489   2.419   8.469  1.0356 -1.2125  0.0611
 4329SOL    HW214995   1.358   2.347   8.446 -0.2775  1.0543  0.1016
 4330SOL     OW14996   8.857   3.650  10.985 -0.0919 -0.1550  0.3953
 4330SOL    HW114997   8.769   3.614  10.976 -1.0149  1.9280  0.4079
 4330SOL    HW214998   8.886   3.620  11.071 -0.9563 -0.5469  0.5701
 4331SOL     OW14999   4.679   1.971   7.098 -0.7251  0.1484  0.1296
 4331SOL    HW115000   4.675   1.986   7.003  2.4922  3.6384  0.2916
 4331SOL    HW215001   4.772   1.968   7.118 -1.2732  0.6700  3.3268
 4332SOL     OW15002   4.435  10.732   5.306  0.3177  0.1710  0.1604
 4332SOL    HW115003   4.340  10.741   5.305  0.3032  0.1016 -1.4439
 4332SOL    HW215004   4.451  10.641   5.331 -0.1078 -0.2644 -1.0817
 4333SOL     OW15005   2.272  10.470   3.559 -0.7535  0.3246 -1.0237
 4333SOL    HW115006   2.366  10.454   3.551 -0.5605  0.7680  0.1745
 4333SOL    HW215007   2.247  10.429   3.642 -0.9636  2.8822  0.2790
 4334SOL     OW15008   6.574  11.044   5.642  1.0372  0.1956  0.5692
 4334SOL    HW115009   6.605  10.956   5.666  2.7792  0.0839 -1.7131
 4334SOL    HW215010   6.553  11.036   5.549 -1.1276  1.6353  0.8830
 4335SOL     OW15011   0.463   5.148   9.792 -0.0614 -0.0387  0.5691
 4335SOL    HW115012   0.409   5.152   9.871  1.7562 -0.9581  1.9334
 4335SOL    HW215013   0.437   5.066   9.749  2.0741 -2.0349  2.7428
 4336SOL     OW15014   6.020  10.228   3.200  0.5221  0.3759  0.4039
 4336SOL    HW115015   5.976  10.295   3.251  0.4245  1.8010 -1.4432
 4336SOL    HW215016   6.113  10.251   3.205  0.6997 -0.4769  1.2923
 4337SOL     OW15017   9.237   1.283   1.921 -0.5837 -0.1486  0.1844
 4337SOL    HW115018   9.312   1.342   1.920 -0.5690 -0.1661  0.2357
 4337SOL    HW215019   9.227   1.258   2.013 -0.8151  0.0600  0.2169
 4338SOL     OW15020   8.455   2.169   1.903 -0.5481  0.3036  0.4895
 4338SOL    HW115021   8.388   2.236   1.889 -1.7266 -0.8715  0.2616
 4338SOL    HW215022   8.481   2.179   1.994 -1.3274  0.5293  0.6919
 4339SOL     OW15023  10.758   8.098   7.811  0.5271  0.3837 -0.6959
 4339SOL    HW115024  10.823   8.157   7.773  1.7852  0.5169  1.5045
 4339SOL    HW215025  10.728   8.143   7.890 -0.2363 -0.8974 -0.2235
 4340SOL     OW15026   8.354   6.919   5.270 -0.1335 -0.2592  0.2739
 4340SOL    HW115027   8.328   6.904   5.178 -1.9332  2.1260  0.3131
 4340SOL    HW215028   8.450   6.915   5.268  0.0734  2.2593 -2.2884
 4341SOL     OW15029   3.168   9.471   9.085 -0.1622  0.2190 -0.7120
 4341SOL    HW115030   3.248   9.485   9.035 -1.1128 -0.3344 -2.4887
 4341SOL    HW215031   3.168   9.540   9.151  0.3470  2.1081 -2.5869
 4342SOL     OW15032   7.800   1.478   1.271 -0.0691 -0.1804 -0.5120
 4342SOL    HW115033   7.855   1.474   1.350 -3.7028  1.5149  2.3714
 4342SOL    HW215034   7.828   1.558   1.227 -0.5857  1.0225  1.2626
 4343SOL     OW15035   8.992   3.024   6.655  0.4179  0.7012  0.4747
 4343SOL    HW115036   8.965   2.935   6.633 -0.1676  1.0274 -0.1802
 4343SOL    HW215037   9.083   3.016   6.683  0.5543 -0.0200 -0.1585
 4344SOL     OW15038   0.680   2.052   2.234  0.0851  0.5021  0.0871
 4344SOL    HW115039   0.768   2.045   2.271 -0.0671 -0.4239  0.2978
 4344SOL    HW215040   0.622   2.060   2.309 -0.2310 -1.4630  0.1121
 4345SOL     OW15041   1.494   5.629  11.031 -0.3185  0.6028 -0.3749
 4345SOL    HW115042   1.512   5.695  10.964  1.3862  0.6854  0.1262
 4345SOL    HW215043   1.512   5.545  10.989  2.6592  0.7200  0.4296
 4346SOL     OW15044  11.159   6.099   0.772  0.3492 -0.0858 -0.3274
 4346SOL    HW115045  11.107   6.174   0.743  1.1182  1.3438  1.7610
 4346SOL    HW215046  11.249   6.131   0.771  1.0546 -1.9131 -2.0519
 4347SOL     OW15047  10.588   0.735   8.425 -0.0960  0.6065 -0.4873
 4347SOL    HW115048  10.667   0.787   8.438 -0.0171  0.3629  0.0206
 4347SOL    HW215049  10.590   0.670   8.495 -1.9543  2.0452  0.9845
 4348SOL     OW15050   2.425   2.194   6.134 -0.0455  0.0640 -0.1296
 4348SOL    HW115051   2.485   2.222   6.064 -0.3382 -2.0784 -1.3366
 4348SOL    HW215052   2.445   2.252   6.208  0.9517  1.7785 -1.6618
 4349SOL     OW15053   9.427  10.915   9.307 -0.3620  0.5080 -0.7263
 4349SOL    HW115054   9.439  10.934   9.400  0.8731  0.8585 -0.9374
 4349SOL    HW215055   9.460  10.993   9.262  1.0084 -0.4913 -1.5031
 4350SOL     OW15056   0.058   8.299   7.151  0.2691  0.2153  0.4549
 4350SOL    HW115057  -0.012   8.359   7.127 -0.5443 -0.3158  1.4496
 4350SOL    HW215058   0.015   8.215   7.164  1.2247 -0.3214  0.2344
 4351SOL     OW15059   4.244   1.297  10.398 -0.3133  0.1760 -0.3050
 4351SOL    HW115060   4.174   1.238  10.369  0.2121 -0.1630 -0.9033
 4351SOL    HW215061   4.208   1.340  10.476 -0.5034 -1.3272  0.4703
 4352SOL     OW15062  10.234   2.162   3.495  0.3585 -0.3253 -0.8144
 4352SOL    HW115063  10.247   2.072   3.526  1.4339  0.2398  0.4795
 4352SOL    HW215064  10.158   2.193   3.545 -0.2293 -0.6001 -1.5127
 4353SOL     OW15065   9.644   2.307  11.059  0.0984 -0.6028  0.3447
 4353SOL    HW115066   9.568   2.306  11.117  0.3931 -0.5635  0.7323
 4353SOL    HW215067   9.670   2.399  11.055 -0.0194 -0.5807  0.0154
 4354SOL     OW15068  10.347   4.381   9.685 -0.3795 -0.5621 -0.5415
 4354SOL    HW115069  10.416   4.437   9.721 -0.7559  0.7806 -1.8099
 4354SOL    HW215070  10.287   4.442   9.643 -2.1346 -1.7398  0.1604
 4355SOL     OW15071   3.596   6.750   5.633 -0.2592  0.4240 -0.0145
 4355SOL    HW115072   3.571   6.799   5.554 -0.3693  1.6048  0.7324
 4355SOL    HW215073   3.529   6.773   5.698 -2.1569 -3.1115 -0.4499
 4356SOL     OW15074   0.042   0.292   8.676 -0.1242  1.1113 -0.0998
 4356SOL    HW115075   0.101   0.345   8.730  0.7812  0.4177 -0.3953
 4356SOL    HW215076   0.032   0.210   8.723 -2.8004  2.0328  1.1736
 4357SOL     OW15077   5.597   6.666   9.961  0.3861 -0.2217  0.2386
 4357SOL    HW115078   5.624   6.633  10.047 -1.3586 -2.2684  0.0816
 4357SOL    HW215079   5.648   6.616   9.898  1.1178  0.7463  0.0456
 4358SOL     OW15080   2.033  10.289   2.431  0.2278 -0.4909  0.4011
 4358SOL    HW115081   2.080  10.259   2.353  0.9781 -0.6649  0.9103
 4358SOL    HW215082   2.088  10.261   2.504 -0.1256  0.2635  0.9689
 4359SOL     OW15083  10.324   3.612  10.434  0.1272 -1.3161  0.3469
 4359SOL    HW115084  10.354   3.650  10.517 -0.5656 -1.5517  0.7196
 4359SOL    HW215085  10.381   3.650  10.368 -0.7484  0.6662  0.6537
 4360SOL     OW15086   1.460   8.620   5.938 -0.0452  0.0621  0.4717
 4360SOL    HW115087   1.534   8.602   5.997  0.3762  0.6131  0.1199
 4360SOL    HW215088   1.470   8.556   5.868  0.4057  0.4601  0.1603
 4361SOL     OW15089   4.897   9.118   8.177 -0.2035  0.0198  0.2321
 4361SOL    HW115090   4.889   9.188   8.241 -1.9751 -0.5757  0.7156
 4361SOL    HW215091   4.814   9.071   8.182  0.6270 -1.6385 -0.6498
 4362SOL     OW15092   8.945   5.406   9.348  0.0337 -0.1421  0.3575
 4362SOL    HW115093   8.954   5.391   9.442  0.5142  1.6235  0.6227
 4362SOL    HW215094   8.868   5.355   9.323 -0.1153 -0.6173  1.7076
 4363SOL     OW15095   7.230   2.178  11.023  0.0808  0.2622 -0.0213
 4363SOL    HW115096   7.294   2.170  11.094  0.3153 -1.9742 -0.4292
 4363SOL    HW215097   7.248   2.104  10.965 -1.4386  0.8613 -1.3405
 4364SOL     OW15098   4.338   3.514   4.724 -0.2144  0.3630  0.0077
 4364SOL    HW115099   4.400   3.587   4.724 -2.0628  2.0140 -0.4504
 4364SOL    HW215100   4.349   3.474   4.811  0.1648  1.7986  0.6551
 4365SOL     OW15101   5.720   3.110   3.366 -0.1814 -0.2390 -0.4863
 4365SOL    HW115102   5.657   3.109   3.294 -2.0764 -0.3221  1.0849
 4365SOL    HW215103   5.686   3.177   3.426  1.4967  0.0284  0.2289
 4366SOL     OW15104   0.214   6.804   4.957  0.5781  0.0220 -0.3939
 4366SOL    HW115105   0.148   6.871   4.941 -0.8699 -1.6432 -1.6745
 4366SOL    HW215106   0.253   6.788   4.870  2.1690  0.4277  0.2065
 4367SOL     OW15107   2.790   2.374   6.929 -0.0346  0.4869 -0.3858
 4367SOL    HW115108   2.803   2.407   7.018 -2.1745 -0.9850  0.5565
 4367SOL    HW215109   2.753   2.287   6.941  0.5999 -0.1812 -2.7585
 4368SOL     OW15110   3.590   5.754   4.685  0.2628 -0.9183  0.2736
 4368SOL    HW115111   3.500   5.763   4.656 -0.4822 -1.3252  2.2930
 4368SOL    HW215112   3.627   5.686   4.629 -0.2135  0.2321 -1.5171
 4369SOL     OW15113   0.270   7.838   5.339 -0.1803  0.4862  0.1817
 4369SOL    HW115114   0.313   7.787   5.270  1.1752 -1.1058  2.0982
 4369SOL    HW215115   0.319   7.920   5.342  0.2164  0.2733 -0.2813
 4370SOL     OW15116   2.710   4.091   4.142 -0.5205 -0.6055 -0.5066
 4370SOL    HW115117   2.657   4.144   4.202 -1.2830 -0.7906 -1.0030
 4370SOL    HW215118   2.791   4.141   4.131 -0.6521 -0.2403  0.1433
 4371SOL     OW15119   1.077   4.120   1.030 -0.1854  0.2766  0.2508
 4371SOL    HW115120   1.064   4.039   1.080 -0.6419  0.1736 -0.0348
 4371SOL    HW215121   1.124   4.177   1.091  1.6875 -0.7815 -0.1143
 4372SOL     OW15122   8.682   5.726   5.279 -0.5333  0.5495  0.0178
 4372SOL    HW115123   8.704   5.649   5.331  1.4690  0.6506 -0.6029
 4372SOL    HW215124   8.589   5.740   5.294 -1.3986 -3.0104 -1.2029
 4373SOL     OW15125   4.658   0.479   1.951 -0.0336 -0.0234  0.1821
 4373SOL    HW115126   4.601   0.540   1.998 -0.1749  0.3094 -0.4093
 4373SOL    HW215127   4.723   0.452   2.016 -0.2037  0.4559  0.5592
 4374SOL     OW15128   5.446   7.201   2.714  0.2788 -0.1704 -0.0474
 4374SOL    HW115129   5.467   7.152   2.634  1.3841 -0.7499  0.5881
 4374SOL    HW215130   5.368   7.158   2.749  2.0015 -2.4437  1.2464
 4375SOL     OW15131   4.578  10.442   6.654 -0.3650 -0.4344 -0.4296
 4375SOL    HW115132   4.543  10.376   6.594 -1.2585 -1.2412  0.9335
 4375SOL    HW215133   4.580  10.399   6.739  0.1931  0.9175  0.2784
 4376SOL     OW15134   0.831  10.099   5.459  0.0431  0.0770 -0.2867
 4376SOL    HW115135   0.798  10.039   5.527  0.7314 -0.2257 -0.2144
 4376SOL    HW215136   0.889  10.045   5.406  0.5078  0.6378 -0.3530
 4377SOL     OW15137   7.713   1.000   3.149  0.0368  0.0343  0.3716
 4377SOL    HW115138   7.624   0.991   3.182  0.3216  1.9922  1.8379
 4377SOL    HW215139   7.752   0.913   3.160 -1.6043 -0.8119 -0.1575
 4378SOL     OW15140  11.215   1.574  10.702 -0.5315  0.0953  0.6508
 4378SOL    HW115141  11.303   1.539  10.698 -0.1474  1.1101 -0.9173
 4378SOL    HW215142  11.172   1.541  10.623 -1.3742  0.0492  1.1163
 4379SOL     OW15143   6.894   6.474   5.913  0.6753  0.1345  0.7618
 4379SOL    HW115144   6.923   6.453   5.824  4.0378  1.9525  1.2692
 4379SOL    HW215145   6.838   6.550   5.903  0.8403  0.1847  0.1735
 4380SOL     OW15146   0.954  11.191   2.077 -0.1973 -0.2659 -0.3276
 4380SOL    HW115147   0.961  11.160   1.987 -2.1709  0.0739 -0.6634
 4380SOL    HW215148   0.873  11.243   2.077  0.3592  0.6492  1.3850
 4381SOL     OW15149   0.581   9.320   7.838 -0.2141  0.1797  0.1317
 4381SOL    HW115150   0.622   9.309   7.923  1.3216 -1.1224 -0.7119
 4381SOL    HW215151   0.509   9.256   7.838 -0.0021 -0.0622  0.3327
 4382SOL     OW15152   0.620   9.333   5.020  0.5276 -0.2793  0.1246
 4382SOL    HW115153   0.552   9.381   4.973 -1.2605  0.2535  3.0100
 4382SOL    HW215154   0.634   9.254   4.967 -2.3702 -0.4308 -0.6288
 4383SOL     OW15155   0.961   2.291  10.760 -0.3029 -0.5136  0.2419
 4383SOL    HW115156   0.961   2.284  10.855  1.5011 -1.3140  0.2328
 4383SOL    HW215157   1.030   2.230  10.732  0.0008  0.5652 -1.5021
 4384SOL     OW15158   3.306   6.553   4.342 -0.4910  0.3347  0.8112
 4384SOL    HW115159   3.347   6.633   4.310 -1.0130  0.4343  0.3818
 4384SOL    HW215160   3.350   6.535   4.426  0.5950  0.3010  0.2461
 4385SOL     OW15161   1.740   9.060   9.095  0.0819  0.0631  0.0751
 4385SOL    HW115162   1.695   9.100   9.169  0.9877  1.9656 -0.3300
 4385SOL    HW215163   1.831   9.090   9.103 -0.1023  1.7157 -2.6485
 4386SOL     OW15164   9.028  11.230   5.654 -0.5536  0.2937 -0.7363
 4386SOL    HW115165   9.124  11.236   5.656 -0.5081 -0.4879 -0.0425
 4386SOL    HW215166   9.009  11.193   5.568 -0.2931  1.1524 -1.1838
 4387SOL     OW15167   8.933   9.050   9.778 -0.1626 -0.2465 -0.2933
 4387SOL    HW115168   8.846   9.053   9.739 -0.5920 -0.7393  0.5966
 4387SOL    HW215169   8.986   9.110   9.725 -1.2809  0.8147 -0.2419
 4388SOL     OW15170   1.747   5.207   3.648 -0.2270 -0.7461  0.2039
 4388SOL    HW115171   1.677   5.270   3.663  0.4356  0.7009 -2.1824
 4388SOL    HW215172   1.706   5.139   3.594 -0.0264 -0.3122 -0.5120
 4389SOL     OW15173   5.435   8.983   3.474  0.3315  0.0702  0.3837
 4389SOL    HW115174   5.487   8.988   3.394 -0.0802  0.4934  0.1337
 4389SOL    HW215175   5.362   9.044   3.458  1.0569  1.3235  1.6645
 4390SOL     OW15176  11.145   7.383   9.889  0.1114  0.3354 -0.5668
 4390SOL    HW115177  11.172   7.392   9.797  1.6734  0.9053 -0.0799
 4390SOL    HW215178  11.074   7.446   9.900 -0.1228  0.2257 -1.3832
 4391SOL     OW15179   2.498   9.902   4.970 -0.0090 -0.1562 -0.4115
 4391SOL    HW115180   2.579   9.947   4.950  0.7482 -0.9278  0.7840
 4391SOL    HW215181   2.429   9.966   4.952  1.0222  1.5807  1.4550
 4392SOL     OW15182   3.093   1.574   7.016 -0.1548  0.0758 -0.2228
 4392SOL    HW115183   3.149   1.592   6.941  1.5753  0.3558  1.0545
 4392SOL    HW215184   3.155   1.560   7.088 -1.5936 -3.0161  0.5943
 4393SOL     OW15185   0.806   2.856   7.836  0.0400  0.7968 -0.1123
 4393SOL    HW115186   0.730   2.827   7.784 -0.2673  2.1405 -0.4577
 4393SOL    HW215187   0.768   2.889   7.917  0.1011  2.5363 -0.7438
 4394SOL     OW15188   6.410   3.913   2.362  0.4031 -0.5785 -0.3455
 4394SOL    HW115189   6.429   4.007   2.353 -0.1482 -0.5175 -0.9731
 4394SOL    HW215190   6.461   3.872   2.292  2.5504 -1.0383  1.3987
 4395SOL     OW15191   9.637   7.764  10.301 -0.2615 -0.0433 -0.1973
 4395SOL    HW115192   9.656   7.773  10.208 -2.2700 -3.8276 -1.1906
 4395SOL    HW215193   9.718   7.733  10.340 -0.1780 -1.3432 -1.3443
 4396SOL     OW15194   4.103   7.247   8.343  0.1031 -0.6358 -0.4812
 4396SOL    HW115195   4.054   7.306   8.400  0.3647  1.8365 -2.6084
 4396SOL    HW215196   4.039   7.182   8.315 -1.0127  0.3803 -0.3592
 4397SOL     OW15197   2.695   7.988   4.247  0.3525  0.1000  0.0365
 4397SOL    HW115198   2.685   8.081   4.267  0.4692  1.1959 -4.1351
 4397SOL    HW215199   2.650   7.943   4.319  0.1341  3.3072  2.1225
 4398SOL     OW15200   7.317   9.890   0.227  0.1508 -0.0198  0.2970
 4398SOL    HW115201   7.350   9.826   0.290  0.0650 -0.2274  0.1308
 4398SOL    HW215202   7.388   9.901   0.164  0.5761  0.8249  0.8935
 4399SOL     OW15203   2.842   3.551   4.916 -0.1578 -0.5248 -0.0538
 4399SOL    HW115204   2.809   3.487   4.853  0.5846  0.1848 -1.2028
 4399SOL    HW215205   2.937   3.550   4.904 -0.0943  0.4088  0.2833
 4400SOL     OW15206   6.459   4.909   9.272  0.4898 -0.4531  0.3324
 4400SOL    HW115207   6.495   4.859   9.199  0.1460 -0.4548  0.1622
 4400SOL    HW215208   6.464   5.000   9.243 -0.2769 -0.5039  0.0246
 4401SOL     OW15209   9.183   9.810  10.679  0.7802 -0.1681 -0.3903
 4401SOL    HW115210   9.278   9.815  10.689  0.9478 -0.5073 -1.5721
 4401SOL    HW215211   9.164   9.860  10.599 -0.5438  3.4323  1.9481
 4402SOL     OW15212   3.314   6.049   2.102 -0.2379 -0.2473  0.5589
 4402SOL    HW115213   3.370   6.094   2.166  0.3248  1.0731 -0.8057
 4402SOL    HW215214   3.232   6.098   2.102  0.1405  0.4192 -0.4588
 4403SOL     OW15215  11.017  10.321   0.656  0.6337  0.0517  0.1938
 4403SOL    HW115216  11.039  10.382   0.586 -0.5675 -1.1242 -1.2929
 4403SOL    HW215217  11.093  10.263   0.661  1.5204  1.2530  1.1970
 4404SOL     OW15218   6.279   8.794  11.055 -0.0017 -0.2372  0.3335
 4404SOL    HW115219   6.290   8.715  11.108  1.8458 -0.1070  0.2078
 4404SOL    HW215220   6.185   8.800  11.040 -0.2364 -2.0818  0.8483
 4405SOL     OW15221   5.282   9.699   1.161 -0.4460  0.0515 -0.4588
 4405SOL    HW115222   5.250   9.616   1.125  2.7499 -1.1970 -0.7014
 4405SOL    HW215223   5.221   9.719   1.233 -1.5290 -2.2820 -0.6425
 4406SOL     OW15224   5.152   8.240  11.251  0.6632 -0.7459  0.2432
 4406SOL    HW115225   5.152   8.153  11.212  0.1661 -0.4647 -0.4033
 4406SOL    HW215226   5.172   8.299  11.179 -2.1616 -0.0454 -0.1125
 4407SOL     OW15227   0.829   5.978   7.083  0.2641  0.3143  0.3671
 4407SOL    HW115228   0.799   5.905   7.137 -0.2602 -0.6960 -1.2038
 4407SOL    HW215229   0.792   5.960   6.996  0.9561  1.9281 -0.3031
 4408SOL     OW15230   4.741   1.530   6.695  0.0966  0.1439  0.3087
 4408SOL    HW115231   4.721   1.437   6.684 -1.6764  0.7540 -2.7151
 4408SOL    HW215232   4.805   1.533   6.766 -1.0933 -3.2015  1.6922
 4409SOL     OW15233   3.854   5.717   5.131  0.9020 -0.1015  0.4867
 4409SOL    HW115234   3.816   5.805   5.125  1.9071  0.2653 -1.0752
 4409SOL    HW215235   3.936   5.730   5.180  0.5093 -0.3737  1.2279
 4410SOL     OW15236   0.553   2.818   6.243 -0.4377  0.1456  0.0917
 4410SOL    HW115237   0.512   2.897   6.208 -0.8391 -0.5583 -1.0541
 4410SOL    HW215238   0.643   2.822   6.210  0.2193  1.2108  1.8407
 4411SOL     OW15239   9.929   9.111   8.646 -0.4185  0.1890  0.5324
 4411SOL    HW115240   9.908   9.042   8.709 -2.2971 -0.0505 -0.3001
 4411SOL    HW215241  10.007   9.079   8.600 -1.9001 -1.9936 -0.6316
 4412SOL     OW15242   1.877  11.142   4.757 -0.4184 -0.4123 -0.1860
 4412SOL    HW115243   1.936  11.080   4.713 -0.3985 -0.7154  0.2574
 4412SOL    HW215244   1.795  11.135   4.709 -0.1334 -0.0733 -0.7343
 4413SOL     OW15245   2.510   1.823   7.010 -0.4374 -0.6900  0.9381
 4413SOL    HW115246   2.502   1.880   7.086  3.5141  3.6595 -1.3895
 4413SOL    HW215247   2.594   1.777   7.024  0.6250  0.5854 -0.8576
 4414SOL     OW15248   4.100   2.610   3.571  0.4155 -0.6435 -0.9381
 4414SOL    HW115249   4.190   2.622   3.600  0.8399 -0.9532 -2.0659
 4414SOL    HW215250   4.082   2.517   3.584 -0.4444 -0.2301  1.1453
 4415SOL     OW15251   8.974   8.789   9.768  0.1420  0.4558 -0.7814
 4415SOL    HW115252   8.964   8.884   9.782 -1.9709  0.1238  0.3477
 4415SOL    HW215253   9.027   8.760   9.842  0.3245  0.6710 -0.8276
 4416SOL     OW15254   4.318   1.658   5.279 -0.2232  0.4197  0.2130
 4416SOL    HW115255   4.404   1.619   5.269  0.3841  1.4381  1.2439
 4416SOL    HW215256   4.335   1.750   5.296 -1.5354  0.6944  0.1469
 4417SOL     OW15257   2.611   1.788   0.722 -0.6333 -0.3520 -0.7407
 4417SOL    HW115258   2.606   1.810   0.815 -0.9310  2.7636 -1.3693
 4417SOL    HW215259   2.701   1.759   0.709 -0.0035  1.0476  0.2280
 4418SOL     OW15260   4.736   3.889   1.626 -0.3715 -1.0481 -0.0933
 4418SOL    HW115261   4.678   3.961   1.651  1.0988  0.0517  0.3278
 4418SOL    HW215262   4.823   3.930   1.619  0.7482 -2.9971  1.3935
 4419SOL     OW15263   8.136   5.509   1.641  0.1580  0.4781 -0.0529
 4419SOL    HW115264   8.148   5.427   1.592  0.0536  2.5796 -4.0074
 4419SOL    HW215265   8.224   5.540   1.659  0.2055 -0.7166  2.0759
 4420SOL     OW15266   7.627   8.032   4.822 -0.5007  0.5486 -0.5275
 4420SOL    HW115267   7.711   8.036   4.776  0.0950 -1.8200  0.2646
 4420SOL    HW215268   7.626   8.112   4.876  2.3307 -0.4256  1.1971
 4421SOL     OW15269   7.646   9.265   2.743  0.8274 -0.4399  0.4365
 4421SOL    HW115270   7.607   9.294   2.825  3.3590 -0.9838  1.9547
 4421SOL    HW215271   7.647   9.170   2.750 -2.7717 -0.8655 -2.2343
 4422SOL     OW15272   9.734  10.997   8.340 -0.3363  0.2282 -0.1263
 4422SOL    HW115273   9.658  10.969   8.391 -0.6514 -0.1770 -0.8100
 4422SOL    HW215274   9.697  11.027   8.257  0.3378 -1.1617 -0.9634
 4423SOL     OW15275   9.370   6.715   2.820 -0.4495  0.5776 -0.2141
 4423SOL    HW115276   9.442   6.696   2.880  0.7177  1.7632 -1.1925
 4423SOL    HW215277   9.392   6.800   2.781 -2.3353  0.9432 -0.6062
 4424SOL     OW15278   1.718   0.529   9.464 -0.0213 -0.4641  0.2843
 4424SOL    HW115279   1.799   0.528   9.414  0.2916 -2.4404  0.7816
 4424SOL    HW215280   1.663   0.463   9.423 -0.5575 -0.6566  1.2777
 4425SOL     OW15281   5.413   6.506   9.010  0.3076  0.2423 -0.1181
 4425SOL    HW115282   5.443   6.464   9.091 -0.4484  1.2815  0.7256
 4425SOL    HW215283   5.420   6.600   9.027  0.1109  0.4787 -1.2530
 4426SOL     OW15284   8.708   1.695   2.841 -0.6591 -0.6021  0.5784
 4426SOL    HW115285   8.615   1.684   2.861 -1.1007  0.3608 -0.7716
 4426SOL    HW215286   8.709   1.727   2.751  0.9024  1.0125  1.1254
 4427SOL     OW15287   1.106   5.129   1.413 -0.0260  0.0047  0.3730
 4427SOL    HW115288   1.036   5.163   1.357  1.2454  3.7703  0.8008
 4427SOL    HW215289   1.079   5.154   1.502  1.3636  0.6767  0.6335
 4428SOL     OW15290   1.160   4.396   5.993  0.0536  0.7665  0.4868
 4428SOL    HW115291   1.137   4.315   6.038  0.6063  0.0076 -0.5509
 4428SOL    HW215292   1.253   4.387   5.972 -0.3397  0.6981 -1.4875
 4429SOL     OW15293   1.392   2.444   0.428  0.1338  0.1274  0.1990
 4429SOL    HW115294   1.431   2.531   0.423  0.5377 -0.0696 -0.2506
 4429SOL    HW215295   1.465   2.385   0.445  0.1396 -0.3018 -1.1192
 4430SOL     OW15296   4.950   4.622   1.014  0.2215 -0.3896 -0.3077
 4430SOL    HW115297   5.043   4.642   1.025  0.0062  0.7733 -0.4456
 4430SOL    HW215298   4.913   4.628   1.102  0.1746 -0.2702 -0.3351
 4431SOL     OW15299   5.473   2.292   6.765  0.6458 -0.1697 -1.0459
 4431SOL    HW115300   5.440   2.347   6.836 -0.0362 -1.7577 -0.0810
 4431SOL    HW215301   5.433   2.327   6.686 -1.4255 -0.4929 -0.2017
 4432SOL     OW15302   5.276   9.148   9.007  0.2162  0.0111  0.2934
 4432SOL    HW115303   5.258   9.063   9.048 -0.1392 -0.5568 -0.9772
 4432SOL    HW215304   5.208   9.206   9.040 -1.1260 -0.8872 -0.7756
 4433SOL     OW15305   6.211   9.378   0.908 -0.0773  0.4257  0.0946
 4433SOL    HW115306   6.216   9.465   0.869 -0.3526  1.5056  2.3020
 4433SOL    HW215307   6.302   9.352   0.921 -0.0016  0.6486  0.0094
 4434SOL     OW15308   0.674   0.481   1.532 -0.2075 -0.2995 -0.7108
 4434SOL    HW115309   0.640   0.477   1.621  3.3755 -2.6270  0.7959
 4434SOL    HW215310   0.751   0.537   1.539 -0.2740  0.0787 -2.5571
 4435SOL     OW15311   8.373  10.432   7.357  0.5252  0.6497 -0.6848
 4435SOL    HW115312   8.427  10.510   7.371  0.5874  0.2446  1.7961
 4435SOL    HW215313   8.293  10.448   7.406 -0.2334 -0.1370 -1.6059
 4436SOL     OW15314   7.005  11.020   1.217  0.1758 -0.3225  0.2500
 4436SOL    HW115315   6.941  11.030   1.288  0.5331  1.5455  0.3439
 4436SOL    HW215316   7.033  10.929   1.224 -2.6353 -1.3123  0.0518
 4437SOL     OW15317   0.496  10.797   5.431 -0.2262 -0.2267  0.0516
 4437SOL    HW115318   0.441  10.744   5.373 -1.7283  1.2914  0.0158
 4437SOL    HW215319   0.495  10.884   5.391  1.2728  0.1138  0.7065
 4438SOL     OW15320   9.138   9.602   8.523  0.4216 -0.5518 -0.1453
 4438SOL    HW115321   9.202   9.555   8.470  0.5988 -0.3483 -0.1162
 4438SOL    HW215322   9.087   9.533   8.566  1.2247 -0.7306  0.5553
 4439SOL     OW15323   1.615   5.173   1.860 -0.3918 -0.2834 -0.4822
 4439SOL    HW115324   1.565   5.115   1.918  1.9106 -0.6770  1.2327
 4439SOL    HW215325   1.586   5.148   1.772 -0.7247 -2.8917  0.2604
 4440SOL     OW15326   0.618   3.628   0.816  0.3683 -0.5329  0.2128
 4440SOL    HW115327   0.583   3.683   0.886 -1.0479 -2.1664  0.8423
 4440SOL    HW215328   0.628   3.542   0.855 -0.3509 -1.4691 -1.5280
 4441SOL     OW15329   5.064   1.599   8.679 -0.3502 -0.5998 -0.6269
 4441SOL    HW115330   5.045   1.505   8.678  1.0796 -0.9385 -2.9252
 4441SOL    HW215331   5.024   1.632   8.599 -0.2063  0.6276 -0.2073
 4442SOL     OW15332   0.935   7.818  10.557 -0.1825 -0.4235  0.0520
 4442SOL    HW115333   0.939   7.913  10.566  0.8839 -0.3384 -1.0956
 4442SOL    HW215334   0.870   7.791  10.622 -2.2432  1.3061 -1.1358
 4443SOL     OW15335   5.650   4.614   4.012  0.0434  0.0868  0.3710
 4443SOL    HW115336   5.724   4.603   4.072  0.5975 -2.1186 -0.6076
 4443SOL    HW215337   5.597   4.683   4.052  3.7798  3.6049 -0.1077
 4444SOL     OW15338   2.909   5.370  10.255 -0.2565 -0.0751 -0.3727
 4444SOL    HW115339   2.995   5.383  10.217 -0.5847  0.5417 -0.9421
 4444SOL    HW215340   2.858   5.445  10.223 -0.8552 -0.1585  0.3674
 4445SOL     OW15341   4.098   5.882   4.293 -0.0875 -0.2630 -0.7771
 4445SOL    HW115342   4.132   5.878   4.204  0.0479 -0.1193 -0.7328
 4445SOL    HW215343   4.164   5.933   4.342  0.3678 -1.2288 -0.3584
 4446SOL     OW15344  10.823   8.815   7.718  0.0478  0.0065 -0.0679
 4446SOL    HW115345  10.742   8.820   7.769 -0.8145  0.5193 -1.4235
 4446SOL    HW215346  10.804   8.751   7.649  0.6674  0.3776 -0.5957
 4447SOL     OW15347   8.251   0.389  10.054 -0.8538  0.5089 -0.0089
 4447SOL    HW115348   8.211   0.330   9.991 -0.0881 -0.3318  0.2753
 4447SOL    HW215349   8.344   0.388  10.033 -0.9578  2.6922 -0.8685
 4448SOL     OW15350   2.991   6.967   8.501  0.1792 -0.0036 -0.1982
 4448SOL    HW115351   3.035   7.046   8.471  0.5007 -0.3979 -0.7739
 4448SOL    HW215352   3.062   6.906   8.521 -0.0709 -0.1934  0.1176
 4449SOL     OW15353  10.490   3.761   0.049 -0.4439 -0.0163 -0.0527
 4449SOL    HW115354  10.466   3.679   0.006  0.1273 -1.3270  1.9916
 4449SOL    HW215355  10.407   3.805   0.065 -0.6623  0.9016 -3.0039
 4450SOL     OW15356   9.720   5.109   3.508  0.0905  0.1734 -0.5621
 4450SOL    HW115357   9.806   5.073   3.484 -0.0961  0.0414 -1.0383
 4450SOL    HW215358   9.741   5.192   3.551  0.3851  1.7931 -3.5649
 4451SOL     OW15359   0.699   7.610   5.326  0.0447 -0.0356  0.3864
 4451SOL    HW115360   0.707   7.705   5.339  1.3270 -0.2372  1.2494
 4451SOL    HW215361   0.696   7.600   5.231  0.9367  0.8101  0.2481
 4452SOL     OW15362   0.889   5.460   6.436 -0.2958  0.1650 -0.8756
 4452SOL    HW115363   0.844   5.434   6.516 -0.8264  1.4677 -0.7198
 4452SOL    HW215364   0.829   5.523   6.395  0.0572 -0.3233 -2.1973
 4453SOL     OW15365   6.683   1.321   2.088 -0.3244 -0.0144 -0.3077
 4453SOL    HW115366   6.654   1.397   2.039  3.0933  1.6776 -0.0177
 4453SOL    HW215367   6.738   1.272   2.027  1.3558  0.3982  0.7857
 4454SOL     OW15368   5.404   5.951   9.363 -0.1038  0.2398 -0.4276
 4454SOL    HW115369   5.376   5.861   9.378  1.3940 -0.6695 -2.4748
 4454SOL    HW215370   5.324   6.003   9.373 -1.3281 -1.4987 -0.6038
 4455SOL     OW15371   0.358   7.190  11.084  0.1286  0.4982 -0.1262
 4455SOL    HW115372   0.354   7.151  10.997 -1.7335 -0.9117  0.5409
 4455SOL    HW215373   0.451   7.204  11.100  0.6786 -1.3211 -1.4483
 4456SOL     OW15374   8.120  10.728   8.865 -0.1670 -0.3223  0.0691
 4456SOL    HW115375   8.030  10.738   8.835 -0.6213  0.9679  1.7388
 4456SOL    HW215376   8.116  10.662   8.934 -0.0907  0.7945  1.1561
 4457SOL     OW15377   8.336   6.716   1.595  0.3243  0.1564  0.3062
 4457SOL    HW115378   8.316   6.674   1.679 -0.0170  0.2392  0.2691
 4457SOL    HW215379   8.360   6.644   1.537 -1.1719 -0.1089 -0.0263
 4458SOL     OW15380   9.011   8.524   9.611 -0.2823 -0.2656 -0.1651
 4458SOL    HW115381   9.027   8.605   9.660  2.7092 -0.8113 -0.0587
 4458SOL    HW215382   9.078   8.464   9.643  0.6183 -1.2545 -3.5979
 4459SOL     OW15383  10.939   3.683   2.202  0.5599 -0.2919 -0.4842
 4459SOL    HW115384  10.897   3.727   2.276  3.2623 -1.3068  1.8418
 4459SOL    HW215385  10.937   3.747   2.131 -1.3724  1.0520  0.6877
 4460SOL     OW15386  10.491   0.817   8.064 -0.2351 -0.1535  0.3773
 4460SOL    HW115387  10.456   0.862   7.987 -0.1844  0.9715  0.9803
 4460SOL    HW215388  10.420   0.761   8.094  0.1654 -1.5954 -1.1938
 4461SOL     OW15389   0.620   5.389   7.536 -0.2589 -0.6079  0.1108
 4461SOL    HW115390   0.706   5.418   7.567 -1.2714  0.3242  2.2469
 4461SOL    HW215391   0.562   5.400   7.612 -2.8009  1.1459 -1.9154
 4462SOL     OW15392   8.103  10.542   9.071  0.1340 -0.2960  0.1579
 4462SOL    HW115393   8.123  10.510   9.159  0.2844  0.0060  0.2343
 4462SOL    HW215394   8.018  10.504   9.050  0.2612 -0.6611  0.2890
 4463SOL     OW15395   6.527   6.129   3.069 -0.4699  0.6584 -0.1215
 4463SOL    HW115396   6.619   6.152   3.071 -0.4066  0.4517  2.1669
 4463SOL    HW215397   6.519   6.068   2.996  0.5058  3.1139 -2.4613
 4464SOL     OW15398   3.284   5.230  10.588  0.6199  0.2056  0.7331
 4464SOL    HW115399   3.218   5.172  10.627  0.0988  1.2586  1.4756
 4464SOL    HW215400   3.233   5.303  10.551  1.1615 -0.3754 -1.2826
 4465SOL     OW15401   2.731   0.131   2.568  0.8742  0.3400  0.1102
 4465SOL    HW115402   2.753   0.187   2.493  0.6547  1.2793  0.7378
 4465SOL    HW215403   2.753   0.184   2.645 -1.9407  0.7046  0.7672
 4466SOL     OW15404   7.545   1.765   7.748 -0.0631  0.1625  0.1838
 4466SOL    HW115405   7.497   1.743   7.669 -1.3083  2.0738  0.3476
 4466SOL    HW215406   7.491   1.831   7.792  0.6080 -0.7922  2.6129
 4467SOL     OW15407   9.856   1.401   9.727  0.3325  0.1452  0.0676
 4467SOL    HW115408   9.815   1.332   9.781  2.1413 -0.3548  0.8900
 4467SOL    HW215409   9.803   1.479   9.744 -0.3889 -0.5053  0.9344
 4468SOL     OW15410   2.555   0.201   5.214  0.6221 -0.0797 -0.0091
 4468SOL    HW115411   2.605   0.132   5.169 -1.0043 -0.8496 -0.7016
 4468SOL    HW215412   2.484   0.155   5.258 -0.0588  1.0730  0.1325
 4469SOL     OW15413   6.719   4.202  10.177 -0.4342 -0.1813 -0.4031
 4469SOL    HW115414   6.681   4.156  10.102 -0.6198  0.6518 -0.8317
 4469SOL    HW215415   6.643   4.230  10.228 -0.2957 -1.8171  0.7883
 4470SOL     OW15416   3.453   8.067   6.983  0.1606 -1.1474 -0.4576
 4470SOL    HW115417   3.547   8.047   6.983  0.0947 -1.5362  0.5449
 4470SOL    HW215418   3.434   8.091   6.892  1.4505  0.0274 -0.4522
 4471SOL     OW15419   3.750   0.536   0.050  0.2082  0.8007 -0.7662
 4471SOL    HW115420   3.657   0.519   0.065  0.1582  0.7017 -1.1886
 4471SOL    HW215421   3.761   0.629   0.073  0.3049  0.4524  0.6659
 4472SOL     OW15422   5.162   1.996   0.723  0.3417  0.8691  0.0706
 4472SOL    HW115423   5.116   2.025   0.644  0.2746  1.2749  0.2557
 4472SOL    HW215424   5.092   1.985   0.788  0.3227 -0.0828 -0.1039
 4473SOL     OW15425   3.355   8.453   7.270 -0.2607 -0.0491 -0.3475
 4473SOL    HW115426   3.276   8.479   7.223  0.5060 -0.9058 -2.2180
 4473SOL    HW215427   3.343   8.359   7.287  0.1092 -0.0573 -0.1037
 4474SOL     OW15428   2.325   6.160   2.019  0.3614  0.1516  0.2598
 4474SOL    HW115429   2.380   6.110   2.080  0.7312 -0.6930 -0.7371
 4474SOL    HW215430   2.373   6.242   2.005  0.8586 -0.1432  0.2046
 4475SOL     OW15431   7.534   6.679   3.674 -0.5523 -0.8374  0.8517
 4475SOL    HW115432   7.448   6.681   3.631  0.0581  1.3635 -0.4104
 4475SOL    HW215433   7.572   6.595   3.648 -1.1389 -0.5572 -1.1163
 4476SOL     OW15434   4.166   9.693   1.934  0.0206 -0.4979  1.0249
 4476SOL    HW115435   4.245   9.747   1.942 -1.2494  1.2732  2.4741
 4476SOL    HW215436   4.113   9.716   2.010 -2.0352 -1.4126 -0.0372
 4477SOL     OW15437   8.007   8.331   5.266  0.1542  0.3965  0.9978
 4477SOL    HW115438   8.004   8.425   5.250  2.4811  0.4112  0.3122
 4477SOL    HW215439   8.062   8.296   5.195 -0.9638 -1.5548  1.0038
 4478SOL     OW15440   9.891   2.907   3.485 -0.3478 -0.0133 -0.1807
 4478SOL    HW115441   9.810   2.927   3.532 -0.3965  0.5542 -0.5044
 4478SOL    HW215442   9.948   2.982   3.502 -0.1874 -0.0368 -0.6187
 4479SOL     OW15443   2.763   8.515   1.055  0.7106  0.0408  1.0501
 4479SOL    HW115444   2.823   8.568   1.108 -0.4316  0.5814  1.8313
 4479SOL    HW215445   2.785   8.425   1.078  1.2880  0.2278  1.2581
 4480SOL     OW15446   2.287   0.754   8.112 -0.1928 -0.1545 -0.3647
 4480SOL    HW115447   2.202   0.794   8.128 -1.0118 -2.1720  0.6210
 4480SOL    HW215448   2.341   0.825   8.077 -1.8112  1.5465  0.4702
 4481SOL     OW15449   0.896   3.797   6.104 -0.4427  0.3190  0.1073
 4481SOL    HW115450   0.817   3.795   6.050 -0.7927  0.6497  0.5846
 4481SOL    HW215451   0.963   3.838   6.049 -0.8301  0.7758 -0.0317
 4482SOL     OW15452   9.644   7.982   8.498 -0.3000 -0.6951 -0.5171
 4482SOL    HW115453   9.724   7.944   8.461  1.1039 -0.6887  2.2580
 4482SOL    HW215454   9.641   8.070   8.462  0.7905 -0.8068 -0.9304
 4483SOL     OW15455   2.804   8.843   5.789 -0.2667  0.8642  0.3934
 4483SOL    HW115456   2.801   8.930   5.828  0.7192  0.6898  0.8970
 4483SOL    HW215457   2.881   8.844   5.732 -0.7286  0.5798 -0.2473
 4484SOL     OW15458  11.230   9.061   3.521  0.3727  0.7348  0.5036
 4484SOL    HW115459  11.184   9.002   3.581 -2.5213  0.9012 -1.3787
 4484SOL    HW215460  11.286   9.003   3.469  0.0674  0.1158  0.8480
 4485SOL     OW15461   4.400  10.448  10.531  0.1917 -0.2999 -0.2283
 4485SOL    HW115462   4.419  10.541  10.540 -0.3013  0.0739 -2.3745
 4485SOL    HW215463   4.345  10.443  10.452  0.7359 -2.4576 -0.5229
 4486SOL     OW15464  10.977   7.122   2.124 -0.9508 -0.4274 -0.1422
 4486SOL    HW115465  11.009   7.208   2.149  1.4185 -1.1775 -0.3525
 4486SOL    HW215466  10.923   7.093   2.198 -1.7995  1.2007 -0.0842
 4487SOL     OW15467   9.105   9.650   7.181 -0.4519 -0.4774 -0.2353
 4487SOL    HW115468   9.046   9.604   7.121 -2.2840 -0.5041  1.5062
 4487SOL    HW215469   9.093   9.743   7.159 -2.1143 -0.3892  0.8795
 4488SOL     OW15470   8.150   0.271   6.685  0.4031 -0.2815  0.1341
 4488SOL    HW115471   8.112   0.358   6.699  1.3844  0.0549  0.7784
 4488SOL    HW215472   8.201   0.254   6.764 -0.6635 -1.9320  0.4990
 4489SOL     OW15473   6.449   5.749   3.209 -0.1652 -0.1462  0.0540
 4489SOL    HW115474   6.511   5.679   3.228 -1.2352 -1.1039  0.0974
 4489SOL    HW215475   6.410   5.725   3.126 -0.1629  0.6842 -0.1945
 4490SOL     OW15476   2.229   4.786  10.883 -0.0619  0.6529 -0.0980
 4490SOL    HW115477   2.289   4.794  10.957 -0.0945  1.5693 -0.1547
 4490SOL    HW215478   2.148   4.751  10.920  0.1366  0.4948  0.1826
 4491SOL     OW15479   0.227   7.683   4.182  0.9558  0.9146 -0.2424
 4491SOL    HW115480   0.166   7.666   4.254  0.7610 -2.2026 -1.0131
 4491SOL    HW215481   0.171   7.702   4.107  1.0939  1.9463 -0.0976
 4492SOL     OW15482   8.510   3.582   8.406 -0.1306 -0.2055  0.0605
 4492SOL    HW115483   8.463   3.512   8.360 -0.6067 -0.9035  1.5399
 4492SOL    HW215484   8.541   3.640   8.337 -0.9238 -1.1435 -1.1175
 4493SOL     OW15485   0.247   9.555   9.367 -0.4218 -0.1808  0.3334
 4493SOL    HW115486   0.223   9.495   9.297  0.7988 -1.4260  0.9324
 4493SOL    HW215487   0.338   9.578   9.350 -0.3107  0.0257  1.1263
 4494SOL     OW15488   5.330   6.891   8.587  0.4305 -0.4870 -0.0524
 4494SOL    HW115489   5.319   6.802   8.620 -0.3305  0.0932  1.3688
 4494SOL    HW215490   5.423   6.898   8.568  1.4020 -0.3847  3.7776
 4495SOL     OW15491   6.297   2.885   1.269 -0.1278  0.5053 -0.0193
 4495SOL    HW115492   6.283   2.836   1.188  0.0857 -1.0357  0.8331
 4495SOL    HW215493   6.373   2.940   1.252  0.5194 -0.5414 -0.5416
 4496SOL     OW15494   8.620   6.305   4.907  0.0133  0.1998 -0.4229
 4496SOL    HW115495   8.612   6.288   4.813 -0.2918 -1.9906 -0.0544
 4496SOL    HW215496   8.547   6.364   4.927  2.6709  4.6428 -2.2573
 4497SOL     OW15497   5.599  10.328  10.728  0.2910 -0.3292  0.0931
 4497SOL    HW115498   5.648  10.247  10.744  0.7376 -0.2660 -0.8695
 4497SOL    HW215499   5.558  10.315  10.643  2.0697  1.2384 -1.0975
 4498SOL     OW15500   9.613  10.608   1.385 -0.0454  0.4121  0.2108
 4498SOL    HW115501   9.535  10.625   1.332 -1.1685  0.4520  1.7789
 4498SOL    HW215502   9.600  10.519   1.419  1.5370 -0.3251 -0.9899
 4499SOL     OW15503   9.313   7.274   1.763  0.3243  0.4694 -0.3869
 4499SOL    HW115504   9.350   7.294   1.849  1.0316  3.0771 -1.2310
 4499SOL    HW215505   9.228   7.318   1.762 -0.7023 -1.3646 -0.3019
 4500SOL     OW15506   4.515   8.138   7.711  0.0242  0.2382 -0.4454
 4500SOL    HW115507   4.475   8.137   7.624 -1.1787  1.0930  0.0738
 4500SOL    HW215508   4.549   8.227   7.722  1.4751 -0.2713 -0.5877
 4501SOL     OW15509   4.181   5.064   7.925  0.2147  0.0586  0.0067
 4501SOL    HW115510   4.102   5.040   7.973  0.0318 -0.0760 -0.3636
 4501SOL    HW215511   4.193   4.995   7.860  0.1578  0.5186 -0.5013
 4502SOL     OW15512   3.877  11.067   9.014  0.2093  0.2234 -0.8909
 4502SOL    HW115513   3.810  11.039   9.077 -1.5102  2.0077 -1.8188
 4502SOL    HW215514   3.935  10.992   9.007 -2.2347 -1.8304 -0.7627
 4503SOL     OW15515   9.659   7.431   6.242  0.5852 -0.4489 -0.4555
 4503SOL    HW115516   9.583   7.443   6.185  0.8111 -0.3956 -0.7505
 4503SOL    HW215517   9.675   7.518   6.279  0.0731 -0.6160  0.1555
 4504SOL     OW15518   6.781   9.751   5.268  0.1981  0.1058 -0.1722
 4504SOL    HW115519   6.854   9.799   5.231  0.6505  0.4986  1.1737
 4504SOL    HW215520   6.811   9.660   5.272  0.4786  0.2068  0.0397
 4505SOL     OW15521   0.056  10.957   7.960  0.0144 -0.4952 -0.0575
 4505SOL    HW115522   0.047  10.958   8.056 -0.5300  0.1814 -0.1107
 4505SOL    HW215523   0.035  11.046   7.933  0.9752 -0.4519 -0.7430
 4506SOL     OW15524   6.666   2.342   4.776 -0.2409 -0.0208 -0.5672
 4506SOL    HW115525   6.586   2.393   4.760 -1.5252 -0.9053  2.3818
 4506SOL    HW215526   6.722   2.400   4.827 -0.9739 -0.8647  1.2832
 4507SOL     OW15527   4.052  10.125   3.096  0.1182 -0.0257 -0.5260
 4507SOL    HW115528   4.058  10.029   3.100 -1.0511 -0.0716  0.8817
 4507SOL    HW215529   3.959  10.143   3.088  0.3399  1.0037 -0.9512
 4508SOL     OW15530   9.205   4.695   5.838 -0.2273  0.5651 -1.1146
 4508SOL    HW115531   9.172   4.737   5.758 -2.6541 -0.7264 -0.9103
 4508SOL    HW215532   9.282   4.647   5.810  0.2403  1.8863 -2.1906
 4509SOL     OW15533   6.216  10.226   2.040 -0.2894  0.2736  0.0305
 4509SOL    HW115534   6.206  10.248   2.132  0.9286  1.0792 -0.0155
 4509SOL    HW215535   6.214  10.310   1.994  0.4707 -0.0037 -0.5355
 4510SOL     OW15536   7.575   9.635   6.381 -0.0901 -0.1746  0.1584
 4510SOL    HW115537   7.531   9.571   6.437 -1.1770  0.8593  0.5256
 4510SOL    HW215538   7.606   9.584   6.306 -1.4618 -1.0358  0.1487
 4511SOL     OW15539   7.100   1.338  10.925  0.7610  0.6113  0.1506
 4511SOL    HW115540   7.172   1.313  10.983  1.4302  2.2680  0.0940
 4511SOL    HW215541   7.134   1.323  10.837  0.0729 -1.0305  0.1221
 4512SOL     OW15542   6.355   1.496   3.695 -0.0245  0.0080  0.2357
 4512SOL    HW115543   6.366   1.405   3.722  2.1045 -0.3318 -1.4757
 4512SOL    HW215544   6.282   1.495   3.634  0.5122 -0.7248 -0.4084
 4513SOL     OW15545   3.745   2.529   8.458 -0.1650 -0.1832 -0.1276
 4513SOL    HW115546   3.701   2.445   8.445  0.5036 -0.3004 -1.8783
 4513SOL    HW215547   3.793   2.544   8.376  0.8107  1.2633  0.6674
 4514SOL     OW15548   7.595   0.841  10.791  0.7960  0.2278  0.0391
 4514SOL    HW115549   7.688   0.822  10.798  0.2505 -2.0485  2.7876
 4514SOL    HW215550   7.584   0.924  10.839  1.4493  0.7951 -0.7724
 4515SOL     OW15551  10.703   7.083  10.595 -0.2923 -0.2943 -0.0304
 4515SOL    HW115552  10.725   7.065  10.686 -0.6878 -1.0635 -0.0770
 4515SOL    HW215553  10.698   6.997  10.554  0.3651  0.0661 -0.9011
 4516SOL     OW15554   9.157   6.851   8.673 -0.6343 -0.1002  0.2986
 4516SOL    HW115555   9.215   6.786   8.714 -0.7874 -1.1237 -1.0486
 4516SOL    HW215556   9.069   6.813   8.681 -0.3949 -2.1164 -3.9202
 4517SOL     OW15557   2.867  10.802   5.607  0.2285  0.3271  0.0526
 4517SOL    HW115558   2.839  10.755   5.686  0.1257 -1.9464 -1.2376
 4517SOL    HW215559   2.786  10.834   5.567  0.1994  0.6685  0.3833
 4518SOL     OW15560  10.419   2.476   4.933  0.0065 -0.8468  0.0953
 4518SOL    HW115561  10.408   2.425   4.853  0.4195 -1.2162  0.2660
 4518SOL    HW215562  10.435   2.565   4.902  0.7166 -1.0839 -0.2650
 4519SOL     OW15563   4.326  10.848   0.310 -0.0955 -0.2598 -0.8116
 4519SOL    HW115564   4.413  10.883   0.330  0.1419 -1.9421  1.6607
 4519SOL    HW215565   4.326  10.835   0.215  3.4538 -2.7595 -0.6715
 4520SOL     OW15566   1.056   1.175   4.858  0.3708 -0.1242  0.1589
 4520SOL    HW115567   1.038   1.219   4.775  1.7019  0.4855  0.1697
 4520SOL    HW215568   1.151   1.172   4.864  0.4064 -3.4004 -0.0427
 4521SOL     OW15569   9.364  10.527   2.667  0.2471  0.2924 -0.4757
 4521SOL    HW115570   9.270  10.524   2.650  0.3614  0.1027 -1.0958
 4521SOL    HW215571   9.397  10.443   2.634  0.9834  1.2694 -2.4328
 4522SOL     OW15572  11.175  11.283   5.072 -0.1443 -0.6181  0.6994
 4522SOL    HW115573  11.186  11.188   5.073 -1.2441 -0.8543 -1.6480
 4522SOL    HW215574  11.264  11.318   5.066  0.2158 -1.5803  0.2676
 4523SOL     OW15575   0.902   0.874   3.668 -0.3162 -0.6340  0.1438
 4523SOL    HW115576   0.911   0.828   3.584 -0.3127  1.2979 -0.9899
 4523SOL    HW215577   0.982   0.928   3.674 -0.7947  0.0112  0.8805
 4524SOL     OW15578   0.594   9.782   4.894  0.1306  0.7369  0.3340
 4524SOL    HW115579   0.534   9.828   4.953 -0.1543  1.1775 -0.2945
 4524SOL    HW215580   0.644   9.852   4.852 -0.6901  0.5269 -1.0434
 4525SOL     OW15581   3.407   7.056   8.058  0.4248  0.0998  0.0346
 4525SOL    HW115582   3.474   7.079   8.122  1.4679  0.7005 -1.2253
 4525SOL    HW215583   3.335   7.117   8.075  0.6463  0.1787  0.6901
 4526SOL     OW15584   9.103   0.283   5.360 -0.1282  0.1748  0.0257
 4526SOL    HW115585   9.169   0.240   5.306 -0.0401  0.4480 -0.0834
 4526SOL    HW215586   9.142   0.286   5.448 -0.5883 -0.9861  0.2957
 4527SOL     OW15587   2.426   0.208   0.845  0.1617 -0.0531  0.6894
 4527SOL    HW115588   2.409   0.123   0.884 -1.7140 -0.4117 -0.7566
 4527SOL    HW215589   2.452   0.189   0.755  1.2194  0.8662  0.7756
 4528SOL     OW15590  11.128   7.792   9.349 -0.6257 -0.9603 -0.1161
 4528SOL    HW115591  11.147   7.840   9.268  2.4328  0.8926  1.5176
 4528SOL    HW215592  11.095   7.859   9.409 -1.0890 -1.9206  0.7235
 4529SOL     OW15593   5.408  10.746   6.100 -1.2176  0.0871 -0.0077
 4529SOL    HW115594   5.419  10.837   6.073  2.2940 -0.8978 -2.5390
 4529SOL    HW215595   5.360  10.705   6.029  1.8446 -1.0160 -1.6093
 4530SOL     OW15596   5.914   5.106   3.974 -0.1202 -0.4611 -0.1925
 4530SOL    HW115597   5.887   5.095   4.065 -0.1491  0.2897 -0.1038
 4530SOL    HW215598   5.972   5.182   3.975 -0.6869 -0.0132 -0.9174
 4531SOL     OW15599  10.025   5.377   3.426  0.2098  0.7074 -0.0874
 4531SOL    HW115600  10.059   5.327   3.352  0.7814  1.2976 -0.2343
 4531SOL    HW215601  10.071   5.341   3.502 -1.4283 -0.8911  0.2101
 4532SOL     OW15602   0.754  10.651   5.386  0.1336 -0.2244  0.2000
 4532SOL    HW115603   0.675  10.686   5.426 -0.6910 -0.6196 -1.0048
 4532SOL    HW215604   0.826  10.698   5.428 -0.8806  2.6262 -1.0326
 4533SOL     OW15605   1.057   7.994   5.124  0.1595  0.3943 -0.5729
 4533SOL    HW115606   1.061   7.907   5.084  2.6892  0.9067 -1.6558
 4533SOL    HW215607   1.005   8.046   5.064 -1.3003 -0.2958  0.0402
 4534SOL     OW15608   8.700   4.809   2.289  0.6705  0.1129 -0.4421
 4534SOL    HW115609   8.641   4.838   2.220 -1.4334 -3.4660 -0.3814
 4534SOL    HW215610   8.702   4.713   2.280  3.0608 -0.2289  2.3384
 4535SOL     OW15611   1.287   8.051   2.331 -0.4797 -1.2601  0.7675
 4535SOL    HW115612   1.239   8.105   2.268  3.3679  1.3146 -0.2712
 4535SOL    HW215613   1.317   7.976   2.280  2.3265  0.6423 -0.6430
 4536SOL     OW15614   4.702  10.931   1.355  0.2338  0.3467  0.5442
 4536SOL    HW115615   4.632  10.993   1.376 -1.0535 -0.8291 -0.0987
 4536SOL    HW215616   4.723  10.947   1.263  0.9606  0.8068  0.7775
 4537SOL     OW15617   2.478   7.890   1.824 -0.6158  0.0890  0.3780
 4537SOL    HW115618   2.502   7.944   1.749  1.3161 -0.7504  0.3315
 4537SOL    HW215619   2.427   7.818   1.787 -1.4925  0.8138  0.1708
 4538SOL     OW15620   5.998   0.926   3.915 -0.7138 -0.3863  0.1035
 4538SOL    HW115621   5.908   0.897   3.934 -1.1005  1.2263  0.8891
 4538SOL    HW215622   5.987   1.002   3.859  0.2230 -0.8781 -0.7598
 4539SOL     OW15623  10.179   7.678   2.310 -0.3390 -0.1426 -0.3776
 4539SOL    HW115624  10.208   7.759   2.352 -1.9690  1.0608 -1.4240
 4539SOL    HW215625  10.259   7.627   2.298  0.8363  1.5619 -0.2206
 4540SOL     OW15626   0.749   8.614   7.008  0.0237 -0.0350  0.6019
 4540SOL    HW115627   0.806   8.577   6.941 -2.1831  1.4652 -2.2733
 4540SOL    HW215628   0.768   8.708   7.006 -2.7212  0.5645 -0.7257
 4541SOL     OW15629   2.784   6.590   3.528  0.4038 -0.8943  0.2619
 4541SOL    HW115630   2.733   6.511   3.515  1.8745 -1.7589 -0.5339
 4541SOL    HW215631   2.733   6.660   3.487  0.5402 -1.9811 -1.9000
 4542SOL     OW15632   2.205   3.566   6.731  0.2734  0.1095  0.5993
 4542SOL    HW115633   2.184   3.659   6.741  0.8897  0.2801  0.3397
 4542SOL    HW215634   2.139   3.521   6.784  1.1641  0.8051  2.3833
 4543SOL     OW15635   9.358   5.043   0.193 -0.7488  0.0400 -0.0686
 4543SOL    HW115636   9.352   5.116   0.254  0.0345 -0.0361  0.1067
 4543SOL    HW215637   9.447   5.047   0.159 -0.1488 -1.7810  1.1535
 4544SOL     OW15638  10.114   9.764   4.560  0.8654 -0.0837 -0.3035
 4544SOL    HW115639  10.110   9.826   4.487 -0.8896  0.3169  0.0792
 4544SOL    HW215640  10.087   9.681   4.522  0.6463 -0.0263 -0.2787
 4545SOL     OW15641   0.621   0.845   9.819  0.0094  0.7255 -0.1968
 4545SOL    HW115642   0.604   0.755   9.848  0.4211 -0.1214 -2.4145
 4545SOL    HW215643   0.534   0.882   9.803 -0.1565  0.6903  0.5847
 4546SOL     OW15644   1.740   1.886  11.183 -0.1495  0.7236 -0.1297
 4546SOL    HW115645   1.664   1.840  11.219  1.2668 -1.9075 -0.2387
 4546SOL    HW215646   1.791   1.911  11.260  0.2575 -0.1068 -0.1177
 4547SOL     OW15647  10.683   3.891  10.471  0.6986 -0.2275  0.2858
 4547SOL    HW115648  10.734   3.894  10.390  1.1538 -3.0652  0.3531
 4547SOL    HW215649  10.600   3.933  10.449  1.6003  0.9847 -0.9809
 4548SOL     OW15650   1.198   1.469  10.038 -0.1918  0.2429 -0.0793
 4548SOL    HW115651   1.243   1.396   9.995  2.4806  2.2151 -0.8867
 4548SOL    HW215652   1.186   1.439  10.128  0.6989 -1.2566 -0.4229
 4549SOL     OW15653   7.490   7.217   8.510  0.1015  0.0164 -0.1929
 4549SOL    HW115654   7.514   7.302   8.546  0.3995 -0.6707  1.2880
 4549SOL    HW215655   7.546   7.207   8.432  1.8623  0.1273  1.0024
 4550SOL     OW15656   3.422   9.915   3.578  0.3704  0.3229 -0.2189
 4550SOL    HW115657   3.436   9.915   3.673  0.6951  0.4547 -0.2651
 4550SOL    HW215658   3.376   9.833   3.561  2.1089 -0.7108 -0.2061
 4551SOL     OW15659   9.926  10.262   3.524  0.4918 -0.3225 -0.0789
 4551SOL    HW115660   9.889  10.330   3.467 -0.9172 -1.7140 -0.8729
 4551SOL    HW215661   9.863  10.252   3.595  1.8543  0.8315  1.3886
 4552SOL     OW15662   9.397   5.220   9.056 -0.0570  0.1122 -0.5552
 4552SOL    HW115663   9.423   5.155   8.991 -0.1375 -0.7220  0.2229
 4552SOL    HW215664   9.347   5.285   9.007 -0.9543 -1.0107 -1.1709
 4553SOL     OW15665   9.527   5.854   0.981 -0.2550 -0.1421 -0.0061
 4553SOL    HW115666   9.488   5.796   0.916 -0.2091 -0.6821  0.4439
 4553SOL    HW215667   9.621   5.836   0.975  0.0586  1.7485 -1.6740
 4554SOL     OW15668   8.342   8.891   8.665 -0.0143  0.1018  0.3599
 4554SOL    HW115669   8.424   8.851   8.695 -0.2933 -0.1709  0.7730
 4554SOL    HW215670   8.302   8.824   8.610  0.6855  0.7494 -0.9775
 4555SOL     OW15671   6.803   3.251   1.822 -0.1507  0.1968 -0.2453
 4555SOL    HW115672   6.852   3.307   1.881 -1.7822  0.6506  0.7467
 4555SOL    HW215673   6.745   3.311   1.774  1.8545  0.0043 -3.1983
 4556SOL     OW15674   3.478   8.748   0.834  0.1275  0.6114 -0.0101
 4556SOL    HW115675   3.548   8.810   0.814 -0.6483  1.1559 -1.1253
 4556SOL    HW215676   3.510   8.664   0.802  0.8566  0.5674  0.7945
 4557SOL     OW15677   8.759   1.185   6.032 -0.1951  0.5853  0.4641
 4557SOL    HW115678   8.836   1.238   6.050 -0.8610  2.5502 -1.9037
 4557SOL    HW215679   8.697   1.209   6.101  0.6417  0.4080  1.2955
 4558SOL     OW15680   7.765   8.666   0.205  0.2291  0.0582 -0.0849
 4558SOL    HW115681   7.838   8.636   0.259 -1.3200 -3.3383  0.3820
 4558SOL    HW215682   7.780   8.625   0.120  0.0460  1.2459 -0.7026
 4559SOL     OW15683   0.802  10.122   8.830  0.7738 -0.7369 -0.2113
 4559SOL    HW115684   0.744  10.054   8.863  1.5219 -0.7500  1.1561
 4559SOL    HW215685   0.874  10.125   8.894 -0.0513  2.4558  0.7697
 4560SOL     OW15686   5.874   3.428   7.610 -0.1807  0.5886  0.2882
 4560SOL    HW115687   5.903   3.412   7.700 -0.2405 -0.2799  0.1648
 4560SOL    HW215688   5.800   3.368   7.598 -0.1285  0.6512 -0.3630
 4561SOL     OW15689   0.138   8.015   9.303  0.4137  0.3882  0.3974
 4561SOL    HW115690   0.122   8.091   9.358  0.6463 -1.8317  3.8396
 4561SOL    HW215691   0.052   7.993   9.267 -0.2804  0.5318  1.8995
 4562SOL     OW15692   1.814   1.697  10.360 -0.4686 -0.4972 -0.3109
 4562SOL    HW115693   1.880   1.641  10.401  0.6192  0.0431 -1.2876
 4562SOL    HW215694   1.840   1.703  10.268 -0.8051  1.2407 -0.3309
 4563SOL     OW15695   0.834   4.228   8.887 -0.6187 -0.1535 -0.0708
 4563SOL    HW115696   0.800   4.312   8.920  0.2290 -0.2197  1.0349
 4563SOL    HW215697   0.859   4.246   8.797 -1.2105  0.5649 -0.0991
 4564SOL     OW15698   6.337   8.042   1.662  0.1125  0.8593 -0.8783
 4564SOL    HW115699   6.365   8.121   1.709  0.1940 -1.3032  3.1652
 4564SOL    HW215700   6.259   8.013   1.709 -0.9274 -0.6331 -3.3461
 4565SOL     OW15701   7.255   3.068   5.899  0.2932 -0.2823  1.1035
 4565SOL    HW115702   7.317   3.069   5.826  0.8172  1.6503  1.5158
 4565SOL    HW215703   7.310   3.064   5.977  0.0076  2.1509  1.4965
 4566SOL     OW15704   2.921   0.350   0.956  0.8710 -0.1075 -0.0593
 4566SOL    HW115705   2.969   0.317   1.032  2.3668  0.2744 -0.8164
 4566SOL    HW215706   2.952   0.298   0.882  1.3288  1.2006 -0.8247
 4567SOL     OW15707   5.654   7.357   0.744  0.2603 -0.1148 -0.3471
 4567SOL    HW115708   5.643   7.441   0.788  1.5631  0.2013 -0.5858
 4567SOL    HW215709   5.743   7.329   0.768  0.6834 -0.3419 -2.0374
 4568SOL     OW15710   7.136   2.196   3.067  0.2268  0.8734  0.1851
 4568SOL    HW115711   7.042   2.199   3.086  0.2707  0.2941  0.5281
 4568SOL    HW215712   7.158   2.285   3.037 -0.2955  1.2019  0.7527
 4569SOL     OW15713   6.104   0.361  10.507  0.2864  0.2809 -0.5770
 4569SOL    HW115714   6.169   0.425  10.535  0.0941  0.4983 -0.6234
 4569SOL    HW215715   6.141   0.276  10.532  1.5713  0.2228 -2.4645
 4570SOL     OW15716   4.278  10.894   3.045 -0.1421 -0.1714  0.2934
 4570SOL    HW115717   4.304  10.965   2.985  1.2427  0.1316  1.2189
 4570SOL    HW215718   4.218  10.936   3.107 -2.1995 -0.6524 -1.2598
 4571SOL     OW15719   7.668   4.941   0.441  0.5434  0.7561 -0.0490
 4571SOL    HW115720   7.660   4.861   0.493  2.8897 -0.3636 -1.2749
 4571SOL    HW215721   7.718   5.001   0.496 -0.2927  1.0092  0.4509
 4572SOL     OW15722  11.033   3.029   0.848 -0.5913 -0.2801 -0.1906
 4572SOL    HW115723  10.945   3.045   0.814 -0.7494 -0.4111  0.1633
 4572SOL    HW215724  11.050   2.937   0.830 -0.5814 -0.2910 -0.1242
 4573SOL     OW15725   5.454   8.620   5.948 -0.7183  0.1676 -0.2008
 4573SOL    HW115726   5.481   8.530   5.935 -0.7460  0.3421 -1.7522
 4573SOL    HW215727   5.525   8.672   5.911 -0.2990  0.8307  1.4609
 4574SOL     OW15728   1.463   6.487   2.030  0.7044 -0.1981  0.0163
 4574SOL    HW115729   1.417   6.452   2.106  2.1804 -0.4513  0.8289
 4574SOL    HW215730   1.421   6.572   2.014  2.6709  1.6868  3.5094
 4575SOL     OW15731   0.749   6.409   0.243 -0.5329  0.0646  0.6140
 4575SOL    HW115732   0.808   6.381   0.172 -2.5581 -3.0792  0.0024
 4575SOL    HW215733   0.796   6.481   0.285  3.1884 -1.4140 -0.5622
 4576SOL     OW15734   2.565   7.779   0.960 -0.3456  0.0293  0.4797
 4576SOL    HW115735   2.620   7.817   1.029 -1.2847  3.1882 -0.3392
 4576SOL    HW215736   2.609   7.803   0.879 -0.4975 -1.5920 -0.1256
 4577SOL     OW15737   7.390   3.059   5.649  0.0797  0.2195 -0.0247
 4577SOL    HW115738   7.484   3.061   5.669  0.1384 -0.9051 -0.1177
 4577SOL    HW215739   7.368   3.150   5.630  1.5311  0.2601 -1.7803
 4578SOL     OW15740   9.153  10.135   3.181 -0.6545  0.4951 -0.1398
 4578SOL    HW115741   9.058  10.131   3.174 -0.4735 -1.1678 -2.4847
 4578SOL    HW215742   9.173  10.090   3.263 -1.9122  2.2685  1.2194
 4579SOL     OW15743   0.821   7.243   8.478  0.2541  0.1026 -0.5817
 4579SOL    HW115744   0.817   7.336   8.455  0.1140  1.8266  4.9482
 4579SOL    HW215745   0.730   7.218   8.492  0.4263  0.1462  0.8038
 4580SOL     OW15746   8.990   3.230   0.423 -0.0842 -0.3723 -0.0461
 4580SOL    HW115747   8.990   3.202   0.514  1.5057 -1.2738 -0.2944
 4580SOL    HW215748   8.922   3.298   0.419 -0.5285 -0.6677  1.6751
 4581SOL     OW15749   4.362   0.909   2.191 -0.4082 -0.6636 -0.9291
 4581SOL    HW115750   4.302   0.977   2.221  2.1819  1.2105  0.4540
 4581SOL    HW215751   4.412   0.951   2.121  0.8637 -1.2672 -0.4218
 4582SOL     OW15752   5.499   6.392   8.738  0.6796  0.1673  0.1275
 4582SOL    HW115753   5.470   6.445   8.813  4.8371  1.3291  1.1890
 4582SOL    HW215754   5.504   6.454   8.666 -1.3401 -0.5091 -0.6584
 4583SOL     OW15755   0.345   8.767  10.004  0.1440 -0.7689 -0.2641
 4583SOL    HW115756   0.273   8.705   9.994 -2.6333  1.9422  1.3599
 4583SOL    HW215757   0.353   8.779  10.099 -0.2304  2.1397 -0.5287
 4584SOL     OW15758   0.205   8.790   5.804  0.2124  0.0332  0.0276
 4584SOL    HW115759   0.148   8.796   5.728  0.5492  0.7721 -0.1798
 4584SOL    HW215760   0.163   8.726   5.861 -0.9352  0.7065 -0.0268
 4585SOL     OW15761   8.613   1.646   7.049  0.1415  0.5570  0.2422
 4585SOL    HW115762   8.634   1.696   6.971 -0.2250 -0.3917 -0.4784
 4585SOL    HW215763   8.549   1.700   7.095  0.4016  1.1455 -0.0798
 4586SOL     OW15764   7.439   9.105   7.730  0.5920 -0.9280 -0.0842
 4586SOL    HW115765   7.469   9.109   7.821  1.2579 -0.7932 -0.3003
 4586SOL    HW215766   7.415   9.013   7.717 -1.9637 -0.5121  0.9638
 4587SOL     OW15767   7.283   2.839   7.833  0.3173  0.4568  0.3295
 4587SOL    HW115768   7.215   2.816   7.769  0.0820  1.6543  0.1365
 4587SOL    HW215769   7.363   2.800   7.798 -0.1312 -0.3647  0.1949
 4588SOL     OW15770   3.422   6.546   9.972 -0.7864 -0.3196  0.2948
 4588SOL    HW115771   3.341   6.510  10.009  0.2359 -0.5356  2.4613
 4588SOL    HW215772   3.475   6.469   9.951 -0.9358 -0.1688 -0.6601
 4589SOL     OW15773   8.298   1.173   6.818  0.0655  0.4008 -0.2905
 4589SOL    HW115774   8.382   1.217   6.834  0.3917 -0.4253  0.3588
 4589SOL    HW215775   8.236   1.218   6.875  0.8464 -1.3279  2.1104
 4590SOL     OW15776   8.259  10.379   7.089 -0.0642 -0.0064  0.2065
 4590SOL    HW115777   8.263  10.392   7.183 -1.9199  1.3332  0.1599
 4590SOL    HW215778   8.283  10.463   7.051  1.2152 -0.6905 -0.5530
 4591SOL     OW15779   6.064   9.026   3.566  0.3319 -1.3523  0.2276
 4591SOL    HW115780   6.023   9.084   3.502  0.4763 -2.1733 -0.6390
 4591SOL    HW215781   6.147   9.069   3.588  1.1363 -1.9027 -1.5364
 4592SOL     OW15782   3.010   0.118   5.470 -0.0672 -0.3076  0.3095
 4592SOL    HW115783   3.029   0.201   5.426 -0.0114  0.1643  1.1958
 4592SOL    HW215784   3.092   0.069   5.464  0.1068 -0.0278  0.3483
 4593SOL     OW15785   2.051   0.233   0.231  0.0835  0.5147  0.6964
 4593SOL    HW115786   2.146   0.228   0.225  0.2991  1.5222  2.5741
 4593SOL    HW215787   2.033   0.326   0.247 -1.3284  0.5518 -0.7779
 4594SOL     OW15788   3.665  10.728   2.861 -0.2759 -0.5565 -0.2691
 4594SOL    HW115789   3.629  10.648   2.898  1.5019 -0.8050  1.0624
 4594SOL    HW215790   3.595  10.793   2.872 -0.1404 -0.7645  3.1242
 4595SOL     OW15791  11.060   7.517   7.018 -0.5079 -0.3292 -0.1929
 4595SOL    HW115792  11.129   7.494   7.080  0.9934  0.8149 -1.3554
 4595SOL    HW215793  11.039   7.435   6.973  0.4542 -0.6068 -0.1457
 4596SOL     OW15794  10.631   5.975   8.127 -0.0212 -0.4529 -0.3547
 4596SOL    HW115795  10.548   5.933   8.150 -0.0799 -0.1935 -0.0746
 4596SOL    HW215796  10.695   5.904   8.127  0.7277 -0.0866  4.2222
 4597SOL     OW15797   6.995   4.660   6.998  0.4303 -0.6344 -0.4644
 4597SOL    HW115798   6.968   4.703   7.079  2.6999  0.8428 -0.3810
 4597SOL    HW215799   6.925   4.680   6.935  0.1182  0.8971  0.3190
 4598SOL     OW15800   3.523   2.559  10.990 -0.0031  0.5102  0.3455
 4598SOL    HW115801   3.554   2.548  11.080 -0.6397  0.7440  0.6001
 4598SOL    HW215802   3.438   2.516  10.988  0.3474 -0.1695 -0.3579
 4599SOL     OW15803   9.659  11.134   7.838  0.5910 -0.3590  0.7992
 4599SOL    HW115804   9.670  11.088   7.755 -1.0401 -0.8243  0.8072
 4599SOL    HW215805   9.742  11.181   7.851  1.3568 -1.3174 -0.4316
 4600SOL     OW15806   1.747   8.439   6.338  0.1668 -0.1337 -0.0950
 4600SOL    HW115807   1.671   8.385   6.315 -1.0173  1.3077  0.2317
 4600SOL    HW215808   1.819   8.378   6.345 -1.0817 -1.6444  0.0882
 4601SOL     OW15809   1.638   3.434   4.901 -0.1053 -0.0343 -0.1032
 4601SOL    HW115810   1.630   3.473   4.814 -0.2173 -1.5142 -0.7893
 4601SOL    HW215811   1.729   3.451   4.926 -0.5632  2.0619  0.3676
 4602SOL     OW15812   0.181   0.588   3.684  0.1035 -0.2497 -0.0393
 4602SOL    HW115813   0.263   0.634   3.666 -0.1911  0.8129  1.2352
 4602SOL    HW215814   0.207   0.511   3.734  0.5339 -1.1917 -1.6500
 4603SOL     OW15815   5.773   6.409   8.568 -0.1386 -0.3222  0.7207
 4603SOL    HW115816   5.792   6.433   8.659 -0.5835  1.5275  0.3779
 4603SOL    HW215817   5.836   6.460   8.517 -1.7147  0.8915 -0.1024
 4604SOL     OW15818   1.577   2.546   4.236 -0.8738  0.0180 -0.0624
 4604SOL    HW115819   1.610   2.615   4.178  2.2181  0.1429  1.6525
 4604SOL    HW215820   1.499   2.583   4.276 -0.0827  2.0026 -0.2570
 4605SOL     OW15821   4.165   3.783   4.515 -0.5461  0.0818  0.3249
 4605SOL    HW115822   4.142   3.862   4.466 -1.9064  0.2552  1.2003
 4605SOL    HW215823   4.250   3.757   4.479  0.2540  2.2800  0.4264
 4606SOL     OW15824   6.417  10.816   3.429 -0.6910 -0.1611  0.5707
 4606SOL    HW115825   6.405  10.869   3.507  0.2140  1.0009 -0.0430
 4606SOL    HW215826   6.338  10.763   3.423 -0.9708  0.0726  2.0060
 4607SOL     OW15827   7.515   5.570   4.295  0.3320 -0.4391 -0.3761
 4607SOL    HW115828   7.485   5.560   4.204 -1.8855 -0.8878  0.3464
 4607SOL    HW215829   7.607   5.544   4.292 -0.3368 -3.1071 -2.0469
 4608SOL     OW15830  10.724  10.244   5.236 -0.1108  0.1220 -0.3880
 4608SOL    HW115831  10.798  10.270   5.291 -0.1742 -1.5941  0.5670
 4608SOL    HW215832  10.647  10.258   5.291 -0.1592 -1.8176  0.1229
 4609SOL     OW15833   0.709   3.712   1.686  0.4753 -0.5212 -0.3057
 4609SOL    HW115834   0.623   3.694   1.647  0.9247  0.8554 -2.1170
 4609SOL    HW215835   0.716   3.651   1.759 -0.4074 -3.4448 -2.4854
 4610SOL     OW15836   5.088   1.453   4.263 -0.2590 -0.9185  0.1771
 4610SOL    HW115837   5.158   1.458   4.197 -0.3407 -0.6229  0.1109
 4610SOL    HW215838   5.134   1.458   4.347 -0.3342  1.4609  0.1320
 4611SOL     OW15839   0.477   0.739   1.024 -0.6437 -0.3905  0.0510
 4611SOL    HW115840   0.460   0.663   1.079 -2.0492 -1.8335 -2.2131
 4611SOL    HW215841   0.572   0.738   1.011 -0.4375 -0.7249  1.4047
 4612SOL     OW15842   6.967   0.063   2.750 -0.4561 -0.2114  0.5812
 4612SOL    HW115843   7.000   0.152   2.758  0.0790 -0.1753 -1.4182
 4612SOL    HW215844   6.920   0.063   2.666 -1.4834 -1.5102  1.1232
 4613SOL     OW15845   3.245  10.501   6.688 -0.3772  0.5182  0.2897
 4613SOL    HW115846   3.278  10.438   6.752 -2.2544 -2.0946 -1.1460
 4613SOL    HW215847   3.234  10.450   6.608 -0.0624  3.1930 -1.5690
 4614SOL     OW15848   7.619   7.620   1.692  0.0818 -0.1061 -0.2415
 4614SOL    HW115849   7.601   7.713   1.681 -0.6864 -0.1187  0.7495
 4614SOL    HW215850   7.555   7.576   1.636  1.8525 -0.0419 -2.4505
 4615SOL     OW15851   9.705   2.646   3.701 -0.4646  0.0158 -0.4409
 4615SOL    HW115852   9.800   2.652   3.687 -0.0901  2.5562  2.2546
 4615SOL    HW215853   9.675   2.737   3.702 -2.7103 -0.6723 -0.0075
 4616SOL     OW15854   5.352  10.076  10.603  0.1766 -0.3284 -0.3276
 4616SOL    HW115855   5.263  10.048  10.581  0.9877 -0.7406 -3.4220
 4616SOL    HW215856   5.339  10.137  10.677 -2.5120 -1.3132  0.1497
 4617SOL     OW15857   6.375   9.132   3.318 -0.1326  0.0624  0.1274
 4617SOL    HW115858   6.392   9.043   3.349 -0.7572 -0.3748 -0.7223
 4617SOL    HW215859   6.348   9.181   3.396 -1.2591 -0.8948  0.3735
 4618SOL     OW15860   7.038   1.365   7.460 -0.7028  0.1548  0.5618
 4618SOL    HW115861   7.002   1.454   7.455 -1.0770 -0.0715 -1.2378
 4618SOL    HW215862   6.981   1.313   7.403  1.0471 -0.6949 -0.4843
 4619SOL     OW15863   0.592   0.083   4.452  0.3004  0.2646 -0.2764
 4619SOL    HW115864   0.575  -0.010   4.438  1.4974  0.0863 -0.6921
 4619SOL    HW215865   0.583   0.122   4.365 -1.1356  0.7119  0.0584
 4620SOL     OW15866   5.880   5.826   1.324 -0.3538  0.1333 -0.5077
 4620SOL    HW115867   5.852   5.855   1.411  0.8770 -1.1441  0.3656
 4620SOL    HW215868   5.962   5.872   1.308  0.7524 -1.4778  0.1768
 4621SOL     OW15869   9.799   7.853  11.153 -0.0951 -0.8920 -0.0601
 4621SOL    HW115870   9.832   7.913  11.220 -0.3273  0.2157 -0.9046
 4621SOL    HW215871   9.738   7.796  11.201 -0.2830 -0.1060  0.6796
 4622SOL     OW15872   8.997   9.036   3.155  0.4722 -0.6487 -0.4910
 4622SOL    HW115873   8.917   9.034   3.208 -0.9545 -1.2119 -2.5523
 4622SOL    HW215874   8.988   9.114   3.101  1.6352 -0.4026 -0.3542
 4623SOL     OW15875   7.267   0.047   1.802  0.2847  0.2974  0.4360
 4623SOL    HW115876   7.305  -0.029   1.846 -1.7719 -0.4584  1.0152
 4623SOL    HW215877   7.341   0.107   1.791  1.6807 -1.1661  1.2519
 4624SOL     OW15878  10.246  10.690   9.768  0.1389  0.4686  0.3340
 4624SOL    HW115879  10.209  10.778   9.770  1.1201  0.9028  0.2515
 4624SOL    HW215880  10.282  10.681   9.680  1.2583  0.5298  0.7556
 4625SOL     OW15881   5.588  10.892   8.023  0.1023 -0.2939 -0.3902
 4625SOL    HW115882   5.516  10.836   8.051  0.0120  0.8727  1.8975
 4625SOL    HW215883   5.658  10.874   8.085  0.6038  0.9738 -0.5649
 4626SOL     OW15884   0.379   5.086   8.884 -0.0492  0.4335  0.2995
 4626SOL    HW115885   0.369   4.991   8.881 -0.9653  0.4742  1.3299
 4626SOL    HW215886   0.470   5.101   8.861  0.2512 -0.7341  0.6358
 4627SOL     OW15887   7.667   1.437   2.063  0.1208  0.1514  0.2555
 4627SOL    HW115888   7.710   1.516   2.030 -1.6918  1.4536  0.8595
 4627SOL    HW215889   7.684   1.371   1.996  2.6449  0.6636  0.2600
 4628SOL     OW15890   2.484   2.713   3.092 -0.2913  0.5046 -1.7322
 4628SOL    HW115891   2.568   2.710   3.047 -0.0709 -2.0422 -1.2980
 4628SOL    HW215892   2.506   2.712   3.185 -0.7767 -1.2438 -1.6147
 4629SOL     OW15893   2.974   0.557   5.781 -0.2111 -1.3302 -0.0416
 4629SOL    HW115894   2.952   0.464   5.783 -1.2504 -1.1290 -1.4146
 4629SOL    HW215895   2.962   0.586   5.872  3.5090 -3.2212  1.3021
 4630SOL     OW15896  10.161   6.580   4.010 -0.2063  0.4064 -0.1993
 4630SOL    HW115897  10.157   6.484   4.013  1.6273  0.3032  1.7889
 4630SOL    HW215898  10.076   6.607   3.977 -1.1088 -1.8994  0.0839
 4631SOL     OW15899   7.138  10.590   6.829  0.4531 -0.4266 -0.3054
 4631SOL    HW115900   7.136  10.516   6.768 -1.0041  0.3524 -1.2372
 4631SOL    HW215901   7.159  10.666   6.775  1.8826 -0.1015  0.6375
 4632SOL     OW15902   5.877  10.358   5.871 -0.1238  0.0749 -0.9004
 4632SOL    HW115903   5.880  10.263   5.870  1.1830  0.1024 -0.9474
 4632SOL    HW215904   5.965  10.385   5.844 -1.2877  1.3027 -4.0124
 4633SOL     OW15905   2.154   2.264   1.465  0.3168  0.8942  0.6082
 4633SOL    HW115906   2.174   2.171   1.453  0.2620  1.0007 -0.3908
 4633SOL    HW215907   2.239   2.307   1.456  0.3164  0.9574  0.9014
 4634SOL     OW15908   0.765   0.841   0.082  0.7766  0.3500  0.6516
 4634SOL    HW115909   0.681   0.879   0.057 -0.6994 -1.7560  2.0729
 4634SOL    HW215910   0.800   0.902   0.146 -0.0582  0.8555  0.6493
 4635SOL     OW15911  11.282   4.300   7.121  0.4868 -0.3382  0.0587
 4635SOL    HW115912  11.223   4.225   7.114 -0.6391  0.5871 -0.6722
 4635SOL    HW215913  11.366   4.267   7.087  1.2005 -2.4127  3.4267
 4636SOL     OW15914  10.494   2.273   2.705  0.1063 -0.6524 -0.1219
 4636SOL    HW115915  10.417   2.229   2.741  0.1819 -0.2743  0.5134
 4636SOL    HW215916  10.463   2.361   2.683  0.9773  0.4694  2.7320
 4637SOL     OW15917   0.751   6.578   7.011  0.1700 -0.3330 -0.4980
 4637SOL    HW115918   0.769   6.668   6.985  0.2407 -0.1598  0.1343
 4637SOL    HW215919   0.813   6.560   7.081 -1.0040 -0.2785  0.5812
 4638SOL     OW15920   0.150   2.130   8.965 -0.7993  0.0408 -0.3485
 4638SOL    HW115921   0.133   2.217   8.931 -2.9610 -0.0988  0.2587
 4638SOL    HW215922   0.064   2.094   8.984  0.1062 -1.7356  0.6539
 4639SOL     OW15923   4.737   9.026   3.501 -0.1670 -0.0603  0.7742
 4639SOL    HW115924   4.650   9.030   3.541  0.1564  1.3853  1.4102
 4639SOL    HW215925   4.745   9.108   3.452  0.8996 -0.0950  0.8603
 4640SOL     OW15926  10.094   7.119   9.709  0.7412  0.5270 -0.0370
 4640SOL    HW115927  10.171   7.144   9.658  2.3684 -1.7739  1.1285
 4640SOL    HW215928  10.080   7.193   9.768  0.2683  2.1864 -2.1118
 4641SOL     OW15929   4.219   5.124   8.199 -0.2134  0.0541  0.7755
 4641SOL    HW115930   4.171   5.204   8.220  2.9778  2.4229 -0.1846
 4641SOL    HW215931   4.205   5.112   8.105  0.2056  0.1541  0.6986
 4642SOL     OW15932  10.407   4.008   8.382 -0.4866  0.0213 -0.4851
 4642SOL    HW115933  10.318   4.022   8.416 -0.1319  1.1129  0.0502
 4642SOL    HW215934  10.402   4.034   8.290 -1.1990 -1.9313 -1.0412
 4643SOL     OW15935   2.063   3.234   7.616  0.0222 -1.2344  0.0041
 4643SOL    HW115936   2.150   3.206   7.647  0.4793 -2.7394 -2.3497
 4643SOL    HW215937   2.002   3.184   7.670  0.4398  0.7564  2.5629
 4644SOL     OW15938   7.371   3.550   8.670  0.2349 -0.1383  0.2704
 4644SOL    HW115939   7.282   3.579   8.649 -0.9024 -0.5944  3.8849
 4644SOL    HW215940   7.399   3.501   8.592 -2.0985  1.1385 -1.4980
 4645SOL     OW15941   6.812   5.853  10.215  0.4236  0.5423  0.7124
 4645SOL    HW115942   6.875   5.787  10.187  0.5902  1.6939 -1.9376
 4645SOL    HW215943   6.829   5.864  10.309  3.1362 -0.2682  0.4129
 4646SOL     OW15944   7.002  10.113   2.421 -0.0209  0.2463 -0.0725
 4646SOL    HW115945   6.969  10.181   2.481 -3.2912  0.3981 -1.8031
 4646SOL    HW215946   6.969  10.031   2.458  1.1961 -0.0899  0.3019
 4647SOL     OW15947   1.055   5.154   3.977  0.0281 -0.2543  0.1901
 4647SOL    HW115948   1.127   5.161   4.038 -0.3329  0.0554  0.5877
 4647SOL    HW215949   0.980   5.192   4.023 -0.1740  0.2775 -0.5553
 4648SOL     OW15950   8.065   4.412   9.351 -0.1812  0.2704  0.2958
 4648SOL    HW115951   8.018   4.330   9.366  0.3796 -0.0573  0.2889
 4648SOL    HW215952   8.001   4.481   9.373 -1.1727 -0.1336 -1.1958
 4649SOL     OW15953   7.577   8.514   4.041  0.3961 -0.2888 -0.0233
 4649SOL    HW115954   7.495   8.504   3.993  1.3280  1.4259 -2.1527
 4649SOL    HW215955   7.550   8.552   4.125 -0.9798  0.7093 -0.8587
 4650SOL     OW15956   0.467   2.161   7.666  0.3069  0.2279  0.0356
 4650SOL    HW115957   0.546   2.142   7.615 -1.2368 -0.9886 -2.0415
 4650SOL    HW215958   0.405   2.195   7.602 -1.7091 -1.2580  1.0948
 4651SOL     OW15959   3.122   4.062   9.837  0.0302 -0.1821  0.3234
 4651SOL    HW115960   3.083   3.975   9.828  1.0299 -0.4583 -2.0225
 4651SOL    HW215961   3.050   4.122   9.816  0.1712 -0.6044 -1.5483
 4652SOL     OW15962   1.019  10.580   2.477 -0.0752 -0.2423 -0.0986
 4652SOL    HW115963   0.967  10.500   2.466  0.9389 -1.0136  0.5037
 4652SOL    HW215964   0.966  10.649   2.436 -1.7385 -0.9147  0.7910
 4653SOL     OW15965   1.318   7.151   2.025  0.3351 -0.3759  0.5539
 4653SOL    HW115966   1.350   7.068   1.991 -1.7469 -2.3306  2.9597
 4653SOL    HW215967   1.237   7.168   1.976  1.4227  1.0625 -0.8765
 4654SOL     OW15968   7.463   8.851   8.952  0.1490  0.4799 -0.2600
 4654SOL    HW115969   7.408   8.773   8.944 -1.4034  1.4512  0.6642
 4654SOL    HW215970   7.523   8.845   8.877 -0.4773 -1.1487 -0.6804
 4655SOL     OW15971   7.543   4.141   0.144  0.2344 -0.1634  0.1255
 4655SOL    HW115972   7.582   4.168   0.061 -0.9149 -0.7534 -0.6387
 4655SOL    HW215973   7.618   4.114   0.198  1.0907  1.2496 -0.3050
 4656SOL     OW15974  10.975   6.954   2.967  0.0847  0.4227 -0.4053
 4656SOL    HW115975  11.060   6.972   3.006  0.1126 -0.4299 -0.0722
 4656SOL    HW215976  10.975   6.861   2.948 -0.4240  0.5815 -1.2689
 4657SOL     OW15977  11.247   7.290  11.018 -0.1305 -0.4818 -0.3802
 4657SOL    HW115978  11.207   7.377  11.021  0.0666 -0.4066  0.4157
 4657SOL    HW215979  11.306   7.289  11.093 -0.7935 -1.6205  0.1601
 4658SOL     OW15980   1.027   3.509   1.448  0.3000 -0.3354  0.2393
 4658SOL    HW115981   0.950   3.564   1.450  1.7527  1.7970  0.8597
 4658SOL    HW215982   1.085   3.546   1.515  2.2440 -1.2813 -0.8275
 4659SOL     OW15983   0.085   5.431  10.806  0.2867  0.4576  0.0328
 4659SOL    HW115984   0.044   5.474  10.731  0.1871 -0.5404 -0.4983
 4659SOL    HW215985   0.161   5.386  10.770  0.3881  0.1897  0.5762
 4660SOL     OW15986   6.193   8.630  10.556  0.1385 -0.7158  0.2570
 4660SOL    HW115987   6.274   8.680  10.544 -1.1583  1.4200  0.0060
 4660SOL    HW215988   6.189   8.573  10.479  1.7327 -1.3838  0.6249
 4661SOL     OW15989   3.833   8.534   6.207  0.2097  0.2462 -0.3910
 4661SOL    HW115990   3.842   8.557   6.300 -0.6013 -0.7742 -0.0428
 4661SOL    HW215991   3.774   8.458   6.207 -0.7804  0.9712 -1.8216
 4662SOL     OW15992   0.923   4.677   0.100  0.3035  0.0467 -0.0213
 4662SOL    HW115993   0.931   4.634   0.185 -0.8137  1.8195  1.0316
 4662SOL    HW215994   0.885   4.610   0.042  0.1044 -0.8578  1.1324
 4663SOL     OW15995   6.292   0.763   4.547 -0.0794  0.2648 -0.0707
 4663SOL    HW115996   6.238   0.813   4.486 -0.1680  0.7895  0.4272
 4663SOL    HW215997   6.241   0.760   4.627  0.4345  0.3767  0.2639
 4664SOL     OW15998   7.612   5.631   0.767  0.0447 -0.1146  0.1783
 4664SOL    HW115999   7.528   5.676   0.762 -0.0656 -0.3382 -0.0232
 4664SOL    HW216000   7.638   5.639   0.859  0.0109  0.3245  0.1491
 4665SOL     OW16001   4.060   4.557   3.772  0.3463  0.6504 -0.0880
 4665SOL    HW116002   4.049   4.469   3.808  1.7651  0.4641 -0.0601
 4665SOL    HW216003   3.973   4.580   3.740  0.0737 -1.0109 -0.6586
 4666SOL     OW16004   0.782   3.788  10.636 -0.4810  0.0599  0.0327
 4666SOL    HW116005   0.706   3.792  10.695  0.6120  1.0236  1.4560
 4666SOL    HW216006   0.834   3.865  10.659  0.6629 -0.2822 -1.2782
 4667SOL     OW16007   4.082   4.545   9.757  0.0930  0.1576  0.1848
 4667SOL    HW116008   4.120   4.462   9.728 -2.0482  0.3372 -4.0170
 4667SOL    HW216009   3.994   4.522   9.786 -0.4379  0.8627 -0.7972
 4668SOL     OW16010   3.865   2.287   2.528  0.3303 -0.0943  0.6372
 4668SOL    HW116011   3.929   2.216   2.518 -0.2055 -0.6949  1.3777
 4668SOL    HW216012   3.832   2.278   2.617 -0.2252  0.6869  0.5238
 4669SOL     OW16013   8.709   7.645  10.051 -0.4268 -0.3657  0.3133
 4669SOL    HW116014   8.710   7.550  10.063  1.5193 -0.4916 -0.3948
 4669SOL    HW216015   8.712   7.681  10.139 -1.3378 -0.9564  0.5903
 4670SOL     OW16016   7.478   7.059  10.700 -0.3392  0.5409 -0.5910
 4670SOL    HW116017   7.493   7.087  10.790  3.0289  0.1437 -0.8926
 4670SOL    HW216018   7.453   7.139  10.654  2.7627  1.8952 -0.1739
 4671SOL     OW16019   8.416   4.930   8.670  0.7765 -0.4344  0.0011
 4671SOL    HW116020   8.396   4.836   8.677  0.8587 -0.7471 -2.9699
 4671SOL    HW216021   8.342   4.973   8.713  0.4006 -1.8094  0.8170
 4672SOL     OW16022   4.322   3.581   9.257  0.0907  0.1325  0.9703
 4672SOL    HW116023   4.375   3.502   9.263 -0.2173 -0.4600 -2.2445
 4672SOL    HW216024   4.296   3.599   9.347  2.7436 -1.5891  2.2071
 4673SOL     OW16025   7.441   0.219  10.513  0.1164  0.0360  0.2576
 4673SOL    HW116026   7.396   0.215  10.597 -0.1153  1.0480  0.1874
 4673SOL    HW216027   7.517   0.161  10.524 -0.5689 -0.7840  0.7504
 4674SOL     OW16028   7.090   8.731   3.929 -0.6300 -0.1176  0.0293
 4674SOL    HW116029   7.102   8.765   3.840 -2.2750  0.8187  0.1213
 4674SOL    HW216030   7.021   8.665   3.921 -0.7415 -0.0761  0.6042
 4675SOL     OW16031   9.360   9.387   8.754 -0.1720  0.6061 -0.1288
 4675SOL    HW116032   9.378   9.299   8.722 -0.7182  1.3533 -2.8247
 4675SOL    HW216033   9.273   9.381   8.793 -0.8356  0.1654 -1.5749
 4676SOL     OW16034   7.956   9.045   9.754  0.0456  0.7646 -0.3098
 4676SOL    HW116035   8.001   9.068   9.835  3.7486 -0.6966 -1.7304
 4676SOL    HW216036   7.909   9.124   9.729 -0.8611  1.4015  2.9041
 4677SOL     OW16037  10.824  10.584   1.642 -1.1751  0.7033 -0.2971
 4677SOL    HW116038  10.788  10.600   1.555  1.9554 -0.7231 -2.0275
 4677SOL    HW216039  10.910  10.624   1.640 -0.5321 -0.4298  1.7028
 4678SOL     OW16040   0.236   3.871   0.451 -0.2936  0.0084  0.5910
 4678SOL    HW116041   0.205   3.806   0.388 -1.2005  1.6303 -0.7014
 4678SOL    HW216042   0.303   3.921   0.403  0.6179 -0.1317  1.6693
 4679SOL     OW16043   1.162  11.144   0.789  0.2169  0.1108  0.1870
 4679SOL    HW116044   1.166  11.159   0.694  1.8901  0.5485  0.3030
 4679SOL    HW216045   1.246  11.175   0.822  0.2947 -1.4792  1.6275
 4680SOL     OW16046   8.603   2.678   9.566 -0.0159  0.0665  0.3350
 4680SOL    HW116047   8.589   2.604   9.625  1.5724  0.0597  0.7583
 4680SOL    HW216048   8.698   2.681   9.555 -0.2713 -0.7477 -3.2883
 4681SOL     OW16049   9.266   6.892   5.411 -0.2224 -0.0796 -0.4741
 4681SOL    HW116050   9.314   6.826   5.461  1.0880 -0.3432 -1.9867
 4681SOL    HW216051   9.187   6.847   5.382 -0.3023 -0.3530  0.1473
 4682SOL     OW16052   0.492  11.191   6.428 -0.3911 -0.2518  0.1943
 4682SOL    HW116053   0.544  11.155   6.499 -1.1882 -0.0674  0.8781
 4682SOL    HW216054   0.476  11.117   6.370  0.0593 -0.4542  0.3200
 4683SOL     OW16055   3.231   8.753   0.504 -0.8262  0.1304  0.0454
 4683SOL    HW116056   3.183   8.722   0.427 -1.5314  0.1278  0.4867
 4683SOL    HW216057   3.185   8.716   0.579 -0.7858  1.0005  0.5193
 4684SOL     OW16058   9.669   4.959  10.892  0.0237 -0.2935  0.8712
 4684SOL    HW116059   9.693   4.868  10.874 -0.7186 -0.2754 -0.3014
 4684SOL    HW216060   9.751   5.001  10.915  0.4075 -1.2036  1.2352
 4685SOL     OW16061   4.629   1.232   4.944 -0.1324  0.3580  0.1077
 4685SOL    HW116062   4.612   1.248   5.036  3.0566  0.8655  0.7283
 4685SOL    HW216063   4.584   1.149   4.925  0.9187 -0.9146  2.7389
 4686SOL     OW16064   1.797  11.078   5.494  0.3481  0.3366 -0.1536
 4686SOL    HW116065   1.876  11.029   5.471  0.8616  0.9985  0.1720
 4686SOL    HW216066   1.749  11.085   5.411  0.4919 -0.3048 -0.2970
 4687SOL     OW16067   0.437   5.938  10.392  0.0018  0.2719  0.0992
 4687SOL    HW116068   0.479   5.982  10.466 -0.1039  0.0204  0.3119
 4687SOL    HW216069   0.454   5.995  10.317 -0.7545  1.0383  0.4915
 4688SOL     OW16070   1.331   2.800   4.672  0.3886 -0.2541  0.0469
 4688SOL    HW116071   1.407   2.846   4.636 -0.1730 -0.2755 -1.2138
 4688SOL    HW216072   1.367   2.720   4.710  0.8902 -0.7814 -1.4790
 4689SOL     OW16073   2.513  10.480   7.397  0.3189 -0.4091  0.4994
 4689SOL    HW116074   2.477  10.544   7.457 -1.2069 -0.8300  0.0787
 4689SOL    HW216075   2.592  10.448   7.440 -0.0692  0.1960  1.6957
 4690SOL     OW16076   1.294   3.897   7.755  0.1927 -0.9004 -0.8542
 4690SOL    HW116077   1.377   3.860   7.723 -1.2856 -2.0695 -3.7318
 4690SOL    HW216078   1.232   3.824   7.750 -1.5892  0.5636 -1.3479
 4691SOL     OW16079   7.564   8.562   3.338  0.2576  0.3204 -0.4291
 4691SOL    HW116080   7.508   8.640   3.335  1.8221  1.5056 -0.1053
 4691SOL    HW216081   7.504   8.491   3.359 -1.0625  1.6078  0.3894
 4692SOL     OW16082   5.741   2.338   1.858  0.9978 -0.8508  0.3623
 4692SOL    HW116083   5.694   2.422   1.860 -0.1245 -1.4704  1.7152
 4692SOL    HW216084   5.708   2.295   1.778  1.4004 -0.1267 -0.2105
 4693SOL     OW16085   6.232   0.017   9.733 -0.6276  0.4446 -0.3988
 4693SOL    HW116086   6.239   0.112   9.742 -1.0863  0.6055 -1.6635
 4693SOL    HW216087   6.141  -0.002   9.754 -1.6121  0.7770 -3.8605
 4694SOL     OW16088   9.177   0.784  10.559 -0.0230 -0.8906 -0.4320
 4694SOL    HW116089   9.185   0.717  10.627 -1.6263  1.6253  2.4908
 4694SOL    HW216090   9.088   0.774  10.526  0.4182 -1.4445 -1.5214
 4695SOL     OW16091  10.384   0.644   0.293 -0.3224  0.4162 -0.0610
 4695SOL    HW116092  10.354   0.568   0.342 -1.3544  0.9463  0.1580
 4695SOL    HW216093  10.475   0.656   0.319  0.0755 -1.1668 -0.6524
 4696SOL     OW16094   2.019   9.829   8.139 -0.0081  0.2125  0.0084
 4696SOL    HW116095   2.052   9.760   8.196  2.3236  2.0981  1.1141
 4696SOL    HW216096   1.934   9.853   8.177 -0.7919 -1.8393 -0.3055
 4697SOL     OW16097   4.178   6.469   2.535 -0.0769 -0.2499 -0.3486
 4697SOL    HW116098   4.222   6.550   2.559  0.2680 -0.6608  0.4539
 4697SOL    HW216099   4.091   6.476   2.575 -0.5634  0.3258 -1.4740
 4698SOL     OW16100   2.999  11.103   8.421 -0.0261  0.5186  0.3725
 4698SOL    HW116101   3.071  11.125   8.480 -2.0843  0.9583  2.9520
 4698SOL    HW216102   2.929  11.074   8.480 -3.4702  4.1624 -1.4671
 4699SOL     OW16103  10.138   8.753   3.275  0.0304 -0.3834  0.0476
 4699SOL    HW116104  10.158   8.659   3.271 -0.1673 -0.3615 -2.6649
 4699SOL    HW216105  10.121   8.769   3.368 -0.7949 -3.2079  0.4759
 4700SOL     OW16106   5.156   8.259   1.081  0.5164  0.3393  0.5603
 4700SOL    HW116107   5.218   8.186   1.077  1.1076  0.8881 -0.5302
 4700SOL    HW216108   5.093   8.241   1.011 -0.3826 -0.0316  1.4369
 4701SOL     OW16109   3.049   4.073   7.891  0.5109 -0.3144 -0.5509
 4701SOL    HW116110   2.974   4.052   7.835 -0.3372  0.5009  0.2364
 4701SOL    HW216111   3.079   4.158   7.861  2.4200 -1.4517 -2.1476
 4702SOL     OW16112   8.410   0.665  10.569  0.2616  0.3436  0.1744
 4702SOL    HW116113   8.328   0.715  10.567 -0.5048 -0.8500  1.0724
 4702SOL    HW216114   8.442   0.670  10.479 -0.8382  0.7447 -0.2199
 4703SOL     OW16115   1.547   2.509   3.670 -0.2129 -0.1234  0.1424
 4703SOL    HW116116   1.532   2.469   3.756 -0.4644 -1.6676 -0.5672
 4703SOL    HW216117   1.613   2.577   3.686 -0.2175 -0.4093  1.5419
 4704SOL     OW16118   4.161   7.072   7.797 -0.8075 -0.1319  0.3811
 4704SOL    HW116119   4.192   7.053   7.886 -2.3542 -0.8003  0.8061
 4704SOL    HW216120   4.093   7.006   7.781 -0.3847 -0.1814 -1.3996
 4705SOL     OW16121   5.281   3.134   7.016  0.5468 -0.0827 -0.2011
 4705SOL    HW116122   5.275   3.166   7.106 -0.1060 -0.9539  0.0842
 4705SOL    HW216123   5.329   3.202   6.969 -0.5473  1.1714  0.4372
 4706SOL     OW16124   5.606   1.084   0.994 -0.2238  0.6636 -0.2418
 4706SOL    HW116125   5.602   0.995   0.958  0.3150  0.0398  1.1726
 4706SOL    HW216126   5.697   1.094   1.022 -1.0549  0.2130  3.0430
 4707SOL     OW16127   1.640  10.617  10.001 -0.0818 -0.1885  0.6723
 4707SOL    HW116128   1.672  10.656  10.082  1.2244  0.1372  0.0219
 4707SOL    HW216129   1.719  10.594   9.951 -0.8299  0.4914 -0.9177
 4708SOL     OW16130   9.688  10.770   1.671  0.7872 -0.5401 -0.4482
 4708SOL    HW116131   9.747  10.770   1.595 -1.9721  2.3864 -2.8502
 4708SOL    HW216132   9.700  10.857   1.711 -0.8461 -0.4160 -0.1554
 4709SOL     OW16133  10.826   0.749   6.236  0.1616  0.0623 -0.2785
 4709SOL    HW116134  10.842   0.666   6.280 -0.4254 -0.2271 -0.5971
 4709SOL    HW216135  10.911   0.776   6.202  0.3906 -0.3079  0.0036
 4710SOL     OW16136   8.636  10.792   8.858 -0.5857  0.0308  0.0220
 4710SOL    HW116137   8.680  10.850   8.795  1.6909  0.8074  2.1469
 4710SOL    HW216138   8.589  10.851   8.917 -1.1598 -0.5462  0.1515
 4711SOL     OW16139   3.656  11.178  11.023 -0.1932 -0.3273  0.2901
 4711SOL    HW116140   3.729  11.135  11.068  0.7110 -0.0931 -0.8822
 4711SOL    HW216141   3.609  11.225  11.092 -0.5398 -2.2439  1.4157
 4712SOL     OW16142   8.938  10.899  10.443  0.3972 -0.3103  0.2953
 4712SOL    HW116143   8.948  10.948  10.525 -0.0808  1.0438 -0.4144
 4712SOL    HW216144   8.847  10.869  10.444  0.9391 -2.0437  1.1525
 4713SOL     OW16145   8.452   6.633   6.607 -0.1171  0.4686  0.3857
 4713SOL    HW116146   8.503   6.707   6.641 -1.2138  1.5160 -0.1406
 4713SOL    HW216147   8.510   6.558   6.614  1.4408  1.5735 -0.0340
 4714SOL     OW16148   1.917   3.355   3.553 -0.1964 -0.3649  0.5881
 4714SOL    HW116149   1.927   3.346   3.648 -0.0976  0.0407  0.6160
 4714SOL    HW216150   1.884   3.444   3.541  1.3652  0.1693  0.1326
 4715SOL     OW16151   8.771  11.140   8.043 -0.4335  0.0274 -0.5852
 4715SOL    HW116152   8.807  11.212   7.990  1.4760 -0.7793 -0.4629
 4715SOL    HW216153   8.758  11.178   8.130 -0.2510  0.4509 -0.7391
 4716SOL     OW16154   6.013   9.880   9.158  0.0465 -0.3038 -0.1329
 4716SOL    HW116155   6.059   9.957   9.193  0.5296 -1.3207  1.5723
 4716SOL    HW216156   6.049   9.869   9.069  1.6213  0.1244  0.4184
 4717SOL     OW16157  10.730   5.762   6.556 -0.3879  0.1052 -0.2135
 4717SOL    HW116158  10.770   5.745   6.641  1.2928  1.5106 -0.6608
 4717SOL    HW216159  10.769   5.696   6.498 -0.4219  0.0690 -0.1952
 4718SOL     OW16160   1.336   5.138   3.478 -0.1201  0.0214 -0.1887
 4718SOL    HW116161   1.255   5.139   3.528  1.5522  2.9016  2.7923
 4718SOL    HW216162   1.332   5.216   3.423  1.6166  1.7200  1.9520
 4719SOL     OW16163   8.124  10.556   4.679 -1.0855 -0.0154  0.4653
 4719SOL    HW116164   8.095  10.605   4.756  0.5943  1.3412  0.3083
 4719SOL    HW216165   8.101  10.611   4.605 -2.0278 -0.9765  0.0259
 4720SOL     OW16166  10.581   8.211   5.379 -0.6539  0.7273 -0.1961
 4720SOL    HW116167  10.567   8.118   5.398 -2.3744  0.5622 -2.0032
 4720SOL    HW216168  10.591   8.252   5.465  0.4059 -1.1279  0.6321
 4721SOL     OW16169   7.676   4.432   0.816  0.1928  0.1654  0.6166
 4721SOL    HW116170   7.688   4.341   0.789  0.5653 -0.2171  2.0129
 4721SOL    HW216171   7.689   4.482   0.736 -0.0372 -1.0019 -0.1808
 4722SOL     OW16172   0.138   3.569   7.917  0.2589 -0.0779 -0.3813
 4722SOL    HW116173   0.129   3.475   7.935 -0.8623 -0.4637 -2.5536
 4722SOL    HW216174   0.054   3.593   7.877  0.6883  1.7615 -0.2295
 4723SOL     OW16175   3.161   6.667   9.105 -0.1397 -0.3171  0.2127
 4723SOL    HW116176   3.127   6.731   9.167 -0.4795 -0.0254 -0.2688
 4723SOL    HW216177   3.134   6.700   9.019 -0.1363 -0.9900 -0.0549
 4724SOL     OW16178  10.889   0.127  10.113 -0.1107 -0.3241  0.0406
 4724SOL    HW116179  10.818   0.128  10.049  0.2839 -1.4755 -0.4382
 4724SOL    HW216180  10.950   0.062  10.080  0.9721  0.3435  0.6743
 4725SOL     OW16181   7.561   6.311   4.851  0.2606  0.1822  0.4210
 4725SOL    HW116182   7.615   6.247   4.806 -1.8442 -0.9059 -0.6713
 4725SOL    HW216183   7.609   6.394   4.842  2.9445 -1.1088  1.7115
 4726SOL     OW16184   7.026   1.522  10.682 -0.1927 -0.0759 -0.1511
 4726SOL    HW116185   6.989   1.446  10.728 -1.1962  0.2436 -0.4052
 4726SOL    HW216186   7.056   1.486  10.598 -1.0602 -0.1227 -0.4485
 4727SOL     OW16187   9.003   1.090   7.811 -0.6133 -0.0910  0.3982
 4727SOL    HW116188   9.031   1.000   7.797 -1.5025 -0.4626  0.9030
 4727SOL    HW216189   9.062   1.124   7.879 -0.9496 -0.6444  0.9735
 4728SOL     OW16190   2.412   7.499   7.796  0.4858  0.1371  0.2538
 4728SOL    HW116191   2.369   7.545   7.868  1.6348  1.0394  0.3940
 4728SOL    HW216192   2.469   7.565   7.756  2.3610 -1.1992  0.5933
 4729SOL     OW16193   2.617  10.212   3.608  0.4268 -0.0273 -0.4833
 4729SOL    HW116194   2.657  10.138   3.562 -0.0711  0.8718 -2.4757
 4729SOL    HW216195   2.544  10.174   3.656  0.8375 -0.9788 -0.5869
 4730SOL     OW16196   2.372   8.605   9.156  0.6567  0.1394  0.1651
 4730SOL    HW116197   2.282   8.638   9.150  1.4394  2.3810 -0.3821
 4730SOL    HW216198   2.362   8.510   9.166 -1.7436  0.2670 -0.2798
 4731SOL     OW16199   6.231   0.613   9.235  0.0408 -0.7288 -0.4674
 4731SOL    HW116200   6.258   0.538   9.289 -0.5207 -1.0811 -0.6679
 4731SOL    HW216201   6.289   0.609   9.159  0.7010 -0.3484 -0.0026
 4732SOL     OW16202   4.647   4.221   7.376  0.3488  0.2642 -0.5047
 4732SOL    HW116203   4.558   4.235   7.409  0.4841 -2.9457  1.6449
 4732SOL    HW216204   4.635   4.170   7.296  0.2607  1.4714 -1.2884
 4733SOL     OW16205   7.349   2.250   5.273  0.0154 -0.6241 -0.2418
 4733SOL    HW116206   7.359   2.261   5.178 -0.6035 -4.1112 -0.8174
 4733SOL    HW216207   7.392   2.167   5.292  1.0820  0.4950  2.7957
 4734SOL     OW16208   4.170   8.795   5.212  0.1783  0.9565 -0.1238
 4734SOL    HW116209   4.208   8.846   5.284 -1.2916 -0.3605  1.7036
 4734SOL    HW216210   4.212   8.709   5.218 -2.4373 -0.3660  1.6300
 4735SOL     OW16211   7.701   1.185   9.251  0.0743 -0.6251 -0.0326
 4735SOL    HW116212   7.655   1.106   9.277  0.5323 -1.5847 -1.9482
 4735SOL    HW216213   7.791   1.171   9.279 -0.1250 -0.1352  0.8901
 4736SOL     OW16214   5.919   7.000   4.907  0.1542 -0.0191 -0.3431
 4736SOL    HW116215   5.859   6.960   4.844 -0.4374 -0.5585  0.5413
 4736SOL    HW216216   5.883   6.976   4.992 -0.1840  2.3004  0.2503
 4737SOL     OW16217   5.944   4.538  10.052  0.3309  0.0954 -0.5071
 4737SOL    HW116218   5.959   4.577   9.966  0.6652  2.9550  0.7168
 4737SOL    HW216219   5.850   4.524  10.056  0.3428 -0.3102 -1.4055
 4738SOL     OW16220   6.632   6.368  10.075  0.0587  0.6795  0.2658
 4738SOL    HW116221   6.681   6.410  10.004  1.9990  1.2986  1.8703
 4738SOL    HW216222   6.660   6.277  10.073 -0.8240  0.4101 -0.4897
 4739SOL     OW16223   2.218   1.651   9.503 -0.1280  0.6848  0.2287
 4739SOL    HW116224   2.259   1.593   9.568  0.4584  0.4778 -0.3134
 4739SOL    HW216225   2.132   1.671   9.540 -1.4349 -2.6019 -0.7207
 4740SOL     OW16226   6.846   1.097   4.978  0.2063  0.4860 -0.3228
 4740SOL    HW116227   6.918   1.159   4.982  0.5915  0.1310 -1.4075
 4740SOL    HW216228   6.849   1.063   4.889  0.2007 -1.3343  0.3369
 4741SOL     OW16229   7.898   0.434   9.125  0.7330  0.6017 -0.5639
 4741SOL    HW116230   7.825   0.430   9.187 -0.0962  0.5542 -1.5150
 4741SOL    HW216231   7.903   0.345   9.088  1.7974  0.3844  0.0574
 4742SOL     OW16232   5.784   7.551   1.386 -0.3355 -0.2293  0.0392
 4742SOL    HW116233   5.852   7.537   1.320 -1.9264  0.1970 -1.8023
 4742SOL    HW216234   5.739   7.631   1.357 -1.6974 -0.5797  1.0871
 4743SOL     OW16235   7.195  10.124   4.122 -0.7612 -0.0648 -0.1654
 4743SOL    HW116236   7.154  10.193   4.174 -0.5434 -0.2357  0.2385
 4743SOL    HW216237   7.212  10.165   4.038  0.2495  0.6831  0.3788
 4744SOL     OW16238   8.678   8.838   3.454 -0.4205  0.3172 -0.6338
 4744SOL    HW116239   8.593   8.806   3.485  0.3416 -1.0580  0.1417
 4744SOL    HW216240   8.685   8.926   3.491 -0.4028 -0.5343  1.5567
 4745SOL     OW16241   4.149   7.136   6.175  0.6046 -0.9900 -0.0045
 4745SOL    HW116242   4.094   7.057   6.166 -3.0000  1.4325 -1.7011
 4745SOL    HW216243   4.228   7.116   6.126 -0.9057 -3.0225 -1.8251
 4746SOL     OW16244  10.446   5.489   8.152 -0.2603 -0.0305  0.5544
 4746SOL    HW116245  10.389   5.542   8.207 -1.8248  0.4806 -1.4654
 4746SOL    HW216246  10.389   5.422   8.115  0.7046 -0.3003 -0.5147
 4747SOL     OW16247   9.636   0.445  10.957  0.0963 -0.2782  0.2201
 4747SOL    HW116248   9.636   0.524  11.011  0.7253  0.3052 -0.6144
 4747SOL    HW216249   9.707   0.392  10.993  1.6366  0.8396 -1.0273
 4748SOL     OW16250   6.797   9.167   1.443 -0.0602 -0.0562 -0.2016
 4748SOL    HW116251   6.834   9.127   1.522 -2.8056 -0.4991  0.9766
 4748SOL    HW216252   6.770   9.092   1.389  2.5601  0.2152 -2.0827
 4749SOL     OW16253   5.794   9.178   4.047  0.9321  0.2401 -0.2657
 4749SOL    HW116254   5.707   9.170   4.086  0.0977  1.5246 -1.7544
 4749SOL    HW216255   5.808   9.095   4.002  1.6350 -1.0062  2.0705
 4750SOL     OW16256   1.722   2.963   9.369  0.4075 -0.6096 -0.7822
 4750SOL    HW116257   1.762   2.921   9.293 -0.3741 -0.7458 -1.1288
 4750SOL    HW216258   1.738   2.902   9.441  1.3828 -0.3590 -0.7651
 4751SOL     OW16259   6.114  10.893   8.219  0.5855 -0.1936  0.4896
 4751SOL    HW116260   6.194  10.849   8.191  0.2233 -0.8018  0.3870
 4751SOL    HW216261   6.047  10.863   8.157  0.1754 -0.0830  0.8684
 4752SOL     OW16262   9.176   1.071   0.334 -0.1698 -1.0987 -0.0117
 4752SOL    HW116263   9.100   1.110   0.290 -0.3892 -1.4144  0.0857
 4752SOL    HW216264   9.251   1.105   0.285 -0.4616 -3.1341 -2.0526
 4753SOL     OW16265   6.187   9.106   2.661 -0.4658  0.1822 -0.2081
 4753SOL    HW116266   6.127   9.178   2.679  0.1482  0.7891 -0.5716
 4753SOL    HW216267   6.141   9.052   2.597 -0.6170  0.6455 -0.4905
 4754SOL     OW16268   9.933   2.355   2.608 -0.4053 -0.4144  0.4241
 4754SOL    HW116269   9.846   2.314   2.607 -0.2292 -0.8019  0.7075
 4754SOL    HW216270   9.981   2.308   2.677 -0.1765  0.2253  0.7134
 4755SOL     OW16271   9.685   6.406   2.800 -0.3635  0.0116 -0.9709
 4755SOL    HW116272   9.723   6.336   2.852 -2.2112 -0.7936 -0.6255
 4755SOL    HW216273   9.703   6.381   2.709  0.7622  0.1864 -0.8139
 4756SOL     OW16274   9.507   9.062   3.330 -0.9966 -0.5972  0.5329
 4756SOL    HW116275   9.549   8.977   3.341  0.7473  0.1966  0.3499
 4756SOL    HW216276   9.538   9.094   3.245  0.5902  1.3467  1.7282
 4757SOL     OW16277   4.552   8.082   4.853  0.5251  0.6480  0.7060
 4757SOL    HW116278   4.630   8.125   4.819  1.8955 -0.9143  1.7174
 4757SOL    HW216279   4.521   8.027   4.781 -1.0584  2.9351 -0.4861
 4758SOL     OW16280   1.611   2.894   7.605  0.6694 -0.5375 -0.6286
 4758SOL    HW116281   1.685   2.851   7.647  0.7071 -1.4887 -1.6266
 4758SOL    HW216282   1.552   2.823   7.582  0.8346 -0.1163 -2.5215
 4759SOL     OW16283   1.877   1.811   1.784 -0.1897 -0.6671  0.3170
 4759SOL    HW116284   1.944   1.752   1.817 -0.5918 -1.8197 -0.8071
 4759SOL    HW216285   1.853   1.774   1.699  0.7816  2.1160 -1.2885
 4760SOL     OW16286   8.070   7.896   7.833  0.1322  0.4974 -0.2211
 4760SOL    HW116287   8.047   7.970   7.890 -0.8830  0.6253 -0.7711
 4760SOL    HW216288   8.064   7.820   7.890 -0.3406  0.6794 -0.0243
 4761SOL     OW16289   9.977   9.332   5.060  0.7387  0.0086 -0.4097
 4761SOL    HW116290   9.967   9.404   5.121 -2.1666  1.3879 -2.3145
 4761SOL    HW216291   9.931   9.259   5.101 -2.3208  1.2841 -1.3362
 4762SOL     OW16292   9.087   3.740   0.119 -0.3672  0.5041  0.1131
 4762SOL    HW116293   9.064   3.828   0.089  0.0439 -0.2096 -2.5485
 4762SOL    HW216294   9.097   3.689   0.039 -0.2320 -1.9092  1.5636
 4763SOL     OW16295   2.335   5.342  10.486 -0.3891  0.5945 -0.5194
 4763SOL    HW116296   2.240   5.337  10.500 -0.7418  0.9797 -2.5168
 4763SOL    HW216297   2.356   5.435  10.495 -0.0483  0.4359  0.5664
 4764SOL     OW16298   4.764   3.656   0.156  0.2905  0.8322  0.1301
 4764SOL    HW116299   4.737   3.691   0.071  0.9652 -0.6823 -0.7410
 4764SOL    HW216300   4.860   3.663   0.155  0.3299  0.4092  0.5912
 4765SOL     OW16301   1.070   2.112   7.571  0.4454 -0.8383 -0.3693
 4765SOL    HW116302   0.987   2.143   7.535  1.0256 -0.0334 -1.0545
 4765SOL    HW216303   1.065   2.017   7.565  0.5363 -0.7451 -2.6588
 4766SOL     OW16304   1.962   9.768   9.589  0.8781 -0.0169 -0.3931
 4766SOL    HW116305   1.989   9.685   9.627  0.0252  0.4083  1.2568
 4766SOL    HW216306   2.030   9.830   9.615 -0.5105  0.6385  2.0921
 4767SOL     OW16307   8.723  10.610   0.584 -0.0010  0.0394 -0.9190
 4767SOL    HW116308   8.646  10.658   0.614  1.0520  1.2264 -0.0465
 4767SOL    HW216309   8.791  10.631   0.647  0.5614 -2.5269 -0.5467
 4768SOL     OW16310   3.571   8.736   7.052 -0.2111  0.3721 -0.6582
 4768SOL    HW116311   3.523   8.814   7.080  1.5064  1.6385 -1.0815
 4768SOL    HW216312   3.570   8.740   6.957 -0.3287 -0.2837 -0.6912
 4769SOL     OW16313   9.198   6.937   1.960 -0.0012  0.9950 -0.5560
 4769SOL    HW116314   9.129   7.003   1.959  0.1939  1.2247 -2.5921
 4769SOL    HW216315   9.199   6.902   1.871  1.1950 -0.4085 -0.0314
 4770SOL     OW16316   4.878   9.328   3.473  0.2060  0.4122 -0.4775
 4770SOL    HW116317   4.804   9.353   3.418 -0.2412 -0.6642 -0.3950
 4770SOL    HW216318   4.842   9.261   3.532  0.9970  0.6153  0.2469
 4771SOL     OW16319   0.598   8.255   1.358  0.1621  0.2374 -0.3573
 4771SOL    HW116320   0.632   8.316   1.293 -0.3953  0.4987 -0.4036
 4771SOL    HW216321   0.586   8.308   1.437 -0.4004  0.2092 -0.4212
 4772SOL     OW16322   6.702   0.743   7.906  0.2022  0.3074  0.7483
 4772SOL    HW116323   6.678   0.824   7.862 -1.0169 -0.2441  0.3399
 4772SOL    HW216324   6.652   0.745   7.988 -0.0266 -0.1277  0.6252
 4773SOL     OW16325   8.672   3.119   2.759 -0.1049  0.2420  0.6298
 4773SOL    HW116326   8.616   3.106   2.683  1.6363 -2.8617 -0.2935
 4773SOL    HW216327   8.712   3.205   2.746  1.2139 -0.7340 -2.8213
 4774SOL     OW16328   6.953   8.110   6.046  1.0134 -0.0365  0.2246
 4774SOL    HW116329   6.964   8.039   5.982 -1.2698 -1.6342  1.4606
 4774SOL    HW216330   6.895   8.172   6.003 -1.7578 -1.8268  1.1081
 4775SOL     OW16331   7.326   9.889   4.804 -0.8316 -0.3458 -0.2367
 4775SOL    HW116332   7.393   9.821   4.811 -0.8887 -0.4621 -0.7599
 4775SOL    HW216333   7.362   9.964   4.852  0.1498 -0.0391 -1.3944
 4776SOL     OW16334   8.672   8.964   5.980  0.8835 -0.4440  0.2923
 4776SOL    HW116335   8.639   8.883   6.019  0.0603 -0.7431 -0.9611
 4776SOL    HW216336   8.594   9.013   5.956  1.3792  0.8010  1.1554
 4777SOL     OW16337   0.088   8.136   3.251 -0.0542  0.7554  0.5958
 4777SOL    HW116338  -0.006   8.152   3.244 -0.1672  0.1336  0.6029
 4777SOL    HW216339   0.128   8.199   3.191 -0.5354  0.4084 -0.1011
 4778SOL     OW16340   4.469   4.510   6.097  0.1632  0.1059  0.3691
 4778SOL    HW116341   4.460   4.488   6.005  2.4850 -0.2182  0.1608
 4778SOL    HW216342   4.515   4.594   6.097 -1.8418  1.2620  1.2437
 4779SOL     OW16343   9.164   9.772  10.380 -0.6778 -0.2696 -0.2181
 4779SOL    HW116344   9.087   9.823  10.354 -0.7100  0.6920  1.6313
 4779SOL    HW216345   9.128   9.703  10.436 -0.1934  0.2760  0.7803
 4780SOL     OW16346   6.074   0.887  11.041  0.9969 -0.1310  0.3186
 4780SOL    HW116347   6.039   0.890  11.130 -0.0337  3.1776 -0.0364
 4780SOL    HW216348   6.169   0.885  11.052  0.8576 -1.4568  1.4424
 4781SOL     OW16349   1.750   1.989   0.335 -0.5744 -0.0357  0.2570
 4781SOL    HW116350   1.777   1.901   0.311  1.7236  0.0185  2.2518
 4781SOL    HW216351   1.665   1.978   0.377 -0.6825 -1.1605 -0.2301
 4782SOL     OW16352   9.421   8.458   3.637  0.2602 -0.3740 -0.5631
 4782SOL    HW116353   9.441   8.550   3.621 -1.8486  0.2422 -0.0463
 4782SOL    HW216354   9.498   8.423   3.681  0.6419  1.4798  0.3317
 4783SOL     OW16355   4.048   1.328   7.359  0.1504  0.6817  0.0113
 4783SOL    HW116356   4.056   1.242   7.319  1.5447  0.7000  0.1948
 4783SOL    HW216357   4.120   1.379   7.322  0.7725  1.0544  1.6153
 4784SOL     OW16358   1.939   3.207   9.405 -0.2756  0.1458 -0.5370
 4784SOL    HW116359   1.861   3.152   9.408 -0.0998 -0.1053 -0.5170
 4784SOL    HW216360   1.995   3.166   9.340 -0.4504  0.7237 -1.0618
 4785SOL     OW16361   5.139   9.363   6.445 -0.1213  0.5007 -0.6160
 4785SOL    HW116362   5.208   9.402   6.498 -2.2029 -1.2339  3.8743
 4785SOL    HW216363   5.162   9.270   6.441 -0.5174  0.4366 -2.0582
 4786SOL     OW16364   5.105   4.248   4.124 -0.1352 -1.1068 -0.7859
 4786SOL    HW116365   5.087   4.267   4.216  3.6343 -1.2137  0.1197
 4786SOL    HW216366   5.122   4.154   4.121  1.4993 -0.8229 -1.2135
 4787SOL     OW16367  10.121   6.350  10.905 -0.5028 -0.0390 -0.9343
 4787SOL    HW116368  10.058   6.316  10.841 -0.1656  0.7221 -1.6884
 4787SOL    HW216369  10.075   6.344  10.989 -1.1198 -0.6355 -1.3032
 4788SOL     OW16370   6.752   3.540   1.311 -0.5117  0.3551 -0.4474
 4788SOL    HW116371   6.757   3.554   1.406 -0.5362  0.9680 -0.5354
 4788SOL    HW216372   6.828   3.485   1.292 -0.6513  0.0092 -0.0375
 4789SOL     OW16373  10.938   0.274   5.745  0.2553 -0.0783  0.4254
 4789SOL    HW116374  11.014   0.243   5.793  1.7448 -1.0570 -2.3478
 4789SOL    HW216375  10.893   0.195   5.716  1.4700  0.2439 -2.7395
 4790SOL     OW16376   7.853   1.731   9.316  0.0315 -0.2943  0.1809
 4790SOL    HW116377   7.897   1.803   9.270  2.1662 -1.4640  0.2572
 4790SOL    HW216378   7.870   1.749   9.409 -0.6892 -0.1437  0.2881
 4791SOL     OW16379   3.591   0.287   2.555 -0.0290 -0.7809  0.2046
 4791SOL    HW116380   3.662   0.290   2.490  0.4066  1.0145  0.7140
 4791SOL    HW216381   3.541   0.366   2.540 -0.5628 -0.8803  1.3698
 4792SOL     OW16382   5.427   7.524   2.767  0.5563 -0.4175  0.0181
 4792SOL    HW116383   5.477   7.526   2.686 -0.7281 -0.7143 -0.8054
 4792SOL    HW216384   5.415   7.431   2.786 -2.5653 -0.4897 -1.6930
 4793SOL     OW16385   7.084   4.418   8.580 -0.6707 -0.1729 -0.0662
 4793SOL    HW116386   7.025   4.477   8.627 -0.2691  0.6458 -0.5682
 4793SOL    HW216387   7.027   4.360   8.531 -1.0661  0.0294  0.1523
 4794SOL     OW16388   6.329  10.340   4.105 -0.4726  0.0077  0.6594
 4794SOL    HW116389   6.307  10.393   4.029  0.8993  1.3382  1.1585
 4794SOL    HW216390   6.253  10.348   4.162 -0.9216  0.1540  0.0502
 4795SOL     OW16391   1.066   5.179  10.292  0.6562  0.1144 -0.1274
 4795SOL    HW116392   1.025   5.174  10.206 -1.1428 -1.1827  0.7429
 4795SOL    HW216393   1.156   5.150  10.278  0.7884  1.1896 -1.7654
 4796SOL     OW16394   2.126   7.636   9.818 -0.2078 -0.4680 -1.0686
 4796SOL    HW116395   2.143   7.635   9.723  0.6250 -1.7980 -0.9376
 4796SOL    HW216396   2.086   7.721   9.834  4.3393  2.1104 -1.7795
 4797SOL     OW16397   1.843   3.029   2.344  0.4738 -0.5208 -0.0674
 4797SOL    HW116398   1.873   3.084   2.271  0.5078 -0.2036  0.1838
 4797SOL    HW216399   1.907   3.043   2.413  0.8865 -1.4414 -0.2494
 4798SOL     OW16400   2.996   4.791   7.429 -0.2729 -0.5934  0.1617
 4798SOL    HW116401   2.960   4.846   7.498 -0.3024 -1.5904  0.9580
 4798SOL    HW216402   2.987   4.702   7.462  1.9845 -0.9503 -0.0249
 4799SOL     OW16403   1.509   8.051   1.165  0.3772  0.1924  0.0194
 4799SOL    HW116404   1.579   8.113   1.143  0.7728 -0.4779 -0.6617
 4799SOL    HW216405   1.480   8.017   1.080 -1.9663  1.7025  0.1321
 4800SOL     OW16406   1.182   5.884   3.937  0.0280  0.1836  0.5813
 4800SOL    HW116407   1.239   5.814   3.905 -0.8535 -0.8743  1.2443
 4800SOL    HW216408   1.106   5.881   3.879  0.5397  1.4542 -0.1793
 4801SOL     OW16409   5.642   0.830   5.619  0.0678 -0.5213  0.4597
 4801SOL    HW116410   5.617   0.759   5.560  2.2350  1.3880 -3.0976
 4801SOL    HW216411   5.617   0.910   5.572  3.5073  1.1751  1.2141
 4802SOL     OW16412  10.927   3.349   5.705  0.0773  0.0514 -0.2393
 4802SOL    HW116413  10.871   3.273   5.719 -1.3369  0.7874 -1.5296
 4802SOL    HW216414  10.900   3.412   5.773 -0.7847  0.4475 -0.9284
 4803SOL     OW16415  10.152   4.654   5.617  0.3808 -0.5790  0.0122
 4803SOL    HW116416  10.060   4.633   5.605  0.6601 -1.3494 -0.8999
 4803SOL    HW216417  10.165   4.655   5.712 -0.9436  1.3257  0.2299
 4804SOL     OW16418  10.980   9.350   6.865  0.2490  0.2302  0.1180
 4804SOL    HW116419  10.987   9.284   6.934  1.9111  2.2849  2.0521
 4804SOL    HW216420  11.038   9.318   6.796 -0.2409 -1.1101  0.2856
 4805SOL     OW16421   7.750   2.271   2.117  0.0248  0.6751  0.7038
 4805SOL    HW116422   7.802   2.266   2.198 -1.3099  3.1088  1.8248
 4805SOL    HW216423   7.670   2.316   2.143 -2.0400 -1.5358 -1.2844
 4806SOL     OW16424  10.455   6.990   4.221 -0.0574 -0.0431 -0.2691
 4806SOL    HW116425  10.536   7.014   4.265  0.9358 -1.5570 -1.1564
 4806SOL    HW216426  10.474   7.001   4.127 -0.4751 -1.4175 -0.5459
 4807SOL     OW16427   4.177   6.839   5.021  0.0787 -0.1557  0.1465
 4807SOL    HW116428   4.189   6.919   4.969  0.1437 -1.7422 -2.4902
 4807SOL    HW216429   4.082   6.830   5.028  0.0406 -0.4339 -0.6056
 4808SOL     OW16430   5.423   2.627   9.766 -0.3365  0.1276  0.0512
 4808SOL    HW116431   5.396   2.543   9.802 -0.2433  0.3719  0.6917
 4808SOL    HW216432   5.370   2.636   9.687 -1.1363 -0.0326  0.5543
 4809SOL     OW16433   8.351   0.532   6.725 -0.3862  0.3844  0.0514
 4809SOL    HW116434   8.386   0.613   6.689 -0.5696  1.3721  1.9721
 4809SOL    HW216435   8.257   0.545   6.727 -0.5356 -0.4174 -0.7881
 4810SOL     OW16436  10.572   8.440   7.009  0.3264 -0.0510 -0.5742
 4810SOL    HW116437  10.621   8.469   6.932 -0.4054  2.1598 -0.2640
 4810SOL    HW216438  10.525   8.518   7.039 -0.8061 -1.2964  1.0720
 4811SOL     OW16439   2.223   3.696  10.628 -0.1319  0.3924 -0.1314
 4811SOL    HW116440   2.262   3.783  10.639  0.9755  0.3245 -2.7319
 4811SOL    HW216441   2.283   3.651  10.569 -0.4523 -2.3479  1.4864
 4812SOL     OW16442  10.115  11.075   5.014  0.0194  0.2034  0.0422
 4812SOL    HW116443  10.046  11.034   4.962  0.4194  0.3187 -0.5879
 4812SOL    HW216444  10.107  11.168   4.997 -1.4794  0.5308  2.1939
 4813SOL     OW16445   5.984   5.117   5.145  0.5124  0.6286 -0.0289
 4813SOL    HW116446   5.999   5.142   5.054  0.4205  2.3226  0.3958
 4813SOL    HW216447   5.889   5.118   5.155  0.5129  0.2504  0.0525
 4814SOL     OW16448   4.311   2.180   7.282 -0.1057  0.1159  0.0411
 4814SOL    HW116449   4.268   2.129   7.350  1.2116  0.0199  0.8315
 4814SOL    HW216450   4.295   2.271   7.307  0.1332  0.0811  0.3235
 4815SOL     OW16451   7.116   0.539  10.231 -0.1501  0.3779 -0.3943
 4815SOL    HW116452   7.169   0.579  10.162 -0.0572  0.9647  0.0100
 4815SOL    HW216453   7.179   0.504  10.294 -0.2114 -1.2291 -1.1813
 4816SOL     OW16454  11.150   6.106   6.141  0.2636  0.2912 -0.0098
 4816SOL    HW116455  11.139   6.177   6.204  0.6813  0.2537  0.1059
 4816SOL    HW216456  11.113   6.140   6.059  0.8415  0.8051 -0.0660
 4817SOL     OW16457   2.855   4.489   0.030  0.6855  0.0210  0.7619
 4817SOL    HW116458   2.855   4.420  -0.036 -1.0282 -1.0868  1.8330
 4817SOL    HW216459   2.873   4.444   0.112 -1.8391  0.5182  1.6894
 4818SOL     OW16460   8.872   8.601   0.477 -0.1325 -0.2485  0.4225
 4818SOL    HW116461   8.839   8.680   0.434  0.1012 -0.5803 -0.3797
 4818SOL    HW216462   8.901   8.545   0.405  2.5395  0.1771  1.0886
 4819SOL     OW16463   0.155   2.755   8.480 -0.1912 -0.8298 -0.2193
 4819SOL    HW116464   0.221   2.706   8.431 -1.3604 -0.8739 -1.8234
 4819SOL    HW216465   0.108   2.806   8.413  1.0516  2.6972  1.3304
 4820SOL     OW16466   7.702   5.126   9.249 -0.2181 -0.0200  0.0330
 4820SOL    HW116467   7.728   5.180   9.323  2.4709 -0.1349 -0.7171
 4820SOL    HW216468   7.744   5.041   9.266  0.4220 -0.0547 -1.5554
 4821SOL     OW16469   1.903  10.040   3.496  0.2224  0.4753  0.5643
 4821SOL    HW116470   1.868  10.130   3.491  0.1112  0.6668  3.3845
 4821SOL    HW216471   1.978  10.041   3.437 -0.8887  1.8276 -0.9426
 4822SOL     OW16472   6.805  10.747   1.207 -0.3936  0.1913  0.1804
 4822SOL    HW116473   6.760  10.737   1.291  1.0570  0.9396  1.0850
 4822SOL    HW216474   6.894  10.772   1.231 -0.1626  1.2202 -1.6014
 4823SOL     OW16475   0.131  10.859  10.238 -0.1820  0.1712 -0.1212
 4823SOL    HW116476   0.224  10.869  10.217 -0.5922  0.5367 -1.9278
 4823SOL    HW216477   0.128  10.787  10.301  1.4377  1.0499  1.0236
 4824SOL     OW16478   0.540   7.275   7.617  0.2038  0.5079 -0.1053
 4824SOL    HW116479   0.634   7.292   7.603  0.0455  0.2789 -1.6130
 4824SOL    HW216480   0.496   7.353   7.583 -0.1202  1.6340  2.6280
 4825SOL     OW16481   6.943   1.766  10.623  0.3680  0.3705  0.4017
 4825SOL    HW116482   6.859   1.764  10.576 -0.9250  0.6274  2.5565
 4825SOL    HW216483   6.962   1.674  10.641  0.0253  0.3690  0.7667
 4826SOL     OW16484   3.726   1.354   8.778  0.3270 -0.3829  0.5605
 4826SOL    HW116485   3.698   1.263   8.784  1.4848 -0.7758  0.1948
 4826SOL    HW216486   3.726   1.373   8.684  0.3613 -0.0902  0.6177
 4827SOL     OW16487   9.323   9.864   0.882 -0.4651  0.3748  0.0934
 4827SOL    HW116488   9.311   9.885   0.789  1.9213 -0.7915 -0.5423
 4827SOL    HW216489   9.350   9.947   0.922 -0.4970  0.6533 -0.4484
 4828SOL     OW16490   8.815  10.393   6.438  0.3371 -0.5176  0.4290
 4828SOL    HW116491   8.796  10.470   6.384  1.2638  0.2184  1.1054
 4828SOL    HW216492   8.836  10.429   6.524 -1.0717 -1.6599  1.2948
 4829SOL     OW16493   9.719   1.499   6.028 -0.3933 -0.0522  0.0203
 4829SOL    HW116494   9.689   1.579   6.072 -0.1397 -0.7932  1.6417
 4829SOL    HW216495   9.801   1.525   5.986 -0.8751  0.8053 -0.4196
 4830SOL     OW16496   3.798  10.419   8.737 -0.5223 -0.1473 -0.1130
 4830SOL    HW116497   3.834  10.438   8.824  0.4957  1.6426 -0.8621
 4830SOL    HW216498   3.728  10.484   8.725  0.9902  1.3522 -1.5387
 4831SOL     OW16499  10.721   7.033   6.114 -0.3956 -0.6873 -0.1266
 4831SOL    HW116500  10.742   7.045   6.021  0.5884 -0.7543  0.0681
 4831SOL    HW216501  10.659   7.104   6.134  0.4604  0.2054 -0.5181
 4832SOL     OW16502  10.953   7.587  10.158  0.7952 -0.1132  0.6160
 4832SOL    HW116503  10.885   7.651  10.136  0.4502 -0.7059 -0.0814
 4832SOL    HW216504  11.034   7.624  10.123  0.8381  0.5905  1.4381
 4833SOL     OW16505   1.770  11.215   5.237  0.1860  0.3148  0.3044
 4833SOL    HW116506   1.746  11.211   5.145  0.5298 -0.0277  0.2265
 4833SOL    HW216507   1.817  11.298   5.245  0.2819  0.2775  0.1396
 4834SOL     OW16508   9.463  10.310   7.652  0.0522 -0.2878  0.6444
 4834SOL    HW116509   9.552  10.305   7.617  0.1281 -0.6608  0.8835
 4834SOL    HW216510   9.470  10.370   7.726 -0.5373  2.2832 -1.2570
 4835SOL     OW16511   4.905  10.293   1.304  0.1287  0.8757  0.1503
 4835SOL    HW116512   4.902  10.354   1.231  2.0655 -1.7400 -2.3471
 4835SOL    HW216513   4.838  10.228   1.283  0.9830 -0.1290  0.4339
 4836SOL     OW16514   1.989   8.116  10.518  0.1185  0.1610 -0.1699
 4836SOL    HW116515   2.070   8.145  10.560 -0.0925 -1.1559  1.2608
 4836SOL    HW216516   1.940   8.073  10.589 -1.8974  1.0280 -0.9570
 4837SOL     OW16517  10.373   0.295   8.241  0.3298  0.5779  0.5046
 4837SOL    HW116518  10.306   0.326   8.302  0.1286 -2.3014  1.9596
 4837SOL    HW216519  10.430   0.240   8.295  0.9872 -0.9709 -1.6340
 4838SOL     OW16520   1.677   1.752   5.461 -0.1952 -0.3983 -0.5169
 4838SOL    HW116521   1.627   1.834   5.454  0.5548  0.0035 -1.3740
 4838SOL    HW216522   1.746   1.772   5.524  0.1046 -0.3020 -0.8720
 4839SOL     OW16523   3.627   1.866   9.707 -0.3165  0.2752  0.3152
 4839SOL    HW116524   3.585   1.914   9.636  3.7144  1.5160 -1.5786
 4839SOL    HW216525   3.645   1.933   9.773  3.0777  1.1625 -1.2469
 4840SOL     OW16526  10.781   3.774   8.791 -0.8454 -0.2371 -0.1757
 4840SOL    HW116527  10.820   3.687   8.791 -0.5992 -0.1570  1.2037
 4840SOL    HW216528  10.711   3.769   8.726 -1.5076 -1.7929  0.6011
 4841SOL     OW16529   1.817   4.331   4.488  0.7347  0.0108 -0.3956
 4841SOL    HW116530   1.789   4.378   4.567 -2.6394 -2.4395  0.1196
 4841SOL    HW216531   1.864   4.255   4.521 -0.5525 -0.9391 -0.6594
 4842SOL     OW16532   6.504  11.204   4.042 -0.1032 -0.2348  0.0893
 4842SOL    HW116533   6.585  11.199   4.091 -0.5548  3.9230  1.6607
 4842SOL    HW216534   6.529  11.185   3.951  2.5515  0.5156  0.5912
 4843SOL     OW16535   6.730   0.878   4.534  0.6336  0.1522 -0.0177
 4843SOL    HW116536   6.680   0.797   4.521  0.2186  0.4742 -0.4492
 4843SOL    HW216537   6.672   0.934   4.586  1.8321 -0.6955  2.3499
 4844SOL     OW16538   3.029   0.652   8.632  0.4449 -0.3726  0.5007
 4844SOL    HW116539   3.081   0.731   8.618  0.3181 -0.2105  0.9549
 4844SOL    HW216540   3.091   0.580   8.619  0.2274 -0.2638 -1.4937
 4845SOL     OW16541   4.553   6.044   5.655 -0.3496 -0.2351  0.1589
 4845SOL    HW116542   4.547   6.127   5.608 -2.0362  0.7151  1.8895
 4845SOL    HW216543   4.609   6.064   5.731 -0.0458 -0.9329  0.1276
 4846SOL     OW16544   5.111  10.388  10.190 -0.6224 -0.4177 -0.2125
 4846SOL    HW116545   5.070  10.367  10.107 -3.5416  0.4701  0.8772
 4846SOL    HW216546   5.204  10.400  10.169 -0.5273 -3.9135 -2.6242
 4847SOL     OW16547   8.539   2.419   7.066 -0.3435 -0.0289 -0.2992
 4847SOL    HW116548   8.601   2.385   7.002 -1.2094 -2.0696 -0.1275
 4847SOL    HW216549   8.593   2.466   7.130  1.0786 -1.9588 -0.0057
 4848SOL     OW16550   7.778   9.047   2.917 -0.3688  0.4130  0.1736
 4848SOL    HW116551   7.795   9.077   3.006 -1.9414  0.6472  0.4320
 4848SOL    HW216552   7.714   8.976   2.928  2.3201 -2.3367 -0.4971
 4849SOL     OW16553   9.045   1.068  10.484  0.0247  0.3469  0.7045
 4849SOL    HW116554   8.954   1.078  10.512  0.3757  2.6207  1.2329
 4849SOL    HW216555   9.078   0.995  10.536 -1.3960 -0.3110  0.7335
 4850SOL     OW16556   9.226   4.381   5.515 -0.2622  0.2894  0.3717
 4850SOL    HW116557   9.177   4.330   5.579 -0.7229  1.6981  1.1874
 4850SOL    HW216558   9.262   4.316   5.455  0.0694 -1.0739  1.9686
 4851SOL     OW16559   3.700   0.214   0.170  0.1238 -0.0389  0.6198
 4851SOL    HW116560   3.679   0.192   0.079  0.1355 -0.8224  0.8046
 4851SOL    HW216561   3.791   0.188   0.181  0.1464  0.1255  0.8356
 4852SOL     OW16562   7.758   6.275   2.221 -0.3224  0.6717  0.0386
 4852SOL    HW116563   7.812   6.309   2.293 -0.1061 -0.2661  0.3261
 4852SOL    HW216564   7.687   6.339   2.213  0.5316  1.6316  0.0102
 4853SOL     OW16565   5.832   9.775   0.793 -0.1712 -0.1335 -0.4339
 4853SOL    HW116566   5.870   9.693   0.763  0.4108  0.1571 -0.5138
 4853SOL    HW216567   5.808   9.821   0.713  0.1760  0.0810 -0.4195
 4854SOL     OW16568   4.777   0.318   4.557 -0.0541  1.1205 -0.2900
 4854SOL    HW116569   4.837   0.295   4.487  0.8336 -1.4192  1.1938
 4854SOL    HW216570   4.692   0.283   4.530  0.6932 -1.6293  0.6732
 4855SOL     OW16571   9.655   0.046   5.925  0.0430  0.9402  0.3399
 4855SOL    HW116572   9.711   0.118   5.895  1.5549 -0.2407  0.2051
 4855SOL    HW216573   9.646   0.059   6.019  4.9445 -1.5333  1.4975
 4856SOL     OW16574   1.421   4.473   1.288 -0.4886 -0.4290  0.5149
 4856SOL    HW116575   1.487   4.477   1.357  1.1872  2.4488 -1.0792
 4856SOL    HW216576   1.338   4.491   1.334  0.6261  1.9691  1.8047
 4857SOL     OW16577   6.960  11.126   4.327  0.0352 -0.1885  0.0008
 4857SOL    HW116578   6.924  11.096   4.411  0.8193  1.7258  1.0868
 4857SOL    HW216579   7.055  11.117   4.337  0.2073  1.2359 -0.1744
 4858SOL     OW16580  10.313   5.088   3.589  0.5338 -0.0740 -0.7004
 4858SOL    HW116581  10.260   5.089   3.669  1.0327 -3.4312 -0.2058
 4858SOL    HW216582  10.402   5.106   3.620  0.8292 -2.0050 -0.3481
 4859SOL     OW16583   3.445   1.288  10.832  0.4607  0.3252  0.1596
 4859SOL    HW116584   3.486   1.357  10.779  0.0528  0.6044  0.2049
 4859SOL    HW216585   3.365   1.328  10.865 -0.9001 -0.8288 -1.5243
 4860SOL     OW16586   9.060   6.403   0.423  0.3984 -0.0818  0.0256
 4860SOL    HW116587   9.055   6.345   0.499 -0.5269 -0.0189  0.0191
 4860SOL    HW216588   9.012   6.482   0.450  0.3683  0.0854 -0.5017
 4861SOL     OW16589   1.720   9.179  10.444 -0.9070 -0.1777 -0.4301
 4861SOL    HW116590   1.711   9.134  10.360 -0.8099  0.8139 -0.9824
 4861SOL    HW216591   1.815   9.189  10.456 -0.9317 -0.0502 -0.3415
 4862SOL     OW16592   5.946   3.545   9.867 -0.0865  0.1571 -0.0076
 4862SOL    HW116593   5.897   3.579   9.942  0.7613 -1.7978  1.5198
 4862SOL    HW216594   5.898   3.466   9.841  0.0810  0.3794 -1.0149
 4863SOL     OW16595   4.784   5.875   9.531  0.6750 -0.4154  0.0600
 4863SOL    HW116596   4.730   5.864   9.453  0.8939 -1.5307  0.0479
 4863SOL    HW216597   4.729   5.846   9.604  0.4191  0.7632  0.3460
 4864SOL     OW16598   1.833   8.058   4.529  0.5908 -0.1289  0.1667
 4864SOL    HW116599   1.763   8.100   4.579  0.1426 -0.8798  0.1921
 4864SOL    HW216600   1.856   8.122   4.462 -2.1799 -0.9169 -1.7315
 4865SOL     OW16601   5.604   7.493   9.119  0.4020  0.2563 -0.7254
 4865SOL    HW116602   5.510   7.475   9.119  0.6504 -1.2652 -2.2114
 4865SOL    HW216603   5.645   7.407   9.124  1.6863  0.7562 -1.9240
 4866SOL     OW16604   4.408   4.173   9.908  0.4669  0.0981  0.2639
 4866SOL    HW116605   4.501   4.188   9.895  0.4997 -1.3288 -1.5083
 4866SOL    HW216606   4.373   4.259   9.930  2.3634  0.4146  2.3476
 4867SOL     OW16607   8.884   7.874   8.718  0.0247 -0.2241 -0.4865
 4867SOL    HW116608   8.815   7.909   8.662  1.4851  3.9871 -0.0347
 4867SOL    HW216609   8.864   7.909   8.805  1.4728 -0.8965  0.1486
 4868SOL     OW16610   7.189   9.753   4.416 -0.6556 -0.0525  0.0356
 4868SOL    HW116611   7.265   9.763   4.359 -0.0612 -0.3102  0.7670
 4868SOL    HW216612   7.195   9.663   4.448 -3.1403 -1.2931 -2.5128
 4869SOL     OW16613   2.394   8.338   1.485 -0.7382 -0.2503 -0.1481
 4869SOL    HW116614   2.329   8.274   1.513 -0.8378  0.2543  0.8099
 4869SOL    HW216615   2.377   8.351   1.391 -0.5130 -1.8479 -0.4443
 4870SOL     OW16616  10.412   7.997   6.733  0.0557  0.0655  0.0395
 4870SOL    HW116617  10.444   8.016   6.644  0.2925 -1.7448 -0.3062
 4870SOL    HW216618  10.477   7.935   6.768 -0.9938 -0.6370  0.7862
 4871SOL     OW16619   6.048  10.386  10.593  0.1774  0.1657  0.1576
 4871SOL    HW116620   6.143  10.393  10.583  0.6882 -3.2165  1.1193
 4871SOL    HW216621   6.022  10.466  10.638  2.4019  1.5795 -0.9274
 4872SOL     OW16622   2.942   9.315   0.486  0.3720 -0.6769  0.1265
 4872SOL    HW116623   2.976   9.402   0.505 -1.7428  0.2564  0.0164
 4872SOL    HW216624   2.909   9.283   0.570 -0.2478 -0.6870 -0.1130
 4873SOL     OW16625  11.152   7.173   2.862  0.7413  0.4519  0.4461
 4873SOL    HW116626  11.079   7.117   2.834  1.0510  0.9480 -1.5481
 4873SOL    HW216627  11.225   7.112   2.872 -0.1228 -0.2234  3.5822
 4874SOL     OW16628   7.931   3.806   6.622 -0.5433 -0.4315 -0.0412
 4874SOL    HW116629   7.915   3.807   6.528 -1.2267  0.5984  0.0654
 4874SOL    HW216630   8.020   3.842   6.632  1.0148 -3.8314 -0.4773
 4875SOL     OW16631   0.016   3.338   7.188 -0.2478  0.3830 -0.4404
 4875SOL    HW116632   0.073   3.408   7.157  1.1414  0.9907  3.0807
 4875SOL    HW216633  -0.033   3.376   7.260 -1.1292 -1.6628  0.1237
 4876SOL     OW16634   1.971   9.935   1.659 -0.9606  0.7538 -0.1291
 4876SOL    HW116635   1.973   9.938   1.563 -1.8961  0.7758 -0.1497
 4876SOL    HW216636   2.056   9.898   1.683 -0.2891  1.6974 -0.9227
 4877SOL     OW16637   0.983   3.357   4.503  0.1520 -0.0404  0.0194
 4877SOL    HW116638   1.042   3.289   4.470  1.1228  0.2900  1.0375
 4877SOL    HW216639   1.003   3.434   4.448  2.5863  0.8531  1.9792
 4878SOL     OW16640   7.126   2.566   5.097  0.2732  0.2370 -0.5551
 4878SOL    HW116641   7.162   2.533   5.180 -0.2007 -0.3069 -0.5600
 4878SOL    HW216642   7.083   2.648   5.120 -0.1071 -0.0584 -0.2053
 4879SOL     OW16643   4.564   8.995   0.706  0.4780 -0.0104  0.0153
 4879SOL    HW116644   4.623   8.977   0.633 -1.2026 -1.5244 -1.0323
 4879SOL    HW216645   4.515   8.914   0.719  1.0005  0.0544  3.1416
 4880SOL     OW16646   4.987   0.272   6.018  0.4231  0.2790  0.1774
 4880SOL    HW116647   4.893   0.274   5.999  0.2274  2.2539  1.0885
 4880SOL    HW216648   5.022   0.351   5.977  1.3310  0.5755  1.4536
 4881SOL     OW16649   2.623   3.111   0.153  0.2390 -0.2430  0.3081
 4881SOL    HW116650   2.608   3.167   0.229 -2.1392 -1.3273  0.7391
 4881SOL    HW216651   2.591   3.025   0.181  1.6930 -1.2889 -1.0919
 4882SOL     OW16652   4.053   4.968  10.100 -0.3743 -0.2939  0.0325
 4882SOL    HW116653   4.055   4.917  10.019 -3.1326 -0.8499  0.2117
 4882SOL    HW216654   4.137   4.950  10.143  1.2956  0.2722 -2.7853
 4883SOL     OW16655   3.956   7.156   9.713 -0.1284  0.3331  0.7876
 4883SOL    HW116656   4.019   7.228   9.721 -0.8367  0.8679  1.7786
 4883SOL    HW216657   3.996   7.084   9.763  0.3275  0.2035  0.2488
 4884SOL     OW16658   2.505   1.486   2.655 -0.0308  0.0128 -0.5518
 4884SOL    HW116659   2.503   1.551   2.725 -2.5128  0.2324 -0.7627
 4884SOL    HW216660   2.501   1.402   2.701 -0.5593  0.1239 -0.3908
 4885SOL     OW16661   4.587   3.232   8.992 -0.0907  0.0860  0.3030
 4885SOL    HW116662   4.545   3.244   8.907  1.8966  1.6545 -0.5364
 4885SOL    HW216663   4.648   3.159   8.979  1.7697  1.6689 -0.3407
 4886SOL     OW16664  10.968   9.630   0.447  0.5863  0.1180  0.1770
 4886SOL    HW116665  10.961   9.566   0.519  0.8936  1.4135  1.4109
 4886SOL    HW216666  10.901   9.695   0.468 -0.4174 -0.2850 -1.6094
 4887SOL     OW16667   2.858   7.771   8.075 -0.1365  0.1209 -0.2206
 4887SOL    HW116668   2.914   7.695   8.056  0.2546  0.4221 -0.2669
 4887SOL    HW216669   2.919   7.841   8.097 -0.4163  0.9039 -1.8097
 4888SOL     OW16670   8.451   8.496   2.395  0.3893 -0.2644  0.9544
 4888SOL    HW116671   8.369   8.489   2.346  0.7404 -3.2597  0.5674
 4888SOL    HW216672   8.442   8.576   2.447 -0.6258  2.3184 -2.7879
 4889SOL     OW16673  10.932   8.504   4.539 -0.0947 -0.7758 -0.1610
 4889SOL    HW116674  10.985   8.540   4.468 -0.1552 -0.3347  0.0116
 4889SOL    HW216675  10.896   8.422   4.504 -1.0073 -0.0312 -1.0363
 4890SOL     OW16676   5.907   2.575   0.778 -0.2528  1.1343  0.4550
 4890SOL    HW116677   5.954   2.535   0.852 -1.4145  1.0182  1.1648
 4890SOL    HW216678   5.974   2.587   0.711  0.3221 -1.3095  0.4872
 4891SOL     OW16679  11.276   6.781   2.294 -0.0623  0.5659 -0.1277
 4891SOL    HW116680  11.308   6.691   2.284 -2.0758 -0.4232  1.5483
 4891SOL    HW216681  11.214   6.792   2.221 -2.2371 -0.6536  1.4162
 4892SOL     OW16682   1.637   1.794   7.924 -0.3690 -0.9785 -0.1479
 4892SOL    HW116683   1.640   1.746   7.842 -1.0984  1.3420 -1.6428
 4892SOL    HW216684   1.546   1.823   7.932 -0.0525 -0.1828  0.8574
 4893SOL     OW16685   2.432   5.172   3.053 -0.1198  0.1581 -0.0734
 4893SOL    HW116686   2.461   5.261   3.032  0.4188  0.2029  0.8130
 4893SOL    HW216687   2.395   5.179   3.142 -0.0714 -0.5050  0.0069
 4894SOL     OW16688   3.426   1.007  10.254 -0.4601 -0.1438  0.6602
 4894SOL    HW116689   3.336   1.038  10.266 -0.7459 -0.9306  0.6547
 4894SOL    HW216690   3.446   0.962  10.336 -0.4257 -0.8008  0.2972
 4895SOL     OW16691  10.909   2.863   4.162 -0.5087  0.5033  0.6826
 4895SOL    HW116692  10.976   2.812   4.116 -1.7245  1.2218 -2.1176
 4895SOL    HW216693  10.950   2.948   4.176 -0.1313  0.2816  0.9658
 4896SOL     OW16694   5.976   5.034   0.211 -0.4985  1.2733  0.3737
 4896SOL    HW116695   5.970   4.991   0.297 -1.3705 -0.6256 -0.5797
 4896SOL    HW216696   5.983   5.127   0.232 -1.7388  0.9678  2.4914
 4897SOL     OW16697   0.224   9.084   4.710 -0.5722 -1.0800 -0.0487
 4897SOL    HW116698   0.303   9.106   4.662  0.0689  0.9492  1.7711
 4897SOL    HW216699   0.159   9.064   4.642  0.3751  1.2373 -1.7796
 4898SOL     OW16700   9.283   4.041   7.747 -0.1422 -0.5113  0.0450
 4898SOL    HW116701   9.205   4.086   7.780 -0.2939 -1.6444  1.3231
 4898SOL    HW216702   9.250   3.987   7.675 -0.0687  0.8804 -1.0756
 4899SOL     OW16703   7.021   2.165   1.857 -0.4972  0.1524  0.3977
 4899SOL    HW116704   6.964   2.098   1.819 -1.1569  1.6673 -1.4533
 4899SOL    HW216705   7.109   2.142   1.827 -0.7112  0.0542 -0.1693
 4900SOL     OW16706   7.178   0.581   0.515  0.0122  0.2612 -0.6372
 4900SOL    HW116707   7.109   0.580   0.449 -0.3769  1.3282 -0.2681
 4900SOL    HW216708   7.175   0.669   0.552 -0.3023 -0.5272  1.3297
 4901SOL     OW16709   6.605   7.583   4.251 -0.1162 -0.2506 -0.3315
 4901SOL    HW116710   6.584   7.564   4.160  0.3498 -0.4488 -0.3981
 4901SOL    HW216711   6.674   7.521   4.274 -2.1383 -2.1673  0.9984
 4902SOL     OW16712   1.715   4.382   8.624 -0.3156  0.5177  0.9177
 4902SOL    HW116713   1.757   4.321   8.563 -2.3560  0.8349 -0.9594
 4902SOL    HW216714   1.654   4.328   8.674 -1.0907  0.7524  0.2531
 4903SOL     OW16715   9.281   8.796   2.383 -0.4261  0.5390 -0.4661
 4903SOL    HW116716   9.302   8.719   2.437  1.0047  1.0594 -0.2163
 4903SOL    HW216717   9.356   8.855   2.397 -0.9485  1.4864 -1.5501
 4904SOL     OW16718   7.798   9.230   5.689  0.4977 -0.1560 -0.0716
 4904SOL    HW116719   7.829   9.140   5.673 -1.7359 -0.9597 -0.1770
 4904SOL    HW216720   7.785   9.266   5.601 -1.4747 -0.8314 -0.1102
 4905SOL     OW16721   6.450   5.398   9.290  0.1104  0.4977  0.5416
 4905SOL    HW116722   6.508   5.473   9.275 -1.4067  1.2663 -1.9687
 4905SOL    HW216723   6.452   5.386   9.385  2.3951  2.0560  0.7823
 4906SOL     OW16724  10.478   3.958   0.422 -0.0452  0.4912 -0.1835
 4906SOL    HW116725  10.428   4.037   0.446  0.5610  0.8421 -0.0610
 4906SOL    HW216726  10.570   3.984   0.430  0.1706 -0.3556  0.3012
 4907SOL     OW16727   7.508   8.475   3.042 -0.3936  0.8858 -0.5416
 4907SOL    HW116728   7.470   8.537   3.105 -0.1920 -1.6627  2.3323
 4907SOL    HW216729   7.434   8.446   2.989 -1.6238 -0.2427  1.6199
 4908SOL     OW16730   6.850   6.066   8.463 -0.0876 -0.8018 -0.0030
 4908SOL    HW116731   6.863   6.160   8.460 -1.1970 -0.5299  1.9689
 4908SOL    HW216732   6.849   6.039   8.372  2.3199  0.7503 -0.5869
 4909SOL     OW16733   1.543   8.841   1.127 -0.1912 -0.0400  0.2839
 4909SOL    HW116734   1.599   8.887   1.190  2.1789 -0.7382 -1.1871
 4909SOL    HW216735   1.594   8.765   1.099 -1.2966 -0.0041 -2.1456
 4910SOL     OW16736   0.053   2.319   2.809  0.0696 -0.4675 -0.1736
 4910SOL    HW116737  -0.024   2.294   2.758 -0.4474 -0.3354  0.5332
 4910SOL    HW216738   0.019   2.337   2.896  1.1930 -2.6821  0.8128
 4911SOL     OW16739   3.353   9.753   0.559  0.6285 -0.9400  0.9053
 4911SOL    HW116740   3.354   9.798   0.644  1.7822 -0.0527  0.4537
 4911SOL    HW216741   3.445   9.754   0.531  0.1432 -0.3732 -0.7665
 4912SOL     OW16742   6.354   9.157   9.814  0.2506 -0.3900  0.4108
 4912SOL    HW116743   6.337   9.229   9.753  0.5730  0.3765  1.2047
 4912SOL    HW216744   6.336   9.194   9.900  0.4626 -1.2609  0.8406
 4913SOL     OW16745   2.786   8.388   0.400  0.0497 -0.1175  0.4925
 4913SOL    HW116746   2.717   8.416   0.459 -0.5285  1.8690 -1.0321
 4913SOL    HW216747   2.812   8.467   0.353  0.1726 -1.6477 -2.2282
 4914SOL     OW16748  10.343   3.254   4.049  0.2195 -0.1426 -0.6892
 4914SOL    HW116749  10.309   3.321   3.990 -2.4468  1.1236  2.0715
 4914SOL    HW216750  10.268   3.199   4.070  1.0199 -0.5193  1.5006
 4915SOL     OW16751   5.127   1.197   6.221 -0.4230  0.0439  0.4936
 4915SOL    HW116752   5.114   1.201   6.316  0.0299  0.0278  0.5609
 4915SOL    HW216753   5.043   1.223   6.184 -0.2544  1.2315  0.9015
 4916SOL     OW16754   7.206   5.299   3.732  0.1334  0.1022 -0.5319
 4916SOL    HW116755   7.171   5.365   3.672 -2.0213 -0.9135 -0.5088
 4916SOL    HW216756   7.177   5.328   3.818 -2.5973 -1.7346 -0.6852
 4917SOL     OW16757   8.556   7.356   6.151  0.6184 -0.2110  0.0079
 4917SOL    HW116758   8.482   7.399   6.109  1.1190 -0.3819 -1.0817
 4917SOL    HW216759   8.615   7.428   6.174 -0.0708 -0.0259  1.3232
 4918SOL     OW16760   5.417   3.499   5.781  0.3704  0.5073 -0.9061
 4918SOL    HW116761   5.499   3.544   5.758 -0.6015  2.1221 -1.3359
 4918SOL    HW216762   5.393   3.537   5.865  1.1309 -1.5292  0.3053
 4919SOL     OW16763  11.086   0.873   7.013 -0.0517  0.3254  0.4391
 4919SOL    HW116764  11.065   0.894   6.922 -1.1852  0.8260  0.7979
 4919SOL    HW216765  11.032   0.933   7.065 -1.3949 -1.6571  1.4747
 4920SOL     OW16766   3.541   3.680   4.816 -0.2614 -0.3438 -0.1418
 4920SOL    HW116767   3.558   3.657   4.724 -0.7665 -0.7228 -0.1402
 4920SOL    HW216768   3.565   3.602   4.865  1.1142  0.2412  0.1711
 4921SOL     OW16769   7.973   1.774   9.935 -0.2924 -0.5698  0.5701
 4921SOL    HW116770   8.061   1.812   9.933 -0.1233 -0.9347 -1.7962
 4921SOL    HW216771   7.914   1.850   9.926 -0.0535 -0.5657 -1.3467
 4922SOL     OW16772   4.247   2.042   4.569  0.1371 -0.4036 -0.6032
 4922SOL    HW116773   4.326   2.061   4.620 -0.4768  0.5070  0.0305
 4922SOL    HW216774   4.228   1.950   4.587  0.6260 -0.4281 -0.1730
 4923SOL     OW16775   5.744   3.934  10.356 -0.5942  0.4605  0.3161
 4923SOL    HW116776   5.730   3.849  10.314 -3.0385  1.7884 -1.8082
 4923SOL    HW216777   5.659   3.956  10.395  0.8747  0.5122  3.8561
 4924SOL     OW16778   0.177   9.209   0.619 -0.3926  0.1702 -0.0489
 4924SOL    HW116779   0.154   9.211   0.712 -0.3755 -0.4863 -0.0242
 4924SOL    HW216780   0.226   9.290   0.605 -3.2302  1.9806 -0.2631
 4925SOL     OW16781  10.470  11.259   0.645 -0.5219  0.0436 -0.1440
 4925SOL    HW116782  10.394  11.202   0.655  0.8476 -1.8485  0.0633
 4925SOL    HW216783  10.525  11.213   0.581  0.2756  1.5814 -0.6067
 4926SOL     OW16784   1.762  10.256   3.425  0.0386  0.0229 -0.2108
 4926SOL    HW116785   1.831  10.308   3.384  0.9430 -0.8729  0.1448
 4926SOL    HW216786   1.682  10.280   3.378  1.1211 -1.4103 -2.9575
 4927SOL     OW16787   9.513   3.531   1.081  0.1396 -0.1103  0.5097
 4927SOL    HW116788   9.468   3.590   1.141 -0.8447 -2.5095  2.3240
 4927SOL    HW216789   9.544   3.460   1.138  1.7787 -1.0546 -1.4527
 4928SOL     OW16790   4.416   0.725  10.948  0.1736  0.0995  0.3166
 4928SOL    HW116791   4.480   0.758  10.885  0.8724 -1.2472  0.2679
 4928SOL    HW216792   4.343   0.786  10.943 -1.2214 -1.5353 -4.0909
 4929SOL     OW16793   3.482   0.625   0.962 -0.9037 -0.1268 -0.0119
 4929SOL    HW116794   3.479   0.708   1.011 -1.5805 -1.5938  2.6382
 4929SOL    HW216795   3.434   0.563   1.018 -0.5513 -2.2849 -1.9720
 4930SOL     OW16796   6.853   3.314   7.795  0.4023  0.6475 -0.0087
 4930SOL    HW116797   6.850   3.386   7.857 -0.0753  1.2402 -0.7039
 4930SOL    HW216798   6.945   3.287   7.793  0.3073  0.1235  1.4939
 4931SOL     OW16799  10.906   1.579   2.412 -0.0102  0.2709 -0.0084
 4931SOL    HW116800  10.887   1.622   2.328  0.1008  3.9242  1.6181
 4931SOL    HW216801  10.993   1.612   2.436 -0.4906  0.2095  2.0235
 4932SOL     OW16802   9.463   3.836  10.157  0.5321 -0.5528 -0.0902
 4932SOL    HW116803   9.457   3.873  10.245 -0.7890 -0.1407 -0.3308
 4932SOL    HW216804   9.414   3.898  10.102 -3.5893 -3.5155 -0.2009
 4933SOL     OW16805   5.814   1.956   7.998 -0.1181 -0.1909  0.0954
 4933SOL    HW116806   5.851   1.975   8.084  0.2355  0.9354 -0.2838
 4933SOL    HW216807   5.730   1.915   8.016  1.6123 -3.6925  0.9946
 4934SOL     OW16808   8.425   7.032   6.580  0.6649 -0.3019  0.1487
 4934SOL    HW116809   8.381   7.095   6.637  1.2377 -0.2557  0.5527
 4934SOL    HW216810   8.519   7.045   6.598  0.7951 -1.1879  0.1571
 4935SOL     OW16811   8.557  10.330   5.065 -0.2172 -0.1932 -0.0944
 4935SOL    HW116812   8.482  10.390   5.062  0.9403  1.3089 -1.6224
 4935SOL    HW216813   8.633  10.387   5.048  0.9878 -2.0356 -1.1959
 4936SOL     OW16814   3.292   6.001   5.392 -0.2648  0.5921  0.1125
 4936SOL    HW116815   3.199   5.983   5.408  0.5559 -2.2449  2.8718
 4936SOL    HW216816   3.306   5.975   5.301 -2.0512  0.5189 -0.1872
 4937SOL     OW16817   6.480   7.435   4.494  0.2609  0.2105  0.2141
 4937SOL    HW116818   6.462   7.358   4.547 -0.4564 -0.9518 -1.6131
 4937SOL    HW216819   6.561   7.413   4.448  0.1718  0.6383 -0.1530
 4938SOL     OW16820   4.139   6.862   4.628 -0.1396 -0.7131  0.2590
 4938SOL    HW116821   4.079   6.840   4.699 -1.9948  1.7671 -0.3753
 4938SOL    HW216822   4.149   6.957   4.635  0.5777 -0.5625 -2.0479
 4939SOL     OW16823   1.139   7.259   4.222 -0.3781 -0.1491 -0.0528
 4939SOL    HW116824   1.196   7.182   4.226 -1.9648 -1.3257  1.2133
 4939SOL    HW216825   1.191   7.329   4.263  1.5532 -0.1407 -2.2984
 4940SOL     OW16826   0.031   3.680   6.609 -0.3200  0.8705 -0.2589
 4940SOL    HW116827  -0.015   3.681   6.693 -0.0842  2.1941 -0.1368
 4940SOL    HW216828  -0.030   3.721   6.548 -1.0306 -1.2257 -1.0623
 4941SOL     OW16829   2.479   9.454   4.494 -0.3660 -0.2842 -0.0554
 4941SOL    HW116830   2.501   9.373   4.540  0.5853  1.1493  2.1408
 4941SOL    HW216831   2.552   9.467   4.433 -1.6956 -2.2544 -2.2787
 4942SOL     OW16832   1.664   9.138   3.671 -0.1461  0.6740  0.2890
 4942SOL    HW116833   1.629   9.053   3.698  0.0308  0.3521 -0.4556
 4942SOL    HW216834   1.612   9.202   3.720 -0.1324  0.1359  1.0255
 4943SOL     OW16835   1.742   8.843   0.675 -0.4503  0.2552 -1.2591
 4943SOL    HW116836   1.784   8.821   0.758 -0.9482  4.0192  0.2035
 4943SOL    HW216837   1.649   8.848   0.696 -0.8844 -1.1117 -2.7022
 4944SOL     OW16838   5.415  10.293   2.267  0.1321 -0.2011 -0.3043
 4944SOL    HW116839   5.344  10.267   2.207 -1.3397  0.9587  0.8616
 4944SOL    HW216840   5.371  10.311   2.350  1.9851 -0.6924  0.8464
 4945SOL     OW16841   2.336   4.363   8.114 -0.5362 -0.1828 -0.2977
 4945SOL    HW116842   2.380   4.339   8.033 -0.9551 -1.0826 -0.2782
 4945SOL    HW216843   2.269   4.295   8.126 -1.0772  0.4359  0.3319
 4946SOL     OW16844   7.962  10.763   9.839 -0.4314  0.5403 -0.0179
 4946SOL    HW116845   8.044  10.773   9.887 -1.1312  0.4522  1.2605
 4946SOL    HW216846   7.899  10.816   9.889 -1.3685 -0.2017 -0.3864
 4947SOL     OW16847   2.993   2.695   2.480  0.1775  0.4414  1.0136
 4947SOL    HW116848   3.083   2.705   2.512  0.2874  3.5706  0.1199
 4947SOL    HW216849   2.944   2.663   2.556  1.5295  1.6393  2.4780
 4948SOL     OW16850   1.944   4.909   2.673 -0.3388  0.1774  0.2209
 4948SOL    HW116851   2.031   4.873   2.656 -0.7160 -1.1090  0.8744
 4948SOL    HW216852   1.953   4.954   2.758  0.3967  2.6698 -1.0606
 4949SOL     OW16853   9.569  10.266   5.324 -0.5558 -0.0157  0.2473
 4949SOL    HW116854   9.530  10.327   5.263 -1.2416 -1.3341 -0.6892
 4949SOL    HW216855   9.530  10.181   5.302  2.6139 -1.4046 -0.5730
 4950SOL     OW16856  10.282   3.018   7.326  0.4840  0.5831  0.7794
 4950SOL    HW116857  10.332   2.941   7.354  0.6497  0.1179 -0.7072
 4950SOL    HW216858  10.281   3.013   7.230  2.3098  3.5570  0.4722
 4951SOL     OW16859   4.757   1.795   2.638  0.7464 -0.3729  0.0941
 4951SOL    HW116860   4.791   1.828   2.555  1.2184  2.7324  1.3792
 4951SOL    HW216861   4.673   1.840   2.650  1.1923  0.0766  1.7735
 4952SOL     OW16862   8.578   8.583   9.672 -0.1271 -0.4045  0.7925
 4952SOL    HW116863   8.632   8.544   9.741  1.5779 -0.5920 -0.5906
 4952SOL    HW216864   8.640   8.614   9.607 -1.6488  0.7277 -0.1931
 4953SOL     OW16865   9.063   2.206   3.427  0.2636 -0.7575  0.5620
 4953SOL    HW116866   9.001   2.275   3.403 -1.6756 -2.9396 -1.2044
 4953SOL    HW216867   9.134   2.213   3.363 -1.3690 -2.0776 -1.5449
 4954SOL     OW16868   5.335   1.742   5.471  0.0052  0.2877  0.4546
 4954SOL    HW116869   5.306   1.831   5.453  0.1393  0.4254  0.9182
 4954SOL    HW216870   5.415   1.732   5.420 -1.0897 -0.2684 -1.2630
 4955SOL     OW16871   1.048   5.085   1.108  0.8315 -0.8053 -0.1157
 4955SOL    HW116872   1.126   5.031   1.096  2.3833  0.9777  1.3221
 4955SOL    HW216873   1.081   5.175   1.114 -1.5416  0.2889 -1.5162
 4956SOL     OW16874   8.876   4.740   9.789  0.9705  1.0816  0.3047
 4956SOL    HW116875   8.933   4.805   9.830  0.1592  1.9321  0.1005
 4956SOL    HW216876   8.911   4.730   9.701  0.6690  1.7620  0.1096
 4957SOL     OW16877   7.323   5.874   6.031  0.9464 -0.3067 -0.5989
 4957SOL    HW116878   7.241   5.924   6.027  1.2041  0.3300  1.3540
 4957SOL    HW216879   7.297   5.791   6.071  0.9479 -0.8393 -1.6721
 4958SOL     OW16880   5.459   7.990   1.328  0.0008  0.1768 -0.3176
 4958SOL    HW116881   5.497   7.908   1.297  0.0271  1.0273 -2.7687
 4958SOL    HW216882   5.528   8.055   1.315 -0.8276  0.9878 -0.7687
 4959SOL     OW16883  10.975   0.539   4.847  0.4397 -0.1272 -0.2063
 4959SOL    HW116884  10.948   0.473   4.783 -2.6982  0.5899  0.2340
 4959SOL    HW216885  11.024   0.603   4.795  1.5211 -1.5870 -1.0604
 4960SOL     OW16886   6.726   5.190   9.483 -0.2454 -0.3416 -0.4092
 4960SOL    HW116887   6.804   5.135   9.492  1.2287  1.5308 -1.0328
 4960SOL    HW216888   6.698   5.178   9.392  1.7939  1.9368 -1.4657
 4961SOL     OW16889   0.208   0.735   0.853 -0.8116  0.0297  0.0453
 4961SOL    HW116890   0.286   0.684   0.830 -1.1870 -0.8423  0.6630
 4961SOL    HW216891   0.137   0.672   0.852 -1.3799  0.6575  0.3075
 4962SOL     OW16892   2.304   3.888   3.615  0.0499 -0.0893 -0.2668
 4962SOL    HW116893   2.278   3.831   3.687 -3.0242  1.1454 -0.2624
 4962SOL    HW216894   2.323   3.829   3.542  1.1567 -1.2380  0.9053
 4963SOL     OW16895   7.608   2.022   0.244 -0.1087 -0.7658  0.0939
 4963SOL    HW116896   7.643   2.110   0.225  1.4908 -0.7677  2.6374
 4963SOL    HW216897   7.515   2.036   0.259  0.0867  0.4565  0.2639
 4964SOL     OW16898  10.326   1.944   3.640  0.2755 -0.1714  0.3690
 4964SOL    HW116899  10.378   1.982   3.711  3.7671  3.8701 -3.7898
 4964SOL    HW216900  10.377   1.869   3.610  2.2015  1.7596 -1.5111
 4965SOL     OW16901   4.195   6.346   4.424 -0.2729 -0.2620  0.1883
 4965SOL    HW116902   4.124   6.371   4.364  0.6537 -0.2971 -0.9451
 4965SOL    HW216903   4.214   6.426   4.473  0.1182  0.2423 -0.7730
 4966SOL     OW16904   0.797   1.224   1.490  0.1553  0.0419 -0.5077
 4966SOL    HW116905   0.846   1.272   1.423 -0.6150  1.1190 -0.3376
 4966SOL    HW216906   0.706   1.230   1.461  0.0985 -1.9018 -0.8087
 4967SOL     OW16907   1.770   5.684   3.286 -0.8812 -0.6334 -0.2229
 4967SOL    HW116908   1.732   5.768   3.313  0.6531 -0.3749  1.3078
 4967SOL    HW216909   1.738   5.622   3.352  1.1670 -0.4232  1.0582
 4968SOL     OW16910   2.781   8.028   8.678  0.1227 -0.8563 -0.3332
 4968SOL    HW116911   2.729   7.953   8.649 -0.8582 -0.0323 -0.7760
 4968SOL    HW216912   2.872   8.001   8.665 -0.2395 -1.4665 -1.7512
 4969SOL     OW16913   7.650   0.626   2.912 -0.1672 -0.1134 -0.3334
 4969SOL    HW116914   7.706   0.579   2.851  0.9674 -0.3805  0.8666
 4969SOL    HW216915   7.612   0.697   2.860  1.4270  0.1850 -1.1524
 4970SOL     OW16916   9.289   0.651   6.773  0.0090 -0.2165 -0.5239
 4970SOL    HW116917   9.317   0.692   6.855 -3.5828 -0.9565  1.2778
 4970SOL    HW216918   9.316   0.560   6.781  1.0232  0.0370 -0.9167
 4971SOL     OW16919   3.356  10.224   9.071 -0.0667  0.5156  0.5126
 4971SOL    HW116920   3.286  10.170   9.107  0.7728 -1.7858 -1.0934
 4971SOL    HW216921   3.336  10.230   8.977  1.2945  0.7618  0.2216
 4972SOL     OW16922   3.448   0.884   1.033 -0.3543 -0.1273 -0.1526
 4972SOL    HW116923   3.442   0.936   0.953  3.3992 -1.8312 -1.7844
 4972SOL    HW216924   3.523   0.920   1.080 -0.5762 -1.1438  1.0363
 4973SOL     OW16925   3.921   1.726   2.382 -0.1046  0.3000  0.6905
 4973SOL    HW116926   3.911   1.817   2.409 -0.3372  0.6219 -0.4263
 4973SOL    HW216927   3.996   1.726   2.323  0.0692 -0.2892  0.9018
 4974SOL     OW16928   3.400   6.212   6.998 -0.2440 -0.5394  0.6981
 4974SOL    HW116929   3.393   6.118   7.017  0.1863 -0.6235  0.4627
 4974SOL    HW216930   3.339   6.227   6.926  3.1342 -1.6558 -2.7230
 4975SOL     OW16931   0.242   0.064   7.513 -0.2670 -0.4089  0.6507
 4975SOL    HW116932   0.211   0.072   7.603 -0.5016  1.7524  0.4284
 4975SOL    HW216933   0.337   0.072   7.520 -0.2214 -1.0117  0.7657
 4976SOL     OW16934   1.918   3.071   7.393 -0.0545 -0.3218  0.3835
 4976SOL    HW116935   1.829   3.098   7.418 -0.3611 -0.6815 -0.2937
 4976SOL    HW216936   1.975   3.138   7.430 -0.7643  1.0439 -0.9186
 4977SOL     OW16937   2.716   0.253  10.582  0.0442  0.1710  0.4290
 4977SOL    HW116938   2.758   0.290  10.504 -0.2136  1.4005  0.8662
 4977SOL    HW216939   2.760   0.169  10.594  2.4004  1.3864  0.8560
 4978SOL     OW16940   2.299   1.301   2.469 -0.3746  0.9139  0.1606
 4978SOL    HW116941   2.207   1.327   2.466 -0.4822  0.4235 -1.2623
 4978SOL    HW216942   2.347   1.384   2.465 -0.7231  1.1971  1.2664
 4979SOL     OW16943   1.968   5.931   6.234  0.0839 -0.2762 -0.0928
 4979SOL    HW116944   1.976   5.917   6.139  0.4443 -1.1441  0.0563
 4979SOL    HW216945   1.891   5.880   6.259 -1.4903  1.8636 -0.2718
 4980SOL     OW16946   3.660   4.431   0.659  0.0013  0.6027  0.4181
 4980SOL    HW116947   3.735   4.462   0.709 -1.0688  0.5371  2.1438
 4980SOL    HW216948   3.693   4.355   0.611  0.8916  0.1349  1.7064
 4981SOL     OW16949   0.210   0.966   5.248 -0.3621 -0.5684  0.5556
 4981SOL    HW116950   0.210   1.015   5.330  1.2428  0.2923  0.0911
 4981SOL    HW216951   0.297   0.927   5.244  0.0905  0.5025 -1.3245
 4982SOL     OW16952   2.972   4.365   7.261  0.4319 -0.9544 -0.3935
 4982SOL    HW116953   2.944   4.413   7.340 -0.3230 -3.2180  0.8073
 4982SOL    HW216954   2.938   4.417   7.189 -0.1727  0.4275  0.8198
 4983SOL     OW16955   7.467   2.862   7.409  0.5883 -0.8577 -0.2172
 4983SOL    HW116956   7.557   2.859   7.376  0.4521 -1.6972 -0.5356
 4983SOL    HW216957   7.466   2.937   7.468  1.6345 -1.1355  0.1885
 4984SOL     OW16958   0.759   5.086   3.604  0.1722 -0.1279 -0.3370
 4984SOL    HW116959   0.697   5.077   3.532 -0.3554  1.9355 -0.2102
 4984SOL    HW216960   0.738   5.014   3.663 -1.7026  0.1274 -0.6192
 4985SOL     OW16961   0.567   0.031   9.446 -0.4249  0.2294  0.4025
 4985SOL    HW116962   0.587   0.035   9.539 -2.5240  0.0971  0.9252
 4985SOL    HW216963   0.640  -0.017   9.407  1.6091  2.2051  1.5804
 4986SOL     OW16964   6.613  10.552   7.322  0.2372  0.3553 -0.2229
 4986SOL    HW116965   6.697  10.558   7.368  0.0871  1.0500 -0.0427
 4986SOL    HW216966   6.551  10.599   7.377 -0.0029  0.9435 -0.9845
 4987SOL     OW16967   0.048   0.755   9.419  0.4510  0.7611  0.2194
 4987SOL    HW116968   0.074   0.691   9.352  0.1691  0.5668  0.2974
 4987SOL    HW216969  -0.037   0.725   9.449 -0.4056  2.0218 -0.8216
 4988SOL     OW16970  11.045   6.287   6.342 -0.3776  0.2141 -0.1256
 4988SOL    HW116971  10.953   6.261   6.337 -0.9507  1.1018  3.2558
 4988SOL    HW216972  11.043   6.382   6.335  0.3533  0.2057 -0.4741
 4989SOL     OW16973   4.548   2.986   3.598  0.2595  0.4687  0.3277
 4989SOL    HW116974   4.463   2.948   3.579  0.5765  0.7243 -1.9402
 4989SOL    HW216975   4.555   2.984   3.693 -1.3307 -1.5752  0.4677
 4990SOL     OW16976   1.316   8.346   7.064 -0.0845 -0.5580  0.0196
 4990SOL    HW116977   1.403   8.369   7.097 -0.8106  1.3470  0.7557
 4990SOL    HW216978   1.279   8.289   7.132  0.6606 -1.6176 -0.4332
 4991SOL     OW16979  10.290   0.057   2.091 -0.2491 -0.2234 -0.2299
 4991SOL    HW116980  10.272   0.135   2.144 -0.4982 -0.7081  0.4096
 4991SOL    HW216981  10.218  -0.002   2.110  0.1892 -0.7996 -0.3449
 4992SOL     OW16982   6.716   7.330  11.000  0.0099  0.1316  0.7739
 4992SOL    HW116983   6.675   7.320  10.914  0.6400  1.3121  0.3130
 4992SOL    HW216984   6.660   7.392  11.046  0.2451  0.3102  0.8229
 4993SOL     OW16985  10.329   2.215   6.999  0.4600 -0.9062 -0.6320
 4993SOL    HW116986  10.329   2.275   6.925 -0.8897 -2.3997 -1.9042
 4993SOL    HW216987  10.266   2.147   6.976 -1.5884 -0.4105  2.7239
 4994SOL     OW16988   5.703   6.509   6.465 -0.1306 -0.0067  0.4663
 4994SOL    HW116989   5.756   6.520   6.386 -0.6527 -0.2260  0.0762
 4994SOL    HW216990   5.755   6.548   6.535  0.1542  0.5833 -0.0592
 4995SOL     OW16991   6.827   7.120   3.339 -0.0049 -0.6410  0.0201
 4995SOL    HW116992   6.778   7.095   3.418 -1.0924  0.3327 -0.3250
 4995SOL    HW216993   6.917   7.133   3.371 -0.2088 -1.2316  0.8997
 4996SOL     OW16994   7.570   3.176   4.570 -0.0464  0.6784 -0.3799
 4996SOL    HW116995   7.566   3.097   4.624 -0.2956 -0.3391 -1.8298
 4996SOL    HW216996   7.557   3.248   4.632 -0.9974 -0.4679  0.8141
 4997SOL     OW16997   5.857   0.453   9.341 -0.0350 -0.7781  0.1969
 4997SOL    HW116998   5.771   0.495   9.334  0.1041 -0.5785 -0.4273
 4997SOL    HW216999   5.907   0.488   9.267  0.6248 -0.8014  0.6149
 4998SOL     OW17000  10.497   7.642   7.146 -0.4251  0.0620 -1.0096
 4998SOL    HW117001  10.473   7.733   7.130  0.8220  0.8102  1.0570
 4998SOL    HW217002  10.581   7.631   7.101 -0.2651  0.1219 -0.7263
 4999SOL     OW17003   9.182   3.488   9.934  0.0866  0.1090  0.7339
 4999SOL    HW117004   9.260   3.510   9.883  1.5371 -2.1242  1.8417
 4999SOL    HW217005   9.214   3.472  10.022 -1.1959 -2.9275  0.7830
 5000SOL     OW17006   2.199   2.774   1.312  0.1048 -0.3578  0.1610
 5000SOL    HW117007   2.225   2.717   1.384  1.3429  0.6491  0.5562
 5000SOL    HW217008   2.180   2.858   1.354  0.0108  0.0036 -0.5950
 5001SOL     OW17009   7.880   9.535  10.549  0.2631 -0.0315  0.1948
 5001SOL    HW117010   7.906   9.477  10.621 -1.6901 -1.2268  0.0001
 5001SOL    HW217011   7.795   9.502  10.520 -1.0541  3.0085  0.1560
 5002SOL     OW17012   6.610   3.099   3.123 -0.0786 -0.5418  0.1600
 5002SOL    HW117013   6.643   3.152   3.196  0.0914  1.8192 -1.4967
 5002SOL    HW217014   6.684   3.045   3.096  0.9779  1.1022 -0.3805
 5003SOL     OW17015   8.126   5.607  10.135 -0.2259  0.2041 -0.5340
 5003SOL    HW117016   8.158   5.683  10.086 -0.8247  1.9054  1.5237
 5003SOL    HW217017   8.053   5.574  10.083  0.1401  0.9484 -1.5479
 5004SOL     OW17018   3.936   1.710   7.017 -0.1719  0.6542 -0.2091
 5004SOL    HW117019   3.950   1.798   6.982 -0.1536  0.1947 -1.3858
 5004SOL    HW217020   3.945   1.652   6.941 -0.1543 -0.3665  0.5569
 5005SOL     OW17021   1.689  10.195   6.757  0.6234 -0.4562  0.0328
 5005SOL    HW117022   1.656  10.106   6.767  0.3096 -0.6541 -2.1901
 5005SOL    HW217023   1.783  10.183   6.741  0.7716 -0.2896  0.7337
 5006SOL     OW17024   1.623   5.343  10.970 -0.3339  0.0505 -0.5139
 5006SOL    HW117025   1.544   5.330  11.023 -1.1410  1.0435 -1.4338
 5006SOL    HW217026   1.686   5.279  11.005 -1.3532 -0.3871  0.5941
 5007SOL     OW17027   1.593   3.850   6.359  0.3652  0.4051 -0.0780
 5007SOL    HW117028   1.563   3.795   6.432  2.1053 -3.2666 -1.9001
 5007SOL    HW217029   1.557   3.937   6.379 -0.2044 -0.6269  4.4977
 5008SOL     OW17030   0.476   0.997   5.659 -0.2127 -0.6249  0.0600
 5008SOL    HW117031   0.508   1.067   5.603 -1.1550  1.3202  1.8363
 5008SOL    HW217032   0.549   0.979   5.719 -0.2305 -0.6368  0.0783
 5009SOL     OW17033   6.188   2.449   8.940  0.2385 -0.3675 -0.4635
 5009SOL    HW117034   6.201   2.381   9.006  2.0076  0.3194 -0.0597
 5009SOL    HW217035   6.232   2.416   8.862  0.7413  0.1234 -0.3927
 5010SOL     OW17036   0.777   9.126   3.217  0.1113 -0.0535  0.2544
 5010SOL    HW117037   0.685   9.148   3.202 -0.1140 -1.1021  0.0317
 5010SOL    HW217038   0.817   9.208   3.247 -1.0180  0.2742  0.9025
 5011SOL     OW17039   3.043   4.176   2.324  0.4403  0.3130 -0.0872
 5011SOL    HW117040   2.975   4.112   2.300 -0.5145  2.1107 -2.6056
 5011SOL    HW217041   3.004   4.226   2.396  0.3920 -0.6034  0.5464
 5012SOL     OW17042   8.425   1.296   4.235 -0.6877  0.7387 -0.0520
 5012SOL    HW117043   8.370   1.361   4.191  0.1894 -0.0177 -2.4211
 5012SOL    HW217044   8.450   1.235   4.166  1.5165 -0.0613  1.3526
 5013SOL     OW17045   0.042  10.056   2.089 -0.5113 -0.0153  0.5443
 5013SOL    HW117046   0.030  10.066   1.994 -1.9268 -0.8926  0.6099
 5013SOL    HW217047   0.135  10.034   2.098 -0.1473  0.9459 -0.5520
 5014SOL     OW17048   4.684   2.766   9.822 -0.0301  0.8164 -0.1296
 5014SOL    HW117049   4.677   2.672   9.804  0.2854  0.0866  3.0065
 5014SOL    HW217050   4.631   2.807   9.754 -2.9615 -1.8727  0.2760
 5015SOL     OW17051   7.753   0.226   8.853 -0.3507  0.9785  0.2521
 5015SOL    HW117052   7.810   0.223   8.930  0.0397  2.7662  0.0640
 5015SOL    HW217053   7.671   0.264   8.885 -1.0774 -0.4954  0.2625
 5016SOL     OW17054   6.730   6.755   3.001  0.0815  0.2318  0.6411
 5016SOL    HW117055   6.777   6.757   3.084 -0.3352  0.3926  0.8722
 5016SOL    HW217056   6.693   6.667   2.995 -1.3704  0.7601  1.4562
 5017SOL     OW17057   2.543   7.136   7.348 -0.1006 -0.0805  0.1598
 5017SOL    HW117058   2.466   7.081   7.336  0.2897 -0.4049 -1.0289
 5017SOL    HW217059   2.591   7.094   7.419  0.6920 -1.9109 -1.3581
 5018SOL     OW17060  10.711   6.005   6.398 -0.5215  0.1774 -0.3495
 5018SOL    HW117061  10.787   5.977   6.347  0.0204  0.0313  0.5084
 5018SOL    HW217062  10.708   5.944   6.472 -0.2168  1.4396  0.7514
 5019SOL     OW17063   8.648   8.445  10.672  0.6443 -0.2986 -0.1567
 5019SOL    HW117064   8.573   8.465  10.617  1.7186  3.8151 -0.4268
 5019SOL    HW217065   8.620   8.467  10.761  0.5038 -2.1912  0.3236
 5020SOL     OW17066   3.663   8.629   8.087  0.1744 -0.6426 -0.5819
 5020SOL    HW117067   3.649   8.591   8.001 -0.2937  0.8976 -1.2213
 5020SOL    HW217068   3.577   8.665   8.111  0.8317  0.9263 -0.4963
 5021SOL     OW17069   4.756   3.503   1.490  0.5358  0.3012  0.4165
 5021SOL    HW117070   4.759   3.426   1.433 -0.1002 -0.2001  1.0296
 5021SOL    HW217071   4.672   3.495   1.536  2.3660 -1.1521  3.8689
 5022SOL     OW17072   7.407  10.701   2.273  0.4638  0.6944 -0.0365
 5022SOL    HW117073   7.482  10.704   2.214  0.8597  1.5573  0.4914
 5022SOL    HW217074   7.335  10.741   2.223  1.2161  3.0228  0.5942
 5023SOL     OW17075   7.675   5.897   3.625  0.6192  0.3881 -0.2684
 5023SOL    HW117076   7.668   5.947   3.543 -0.7796 -0.7778 -0.8928
 5023SOL    HW217077   7.604   5.931   3.680  0.9521  0.4908  0.1068
 5024SOL     OW17078  11.050   5.441   5.336  0.4266 -0.0758  0.1658
 5024SOL    HW117079  11.114   5.440   5.407 -0.4727 -1.9712  1.0370
 5024SOL    HW217080  10.965   5.433   5.381 -0.2153 -0.3728 -1.0696
 5025SOL     OW17081   2.143   4.091   5.075  0.1377  0.2046 -0.4675
 5025SOL    HW117082   2.222   4.127   5.115 -0.5778  1.0671  0.2163
 5025SOL    HW217083   2.094   4.168   5.048 -1.0046 -0.2739  0.1791
 5026SOL     OW17084   8.963   1.525   6.553 -0.0222  0.7135 -0.4634
 5026SOL    HW117085   8.897   1.586   6.584  0.0113  0.5285 -0.0153
 5026SOL    HW217086   9.036   1.580   6.525 -0.3772  0.9179 -0.9913
 5027SOL     OW17087   1.028  11.028   6.431 -0.0721 -0.4925 -1.0013
 5027SOL    HW117088   1.030  10.983   6.515 -2.9260  0.9931 -0.0049
 5027SOL    HW217089   1.060  11.116   6.450 -0.7184 -0.1522 -1.4525
 5028SOL     OW17090   8.111   2.937   5.508  0.2126  0.0412 -1.1340
 5028SOL    HW117091   8.175   2.866   5.509 -1.7621 -2.0473 -4.3792
 5028SOL    HW217092   8.029   2.895   5.534 -1.1199  0.8963 -3.6407
 5029SOL     OW17093   3.967   5.474   8.111  0.3005 -0.1714  0.4650
 5029SOL    HW117094   4.048   5.523   8.103 -0.4966  1.3279  1.1537
 5029SOL    HW217095   3.900   5.540   8.131 -0.9741 -1.4306  0.5677
 5030SOL     OW17096   1.079   2.589  11.159 -0.7718  0.4735  0.3650
 5030SOL    HW117097   1.084   2.661  11.096 -1.0298  0.2968  0.1457
 5030SOL    HW217098   1.001   2.540  11.134 -0.6666  0.1887  0.5936
 5031SOL     OW17099   3.098   1.264   9.290 -0.4300  0.5414  0.0277
 5031SOL    HW117100   3.186   1.302   9.292 -0.3218  0.4600 -1.6328
 5031SOL    HW217101   3.110   1.174   9.319  0.1560  0.3514 -0.7720
 5032SOL     OW17102   2.788   9.897   7.394 -0.4147  1.1340  0.3687
 5032SOL    HW117103   2.728   9.843   7.446 -0.7437  2.4635  1.4332
 5032SOL    HW217104   2.737   9.924   7.317 -0.9284  1.5737  0.8546
 5033SOL     OW17105   0.844   4.440  11.220 -0.7910 -0.0669  0.0754
 5033SOL    HW117106   0.776   4.374  11.209 -2.1349  1.4720 -1.2855
 5033SOL    HW217107   0.888   4.416  11.302 -0.1763 -3.4905 -1.1291
 5034SOL     OW17108   1.422   0.731   4.001 -0.4121  0.3108  0.0511
 5034SOL    HW117109   1.449   0.641   3.983 -0.3257  0.4656 -0.6181
 5034SOL    HW217110   1.334   0.723   4.038  0.1260 -0.1316  1.2616
 5035SOL     OW17111   8.857   2.675   4.267  0.7200 -0.3464 -0.3142
 5035SOL    HW117112   8.765   2.696   4.280  0.7910  1.2157 -1.9044
 5035SOL    HW217113   8.890   2.655   4.354 -1.0304 -0.5790  0.3262
 5036SOL     OW17114   1.245   4.417   9.865  0.2897 -0.0623  0.3270
 5036SOL    HW117115   1.245   4.323   9.847 -0.8118  0.1097 -0.7847
 5036SOL    HW217116   1.337   4.442   9.865  0.6116 -1.2058  1.0333
 5037SOL     OW17117   0.348   6.355   5.670  0.2852  0.0180 -0.3747
 5037SOL    HW117118   0.255   6.334   5.661 -0.2887  2.3037 -0.6714
 5037SOL    HW217119   0.388   6.276   5.704 -1.4421 -1.6467 -1.9515
 5038SOL     OW17120   0.773   8.834   8.841  0.1144  0.2295  0.0855
 5038SOL    HW117121   0.710   8.771   8.806  0.6441  0.1632 -0.7638
 5038SOL    HW217122   0.823   8.783   8.905  0.2686 -0.1049 -0.2987
 5039SOL     OW17123   7.040   3.328   4.707  0.5693  0.7443  0.1704
 5039SOL    HW117124   7.113   3.272   4.681  0.3848  1.0483 -1.0709
 5039SOL    HW217125   6.965   3.269   4.711  0.0333  1.0918 -2.7150
 5040SOL     OW17126   6.932   3.451   5.290  0.0784  0.8411 -0.3452
 5040SOL    HW117127   6.903   3.360   5.296  0.5433  0.7011 -0.1808
 5040SOL    HW217128   6.881   3.488   5.218 -0.5800  0.6279  0.0021
 5041SOL     OW17129   4.248   3.511   7.004 -0.2650  0.0384  0.3091
 5041SOL    HW117130   4.272   3.420   6.986  1.1033  0.7702 -1.9415
 5041SOL    HW217131   4.320   3.545   7.057  1.1811  0.7543 -1.9660
 5042SOL     OW17132   0.979   9.418   0.190  0.2524  0.0191  0.3768
 5042SOL    HW117133   1.006   9.382   0.105  0.3565 -1.1625  0.8883
 5042SOL    HW217134   1.011   9.508   0.189  1.6888 -0.4693 -0.1885
 5043SOL     OW17135   0.689  11.118   9.063 -0.1630  0.3582  0.0056
 5043SOL    HW117136   0.648  11.081   9.141 -1.0037  1.3657  0.0613
 5043SOL    HW217137   0.632  11.089   8.991 -0.2461  0.6915 -0.0628
 5044SOL     OW17138   9.111   7.338   8.016 -0.8966 -0.2244 -0.3408
 5044SOL    HW117139   9.167   7.263   8.036 -1.2563 -0.7356 -1.2188
 5044SOL    HW217140   9.045   7.337   8.085  0.2456  0.4994  0.8254
 5045SOL     OW17141   0.890   8.213   4.161  0.0293 -0.8854 -0.1282
 5045SOL    HW117142   0.830   8.168   4.102  1.4142  1.3412 -3.5579
 5045SOL    HW217143   0.872   8.306   4.147  0.4814 -0.2038  3.0586
 5046SOL     OW17144  10.997   9.640   6.967  0.2705 -0.4068  0.4096
 5046SOL    HW117145  11.073   9.644   6.909 -0.1645 -1.0506 -0.2245
 5046SOL    HW217146  10.952   9.559   6.942 -0.2874 -0.3575  1.2038
 5047SOL     OW17147   0.609  11.142   5.876 -0.3769 -0.0358 -0.3209
 5047SOL    HW117148   0.600  11.052   5.844 -1.7357 -0.0835  0.1635
 5047SOL    HW217149   0.542  11.191   5.829  0.5405  0.8141 -0.7929
 5048SOL     OW17150   4.414   8.880   3.965  0.1154 -0.2115 -0.1434
 5048SOL    HW117151   4.401   8.815   4.034 -0.0164  1.0602  1.0679
 5048SOL    HW217152   4.369   8.843   3.889  0.7333 -1.9006  0.2615
 5049SOL     OW17153   6.857   5.838   7.308  0.3709  0.0291 -0.4960
 5049SOL    HW117154   6.944   5.844   7.268  0.1424  2.1583 -0.7867
 5049SOL    HW217155   6.809   5.777   7.251  1.4768 -0.7131 -0.6689
 5050SOL     OW17156   8.986   1.840   6.736 -0.4267 -0.7744  0.1767
 5050SOL    HW117157   9.044   1.909   6.705  1.0403 -1.8798  0.3648
 5050SOL    HW217158   8.899   1.865   6.704  0.5079 -0.2772 -2.1530
 5051SOL     OW17159  10.100   9.314   7.473 -0.1111  0.2627 -0.0101
 5051SOL    HW117160  10.047   9.337   7.549 -0.1272  0.8709 -0.2014
 5051SOL    HW217161  10.055   9.356   7.399 -0.9942 -1.5861 -0.6095
 5052SOL     OW17162   8.053   2.141   0.573  0.3804  0.0667  0.0234
 5052SOL    HW117163   8.039   2.225   0.529 -0.2948  0.5497  1.1052
 5052SOL    HW217164   8.136   2.109   0.538  0.3017  0.8408 -0.9262
 5053SOL     OW17165   7.135   7.626   0.121  0.2558 -0.3710 -0.3915
 5053SOL    HW117166   7.096   7.558   0.066 -1.9024 -0.6971  1.3945
 5053SOL    HW217167   7.159   7.581   0.202 -0.3618  0.7836  0.4652
 5054SOL     OW17168  10.382   7.437   9.399 -0.3476 -0.2090  0.3032
 5054SOL    HW117169  10.307   7.408   9.450 -2.2166  2.0746 -0.9181
 5054SOL    HW217170  10.436   7.486   9.460 -0.9396 -0.1471  0.7854
 5055SOL     OW17171   2.709   7.927  10.618 -0.2930 -0.0433  0.3589
 5055SOL    HW117172   2.767   7.975  10.677 -1.0023 -1.0228  1.9042
 5055SOL    HW217173   2.652   7.877  10.675 -2.2534  0.3593 -1.1217
 5056SOL     OW17174   2.529   7.764   3.702 -0.5323 -0.5119 -0.6149
 5056SOL    HW117175   2.608   7.715   3.680  0.5110  0.1770  1.3751
 5056SOL    HW217176   2.542   7.851   3.664 -1.1646 -0.9178 -1.8082
 5057SOL     OW17177   8.630   9.545  10.522 -0.0323 -0.1591  0.5596
 5057SOL    HW117178   8.689   9.619  10.538  0.0207 -0.5907  2.7930
 5057SOL    HW217179   8.545   9.575  10.553 -0.7546  0.0330 -1.4994
 5058SOL     OW17180   1.722   7.462   5.205 -0.3524 -0.1152 -0.1376
 5058SOL    HW117181   1.776   7.540   5.216 -1.9286  1.1143 -0.6569
 5058SOL    HW217182   1.707   7.456   5.111 -0.6140 -0.7787 -0.0601
 5059SOL     OW17183   9.643   2.337   4.961  0.0034  0.2055 -0.2791
 5059SOL    HW117184   9.678   2.267   4.905  0.4899 -0.4830  0.8381
 5059SOL    HW217185   9.548   2.327   4.955  0.0598 -1.1065  0.4943
 5060SOL     OW17186  10.564   7.329   3.961 -0.3444 -0.6217  0.0888
 5060SOL    HW117187  10.594   7.414   3.995 -0.2565 -0.0597 -1.3218
 5060SOL    HW217188  10.488   7.307   4.016  0.0991 -0.0198  0.9768
 5061SOL     OW17189   6.950  10.293   9.405 -0.0152  0.0159 -0.7456
 5061SOL    HW117190   6.950  10.273   9.499  0.2429 -0.1453 -0.7818
 5061SOL    HW217191   7.028  10.250   9.371 -0.6218 -0.7379 -1.2083
 5062SOL     OW17192   8.431   4.572   1.625  0.1270 -0.3230 -0.1642
 5062SOL    HW117193   8.445   4.652   1.675  0.6555  0.4826 -1.5542
 5062SOL    HW217194   8.520   4.541   1.604 -0.0735  0.1763 -1.8484
 5063SOL     OW17195   5.704   1.421   3.994 -0.1765  0.1971 -0.0421
 5063SOL    HW117196   5.799   1.431   4.006 -0.5014  0.7290  2.6789
 5063SOL    HW217197   5.666   1.459   4.073 -2.7755  1.3572 -1.7403
 5064SOL     OW17198   9.726   2.107   7.861 -0.5206 -0.2904  0.0756
 5064SOL    HW117199   9.746   2.056   7.782  2.6603 -1.9548  1.7763
 5064SOL    HW217200   9.771   2.190   7.848  0.2691 -0.6855  0.2502
 5065SOL     OW17201   9.127   8.479   0.589  0.1605  0.5670  0.2767
 5065SOL    HW117202   9.156   8.435   0.669  1.0107 -0.4299 -0.5516
 5065SOL    HW217203   9.041   8.515   0.611  0.5287  0.6133  1.7354
 5066SOL     OW17204   5.288  10.541   0.239  0.1664 -1.4210  0.1050
 5066SOL    HW117205   5.301  10.527   0.146 -0.0581 -0.8006 -0.0248
 5066SOL    HW217206   5.279  10.453   0.276 -0.8172 -1.6425 -0.6216
 5067SOL     OW17207   9.407   1.900  10.938  0.0648  0.1345  0.4829
 5067SOL    HW117208   9.416   1.876  11.031  1.3564 -0.6532  0.1846
 5067SOL    HW217209   9.316   1.877  10.917  0.0738 -0.7209  1.2723
 5068SOL     OW17210   9.448   7.127   7.912  0.1656  0.0046  0.3898
 5068SOL    HW117211   9.478   7.130   8.003 -0.8018 -0.9616  0.7655
 5068SOL    HW217212   9.441   7.218   7.885  0.0638  0.3123  1.4291
 5069SOL     OW17213  11.197   1.610   6.900  0.2774 -0.2232  0.3347
 5069SOL    HW117214  11.137   1.684   6.890  0.4042  0.0482  1.4498
 5069SOL    HW217215  11.148   1.534   6.869  0.6626  0.4943 -2.2767
 5070SOL     OW17216   9.354   2.057   0.856  0.0934  0.4382 -0.8900
 5070SOL    HW117217   9.300   2.096   0.788  0.9620  1.8648 -0.8129
 5070SOL    HW217218   9.298   2.053   0.933  0.7606  4.6705  0.0764
 5071SOL     OW17219   7.409   8.600   8.122  0.3101  0.1590  0.1206
 5071SOL    HW117220   7.460   8.531   8.080  0.3912 -2.6444  4.2470
 5071SOL    HW217221   7.322   8.593   8.083  0.4427 -2.0410  0.1174
 5072SOL     OW17222   8.246   0.723   9.166 -0.0729 -0.4118  0.4135
 5072SOL    HW117223   8.172   0.742   9.224  0.8186 -1.0919  1.8048
 5072SOL    HW217224   8.221   0.763   9.082 -0.3970  2.6356  1.8316
 5073SOL     OW17225   0.316   8.099   9.550 -0.0036  0.0216 -0.4334
 5073SOL    HW117226   0.242   8.062   9.598  0.0232 -1.3731 -1.4106
 5073SOL    HW217227   0.276   8.140   9.473  0.0957  0.8965 -0.0363
 5074SOL     OW17228   1.521   6.326   2.343 -0.8129  0.4368  0.2540
 5074SOL    HW117229   1.477   6.250   2.304 -0.3651 -0.5063  1.4815
 5074SOL    HW217230   1.601   6.290   2.381 -0.0057  1.7522 -0.1457
 5075SOL     OW17231   5.992  10.716  10.524  0.0615  0.0676 -0.5003
 5075SOL    HW117232   6.056  10.729  10.454  1.0520  1.3609  0.5596
 5075SOL    HW217233   6.044  10.722  10.604 -1.4445  1.7355  0.4269
 5076SOL     OW17234   8.304   5.075   5.545 -0.3559  0.2825 -0.1517
 5076SOL    HW117235   8.284   5.067   5.452 -1.8768  2.8029 -0.1372
 5076SOL    HW217236   8.328   5.167   5.557  1.7842 -0.4068  1.6554
 5077SOL     OW17237   7.287   2.706  10.094 -0.5964  0.4418 -0.2686
 5077SOL    HW117238   7.282   2.756  10.176  0.0312  0.4691 -0.2453
 5077SOL    HW217239   7.358   2.747  10.045  0.1494 -0.6204 -0.1149
 5078SOL     OW17240   1.785   8.842   3.326  0.2260  0.0721 -0.1699
 5078SOL    HW117241   1.818   8.913   3.272  0.1030  0.1716 -0.1134
 5078SOL    HW217242   1.692   8.863   3.340  0.2345 -0.0026  0.0007
 5079SOL     OW17243   8.044   8.448   4.012 -0.2051  0.1196  0.0187
 5079SOL    HW117244   8.033   8.536   3.978  0.0282  0.1731  0.0825
 5079SOL    HW217245   8.024   8.390   3.938 -0.1812  0.2277 -0.0722
 5080SOL     OW17246   9.994   4.050   6.447  0.1197  0.2829 -0.1697
 5080SOL    HW117247   9.933   3.999   6.394 -1.9896  0.7486  1.6760
 5080SOL    HW217248  10.056   3.986   6.481 -0.7266 -0.5813 -0.2334
 5081SOL     OW17249   8.180   3.724  10.182 -0.1794 -0.4604 -0.1401
 5081SOL    HW117250   8.141   3.684  10.105  0.6563 -0.0573 -0.7928
 5081SOL    HW217251   8.267   3.752  10.153 -1.1842  3.1267 -0.1710
 5082SOL     OW17252   5.356   4.429   2.193  0.3760 -0.2354 -0.4207
 5082SOL    HW117253   5.316   4.383   2.119 -2.9208 -2.1072  2.2507
 5082SOL    HW217254   5.440   4.384   2.207 -0.9453 -2.8929 -0.4007
 5083SOL     OW17255   2.603   9.352   8.646  0.7151  0.6693 -0.0101
 5083SOL    HW117256   2.631   9.430   8.694  1.4002  1.4141 -1.5482
 5083SOL    HW217257   2.508   9.352   8.654  0.7450  1.3855  0.4212
 5084SOL     OW17258  11.142  10.425   8.120 -0.5428 -0.0123  0.2077
 5084SOL    HW117259  11.175  10.339   8.146 -0.1781 -0.3166 -1.1566
 5084SOL    HW217260  11.087  10.454   8.193 -1.8571 -2.0565  0.1144
 5085SOL     OW17261   0.880   7.214   4.130  0.0315 -0.5808  0.0207
 5085SOL    HW117262   0.966   7.243   4.162  0.4360 -1.0407 -0.6350
 5085SOL    HW217263   0.864   7.131   4.175  0.4328 -1.0422 -0.6715
 5086SOL     OW17264   4.224   5.712   6.251  0.5125 -0.3797 -0.4811
 5086SOL    HW117265   4.269   5.779   6.199  0.1635 -1.1070 -1.7702
 5086SOL    HW217266   4.133   5.743   6.256  0.9539  0.7588  1.5650
 5087SOL     OW17267   2.597  10.654   1.336  0.4175 -0.0233 -0.1795
 5087SOL    HW117268   2.671  10.636   1.394  1.4940 -0.5581 -1.6512
 5087SOL    HW217269   2.520  10.644   1.392  1.3228 -2.0789  0.8151
 5088SOL     OW17270   2.746   1.787   7.121  0.1247  0.3209 -0.1212
 5088SOL    HW117271   2.801   1.786   7.199  1.2682 -2.5345 -0.8276
 5088SOL    HW217272   2.795   1.842   7.059  1.1463 -0.4383 -0.0251
 5089SOL     OW17273   1.532   3.679   2.613 -0.6748 -0.2633  0.1250
 5089SOL    HW117274   1.439   3.675   2.589 -0.5024 -0.9153 -0.4649
 5089SOL    HW217275   1.579   3.680   2.530 -0.1691  1.2585  0.3964
 5090SOL     OW17276   5.050   7.374   9.806  0.0557 -0.5431 -0.2244
 5090SOL    HW117277   5.068   7.468   9.813  0.4344 -0.7153  1.6334
 5090SOL    HW217278   5.089   7.348   9.723  0.4197  0.8353 -0.5127
 5091SOL     OW17279   2.726   1.449   2.049 -0.3977 -0.1962  0.8004
 5091SOL    HW117280   2.641   1.453   2.093 -1.5467 -2.1436 -1.0072
 5091SOL    HW217281   2.786   1.414   2.114 -1.4141 -0.5013  1.5890
 5092SOL     OW17282   5.522   1.629   6.208 -0.2483 -0.3466 -0.1304
 5092SOL    HW117283   5.561   1.547   6.238  0.5515  0.2646  0.5400
 5092SOL    HW217284   5.584   1.697   6.236 -1.1669  0.5367 -0.1873
 5093SOL     OW17285   4.169   2.405  11.068 -0.1261  0.2642 -0.3095
 5093SOL    HW117286   4.246   2.399  11.126 -0.1556 -0.3563 -0.3255
 5093SOL    HW217287   4.136   2.494  11.081 -0.9272 -0.2656  1.6594
 5094SOL     OW17288   6.475   5.538   0.603  0.3435 -0.1387  0.3147
 5094SOL    HW117289   6.489   5.573   0.515 -0.9894 -4.0676 -1.6703
 5094SOL    HW217290   6.505   5.608   0.662 -0.1862  3.3272 -3.1624
 5095SOL     OW17291   6.297   6.266   8.680 -1.1618 -0.1872 -0.3640
 5095SOL    HW117292   6.312   6.352   8.641 -0.0420 -0.4133 -0.4664
 5095SOL    HW217293   6.205   6.247   8.661 -2.6951  2.6714  3.0911
 5096SOL     OW17294   5.816   2.370   3.581 -0.3671 -0.2426 -0.8024
 5096SOL    HW117295   5.755   2.351   3.509  3.0039 -0.4150 -3.8978
 5096SOL    HW217296   5.833   2.464   3.575  0.5264 -0.3933 -0.7713
 5097SOL     OW17297   1.057   3.269   3.152  0.0193 -0.0204 -0.0069
 5097SOL    HW117298   1.060   3.181   3.190  0.2242  0.6300  1.5557
 5097SOL    HW217299   1.017   3.257   3.066 -1.4504 -1.4329  0.8217
 5098SOL     OW17300   5.711   1.554   1.033 -0.0842  0.2882  0.5772
 5098SOL    HW117301   5.638   1.537   1.093 -0.6655  0.3365 -0.1004
 5098SOL    HW217302   5.771   1.610   1.082 -1.0293  1.1464  0.7787
 5099SOL     OW17303   7.782   5.750  10.172 -0.4666 -0.1283 -0.4576
 5099SOL    HW117304   7.839   5.827  10.177  0.1318 -0.6364  2.2084
 5099SOL    HW217305   7.828   5.690  10.114 -1.3738  1.7620 -3.3215
 5100SOL     OW17306   5.462   3.324   2.562  0.1559  0.4967  0.1847
 5100SOL    HW117307   5.471   3.329   2.657  1.8223 -1.3386  0.1929
 5100SOL    HW217308   5.547   3.353   2.529  1.2915 -3.0066 -0.4719
 5101SOL     OW17309   3.221   1.667  11.280 -0.7161 -0.0697 -0.1315
 5101SOL    HW117310   3.304   1.620  11.265 -0.4180  0.7057 -0.9882
 5101SOL    HW217311   3.165   1.602  11.322 -0.3977 -1.2859 -1.4991
 5102SOL     OW17312  10.436   3.698   0.452  0.3361 -0.1085  0.7021
 5102SOL    HW117313  10.364   3.703   0.514  0.5787 -0.6333  1.0318
 5102SOL    HW217314  10.450   3.788   0.424 -0.2784  0.0270  0.8272
 5103SOL     OW17315   1.995   8.086   3.456 -0.7965  0.6289 -0.2220
 5103SOL    HW117316   1.994   8.156   3.391  1.8530  0.7284 -0.2584
 5103SOL    HW217317   2.033   8.126   3.534 -0.2934 -0.4684  0.1207
 5104SOL     OW17318   6.062  10.834   4.429 -0.8193  0.6881 -0.6589
 5104SOL    HW117319   6.044  10.769   4.497 -1.5901  2.0687  0.5121
 5104SOL    HW217320   5.977  10.848   4.387 -0.5466  0.5621 -1.2584
 5105SOL     OW17321   5.594   7.525   8.502  0.3926 -0.4442 -0.1553
 5105SOL    HW117322   5.606   7.470   8.425 -0.9809 -2.3403  0.9063
 5105SOL    HW217323   5.660   7.496   8.564 -0.2756 -0.8528  0.3790
 5106SOL     OW17324   5.516   0.013   5.259 -0.5620  0.1339 -0.4480
 5106SOL    HW117325   5.583   0.076   5.231 -1.1052  1.3666  0.9407
 5106SOL    HW217326   5.433   0.061   5.253 -0.8499  0.0304  1.8615
 5107SOL     OW17327   2.057   7.536   7.923  0.0855  0.1574  0.1870
 5107SOL    HW117328   1.989   7.598   7.896 -2.1724 -1.8363  1.0331
 5107SOL    HW217329   2.048   7.462   7.864  1.7498 -0.0695  0.1559
 5108SOL     OW17330   6.517   0.719   9.259 -0.7005 -0.4987 -0.4648
 5108SOL    HW117331   6.595   0.665   9.248  0.9587  1.4733  0.8833
 5108SOL    HW217332   6.480   0.725   9.171 -0.8863 -3.5721 -0.6993
 5109SOL     OW17333   4.500   1.741   3.656 -0.5756  0.4500  0.0804
 5109SOL    HW117334   4.432   1.684   3.692 -1.1948  1.8661  1.3002
 5109SOL    HW217335   4.451   1.806   3.605 -0.0057  0.6522 -0.2112
 5110SOL     OW17336   2.887  10.445   2.082 -0.1584 -0.2513  0.9275
 5110SOL    HW117337   2.839  10.362   2.077 -0.0584 -0.2432 -0.9754
 5110SOL    HW217338   2.844  10.502   2.019  2.4397 -0.3562 -1.1447
 5111SOL     OW17339   3.317   9.338   7.017  0.0487  0.8275 -0.3566
 5111SOL    HW117340   3.308   9.347   7.112  2.4010  2.9332 -0.2033
 5111SOL    HW217341   3.244   9.283   6.990  0.0058 -0.8840  2.8081
 5112SOL     OW17342   4.955   2.385   7.631  0.2501  0.9076  0.1035
 5112SOL    HW117343   4.982   2.425   7.548  1.7835  2.3499  1.2285
 5112SOL    HW217344   4.925   2.297   7.607  2.7311  0.4724 -1.7448
 5113SOL     OW17345  10.041   6.302  10.048 -0.0689 -0.1861 -0.1922
 5113SOL    HW117346  10.082   6.387  10.035 -0.1133 -0.3707 -1.7667
 5113SOL    HW217347   9.959   6.307   9.998 -1.7562 -0.0224  2.3950
 5114SOL     OW17348   5.300   2.222   2.042 -0.5875 -0.4051 -0.6137
 5114SOL    HW117349   5.366   2.287   2.064 -0.0585 -0.7667 -1.0799
 5114SOL    HW217350   5.241   2.220   2.117 -0.1001 -0.0324 -0.2149
 5115SOL     OW17351   8.007   2.669   0.950  0.2913 -0.3412  0.1607
 5115SOL    HW117352   8.049   2.745   0.990  2.0094  0.8314 -3.4717
 5115SOL    HW217353   7.915   2.696   0.939  0.8228  1.2410 -0.8733
 5116SOL     OW17354   8.301   7.130   4.234 -0.0707  0.0452 -0.4811
 5116SOL    HW117355   8.303   7.055   4.294  0.4621  0.5238  0.0997
 5116SOL    HW217356   8.388   7.168   4.239 -0.2985  0.6328 -0.8812
 5117SOL     OW17357   0.141   8.128   6.530 -0.0494  0.1936  0.2866
 5117SOL    HW117358   0.047   8.125   6.547  0.2847  0.3817  2.5579
 5117SOL    HW217359   0.149   8.175   6.448 -1.9708 -0.8263 -0.5619
 5118SOL     OW17360   4.779  10.146   8.428  0.1762  0.3060 -0.4861
 5118SOL    HW117361   4.740  10.067   8.392  1.2408  0.5821 -2.4168
 5118SOL    HW217362   4.732  10.162   8.509  0.9009 -3.0883  0.7490
 5119SOL     OW17363   9.590   7.619   0.283 -0.2435 -0.5366  1.1549
 5119SOL    HW117364   9.523   7.683   0.258 -0.4953 -0.1831  2.6631
 5119SOL    HW217365   9.670   7.670   0.290 -0.0348 -0.7579  0.4492
 5120SOL     OW17366   4.023   6.359   0.785 -0.2342 -0.1084 -0.0498
 5120SOL    HW117367   3.988   6.413   0.714  1.4134  1.4702  0.2699
 5120SOL    HW217368   3.951   6.300   0.808 -2.5785  2.6827  0.3486
 5121SOL     OW17369   4.364   8.492  10.539 -0.3887 -0.3178 -0.3754
 5121SOL    HW117370   4.277   8.507  10.576 -0.1846  0.7171 -0.2993
 5121SOL    HW217371   4.424   8.505  10.611 -0.1989 -1.9728 -0.1939
 5122SOL     OW17372   4.828   8.602  10.093  0.0132  0.0395 -1.0048
 5122SOL    HW117373   4.838   8.511  10.064  2.1693  0.3860 -1.4838
 5122SOL    HW217374   4.804   8.595  10.185 -1.0605 -1.0001 -1.3319
 5123SOL     OW17375   9.793   8.194   4.649 -0.0741 -0.2289 -0.5377
 5123SOL    HW117376   9.723   8.232   4.703 -0.4209  1.3026 -1.9924
 5123SOL    HW217377   9.752   8.120   4.605 -0.5239  0.1072 -0.6892
 5124SOL     OW17378   2.459   0.733   6.432 -0.2350 -0.0934  0.2296
 5124SOL    HW117379   2.502   0.715   6.348 -0.4044  2.1208 -0.3964
 5124SOL    HW217380   2.384   0.674   6.434  1.2653 -2.1134  0.1179
 5125SOL     OW17381   2.045   6.574   0.372  0.0780  0.4493 -0.3403
 5125SOL    HW117382   1.990   6.537   0.442 -1.7377  0.6177 -1.5979
 5125SOL    HW217383   2.035   6.512   0.300  2.1738  0.1166 -0.3986
 5126SOL     OW17384   7.629   0.654   7.743  0.0396  0.5430  0.1846
 5126SOL    HW117385   7.627   0.563   7.713 -0.1875  0.1758  1.2690
 5126SOL    HW217386   7.720   0.669   7.770 -0.1478  0.2963  0.9816
 5127SOL     OW17387  10.670   5.203   7.926 -0.0198 -0.5000 -0.3832
 5127SOL    HW117388  10.688   5.144   7.852 -2.7763 -2.8276  0.6243
 5127SOL    HW217389  10.603   5.262   7.893  1.0777  0.6426 -0.6594
 5128SOL     OW17390   3.832   6.237   8.128 -0.3967  0.8529 -0.0662
 5128SOL    HW117391   3.858   6.189   8.049  0.2487  0.7305  0.2052
 5128SOL    HW217392   3.805   6.168   8.189  1.8769  0.6527  0.8250
 5129SOL     OW17393   8.354   5.561   6.681  0.5951  0.7571  0.3275
 5129SOL    HW117394   8.335   5.508   6.604  2.3146 -1.1082  1.0935
 5129SOL    HW217395   8.289   5.631   6.679 -0.1197  0.1126 -2.1648
 5130SOL     OW17396   1.055   4.586   6.390 -0.5372  0.6784 -0.3535
 5130SOL    HW117397   1.012   4.642   6.455 -0.0931  0.9040 -0.2503
 5130SOL    HW217398   1.080   4.645   6.320  2.6993  1.2440  1.0961
 5131SOL     OW17399  11.280   2.836   7.559  0.0255  0.0582  0.0334
 5131SOL    HW117400  11.241   2.798   7.638  1.0243 -0.0643  0.4862
 5131SOL    HW217401  11.260   2.772   7.490 -1.5806  0.5702 -0.0185
 5132SOL     OW17402   7.043   9.518   2.448  0.3746 -0.0105  0.4792
 5132SOL    HW117403   7.016   9.600   2.407  0.0039  0.3362  1.3956
 5132SOL    HW217404   7.003   9.520   2.535 -2.1832 -2.5390 -0.4975
 5133SOL     OW17405  10.101  10.797   3.545  0.6755  0.4399 -0.2635
 5133SOL    HW117406  10.063  10.769   3.628 -0.4634 -1.6599 -1.4102
 5133SOL    HW217407  10.042  10.865   3.513 -1.1557 -1.4564 -1.1191
 5134SOL     OW17408   4.612   7.217   3.754 -0.6471  0.9073  0.1941
 5134SOL    HW117409   4.615   7.311   3.736  3.4899  0.8329 -0.4887
 5134SOL    HW217410   4.639   7.176   3.671  0.1607 -0.6801  1.1909
 5135SOL     OW17411   8.737   2.355   3.365  0.2980  0.8244 -0.2798
 5135SOL    HW117412   8.736   2.362   3.460  0.5762  1.8512 -0.3414
 5135SOL    HW217413   8.658   2.400   3.336 -0.1009 -0.0055 -0.5180
 5136SOL     OW17414   9.047   2.463   4.990 -0.7640 -0.3072  0.2924
 5136SOL    HW117415   9.027   2.533   5.053 -1.5250 -0.5021  0.2781
 5136SOL    HW217416   9.009   2.493   4.908  0.0086 -0.1710 -0.0193
 5137SOL     OW17417  10.656   3.267   3.872  0.1817  0.4216 -0.0302
 5137SOL    HW117418  10.669   3.176   3.899 -1.9836  0.7239  2.4378
 5137SOL    HW217419  10.743   3.299   3.849  0.9727 -2.2837 -1.1643
 5138SOL     OW17420   8.534   7.164   6.329 -0.5250  0.1667 -0.1439
 5138SOL    HW117421   8.451   7.148   6.374 -3.3744 -0.7073 -5.0239
 5138SOL    HW217422   8.521   7.247   6.283  1.7099  0.3988 -0.5108
 5139SOL     OW17423   3.396   0.448   2.118  0.2521  1.0365  0.0944
 5139SOL    HW117424   3.438   0.376   2.070 -2.2437 -0.2710 -0.2680
 5139SOL    HW217425   3.315   0.465   2.070 -2.9700 -1.0451  4.2368
 5140SOL     OW17426  10.345   3.728  10.663  0.4152 -1.0519 -0.3151
 5140SOL    HW117427  10.337   3.662  10.732  0.2464 -1.1636 -0.4414
 5140SOL    HW217428  10.426   3.775  10.684 -0.0393 -0.5696  0.3939
 5141SOL     OW17429   3.682   8.758   1.579 -0.5643 -0.3786  0.3960
 5141SOL    HW117430   3.739   8.754   1.502  0.5895  0.3708  1.1765
 5141SOL    HW217431   3.630   8.837   1.565  1.4855  1.2892  1.5482
 5142SOL     OW17432  10.530   6.846   2.562  0.0016  0.0785 -0.2094
 5142SOL    HW117433  10.448   6.828   2.608  0.2331  1.4229  0.8086
 5142SOL    HW217434  10.504   6.862   2.472 -0.9099  0.8358  0.1715
 5143SOL     OW17435   5.963   3.000   6.176 -0.0676 -0.3549 -0.5581
 5143SOL    HW117436   5.939   3.072   6.118 -0.8117 -2.1832 -2.6722
 5143SOL    HW217437   5.956   3.036   6.264  0.0742  2.2615 -1.5346
 5144SOL     OW17438   6.406  10.064   4.184  0.8960  0.3867 -0.4671
 5144SOL    HW117439   6.403  10.152   4.145 -1.4140 -0.4571 -2.4464
 5144SOL    HW217440   6.327  10.021   4.153  0.8362 -1.7384  2.1976
 5145SOL     OW17441  11.163   6.319   8.166 -0.4311 -0.1095 -0.0415
 5145SOL    HW117442  11.121   6.332   8.251  1.0595  1.7642  0.4935
 5145SOL    HW217443  11.117   6.379   8.107  0.1338  0.4506  0.0706
 5146SOL     OW17444  10.421   3.401   8.478 -0.0353  0.4144 -0.2385
 5146SOL    HW117445  10.374   3.444   8.550 -0.0601  0.9093 -0.5487
 5146SOL    HW217446  10.513   3.412   8.500 -0.0550 -0.3251  0.2357
 5147SOL     OW17447   7.864   8.839   3.786  1.0459  0.4517 -0.6479
 5147SOL    HW117448   7.774   8.872   3.781  0.6023 -0.6751 -0.3268
 5147SOL    HW217449   7.855   8.745   3.803  2.2653  0.7870  2.6435
 5148SOL     OW17450   5.226   5.280  10.562  0.0796  0.0903  0.1872
 5148SOL    HW117451   5.133   5.272  10.584 -0.3146 -1.0613 -1.5809
 5148SOL    HW217452   5.260   5.347  10.621 -1.7078  0.0354  1.3580
 5149SOL     OW17453   6.586   0.244  10.676  0.0689  0.3314  0.0995
 5149SOL    HW117454   6.549   0.223  10.762 -0.8399  0.0364 -0.3448
 5149SOL    HW217455   6.628   0.329  10.688 -1.1643  0.9102  0.5263
 5150SOL     OW17456   8.463   5.900   6.536  0.1751 -0.4855 -0.0533
 5150SOL    HW117457   8.396   5.851   6.489 -0.2692  1.9895 -2.2190
 5150SOL    HW217458   8.544   5.851   6.519 -0.5815 -1.8466  0.0859
 5151SOL     OW17459   3.837   3.120   4.138 -0.4460  0.0505 -0.4878
 5151SOL    HW117460   3.891   3.119   4.216 -0.8233  1.1449 -0.1887
 5151SOL    HW217461   3.863   3.199   4.091  0.0800 -0.8202 -1.7006
 5152SOL     OW17462   2.984   8.482   9.229 -0.2046 -0.1450 -0.2524
 5152SOL    HW117463   3.080   8.479   9.220 -0.2527 -1.4984 -0.5797
 5152SOL    HW217464   2.968   8.461   9.321 -0.1351  2.3865  0.4037
 5153SOL     OW17465   3.285   1.744   8.719  0.3090  0.8164 -0.1613
 5153SOL    HW117466   3.317   1.810   8.657 -2.1277  0.6482 -1.7198
 5153SOL    HW217467   3.343   1.754   8.796  3.2714  1.2354 -2.2605
 5154SOL     OW17468   3.292   9.645   5.386  0.6083 -0.0593  0.3683
 5154SOL    HW117469   3.338   9.562   5.387  2.6273  0.9705  2.1055
 5154SOL    HW217470   3.205   9.625   5.423  0.7924 -1.4983  0.0588
 5155SOL     OW17471   5.934   7.962   0.084 -0.2826  0.2845  0.3499
 5155SOL    HW117472   5.881   8.017   0.026  0.2726  2.3148  1.6811
 5155SOL    HW217473   6.020   7.961   0.043  0.5748  3.0987  1.8387
 5156SOL     OW17474   4.152   7.685   8.282  0.1116  0.3603  0.2741
 5156SOL    HW117475   4.124   7.607   8.330 -1.4273  0.9385  0.3794
 5156SOL    HW217476   4.208   7.732   8.344  0.0167 -0.0277  0.6603
 5157SOL     OW17477   1.914   4.697   4.657  0.1695 -0.0786 -0.0526
 5157SOL    HW117478   1.833   4.735   4.622  0.2684 -0.7214 -1.0245
 5157SOL    HW217479   1.885   4.645   4.732 -0.2310  0.2510  0.0286
 5158SOL     OW17480   0.032   3.828  10.296  0.5600 -1.3672 -0.2392
 5158SOL    HW117481   0.019   3.868  10.382 -2.0810 -0.1288 -1.1183
 5158SOL    HW217482   0.124   3.800  10.297  1.4735  1.1970  1.9267
 5159SOL     OW17483  10.801   0.096   9.541 -0.1196  0.0519 -0.5606
 5159SOL    HW117484  10.806   0.145   9.459  0.6559  1.2500  0.1659
 5159SOL    HW217485  10.778   0.162   9.607 -0.4910 -0.8389  0.2378
 5160SOL     OW17486   2.297  11.269   9.318 -0.2039  0.4596 -0.3359
 5160SOL    HW117487   2.276  11.189   9.366 -1.2532  2.2775  2.4831
 5160SOL    HW217488   2.392  11.280   9.330  0.4154 -1.3811 -2.6539
 5161SOL     OW17489   7.708   7.364   5.240 -0.4699  0.6688  0.4258
 5161SOL    HW117490   7.762   7.343   5.316 -0.8458  1.4519  0.9270
 5161SOL    HW217491   7.743   7.447   5.208  1.1163 -0.6998 -1.6269
 5162SOL     OW17492   2.184   4.407   1.565  0.6577  0.0840  0.0101
 5162SOL    HW117493   2.089   4.413   1.567  0.5913  0.3190 -1.9778
 5162SOL    HW217494   2.212   4.440   1.650 -1.1170 -3.0123  2.0195
 5163SOL     OW17495   5.519   6.567   1.281  0.6542 -0.0359  0.6606
 5163SOL    HW117496   5.596   6.519   1.313  0.3137 -0.6354  0.5879
 5163SOL    HW217497   5.501   6.528   1.196  0.3712  0.2250  0.6024
 5164SOL     OW17498   2.497   9.201   5.207  0.4581 -0.1919  0.0808
 5164SOL    HW117499   2.404   9.218   5.219  0.0659 -0.8061 -1.8491
 5164SOL    HW217500   2.523   9.254   5.132  0.8947 -2.3450 -1.3760
 5165SOL     OW17501   7.733   1.247   4.661  0.0163 -0.0545  0.1766
 5165SOL    HW117502   7.653   1.195   4.664 -0.7761  1.0038 -1.3694
 5165SOL    HW217503   7.704   1.336   4.644  1.5419  0.1509 -1.7883
 5166SOL     OW17504   0.592   0.974   1.540 -0.0960  0.1217  0.1618
 5166SOL    HW117505   0.609   1.056   1.586  0.3864  0.5477 -0.7449
 5166SOL    HW217506   0.678   0.945   1.510  0.1071 -1.9562  2.4476
 5167SOL     OW17507   7.423   1.315   5.591  0.1838 -0.0725  0.3423
 5167SOL    HW117508   7.387   1.317   5.680 -0.5509  0.0920  0.0522
 5167SOL    HW217509   7.348   1.295   5.535  0.7950 -0.9866 -0.1751
 5168SOL     OW17510  10.440   3.354   9.819  0.5821  0.1656  0.6347
 5168SOL    HW117511  10.359   3.390   9.854 -0.1648 -0.4667 -0.3644
 5168SOL    HW217512  10.475   3.422   9.762 -0.1143 -0.1588 -0.1974
 5169SOL     OW17513   2.838   9.822   3.180 -0.2661  0.1534 -0.2375
 5169SOL    HW117514   2.920   9.832   3.132  0.8328 -2.7956  0.7606
 5169SOL    HW217515   2.864   9.789   3.266 -2.3792  1.8767  1.1913
 5170SOL     OW17516   7.555  10.159   2.103  0.3688 -0.4609 -0.2660
 5170SOL    HW117517   7.566  10.102   2.027  0.7235 -0.3654 -0.2910
 5170SOL    HW217518   7.586  10.107   2.177 -0.3681 -0.7032 -0.1239
 5171SOL     OW17519   4.843   3.365  10.393  0.1246  0.6734  0.5038
 5171SOL    HW117520   4.777   3.321  10.339 -0.5041  2.6119 -0.3943
 5171SOL    HW217521   4.923   3.361  10.340 -0.2860  1.8241 -0.2434
 5172SOL     OW17522  10.291   9.149   3.515 -0.9586  0.0996 -0.2301
 5172SOL    HW117523  10.327   9.238   3.524 -1.8536  0.4495  0.0657
 5172SOL    HW217524  10.269   9.142   3.422 -0.5768  0.0594 -0.3194
 5173SOL     OW17525   0.836   5.099   9.775  0.3887 -0.1522  0.2657
 5173SOL    HW117526   0.829   5.177   9.720  0.5230 -2.4695 -3.3675
 5173SOL    HW217527   0.747   5.065   9.780  0.6158 -0.7963  0.1060
 5174SOL     OW17528   4.581  10.946   3.890  0.4272  0.3180 -0.5220
 5174SOL    HW117529   4.547  11.014   3.831  0.0854 -0.0097 -0.7091
 5174SOL    HW217530   4.637  10.891   3.834  1.0759  0.7131 -0.2683
 5175SOL     OW17531   9.776   6.359   4.170 -0.0768 -0.1177  0.2670
 5175SOL    HW117532   9.821   6.308   4.103 -0.1991 -0.2930  0.3179
 5175SOL    HW217533   9.837   6.430   4.191  0.4205 -0.6791  0.7511
 5176SOL     OW17534   4.380   3.142   3.221 -0.4756 -0.7828  1.0331
 5176SOL    HW117535   4.304   3.108   3.268  0.1830 -1.9317  1.2936
 5176SOL    HW217536   4.382   3.235   3.244 -3.0105 -0.2314 -0.6700
 5177SOL     OW17537   3.405   1.076   6.374 -0.0871 -1.1416 -0.2221
 5177SOL    HW117538   3.343   1.022   6.326  0.3951 -1.2965 -0.6856
 5177SOL    HW217539   3.458   1.118   6.306  1.3105 -2.1868  0.1653
 5178SOL     OW17540   2.091  10.646   8.245 -0.1771  0.7493  0.0436
 5178SOL    HW117541   2.009  10.619   8.287 -0.8180  2.0528 -0.3130
 5178SOL    HW217542   2.150  10.571   8.257 -1.6170 -0.4973 -0.2755
 5179SOL     OW17543   6.928   3.296   9.270 -0.2634  0.7138 -0.9320
 5179SOL    HW117544   6.911   3.301   9.176 -2.2856  1.5294 -0.5794
 5179SOL    HW217545   6.900   3.381   9.304  1.4780  0.8564  0.2992
 5180SOL     OW17546   5.879   5.276   8.353  0.4371  0.0395  0.5129
 5180SOL    HW117547   5.896   5.290   8.260  0.1632 -0.0103  0.4551
 5180SOL    HW217548   5.966   5.278   8.394  0.6475 -0.8140  0.1353
 5181SOL     OW17549   0.059   4.083   9.246  0.0904  0.1396 -0.1850
 5181SOL    HW117550   0.010   4.108   9.167 -1.3169  1.0331  0.9285
 5181SOL    HW217551   0.109   4.005   9.219 -4.2230 -2.8063 -0.6561
 5182SOL     OW17552   6.303   4.725   1.780 -0.1175  0.2545 -0.6025
 5182SOL    HW117553   6.301   4.746   1.874 -1.3368 -0.0675 -0.5419
 5182SOL    HW217554   6.395   4.735   1.756  0.9216 -2.8054  1.3803
 5183SOL     OW17555   1.643   1.028   0.896  0.0186  0.5213 -0.8320
 5183SOL    HW117556   1.555   1.013   0.931  0.5034  0.7308  0.5264
 5183SOL    HW217557   1.634   1.106   0.840 -0.7425  0.2792 -1.0511
 5184SOL     OW17558  11.172  10.139   3.718 -0.3676  1.0582  0.3998
 5184SOL    HW117559  11.186  10.116   3.626 -0.6956  0.7241  0.4284
 5184SOL    HW217560  11.087  10.101   3.739  1.3722 -2.3548  1.9568
 5185SOL     OW17561   6.815   5.452   9.253  0.2626  0.4386  0.2804
 5185SOL    HW117562   6.763   5.462   9.173 -1.1618  0.6713  1.1990
 5185SOL    HW217563   6.905   5.445   9.222 -0.3348 -0.4051 -1.3975
 5186SOL     OW17564   1.863   2.830   9.154  0.4331 -0.1870 -0.3576
 5186SOL    HW117565   1.847   2.810   9.061  1.4288  0.3020 -0.6474
 5186SOL    HW217566   1.926   2.902   9.152 -0.1447  0.3730  0.6969
 5187SOL     OW17567   9.376   9.477   8.456 -0.6387  0.7612 -0.3582
 5187SOL    HW117568   9.368   9.450   8.548  1.1374  1.7630  0.1247
 5187SOL    HW217569   9.440   9.417   8.419  0.4264  1.8260 -0.2942
 5188SOL     OW17570   6.436   2.019   7.652 -0.3737 -0.1876 -0.5586
 5188SOL    HW117571   6.412   2.081   7.583  1.3637 -0.6492 -1.6268
 5188SOL    HW217572   6.460   2.074   7.726  0.5257  0.4246 -1.2816
 5189SOL     OW17573   3.317   1.245   3.524  0.2826  0.0224 -0.4983
 5189SOL    HW117574   3.364   1.321   3.559 -0.1955  0.0521  0.1011
 5189SOL    HW217575   3.368   1.219   3.447  2.2015 -0.9033  0.9918
 5190SOL     OW17576   9.350   7.314   8.967  0.3904 -0.5693  0.5311
 5190SOL    HW117577   9.338   7.226   8.933  0.6102 -0.1685 -0.6492
 5190SOL    HW217578   9.337   7.371   8.890  0.6391  0.3931  1.1851
 5191SOL     OW17579   4.670   1.723   7.825  0.3951 -0.0567  0.2371
 5191SOL    HW117580   4.691   1.663   7.754 -1.0106 -0.7152  0.3287
 5191SOL    HW217581   4.621   1.794   7.783 -0.6244 -0.5552  0.5438
 5192SOL     OW17582  11.089   6.734   3.293  0.4168 -0.2459  0.2009
 5192SOL    HW117583  11.046   6.715   3.210  0.3445 -0.0913  0.2026
 5192SOL    HW217584  11.075   6.828   3.306 -1.7113 -0.6810  1.5852
 5193SOL     OW17585   5.115   8.658   6.815  0.4602  0.4662 -0.7860
 5193SOL    HW117586   5.187   8.656   6.878  0.8627  1.0900 -1.2134
 5193SOL    HW217587   5.155   8.692   6.734 -0.0053 -0.4972 -1.4381
 5194SOL     OW17588   7.652   9.320  11.168  0.0193  0.5279  0.8676
 5194SOL    HW117589   7.638   9.227  11.181 -0.9420  0.6077  0.5064
 5194SOL    HW217590   7.582   9.362  11.219  0.6181  1.0633  1.2638
 5195SOL     OW17591   9.298   2.999  11.145  0.2888 -0.1212 -0.2498
 5195SOL    HW117592   9.213   3.022  11.181  0.1541 -1.0692  0.0770
 5195SOL    HW217593   9.316   2.911  11.180  0.9562 -0.3340 -1.0845
 5196SOL     OW17594   4.671   7.198   7.575 -0.7163  0.1236 -0.5656
 5196SOL    HW117595   4.604   7.177   7.640  1.0844 -0.4475  1.1982
 5196SOL    HW217596   4.624   7.199   7.491 -2.4431 -2.9149  0.2445
 5197SOL     OW17597   3.312   5.473   2.811 -0.6405  0.6089  0.3091
 5197SOL    HW117598   3.238   5.463   2.871 -1.6989 -0.1840 -1.0528
 5197SOL    HW217599   3.300   5.402   2.747  1.8095 -0.0901  0.5475
 5198SOL     OW17600   8.307  10.305   9.944 -0.0932  0.4209 -0.2736
 5198SOL    HW117601   8.270  10.371   9.885 -3.3036 -1.2401 -0.3122
 5198SOL    HW217602   8.338  10.356  10.020  0.6010  2.2103 -1.6621
 5199SOL     OW17603   1.649   3.019   5.471 -0.1059 -0.4450 -0.4106
 5199SOL    HW117604   1.586   3.027   5.543 -1.3828 -0.8087 -1.4405
 5199SOL    HW217605   1.735   3.019   5.514 -0.7375  1.2308  0.9407
 5200SOL     OW17606   0.037   9.612   7.749  0.0638 -0.3101 -0.1857
 5200SOL    HW117607   0.105   9.550   7.723 -0.0889 -0.3239 -0.5629
 5200SOL    HW217608  -0.043   9.559   7.756 -0.4072  0.0841 -2.0327
 5201SOL     OW17609   1.855   9.584   3.827 -0.3922  0.4066  0.3571
 5201SOL    HW117610   1.857   9.494   3.858 -0.7887  0.6357  1.0804
 5201SOL    HW217611   1.921   9.629   3.879  1.3523  0.1140 -1.4711
 5202SOL     OW17612   1.417   5.081   4.045  0.2412  0.2761 -0.2301
 5202SOL    HW117613   1.442   5.061   3.955 -0.4681  1.2769 -0.6710
 5202SOL    HW217614   1.498   5.104   4.089  0.5891 -0.2101 -0.6108
 5203SOL     OW17615   6.756   3.834  10.154  0.2126 -0.0780 -0.2550
 5203SOL    HW117616   6.768   3.927  10.174  0.8011 -0.0018 -0.9075
 5203SOL    HW217617   6.839   3.794  10.179 -0.4061 -0.6234  1.0139
 5204SOL     OW17618   8.252   0.163   3.635  0.0806  0.3893 -0.3954
 5204SOL    HW117619   8.229   0.190   3.724  0.9043  2.1301 -0.6635
 5204SOL    HW217620   8.251   0.068   3.638  1.8293  0.3476  1.9716
 5205SOL     OW17621   9.562   3.301   4.725 -0.5580  0.6621 -0.0868
 5205SOL    HW117622   9.656   3.317   4.727 -0.1289 -1.5487 -0.5585
 5205SOL    HW217623   9.527   3.349   4.800  1.3556 -0.9007  1.8857
 5206SOL     OW17624   5.390   2.158   3.705  0.2278  0.0168 -0.0416
 5206SOL    HW117625   5.411   2.102   3.780 -0.1454  0.2570  0.2489
 5206SOL    HW217626   5.416   2.246   3.733  1.0063 -0.0340 -0.5739
 5207SOL     OW17627   0.170  11.166   1.214  0.6558 -0.0844  0.0742
 5207SOL    HW117628   0.186  11.106   1.287  0.6051  0.1665  0.2902
 5207SOL    HW217629   0.084  11.204   1.232  0.6040 -0.0889 -0.1622
 5208SOL     OW17630  10.174  10.287   6.316 -0.1801  0.3070  0.2359
 5208SOL    HW117631  10.198  10.248   6.399 -0.0679 -2.1176 -0.8623
 5208SOL    HW217632  10.079  10.273   6.309  0.0086 -0.6938 -0.5802
 5209SOL     OW17633   9.064   3.483   3.050 -0.0890 -0.4478  0.7435
 5209SOL    HW117634   9.036   3.410   3.105  0.3821 -1.8705 -0.8312
 5209SOL    HW217635   9.155   3.499   3.076  0.1367 -1.1249  0.3995
 5210SOL     OW17636   2.903   3.603  10.745 -0.0905  0.2387  0.2061
 5210SOL    HW117637   2.946   3.593  10.661  0.3899 -0.3124  0.5117
 5210SOL    HW217638   2.878   3.696  10.749 -0.0890  0.2706 -0.5190
 5211SOL     OW17639   2.595   7.975   5.987 -0.1251 -0.2069 -0.1495
 5211SOL    HW117640   2.619   8.061   6.022  2.0712 -1.3327  1.4032
 5211SOL    HW217641   2.654   7.962   5.912  0.9057 -1.0451  0.7568
 5212SOL     OW17642   2.361   9.433   9.802 -0.4536 -0.3822 -0.2777
 5212SOL    HW117643   2.347   9.432   9.708 -4.3701  2.0221  0.0780
 5212SOL    HW217644   2.393   9.521   9.821 -1.2136 -0.3159  0.7675
 5213SOL     OW17645   3.173   7.621   6.957  0.0718 -1.1289  0.0517
 5213SOL    HW117646   3.226   7.632   6.878  3.0719  1.4372  2.1626
 5213SOL    HW217647   3.236   7.592   7.024 -2.0683 -1.9275  1.8497
 5214SOL     OW17648   9.685   5.990   2.524 -0.0432  0.7890  0.4109
 5214SOL    HW117649   9.748   5.939   2.575 -1.1059 -2.1226 -0.9350
 5214SOL    HW217650   9.635   6.039   2.589 -0.9826 -2.3226  2.2301
 5215SOL     OW17651   5.686   8.551  11.232 -0.7130  0.0596 -0.1738
 5215SOL    HW117652   5.760   8.587  11.282  0.8419 -1.2943 -1.3937
 5215SOL    HW217653   5.648   8.484  11.289  0.5050 -0.8731 -0.4228
 5216SOL     OW17654   8.549   6.571   7.670  0.2107 -0.2780 -0.3068
 5216SOL    HW117655   8.600   6.632   7.724 -1.3333  1.4028 -0.6246
 5216SOL    HW217656   8.506   6.513   7.732  0.2678  0.1664  0.1577
 5217SOL     OW17657   9.986   5.022   2.661 -0.3162 -0.2789  0.8642
 5217SOL    HW117658   9.928   4.956   2.622 -0.0747 -0.7867  1.3540
 5217SOL    HW217659  10.074   4.995   2.635  0.0186 -1.6227  3.1238
 5218SOL     OW17660   0.462   4.095   6.107  0.4712 -0.4671  0.3079
 5218SOL    HW117661   0.491   4.100   6.198  1.9116  0.5192 -0.1777
 5218SOL    HW217662   0.371   4.124   6.109 -0.2820 -2.6006  1.7252
 5219SOL     OW17663   8.946   2.504   1.625 -0.0393  0.2767 -0.4226
 5219SOL    HW117664   8.907   2.591   1.635  0.6584  0.5771 -0.1741
 5219SOL    HW217665   8.883   2.444   1.665 -1.9367  0.2554 -3.1696
 5220SOL     OW17666   7.037  10.992   0.100 -0.0447  0.0421  0.2357
 5220SOL    HW117667   7.087  11.014   0.178  0.7034 -0.9962  0.0784
 5220SOL    HW217668   7.090  11.025   0.027 -2.3889  4.3049  0.1345
 5221SOL     OW17669   2.222   2.403  10.199 -0.5675  0.4330  0.3326
 5221SOL    HW117670   2.266   2.330  10.242  1.8423  2.8691  2.4573
 5221SOL    HW217671   2.279   2.425  10.125  0.4153  1.8846  1.4564
 5222SOL     OW17672   7.785  10.765   8.077  0.5283  0.2899 -0.1044
 5222SOL    HW117673   7.771  10.686   8.130  0.8993  1.1188  1.2559
 5222SOL    HW217674   7.699  10.807   8.075  0.7845  0.8881  0.8988
 5223SOL     OW17675   8.723   7.816   6.731 -0.0074  0.0885  0.0820
 5223SOL    HW117676   8.769   7.733   6.718 -1.2505 -0.4790 -0.9787
 5223SOL    HW217677   8.792   7.881   6.739  0.9946 -0.7574 -1.2231
 5224SOL     OW17678   5.812   5.504   4.880 -0.6960  0.3135 -0.4090
 5224SOL    HW117679   5.795   5.538   4.968  1.2405  1.3212 -0.3603
 5224SOL    HW217680   5.907   5.513   4.869 -0.8452 -0.1122 -2.4737
 5225SOL     OW17681   6.276   5.833   3.423  0.3312 -0.0064 -0.4028
 5225SOL    HW117682   6.337   5.808   3.354  1.3908 -0.4222  0.6650
 5225SOL    HW217683   6.208   5.765   3.420  0.7070 -0.3764 -0.5999
 5226SOL     OW17684   6.674   8.607   9.746 -0.7645 -0.7691 -0.0066
 5226SOL    HW117685   6.673   8.514   9.768 -2.3906 -0.9201 -0.5908
 5226SOL    HW217686   6.643   8.611   9.656 -0.2275  0.3162 -0.1654
 5227SOL     OW17687   1.465   5.681   4.295  0.4826  0.4732 -0.4411
 5227SOL    HW117688   1.519   5.756   4.318 -0.9523  0.6583  2.9555
 5227SOL    HW217689   1.376   5.716   4.288  0.1049 -0.5635 -1.0283
 5228SOL     OW17690   0.777   4.503   7.603  0.6604  0.6410  0.2085
 5228SOL    HW117691   0.760   4.544   7.519  0.9622  1.6477  0.6270
 5228SOL    HW217692   0.863   4.461   7.592  0.5234  0.4400 -0.1042
 5229SOL     OW17693   0.142   0.322   1.050 -0.1608 -0.1511 -0.4463
 5229SOL    HW117694   0.050   0.307   1.075  0.3369 -1.1681  0.8807
 5229SOL    HW217695   0.149   0.285   0.962 -0.4769 -2.2893  0.3688
 5230SOL     OW17696   9.352  10.439  10.407  0.2260 -0.0978 -0.7701
 5230SOL    HW117697   9.308  10.418  10.324 -0.0574  0.5680 -0.7876
 5230SOL    HW217698   9.297  10.505  10.448  0.9418  0.3788 -0.5562
 5231SOL     OW17699   4.176   6.587   9.689  0.0237  0.1580 -0.5305
 5231SOL    HW117700   4.132   6.665   9.656  1.0423  1.1662  0.4043
 5231SOL    HW217701   4.137   6.571   9.775  1.8798  1.5308  0.6710
 5232SOL     OW17702   3.397   7.894   2.795  0.5185  0.4306  0.1414
 5232SOL    HW117703   3.401   7.843   2.876 -1.3953 -0.5136 -0.3053
 5232SOL    HW217704   3.337   7.966   2.815 -1.1402 -0.6153 -0.7838
 5233SOL     OW17705   5.259   3.724   4.239 -0.3101  0.5573  0.3876
 5233SOL    HW117706   5.213   3.653   4.193  1.2705 -0.0633 -0.3122
 5233SOL    HW217707   5.286   3.684   4.321 -0.7456  0.8340  0.6699
 5234SOL     OW17708   2.057   8.864   8.496 -0.6070  0.0621 -0.5917
 5234SOL    HW117709   2.025   8.854   8.406 -2.1286 -1.4371  0.0703
 5234SOL    HW217710   1.986   8.910   8.541 -1.5061 -2.4023  0.6626
 5235SOL     OW17711   8.891   1.271   6.469 -0.1879 -0.0081 -0.9998
 5235SOL    HW117712   8.942   1.341   6.510  0.4547 -2.2440  2.4707
 5235SOL    HW217713   8.955   1.201   6.452 -1.3758 -1.2368 -0.5993
 5236SOL     OW17714  11.216  10.432  11.087  0.2604 -0.4883 -0.4963
 5236SOL    HW117715  11.282  10.502  11.083 -0.4322  0.1689 -0.6130
 5236SOL    HW217716  11.246  10.375  11.158 -1.3855  2.2766  2.7498
 5237SOL     OW17717   9.751   3.652   1.079 -0.9376 -0.0213  0.0226
 5237SOL    HW117718   9.661   3.619   1.083 -0.4101 -1.4616  1.1403
 5237SOL    HW217719   9.786   3.635   1.167  1.1858 -1.8798 -1.0963
 5238SOL     OW17720   7.699   7.372   9.674  0.3041 -0.2092 -0.7143
 5238SOL    HW117721   7.774   7.379   9.615 -0.0153 -3.7912 -1.8037
 5238SOL    HW217722   7.726   7.307   9.739 -0.3145  1.7574  1.6772
 5239SOL     OW17723   6.257   4.892  10.292  0.5283 -0.2537  0.6555
 5239SOL    HW117724   6.288   4.979  10.317  0.5369  1.1080 -3.3885
 5239SOL    HW217725   6.306   4.832  10.349  0.0200  2.2473  4.0881
 5240SOL     OW17726   4.724   3.133   4.737  0.1764 -0.3319  0.3681
 5240SOL    HW117727   4.642   3.171   4.706  0.7163  0.9037  0.4092
 5240SOL    HW217728   4.743   3.064   4.673  0.4123  1.0617 -1.1246
 5241SOL     OW17729   7.054   7.291   1.402 -0.1554  0.8062  0.7567
 5241SOL    HW117730   6.962   7.317   1.397 -1.1551 -2.4157  0.0103
 5241SOL    HW217731   7.071   7.245   1.320  2.0260  0.9717  1.0546
 5242SOL     OW17732   8.039  10.014   4.637 -0.1765  0.3032 -0.1851
 5242SOL    HW117733   8.015  10.104   4.659 -1.9540 -0.3989  0.9321
 5242SOL    HW217734   8.034   9.967   4.720 -1.7594 -1.3363 -1.1566
 5243SOL     OW17735   8.195   5.713   7.600 -0.5788 -0.0450  0.6048
 5243SOL    HW117736   8.242   5.735   7.519  0.1579  1.4390  1.3883
 5243SOL    HW217737   8.264   5.684   7.660 -1.0772 -0.8125  0.8224
 5244SOL     OW17738   1.210   3.320   2.734  0.5785 -0.4654  0.2611
 5244SOL    HW117739   1.201   3.328   2.639  0.4395  0.2311  0.3289
 5244SOL    HW217740   1.176   3.233   2.754 -0.0360 -0.3486 -0.2551
 5245SOL     OW17741   2.829   2.286  11.067  0.1984 -0.0249  0.2586
 5245SOL    HW117742   2.791   2.285  11.155 -0.3421  0.0045  0.0338
 5245SOL    HW217743   2.776   2.223  11.018  0.5445 -0.0952 -0.0253
 5246SOL     OW17744   9.646   1.995   2.366 -0.2476 -0.0621 -0.1001
 5246SOL    HW117745   9.555   1.978   2.390  0.0153 -1.1462  0.2079
 5246SOL    HW217746   9.641   2.045   2.284 -1.1169 -0.7230 -0.4678
 5247SOL     OW17747   1.021   3.566   4.150  0.0306  0.3909  0.4353
 5247SOL    HW117748   0.969   3.485   4.154 -1.1331  1.0783 -0.3174
 5247SOL    HW217749   0.982   3.616   4.079  3.2859 -0.1051 -1.9537
 5248SOL     OW17750   5.253   6.900   8.076 -0.0592 -0.6020  0.1026
 5248SOL    HW117751   5.209   6.873   8.157 -2.1149 -1.9871 -1.3873
 5248SOL    HW217752   5.187   6.889   8.008  0.8899  2.5534 -1.5405
 5249SOL     OW17753   9.580   3.276   2.015 -0.2727  0.0938  0.2137
 5249SOL    HW117754   9.581   3.241   2.104  1.4706  1.7921  0.9224
 5249SOL    HW217755   9.561   3.200   1.960  0.0300 -1.2731  1.9045
 5250SOL     OW17756   7.093   3.588   8.125 -0.1488 -0.0701 -0.3741
 5250SOL    HW117757   7.166   3.527   8.117 -0.4413 -0.7290  1.6018
 5250SOL    HW217758   7.098   3.620   8.215 -2.3286 -0.1598 -0.1772
 5251SOL     OW17759   2.275   1.782   2.423 -0.1582 -1.0600  0.1840
 5251SOL    HW117760   2.199   1.808   2.475 -1.2007 -1.2201 -1.2227
 5251SOL    HW217761   2.239   1.748   2.342  1.3909 -2.0677 -0.1242
 5252SOL     OW17762   9.159   1.851   5.997 -0.5123 -0.8323  0.0410
 5252SOL    HW117763   9.247   1.861   5.960 -0.1887 -1.1654  0.7051
 5252SOL    HW217764   9.100   1.866   5.923  0.0126  1.7399  0.0639
 5253SOL     OW17765  10.046   0.026   2.195  0.0094  0.2499  0.5018
 5253SOL    HW117766  10.016   0.096   2.253  0.3767 -0.5961  1.7624
 5253SOL    HW217767   9.966  -0.023   2.174  0.1784 -0.9589  2.4289
 5254SOL     OW17768   9.690   2.985   0.395 -0.1348  0.2391 -0.1613
 5254SOL    HW117769   9.671   2.922   0.325  2.8235  0.4448 -1.2782
 5254SOL    HW217770   9.700   2.931   0.474  5.5060 -1.5255 -1.5841
 5255SOL     OW17771   1.679   9.341   9.721  0.4142 -0.3093  0.0557
 5255SOL    HW117772   1.704   9.398   9.794 -2.1144  0.5308  0.3601
 5255SOL    HW217773   1.727   9.376   9.646  0.4305  0.9909  0.6474
 5256SOL     OW17774  10.705   5.558   2.077 -0.0699 -0.1307  0.0007
 5256SOL    HW117775  10.637   5.574   2.011 -0.7981  2.8884  1.2816
 5256SOL    HW217776  10.746   5.644   2.089  0.4767 -0.7044  2.9589
 5257SOL     OW17777  10.415  10.311  10.210  0.4492  0.0351  0.0536
 5257SOL    HW117778  10.457  10.233  10.244  0.2927 -0.3775 -0.6868
 5257SOL    HW217779  10.335  10.320  10.262  0.0149 -0.8167 -0.4553
 5258SOL     OW17780   6.543   6.575   0.119 -0.5456 -0.1199 -0.0182
 5258SOL    HW117781   6.591   6.505   0.164 -0.7032  0.4977  1.1477
 5258SOL    HW217782   6.610   6.620   0.067 -0.7913 -2.4085 -2.5538
 5259SOL     OW17783   1.857  11.251   3.005 -0.6379  0.0506 -0.7273
 5259SOL    HW117784   1.896  11.181   3.057 -0.2265 -0.5737 -1.8368
 5259SOL    HW217785   1.763  11.237   3.011 -0.7275  1.1630  1.4212
 5260SOL     OW17786   6.053  10.597   0.724 -0.5514 -0.0475 -0.6047
 5260SOL    HW117787   6.032  10.683   0.688  2.0390 -0.1594 -2.7187
 5260SOL    HW217788   6.007  10.535   0.668 -1.3850 -0.0901  0.1156
 5261SOL     OW17789   0.672   5.296   8.262 -0.1093 -0.0156 -0.1378
 5261SOL    HW117790   0.719   5.257   8.188 -0.0175 -1.9276  0.8611
 5261SOL    HW217791   0.595   5.336   8.223  1.2597  1.3618 -1.5699
 5262SOL     OW17792   6.567   2.287   5.932  0.1205 -0.2929  0.3346
 5262SOL    HW117793   6.618   2.366   5.916 -0.2381 -0.0524  0.3869
 5262SOL    HW217794   6.476   2.316   5.935  0.0058 -0.6684  0.5978
 5263SOL     OW17795  10.366   2.190   5.660 -0.1510  0.9772 -0.3579
 5263SOL    HW117796  10.311   2.198   5.582 -2.5149 -2.0510  0.8064
 5263SOL    HW217797  10.406   2.103   5.653  1.7485  1.7098  0.5862
 5264SOL     OW17798   3.610   3.507   0.465 -0.1302 -0.4711 -0.0355
 5264SOL    HW117799   3.548   3.575   0.437  0.7785  0.7058  0.7308
 5264SOL    HW217800   3.685   3.518   0.406  0.3593 -0.2446  0.6175
 5265SOL     OW17801   2.413   9.907   7.685  0.3951  0.0777 -0.6568
 5265SOL    HW117802   2.389   9.844   7.616  2.6411 -1.1364 -0.4392
 5265SOL    HW217803   2.379   9.868   7.765  0.8636 -0.3432 -0.6569
 5266SOL     OW17804   5.174   9.172   1.790 -0.7192 -0.0778 -0.3887
 5266SOL    HW117805   5.171   9.078   1.768 -0.7850 -0.3182  0.5889
 5266SOL    HW217806   5.162   9.174   1.885 -2.2244  1.0190 -0.5673
 5267SOL     OW17807   5.699   3.106   8.810  0.0959  0.0461  0.5960
 5267SOL    HW117808   5.683   3.157   8.889  1.2467  1.4551 -0.0205
 5267SOL    HW217809   5.771   3.047   8.834 -0.9294 -1.0190  1.1718
 5268SOL     OW17810   0.210   0.996   5.695 -0.4973 -0.0514  0.1531
 5268SOL    HW117811   0.304   1.001   5.710 -0.7708  1.3981  1.6355
 5268SOL    HW217812   0.198   1.024   5.605  0.3698  1.4967  0.4881
 5269SOL     OW17813  10.020   8.446  11.075 -0.4386 -0.6318  0.4341
 5269SOL    HW117814  10.034   8.455  11.170 -2.1568 -0.5769  0.7152
 5269SOL    HW217815   9.925   8.448  11.065 -0.2646  0.6091 -1.4222
 5270SOL     OW17816   8.057   0.717   4.345  0.6022  0.2219  0.2523
 5270SOL    HW117817   8.093   0.748   4.261 -0.0309  1.7619  0.5267
 5270SOL    HW217818   8.067   0.791   4.404  0.5675 -0.6802  1.4149
 5271SOL     OW17819   1.104   1.975   5.929  0.3790  0.4486  0.4364
 5271SOL    HW117820   1.051   2.002   6.004 -0.3704  0.7150 -0.1748
 5271SOL    HW217821   1.191   1.959   5.966 -0.5068 -1.7243  1.8088
 5272SOL     OW17822   4.497   2.184  11.222 -0.0745  0.1793 -0.0253
 5272SOL    HW117823   4.499   2.130  11.301 -3.2888  1.2212  0.9339
 5272SOL    HW217824   4.589   2.201  11.202  0.9972 -3.5109  1.0147
 5273SOL     OW17825   3.231   4.968   0.706 -0.1750  0.1761 -0.2946
 5273SOL    HW117826   3.224   4.922   0.623  0.6599 -0.0350 -0.2502
 5273SOL    HW217827   3.295   5.037   0.691 -1.2409  1.2023 -0.2913
 5274SOL     OW17828   3.682   1.744   4.515 -0.7594  0.8063 -0.2062
 5274SOL    HW117829   3.767   1.720   4.552 -0.9923 -1.7966 -1.1450
 5274SOL    HW217830   3.696   1.830   4.476  1.3050  0.6439  0.0785
 5275SOL     OW17831   9.834  10.576   9.924 -0.5274  0.2594  0.0981
 5275SOL    HW117832   9.887  10.565  10.004  0.3004 -0.7168 -0.5549
 5275SOL    HW217833   9.801  10.665   9.930 -2.9875 -0.6697  3.0212
 5276SOL     OW17834   8.888   4.353   9.111  0.3622  0.0805  0.9466
 5276SOL    HW117835   8.825   4.377   9.043  0.3558 -1.1057  0.5247
 5276SOL    HW217836   8.833   4.332   9.187  0.2270 -1.0179  0.5596
 5277SOL     OW17837   5.487   6.427   4.445 -0.0373 -0.1725  0.2621
 5277SOL    HW117838   5.443   6.493   4.499 -0.7341  1.8778 -2.5640
 5277SOL    HW217839   5.577   6.459   4.437  0.0793 -0.4958  0.2991
 5278SOL     OW17840  10.568   6.593   2.727 -0.0877 -0.2028 -0.1122
 5278SOL    HW117841  10.511   6.642   2.785 -0.0381 -0.3280  0.0418
 5278SOL    HW217842  10.593   6.516   2.777  3.4462  1.7088  1.4084
 5279SOL     OW17843  10.644   7.723   3.375 -0.4283  0.3476 -0.3575
 5279SOL    HW117844  10.624   7.720   3.282  1.0426  2.0002 -0.7776
 5279SOL    HW217845  10.701   7.648   3.390  1.0666  1.2587 -1.2834
 5280SOL     OW17846   6.913   4.464   1.975 -0.0545 -0.0802  0.0031
 5280SOL    HW117847   6.839   4.515   2.008 -1.5560 -2.9676  1.4662
 5280SOL    HW217848   6.912   4.479   1.881  0.1512  3.1703  0.4314
 5281SOL     OW17849   5.440   8.623  11.089  0.5187 -0.3141  0.4171
 5281SOL    HW117850   5.415   8.613  11.181 -4.2159  1.7711 -0.3426
 5281SOL    HW217851   5.393   8.553  11.044  0.8320  0.1267 -0.6177
 5282SOL     OW17852   6.655   9.529   5.460  0.4219 -0.0280  0.2386
 5282SOL    HW117853   6.726   9.556   5.518 -1.1028  2.7361  0.9727
 5282SOL    HW217854   6.696   9.520   5.374  1.8066  0.7027  0.7973
 5283SOL     OW17855   5.222   9.922  11.135 -0.0237  0.2240  0.0471
 5283SOL    HW117856   5.200   9.992  11.072 -0.7884  0.5923  0.6992
 5283SOL    HW217857   5.311   9.943  11.163  0.8426 -0.6873 -1.8660
 5284SOL     OW17858   8.316   9.162   8.604  0.5362  0.2384  0.1999
 5284SOL    HW117859   8.341   9.071   8.616 -0.5530 -0.4098 -1.9318
 5284SOL    HW217860   8.373   9.193   8.533 -2.2099 -0.2753 -2.3895
 5285SOL     OW17861   3.270   7.285   6.100  0.5112 -0.4811  0.0249
 5285SOL    HW117862   3.353   7.243   6.078  0.3272 -0.1183 -1.4633
 5285SOL    HW217863   3.248   7.337   6.023 -0.9344 -0.3007  0.5246
 5286SOL     OW17864   4.437   9.716   6.439 -0.2106 -0.1317 -0.3336
 5286SOL    HW117865   4.469   9.724   6.349 -2.6672  0.7137 -1.2122
 5286SOL    HW217866   4.442   9.805   6.474 -0.6578 -0.1794 -0.1490
 5287SOL     OW17867   6.686   0.328   1.821 -0.5188 -0.3142  0.2717
 5287SOL    HW117868   6.737   0.363   1.894 -1.8087 -0.0562  1.0779
 5287SOL    HW217869   6.669   0.237   1.845  0.3328 -0.6740 -0.4381
 5288SOL     OW17870  11.205   1.809   1.727  0.1588  0.2127  0.0201
 5288SOL    HW117871  11.260   1.775   1.657  1.6704 -1.2356  1.7805
 5288SOL    HW217872  11.186   1.733   1.782 -2.8118  0.8732  0.0804
 5289SOL     OW17873   1.844  10.921   4.413 -0.5797  0.8735 -0.1364
 5289SOL    HW117874   1.907  10.959   4.474  0.2149 -0.6176  0.0350
 5289SOL    HW217875   1.800  10.853   4.464 -0.3285  0.0188 -1.0200
 5290SOL     OW17876   2.060   2.235   0.394 -0.3143 -0.5027  0.1014
 5290SOL    HW117877   2.000   2.166   0.422 -1.7021  1.2804  1.7428
 5290SOL    HW217878   2.144   2.210   0.431 -0.8105 -1.2838  0.7384
 5291SOL     OW17879   1.145   2.303   5.348 -1.1325 -0.3670 -0.0651
 5291SOL    HW117880   1.196   2.370   5.301 -0.7002 -1.1870 -0.8060
 5291SOL    HW217881   1.116   2.244   5.279 -0.6022 -1.5355  0.6855
 5292SOL     OW17882   1.072   7.125   3.813 -0.1889  0.0674  0.0117
 5292SOL    HW117883   1.003   7.060   3.804  0.1289 -0.6647  2.1795
 5292SOL    HW217884   1.028   7.202   3.849 -0.1543  0.1851 -0.1967
 5293SOL     OW17885  10.930   3.303   0.107  0.2937  0.5733 -0.1621
 5293SOL    HW117886  10.936   3.313   0.012  1.2629  1.7084 -0.0155
 5293SOL    HW217887  10.888   3.384   0.137 -1.1157 -0.2956  0.2952
 5294SOL     OW17888   4.445   3.717   6.771  0.6978 -0.0694  0.4692
 5294SOL    HW117889   4.421   3.673   6.853 -2.8462 -1.0452 -0.8773
 5294SOL    HW217890   4.452   3.809   6.794 -0.2816 -0.3253  1.9077
 5295SOL     OW17891   4.758   9.506   0.149 -0.2963 -0.1126 -0.1315
 5295SOL    HW117892   4.849   9.532   0.159 -0.1526 -0.8885  0.6809
 5295SOL    HW217893   4.758   9.443   0.077 -0.2309  0.0448 -0.2705
 5296SOL     OW17894   7.854   7.274   2.842  0.2633  0.1465 -0.2531
 5296SOL    HW117895   7.923   7.327   2.803  0.4576  0.7215  0.8589
 5296SOL    HW217896   7.885   7.252   2.929 -0.6313 -0.2275 -0.0100
 5297SOL     OW17897   3.332   6.726   3.566  0.3093  0.5268  0.2624
 5297SOL    HW117898   3.361   6.789   3.500 -2.1607  0.0438 -1.4136
 5297SOL    HW217899   3.238   6.742   3.576 -0.1782 -2.0561  0.6698
 5298SOL     OW17900  10.808   4.634   5.559 -0.1245  0.1403 -0.2179
 5298SOL    HW117901  10.802   4.663   5.468  2.0960 -0.4778 -0.6096
 5298SOL    HW217902  10.860   4.554   5.555 -0.7103 -0.3748  1.5323
 5299SOL     OW17903   6.481  10.850   1.441  0.0862  0.3513 -0.4692
 5299SOL    HW117904   6.459  10.900   1.520 -0.9604 -1.7503  0.6617
 5299SOL    HW217905   6.536  10.778   1.472  0.3862 -0.0152 -1.7916
 5300SOL     OW17906   7.620   8.622   9.312 -0.8474  0.9056 -0.5861
 5300SOL    HW117907   7.656   8.610   9.224  0.0874 -0.9739  0.0076
 5300SOL    HW217908   7.639   8.540   9.357 -2.2050  1.4550  1.0749
 5301SOL     OW17909   1.495   3.425   1.865  0.0164  0.2525  0.1803
 5301SOL    HW117910   1.549   3.348   1.848 -0.1918  0.4047 -1.2998
 5301SOL    HW217911   1.495   3.434   1.960  0.7356 -1.0736  0.3267
 5302SOL     OW17912   1.552   2.529   5.056 -0.0256  0.4153  0.2887
 5302SOL    HW117913   1.505   2.612   5.064  0.3723  0.5576  1.3602
 5302SOL    HW217914   1.643   2.555   5.041 -0.2378  0.1432 -1.6928
 5303SOL     OW17915   7.267   5.145   1.787 -0.0738  0.5199 -0.0221
 5303SOL    HW117916   7.324   5.080   1.827 -0.7565  1.3975  2.5713
 5303SOL    HW217917   7.317   5.227   1.792 -1.1867  1.1491  1.5882
 5304SOL     OW17918   0.273   3.145   1.107  0.7206  0.2140 -0.1374
 5304SOL    HW117919   0.340   3.087   1.144  1.2442  0.1294 -1.1932
 5304SOL    HW217920   0.263   3.116   1.016  0.5700  1.4036 -0.5167
 5305SOL     OW17921   2.753   4.768   7.718  0.3286  0.0215 -0.3722
 5305SOL    HW117922   2.839   4.807   7.708 -0.1759  0.7337 -2.5691
 5305SOL    HW217923   2.758   4.686   7.668 -0.2406  0.0272 -0.4465
 5306SOL     OW17924   8.319   1.526   2.787  0.1781 -0.5923  0.5112
 5306SOL    HW117925   8.254   1.589   2.756  2.1316  1.2205 -0.2403
 5306SOL    HW217926   8.367   1.501   2.708  1.0392 -1.0642  1.1607
 5307SOL     OW17927   5.406   2.090   9.144  0.6511 -0.0784  0.0398
 5307SOL    HW117928   5.497   2.084   9.115  0.3730 -1.1066 -0.7002
 5307SOL    HW217929   5.358   2.031   9.085 -0.6256  1.0392 -0.0846
 5308SOL     OW17930   0.198   8.062   1.616 -0.3675 -0.7386  0.3424
 5308SOL    HW117931   0.262   8.130   1.635 -2.8586  2.3467 -1.3660
 5308SOL    HW217932   0.141   8.061   1.692  0.3085 -1.8505  0.8667
 5309SOL     OW17933   9.182   7.551   7.823  0.3343 -0.2457  0.1545
 5309SOL    HW117934   9.099   7.599   7.831 -0.5185 -0.6531 -3.9680
 5309SOL    HW217935   9.172   7.477   7.883 -1.0503  1.1940  1.8183
 5310SOL     OW17936   8.998   7.461   2.293  0.0567 -0.1616  0.0929
 5310SOL    HW117937   8.991   7.531   2.228 -0.5304  0.0685  0.3990
 5310SOL    HW217938   8.921   7.472   2.348  1.1872  0.4087  1.6072
 5311SOL     OW17939   3.554   4.480  11.272  0.1163 -1.1373 -0.2333
 5311SOL    HW117940   3.614   4.419  11.229 -0.1560 -2.6074  1.3827
 5311SOL    HW217941   3.592   4.494  11.359 -0.8961 -0.5798  0.1340
 5312SOL     OW17942  10.818   3.747   9.091  0.1559  0.3647  0.2993
 5312SOL    HW117943  10.787   3.657   9.107  2.0086 -0.4806 -0.5327
 5312SOL    HW217944  10.808   3.759   8.996  0.0754  0.9779  0.3845
 5313SOL     OW17945   7.146   7.478   1.205  0.5295 -0.1517  0.1289
 5313SOL    HW117946   7.109   7.554   1.251 -0.3155  0.2228 -1.1045
 5313SOL    HW217947   7.232   7.507   1.176  0.4116  0.1729  0.0954
 5314SOL     OW17948   7.336   0.590   7.384 -0.9121 -0.4585 -0.2220
 5314SOL    HW117949   7.347   0.680   7.354  0.1615 -0.2129  0.8409
 5314SOL    HW217950   7.267   0.596   7.450 -1.6026 -0.6128 -0.9110
 5315SOL     OW17951   1.458   0.103   6.876  0.0916 -0.6100 -0.0999
 5315SOL    HW117952   1.534   0.161   6.876 -0.3985  0.0541 -0.9571
 5315SOL    HW217953   1.474   0.043   6.949  0.8522  0.2805  0.4908
 5316SOL     OW17954   6.917   1.119   9.382  0.4509 -0.4210  0.2229
 5316SOL    HW117955   6.954   1.173   9.312  0.9246 -0.7057  0.2451
 5316SOL    HW217956   6.847   1.069   9.341  0.9843 -0.8748 -0.1410
 5317SOL     OW17957   3.734   3.462   1.355  0.3156  1.0079  0.7969
 5317SOL    HW117958   3.716   3.425   1.442 -2.3142  0.4421  0.0963
 5317SOL    HW217959   3.733   3.387   1.296 -2.0407  1.7567 -0.2247
 5318SOL     OW17960   6.130   7.596  10.094  0.1418 -0.7332 -0.2919
 5318SOL    HW117961   6.221   7.608  10.124 -0.9146 -0.2747  3.1839
 5318SOL    HW217962   6.101   7.516  10.138 -1.1366 -0.9035 -1.3901
 5319SOL     OW17963   4.539   3.403  10.819  0.0577  0.5731 -0.0661
 5319SOL    HW117964   4.575   3.374  10.735  1.0862  0.5886  0.3618
 5319SOL    HW217965   4.615   3.432  10.869 -0.7604  2.5933  0.0930
 5320SOL     OW17966   1.884   1.870   9.005  0.3875 -0.2423 -0.2657
 5320SOL    HW117967   1.796   1.905   8.996 -0.5096 -2.8192 -2.6113
 5320SOL    HW217968   1.941   1.945   8.986 -1.1561  1.5902  1.7546
 5321SOL     OW17969   7.091   2.656   4.822  0.0773  0.2391 -0.8461
 5321SOL    HW117970   7.102   2.571   4.779 -0.2671 -0.6770  0.7634
 5321SOL    HW217971   7.131   2.644   4.908  1.4787  2.2541 -1.1370
 5322SOL     OW17972  10.072  10.074   8.262 -0.2683 -0.0792 -0.2267
 5322SOL    HW117973  10.089  10.163   8.295 -0.3686 -0.9110  2.2619
 5322SOL    HW217974  10.157  10.045   8.229 -0.1449  0.7927 -0.7166
 5323SOL     OW17975   4.081   4.148   7.694  0.0358  0.3552  0.0310
 5323SOL    HW117976   4.094   4.112   7.782  0.3202  0.9037  0.2186
 5323SOL    HW217977   4.069   4.072   7.638 -1.5113  0.0155  0.7544
 5324SOL     OW17978   2.662   2.513   1.630 -0.4867  0.4713  0.1420
 5324SOL    HW117979   2.677   2.424   1.662  0.1131 -0.4121 -2.3703
 5324SOL    HW217980   2.728   2.526   1.561 -2.1058  1.9246 -1.2433
 5325SOL     OW17981   4.533  10.778   0.628  0.2031  0.2755  0.2076
 5325SOL    HW117982   4.483  10.697   0.616 -0.3659  0.7175 -0.5058
 5325SOL    HW217983   4.612  10.764   0.575  1.6566 -1.0454  2.5454
 5326SOL     OW17984  10.546   8.611   7.787 -0.3765  0.0573 -0.3192
 5326SOL    HW117985  10.553   8.688   7.844 -0.4622  0.4145 -0.7879
 5326SOL    HW217986  10.571   8.538   7.843 -1.8231  0.2224  0.6002
 5327SOL     OW17987   0.823   7.436   2.869 -0.1983 -0.2940  0.0583
 5327SOL    HW117988   0.764   7.507   2.894 -0.9470 -0.3772 -1.3913
 5327SOL    HW217989   0.782   7.395   2.793  2.1845  0.2817 -1.6679
 5328SOL     OW17990   0.519   1.138   0.299  0.3324 -0.2017 -0.4707
 5328SOL    HW117991   0.535   1.231   0.318  1.2077 -0.6355  1.1025
 5328SOL    HW217992   0.478   1.104   0.379  2.2996 -1.6951 -0.0349
 5329SOL     OW17993   8.315   7.094   2.602  0.1187  0.4932  0.0207
 5329SOL    HW117994   8.408   7.090   2.622  0.1552  1.4261  0.0973
 5329SOL    HW217995   8.286   7.003   2.601  1.1484  0.1604 -0.5797
 5330SOL     OW17996   9.103   7.011   3.169 -0.2439 -0.0056  0.6567
 5330SOL    HW117997   9.119   7.091   3.120  2.7598  1.1426  3.2022
 5330SOL    HW217998   9.178   6.955   3.149 -1.3096 -1.4430  0.4620
 5331SOL     OW17999   9.942   5.914   1.469 -0.5312  1.0612 -0.0787
 5331SOL    HW118000   9.907   5.851   1.406 -0.3229 -2.0807  2.7126
 5331SOL    HW218001  10.029   5.935   1.435 -0.7836  0.2027 -1.3376
 5332SOL     OW18002   3.784   9.914   2.587 -0.6231  0.1221  0.3556
 5332SOL    HW118003   3.821   9.873   2.665 -1.1148  1.6866  1.4711
 5332SOL    HW218004   3.851   9.903   2.520  1.4073  1.7662  1.9691
 5333SOL     OW18005   8.845   2.374  10.447 -0.2738  0.3393  0.4592
 5333SOL    HW118006   8.761   2.351  10.407  0.0267  0.3022 -0.1564
 5333SOL    HW218007   8.823   2.442  10.511 -0.5657  1.4798 -0.8151
 5334SOL     OW18008   5.908   9.750   6.231 -0.1073 -0.8811  0.6068
 5334SOL    HW118009   5.959   9.725   6.308 -0.5767 -0.5083  1.0435
 5334SOL    HW218010   5.821   9.716   6.249 -0.3231 -0.4198  0.4344
 5335SOL     OW18011   8.658   6.482   8.204  0.0472  0.2923  0.1352
 5335SOL    HW118012   8.642   6.505   8.296  2.0450  1.4799  0.2614
 5335SOL    HW218013   8.584   6.427   8.179  0.9700 -2.7875  3.4179
 5336SOL     OW18014   9.129   6.483   3.585  0.3251 -0.0680  0.3998
 5336SOL    HW118015   9.153   6.442   3.669  0.6092 -0.9621 -0.1009
 5336SOL    HW218016   9.109   6.574   3.607  1.0480 -0.1214  1.3427
 5337SOL     OW18017   0.137   0.187  10.163  0.1035 -0.4877 -0.8937
 5337SOL    HW118018   0.076   0.255  10.192  0.5241 -0.5036  0.0686
 5337SOL    HW218019   0.105   0.107  10.205  0.4376 -0.6076 -0.8639
 5338SOL     OW18020   2.254   6.925   1.231 -0.1172  0.0401  0.0914
 5338SOL    HW118021   2.271   6.983   1.157 -1.7646 -0.7530 -0.9466
 5338SOL    HW218022   2.168   6.889   1.214  0.1717 -1.4456  1.5674
 5339SOL     OW18023   8.266   2.098   0.412  0.6677 -1.0240 -0.6604
 5339SOL    HW118024   8.292   2.011   0.441  1.1184 -0.1705  1.7239
 5339SOL    HW218025   8.337   2.127   0.354  1.4688 -1.4920  0.0742
 5340SOL     OW18026   1.271   2.703   8.590 -0.2660  1.3184 -0.5417
 5340SOL    HW118027   1.250   2.797   8.593 -2.5252  0.9607 -2.2953
 5340SOL    HW218028   1.199   2.661   8.637 -0.3847  0.3789 -1.5109
 5341SOL     OW18029   6.798  10.748   0.093  0.2389  0.3071 -0.2182
 5341SOL    HW118030   6.891  10.763   0.073  0.4366  0.4206  0.7253
 5341SOL    HW218031   6.795  10.660   0.129  0.0137  0.3726 -0.0745
 5342SOL     OW18032   7.657   9.380   5.012 -0.2509  0.8483 -0.0307
 5342SOL    HW118033   7.662   9.351   5.103 -1.1128  1.5278  0.2540
 5342SOL    HW218034   7.587   9.327   4.974  0.6114  0.0427 -0.5123
 5343SOL     OW18035   6.316  10.519   0.840 -0.1137  0.6785  0.6137
 5343SOL    HW118036   6.310  10.451   0.773 -0.6772  0.8512  0.4814
 5343SOL    HW218037   6.383  10.487   0.901  0.7676  0.7675 -0.2940
 5344SOL     OW18038   4.109   9.155   5.220  0.0674 -0.3630  0.8739
 5344SOL    HW118039   4.035   9.102   5.249  0.5745 -0.5247  1.8889
 5344SOL    HW218040   4.172   9.152   5.292  1.2404 -0.5414 -0.1177
 5345SOL     OW18041  10.061   7.559   9.048  0.2348 -0.1153 -0.1795
 5345SOL    HW118042  10.110   7.506   8.985 -1.9996 -1.9126 -0.5029
 5345SOL    HW218043  10.005   7.614   8.994 -0.2868 -0.2541  0.2192
 5346SOL     OW18044   4.559   0.205   9.919  0.3197  0.1388 -0.5315
 5346SOL    HW118045   4.486   0.258   9.886 -1.3603  0.5811  3.3767
 5346SOL    HW218046   4.571   0.235  10.009  2.1636 -3.2407  0.5096
 5347SOL     OW18047   4.005  10.741   5.806  0.0571  0.0301 -0.2271
 5347SOL    HW118048   3.945  10.717   5.736 -0.4633 -1.3101  0.6325
 5347SOL    HW218049   4.023  10.834   5.792 -0.0259 -0.2001 -2.1163
 5348SOL     OW18050   0.172   6.638   4.408 -0.6092  0.0190  0.0997
 5348SOL    HW118051   0.171   6.590   4.325 -0.4577 -0.0314  0.1267
 5348SOL    HW218052   0.102   6.598   4.459 -0.7725  0.1199 -0.0429
 5349SOL     OW18053   5.679   6.333   8.009  0.0632 -0.3613  0.3835
 5349SOL    HW118054   5.694   6.254   8.059 -1.2042 -1.2959 -0.6368
 5349SOL    HW218055   5.711   6.404   8.065  1.7620 -1.6222  1.0610
 5350SOL     OW18056   5.708   1.952  10.632 -0.3646  0.0910  0.0717
 5350SOL    HW118057   5.778   2.008  10.667 -1.1545  0.9126  0.3657
 5350SOL    HW218058   5.632   1.970  10.687 -1.3036  0.4991 -1.2902
 5351SOL     OW18059   3.948   7.997   1.495 -0.2057  0.2458  0.1601
 5351SOL    HW118060   3.942   7.909   1.530  0.0499 -0.2057 -0.8837
 5351SOL    HW218061   3.857   8.022   1.477 -0.2939  0.2816  0.6553
 5352SOL     OW18062   0.983   7.161   4.974  0.2439  0.0844  0.3421
 5352SOL    HW118063   1.026   7.207   5.046 -0.4248 -1.2737  1.6375
 5352SOL    HW218064   0.995   7.068   4.993  1.9556 -0.3872 -2.4624
 5353SOL     OW18065   9.582   2.392   2.074 -0.1708 -0.4369 -0.2286
 5353SOL    HW118066   9.509   2.451   2.091 -1.4948 -1.7723 -1.0111
 5353SOL    HW218067   9.546   2.325   2.016  1.1490 -2.2009  0.8545
 5354SOL     OW18068   9.535   9.617   7.997 -0.3367 -0.5837  0.3387
 5354SOL    HW118069   9.468   9.561   8.037 -0.2092  1.6932  4.2915
 5354SOL    HW218070   9.580   9.657   8.072  3.6155  0.1993 -2.1784
 5355SOL     OW18071   9.938   4.286   6.615  0.5869  0.4942 -0.3731
 5355SOL    HW118072   9.857   4.316   6.575  0.6626  1.1325 -0.0547
 5355SOL    HW218073   9.974   4.223   6.552  1.3256  2.3613 -1.9292
 5356SOL     OW18074  10.348   9.004   4.265 -0.5557  0.2820  0.1624
 5356SOL    HW118075  10.351   8.908   4.269 -1.6910  0.2016 -0.4293
 5356SOL    HW218076  10.275   9.023   4.207 -0.8935  1.5281  0.9565
 5357SOL     OW18077   5.778   5.682   7.671 -0.2464  0.3479 -0.3738
 5357SOL    HW118078   5.781   5.627   7.593 -1.6791 -0.6735  0.2413
 5357SOL    HW218079   5.686   5.709   7.678  0.0403  1.1904  0.4456
 5358SOL     OW18080  10.426   3.612   7.756  0.1780 -0.1421  0.5308
 5358SOL    HW118081  10.370   3.583   7.829 -1.8196 -0.0502 -0.8818
 5358SOL    HW218082  10.403   3.704   7.744 -1.9727 -0.8752 -2.1613
 5359SOL     OW18083   5.511   5.705   0.826  0.2439  0.6729  0.1758
 5359SOL    HW118084   5.489   5.744   0.741  0.1353 -1.3294 -0.7649
 5359SOL    HW218085   5.556   5.624   0.804  3.0285  1.5474  2.0355
 5360SOL     OW18086   3.699   3.295   0.208 -0.1536 -0.4832 -0.0658
 5360SOL    HW118087   3.682   3.284   0.302  0.2060 -0.3057  0.0200
 5360SOL    HW218088   3.616   3.271   0.166 -0.2818 -0.6708  0.2901
 5361SOL     OW18089   6.983   3.782   4.560  0.0715  0.2159 -0.3036
 5361SOL    HW118090   6.914   3.773   4.494 -2.2798 -0.1348  2.0745
 5361SOL    HW218091   6.986   3.698   4.604  0.8226  0.7878  0.7880
 5362SOL     OW18092   8.434   6.987   0.575 -0.3250 -0.4264 -0.4589
 5362SOL    HW118093   8.449   6.943   0.659 -0.2880  0.8461  0.2314
 5362SOL    HW218094   8.520   6.994   0.536 -0.5311 -2.3689 -1.3243
 5363SOL     OW18095   6.654   5.778   6.175 -0.7712 -0.2283 -0.0619
 5363SOL    HW118096   6.683   5.824   6.254  0.0666  1.0622 -1.0866
 5363SOL    HW218097   6.576   5.826   6.147  0.1032  0.6281 -1.1333
 5364SOL     OW18098   0.627  10.083   7.252  0.1089 -0.2492  0.3718
 5364SOL    HW118099   0.714  10.118   7.274  0.7718 -2.4778  1.6596
 5364SOL    HW218100   0.643   9.991   7.229 -1.7877 -0.4029 -0.5496
 5365SOL     OW18101   8.130   7.331   1.969  0.1184 -0.5233 -0.2612
 5365SOL    HW118102   8.186   7.327   2.046  0.3198 -0.2125 -0.3884
 5365SOL    HW218103   8.066   7.400   1.990  1.0137  0.5429 -0.9119
 5366SOL     OW18104   7.575   8.234   6.866  0.0925 -0.1943 -0.4741
 5366SOL    HW118105   7.534   8.275   6.943 -0.1739 -0.2694 -0.5742
 5366SOL    HW218106   7.653   8.287   6.850  1.6949 -1.7590  1.4966
 5367SOL     OW18107   2.671   4.179   2.756  0.0591 -0.4423 -0.1011
 5367SOL    HW118108   2.666   4.094   2.712 -0.6033 -1.0098  1.0245
 5367SOL    HW218109   2.630   4.240   2.696  1.7905 -0.6128 -1.5679
 5368SOL     OW18110   2.582   5.199   5.989  0.0663  0.5908  0.0201
 5368SOL    HW118111   2.580   5.253   6.069 -2.3326  0.1249  0.3663
 5368SOL    HW218112   2.529   5.248   5.926  1.5967  0.7552 -1.2055
 5369SOL     OW18113   1.087   5.493   6.991 -0.2547  0.2527  0.0930
 5369SOL    HW118114   1.112   5.572   6.943 -0.3683  1.6087  2.1336
 5369SOL    HW218115   1.169   5.445   7.001 -0.0226  0.5217 -0.4645
 5370SOL     OW18116   9.527   8.550   5.812  0.6067 -0.4346  0.6809
 5370SOL    HW118117   9.522   8.627   5.869  1.4476  0.1006  0.0483
 5370SOL    HW218118   9.569   8.483   5.865  1.4137  0.0693  0.6866
 5371SOL     OW18119   2.294   7.137   5.724 -0.0346 -0.1608  0.8352
 5371SOL    HW118120   2.269   7.218   5.678  0.5723 -0.8400 -0.7600
 5371SOL    HW218121   2.292   7.161   5.817 -2.2527  1.0030  0.5622
 5372SOL     OW18122   2.849   4.496   9.885 -0.0950  0.3376  0.2003
 5372SOL    HW118123   2.915   4.439   9.845  0.6758  1.0193  0.4540
 5372SOL    HW218124   2.792   4.437   9.934  0.7923 -0.2100  0.6113
 5373SOL     OW18125   4.753   5.346  10.202 -0.5217  0.0313 -0.5160
 5373SOL    HW118126   4.669   5.388  10.221 -1.7978 -2.9163  0.9899
 5373SOL    HW218127   4.791   5.329  10.288 -0.0652 -1.7790 -1.0329
 5374SOL     OW18128   2.348   9.843   8.462  0.1432 -0.3303  0.0098
 5374SOL    HW118129   2.260   9.857   8.427  0.3632  0.5856 -0.1926
 5374SOL    HW218130   2.336   9.779   8.532 -0.8295  0.5114  0.6265
 5375SOL     OW18131   6.765  11.138   4.119 -0.5150 -1.3603  0.5107
 5375SOL    HW118132   6.800  11.069   4.062  0.1101  0.6395 -1.6330
 5375SOL    HW218133   6.834  11.150   4.185 -0.0080 -1.8114  0.0782
 5376SOL     OW18134   7.827   2.433   6.340 -0.9020 -0.4128  0.5762
 5376SOL    HW118135   7.826   2.373   6.266  1.1018  0.6286 -0.3735
 5376SOL    HW218136   7.826   2.521   6.301  0.3444  0.1643  1.7362
 5377SOL     OW18137   9.522   1.626   5.747  0.7232 -0.1873  0.0945
 5377SOL    HW118138   9.595   1.656   5.692  1.5580  1.3241  1.9350
 5377SOL    HW218139   9.531   1.531   5.748  2.1977 -0.0811 -0.3761
 5378SOL     OW18140   4.497   3.779   3.252  0.2472  0.2180  0.3121
 5378SOL    HW118141   4.570   3.836   3.229 -0.3242  0.6096 -0.5964
 5378SOL    HW218142   4.434   3.838   3.294 -0.7144  0.4640 -1.3967
 5379SOL     OW18143   3.126   5.263   3.062 -0.1665 -0.5538  0.1692
 5379SOL    HW118144   3.076   5.341   3.086  0.0137 -0.7792  1.3580
 5379SOL    HW218145   3.110   5.252   2.969 -0.2102  0.8942 -0.0141
 5380SOL     OW18146   6.309   6.816   2.868  0.3243  0.6121 -0.7212
 5380SOL    HW118147   6.264   6.776   2.793  0.8776 -0.1893 -0.6390
 5380SOL    HW218148   6.284   6.908   2.864 -1.4250  0.1673 -0.5862
 5381SOL     OW18149   5.064   5.775   0.925  0.0498  0.4181  0.0480
 5381SOL    HW118150   5.135   5.830   0.959 -0.2528 -0.0162  1.4373
 5381SOL    HW218151   5.063   5.699   0.984 -1.0041  0.0070 -0.4870
 5382SOL     OW18152   8.965   7.694   5.086 -0.0383 -0.0215  0.1475
 5382SOL    HW118153   8.894   7.729   5.141  1.4274  1.6119  1.1181
 5382SOL    HW218154   9.003   7.771   5.044 -0.1650 -1.0920 -2.0640
 5383SOL     OW18155   1.951   7.914   3.048  0.1806 -0.7387 -0.2738
 5383SOL    HW118156   1.963   7.838   2.992 -1.2951 -1.4929  0.3820
 5383SOL    HW218157   2.021   7.906   3.114  1.7061 -0.0281 -1.7346
 5384SOL     OW18158   0.088   3.631   3.199  0.2405  0.1504 -0.3493
 5384SOL    HW118159   0.059   3.552   3.152 -1.0870  0.2098  0.3078
 5384SOL    HW218160   0.007   3.670   3.232  0.8738  1.8003 -0.6558
 5385SOL     OW18161   1.341   1.426   6.089  0.2970 -1.1224 -0.0507
 5385SOL    HW118162   1.403   1.356   6.068 -0.7135 -2.1706  0.3559
 5385SOL    HW218163   1.359   1.494   6.023  1.3668 -1.6983 -0.3868
 5386SOL     OW18164   6.587   3.872   3.097  0.2360  0.2523 -0.4993
 5386SOL    HW118165   6.622   3.955   3.065 -1.3076  1.0173 -0.2693
 5386SOL    HW218166   6.506   3.859   3.048 -0.5709 -0.0949  0.8768
 5387SOL     OW18167   7.287   5.299   9.265  0.5679  0.1834 -0.2077
 5387SOL    HW118168   7.269   5.313   9.172  0.1953  1.1530 -0.0015
 5387SOL    HW218169   7.208   5.258   9.299  0.9114 -0.6707 -0.4202
 5388SOL     OW18170   1.338   9.253   8.596  0.0716 -0.0680 -0.5774
 5388SOL    HW118171   1.355   9.310   8.520  2.5132 -0.6044 -0.4978
 5388SOL    HW218172   1.391   9.175   8.580 -0.8388 -1.0119  0.8034
 5389SOL     OW18173  10.555   5.993   1.406  0.1563 -0.0561  0.2547
 5389SOL    HW118174  10.568   5.909   1.451 -1.6400 -0.1020  0.7961
 5389SOL    HW218175  10.592   6.058   1.466  0.8111 -0.3966  0.2209
 5390SOL     OW18176   2.517   7.695  10.880  0.5695  0.6854 -0.1266
 5390SOL    HW118177   2.433   7.690  10.926  1.2232  0.9449  1.1501
 5390SOL    HW218178   2.529   7.789  10.863  0.1535  0.5548 -1.2010
 5391SOL     OW18179   4.104  10.579   9.198  0.5554  0.1528 -0.1410
 5391SOL    HW118180   4.038  10.510   9.191  1.5407 -0.9264  0.6929
 5391SOL    HW218181   4.106  10.601   9.291  1.0758  0.4575 -0.2191
 5392SOL     OW18182  10.623  10.250   9.492 -0.1429  0.3531  0.3705
 5392SOL    HW118183  10.678  10.221   9.565 -0.8980  0.1491  0.8606
 5392SOL    HW218184  10.534  10.252   9.527 -0.4047  1.0845 -0.2998
 5393SOL     OW18185   6.856  10.310   3.140 -0.1143  0.1431 -0.0949
 5393SOL    HW118186   6.915  10.352   3.202  0.3294 -0.9243  0.2323
 5393SOL    HW218187   6.804  10.249   3.192  0.1219 -0.6200 -0.7177
 5394SOL     OW18188   9.068   5.709   5.585 -0.3306 -0.0892 -0.2896
 5394SOL    HW118189   9.115   5.674   5.509 -0.1749  0.7942 -0.6094
 5394SOL    HW218190   9.043   5.798   5.559 -0.3996  0.1729  0.6428
 5395SOL     OW18191   8.454   0.004   0.558 -0.2468  0.5522  0.0087
 5395SOL    HW118192   8.537  -0.018   0.515  1.1935 -2.6769  3.8138
 5395SOL    HW218193   8.478   0.029   0.647 -3.3062  1.7582  0.6478
 5396SOL     OW18194   3.261   4.376   8.354 -0.2237 -0.4240  0.3321
 5396SOL    HW118195   3.176   4.418   8.367  0.1965  1.4620 -2.2222
 5396SOL    HW218196   3.325   4.445   8.375  0.6141 -1.1987  0.3599
 5397SOL     OW18197   7.464   0.285   8.462 -0.3368 -0.4884 -0.4925
 5397SOL    HW118198   7.501   0.332   8.387 -0.8999  2.0636  0.7069
 5397SOL    HW218199   7.375   0.319   8.470 -0.3512 -0.8240  1.2048
 5398SOL     OW18200   4.268  10.010   6.666  0.3358 -0.0282  0.5401
 5398SOL    HW118201   4.326   9.934   6.657 -1.3895 -1.1804 -3.0402
 5398SOL    HW218202   4.183   9.972   6.690 -0.0648  1.0710  0.9336
 5399SOL     OW18203   2.809   4.041   2.312 -0.4620 -0.6791  0.1958
 5399SOL    HW118204   2.799   4.119   2.257 -0.3347 -0.9610 -0.2281
 5399SOL    HW218205   2.727   4.037   2.363  0.8351  1.6238  2.7241
 5400SOL     OW18206   9.827  11.272   6.385 -0.2832  0.2198 -0.1266
 5400SOL    HW118207   9.744  11.224   6.387 -0.2958  0.2268  1.8165
 5400SOL    HW218208   9.893  11.204   6.372 -0.4622 -0.0900  0.5062
 5401SOL     OW18209   4.304   3.111   9.801 -0.1826  0.2822 -0.2052
 5401SOL    HW118210   4.211   3.118   9.782 -0.0853  0.8121 -0.4992
 5401SOL    HW218211   4.341   3.195   9.772  0.7706 -0.7890 -2.3273
 5402SOL     OW18212   4.789   5.588   4.452 -0.2315  0.7261 -0.3646
 5402SOL    HW118213   4.866   5.612   4.401  0.3643 -0.4155 -0.0217
 5402SOL    HW218214   4.776   5.662   4.512  1.4136  0.3640  0.5043
 5403SOL     OW18215   9.362   7.057  10.881  0.0448 -0.2451  0.5085
 5403SOL    HW118216   9.388   7.055  10.973  3.2235 -2.6174 -0.2547
 5403SOL    HW218217   9.289   6.996  10.875 -0.1044 -0.1689  1.4446
 5404SOL     OW18218   4.184  10.160   5.138 -0.5241  0.0922 -0.5469
 5404SOL    HW118219   4.112  10.199   5.088 -0.4696  0.4500 -0.3473
 5404SOL    HW218220   4.175  10.195   5.226  0.1180  0.4447 -0.6127
 5405SOL     OW18221   1.619   1.198   6.940 -0.2246 -0.3762 -0.4151
 5405SOL    HW118222   1.525   1.188   6.928 -0.2718  1.6491 -2.4891
 5405SOL    HW218223   1.640   1.282   6.898  2.5369 -0.8521 -0.1910
 5406SOL     OW18224   0.779   2.680   2.623  0.0394 -1.1248  0.8201
 5406SOL    HW118225   0.872   2.658   2.627  0.1711 -1.6108 -2.2638
 5406SOL    HW218226   0.772   2.761   2.674  2.9497  1.0386 -1.7658
 5407SOL     OW18227   6.243   8.298   3.328  0.6180 -0.3179  0.2157
 5407SOL    HW118228   6.268   8.305   3.420 -1.6466 -0.7099  0.9470
 5407SOL    HW218229   6.207   8.384   3.306 -0.7060 -0.8033  0.3662
 5408SOL     OW18230   4.501   2.974   0.357 -0.4204  0.0123  0.5978
 5408SOL    HW118231   4.538   3.053   0.396 -0.4387 -0.4933  1.6559
 5408SOL    HW218232   4.569   2.943   0.297  0.5556 -0.4197  1.8730
 5409SOL     OW18233   3.438   9.247   7.747  0.3224 -0.7828 -0.1179
 5409SOL    HW118234   3.354   9.289   7.765 -0.1051 -1.6436 -0.0141
 5409SOL    HW218235   3.414   9.157   7.723  0.8797  0.0001 -4.2302
 5410SOL     OW18236   0.922   5.276   6.945 -0.4802 -0.0556  0.2285
 5410SOL    HW118237   0.864   5.243   7.014 -0.8304  1.4535  0.6889
 5410SOL    HW218238   0.983   5.334   6.991  0.0308  0.0604 -0.5705
 5411SOL     OW18239   0.559   5.440   6.409 -0.9123 -0.1902  0.5881
 5411SOL    HW118240   0.465   5.422   6.411 -0.9951  0.0943 -0.1407
 5411SOL    HW218241   0.598   5.362   6.369 -1.1022  0.5349 -1.1403
 5412SOL     OW18242   7.740   4.213  10.966 -0.0879  0.2883  0.7123
 5412SOL    HW118243   7.736   4.299  11.007  1.7646  0.7730  0.0037
 5412SOL    HW218244   7.785   4.158  11.031 -2.5922 -0.6231  1.8052
 5413SOL     OW18245  10.100   4.186   9.951 -0.3402  0.7135  0.3670
 5413SOL    HW118246  10.005   4.171   9.947 -0.1925  0.0162 -2.2975
 5413SOL    HW218247  10.117   4.249   9.881  1.5315 -1.8303 -1.6645
 5414SOL     OW18248  10.533   2.718   3.815  0.1040  0.0862  0.9209
 5414SOL    HW118249  10.566   2.655   3.879 -0.4221  1.0423  2.1578
 5414SOL    HW218250  10.608   2.773   3.793  0.2277 -0.1043  0.8621
 5415SOL     OW18251  10.937   2.385  10.467 -0.7726  0.7355  0.5565
 5415SOL    HW118252  11.003   2.372  10.399 -2.0264  2.3345 -1.0484
 5415SOL    HW218253  10.986   2.423  10.540  0.0772  2.2795 -0.7498
 5416SOL     OW18254   0.462   2.477   7.117 -0.0641  0.3916 -0.3254
 5416SOL    HW118255   0.548   2.515   7.135  0.6141 -0.9574 -0.5360
 5416SOL    HW218256   0.475   2.426   7.037 -1.1368  0.3928 -0.5162
 5417SOL     OW18257   7.359   9.492   2.837 -0.1129 -0.3724  0.2986
 5417SOL    HW118258   7.276   9.533   2.862  0.3176  1.5303 -1.1393
 5417SOL    HW218259   7.373   9.520   2.746  2.5458  0.1477  0.7829
 5418SOL     OW18260   1.963   6.664   7.945 -0.6813  0.1270 -0.4928
 5418SOL    HW118261   2.040   6.631   7.992 -0.0341  1.4943 -0.5612
 5418SOL    HW218262   1.900   6.684   8.013  0.1297  1.7846 -0.1766
 5419SOL     OW18263   0.497  10.208  10.220 -0.0622  0.2706 -0.3618
 5419SOL    HW118264   0.438  10.178  10.152 -0.2987 -0.1211  0.0083
 5419SOL    HW218265   0.540  10.285  10.183  0.5513 -0.5212 -1.3338
 5420SOL     OW18266   3.557   6.851   1.980  0.3649  0.2903  0.0433
 5420SOL    HW118267   3.607   6.770   1.975 -0.0112  0.1160 -2.8462
 5420SOL    HW218268   3.472   6.825   2.015  0.6858 -0.3177  0.3840
 5421SOL     OW18269   8.443   1.955   7.016 -0.4278 -0.8640 -0.0648
 5421SOL    HW118270   8.505   1.954   7.089 -2.3803  0.8397  1.7672
 5421SOL    HW218271   8.379   1.886   7.039 -1.7856  0.5569  0.6150
 5422SOL     OW18272   1.494   2.012   2.598  0.1159 -0.1816  0.3525
 5422SOL    HW118273   1.477   1.964   2.679  1.3058 -1.5125 -0.1503
 5422SOL    HW218274   1.464   2.101   2.617 -0.2157 -0.6103  2.0329
 5423SOL     OW18275   1.451  11.097   1.968  0.0100 -0.8709  0.2195
 5423SOL    HW118276   1.519  11.129   2.027 -1.6598  0.2719  1.6265
 5423SOL    HW218277   1.489  11.104   1.881  1.4198  0.4141  0.8950
 5424SOL     OW18278   7.049   4.698   9.513 -0.2204 -0.0757  0.1558
 5424SOL    HW118279   7.084   4.749   9.586 -0.0834 -0.0626  0.0825
 5424SOL    HW218280   6.954   4.702   9.525 -0.1805 -0.6150  0.6973
 5425SOL     OW18281   0.594   2.995  11.120  0.2534 -0.3662  0.8762
 5425SOL    HW118282   0.504   3.018  11.145  0.7565 -0.0937  2.5656
 5425SOL    HW218283   0.632   3.077  11.087 -0.4686 -0.7671 -1.1049
 5426SOL     OW18284   9.242   8.284   5.687 -0.6107 -0.7597  0.6674
 5426SOL    HW118285   9.213   8.363   5.641  1.6215 -0.1529  0.1767
 5426SOL    HW218286   9.254   8.312   5.778  1.7782  0.0020  0.1876
 5427SOL     OW18287   2.117   7.692   3.512 -0.4576 -0.1505  0.1041
 5427SOL    HW118288   2.113   7.726   3.602  0.5935 -1.5957  0.7380
 5427SOL    HW218289   2.040   7.636   3.505 -0.5247 -0.0596  0.1031
 5428SOL     OW18290   2.843   3.938   5.274 -0.0792  0.2294 -0.3657
 5428SOL    HW118291   2.870   4.008   5.215  2.4882  0.1788  0.5907
 5428SOL    HW218292   2.923   3.888   5.290 -1.2027 -1.1875  1.2545
 5429SOL     OW18293   6.732   1.541   3.161 -0.3126  0.2794 -0.3577
 5429SOL    HW118294   6.746   1.569   3.070  2.9500 -0.7245 -0.2916
 5429SOL    HW218295   6.671   1.467   3.154 -0.8048  0.7801 -1.6170
 5430SOL     OW18296   9.292   8.445   5.220 -0.5519 -0.0099  0.9518
 5430SOL    HW118297   9.212   8.429   5.169  0.2537  0.1028 -0.4007
 5430SOL    HW218298   9.303   8.540   5.218  2.5334 -0.1357 -3.7789
 5431SOL     OW18299   6.135   2.106   0.409  0.7552  0.4654  0.2430
 5431SOL    HW118300   6.045   2.136   0.425  0.6914  0.1553  0.4805
 5431SOL    HW218301   6.138   2.089   0.315  0.2064 -0.6580  0.4132
 5432SOL     OW18302   0.453   3.656   8.349  0.6557 -0.7991  0.0832
 5432SOL    HW118303   0.459   3.561   8.362  0.4219 -0.6693  1.1922
 5432SOL    HW218304   0.399   3.666   8.270  1.2267 -1.5944 -0.4300
 5433SOL     OW18305   8.826   6.092   3.502  0.1091 -0.4909  0.2766
 5433SOL    HW118306   8.845   6.186   3.499  0.0072 -0.4674  0.3928
 5433SOL    HW218307   8.793   6.072   3.414  1.3737 -0.6766 -0.1782
 5434SOL     OW18308   0.055   9.396   6.613  0.2046  0.4148  0.0238
 5434SOL    HW118309   0.080   9.315   6.567  1.1184 -0.5120  2.0073
 5434SOL    HW218310   0.029   9.456   6.543 -3.0768 -2.3768 -1.4581
 5435SOL     OW18311   0.592   0.084   4.152  0.3804  0.0409  0.3083
 5435SOL    HW118312   0.677   0.086   4.108  0.4723 -1.2059  0.3910
 5435SOL    HW218313   0.571  -0.010   4.160 -1.2611  0.3330 -0.2199
 5436SOL     OW18314   2.209   2.874   0.771 -0.1164  0.2345  0.1907
 5436SOL    HW118315   2.128   2.823   0.771 -0.7048  1.1304 -0.6341
 5436SOL    HW218316   2.247   2.859   0.857 -0.8588 -0.6721  0.3779
 5437SOL     OW18317   9.958   8.048  10.029  0.6553  0.6121 -0.0242
 5437SOL    HW118318   9.974   8.039  10.123 -0.9786  1.3747  0.3645
 5437SOL    HW218319   9.921   7.963  10.003  0.0463  0.7680  0.2908
 5438SOL     OW18320   0.554   5.660  10.491 -0.2065 -0.3842 -0.5440
 5438SOL    HW118321   0.501   5.705  10.426 -1.8816 -1.8067 -0.2283
 5438SOL    HW218322   0.493   5.600  10.535  1.3598 -1.0723  0.8080
 5439SOL     OW18323   2.321   2.924   6.666  0.8986  0.1766 -0.4573
 5439SOL    HW118324   2.252   2.925   6.600 -1.5041  0.6824  1.8971
 5439SOL    HW218325   2.377   2.999   6.644 -0.6627  1.1894 -1.1117
 5440SOL     OW18326  10.342   7.904   8.610 -0.0147 -0.0958  0.2840
 5440SOL    HW118327  10.390   7.913   8.692 -0.5441  0.5355  0.5283
 5440SOL    HW218328  10.311   7.992   8.590 -3.3142 -0.8674  1.4923
 5441SOL     OW18329   5.587   8.384   3.264 -0.0511 -0.4313  0.3579
 5441SOL    HW118330   5.624   8.380   3.352 -0.0767 -1.4501  0.3311
 5441SOL    HW218331   5.498   8.418   3.277 -0.3750 -1.4321  0.8386
 5442SOL     OW18332  10.464   0.036   1.888 -0.0070 -0.7347 -0.7670
 5442SOL    HW118333  10.434   0.062   1.975  0.7725 -0.0631 -0.6854
 5442SOL    HW218334  10.399  -0.028   1.858  0.7911 -2.5662  1.1440
 5443SOL     OW18335   8.594   3.598   4.403 -0.5505  0.2487 -0.0128
 5443SOL    HW118336   8.670   3.573   4.351 -0.7560  2.0596 -1.2512
 5443SOL    HW218337   8.523   3.607   4.340 -0.6450  3.2028  0.3625
 5444SOL     OW18338   2.504   4.995   2.018  0.1381 -0.4057  0.8274
 5444SOL    HW118339   2.593   4.995   2.054  1.0026  1.1293 -1.1133
 5444SOL    HW218340   2.504   4.924   1.954  0.5662  0.6976 -0.4311
 5445SOL     OW18341  10.800   7.864   2.141  0.3477  0.0157  0.2105
 5445SOL    HW118342  10.715   7.862   2.185  1.0515 -1.4897  1.6136
 5445SOL    HW218343  10.854   7.920   2.197 -0.4234  3.5879 -2.2780
 5446SOL     OW18344   6.219   2.389   6.845  0.0202 -0.2294 -0.1038
 5446SOL    HW118345   6.181   2.357   6.763 -0.9346  1.3608 -0.3123
 5446SOL    HW218346   6.300   2.338   6.855  0.1540 -0.4608 -2.0248
 5447SOL     OW18347   8.785   7.059   4.793  0.7663  0.1379 -0.1119
 5447SOL    HW118348   8.843   7.028   4.724 -0.2699 -2.9159  0.2357
 5447SOL    HW218349   8.824   7.028   4.874 -0.0412  0.2592  0.3379
 5448SOL     OW18350   1.610   5.107   9.425 -0.1442  0.0826  0.8718
 5448SOL    HW118351   1.700   5.104   9.392 -0.2229 -0.1651  0.6894
 5448SOL    HW218352   1.590   5.017   9.449 -1.2754 -0.3469 -1.5140
 5449SOL     OW18353   3.913   1.096   5.058 -0.1301  0.8417  0.2871
 5449SOL    HW118354   3.940   1.157   5.126  0.1124 -0.4894  1.4156
 5449SOL    HW218355   3.909   1.011   5.101 -1.5484  0.2176 -0.9741
 5450SOL     OW18356   1.361   5.600   7.884  0.1482 -0.1224  0.5683
 5450SOL    HW118357   1.352   5.680   7.937 -3.0333 -0.5426  0.8098
 5450SOL    HW218358   1.347   5.630   7.794  0.6295 -0.1715  0.4742
 5451SOL     OW18359   4.784  10.487  10.588 -0.4507 -0.4536 -0.3997
 5451SOL    HW118360   4.775  10.419  10.655 -0.0436 -0.7886 -0.6855
 5451SOL    HW218361   4.851  10.454  10.529  2.4242  1.6818  1.3749
 5452SOL     OW18362   7.813   1.223  10.228  0.5890  0.2973 -0.5319
 5452SOL    HW118363   7.842   1.300  10.179 -1.5538  0.3188 -1.9325
 5452SOL    HW218364   7.739   1.190  10.178 -0.3818 -0.9776  1.5985
 5453SOL     OW18365   2.911   1.920   0.789 -0.2014 -0.1381  0.2856
 5453SOL    HW118366   3.003   1.896   0.802 -0.5746 -1.5142  0.5168
 5453SOL    HW218367   2.912   1.976   0.711  0.8359 -0.0468  0.3429
 5454SOL     OW18368   0.279   3.231   9.296  0.0229 -0.4127 -0.2208
 5454SOL    HW118369   0.358   3.176   9.303  0.2649 -0.3725 -2.1356
 5454SOL    HW218370   0.212   3.172   9.263 -0.5585 -0.2528  0.6485
 5455SOL     OW18371   6.672   8.979   8.912  0.4651  0.1242  0.5092
 5455SOL    HW118372   6.719   8.953   8.832 -0.7068  0.1362 -0.1984
 5455SOL    HW218373   6.742   8.996   8.976  1.3899 -0.7269 -0.2446
 5456SOL     OW18374   3.815   1.936   1.649 -0.1654 -0.2543  0.0766
 5456SOL    HW118375   3.865   2.016   1.632 -2.2920  0.8422 -1.4828
 5456SOL    HW218376   3.771   1.953   1.733  0.8995 -0.6382  0.7323
 5457SOL     OW18377   7.420   2.113  10.240  0.4114  0.2763 -0.3941
 5457SOL    HW118378   7.393   2.201  10.267  0.7611  0.0260  0.8832
 5457SOL    HW218379   7.504   2.101  10.283 -0.3588 -1.2644  0.7740
 5458SOL     OW18380  11.086   8.801   3.465  0.4233 -0.1062 -0.5241
 5458SOL    HW118381  11.169   8.825   3.423 -0.3017  2.6012 -0.6369
 5458SOL    HW218382  11.085   8.852   3.546 -1.2175  0.1534 -0.6716
 5459SOL     OW18383   7.297  10.885   3.380  0.5787 -0.2071  0.3086
 5459SOL    HW118384   7.241  10.914   3.308 -1.1369  0.4003  1.8023
 5459SOL    HW218385   7.384  10.917   3.357 -0.6859  3.9647  0.5307
 5460SOL     OW18386   4.537   3.675   9.701 -0.3140 -0.0333 -0.7824
 5460SOL    HW118387   4.490   3.730   9.638 -0.8378  0.0596 -0.3165
 5460SOL    HW218388   4.569   3.736   9.767 -0.2843 -0.2028 -0.6405
 5461SOL     OW18389   9.375   8.010   0.921 -0.6198 -0.2555 -0.5126
 5461SOL    HW118390   9.322   7.972   0.991 -1.0052  0.2320 -0.5310
 5461SOL    HW218391   9.334   8.095   0.904  0.6292  0.4699  0.0001
 5462SOL     OW18392   8.785   5.291   0.476  1.1243 -0.4093  0.7913
 5462SOL    HW118393   8.815   5.201   0.465 -0.9133 -1.2981  1.8636
 5462SOL    HW218394   8.719   5.285   0.545 -1.5955  1.2807 -1.4396
 5463SOL     OW18395   6.128   7.311  11.139  0.4240 -0.3583  0.1879
 5463SOL    HW118396   6.058   7.361  11.096  2.6350  2.0736 -0.8089
 5463SOL    HW218397   6.165   7.257  11.069  0.1220 -1.0309  0.5323
 5464SOL     OW18398   8.084   1.448   4.498 -0.4252  0.2672  0.5090
 5464SOL    HW118399   8.140   1.370   4.492 -0.9877 -0.0158 -1.7228
 5464SOL    HW218400   8.048   1.444   4.587 -1.4315 -2.7529  0.0929
 5465SOL     OW18401   5.529  10.679  11.276  0.0651 -0.0475  0.5848
 5465SOL    HW118402   5.621  10.652  11.276 -0.0603 -0.4841  0.2524
 5465SOL    HW218403   5.506  10.685  11.184 -0.3198 -0.2223  0.6698
 5466SOL     OW18404   0.951   5.639   2.415 -0.5098 -0.2338 -0.1212
 5466SOL    HW118405   0.893   5.712   2.393 -1.7689  0.7429  5.0245
 5466SOL    HW218406   0.892   5.567   2.435  0.4542 -1.1796 -0.5891
 5467SOL     OW18407   4.259   7.074   4.894  0.5229 -0.5715  0.1124
 5467SOL    HW118408   4.349   7.105   4.883  0.2471 -0.1023 -0.9804
 5467SOL    HW218409   4.216   7.095   4.811 -0.9578  0.4772  1.0755
 5468SOL     OW18410  11.039   1.024   6.761 -0.3595 -0.1222  0.4763
 5468SOL    HW118411  10.956   1.071   6.761 -1.5357 -2.0531  1.2366
 5468SOL    HW218412  11.046   0.987   6.672  0.7273  1.6495 -0.2283
 5469SOL     OW18413   7.995   2.091  10.992  0.3773  0.2665  0.3211
 5469SOL    HW118414   8.090   2.103  10.991  0.3114  1.0445  1.4409
 5469SOL    HW218415   7.960   2.175  11.023 -0.7632  0.4407 -1.3016
 5470SOL     OW18416   7.446   4.523   5.755  0.1650 -0.3617  0.2842
 5470SOL    HW118417   7.362   4.478   5.743 -0.3473  0.8752 -1.2025
 5470SOL    HW218418   7.509   4.471   5.705 -0.3526  0.3444 -1.1466
 5471SOL     OW18419   2.604   8.424   7.990 -0.1451 -0.2639  1.1086
 5471SOL    HW118420   2.667   8.486   7.952 -0.3160 -1.9277 -2.3205
 5471SOL    HW218421   2.653   8.380   8.059  1.4300  0.6867  0.6581
 5472SOL     OW18422   0.798   7.000   3.719  0.3277 -0.3772 -0.2659
 5472SOL    HW118423   0.726   7.047   3.760 -1.1485 -2.4525 -0.3286
 5472SOL    HW218424   0.819   7.051   3.641  0.5272  1.4972  0.9666
 5473SOL     OW18425   4.838   5.449   2.298  0.1143  0.0240  0.3276
 5473SOL    HW118426   4.805   5.370   2.255 -0.9481  0.5252  0.2030
 5473SOL    HW218427   4.855   5.510   2.227 -1.3539  0.7479  0.5713
 5474SOL     OW18428   2.454   6.788   7.187  0.1948 -0.2370 -0.8081
 5474SOL    HW118429   2.543   6.821   7.194  0.8704 -1.8165 -1.5607
 5474SOL    HW218430   2.400   6.859   7.222  1.7076  0.8425 -0.5440
 5475SOL     OW18431   6.390   8.532   8.970  0.4432 -0.4518 -0.0158
 5475SOL    HW118432   6.388   8.437   8.958 -0.6377 -0.2723 -1.5886
 5475SOL    HW218433   6.408   8.567   8.883  3.2761  0.7738  0.9292
 5476SOL     OW18434   6.024  10.850   3.247  0.0460 -0.3965 -0.5285
 5476SOL    HW118435   5.996  10.915   3.312  1.5594 -1.2179  1.0118
 5476SOL    HW218436   6.045  10.902   3.170 -0.0670  0.8209  0.2200
 5477SOL     OW18437  10.806   0.954   1.219  0.7249 -0.9323 -0.9675
 5477SOL    HW118438  10.742   0.974   1.287  1.9724  1.0709 -0.2716
 5477SOL    HW218439  10.878   0.911   1.266  0.7166 -1.4095 -1.3870
 5478SOL     OW18440   6.298   6.728  10.683  0.0570 -0.0635  0.0358
 5478SOL    HW118441   6.366   6.708  10.619 -1.5504 -1.6729 -1.2839
 5478SOL    HW218442   6.281   6.822  10.673 -0.1461 -0.2757 -1.9477
 5479SOL     OW18443   7.449   0.532  10.877 -0.4009  0.1542  0.5092
 5479SOL    HW118444   7.388   0.552  10.948 -1.1934  1.4235 -0.4891
 5479SOL    HW218445   7.518   0.598  10.886 -0.3912  0.1819  0.2344
 5480SOL     OW18446  10.527   1.261   8.796 -0.9751  0.1492 -0.1467
 5480SOL    HW118447  10.552   1.181   8.749 -1.4221  0.8206 -1.5718
 5480SOL    HW218448  10.454   1.297   8.746 -1.9991  0.5028  1.5223
 5481SOL     OW18449   9.569  10.827   7.873 -0.8234 -0.1300 -0.1193
 5481SOL    HW118450   9.639  10.782   7.920  0.1040  3.4615  2.3567
 5481SOL    HW218451   9.613  10.874   7.803 -1.3425 -0.8176 -0.9154
 5482SOL     OW18452   3.077   9.383   7.863 -0.0100 -0.5936 -0.1511
 5482SOL    HW118453   3.025   9.307   7.839  0.5417 -0.7018 -1.0966
 5482SOL    HW218454   3.099   9.371   7.955  0.0906 -1.5894 -0.3027
 5483SOL     OW18455   8.365   8.989   8.086  0.3714 -0.4824 -0.1123
 5483SOL    HW118456   8.361   8.898   8.115 -0.8608 -0.9062 -1.5077
 5483SOL    HW218457   8.316   8.991   8.004 -0.6119  1.6555  0.4362
 5484SOL     OW18458   0.158   4.384   3.081 -0.1687  1.0495 -0.2123
 5484SOL    HW118459   0.170   4.344   3.167  1.6770  2.1240  0.0873
 5484SOL    HW218460   0.065   4.374   3.062 -0.3350 -0.4922  1.2512
 5485SOL     OW18461   4.029  11.081  10.167 -0.2428 -0.8367  0.0071
 5485SOL    HW118462   4.064  11.131  10.241  0.2913 -0.2871 -0.6039
 5485SOL    HW218463   3.934  11.086  10.177 -0.2379  1.1073 -0.5432
 5486SOL     OW18464   3.956   8.280  11.009 -0.9641  0.6711 -0.1389
 5486SOL    HW118465   3.866   8.298  10.979 -1.2224 -0.0684  0.1729
 5486SOL    HW218466   3.945   8.227  11.088 -0.2558 -1.2645 -1.2642
 5487SOL     OW18467   5.481   5.229  10.156 -0.2624  0.1715 -0.0292
 5487SOL    HW118468   5.560   5.196  10.198  0.8804  0.3336 -1.9454
 5487SOL    HW218469   5.502   5.319  10.133 -0.1310 -0.4075 -2.4727
 5488SOL     OW18470   5.041   1.857   3.410 -0.2953  1.0728  0.1625
 5488SOL    HW118471   5.063   1.803   3.485 -2.1427  1.3548  0.9487
 5488SOL    HW218472   4.946   1.860   3.409 -0.2842  3.0318 -0.7694
 5489SOL     OW18473   7.238   5.534   8.318 -0.0799 -0.5999  0.1304
 5489SOL    HW118474   7.275   5.453   8.283  0.6327  0.0096 -0.5426
 5489SOL    HW218475   7.203   5.509   8.403 -3.1987 -2.4745 -1.5406
 5490SOL     OW18476   3.674   4.723   8.572  0.6231  0.5889  0.2800
 5490SOL    HW118477   3.702   4.757   8.656 -0.0665 -1.4598  1.4136
 5490SOL    HW218478   3.747   4.668   8.543  0.4227  0.4305  0.0722
 5491SOL     OW18479   5.099   3.050   2.750  0.3338 -0.3149 -0.1765
 5491SOL    HW118480   5.087   3.043   2.845 -0.3420  1.6643 -0.0462
 5491SOL    HW218481   5.177   3.104   2.739  0.9430 -1.2946 -0.7818
 5492SOL     OW18482   0.893   1.154  10.183  0.1399  0.3219 -0.6391
 5492SOL    HW118483   0.836   1.078  10.185  0.4391  0.0529  2.1842
 5492SOL    HW218484   0.868   1.202  10.104 -1.1402 -1.8596 -1.6280
 5493SOL     OW18485  11.005   5.303  11.222 -0.0348 -1.1378  0.0440
 5493SOL    HW118486  11.063   5.349  11.283  1.8739 -2.0704 -0.9540
 5493SOL    HW218487  11.057   5.293  11.142 -0.5367 -4.3802 -0.0215
 5494SOL     OW18488   1.037   6.380   0.747  0.0516  0.3297  0.5770
 5494SOL    HW118489   1.003   6.419   0.667  1.2015  1.8680  0.7706
 5494SOL    HW218490   0.963   6.382   0.808 -1.3112 -2.3310 -0.8384
 5495SOL     OW18491   9.590   0.750  10.271 -0.6975 -0.3790  0.2358
 5495SOL    HW118492   9.681   0.771  10.290  0.0543 -3.1120  0.0844
 5495SOL    HW218493   9.539   0.812  10.323  1.1341  2.8453 -1.4927
 5496SOL     OW18494   1.450  10.472   4.321  0.0445  0.3565 -0.1517
 5496SOL    HW118495   1.455  10.384   4.283  0.8803 -0.2965  1.4005
 5496SOL    HW218496   1.446  10.530   4.245  0.0751 -0.9743 -1.2151
 5497SOL     OW18497   3.123  10.317   7.015 -0.5087  0.6094 -0.9967
 5497SOL    HW118498   3.030  10.335   7.007 -0.4677  0.9420 -0.7212
 5497SOL    HW218499   3.128  10.232   7.059 -0.6978 -0.0196 -2.1422
 5498SOL     OW18500   6.981   9.655   7.430  0.2626 -0.4250 -0.8899
 5498SOL    HW118501   7.076   9.643   7.431  0.2256 -1.1131  1.9461
 5498SOL    HW218502   6.947   9.585   7.485 -2.0696 -1.0314 -2.9397
 5499SOL     OW18503   8.969   7.267   9.354  0.2970 -0.1803 -0.0187
 5499SOL    HW118504   8.990   7.305   9.439  1.7021 -1.0988  0.0899
 5499SOL    HW218505   8.896   7.208   9.370  2.2446 -2.4136  1.1699
 5500SOL     OW18506   9.719  10.559  10.273 -0.7289 -0.1813 -0.1893
 5500SOL    HW118507   9.796  10.601  10.311 -0.7480  0.0976 -0.4540
 5500SOL    HW218508   9.646  10.588  10.328 -0.6418 -0.4928  0.0978
 5501SOL     OW18509   5.090   5.061   1.446 -0.4838  0.8125 -0.1762
 5501SOL    HW118510   5.108   5.108   1.364 -0.7257  3.9266  1.3967
 5501SOL    HW218511   5.137   5.112   1.513  0.0053 -1.8284  1.6329
 5502SOL     OW18512  11.020   0.970  10.411 -0.3825 -0.1846 -0.5034
 5502SOL    HW118513  11.032   0.903  10.478 -0.5724  0.3937  0.1186
 5502SOL    HW218514  11.049   1.051  10.452 -0.6257  0.2007 -1.0784
 5503SOL     OW18515   8.543   5.886   3.363 -0.0009 -0.1140  0.3765
 5503SOL    HW118516   8.555   5.975   3.331 -0.0725  0.0934  0.9177
 5503SOL    HW218517   8.450   5.867   3.347  0.4242 -0.7964 -1.4820
 5504SOL     OW18518   3.674   5.774   3.862 -0.5355 -0.3434 -1.0948
 5504SOL    HW118519   3.719   5.800   3.942 -0.7806 -1.7995 -0.4460
 5504SOL    HW218520   3.732   5.803   3.791 -1.2087  2.6946 -0.5416
 5505SOL     OW18521   6.310   7.575   8.095 -0.4283 -0.1653  0.4121
 5505SOL    HW118522   6.244   7.582   8.026 -0.5185  1.9861  0.6572
 5505SOL    HW218523   6.390   7.548   8.049 -0.2256  2.2181 -0.7985
 5506SOL     OW18524  10.366   6.968   9.934  0.1114 -0.1551 -0.2190
 5506SOL    HW118525  10.352   6.956   9.840  0.4900  1.0940 -0.4558
 5506SOL    HW218526  10.453   6.931   9.950 -0.1774 -0.8600 -0.2486
 5507SOL     OW18527   5.737   7.536   9.796 -0.0106 -0.9298  0.2420
 5507SOL    HW118528   5.731   7.625   9.761 -0.9220 -0.7670  0.7632
 5507SOL    HW218529   5.678   7.484   9.740  1.1064 -1.3831 -0.5443
 5508SOL     OW18530  11.181   2.107   6.188  0.0793  0.4810 -0.4887
 5508SOL    HW118531  11.120   2.179   6.202 -1.1612 -0.4394 -1.0153
 5508SOL    HW218532  11.172   2.053   6.266  0.1120  0.2596 -0.6396
 5509SOL     OW18533   5.920   3.232   8.657 -0.4133  0.4147  0.5758
 5509SOL    HW118534   6.000   3.203   8.699 -0.2613  2.2402  1.6393
 5509SOL    HW218535   5.852   3.172   8.689  0.1899  0.0388  1.1550
 5510SOL     OW18536   1.585  11.115   7.399 -0.2041  0.5643  0.6905
 5510SOL    HW118537   1.546  11.180   7.457 -2.0458 -0.4155  0.6300
 5510SOL    HW218538   1.605  11.041   7.455  1.5991  1.0156  0.7030
 5511SOL     OW18539  10.434   1.315   1.770  0.1440 -0.4239 -0.2001
 5511SOL    HW118540  10.359   1.260   1.750 -0.4869  0.0846  0.7039
 5511SOL    HW218541  10.418   1.346   1.860  1.2154  0.0346 -0.1523
 5512SOL     OW18542   6.650  10.751   5.161 -0.1029 -0.0471  0.1986
 5512SOL    HW118543   6.694  10.831   5.134 -2.6968  2.2404  2.1041
 5512SOL    HW218544   6.557  10.768   5.144 -0.8486 -2.2496  1.5684
 5513SOL     OW18545   1.616   3.364   2.474 -0.5195  0.0795  0.3365
 5513SOL    HW118546   1.554   3.429   2.441 -1.3141 -0.2280  1.2108
 5513SOL    HW218547   1.611   3.292   2.411  0.7787  1.0438 -0.9599
 5514SOL     OW18548   9.695   2.883   2.081  0.1459  0.1638  0.2320
 5514SOL    HW118549   9.674   2.950   2.146 -1.8096 -1.3970  1.3522
 5514SOL    HW218550   9.745   2.818   2.129 -0.2801 -0.4352 -0.1249
 5515SOL     OW18551   0.378   2.783   8.182  0.8849 -0.1294  0.5698
 5515SOL    HW118552   0.399   2.837   8.106  1.5567 -0.1780  0.7090
 5515SOL    HW218553   0.444   2.713   8.180  0.7710 -0.2572  1.0695
 5516SOL     OW18554   6.353   6.419   1.383 -0.1877  0.2396  0.5074
 5516SOL    HW118555   6.303   6.499   1.398  0.3125  0.3727  1.6129
 5516SOL    HW218556   6.351   6.406   1.288 -0.4923  1.4205  0.3362
 5517SOL     OW18557  10.862   3.167   8.524  0.0608  0.5599 -0.3044
 5517SOL    HW118558  10.939   3.153   8.470  0.0563 -2.2129  0.2545
 5517SOL    HW218559  10.859   3.091   8.582 -0.4136  2.9284  3.0653
 5518SOL     OW18560   0.672   5.044   7.593 -0.3848 -0.3458  0.7243
 5518SOL    HW118561   0.582   5.052   7.562 -0.1165  2.4539  0.3352
 5518SOL    HW218562   0.671   5.079   7.682  0.4576  0.7298  0.3398
 5519SOL     OW18563  10.401  11.124   8.858 -0.1813 -0.8229  0.1061
 5519SOL    HW118564  10.317  11.084   8.834  0.1773 -0.4854 -1.8545
 5519SOL    HW218565  10.446  11.057   8.909 -0.1068 -2.4812 -2.0487
 5520SOL     OW18566   5.588   3.667   0.500  0.1006 -0.3805  0.2703
 5520SOL    HW118567   5.676   3.676   0.462  0.6440 -1.8264  1.1029
 5520SOL    HW218568   5.537   3.622   0.433  0.3533 -0.6706  0.2719
 5521SOL     OW18569   1.226   1.400  10.861 -0.3929  0.3870  0.6328
 5521SOL    HW118570   1.203   1.326  10.917 -1.8766  0.6886  0.4882
 5521SOL    HW218571   1.166   1.393  10.786 -1.2805  2.2727  1.1093
 5522SOL     OW18572   7.913   9.845  10.178  0.0375  0.2625 -0.4175
 5522SOL    HW118573   7.820   9.831  10.191  0.4271 -1.1900  1.2190
 5522SOL    HW218574   7.931   9.810  10.091 -1.1070  1.5756 -1.2095
 5523SOL     OW18575  10.423   9.450   2.605 -0.3409  0.2822 -0.7823
 5523SOL    HW118576  10.382   9.447   2.692 -1.2260  1.5406 -1.1289
 5523SOL    HW218577  10.472   9.368   2.599 -1.8679 -0.7522  0.1313
 5524SOL     OW18578   3.384   8.053   8.510 -0.5281 -0.5346 -0.3635
 5524SOL    HW118579   3.333   8.125   8.547 -1.1510 -0.8310 -0.6372
 5524SOL    HW218580   3.460   8.095   8.470 -1.4258  0.0872 -1.4698
 5525SOL     OW18581   0.966   9.196   5.454 -0.0823  0.7079 -0.3252
 5525SOL    HW118582   0.893   9.233   5.504  0.8382  2.5884 -0.2966
 5525SOL    HW218583   0.994   9.120   5.505 -0.4951  1.3671  0.9151
 5526SOL     OW18584   4.725   5.764   0.564  0.3977 -0.2189  0.3672
 5526SOL    HW118585   4.776   5.683   0.558  0.9557  0.0484  1.3255
 5526SOL    HW218586   4.740   5.796   0.653  1.9775  2.0780 -0.6240
 5527SOL     OW18587   7.359   3.408   3.563  0.7464 -0.0227 -0.1148
 5527SOL    HW118588   7.322   3.438   3.646 -0.4339 -3.1286  0.5972
 5527SOL    HW218589   7.441   3.364   3.588  0.6753 -0.4792 -0.6721
 5528SOL     OW18590   9.489   0.049   1.769  0.3670  0.0932 -0.3963
 5528SOL    HW118591   9.580   0.029   1.746  0.6538  0.6360  0.2489
 5528SOL    HW218592   9.482   0.144   1.759  1.0952  0.7382  3.6171
 5529SOL     OW18593   2.057   5.052   2.159 -0.4161 -0.1150  0.2889
 5529SOL    HW118594   1.984   5.071   2.217 -0.3227 -2.0990  1.1600
 5529SOL    HW218595   2.040   5.103   2.080 -2.1051  0.3722  0.9361
 5530SOL     OW18596   4.078   0.164   0.007 -0.2470 -0.1001  0.0151
 5530SOL    HW118597   4.033   0.179  -0.076  0.2226 -2.2470 -0.6719
 5530SOL    HW218598   4.151   0.107  -0.015 -1.2226 -2.3710  2.1659
 5531SOL     OW18599   3.342   5.827   1.861  0.0249  0.5193  0.2497
 5531SOL    HW118600   3.345   5.901   1.921 -0.7902 -0.8060  2.0075
 5531SOL    HW218601   3.281   5.855   1.792 -2.1874  0.6852  2.1291
 5532SOL     OW18602   3.439   8.292   7.759  0.1033  0.2202  0.1079
 5532SOL    HW118603   3.441   8.386   7.741  3.3946  0.1754 -0.2869
 5532SOL    HW218604   3.423   8.252   7.673  2.0122  0.3930 -0.3718
 5533SOL     OW18605   9.215   9.238   3.750 -0.0710 -0.1212  0.0501
 5533SOL    HW118606   9.267   9.258   3.673 -0.9453  0.1097 -0.4940
 5533SOL    HW218607   9.255   9.158   3.786  2.0404  1.2711  0.9638
 5534SOL     OW18608   7.244   1.282   3.962 -0.6881 -0.1758  0.3434
 5534SOL    HW118609   7.243   1.190   3.988 -3.2098 -0.2224  0.3486
 5534SOL    HW218610   7.185   1.287   3.887  0.2362  1.2873 -0.3335
 5535SOL     OW18611   7.874   2.460   1.971 -0.1251 -0.0926 -0.0533
 5535SOL    HW118612   7.893   2.533   2.030 -1.0437  0.5994 -0.5895
 5535SOL    HW218613   7.831   2.394   2.026 -0.2910  0.2333  0.2050
 5536SOL     OW18614   0.692   0.358   6.200  0.1409 -0.3500  0.1746
 5536SOL    HW118615   0.665   0.332   6.288 -0.3489  3.2665  1.2303
 5536SOL    HW218616   0.615   0.399   6.162  0.7042 -0.7814 -1.5235
 5537SOL     OW18617  11.031   4.549   0.250 -0.4566 -0.6725 -0.0648
 5537SOL    HW118618  11.032   4.644   0.263 -0.1735 -0.4710 -1.4551
 5537SOL    HW218619  11.121   4.527   0.229 -0.6038 -1.1857 -0.1551
 5538SOL     OW18620   5.643   1.240   6.051 -0.4527 -0.2174 -0.0898
 5538SOL    HW118621   5.579   1.241   6.122  0.6530  2.3160  1.0360
 5538SOL    HW218622   5.591   1.233   5.971 -2.0283  0.2583  0.8480
 5539SOL     OW18623   3.603   1.052   1.966  0.4381 -0.0903  0.1827
 5539SOL    HW118624   3.591   1.141   1.932  1.0780 -0.3041 -0.6434
 5539SOL    HW218625   3.518   1.030   2.003 -0.1972  0.3163 -0.9421
 5540SOL     OW18626   0.797   7.723   7.282  0.4045  0.1826 -0.4474
 5540SOL    HW118627   0.800   7.762   7.194  0.9623 -0.6001 -0.7923
 5540SOL    HW218628   0.837   7.637   7.270 -2.3123 -1.2328 -0.0929
 5541SOL     OW18629   3.347   1.737   6.858 -0.2134  0.3811  0.4859
 5541SOL    HW118630   3.357   1.790   6.937  1.7017  1.0064 -0.1300
 5541SOL    HW218631   3.435   1.730   6.822 -0.6026 -2.1334 -0.1929
 5542SOL     OW18632   8.569   2.489  11.045  0.2301 -0.3539 -0.5375
 5542SOL    HW118633   8.490   2.501  11.098 -0.9888 -1.5662 -1.9912
 5542SOL    HW218634   8.626   2.562  11.070 -1.6345  0.9745  0.0467
 5543SOL     OW18635   2.483   5.629   7.662  0.0663 -0.2610 -0.0029
 5543SOL    HW118636   2.527   5.564   7.716  2.1551 -1.0711 -2.4656
 5543SOL    HW218637   2.389   5.616   7.679  0.4632 -3.1550  0.4267
 5544SOL     OW18638   1.221   2.053   8.345 -0.0585  0.1603  0.4587
 5544SOL    HW118639   1.256   2.004   8.270  0.1218 -0.6581  1.0602
 5544SOL    HW218640   1.136   2.012   8.362  1.3137 -2.0048  2.7901
 5545SOL     OW18641   3.521  10.545   4.268 -0.0084  0.3282 -0.1303
 5545SOL    HW118642   3.527  10.479   4.199  1.7401 -0.1763  0.4551
 5545SOL    HW218643   3.539  10.628   4.223  1.3010 -0.0142 -0.2749
 5546SOL     OW18644   7.731   3.686  10.407 -0.7981  0.0876  0.2619
 5546SOL    HW118645   7.817   3.662  10.442 -1.4824 -1.5260  0.9459
 5546SOL    HW218646   7.750   3.752  10.341  0.9514 -0.1065  0.5128
 5547SOL     OW18647   7.332   8.684   9.188  0.1012  0.2568 -0.8171
 5547SOL    HW118648   7.301   8.615   9.128  1.8538 -0.9450 -0.4026
 5547SOL    HW218649   7.319   8.648   9.275  0.8315  0.5269 -0.5886
 5548SOL     OW18650  10.551   8.218   3.459  0.0597 -0.3818 -0.4483
 5548SOL    HW118651  10.544   8.172   3.543  0.0869  1.0911  0.3970
 5548SOL    HW218652  10.625   8.278   3.471 -0.3744  0.3435 -1.2816
 5549SOL     OW18653   4.396   1.826   6.047 -0.1730 -0.0148  0.0673
 5549SOL    HW118654   4.442   1.828   6.130 -0.2694  1.2863  0.1137
 5549SOL    HW218655   4.465   1.824   5.981 -0.0943 -0.7422  0.1631
 5550SOL     OW18656   4.319   9.559   6.150 -0.2950 -0.0693  0.2589
 5550SOL    HW118657   4.345   9.614   6.076  0.8650  0.3699  0.9691
 5550SOL    HW218658   4.258   9.614   6.201  0.4479  0.3829  0.6798
 5551SOL     OW18659   9.715   8.657   2.015  0.9497  0.1117 -0.1704
 5551SOL    HW118660   9.767   8.731   1.987 -0.2843  1.4037  0.7825
 5551SOL    HW218661   9.776   8.584   2.019  2.5178  1.4056  0.2375
 5552SOL     OW18662  10.958   9.290   5.820  0.0634  0.0500  0.4625
 5552SOL    HW118663  10.909   9.371   5.810  0.3947  0.1553 -0.3537
 5552SOL    HW218664  11.046   9.311   5.788  0.1249 -0.6578  0.1623
 5553SOL     OW18665   0.517  10.177   3.096 -0.1292  0.2179  0.2461
 5553SOL    HW118666   0.457  10.111   3.062 -1.2997  1.3720 -0.0440
 5553SOL    HW218667   0.597  10.167   3.044 -0.3221 -0.8736  0.1363
 5554SOL     OW18668   8.283  11.237  10.401  0.5560  0.2388  0.3689
 5554SOL    HW118669   8.296  11.310  10.340 -0.7528  2.2193  2.3224
 5554SOL    HW218670   8.197  11.252  10.439  1.1268 -1.1610  2.3649
 5555SOL     OW18671   4.014   7.245   0.101 -0.3360  0.4646  0.2729
 5555SOL    HW118672   4.071   7.174   0.072  0.3903  1.4318 -0.7856
 5555SOL    HW218673   3.992   7.224   0.191  1.3408 -0.1705  0.5685
 5556SOL     OW18674   1.207   3.972   9.655 -0.0450  0.1285 -0.2532
 5556SOL    HW118675   1.217   4.060   9.620 -1.0399  0.5501  0.4795
 5556SOL    HW218676   1.251   3.915   9.591  3.0226  1.3567  0.5698
 5557SOL     OW18677   8.904   3.005   9.477 -0.3392 -0.1774 -0.1272
 5557SOL    HW118678   8.862   3.043   9.554 -1.6376 -4.0653  1.2754
 5557SOL    HW218679   8.839   3.015   9.407 -1.2790 -1.0923  0.5922
 5558SOL     OW18680   4.094   3.259   4.572  0.2097  0.2886  0.1189
 5558SOL    HW118681   4.169   3.288   4.624  2.5756  0.9231 -3.3081
 5558SOL    HW218682   4.064   3.338   4.527 -0.4315 -0.5316 -0.9405
 5559SOL     OW18683   0.971   6.312  10.758  0.2713 -0.1287 -0.1882
 5559SOL    HW118684   1.027   6.242  10.791 -0.2772 -0.7493 -0.5456
 5559SOL    HW218685   0.999   6.326  10.668 -0.1374 -0.4370 -0.3656
 5560SOL     OW18686   5.938   9.480   9.818  0.6968  0.3810  0.2316
 5560SOL    HW118687   5.992   9.549   9.779 -0.0013  0.4391 -0.6662
 5560SOL    HW218688   5.858   9.480   9.766  0.8930 -1.4736 -0.1362
 5561SOL     OW18689  10.070   8.650   6.712 -0.0749  0.1951 -0.1703
 5561SOL    HW118690  10.028   8.698   6.784  4.3790  2.4393  1.3023
 5561SOL    HW218691  10.102   8.569   6.752  1.2172  0.8226  0.1375
 5562SOL     OW18692   6.001   0.535   3.564  0.0813 -0.1259  0.7448
 5562SOL    HW118693   5.994   0.475   3.489 -0.2580  0.6421  0.1479
 5562SOL    HW218694   6.024   0.619   3.525 -1.1520  0.5411  1.3970
 5563SOL     OW18695   8.093   2.579   4.889 -0.5238 -0.3036 -0.0232
 5563SOL    HW118696   8.158   2.511   4.871  0.4093  0.8154 -1.1343
 5563SOL    HW218697   8.141   2.646   4.938 -0.2105  1.4319 -2.4852
 5564SOL     OW18698   0.476   3.359  11.026  0.1145 -0.4160  0.0783
 5564SOL    HW118699   0.534   3.320  10.961  1.5880  0.8351  0.5761
 5564SOL    HW218700   0.447   3.441  10.986  1.3631  0.5694  1.0867
 5565SOL     OW18701   5.814   9.796   0.174  0.0374 -0.2390 -0.7417
 5565SOL    HW118702   5.842   9.778   0.264  1.6369  0.0233 -1.1485
 5565SOL    HW218703   5.881   9.856   0.140  0.9621 -2.3317 -2.9021
 5566SOL     OW18704   5.382   5.542   5.095  0.3670  0.6066  0.2667
 5566SOL    HW118705   5.432   5.510   5.019 -1.5153  0.9825 -1.2149
 5566SOL    HW218706   5.384   5.637   5.087 -1.2126  0.6228 -0.3074
 5567SOL     OW18707   7.598   0.513   5.521 -1.3275  0.1823 -0.0363
 5567SOL    HW118708   7.565   0.490   5.434 -1.2976  0.2543 -0.0663
 5567SOL    HW218709   7.618   0.606   5.516  4.0117 -0.7372 -1.7279
 5568SOL     OW18710   0.344   3.403   7.797  0.0408  0.1776 -0.3385
 5568SOL    HW118711   0.289   3.388   7.874 -0.9022 -0.4487 -1.1124
 5568SOL    HW218712   0.283   3.407   7.724  0.9727  0.1713 -1.1387
 5569SOL     OW18713   2.243   6.146   3.677  0.1296  0.5172  0.1740
 5569SOL    HW118714   2.208   6.213   3.735 -1.9184 -0.7450  0.4825
 5569SOL    HW218715   2.194   6.156   3.596 -2.5982 -2.4853  1.2346
 5570SOL     OW18716   9.122   2.916   7.666 -0.2226  0.5433 -0.6856
 5570SOL    HW118717   9.047   2.976   7.669 -0.1314  0.6525  2.2693
 5570SOL    HW218718   9.085   2.830   7.687  0.5308  0.7579  1.7771
 5571SOL     OW18719   7.937   2.340   4.363  0.7132  0.1457  0.6611
 5571SOL    HW118720   7.891   2.266   4.402 -1.1133 -0.7954 -2.8088
 5571SOL    HW218721   8.028   2.330   4.393  0.3141 -2.9001  1.1923
 5572SOL     OW18722   9.609   9.147  10.909 -0.0152 -0.2877 -0.0378
 5572SOL    HW118723   9.601   9.091  10.986 -1.7206 -0.5730 -0.3923
 5572SOL    HW218724   9.685   9.112  10.862  1.2925  0.1441  1.6808
 5573SOL     OW18725   1.193   6.110  10.495  0.2053 -0.7201  0.2814
 5573SOL    HW118726   1.285   6.121  10.523  1.0325  0.3384 -2.5438
 5573SOL    HW218727   1.154   6.196  10.510  0.6290 -0.1734 -1.5434
 5574SOL     OW18728   1.515   2.603   6.822 -0.0734 -0.6388  0.3741
 5574SOL    HW118729   1.518   2.690   6.860  2.2485  0.3879 -1.8945
 5574SOL    HW218730   1.421   2.586   6.808 -0.5342  2.2806 -0.7978
 5575SOL     OW18731  10.451   5.487   6.300  1.3187  0.3128  0.1479
 5575SOL    HW118732  10.491   5.560   6.347  2.8210 -2.1612  3.1120
 5575SOL    HW218733  10.507   5.473   6.224  1.2536  1.8815 -0.2265
 5576SOL     OW18734   2.704   8.513   8.715  0.5155 -0.2604  0.7480
 5576SOL    HW118735   2.655   8.460   8.778 -1.3294  2.4934  1.8485
 5576SOL    HW218736   2.697   8.465   8.633  0.2871 -2.4331  1.9594
 5577SOL     OW18737   6.799   5.730   3.272 -0.2384  0.2482  0.5278
 5577SOL    HW118738   6.878   5.718   3.220 -1.3780 -4.8357 -0.5854
 5577SOL    HW218739   6.755   5.805   3.233  1.6428  0.0717 -2.1848
 5578SOL     OW18740   1.458   6.767   4.100  0.3110  0.0089  0.3283
 5578SOL    HW118741   1.550   6.757   4.075  0.7295 -0.2878  1.8723
 5578SOL    HW218742   1.458   6.756   4.195 -1.4644 -0.9251  0.2517
 5579SOL     OW18743   9.209   2.740   0.376  0.3454 -0.3651  0.2564
 5579SOL    HW118744   9.288   2.750   0.323  0.0974 -0.3842 -0.1214
 5579SOL    HW218745   9.214   2.651   0.411 -1.9529 -2.4259 -3.8904
 5580SOL     OW18746   0.309   7.191   6.940  0.0787 -0.1285  0.4127
 5580SOL    HW118747   0.376   7.241   6.895  1.7957 -3.0945 -0.6138
 5580SOL    HW218748   0.270   7.135   6.872 -2.0359  0.0229  1.3926
 5581SOL     OW18749   1.140   3.539   7.115  0.4946  0.3171 -0.3373
 5581SOL    HW118750   1.130   3.454   7.158 -2.9796 -0.3201 -2.0032
 5581SOL    HW218751   1.223   3.573   7.147  0.2669 -2.0307  3.3091
 5582SOL     OW18752   9.789   9.944   8.379 -0.3301 -0.4365 -0.2249
 5582SOL    HW118753   9.852   9.954   8.307 -0.4773  0.8879 -0.1921
 5582SOL    HW218754   9.843   9.923   8.455  0.0222  0.0326 -0.3365
 5583SOL     OW18755  10.318  10.995   2.779  0.1965 -0.6284 -0.6814
 5583SOL    HW118756  10.336  11.004   2.686 -1.4390  0.0684 -0.9665
 5583SOL    HW218757  10.246  10.932   2.784 -0.2108 -0.1227  0.0437
 5584SOL     OW18758   4.121   0.804   1.555 -0.0064 -0.0154  0.7793
 5584SOL    HW118759   4.146   0.861   1.483 -1.5589  0.2573  0.4201
 5584SOL    HW218760   4.125   0.715   1.519  1.6374 -0.1063  1.1114
 5585SOL     OW18761   8.983   6.306   2.745 -0.2555 -0.5835 -0.1853
 5585SOL    HW118762   9.013   6.356   2.670  2.0206 -1.0733  0.3252
 5585SOL    HW218763   8.935   6.369   2.799  2.1128  0.9921  0.1973
 5586SOL     OW18764   8.311   6.004   2.625 -0.6372 -0.1557 -0.6895
 5586SOL    HW118765   8.280   5.936   2.565 -0.6469 -1.5594  0.8391
 5586SOL    HW218766   8.362   5.957   2.691  0.4838  1.4955 -0.3031
 5587SOL     OW18767  10.522   5.797  10.426  0.5651  0.4977 -0.0280
 5587SOL    HW118768  10.482   5.710  10.425  1.5260  0.0061 -1.8565
 5587SOL    HW218769  10.501   5.834  10.340  0.9612  1.6935  0.3655
 5588SOL     OW18770   8.555   8.489  10.099 -0.1925  0.2464 -0.9226
 5588SOL    HW118771   8.529   8.449  10.015 -2.1961  0.3620 -0.4198
 5588SOL    HW218772   8.491   8.559  10.112  0.5775  0.7298  0.3438
 5589SOL     OW18773   2.782   9.996   9.891  0.0907 -0.9739  0.8129
 5589SOL    HW118774   2.734  10.079   9.901  0.1196 -0.8707  0.1353
 5589SOL    HW218775   2.734   9.934   9.946  1.2994 -0.0289  3.0571
 5590SOL     OW18776   7.506   3.639   0.391 -0.0957  0.7986 -0.6440
 5590SOL    HW118777   7.451   3.565   0.415  2.5663 -0.7036  1.4936
 5590SOL    HW218778   7.470   3.713   0.440  1.0538 -0.6889  2.7255
 5591SOL     OW18779   2.208   5.941   4.394  0.6343  0.4038  0.2659
 5591SOL    HW118780   2.154   5.887   4.452 -2.8319  2.9305 -0.2443
 5591SOL    HW218781   2.264   5.991   4.453 -0.8641  0.9552  1.2895
 5592SOL     OW18782   3.256   0.174   4.275 -0.0611 -0.0427  0.6214
 5592SOL    HW118783   3.335   0.225   4.259 -0.0464  0.3423  1.7943
 5592SOL    HW218784   3.196   0.236   4.317 -0.9194 -0.3754 -0.0866
 5593SOL     OW18785   8.491   7.694   1.133  0.6555 -0.1346 -1.0002
 5593SOL    HW118786   8.517   7.775   1.087  0.4331  1.4833  1.5103
 5593SOL    HW218787   8.568   7.670   1.183  0.0817 -0.2789 -0.1648
 5594SOL     OW18788  10.030   4.752   6.101  0.1716  0.6781 -0.5883
 5594SOL    HW118789  10.054   4.829   6.050 -0.3314 -0.0353 -1.9555
 5594SOL    HW218790   9.955   4.715   6.055 -1.1203  0.6878  1.3941
 5595SOL     OW18791   8.076   3.403   8.589 -0.6238 -0.8978  0.0260
 5595SOL    HW118792   8.124   3.475   8.550  0.2590 -1.3731  0.1951
 5595SOL    HW218793   8.128   3.325   8.568 -0.3226 -1.2113  1.7695
 5596SOL     OW18794   2.531   9.706   5.139  0.0450 -0.1206 -0.0139
 5596SOL    HW118795   2.450   9.655   5.134 -0.1273  0.1702 -0.2034
 5596SOL    HW218796   2.512   9.786   5.090 -0.3963  1.0814  2.0225
 5597SOL     OW18797   0.340   1.264   5.192  0.6557  0.5218  0.0890
 5597SOL    HW118798   0.269   1.251   5.254  0.4217  1.3878  0.0196
 5597SOL    HW218799   0.336   1.357   5.170  1.6304  0.5275 -0.1346
 5598SOL     OW18800   4.701   7.425   0.507  0.4119 -0.1075 -0.3006
 5598SOL    HW118801   4.749   7.468   0.436 -2.4889  2.0331 -1.1448
 5598SOL    HW218802   4.653   7.354   0.464 -0.3910  0.4181 -0.2990
 5599SOL     OW18803  11.061   5.694   1.996 -0.0449  0.2308  0.0172
 5599SOL    HW118804  10.981   5.741   1.970 -1.0097 -0.4646  1.5742
 5599SOL    HW218805  11.089   5.738   2.076  0.9770  0.2662 -0.3499
 5600SOL     OW18806   4.741   8.198   9.164  0.2872  0.3205  0.8081
 5600SOL    HW118807   4.659   8.174   9.121  0.3710 -0.1043  0.8829
 5600SOL    HW218808   4.784   8.257   9.102  2.1939 -3.1968 -1.5487
 5601SOL     OW18809   6.155   9.584   8.465  0.2917 -0.1608  0.4128
 5601SOL    HW118810   6.088   9.579   8.533  0.0811  1.1341  0.3238
 5601SOL    HW218811   6.235   9.554   8.508 -0.5235 -3.0086  0.1769
 5602SOL     OW18812  10.571   3.932   8.001  0.4790 -0.0398 -0.1971
 5602SOL    HW118813  10.650   3.911   7.951 -0.7629 -0.9204 -1.9044
 5602SOL    HW218814  10.560   3.858   8.060  1.0229  0.1792  0.1837
 5603SOL     OW18815   4.239   7.595   9.850  0.1696 -0.2108 -0.2112
 5603SOL    HW118816   4.301   7.558   9.913  2.1799  0.9555 -1.4040
 5603SOL    HW218817   4.242   7.689   9.865 -3.4579 -0.1841  1.5024
 5604SOL     OW18818   7.537  10.454  10.598  0.3221  0.3279 -0.8675
 5604SOL    HW118819   7.546  10.481  10.507 -0.6537 -0.1396 -1.1167
 5604SOL    HW218820   7.473  10.515  10.635 -0.7618 -0.6758 -1.0360
 5605SOL     OW18821   7.883   8.087   5.597 -0.0420  0.8123  0.4413
 5605SOL    HW118822   7.897   7.992   5.593 -0.9412  0.3724  4.1886
 5605SOL    HW218823   7.970   8.124   5.582  0.4339 -0.5948 -0.5038
 5606SOL     OW18824   2.048   1.012  11.082 -0.0347  0.3900 -0.0394
 5606SOL    HW118825   2.040   0.992  10.989  0.1656 -1.6058  0.3273
 5606SOL    HW218826   2.142   1.025  11.096  0.0401 -0.1672  0.0169
 5607SOL     OW18827   9.175   5.119   4.646 -0.2027 -0.5860 -0.4633
 5607SOL    HW118828   9.229   5.113   4.567 -0.3576 -3.2778 -0.4476
 5607SOL    HW218829   9.094   5.074   4.624 -1.4484  1.0882  0.3886
 5608SOL     OW18830   2.864   5.665   8.837  0.8842  0.1284  0.6627
 5608SOL    HW118831   2.886   5.632   8.924  1.8298 -3.9611 -0.8743
 5608SOL    HW218832   2.944   5.707   8.807  1.2670 -0.3137  1.0334
 5609SOL     OW18833   4.020   8.958   5.580 -0.0322  0.6205 -0.2367
 5609SOL    HW118834   3.952   9.000   5.633 -0.3990 -0.7399  0.4098
 5609SOL    HW218835   4.098   8.958   5.637 -0.0375  0.4180 -0.2293
 5610SOL     OW18836   2.488  10.787   4.752 -0.1126  0.0192 -0.3591
 5610SOL    HW118837   2.541  10.824   4.681 -0.6947 -1.7440 -1.7903
 5610SOL    HW218838   2.444  10.862   4.791 -0.3079  0.9850 -2.3315
 5611SOL     OW18839   0.578   0.116   1.590 -0.4570  0.0355 -0.9406
 5611SOL    HW118840   0.484   0.111   1.577 -0.6549 -0.3000  0.4433
 5611SOL    HW218841   0.589   0.160   1.674  0.6687  1.2137 -1.6685
 5612SOL     OW18842   0.589   0.029   0.264  0.2615 -0.5007 -1.0554
 5612SOL    HW118843   0.665  -0.021   0.291 -0.0503 -0.3236  0.2688
 5612SOL    HW218844   0.613   0.067   0.180  2.7069  1.6968  0.4554
 5613SOL     OW18845   2.270  10.760   3.601 -0.0300  0.0038 -0.4432
 5613SOL    HW118846   2.223  10.677   3.604 -3.3226  1.7310  0.7758
 5613SOL    HW218847   2.283  10.777   3.507  1.1519 -2.0246 -0.6978
 5614SOL     OW18848   0.113   3.998   2.729 -0.4667 -0.6488  0.1914
 5614SOL    HW118849   0.094   4.054   2.804 -4.6238  1.4046 -2.0856
 5614SOL    HW218850   0.079   3.912   2.753  1.3350 -0.9685  1.8041
 5615SOL     OW18851   6.429   6.553   8.880 -0.5723 -0.1923 -0.1760
 5615SOL    HW118852   6.486   6.476   8.877 -0.2292 -0.0356  1.2832
 5615SOL    HW218853   6.471   6.611   8.944 -1.1559  0.9415 -0.7915
 5616SOL     OW18854   4.370   9.878   7.831  0.1451 -0.6248  0.6429
 5616SOL    HW118855   4.402   9.901   7.918  1.4573 -0.2470  0.0900
 5616SOL    HW218856   4.327   9.958   7.800  1.8508  0.0889  0.0012
 5617SOL     OW18857   5.263   7.631   0.869 -0.3826 -0.2833 -0.0620
 5617SOL    HW118858   5.296   7.570   0.935 -1.5578 -0.1798  0.6572
 5617SOL    HW218859   5.198   7.684   0.916  0.9817  1.9195 -0.5007
 5618SOL     OW18860   5.657   2.947   8.569 -0.7032 -0.8249  0.1805
 5618SOL    HW118861   5.682   3.010   8.637  0.0373  1.9467 -2.4273
 5618SOL    HW218862   5.740   2.905   8.545  0.0134  1.5886 -2.0377
 5619SOL     OW18863   0.359   6.944   2.025 -0.4698  0.1873 -0.5754
 5619SOL    HW118864   0.343   6.950   1.931 -0.6395  2.7170 -0.4519
 5619SOL    HW218865   0.273   6.928   2.064 -0.7172  0.9650 -0.7714
 5620SOL     OW18866   9.313   9.514  10.805 -0.6341  0.7213 -0.7824
 5620SOL    HW118867   9.320   9.469  10.721 -0.1196  2.7049 -1.8434
 5620SOL    HW218868   9.356   9.598  10.792 -1.2024  1.3976  1.2506
 5621SOL     OW18869   4.118   7.987  10.839 -0.8783  0.3559 -0.3928
 5621SOL    HW118870   4.181   8.051  10.871 -1.2077  0.1657  0.6893
 5621SOL    HW218871   4.050   7.984  10.908 -0.5981 -1.5388 -0.1460
 5622SOL     OW18872   9.804   3.397   4.026  0.0947 -0.5479 -0.0334
 5622SOL    HW118873   9.730   3.345   3.996  0.9317 -1.2797 -0.8930
 5622SOL    HW218874   9.840   3.436   3.947 -0.4432  1.2793  0.5894
 5623SOL     OW18875   1.653   8.284   0.768  0.0734 -0.3618  0.2055
 5623SOL    HW118876   1.652   8.345   0.694  1.2434 -0.3493  0.1775
 5623SOL    HW218877   1.590   8.216   0.744 -2.0048  1.3074  0.6806
 5624SOL     OW18878   5.351   7.544  10.651 -0.0523 -0.1798  0.4127
 5624SOL    HW118879   5.263   7.536  10.614  0.8483  0.7591 -2.1972
 5624SOL    HW218880   5.381   7.454  10.661 -0.3886 -0.5029 -1.1869
 5625SOL     OW18881   6.556   5.120   4.320 -0.0410 -0.2453 -0.3248
 5625SOL    HW118882   6.466   5.150   4.310 -0.4299 -0.8695  1.0694
 5625SOL    HW218883   6.565   5.049   4.256 -0.3597  0.1935 -0.8597
 5626SOL     OW18884   0.621   2.626   8.074  0.0592 -0.3513 -0.2333
 5626SOL    HW118885   0.664   2.560   8.019  1.4266 -1.5363  2.0709
 5626SOL    HW218886   0.693   2.665   8.124 -1.2761 -1.0337  2.4027
 5627SOL     OW18887   8.442   6.129   7.060  0.2976  0.6902  0.3167
 5627SOL    HW118888   8.373   6.134   7.126  1.1763  0.6645  1.2614
 5627SOL    HW218889   8.450   6.036   7.040  0.4105  0.6386  0.5955
 5628SOL     OW18890   8.431   7.608   3.451 -0.2338 -0.3574 -0.5585
 5628SOL    HW118891   8.504   7.558   3.489  0.4317  1.8154  1.2435
 5628SOL    HW218892   8.465   7.640   3.368  0.3945 -0.4888 -0.3611
 5629SOL     OW18893  10.239   8.821   4.622 -0.8314 -0.3370 -0.2600
 5629SOL    HW118894  10.276   8.898   4.577 -1.0843  0.7262  1.2694
 5629SOL    HW218895  10.311   8.789   4.676 -1.1805 -0.2451  0.2609
 5630SOL     OW18896   8.214   5.035  11.215 -0.5659  0.5511  0.6783
 5630SOL    HW118897   8.211   4.977  11.139  1.2186 -0.4980  1.3427
 5630SOL    HW218898   8.268   5.109  11.187  0.3685  0.0071  0.9777
 5631SOL     OW18899   8.074  10.005   3.487 -0.3580  0.2228  1.0879
 5631SOL    HW118900   8.161   9.965   3.491  0.4130  1.2536 -2.3815
 5631SOL    HW218901   8.077  10.075   3.552  0.6342 -1.0294  2.4599
 5632SOL     OW18902  10.140   3.004  10.212  0.1342 -0.0508  0.4215
 5632SOL    HW118903  10.199   3.078  10.194  0.3220 -0.2606  0.1605
 5632SOL    HW218904  10.059   3.044  10.242  0.4805  0.2395  1.0049
 5633SOL     OW18905   8.152   8.590   9.722  0.6772 -0.0349 -0.2085
 5633SOL    HW118906   8.212   8.518   9.702 -0.1940 -1.3244  1.5925
 5633SOL    HW218907   8.112   8.612   9.638  0.3853 -2.1944 -0.6781
 5634SOL     OW18908   6.726   7.586   2.086 -0.0127  0.3913 -0.1697
 5634SOL    HW118909   6.802   7.614   2.137 -1.2286  1.4085  1.1927
 5634SOL    HW218910   6.757   7.583   1.996  1.1848  2.7617  0.0685
 5635SOL     OW18911   3.737   3.641   5.725 -0.2025 -0.5455 -0.0807
 5635SOL    HW118912   3.801   3.593   5.672 -0.6836 -0.2891 -0.9121
 5635SOL    HW218913   3.712   3.579   5.794  0.0958 -1.0488 -0.4156
 5636SOL     OW18914   3.774   5.610   1.468  0.3219  0.0433 -0.2005
 5636SOL    HW118915   3.785   5.683   1.407  0.0070  0.0199 -0.2889
 5636SOL    HW218916   3.862   5.573   1.478  0.9165  1.7727  1.5369
 5637SOL     OW18917   0.675   5.153   9.115  0.6428 -0.0417 -0.0917
 5637SOL    HW118918   0.636   5.168   9.028 -0.7695 -2.2756  0.0835
 5637SOL    HW218919   0.616   5.198   9.176  1.0004  0.5530 -0.1716
 5638SOL     OW18920   5.393   3.162   1.892  0.4237 -0.5110  0.1638
 5638SOL    HW118921   5.471   3.202   1.930 -1.0955  2.0098  0.8928
 5638SOL    HW218922   5.320   3.211   1.931 -1.4643 -1.7616 -1.6069
 5639SOL     OW18923   1.806   4.624   1.804 -0.1084 -0.0174 -0.2663
 5639SOL    HW118924   1.846   4.650   1.722 -2.2068  1.1658 -0.9900
 5639SOL    HW218925   1.826   4.695   1.865 -1.0740  0.5769 -0.6294
 5640SOL     OW18926   7.196   0.617   9.217  0.0622  0.0328  0.0113
 5640SOL    HW118927   7.198   0.712   9.214 -1.5742  0.2110  2.2822
 5640SOL    HW218928   7.192   0.590   9.125 -0.1631  2.1617 -0.6475
 5641SOL     OW18929   3.625   2.590   3.978 -0.1163  0.5911  0.5165
 5641SOL    HW118930   3.555   2.532   4.005  1.2648 -0.9649  0.8816
 5641SOL    HW218931   3.690   2.584   4.048  1.6716 -0.3035 -1.1249
 5642SOL     OW18932   7.929   8.545   1.868 -0.4298 -0.5131 -0.2015
 5642SOL    HW118933   7.927   8.497   1.951 -0.3219  1.1040  0.7823
 5642SOL    HW218934   7.844   8.588   1.862  0.5489  1.7058  0.5674
 5643SOL     OW18935   2.786   7.717   4.504 -0.3016 -0.5128 -0.5384
 5643SOL    HW118936   2.834   7.699   4.424  2.5001 -1.9459  1.3159
 5643SOL    HW218937   2.773   7.632   4.545  1.5991  0.3591  2.1995
 5644SOL     OW18938   7.900   6.006   6.879  0.3182  0.0050 -0.3809
 5644SOL    HW118939   7.828   5.952   6.847 -0.3908  0.6412  0.0904
 5644SOL    HW218940   7.918   6.068   6.808  0.9397 -0.6539 -0.8080
 5645SOL     OW18941   4.575   6.006  10.633  0.5214 -0.2358 -0.2098
 5645SOL    HW118942   4.654   5.969  10.673 -0.7713 -0.2180  2.5693
 5645SOL    HW218943   4.511   6.011  10.704 -1.5442  1.1408 -2.0048
 5646SOL     OW18944   2.588   2.047   1.414 -0.2282  0.2175  0.6739
 5646SOL    HW118945   2.675   2.085   1.420 -0.7812  1.3942  1.5363
 5646SOL    HW218946   2.595   1.962   1.458  1.1472 -1.0465 -1.7309
 5647SOL     OW18947   5.511   1.067   5.547 -0.3321 -0.5878 -0.3507
 5647SOL    HW118948   5.488   1.156   5.521  1.4604  0.1811  0.5240
 5647SOL    HW218949   5.451   1.011   5.497 -0.1905  1.0069 -2.4412
 5648SOL     OW18950   6.697   6.037   7.778 -0.3410 -0.0339  0.4162
 5648SOL    HW118951   6.743   6.062   7.858  0.5202  0.9132 -0.3482
 5648SOL    HW218952   6.746   5.962   7.744  1.6934  1.8708 -1.1883
 5649SOL     OW18953   8.677   1.516   9.325  0.3587 -0.5814 -0.4526
 5649SOL    HW118954   8.584   1.504   9.342  0.6619 -2.9685 -0.1513
 5649SOL    HW218955   8.720   1.452   9.381  2.1951  0.3427 -0.7334
 5650SOL     OW18956   9.082   7.607   0.342 -0.7969  0.3338 -0.2543
 5650SOL    HW118957   8.999   7.652   0.353 -1.1355 -0.5736  1.1977
 5650SOL    HW218958   9.059   7.520   0.309 -0.4247  0.1670 -0.0943
 5651SOL     OW18959  10.440   8.221  10.060  0.0740  0.4602  0.1761
 5651SOL    HW118960  10.409   8.161  10.129  0.7158  1.3482  1.2649
 5651SOL    HW218961  10.363   8.272  10.037  0.2042  1.2433  1.3936
 5652SOL     OW18962   1.736   0.228  11.190  0.3473  0.3645  0.6381
 5652SOL    HW118963   1.756   0.303  11.134  0.1588  0.4262  0.6502
 5652SOL    HW218964   1.800   0.232  11.260 -0.7850  1.5916  1.6579
 5653SOL     OW18965   6.768   5.177   5.112  0.5459 -0.0531 -0.7918
 5653SOL    HW118966   6.803   5.241   5.050 -2.1565  0.5348 -1.8680
 5653SOL    HW218967   6.722   5.230   5.178  0.7129 -0.7909 -0.0665
 5654SOL     OW18968   3.485   1.969   8.842 -0.1980  0.7784 -0.1227
 5654SOL    HW118969   3.415   2.027   8.873 -1.3535  0.7366 -2.3991
 5654SOL    HW218970   3.521   2.015   8.766 -1.1293 -1.4015 -1.9802
 5655SOL     OW18971   5.274   2.474   2.194  0.3384 -0.1005 -0.2995
 5655SOL    HW118972   5.365   2.503   2.189  0.1423  0.4903 -0.5746
 5655SOL    HW218973   5.231   2.518   2.120 -0.4389  0.6164  0.5594
 5656SOL     OW18974   6.782   2.959   8.346  0.1157  0.3486  0.1841
 5656SOL    HW118975   6.825   3.017   8.409  0.0565  0.2476  0.3189
 5656SOL    HW218976   6.758   2.881   8.398 -1.4114  0.9428  0.4181
 5657SOL     OW18977   9.018   6.453   3.275  0.9765  0.3843 -0.6355
 5657SOL    HW118978   9.035   6.508   3.352  1.2947 -0.3131 -0.1978
 5657SOL    HW218979   8.927   6.428   3.283  1.2158 -0.3274 -0.0572
 5658SOL     OW18980   4.478   2.996   8.364 -0.2860 -0.1378  0.0355
 5658SOL    HW118981   4.412   2.927   8.352 -0.6979  0.6499 -2.8628
 5658SOL    HW218982   4.427   3.075   8.381  0.1347 -0.1984  1.7804
 5659SOL     OW18983   0.534   0.462   7.401  0.0059 -0.4055  0.1822
 5659SOL    HW118984   0.481   0.474   7.480  0.1085 -0.8468  0.3259
 5659SOL    HW218985   0.553   0.368   7.400  1.8946 -0.0711  0.8718
 5660SOL     OW18986   4.941   5.190   0.731  0.3126  0.0218  0.3377
 5660SOL    HW118987   4.894   5.246   0.669 -0.8116  0.5334  1.6053
 5660SOL    HW218988   4.887   5.111   0.737  0.5396 -0.1209  0.5091
 5661SOL     OW18989   7.521   1.133   6.552  1.0564  0.3968 -0.1511
 5661SOL    HW118990   7.441   1.125   6.605  1.4353  0.7126  0.4757
 5661SOL    HW218991   7.511   1.217   6.507  1.2743  0.6800  0.3294
 5662SOL     OW18992   5.929   8.373   6.017  0.1312 -1.2016  0.1525
 5662SOL    HW118993   5.931   8.305   6.084  0.5713  0.9640  2.5069
 5662SOL    HW218994   5.988   8.441   6.049 -1.8761  1.2700 -0.9243
 5663SOL     OW18995   0.225   3.891   1.828 -0.8590 -0.0783 -0.0977
 5663SOL    HW118996   0.289   3.934   1.771 -1.4218  1.6583  0.5244
 5663SOL    HW218997   0.253   3.799   1.830  2.2802  0.7871  1.0136
 5664SOL     OW18998   8.034   5.971   0.692 -0.0852 -0.3929  0.3644
 5664SOL    HW118999   7.970   5.918   0.740 -0.9189  2.2834  2.4225
 5664SOL    HW219000   7.997   6.059   0.691  0.8063  0.1285 -3.6998
 5665SOL     OW19001   2.569   9.966   9.231 -0.0788 -0.7669  0.6842
 5665SOL    HW119002   2.531   9.879   9.220 -0.4494 -0.6765  1.2096
 5665SOL    HW219003   2.611   9.963   9.317 -0.7179 -0.2073  1.0304
 5666SOL     OW19004   8.585   1.880   8.746  0.4881 -0.1685  0.3370
 5666SOL    HW119005   8.545   1.933   8.677  0.4044  0.0758  0.5734
 5666SOL    HW219006   8.634   1.943   8.799 -1.2842  0.0185  1.8425
 5667SOL     OW19007   8.824   7.557   7.199 -0.2493 -0.2272  0.2627
 5667SOL    HW119008   8.750   7.568   7.139  0.5076  2.4494 -0.3254
 5667SOL    HW219009   8.784   7.561   7.286 -0.8882  1.0763 -0.0502
 5668SOL     OW19010   5.466   0.525   8.494 -0.8814  0.1708  0.1803
 5668SOL    HW119011   5.382   0.481   8.507  0.1242 -1.6720  0.7037
 5668SOL    HW219012   5.531   0.455   8.495  0.7066  1.5746  0.0524
 5669SOL     OW19013   8.763  10.611   3.610  0.1353  0.0832  0.0973
 5669SOL    HW119014   8.750  10.648   3.697  2.1142 -1.4227  1.1173
 5669SOL    HW219015   8.716  10.527   3.612  0.2116  0.0294 -0.2774
 5670SOL     OW19016   1.295  10.549   2.650  0.7683 -0.5403 -0.1602
 5670SOL    HW119017   1.370  10.490   2.637  2.9984  2.0301  0.2238
 5670SOL    HW219018   1.304  10.579   2.740 -0.7461 -0.1377 -0.1163
 5671SOL     OW19019   3.758   4.498   5.586 -0.0907  0.2645 -0.1772
 5671SOL    HW119020   3.833   4.472   5.532 -0.6310 -1.3839 -0.1886
 5671SOL    HW219021   3.696   4.426   5.578 -2.1749  2.0091 -1.0133
 5672SOL     OW19022   9.241   2.792   4.744  0.2970 -0.7016  0.0523
 5672SOL    HW119023   9.298   2.812   4.818  1.3609 -1.2396 -0.5976
 5672SOL    HW219024   9.301   2.780   4.670 -0.6291 -1.6589 -0.5745
 5673SOL     OW19025   0.660   1.121   5.464  0.0936  0.1925 -0.6498
 5673SOL    HW119026   0.746   1.133   5.423 -0.7136  0.6737 -2.3257
 5673SOL    HW219027   0.614   1.203   5.447 -0.1465  0.6327  1.7606
 5674SOL     OW19028   2.341   1.195   4.613  0.1332 -0.9533  0.4783
 5674SOL    HW119029   2.419   1.171   4.563  0.1732 -2.2760  1.1208
 5674SOL    HW219030   2.372   1.207   4.703 -0.3160 -0.9739  0.6412
 5675SOL     OW19031   3.938   0.151   9.300 -0.5722 -0.7369 -0.4539
 5675SOL    HW119032   3.994   0.106   9.238 -0.1881 -3.3333  1.6024
 5675SOL    HW219033   3.961   0.244   9.290  3.0218 -1.5152 -0.7770
 5676SOL     OW19034   4.300  10.736   7.616 -0.1530 -0.1955  0.2448
 5676SOL    HW119035   4.338  10.703   7.535 -0.5558 -4.3705  1.5386
 5676SOL    HW219036   4.215  10.773   7.591  0.6247  0.5712 -1.4117
 5677SOL     OW19037   6.439  10.973   6.336  0.3969  0.2757  0.2436
 5677SOL    HW119038   6.476  10.937   6.417  3.5250 -0.0904 -1.1950
 5677SOL    HW219039   6.421  11.064   6.357  2.1359  0.4615  1.1256
 5678SOL     OW19040   5.385   6.873   3.802 -0.1638  0.3929 -0.3712
 5678SOL    HW119041   5.446   6.854   3.731  0.7331 -0.2000  0.5339
 5678SOL    HW219042   5.339   6.791   3.818  1.7640 -0.3706  1.6998
 5679SOL     OW19043   9.964  10.601   9.711  0.5687 -0.5110 -0.9226
 5679SOL    HW119044  10.056  10.621   9.727  1.2674 -2.0075 -2.7364
 5679SOL    HW219045   9.926  10.590   9.799  2.5786 -1.8328 -0.1660
 5680SOL     OW19046   0.007   0.413  10.212  0.3544  0.4766 -0.5944
 5680SOL    HW119047  -0.079   0.443  10.243  0.3401 -0.6070  0.4798
 5680SOL    HW219048   0.001   0.420  10.117 -0.4656  1.6234 -0.4877
 5681SOL     OW19049   3.516   2.943   0.543  0.3661 -0.0949  0.2829
 5681SOL    HW119050   3.542   3.024   0.587 -0.0883 -0.1847  0.7272
 5681SOL    HW219051   3.436   2.916   0.588  0.1896 -0.4774 -0.2491
 5682SOL     OW19052   8.787   3.975   0.038  0.1100  0.0774 -0.0839
 5682SOL    HW119053   8.860   3.989  -0.023 -0.1509 -1.9232 -0.9124
 5682SOL    HW219054   8.744   4.060   0.042  1.1271  0.6990 -1.3829
 5683SOL     OW19055   3.648   6.094   7.811  0.0902 -0.3383  0.1147
 5683SOL    HW119056   3.604   6.176   7.787 -0.4559 -0.4217  0.7655
 5683SOL    HW219057   3.635   6.088   7.906  1.0959 -0.6215  0.2415
 5684SOL     OW19058   2.145   8.559   5.158  0.0053  0.2230 -0.4290
 5684SOL    HW119059   2.057   8.531   5.185  0.2328  1.0589  1.3356
 5684SOL    HW219060   2.134   8.652   5.138  0.8139  0.8759  1.7917
 5685SOL     OW19061   2.540   1.778   0.255  0.2047  0.6915 -0.5392
 5685SOL    HW119062   2.607   1.831   0.298 -0.7347  2.0651 -0.7044
 5685SOL    HW219063   2.480   1.753   0.326 -0.7961  2.1214 -0.8268
 5686SOL     OW19064   4.098  10.994   5.904  0.2485 -0.4349 -0.7738
 5686SOL    HW119065   4.184  11.034   5.890 -0.5657  1.4978 -0.5332
 5686SOL    HW219066   4.108  10.942   5.984  0.8510  0.8285 -0.0026
 5687SOL     OW19067   6.037   7.022   1.944 -0.2720 -0.2306  0.1824
 5687SOL    HW119068   6.104   6.954   1.954  0.7541  0.9532  2.1125
 5687SOL    HW219069   5.956   6.974   1.928  0.5970 -1.8515  0.4147
 5688SOL     OW19070   4.429   3.247   8.724 -0.1933 -0.3264 -0.1950
 5688SOL    HW119071   4.492   3.271   8.656  1.9051 -0.2352  1.6354
 5688SOL    HW219072   4.379   3.328   8.740 -0.2082 -0.1496 -1.0985
 5689SOL     OW19073   8.241  11.244   8.311  0.4020  0.1545 -0.2518
 5689SOL    HW119074   8.193  11.324   8.331  1.1456  0.4467  0.4152
 5689SOL    HW219075   8.174  11.183   8.279 -0.5913  0.2310  1.5583
 5690SOL     OW19076   9.014  10.381   0.338  0.5524  0.1176  0.2040
 5690SOL    HW119077   9.096  10.370   0.289  0.1978 -0.1771 -0.3328
 5690SOL    HW219078   8.955  10.316   0.300 -0.5733  1.6680 -0.7852
 5691SOL     OW19079   8.591   8.881   4.533 -0.6413 -0.0471  0.2283
 5691SOL    HW119080   8.586   8.966   4.490 -1.0678 -0.3460 -0.3222
 5691SOL    HW219081   8.543   8.822   4.476 -0.0310 -0.7439  0.4121
 5692SOL     OW19082   2.413   3.129  11.107  0.2412  0.3647 -0.3415
 5692SOL    HW119083   2.505   3.153  11.112  0.2380  0.3545 -0.2393
 5692SOL    HW219084   2.366   3.213  11.111  0.1389  0.2618  2.0205
 5693SOL     OW19085   8.381   3.708   3.160 -0.0632 -0.3713  0.8344
 5693SOL    HW119086   8.313   3.722   3.225 -1.9140 -0.2425 -1.0107
 5693SOL    HW219087   8.407   3.617   3.170  1.1692  0.1590  3.0253
 5694SOL     OW19088   8.244   4.972   4.749  0.2291 -0.1476  0.2467
 5694SOL    HW119089   8.239   4.933   4.837  0.0254  0.3048  0.4361
 5694SOL    HW219090   8.170   5.033   4.746  0.2715 -0.1227 -0.2201
 5695SOL     OW19091   9.878   3.946   4.454 -0.0679 -0.0392 -0.5887
 5695SOL    HW119092   9.829   4.000   4.516 -1.7125 -1.1487 -0.8672
 5695SOL    HW219093   9.954   4.000   4.431 -0.1722  1.0011  1.2371
 5696SOL     OW19094   2.665   9.554   3.914 -0.2955 -0.4002 -0.2703
 5696SOL    HW119095   2.733   9.603   3.960 -0.1854 -0.8136  0.0155
 5696SOL    HW219096   2.681   9.572   3.822 -0.5240  0.4422 -0.1523
 5697SOL     OW19097   2.156   5.809   6.667 -0.2190 -0.1347  0.0817
 5697SOL    HW119098   2.077   5.769   6.630  0.4505  0.9278 -2.7195
 5697SOL    HW219099   2.178   5.753   6.742 -3.1740 -0.8696  0.5287
 5698SOL     OW19100   4.330   9.313   0.287 -0.1649  0.6666 -0.0227
 5698SOL    HW119101   4.413   9.291   0.330 -0.2172  0.9153  0.2066
 5698SOL    HW219102   4.284   9.229   0.279  0.1970  0.4942 -0.3422
 5699SOL     OW19103   5.927   2.988   0.561 -0.3477 -0.1743 -0.4497
 5699SOL    HW119104   5.990   2.951   0.622  0.5573  0.4652 -0.9661
 5699SOL    HW219105   5.855   3.018   0.616  0.1363 -0.2427  0.2334
 5700SOL     OW19106   4.469   5.835   9.910 -0.7815 -0.3902 -0.2089
 5700SOL    HW119107   4.515   5.820   9.993 -1.0057 -1.2806 -0.2342
 5700SOL    HW219108   4.387   5.786   9.919 -0.2313 -1.5862 -1.4638
 5701SOL     OW19109  10.614   5.632   7.748 -0.2516 -0.0540  0.0433
 5701SOL    HW119110  10.674   5.558   7.742  0.4273  0.5630 -1.1242
 5701SOL    HW219111  10.605   5.662   7.657  1.5206  2.8998  0.7496
 5702SOL     OW19112   8.719   7.722  10.287  0.0962 -0.2114 -0.3429
 5702SOL    HW119113   8.710   7.667  10.365 -0.5451  1.3662  0.7690
 5702SOL    HW219114   8.758   7.803  10.320 -2.3915  1.4369 -1.1259
 5703SOL     OW19115   2.826   8.641   0.280 -0.2216 -0.3125  0.1918
 5703SOL    HW119116   2.917   8.634   0.307 -0.1927 -0.1084  0.1546
 5703SOL    HW219117   2.812   8.735   0.270 -0.3456 -0.3641 -0.1140
 5704SOL     OW19118   6.368  11.269   9.499 -0.3821 -0.4416 -0.7446
 5704SOL    HW119119   6.305  11.266   9.571 -1.4506 -0.7585 -1.6742
 5704SOL    HW219120   6.319  11.239   9.423  0.9860 -0.9740 -1.4373
 5705SOL     OW19121  10.392   0.555   4.333 -0.2117 -0.3309 -0.0437
 5705SOL    HW119122  10.399   0.611   4.256 -0.7578 -0.8211 -0.4499
 5705SOL    HW219123  10.314   0.587   4.379 -1.5830 -1.8740 -1.2030
 5706SOL     OW19124   0.689   0.290   7.999 -0.6230  0.1256 -0.3293
 5706SOL    HW119125   0.744   0.227   7.953 -1.5153 -0.0828 -1.1401
 5706SOL    HW219126   0.600   0.262   7.979 -1.0637 -0.3659  2.0570
 5707SOL     OW19127   1.964  10.440   2.096 -0.1398 -0.1614 -0.9576
 5707SOL    HW119128   2.011  10.375   2.044  0.1851 -0.6344 -0.0912
 5707SOL    HW219129   2.011  10.443   2.179 -1.6106 -0.6370 -0.0729
 5708SOL     OW19130   8.236  10.469   3.220 -0.5036  0.6073  0.2729
 5708SOL    HW119131   8.211  10.471   3.127 -3.7237 -0.5178  0.9876
 5708SOL    HW219132   8.321  10.425   3.221 -0.5001  0.4359 -2.1152
 5709SOL     OW19133  11.154   8.254   3.449 -0.6804 -0.2915  0.6712
 5709SOL    HW119134  11.165   8.246   3.544  1.8288  2.0536  0.6850
 5709SOL    HW219135  11.112   8.339   3.437  0.7910  0.3192 -0.3647
 5710SOL     OW19136   2.952   1.678   8.326 -0.4435 -0.3050  0.1125
 5710SOL    HW119137   2.973   1.756   8.378 -3.1340  0.8459 -0.3776
 5710SOL    HW219138   2.929   1.712   8.240  1.3837 -1.9816 -1.1286
 5711SOL     OW19139   3.840   5.259   7.390  0.0220 -0.3075 -0.0134
 5711SOL    HW119140   3.931   5.260   7.361 -0.3572 -1.3215 -1.3825
 5711SOL    HW219141   3.843   5.221   7.478  0.8777 -0.8137 -0.2508
 5712SOL     OW19142   5.601   6.271   9.707 -0.0118  0.4329 -0.2058
 5712SOL    HW119143   5.536   6.215   9.663  0.7632 -0.6319 -0.0420
 5712SOL    HW219144   5.555   6.306   9.783 -1.1395  1.6846 -1.4160
 5713SOL     OW19145   3.854   9.527   0.761 -0.0245 -0.0867  0.5357
 5713SOL    HW119146   3.797   9.523   0.838 -0.1007  1.3084  0.5849
 5713SOL    HW219147   3.942   9.517   0.796 -0.1519 -1.1483  0.5882
 5714SOL     OW19148   0.069   3.667  10.930 -0.5016 -0.3172  0.3953
 5714SOL    HW119149   0.015   3.623  10.996  0.2592  1.2095  2.1045
 5714SOL    HW219150   0.044   3.759  10.936  0.4384  0.0244 -0.6162
 5715SOL     OW19151   0.837   3.398   9.400 -0.0702 -0.0509 -0.2958
 5715SOL    HW119152   0.927   3.366   9.403 -0.0925 -0.0477  1.8774
 5715SOL    HW219153   0.828   3.434   9.311  1.5866 -1.3390 -1.0465
 5716SOL     OW19154   2.698   3.224   5.499 -0.2350 -0.0470  0.2430
 5716SOL    HW119155   2.744   3.307   5.504 -0.5704  0.2734 -1.4014
 5716SOL    HW219156   2.754   3.162   5.545  0.6640  0.8197  0.3295
 5717SOL     OW19157   6.242   5.629   0.355  0.5449 -0.5854 -0.0982
 5717SOL    HW119158   6.250   5.534   0.351 -2.5219 -0.9168 -1.9439
 5717SOL    HW219159   6.153   5.647   0.324  1.8879  3.0811 -2.5478
 5718SOL     OW19160   3.840   1.718   1.454  0.2456 -0.0183  0.6392
 5718SOL    HW119161   3.802   1.753   1.374  2.6842  1.1875 -0.0811
 5718SOL    HW219162   3.826   1.787   1.519  0.8039  0.2509  0.4793
 5719SOL     OW19163   4.568   3.504  10.139 -0.8820  0.1601 -0.1094
 5719SOL    HW119164   4.594   3.596  10.145 -1.2433  0.3073 -0.7638
 5719SOL    HW219165   4.473   3.507  10.128 -1.2203 -0.3685  2.1762
 5720SOL     OW19166   2.918   8.233   7.846 -0.1954  0.2881 -0.1143
 5720SOL    HW119167   2.896   8.231   7.753  1.8257  1.2263 -0.6892
 5720SOL    HW219168   2.959   8.319   7.858  0.0187 -0.0173  1.5331
 5721SOL     OW19169   1.733   3.563   8.746  0.5826 -0.0242 -0.4172
 5721SOL    HW119170   1.817   3.608   8.758 -1.0673  2.8824  1.5156
 5721SOL    HW219171   1.690   3.612   8.676  0.5665 -1.7530 -1.6840
 5722SOL     OW19172   7.638   1.654   4.339  0.3814 -0.2510  0.0490
 5722SOL    HW119173   7.729   1.629   4.325  0.8162 -0.2182  2.3898
 5722SOL    HW219174   7.600   1.581   4.388 -1.1587 -0.6939 -1.7136
 5723SOL     OW19175   0.245   5.914   7.026 -0.6610  0.1183  0.6692
 5723SOL    HW119176   0.258   5.896   6.932 -0.4426 -0.0105  0.7256
 5723SOL    HW219177   0.331   5.941   7.058 -0.2377 -1.8207  1.2803
 5724SOL     OW19178  10.804   1.192   3.125  0.5320 -0.3283 -0.0490
 5724SOL    HW119179  10.808   1.267   3.184 -0.4413  0.6266 -1.1479
 5724SOL    HW219180  10.711   1.176   3.112  0.7216 -2.1069  0.6016
 5725SOL     OW19181   8.874   7.681   2.193  0.4975  0.4107 -0.1710
 5725SOL    HW119182   8.818   7.686   2.271 -0.2556 -1.0955 -0.5618
 5725SOL    HW219183   8.812   7.668   2.121  1.3009 -0.3062 -0.7446
 5726SOL     OW19184   1.744   2.018   7.229 -0.5579 -0.4973  0.1424
 5726SOL    HW119185   1.794   1.944   7.196 -1.8387 -1.3203 -0.0436
 5726SOL    HW219186   1.669   2.024   7.170 -0.0744  1.4874 -0.3507
 5727SOL     OW19187   6.925   1.426   4.829 -0.0524 -0.3859  0.0967
 5727SOL    HW119188   6.880   1.353   4.786  0.4664  0.2946 -1.6703
 5727SOL    HW219189   6.859   1.495   4.835  0.1338 -0.1494 -0.5032
 5728SOL     OW19190   3.630   1.411   9.932  0.2077  0.7267  0.0980
 5728SOL    HW119191   3.563   1.381   9.870  1.0828  1.2296 -1.1156
 5728SOL    HW219192   3.697   1.343   9.930 -0.0428  0.4405  0.9781
 5729SOL     OW19193   1.406   7.458   0.674 -0.4600 -0.2888  0.1052
 5729SOL    HW119194   1.439   7.391   0.735 -1.8142 -0.2229  0.9631
 5729SOL    HW219195   1.423   7.541   0.719  2.4035  0.1535 -1.5125
 5730SOL     OW19196   1.484   2.607   5.558 -0.2774 -0.3760 -0.2059
 5730SOL    HW119197   1.513   2.531   5.609 -2.4196 -0.9349  0.2982
 5730SOL    HW219198   1.564   2.655   5.539  1.2431 -3.0270 -1.0219
 5731SOL     OW19199   4.061  11.254  10.463  0.4669 -0.3116  0.4668
 5731SOL    HW119200   4.116  11.287  10.534  1.5927 -2.2744  0.5726
 5731SOL    HW219201   4.044  11.162  10.487 -2.1865 -0.0136  0.0256
 5732SOL     OW19202   7.904   0.469   4.421 -0.1617  0.2582 -0.0507
 5732SOL    HW119203   7.838   0.458   4.353  0.9387 -0.4805 -1.0267
 5732SOL    HW219204   7.965   0.534   4.385  0.9813 -0.8743 -0.2514
 5733SOL     OW19205   6.950   7.637   8.973 -0.0222  0.1473 -0.2240
 5733SOL    HW119206   6.885   7.640   9.043  1.4574 -0.4181  1.2312
 5733SOL    HW219207   6.995   7.721   8.980  1.8142 -0.8820  1.2484
 5734SOL     OW19208   3.961   5.873   8.430  0.5679 -0.5373  0.1156
 5734SOL    HW119209   3.919   5.819   8.497 -0.9266 -0.6699 -0.8786
 5734SOL    HW219210   4.029   5.816   8.393  1.5051 -0.4061  1.5933
 5735SOL     OW19211   6.228   7.003  10.613 -0.3389  0.2426  0.7309
 5735SOL    HW119212   6.238   7.053  10.694 -2.4227  2.0648 -0.0530
 5735SOL    HW219213   6.151   7.040  10.571 -0.9658 -2.5038 -0.7935
 5736SOL     OW19214   9.094   1.266   2.629  0.5037 -0.4468  0.1135
 5736SOL    HW119215   9.086   1.254   2.724 -0.2185  0.1754  0.1387
 5736SOL    HW219216   9.132   1.354   2.619  1.3669 -0.8360 -0.1676
 5737SOL     OW19217   4.697   5.789   9.261 -0.1922 -0.0631 -0.4441
 5737SOL    HW119218   4.736   5.786   9.173  1.3249 -0.1026  0.2050
 5737SOL    HW219219   4.721   5.705   9.300 -1.7630 -0.4885 -0.3316
 5738SOL     OW19220   3.807   2.516   2.429  0.3829 -0.0557 -0.3169
 5738SOL    HW119221   3.892   2.542   2.393 -1.0255  2.0115 -2.4533
 5738SOL    HW219222   3.821   2.427   2.460  3.0996 -0.1017 -1.3448
 5739SOL     OW19223   1.144   5.724   8.362 -0.4827  0.0137  0.7891
 5739SOL    HW119224   1.098   5.803   8.391 -1.9587 -0.3364 -0.4648
 5739SOL    HW219225   1.074   5.661   8.344  0.6423 -1.4075  1.2257
 5740SOL     OW19226   4.029  10.184   4.628  0.3663  0.2680  0.4856
 5740SOL    HW119227   4.107  10.210   4.676 -0.1622  0.9943  0.9821
 5740SOL    HW219228   3.965  10.162   4.696 -0.5429  1.7513  0.1665
 5741SOL     OW19229   5.948   8.585   2.659 -0.6606  0.3699 -0.3558
 5741SOL    HW119230   6.028   8.596   2.712 -0.5198  1.9057 -0.8331
 5741SOL    HW219231   5.980   8.575   2.569 -0.9797  0.3137 -0.4632
 5742SOL     OW19232   5.446   7.156   2.171  0.4366  0.3212  0.0100
 5742SOL    HW119233   5.518   7.099   2.197 -0.6231 -1.0243  0.1200
 5742SOL    HW219234   5.452   7.161   2.075  1.1424  0.8912  0.0749
 5743SOL     OW19235   9.436   9.505   3.501  0.4410  0.5568  1.0080
 5743SOL    HW119236   9.405   9.414   3.506 -0.6822  0.9194  0.9006
 5743SOL    HW219237   9.374   9.548   3.442  0.6077  1.5297  1.5206
 5744SOL     OW19238  10.197  10.115   9.433 -0.6241  0.2219 -0.2933
 5744SOL    HW119239  10.101  10.120   9.431 -0.7254 -0.2539  1.6355
 5744SOL    HW219240  10.223  10.137   9.343 -2.5896 -0.9005 -1.2259
 5745SOL     OW19241   8.803   4.562   7.804 -0.6627 -0.4709  0.0284
 5745SOL    HW119242   8.884   4.530   7.766 -0.3454  0.4254 -0.0714
 5745SOL    HW219243   8.814   4.657   7.808 -1.2379 -0.4359  1.1056
 5746SOL     OW19244   4.744   0.590   9.027  0.0155 -0.3295 -0.1675
 5746SOL    HW119245   4.829   0.552   9.007  0.0806  0.4647 -1.5293
 5746SOL    HW219246   4.681   0.519   9.012  0.1834 -0.1140 -2.1053
 5747SOL     OW19247   1.685   2.813   1.000  0.6347  0.5367 -0.2994
 5747SOL    HW119248   1.605   2.819   0.947  0.6017 -0.2363 -0.3591
 5747SOL    HW219249   1.737   2.889   0.975 -0.7027  1.8651  0.8102
 5748SOL     OW19250   9.369   7.930   7.266  0.3322 -0.0090 -0.7054
 5748SOL    HW119251   9.447   7.893   7.223 -0.5172 -0.8448 -1.6043
 5748SOL    HW219252   9.403   7.996   7.326  1.6624  0.4418 -1.8985
 5749SOL     OW19253   3.277   1.349   2.596 -0.6068 -0.0930 -0.1569
 5749SOL    HW119254   3.258   1.258   2.618 -0.9030  0.1320  0.5480
 5749SOL    HW219255   3.366   1.363   2.626 -0.7110 -0.0294  0.1229
 5750SOL     OW19256   7.556   6.362   4.484  0.1050 -0.2854 -0.0987
 5750SOL    HW119257   7.547   6.390   4.393  4.4975  2.0108 -0.0641
 5750SOL    HW219258   7.575   6.269   4.479 -4.2768 -1.3689 -0.9858
 5751SOL     OW19259  10.817   4.919   1.771  0.0325 -0.4644 -1.0135
 5751SOL    HW119260  10.745   4.876   1.819  0.4555 -0.9621 -0.8078
 5751SOL    HW219261  10.779   4.942   1.687 -0.9527  1.0989 -0.2008
 5752SOL     OW19262  10.615   9.934   8.931 -0.1294 -0.3114 -0.2038
 5752SOL    HW119263  10.678   9.969   8.994 -1.2681 -0.8094  1.2591
 5752SOL    HW219264  10.533   9.930   8.979 -1.3833  0.6076 -2.1582
 5753SOL     OW19265  10.826   5.232   8.156 -0.3142  0.0086 -0.4459
 5753SOL    HW119266  10.777   5.203   8.079 -1.3049 -0.2130  0.2487
 5753SOL    HW219267  10.829   5.155   8.213  1.2907 -0.1294 -0.6781
 5754SOL     OW19268   4.265   1.964   2.291  0.5068  0.1000  0.0264
 5754SOL    HW119269   4.342   1.909   2.304  0.1567 -0.1754  1.0544
 5754SOL    HW219270   4.288   2.021   2.218  1.8470  0.3236  0.6015
 5755SOL     OW19271   2.385   7.604   3.132  0.3138 -0.0925  0.8382
 5755SOL    HW119272   2.342   7.560   3.206 -1.5735  1.2701  0.6337
 5755SOL    HW219273   2.436   7.674   3.172 -2.4238  2.0478  0.8635
 5756SOL     OW19274   8.736   8.520   8.658 -0.0060  0.5247 -0.0618
 5756SOL    HW119275   8.679   8.458   8.613  0.4950  0.3878 -0.5200
 5756SOL    HW219276   8.793   8.555   8.589  0.5225  0.5923  0.3982
 5757SOL     OW19277   1.936   5.179   7.598  0.0765  0.1052  0.0674
 5757SOL    HW119278   1.852   5.221   7.584  0.1949  0.4668  0.4354
 5757SOL    HW219279   1.988   5.244   7.646  0.9262  0.3013 -1.0775
 5758SOL     OW19280   2.381   5.860   8.991  0.4015  0.7262  0.4059
 5758SOL    HW119281   2.367   5.896   8.904  0.5975  0.4576  0.2619
 5758SOL    HW219282   2.410   5.770   8.975  2.7978  1.3763  0.6621
 5759SOL     OW19283  10.511   4.807   7.349  0.1609  0.1863 -0.3345
 5759SOL    HW119284  10.468   4.721   7.354 -3.3909  1.7762 -0.2664
 5759SOL    HW219285  10.536   4.816   7.257  1.0845 -1.0764 -0.2378
 5760SOL     OW19286   4.600   4.305   5.850  0.1982 -0.3605  0.1598
 5760SOL    HW119287   4.588   4.210   5.856  1.3454 -0.6592 -1.6732
 5760SOL    HW219288   4.512   4.340   5.854 -0.2420 -1.4846  0.9662
 5761SOL     OW19289   9.045   4.473   7.721  0.4060 -0.6964 -0.1484
 5761SOL    HW119290   9.062   4.493   7.813 -1.1844 -1.3792  0.3436
 5761SOL    HW219291   9.026   4.379   7.721  0.7305 -0.7707 -1.2374
 5762SOL     OW19292   5.996   3.843   0.472 -0.2583  0.1557  0.5371
 5762SOL    HW119293   5.942   3.922   0.472 -0.5179  0.0025 -1.0777
 5762SOL    HW219294   5.938   3.774   0.440  0.8675  0.0141 -1.3635
 5763SOL     OW19295   5.096   6.417  11.039 -0.4460  0.3778  0.1658
 5763SOL    HW119296   5.071   6.459  10.957 -0.4787  0.8148  0.3953
 5763SOL    HW219297   5.131   6.332  11.013  0.5394  0.9300 -0.3874
 5764SOL     OW19298   9.789   6.890   3.045  0.3550 -0.4781  0.0024
 5764SOL    HW119299   9.756   6.947   2.976  0.5419 -0.5769 -0.1677
 5764SOL    HW219300   9.746   6.922   3.124  0.7152  0.1124 -0.0320
 5765SOL     OW19301   4.242   5.115   4.524 -0.0218  0.1593  0.6043
 5765SOL    HW119302   4.157   5.159   4.533  0.2424  0.7405  0.3117
 5765SOL    HW219303   4.220   5.022   4.523 -0.6211  0.2896  0.9180
 5766SOL     OW19304   3.297   2.322   6.304 -0.4345  0.1239  0.3119
 5766SOL    HW119305   3.324   2.322   6.212  0.1351 -0.5898  0.4686
 5766SOL    HW219306   3.205   2.350   6.302  0.4321  3.3244 -0.1870
 5767SOL     OW19307  10.458  10.389   7.607 -0.1325 -0.1778  0.3666
 5767SOL    HW119308  10.428  10.299   7.591  3.7453 -1.8438  1.3005
 5767SOL    HW219309  10.427  10.410   7.695 -1.6596 -0.2240 -0.1213
 5768SOL     OW19310   9.601   8.907   0.462 -0.4763 -0.1133  0.0685
 5768SOL    HW119311   9.578   8.849   0.535  1.6232  2.2891  2.9024
 5768SOL    HW219312   9.526   8.966   0.454 -1.5448 -1.5434 -1.1589
 5769SOL     OW19313   1.677   5.027   7.470  0.4515  0.3473 -0.8343
 5769SOL    HW119314   1.617   4.955   7.451 -0.1540  0.4049  0.7310
 5769SOL    HW219315   1.764   4.990   7.456  0.1115  0.3185 -3.3524
 5770SOL     OW19316   9.600  10.386   2.175  0.6034 -1.1783  0.0778
 5770SOL    HW119317   9.563  10.353   2.257 -0.4014  0.9041  0.5295
 5770SOL    HW219318   9.547  10.463   2.154 -0.9776 -3.0836 -4.0069
 5771SOL     OW19319   9.664   7.682   0.625 -0.3415  0.2000  0.5182
 5771SOL    HW119320   9.658   7.720   0.713  0.4256  1.9015 -0.1186
 5771SOL    HW219321   9.727   7.737   0.580 -1.2318 -0.2299 -1.3249
 5772SOL     OW19322   0.593   6.612   8.560  0.1988  0.0571  0.2847
 5772SOL    HW119323   0.627   6.522   8.562 -0.0836 -0.0864 -0.6909
 5772SOL    HW219324   0.498   6.601   8.565  0.0959  0.2175 -0.9140
 5773SOL     OW19325   3.011   1.459   2.611  0.8127 -0.3629  0.2757
 5773SOL    HW119326   3.097   1.419   2.609  0.5156 -1.0768 -2.9164
 5773SOL    HW219327   2.979   1.453   2.521 -2.8615 -0.7506  1.4290
 5774SOL     OW19328   5.609   5.144   4.065  0.4102  0.2943 -0.0276
 5774SOL    HW119329   5.527   5.147   4.114  1.0975 -0.6784  1.2520
 5774SOL    HW219330   5.615   5.230   4.024 -1.0965  0.4858  0.1022
 5775SOL     OW19331   4.461   5.513   0.133 -0.1768 -0.3290 -0.3764
 5775SOL    HW119332   4.545   5.560   0.139  0.1188 -0.6938 -1.5077
 5775SOL    HW219333   4.434   5.525   0.042 -1.8151  0.5409  0.1855
 5776SOL     OW19334   5.078   6.291   3.276 -0.0780  0.2138  0.5171
 5776SOL    HW119335   5.160   6.316   3.232  1.1844 -2.3857  1.1616
 5776SOL    HW219336   5.090   6.199   3.298 -3.3894 -0.3859  0.3216
 5777SOL     OW19337   9.030   2.601   2.482 -0.1973 -0.5769  0.4728
 5777SOL    HW119338   9.028   2.671   2.547  0.4186 -1.8699  1.9697
 5777SOL    HW219339   9.061   2.525   2.531 -1.1623 -1.9835 -1.0030
 5778SOL     OW19340   0.632   1.270   6.588 -0.3991 -0.6967  0.1872
 5778SOL    HW119341   0.597   1.307   6.669 -2.5430 -1.7283 -0.1866
 5778SOL    HW219342   0.622   1.340   6.523  0.3744 -0.2178  0.5712
 5779SOL     OW19343   3.414   2.840   4.087  0.2756 -0.3401  0.0839
 5779SOL    HW119344   3.404   2.810   3.997 -3.9027  1.8058 -0.4047
 5779SOL    HW219345   3.440   2.932   4.080 -0.1243 -0.1355  1.0809
 5780SOL     OW19346   3.196   6.270   8.606 -0.1297 -0.0061 -0.5359
 5780SOL    HW119347   3.198   6.341   8.671 -0.3381  0.3705 -0.9338
 5780SOL    HW219348   3.267   6.212   8.632 -0.7395 -0.3091  0.5327
 5781SOL     OW19349   0.174   2.728   5.303  0.0883  0.3626 -0.6784
 5781SOL    HW119350   0.093   2.749   5.256 -0.5011 -1.3327 -0.4785
 5781SOL    HW219351   0.154   2.750   5.394  0.0407  0.4501 -0.7094
 5782SOL     OW19352   5.595   3.629   0.764  0.7636  0.4694  0.8193
 5782SOL    HW119353   5.574   3.711   0.808  0.5317  0.0245  1.5611
 5782SOL    HW219354   5.605   3.652   0.672  0.7057  1.3254  1.0245
 5783SOL     OW19355  10.555   1.215   1.547 -0.2009 -0.2105  0.2066
 5783SOL    HW119356  10.548   1.290   1.606 -1.0764 -0.7447  0.8140
 5783SOL    HW219357  10.629   1.236   1.490 -0.8671  1.4421 -0.1129
 5784SOL     OW19358   1.844   0.344   7.388  0.3565  0.5873 -0.2527
 5784SOL    HW119359   1.936   0.372   7.388  0.3043  0.7642 -0.1795
 5784SOL    HW219360   1.846   0.256   7.350  0.9094 -0.5957  2.3097
 5785SOL     OW19361   0.215   4.053  10.503 -0.0476 -0.7965 -0.4812
 5785SOL    HW119362   0.257   4.119  10.447  1.0254 -0.8707  0.2023
 5785SOL    HW219363   0.182   4.103  10.578 -1.8248 -0.6403 -1.3123
 5786SOL     OW19364  10.104  10.069   7.331  0.2907  0.0989  0.4781
 5786SOL    HW119365  10.108  10.145   7.388  2.2868 -0.2678  0.9257
 5786SOL    HW219366  10.079  10.104   7.246  1.4130  1.3186  0.6124
 5787SOL     OW19367   8.971   8.407   8.865 -0.0177  0.0241  0.1153
 5787SOL    HW119368   8.939   8.445   8.948 -0.8934 -0.9775  0.2545
 5787SOL    HW219369   8.911   8.442   8.799 -0.8978 -1.1750  0.2589
 5788SOL     OW19370   5.189   1.869   8.741 -0.5357 -0.7956 -0.5360
 5788SOL    HW119371   5.272   1.883   8.696  0.3178 -2.8679  0.2527
 5788SOL    HW219372   5.157   1.786   8.707 -2.9470  0.4988 -1.6736
 5789SOL     OW19373  10.303   9.130   0.873 -0.1362  0.1128  0.8091
 5789SOL    HW119374  10.366   9.161   0.938  0.3160 -1.2495  1.0473
 5789SOL    HW219375  10.265   9.051   0.911 -0.4293 -0.2841 -0.2607
 5790SOL     OW19376   1.613  10.893   0.798 -0.1607 -0.1730 -0.5204
 5790SOL    HW119377   1.552  10.820   0.785  0.1811 -0.2425 -1.9253
 5790SOL    HW219378   1.616  10.905   0.893  0.3588 -2.4958 -0.1668
 5791SOL     OW19379   5.066   3.655   2.952 -0.1981  0.0168 -0.0609
 5791SOL    HW119380   4.978   3.660   2.989 -0.0938 -1.4254  0.4212
 5791SOL    HW219381   5.081   3.742   2.916 -2.0121  0.1487 -0.6014
 5792SOL     OW19382   4.069   0.932   2.733  0.0390 -0.0375 -0.4858
 5792SOL    HW119383   4.051   0.865   2.667  0.3180 -1.5328  0.8936
 5792SOL    HW219384   3.982   0.952   2.770  0.1526 -1.2107  0.5100
 5793SOL     OW19385  10.215   4.055   1.148  0.1821  0.0803 -0.1754
 5793SOL    HW119386  10.135   4.098   1.177 -1.2552 -0.6872 -2.6762
 5793SOL    HW219387  10.263   4.123   1.101  0.8405  0.4134  0.9240
 5794SOL     OW19388   2.752   7.848   1.200 -0.2349  0.3688 -0.4168
 5794SOL    HW119389   2.742   7.925   1.257  1.6718 -0.5252  1.2192
 5794SOL    HW219390   2.804   7.787   1.251  0.2865 -1.1040 -2.5886
 5795SOL     OW19391   5.286  10.810   5.699 -0.4279  0.1228 -0.1787
 5795SOL    HW119392   5.193  10.790   5.684  0.2100 -2.6904 -1.0086
 5795SOL    HW219393   5.313  10.856   5.619 -1.1337  1.1629  0.1648
 5796SOL     OW19394   1.286   8.299   9.128  0.4682 -0.2563 -0.0155
 5796SOL    HW119395   1.305   8.389   9.158 -0.1302 -0.0783 -0.1606
 5796SOL    HW219396   1.359   8.247   9.162 -0.2285 -0.0893  1.8895
 5797SOL     OW19397   8.099  10.851   5.717  0.9574 -0.0168  0.4375
 5797SOL    HW119398   8.032  10.860   5.649  0.8278 -0.0912  0.5551
 5797SOL    HW219399   8.101  10.757   5.736  2.5690 -0.3494 -1.0602
 5798SOL     OW19400   3.809   9.078  10.875 -1.0184 -0.3008 -0.9245
 5798SOL    HW119401   3.855   9.084  10.791 -0.6261 -0.0223 -0.6907
 5798SOL    HW219402   3.823   9.163  10.916 -1.5281 -0.3047 -0.7394
 5799SOL     OW19403   3.162   4.691   1.943  0.4606  0.6739 -0.3674
 5799SOL    HW119404   3.099   4.628   1.978 -0.0926 -0.2319 -2.7291
 5799SOL    HW219405   3.107   4.758   1.901  1.0662  1.8598  0.6852
 5800SOL     OW19406   3.489   4.269   9.936 -0.1712  0.0104  0.1877
 5800SOL    HW119407   3.490   4.312   9.851 -0.0254  1.1594  0.7502
 5800SOL    HW219408   3.560   4.310   9.985 -0.8259  0.0173  1.1704
 5801SOL     OW19409   6.906   2.381   8.916  0.8632  0.3876  0.3774
 5801SOL    HW119410   6.864   2.452   8.868 -0.6176 -1.3843 -1.1545
 5801SOL    HW219411   6.835   2.319   8.932  2.2720 -1.2071  0.7353
 5802SOL     OW19412   5.342   0.369   4.067  0.1133 -0.1766  0.0639
 5802SOL    HW119413   5.410   0.372   4.000  0.4110 -0.6934  0.3342
 5802SOL    HW219414   5.285   0.296   4.039  1.9312 -2.4571  1.9352
 5803SOL     OW19415   0.692   3.907   9.921 -0.0642  0.0601  0.0969
 5803SOL    HW119416   0.617   3.863   9.881  0.7115  0.3014 -1.6908
 5803SOL    HW219417   0.732   3.840   9.977 -1.0004 -0.3765  0.2646
 5804SOL     OW19418   8.326  10.802   1.952  0.1930  0.2524 -0.2684
 5804SOL    HW119419   8.416  10.771   1.958 -0.4975 -1.7716  0.5344
 5804SOL    HW219420   8.309  10.808   1.858  0.6496 -1.0518 -0.4553
 5805SOL     OW19421  10.344   6.719   3.838  0.4669  0.3108 -0.4425
 5805SOL    HW119422  10.341   6.677   3.752 -1.0479 -0.1915 -0.1852
 5805SOL    HW219423  10.267   6.685   3.884  0.0273  2.1891  0.3299
 5806SOL     OW19424   9.762   9.241   4.567 -0.6531  0.0389 -0.1076
 5806SOL    HW119425   9.806   9.311   4.615 -3.7146  1.6075  0.6415
 5806SOL    HW219426   9.784   9.258   4.476  1.9610 -0.5785  0.3069
 5807SOL     OW19427   5.979   8.579  10.288 -0.8965 -0.3205 -0.4169
 5807SOL    HW119428   5.992   8.487  10.309  1.0165  0.3996  2.0168
 5807SOL    HW219429   5.931   8.578  10.205  0.3591 -3.4940 -1.2660
 5808SOL     OW19430  10.307   1.895   5.166  0.1113 -0.0715 -0.0718
 5808SOL    HW119431  10.346   1.982   5.164 -1.1709  0.5095 -0.9936
 5808SOL    HW219432  10.380   1.837   5.190  1.0317  1.2096  0.3272
 5809SOL     OW19433   7.766   6.474  10.210  0.6184 -0.0558  0.7052
 5809SOL    HW119434   7.748   6.549  10.153 -0.3934 -0.8389 -0.0448
 5809SOL    HW219435   7.861   6.468  10.212  0.6908  0.5865 -0.1150
 5810SOL     OW19436  10.051   2.449   8.511 -0.2354 -0.1642 -0.0720
 5810SOL    HW119437  10.141   2.467   8.538  0.2614 -0.9806 -1.1115
 5810SOL    HW219438  10.050   2.469   8.417 -0.9900 -0.6681 -0.1737
 5811SOL     OW19439   1.831   1.950  10.849  0.6351 -0.1657  0.3152
 5811SOL    HW119440   1.884   2.003  10.789 -0.6469 -0.0595 -0.7937
 5811SOL    HW219441   1.747   1.996  10.854  0.2510 -0.9131  1.1166
 5812SOL     OW19442  10.282   1.390   4.958  0.3265  0.2335  0.1375
 5812SOL    HW119443  10.269   1.469   4.905  0.4946  0.4322  0.3939
 5812SOL    HW219444  10.349   1.341   4.911  0.1250  0.1754 -0.0952
 5813SOL     OW19445   3.696   0.449   3.741  0.6087 -0.4971  0.7613
 5813SOL    HW119446   3.604   0.427   3.751  0.6131  0.1305  2.5761
 5813SOL    HW219447   3.723   0.404   3.661 -2.3120  2.6592 -2.3699
 5814SOL     OW19448   6.244   6.276   5.393  0.1644  0.4058 -0.3424
 5814SOL    HW119449   6.170   6.320   5.350  1.2124  0.7839 -1.8257
 5814SOL    HW219450   6.315   6.282   5.330  1.7096  0.7222  1.3550
 5815SOL     OW19451   5.967   6.539   4.377  0.2712 -0.3303 -0.4921
 5815SOL    HW119452   6.028   6.512   4.446  0.1502  0.2186 -0.1695
 5815SOL    HW219453   5.971   6.468   4.313  1.4418 -0.1826 -0.5971
 5816SOL     OW19454   3.857  10.702   1.756 -0.2988  0.3443 -0.4479
 5816SOL    HW119455   3.885  10.631   1.698  0.5383  0.1274  0.1969
 5816SOL    HW219456   3.926  10.768   1.747  1.3467 -0.8205  2.3035
 5817SOL     OW19457   3.970   4.927  10.683  0.6713  0.9205  0.3025
 5817SOL    HW119458   3.906   4.993  10.657  0.3931  0.4426 -0.2518
 5817SOL    HW219459   4.054   4.973  10.683  0.2973  1.6664  1.4425
 5818SOL     OW19460   3.756   6.037   8.320  0.4084 -1.2893  0.4590
 5818SOL    HW119461   3.836   5.987   8.333  0.9609 -0.7743 -0.7866
 5818SOL    HW219462   3.726   6.059   8.408  1.5791 -1.5833  0.9389
 5819SOL     OW19463   1.253   8.471   8.881 -0.0946 -0.0534 -0.3589
 5819SOL    HW119464   1.259   8.428   8.967  0.5681 -0.4143 -0.5760
 5819SOL    HW219465   1.160   8.487   8.869 -0.2927 -0.8507  0.0198
 5820SOL     OW19466   2.055   9.329   3.776  0.3394  0.4903 -0.2824
 5820SOL    HW119467   2.089   9.411   3.742  1.2103  0.7019  1.0222
 5820SOL    HW219468   2.020   9.351   3.863  0.7811 -0.5389  0.1720
 5821SOL     OW19469   0.996   5.197   0.772  0.6512 -0.0268  0.3100
 5821SOL    HW119470   1.059   5.268   0.784  0.7305 -0.3699  2.2177
 5821SOL    HW219471   0.922   5.238   0.728  1.7619  0.6097 -1.0524
 5822SOL     OW19472   0.171   2.615   4.663 -0.4429 -0.9229  0.6239
 5822SOL    HW119473   0.120   2.673   4.720  2.6231  1.6803  0.9754
 5822SOL    HW219474   0.236   2.576   4.721  1.3795  0.1124 -0.6160
 5823SOL     OW19475  10.293   2.063   8.767 -0.0982 -0.0544 -0.1916
 5823SOL    HW119476  10.201   2.043   8.750 -0.0924  1.2735 -2.2667
 5823SOL    HW219477  10.341   2.002   8.712  0.3999 -1.7216  1.9642
 5824SOL     OW19478   0.878   5.209   2.227  0.4237 -0.8578 -0.6428
 5824SOL    HW119479   0.851   5.118   2.210 -0.7633 -0.7269  0.3918
 5824SOL    HW219480   0.932   5.204   2.305  0.4249 -0.6830 -0.6321
 5825SOL     OW19481   9.385   4.166   7.441  0.3439  0.3157 -0.2453
 5825SOL    HW119482   9.301   4.135   7.476 -1.5584  3.0550 -2.0418
 5825SOL    HW219483   9.392   4.256   7.470  3.2987 -0.1278  0.7565
 5826SOL     OW19484   7.293   2.567   0.919 -0.3011  0.2320  0.6175
 5826SOL    HW119485   7.384   2.537   0.910 -0.6810 -0.4821 -1.4433
 5826SOL    HW219486   7.291   2.615   1.002  1.9538  0.2979  0.6819
 5827SOL     OW19487   4.227   1.778   2.527 -0.3424  0.3076  0.4156
 5827SOL    HW119488   4.212   1.748   2.617 -2.0221  2.1744  0.8295
 5827SOL    HW219489   4.194   1.706   2.473 -1.1012 -0.0591  1.3244
 5828SOL     OW19490   6.585   2.535   9.514  0.3201 -0.2895  0.1264
 5828SOL    HW119491   6.627   2.618   9.492  2.0343 -0.9178  0.7923
 5828SOL    HW219492   6.638   2.469   9.468 -0.5967 -1.0582  0.1544
 5829SOL     OW19493   3.060   3.114   4.839  0.6534 -0.6693  0.0115
 5829SOL    HW119494   3.119   3.106   4.763 -2.1446 -0.4386 -2.3889
 5829SOL    HW219495   3.043   3.024   4.865 -0.7078 -0.9695 -1.7157
 5830SOL     OW19496   5.831   6.686   5.616 -0.2116 -0.2291 -0.2271
 5830SOL    HW119497   5.738   6.688   5.636 -0.7722  0.2310 -2.5991
 5830SOL    HW219498   5.839   6.625   5.543  1.4010 -0.5421  0.1731
 5831SOL     OW19499   3.430   7.426   6.629 -0.6267  0.2750 -0.1811
 5831SOL    HW119500   3.496   7.490   6.605 -0.6637  1.3691  2.3153
 5831SOL    HW219501   3.473   7.341   6.616  0.3103  0.8781 -1.1274
 5832SOL     OW19502   4.685   8.520   2.261 -0.6390  0.0692 -0.2634
 5832SOL    HW119503   4.669   8.589   2.196 -0.2230 -0.6256 -1.1359
 5832SOL    HW219504   4.762   8.551   2.309 -0.4405  0.2154 -0.6637
 5833SOL     OW19505   2.663   5.818   5.840 -0.5761 -0.1922  0.0841
 5833SOL    HW119506   2.709   5.857   5.915  0.5430  0.2263 -0.8021
 5833SOL    HW219507   2.627   5.736   5.875  0.5383 -0.3648  0.9013
 5834SOL     OW19508   3.498   7.195   9.775  0.3149  0.2141  0.2103
 5834SOL    HW119509   3.468   7.174   9.686  0.5380 -0.3326  0.2588
 5834SOL    HW219510   3.421   7.232   9.818 -0.8181 -2.6039  0.8282
 5835SOL     OW19511   7.184   3.591   5.757 -0.0782 -0.5062 -0.7272
 5835SOL    HW119512   7.258   3.576   5.816 -0.6128  1.5742  0.5498
 5835SOL    HW219513   7.124   3.519   5.776 -0.2350  0.1074  1.3172
 5836SOL     OW19514   5.813  10.024   5.615 -1.0178 -0.2256 -0.7787
 5836SOL    HW119515   5.791  10.099   5.560  0.6160  0.7342 -0.2087
 5836SOL    HW219516   5.803  10.056   5.704  2.4902  0.3636 -0.4511
 5837SOL     OW19517   3.915   6.715   8.462  0.2902 -0.0844  0.0437
 5837SOL    HW119518   3.977   6.684   8.529  1.8682  1.8703 -0.4103
 5837SOL    HW219519   3.958   6.693   8.379  0.9365  2.1653 -0.2778
 5838SOL     OW19520   3.552  10.833   6.304 -0.1682  0.1363  0.8264
 5838SOL    HW119521   3.507  10.847   6.387 -0.4204  0.2285  0.6740
 5838SOL    HW219522   3.485  10.798   6.246 -0.1121  0.5548  0.5138
 5839SOL     OW19523   6.750   6.606   1.017  0.0597 -0.1528 -0.4271
 5839SOL    HW119524   6.821   6.669   1.028 -0.0386  0.1158 -1.2401
 5839SOL    HW219525   6.793   6.522   1.005  0.3575  0.2496 -2.6832
 5840SOL     OW19526   1.177   9.253   8.837  0.1122 -0.1231  0.6643
 5840SOL    HW119527   1.251   9.232   8.780  1.3739  2.3852  1.2548
 5840SOL    HW219528   1.191   9.344   8.862 -2.5206  0.0327  1.8469
 5841SOL     OW19529   1.571   1.455   2.827  0.6974 -0.2353 -0.2031
 5841SOL    HW119530   1.614   1.370   2.837 -0.8106 -0.9123  1.1256
 5841SOL    HW219531   1.482   1.433   2.800  0.3998  0.9374 -0.2159
 5842SOL     OW19532   8.032   7.093  11.171 -0.3078 -0.4064 -0.1639
 5842SOL    HW119533   7.984   7.141  11.238  1.6055 -0.0393  1.0311
 5842SOL    HW219534   8.098   7.155  11.140  1.6070 -1.8903  0.7346
 5843SOL     OW19535   2.123   9.200   6.716  0.4625 -0.0039  0.2405
 5843SOL    HW119536   2.064   9.247   6.774  1.5737 -0.1190  1.5101
 5843SOL    HW219537   2.111   9.108   6.737 -0.7880 -0.2369 -1.3538
 5844SOL     OW19538   7.163   4.676   7.515 -0.1312  0.6382  0.2411
 5844SOL    HW119539   7.188   4.619   7.588 -2.3194 -0.8490 -0.0980
 5844SOL    HW219540   7.108   4.743   7.555 -1.3019 -0.1567 -0.0047
 5845SOL     OW19541   7.063   8.966  10.554 -0.5169  0.1132 -0.5864
 5845SOL    HW119542   7.077   8.967  10.459  1.4813  1.5107 -0.3421
 5845SOL    HW219543   7.132   9.023  10.589  0.9983 -2.9927  1.9862
 5846SOL     OW19544   4.817  10.568   8.476 -0.1380 -0.1588  0.4212
 5846SOL    HW119545   4.859  10.654   8.474  1.6327 -0.9497 -3.0298
 5846SOL    HW219546   4.877  10.514   8.528 -0.0288  0.1265  0.5985
 5847SOL     OW19547   3.228   7.673   0.488 -0.3259  0.4568  0.5867
 5847SOL    HW119548   3.313   7.644   0.454 -0.3853  0.1977  0.6624
 5847SOL    HW219549   3.166   7.648   0.420 -0.3650  0.5034  0.6052
 5848SOL     OW19550  10.913   9.038   9.762  0.2504 -0.0030 -0.0409
 5848SOL    HW119551  10.900   9.132   9.773 -0.3231 -0.0289 -0.4501
 5848SOL    HW219552  10.828   9.005   9.732  0.4602 -0.6423  0.0470
 5849SOL     OW19553   9.436   2.378   8.836  0.2373 -0.3899  0.1765
 5849SOL    HW119554   9.491   2.362   8.912 -0.4465  0.7047  0.9310
 5849SOL    HW219555   9.415   2.471   8.841 -0.5545 -0.4977 -0.8542
 5850SOL     OW19556   4.375   5.474   6.655 -0.2722 -0.2982 -0.2043
 5850SOL    HW119557   4.389   5.467   6.749  1.2641 -0.8492 -0.4435
 5850SOL    HW219558   4.334   5.559   6.642  0.9716  0.4725  0.8129
 5851SOL     OW19559   5.830   8.778   4.134 -0.0540 -0.2256 -0.3292
 5851SOL    HW119560   5.795   8.802   4.048  1.5231  0.9423 -0.6936
 5851SOL    HW219561   5.758   8.794   4.195 -1.0624 -0.6734 -1.3641
 5852SOL     OW19562   0.287  10.107   2.697  0.1155 -0.9174  0.4830
 5852SOL    HW119563   0.250  10.112   2.609  0.5338  3.8311  0.3239
 5852SOL    HW219564   0.325  10.019   2.703 -1.5675 -2.0779 -3.3235
 5853SOL     OW19565   9.682   4.150   6.435  0.0830 -0.5602  0.3660
 5853SOL    HW119566   9.622   4.163   6.508 -2.3601  1.2912 -1.7773
 5853SOL    HW219567   9.680   4.233   6.387  2.8040 -1.1613 -0.9796
 5854SOL     OW19568   3.324   0.277   0.556 -0.3728  0.2987  0.2185
 5854SOL    HW119569   3.364   0.281   0.643 -0.6089  1.0243  0.2982
 5854SOL    HW219570   3.383   0.220   0.505  2.1407  3.1846 -0.3743
 5855SOL     OW19571   9.010   2.217  10.144  0.0396 -0.7730 -1.1649
 5855SOL    HW119572   9.082   2.254  10.092 -0.4701 -0.2532 -1.5165
 5855SOL    HW219573   8.931   2.259  10.109 -0.4574 -1.4581 -0.8948
 5856SOL     OW19574   7.617  10.308   8.645 -1.2834  0.0165 -0.1401
 5856SOL    HW119575   7.701  10.261   8.646 -1.6410 -0.6846 -1.2082
 5856SOL    HW219576   7.639  10.397   8.673  0.0785  0.2173 -1.6941
 5857SOL     OW19577  10.756   6.266  10.496  0.1309  0.2903 -0.1663
 5857SOL    HW119578  10.707   6.236  10.572  0.3047  0.8998  0.1879
 5857SOL    HW219579  10.797   6.348  10.523  0.9644  0.0395 -0.6009
 5858SOL     OW19580   9.756   0.095   0.744  0.1338  0.5656  0.6141
 5858SOL    HW119581   9.845   0.132   0.747  0.4715  0.2447 -2.4521
 5858SOL    HW219582   9.707   0.156   0.689 -0.7599 -0.7002 -0.0294
 5859SOL     OW19583   0.864   5.405   7.321 -0.5004  0.1295 -0.1484
 5859SOL    HW119584   0.777   5.370   7.302 -1.3040  2.1151 -0.3118
 5859SOL    HW219585   0.853   5.500   7.324  1.0773  0.3428  2.8284
 5860SOL     OW19586   5.317   7.055   0.312 -0.0796 -0.7104  0.3429
 5860SOL    HW119587   5.375   7.029   0.384  1.4860 -2.0348 -1.3081
 5860SOL    HW219588   5.347   7.141   0.286  2.6019 -2.1349 -1.7526
 5861SOL     OW19589   0.200   6.689  10.210  0.3441 -0.0444 -1.1982
 5861SOL    HW119590   0.143   6.744  10.156 -0.5560 -1.7177 -2.0424
 5861SOL    HW219591   0.141   6.650  10.275  1.0364  0.2525 -0.3777
 5862SOL     OW19592   0.911   3.663   4.455  0.6784 -0.2702  1.1293
 5862SOL    HW119593   0.852   3.612   4.400 -2.9858  1.2852  3.2048
 5862SOL    HW219594   0.918   3.748   4.411 -1.0169  0.4675  2.1957
 5863SOL     OW19595   5.834   5.134   6.227 -0.0041 -0.3303  0.3891
 5863SOL    HW119596   5.906   5.172   6.177 -1.2252  0.6308 -0.7135
 5863SOL    HW219597   5.792   5.209   6.269  0.2649 -1.0020  1.9299
 5864SOL     OW19598   1.139   5.839   0.212  0.0032  0.5648  0.2287
 5864SOL    HW119599   1.120   5.924   0.173 -2.2804  1.3451  2.6885
 5864SOL    HW219600   1.072   5.780   0.176  1.6894 -0.3340 -1.6112
 5865SOL     OW19601   9.215   0.008  10.740  0.1074  0.2473  0.1217
 5865SOL    HW119602   9.128   0.009  10.780 -0.2352 -1.6302 -0.4934
 5865SOL    HW219603   9.219   0.089  10.688 -1.7875 -0.2592 -0.8806
 5866SOL     OW19604   7.340   7.933   4.411  0.5526  0.3457 -0.1843
 5866SOL    HW119605   7.417   7.898   4.365  0.3117  0.0683 -0.3832
 5866SOL    HW219606   7.369   7.943   4.502  0.2829 -1.5622  0.1603
 5867SOL     OW19607   0.249   5.635   9.626 -0.1733 -0.9167 -0.2479
 5867SOL    HW119608   0.223   5.722   9.657 -1.6779 -1.3217 -0.2659
 5867SOL    HW219609   0.310   5.652   9.554  1.1055  0.0668  1.0162
 5868SOL     OW19610   1.795   6.739   7.629 -0.7957  0.0097 -0.0955
 5868SOL    HW119611   1.728   6.799   7.598 -0.3323  0.4376 -0.2842
 5868SOL    HW219612   1.824   6.693   7.549 -1.8827 -1.2420  0.1858
 5869SOL     OW19613   5.603   9.814   8.988  0.3895  0.4662 -0.5341
 5869SOL    HW119614   5.650   9.740   9.028 -1.7070  0.2239  1.7057
 5869SOL    HW219615   5.635   9.816   8.898 -0.7266 -4.3758 -1.3338
 5870SOL     OW19616   2.072   9.555   7.539  0.3500  0.3455  0.3246
 5870SOL    HW119617   2.045   9.578   7.628 -2.2911  3.2807 -1.0327
 5870SOL    HW219618   2.060   9.461   7.534  1.0810  0.0081  3.1897
 5871SOL     OW19619   9.844   4.863   4.248 -0.7948  1.0077  0.3377
 5871SOL    HW119620   9.878   4.788   4.297 -1.5632  1.4957  1.6729
 5871SOL    HW219621   9.863   4.939   4.304  1.1160  2.0201 -1.5341
 5872SOL     OW19622  10.587   8.216   8.827 -0.0241  0.2534  0.4883
 5872SOL    HW119623  10.634   8.143   8.785 -0.5597 -1.5703  2.8370
 5872SOL    HW219624  10.496   8.186   8.831 -0.3092  1.1790  1.2509
 5873SOL     OW19625   3.882   6.109   8.656 -0.1247  0.4813  0.1947
 5873SOL    HW119626   3.928   6.157   8.725  0.5167  0.3412 -0.1289
 5873SOL    HW219627   3.905   6.018   8.671 -0.1964  0.4238 -0.0444
 5874SOL     OW19628   8.207   0.993  10.486  0.1449  0.2511  1.2292
 5874SOL    HW119629   8.279   0.996  10.423  0.2033  0.5992  1.3101
 5874SOL    HW219630   8.133   1.030  10.439  0.7693  2.8235  2.1079
 5875SOL     OW19631   2.026   9.372   4.550 -0.3218 -0.0830  0.4687
 5875SOL    HW119632   2.077   9.443   4.588 -0.9628  0.0719  1.0563
 5875SOL    HW219633   1.990   9.409   4.469  2.4523 -0.9471 -1.2778
 5876SOL     OW19634   3.291   2.958   2.602  0.2571  0.6969  0.1399
 5876SOL    HW119635   3.288   3.054   2.600 -0.6791  0.6616 -1.2395
 5876SOL    HW219636   3.276   2.932   2.511 -1.8699 -0.8149  0.8627
 5877SOL     OW19637   0.981   3.204   3.496 -0.2343  0.0284  0.2319
 5877SOL    HW119638   0.952   3.129   3.444  1.1939 -0.8133  0.6018
 5877SOL    HW219639   1.071   3.184   3.519  0.4411  2.1948 -0.2451
 5878SOL     OW19640   8.238   8.636   7.387  0.2566  0.1918 -0.8006
 5878SOL    HW119641   8.192   8.582   7.452  1.4239  0.4288  0.2625
 5878SOL    HW219642   8.205   8.725   7.403  0.6922  0.2821 -0.3804
 5879SOL     OW19643   5.695   6.178   8.663  0.1366  0.0422  0.5462
 5879SOL    HW119644   5.758   6.201   8.596 -0.2142 -1.2561 -0.2567
 5879SOL    HW219645   5.636   6.254   8.667  0.1209  0.1150 -0.6713
 5880SOL     OW19646   5.952   9.002   7.287 -0.4367  0.2781  0.3713
 5880SOL    HW119647   5.995   9.080   7.322 -0.1428  1.0809 -1.6645
 5880SOL    HW219648   6.020   8.935   7.289 -1.0257 -0.3896  3.2947
 5881SOL     OW19649  10.477   3.021   5.388  0.0471 -0.0069 -0.3949
 5881SOL    HW119650  10.421   3.082   5.437  0.7303 -0.0798  0.4927
 5881SOL    HW219651  10.431   3.009   5.305 -1.2487 -0.0433  0.3010
 5882SOL     OW19652   7.551   5.836   9.578 -0.4255  0.3708 -0.0383
 5882SOL    HW119653   7.636   5.861   9.541 -1.3924 -0.2095 -2.9025
 5882SOL    HW219654   7.566   5.833   9.672  2.4303  1.3534 -0.3638
 5883SOL     OW19655   2.670   4.305   9.984  0.0346  0.4478  0.4479
 5883SOL    HW119656   2.663   4.277   9.893  2.9075  3.7631 -1.0229
 5883SOL    HW219657   2.588   4.350  10.003 -0.9221 -0.9887 -0.1576
 5884SOL     OW19658   5.235  10.200   1.799  0.1287  0.1268  0.2087
 5884SOL    HW119659   5.321  10.166   1.772  1.1950 -0.3341  3.6705
 5884SOL    HW219660   5.172  10.154   1.744  2.0155 -0.5758 -1.4696
 5885SOL     OW19661   8.089   7.221  10.755 -0.8905 -0.3466 -0.4408
 5885SOL    HW119662   8.138   7.303  10.765 -1.1951 -0.0421 -1.3303
 5885SOL    HW219663   8.153   7.160  10.718 -0.5398 -0.6635  0.6300
 5886SOL     OW19664   2.910   4.475   5.999 -0.3056 -0.2779  0.3047
 5886SOL    HW119665   2.853   4.436   6.066 -0.8734 -1.1723 -0.6710
 5886SOL    HW219666   2.949   4.400   5.954 -1.1702  0.2638 -1.4079
 5887SOL     OW19667   3.896  10.452   3.362  0.5047 -0.1242  0.6974
 5887SOL    HW119668   3.838  10.517   3.401 -0.8488 -0.6677 -0.3215
 5887SOL    HW219669   3.919  10.488   3.277  0.5576 -0.5273  0.5361
 5888SOL     OW19670   0.295   4.130   3.366 -0.3414 -0.0141  0.0051
 5888SOL    HW119671   0.348   4.073   3.309  0.1015  1.0398 -0.6637
 5888SOL    HW219672   0.207   4.093   3.360 -0.2428 -0.1184 -1.1407
 5889SOL     OW19673   9.724   8.953   2.590 -0.1154  0.0562  0.2867
 5889SOL    HW119674   9.629   8.955   2.585 -0.1608 -1.4397  0.2967
 5889SOL    HW219675   9.743   8.949   2.684 -0.0642 -0.3556  0.2595
 5890SOL     OW19676   3.497  10.030  10.785 -0.5359 -0.4411 -0.1592
 5890SOL    HW119677   3.467  10.100  10.843 -0.5824  0.2483 -0.9899
 5890SOL    HW219678   3.592  10.028  10.798 -0.4320  0.3490 -0.7379
 5891SOL     OW19679   5.274   8.822  11.031  1.0195 -0.0737 -0.0789
 5891SOL    HW119680   5.349   8.768  11.057  0.1313 -1.3327 -0.0257
 5891SOL    HW219681   5.227   8.768  10.968  0.5248  0.9894 -0.6497
 5892SOL     OW19682  10.028  10.710   7.555 -0.6178 -0.3198 -0.5323
 5892SOL    HW119683   9.954  10.763   7.524 -1.0652 -0.7854 -0.2759
 5892SOL    HW219684  10.047  10.651   7.482 -1.0774 -0.7985 -0.2686
 5893SOL     OW19685   2.268  10.759   7.365  0.5378  0.2882 -0.0843
 5893SOL    HW119686   2.195  10.754   7.303  2.4263  0.4480 -2.4709
 5893SOL    HW219687   2.341  10.794   7.314  1.8591  1.8841  2.6495
 5894SOL     OW19688  10.456   1.707   8.338 -0.7078 -0.5754 -0.0871
 5894SOL    HW119689  10.488   1.640   8.278 -0.4704 -0.9763  0.4721
 5894SOL    HW219690  10.496   1.684   8.422 -0.6686  0.2361  0.1245
 5895SOL     OW19691   8.570   9.850   2.622  0.6975 -0.2315  0.0314
 5895SOL    HW119692   8.586   9.842   2.528 -0.7630  0.3753 -0.3089
 5895SOL    HW219693   8.620   9.927   2.648 -0.0162  0.4704 -0.5842
 5896SOL     OW19694   0.850   9.204   2.719  0.2270  0.8165  0.3466
 5896SOL    HW119695   0.929   9.160   2.687  0.0936  0.1990  0.8217
 5896SOL    HW219696   0.835   9.164   2.805 -0.9045  0.5390  0.0297
 5897SOL     OW19697   2.614   8.144   2.609 -0.1767 -0.4265  0.6490
 5897SOL    HW119698   2.617   8.054   2.575  1.2973 -0.5023  0.9149
 5897SOL    HW219699   2.593   8.133   2.702  0.7350 -0.5785  0.8549
 5898SOL     OW19700   8.570   6.833   1.574  0.0452  0.1987  0.0626
 5898SOL    HW119701   8.483   6.802   1.600  0.0035  0.6136  0.4217
 5898SOL    HW219702   8.553   6.886   1.495 -0.1159  0.8167  0.5028
 5899SOL     OW19703   1.445   4.541   1.927  0.1596  0.3893  0.6658
 5899SOL    HW119704   1.540   4.547   1.935  0.6283 -2.5907 -0.9778
 5899SOL    HW219705   1.429   4.540   1.833 -1.8287  3.0938  0.8489
 5900SOL     OW19706   1.790   9.308   2.064  0.1675  0.1142  0.7551
 5900SOL    HW119707   1.735   9.263   2.127  0.6704  0.3468  1.3738
 5900SOL    HW219708   1.756   9.282   1.978  0.4815 -1.4842  1.0866
 5901SOL     OW19709   7.760   1.876   5.955 -0.2337 -0.4797  0.4683
 5901SOL    HW119710   7.672   1.880   5.918 -0.3994  1.3196  0.9655
 5901SOL    HW219711   7.818   1.890   5.880 -0.4936  1.1429  0.5484
 5902SOL     OW19712   3.525  11.130   0.241 -0.2334  0.0831 -0.3363
 5902SOL    HW119713   3.464  11.136   0.168 -1.2226  0.7457  0.5033
 5902SOL    HW219714   3.468  11.124   0.318  0.7582  0.8532  0.4836
 5903SOL     OW19715   8.332   9.130   5.081 -0.1203 -0.3415 -0.5026
 5903SOL    HW119716   8.251   9.104   5.038 -0.9812  0.0964  0.7908
 5903SOL    HW219717   8.337   9.225   5.067  1.8246 -0.7394 -3.2493
 5904SOL     OW19718  10.751   0.164   4.711 -0.2862 -0.0284 -0.3985
 5904SOL    HW119719  10.738   0.257   4.731 -1.2083 -0.4413  1.0600
 5904SOL    HW219720  10.691   0.146   4.639  0.5938  0.6974 -1.3507
 5905SOL     OW19721   1.567   5.986   5.170  0.1633  0.5168  0.3817
 5905SOL    HW119722   1.573   5.936   5.251 -0.6624  0.1144  0.2005
 5905SOL    HW219723   1.574   6.077   5.199  1.8032  0.3111  0.6957
 5906SOL     OW19724  11.068   5.718   9.646  0.0783 -0.3030  0.5267
 5906SOL    HW119725  11.148   5.738   9.597  0.9153  0.3857  2.0904
 5906SOL    HW219726  11.022   5.653   9.593  0.1497  1.5058 -1.9213
 5907SOL     OW19727   1.221   0.619   8.472 -0.0743  0.4962 -0.5927
 5907SOL    HW119728   1.189   0.578   8.392  0.4811  1.0680 -1.1221
 5907SOL    HW219729   1.295   0.565   8.499 -1.8022 -1.2172  0.9986
 5908SOL     OW19730   2.258   9.624   2.591  0.5036 -0.1634 -0.7059
 5908SOL    HW119731   2.320   9.672   2.536  1.4730 -1.3012 -0.6359
 5908SOL    HW219732   2.250   9.538   2.550 -1.5196  0.1453 -1.0477
 5909SOL     OW19733   0.414   9.314   0.821  0.0673  0.2530  0.0760
 5909SOL    HW119734   0.333   9.328   0.871  1.6209  2.1897  2.2965
 5909SOL    HW219735   0.401   9.364   0.741 -0.8158  0.8373  0.5527
 5910SOL     OW19736   2.756   9.861  10.135  0.5664  0.1399  0.3519
 5910SOL    HW119737   2.706   9.936  10.167  0.6078  0.7198 -0.8957
 5910SOL    HW219738   2.841   9.868  10.180  0.8661  1.3186 -0.3533
 5911SOL     OW19739  10.966   8.814   7.978 -0.1149  0.0182  0.3327
 5911SOL    HW119740  10.929   8.800   7.891  0.3489  0.6142  0.0318
 5911SOL    HW219741  10.893   8.798   8.038 -1.5149  3.1283 -0.3069
 5912SOL     OW19742  10.646  11.230   2.305 -0.4783 -0.0546  0.2620
 5912SOL    HW119743  10.640  11.306   2.247  1.9299 -2.2961 -3.2937
 5912SOL    HW219744  10.560  11.188   2.297 -0.2181 -0.3046 -1.8419
 5913SOL     OW19745   6.170   0.750   3.164 -0.2009  0.5878  0.5989
 5913SOL    HW119746   6.195   0.660   3.144 -0.0784  0.1081  2.6827
 5913SOL    HW219747   6.181   0.758   3.259  1.4988  3.3177  0.3072
 5914SOL     OW19748   8.354   9.607   2.089  0.0059 -1.0513 -0.1867
 5914SOL    HW119749   8.352   9.513   2.070 -2.0782 -1.5919  2.2399
 5914SOL    HW219750   8.287   9.643   2.030  0.0185 -1.2574 -0.3337
 5915SOL     OW19751  10.593   7.718   9.336 -1.2069 -0.4866  0.0030
 5915SOL    HW119752  10.553   7.704   9.251  1.6800  0.2575 -1.6171
 5915SOL    HW219753  10.630   7.633   9.361  0.4660 -0.1006 -0.9825
 5916SOL     OW19754   3.681   3.496   1.643  0.0362  0.2239 -0.1041
 5916SOL    HW119755   3.635   3.566   1.689  0.3263  0.7945 -0.6782
 5916SOL    HW219756   3.614   3.429   1.628  0.2423 -0.6726  2.4778
 5917SOL     OW19757  11.061   1.207   1.834 -0.7158  0.2116 -0.4236
 5917SOL    HW119758  11.009   1.280   1.800 -0.8331 -0.4117 -1.6472
 5917SOL    HW219759  11.012   1.177   1.911 -0.5166  1.5696  0.2769
 5918SOL     OW19760   9.830   7.099   9.929 -0.7137 -0.2512  0.3594
 5918SOL    HW119761   9.802   7.072   9.842 -0.7474 -1.6513  0.7754
 5918SOL    HW219762   9.879   7.024   9.963  1.0546  1.0506  0.7700
 5919SOL     OW19763   9.082   0.161   1.686  0.1230 -0.1242 -0.0256
 5919SOL    HW119764   9.127   0.244   1.676  2.3773 -1.1910  0.4455
 5919SOL    HW219765   9.079   0.147   1.781 -0.6552 -0.3774 -0.0813
 5920SOL     OW19766   1.227  10.635   5.021  0.0394 -0.6550  0.0086
 5920SOL    HW119767   1.212  10.600   5.109 -1.6707 -1.5698 -0.5790
 5920SOL    HW219768   1.167  10.584   4.966 -1.7902  2.4449 -1.0909
 5921SOL     OW19769   3.317   4.472   3.624  0.2626  0.3003  0.7988
 5921SOL    HW119770   3.251   4.535   3.653 -1.4176 -0.5825 -0.8619
 5921SOL    HW219771   3.307   4.469   3.529 -0.2129 -2.9286  0.8302
 5922SOL     OW19772   2.940   9.929   9.412 -0.8744 -0.1191  0.0282
 5922SOL    HW119773   2.940   9.991   9.485 -1.0604 -0.2325  0.1265
 5922SOL    HW219774   2.895   9.852   9.446 -2.2950  0.3716 -0.6501
 5923SOL     OW19775   5.713   0.834   0.859 -0.2315 -0.2205 -0.0124
 5923SOL    HW119776   5.773   0.901   0.825 -2.4325  0.8868 -2.0248
 5923SOL    HW219777   5.747   0.752   0.825  1.1267  0.1534  0.3970
 5924SOL     OW19778   8.334   5.486   9.306  0.8497  0.2049  0.1219
 5924SOL    HW119779   8.405   5.549   9.293  1.0758  0.1489  0.9974
 5924SOL    HW219780   8.378   5.401   9.304  0.4715  0.0083 -1.5989
 5925SOL     OW19781   5.028   8.714   0.730  0.4783 -0.6105  0.1320
 5925SOL    HW119782   4.977   8.651   0.679  1.3507 -2.3557  1.2820
 5925SOL    HW219783   5.088   8.659   0.781  0.3167  1.0888  2.2824
 5926SOL     OW19784   1.947   9.484   5.033  0.1398 -0.1187  0.6985
 5926SOL    HW119785   1.921   9.561   4.982 -0.4556 -0.6998  0.1126
 5926SOL    HW219786   1.990   9.427   4.970  2.0441  0.4106  1.4606
 5927SOL     OW19787   2.658   0.051  10.900  0.4743  0.2175 -0.1533
 5927SOL    HW119788   2.739   0.100  10.918  1.7170  0.8608 -5.6129
 5927SOL    HW219789   2.688  -0.030  10.858 -1.7259 -0.9980  0.4914
 5928SOL     OW19790  11.002   6.213   7.700  0.1823  0.2295 -0.7485
 5928SOL    HW119791  10.943   6.174   7.635 -0.5267  0.3790 -0.2095
 5928SOL    HW219792  10.969   6.302   7.712  0.7222  0.4222 -0.6843
 5929SOL     OW19793   2.999   4.329   3.138  0.0409  0.4059  0.7064
 5929SOL    HW119794   3.015   4.407   3.084  1.6250  0.4093  1.1243
 5929SOL    HW219795   2.953   4.269   3.081 -1.8190  1.8745  0.5640
 5930SOL     OW19796   7.095   9.161   3.848 -0.2918 -0.5156  0.6497
 5930SOL    HW119797   7.181   9.160   3.890 -0.7613 -0.1230  1.6484
 5930SOL    HW219798   7.108   9.112   3.767  0.7321 -0.9587  1.0590
 5931SOL     OW19799   9.966   6.110  10.711 -0.1007 -0.0990 -0.1064
 5931SOL    HW119800   9.871   6.107  10.702 -0.1510 -2.5789  0.5402
 5931SOL    HW219801   9.982   6.092  10.803  1.0162  1.7595  0.1237
 5932SOL     OW19802  10.316   4.009   5.692 -0.3696  0.2288 -0.1865
 5932SOL    HW119803  10.340   4.007   5.785  1.0876  1.1047 -0.5029
 5932SOL    HW219804  10.382   3.955   5.649 -0.8802  0.0416 -0.7464
 5933SOL     OW19805   0.651   4.955  11.031 -0.1529  0.0263  0.3630
 5933SOL    HW119806   0.703   5.035  11.033  2.0291 -1.2221 -1.5520
 5933SOL    HW219807   0.690   4.898  11.097 -0.4346 -0.1408  0.3871
 5934SOL     OW19808   4.228   3.147  10.510 -0.8884  0.1275 -0.8760
 5934SOL    HW119809   4.271   3.182  10.433  0.2433 -0.6251 -0.6153
 5934SOL    HW219810   4.299   3.115  10.565 -1.6202  1.1956  0.7776
 5935SOL     OW19811   3.461   4.895   5.559 -0.1581  0.5700 -0.0140
 5935SOL    HW119812   3.471   4.881   5.465 -4.1360 -1.6671 -0.3148
 5935SOL    HW219813   3.426   4.984   5.566  2.7492  1.8293 -0.2759
 5936SOL     OW19814   3.426  10.132   5.647 -0.2432  0.5526 -0.1146
 5936SOL    HW119815   3.412  10.213   5.696  3.6462  0.8420  0.7877
 5936SOL    HW219816   3.500  10.151   5.590  0.7786 -2.3238  0.1098
 5937SOL     OW19817   1.837   9.000   3.089 -0.3717 -0.2970  0.3666
 5937SOL    HW119818   1.788   8.951   3.023 -1.3614  1.3463 -0.1966
 5937SOL    HW219819   1.926   9.007   3.053 -0.1312 -1.8387  0.5912
 5938SOL     OW19820   6.710   7.441   8.651 -0.1328 -0.9985 -0.3605
 5938SOL    HW119821   6.722   7.419   8.744 -0.0753 -1.1914 -0.4116
 5938SOL    HW219822   6.646   7.377   8.620 -2.9577  1.2563  0.3939
 5939SOL     OW19823   8.522   3.212   6.282  0.7172  0.1109 -0.2699
 5939SOL    HW119824   8.578   3.289   6.277  2.9579 -1.3518  0.8595
 5939SOL    HW219825   8.566   3.154   6.344 -1.4299 -1.6685 -0.2854
 5940SOL     OW19826   0.197   3.129   5.423  0.4472 -0.2077  0.0586
 5940SOL    HW119827   0.277   3.100   5.379  0.2486  0.2395 -0.6189
 5940SOL    HW219828   0.130   3.126   5.354  0.0091 -0.0327  0.4751
 5941SOL     OW19829   0.390   4.077   0.888  0.5660  0.2987 -0.1080
 5941SOL    HW119830   0.360   3.987   0.874  2.3144 -0.6173  1.5374
 5941SOL    HW219831   0.324   4.116   0.945  0.4818 -0.3779  0.2619
 5942SOL     OW19832   9.212   5.626   1.317  0.5833 -0.5132  0.3210
 5942SOL    HW119833   9.268   5.701   1.335  1.0729 -0.5745 -0.8146
 5942SOL    HW219834   9.191   5.590   1.403  4.6770 -2.2135  0.8963
 5943SOL     OW19835   3.081  10.930   7.576 -0.3750  0.5226 -0.5001
 5943SOL    HW119836   3.169  10.941   7.541 -0.6548  1.9916 -0.8029
 5943SOL    HW219837   3.048  10.852   7.532  0.7389 -0.0053 -0.4338
 5944SOL     OW19838   3.890   1.990   6.944  0.1856 -0.9148 -0.3380
 5944SOL    HW119839   3.876   1.972   6.851 -0.5719  0.1641 -0.4496
 5944SOL    HW219840   3.951   2.065   6.945 -0.5112 -0.3392  0.0000
 5945SOL     OW19841   9.063   5.180   3.386 -0.8020  0.5487 -0.3243
 5945SOL    HW119842   9.066   5.138   3.472 -1.8664  0.9711 -0.0623
 5945SOL    HW219843   9.051   5.107   3.325  0.0095  0.2432 -0.1317
 5946SOL     OW19844   8.441   0.045   0.908 -0.2487 -0.3287  0.2030
 5946SOL    HW119845   8.383   0.051   0.984 -0.6473 -0.0359 -0.1206
 5946SOL    HW219846   8.520   0.091   0.936 -1.0036  1.2391 -0.1161
 5947SOL     OW19847   6.197   0.363   1.756 -0.5734 -0.3500 -0.1566
 5947SOL    HW119848   6.291   0.379   1.749 -0.5085 -0.3188  0.7550
 5947SOL    HW219849   6.189   0.269   1.766 -0.6536 -0.3720 -0.4196
 5948SOL     OW19850   6.728   2.231   1.998 -0.1126  0.0002 -0.0929
 5948SOL    HW119851   6.702   2.139   1.996  0.4079 -0.1571 -1.6280
 5948SOL    HW219852   6.775   2.241   2.081 -0.5849 -0.9920  0.3106
 5949SOL     OW19853   4.340   9.981   2.665  0.1771  0.2927 -0.0694
 5949SOL    HW119854   4.357  10.022   2.749 -4.2409  1.8927  0.3289
 5949SOL    HW219855   4.352  10.051   2.601 -0.2671  0.1921 -0.2702
 5950SOL     OW19856   8.538  10.863   7.472  0.8078  0.5234  0.4061
 5950SOL    HW119857   8.631  10.881   7.485  1.2149  1.2293 -2.7713
 5950SOL    HW219858   8.494  10.948   7.481  0.9504  0.8049 -1.2193
 5951SOL     OW19859   1.785   7.699   1.035 -0.0289  0.5957  0.2120
 5951SOL    HW119860   1.865   7.671   0.990  0.7111  2.4183  0.2925
 5951SOL    HW219861   1.722   7.717   0.965  0.6570  2.0639 -0.0658
 5952SOL     OW19862   2.501   6.234  10.934  0.9750  0.1759 -0.2499
 5952SOL    HW119863   2.424   6.289  10.924  0.1093 -1.1614 -1.1519
 5952SOL    HW219864   2.538   6.227  10.846  0.1822 -1.8941 -0.4754
 5953SOL     OW19865   9.824   9.959   4.489  0.0241  0.0500  0.0803
 5953SOL    HW119866   9.885  10.002   4.548  0.7181 -0.9250  0.0976
 5953SOL    HW219867   9.871   9.951   4.406  0.5208 -2.0457  0.5122
 5954SOL     OW19868   5.287   2.087   1.385  0.7603  0.1289 -1.0594
 5954SOL    HW119869   5.279   2.027   1.311 -1.4569 -1.3832  0.2760
 5954SOL    HW219870   5.325   2.034   1.455 -0.1590  0.5701 -0.1955
 5955SOL     OW19871   2.781   1.206   6.971 -0.2961  0.0184 -0.2793
 5955SOL    HW119872   2.763   1.119   7.006 -2.6435  0.9529  1.1382
 5955SOL    HW219873   2.786   1.262   7.048  1.2702  1.1586 -1.1596
 5956SOL     OW19874  11.043   1.588   0.533 -0.2693  0.1518 -0.2922
 5956SOL    HW119875  11.125   1.634   0.514 -1.0635  1.6985 -0.1979
 5956SOL    HW219876  11.043   1.579   0.628  1.6127 -3.5467 -0.4519
 5957SOL     OW19877   1.934   1.168   7.275  0.5266 -0.5339  0.0632
 5957SOL    HW119878   1.927   1.138   7.366 -1.4689 -3.1930 -0.8325
 5957SOL    HW219879   2.028   1.185   7.263  0.7973  0.3301  2.6874
 5958SOL     OW19880   2.352   9.576   0.259 -0.4002  0.1389 -0.7092
 5958SOL    HW119881   2.331   9.486   0.284 -1.1580  0.2455 -0.9396
 5958SOL    HW219882   2.302   9.630   0.320 -0.7028  0.4031 -1.1846
 5959SOL     OW19883  10.142   8.730   0.035  0.3442  0.1693 -0.4682
 5959SOL    HW119884  10.059   8.687   0.015  1.8257 -2.7012 -1.0728
 5959SOL    HW219885  10.184   8.673   0.099  1.1617  2.5002  1.2100
 5960SOL     OW19886   6.385   5.173   6.140 -0.3553  1.0301  0.5756
 5960SOL    HW119887   6.471   5.140   6.114 -1.2385 -1.8016  0.9749
 5960SOL    HW219888   6.401   5.218   6.223  0.6609  0.0447  0.9398
 5961SOL     OW19889   9.509   1.893   3.834  0.2785  0.2598  0.5348
 5961SOL    HW119890   9.524   1.840   3.755  1.4511 -1.5214  1.8557
 5961SOL    HW219891   9.418   1.875   3.858  0.8684 -1.9322  1.4086
 5962SOL     OW19892   4.126   9.461   7.353 -0.5451 -0.2340 -0.1347
 5962SOL    HW119893   4.162   9.454   7.441 -1.4504  1.3735  0.4129
 5962SOL    HW219894   4.070   9.384   7.343 -2.1889  0.6520  1.5968
 5963SOL     OW19895   8.037   0.460   0.017 -0.0880 -0.8328 -0.1576
 5963SOL    HW119896   8.007   0.545  -0.016  0.4819 -0.6025 -0.0951
 5963SOL    HW219897   8.126   0.451  -0.018  0.2324 -0.9447  0.6719
 5964SOL     OW19898   5.787   2.539   5.913 -0.3264 -0.0957 -0.3965
 5964SOL    HW119899   5.737   2.547   5.995  2.8383 -1.8910  1.9178
 5964SOL    HW219900   5.819   2.450   5.913  0.3048  0.0197 -3.4102
 5965SOL     OW19901   6.142   2.353  11.135 -0.2637 -0.2643 -0.7246
 5965SOL    HW119902   6.172   2.409  11.207 -0.5415 -2.3901  1.1888
 5965SOL    HW219903   6.197   2.275  11.141 -2.1656 -1.7064 -0.9610
 5966SOL     OW19904   3.509   4.243   0.891 -0.0566  0.5667 -0.5480
 5966SOL    HW119905   3.441   4.254   0.958  1.4086  1.4847  0.8878
 5966SOL    HW219906   3.531   4.333   0.864 -0.6556  0.2106 -2.3492
 5967SOL     OW19907   4.514   9.749   4.676  0.0850  0.0569  0.1362
 5967SOL    HW119908   4.593   9.782   4.718  1.4288 -0.0209 -2.2157
 5967SOL    HW219909   4.539   9.731   4.586 -2.0284 -2.1975 -0.1162
 5968SOL     OW19910   1.184   0.273   3.940 -0.1368 -0.1382 -0.5750
 5968SOL    HW119911   1.219   0.186   3.960  1.3337  0.5189 -0.0870
 5968SOL    HW219912   1.186   0.278   3.844  2.6318  0.3657 -0.5907
 5969SOL     OW19913   3.175   4.254   7.463  0.2578  0.5802  0.1328
 5969SOL    HW119914   3.134   4.337   7.489 -1.5678 -0.7141  1.6449
 5969SOL    HW219915   3.168   4.253   7.367 -1.7680  1.2006  0.2269
 5970SOL     OW19916  11.160   7.773   5.935  0.6972 -0.0706  0.1187
 5970SOL    HW119917  11.131   7.762   6.025  1.7721  1.1388  0.6494
 5970SOL    HW219918  11.217   7.698   5.919  0.3036 -0.4247  0.3472
 5971SOL     OW19919   9.137   4.857   9.909  0.3721 -0.6294  0.2581
 5971SOL    HW119920   9.175   4.945   9.898  0.0727 -0.2613  1.9157
 5971SOL    HW219921   9.161   4.832   9.998 -0.0129 -2.0177 -0.0120
 5972SOL     OW19922   3.526   6.547  10.469 -0.0115 -0.1128 -0.3703
 5972SOL    HW119923   3.595   6.480  10.472  0.2978  0.1466 -1.2819
 5972SOL    HW219924   3.574   6.629  10.466 -0.3828  0.2604  1.8575
 5973SOL     OW19925   3.260   8.622   5.861 -0.2085 -0.2906  0.4150
 5973SOL    HW119926   3.230   8.626   5.952  1.0349 -1.7564  0.9440
 5973SOL    HW219927   3.285   8.530   5.849 -0.9339 -0.2570 -1.6229
 5974SOL     OW19928   5.050   8.750   8.032  0.4812  0.2046 -0.1694
 5974SOL    HW119929   4.956   8.767   8.036  0.9068  2.6714  0.9625
 5974SOL    HW219930   5.077   8.785   7.947  0.3336 -0.9916 -0.7311
 5975SOL     OW19931   8.379   9.646   8.307  0.3534 -0.1194  0.5648
 5975SOL    HW119932   8.457   9.591   8.314 -0.0521 -0.9590 -1.1230
 5975SOL    HW219933   8.312   9.600   8.358  0.5102 -0.2640  0.6389
 5976SOL     OW19934   8.996   3.407   9.756  0.1960 -0.1629 -0.1498
 5976SOL    HW119935   9.052   3.421   9.833  1.9974  0.1997 -1.4554
 5976SOL    HW219936   9.027   3.324   9.719  0.0166  0.1359 -0.9978
 5977SOL     OW19937   7.588   4.447  10.692 -0.2317 -0.0104  0.1398
 5977SOL    HW119938   7.645   4.416  10.762 -1.9601 -0.0161  1.6084
 5977SOL    HW219939   7.536   4.371  10.667  1.8383 -0.6259 -2.7874
 5978SOL     OW19940   0.494  10.237   1.489 -0.0636 -0.0741 -0.7036
 5978SOL    HW119941   0.467  10.204   1.403  0.9888  0.6168 -1.3112
 5978SOL    HW219942   0.573  10.188   1.510 -0.5462 -0.5474  0.0926
 5979SOL     OW19943   0.829   0.371   4.181  0.5259 -0.0179 -0.2839
 5979SOL    HW119944   0.810   0.402   4.269 -0.2651 -2.9347  0.6901
 5979SOL    HW219945   0.777   0.428   4.124  0.4468  1.4298  1.1512
 5980SOL     OW19946   5.864   6.960   0.423  0.0995 -0.5863  0.2645
 5980SOL    HW119947   5.891   7.052   0.417 -0.5586 -0.3995  0.1514
 5980SOL    HW219948   5.904   6.919   0.346  0.5840 -0.4472  0.4388
 5981SOL     OW19949   5.835   0.123   2.080  0.5596 -0.2673 -0.4198
 5981SOL    HW119950   5.888   0.059   2.033  1.3194 -0.5051  0.7364
 5981SOL    HW219951   5.746   0.106   2.051  0.8942 -1.0582 -1.0206
 5982SOL     OW19952   6.356   1.812   5.968  0.0449 -0.0519  0.1924
 5982SOL    HW119953   6.423   1.750   5.939  0.6655  0.5173  0.3803
 5982SOL    HW219954   6.364   1.885   5.907  1.0236  0.9419  1.4380
 5983SOL     OW19955   9.750   6.541   0.769  0.5569  0.1680 -0.1903
 5983SOL    HW119956   9.802   6.621   0.782 -0.3700  0.7152  0.2388
 5983SOL    HW219957   9.664   6.562   0.805 -0.7422  0.0997 -2.9960
 5984SOL     OW19958   9.908  10.752   1.469  0.2748 -0.7512 -0.4069
 5984SOL    HW119959   9.948  10.734   1.383  0.2403  1.5219 -0.9588
 5984SOL    HW219960   9.980  10.787   1.522 -0.0577 -0.6627 -0.0124
 5985SOL     OW19961   6.087   9.553  10.385 -0.6579  0.2101  0.5050
 5985SOL    HW119962   6.103   9.587  10.473 -2.7970 -0.0187  1.0370
 5985SOL    HW219963   6.164   9.580  10.335  0.1632  1.1955  2.1997
 5986SOL     OW19964   3.488   8.171  10.752 -0.2090 -0.4410 -0.5212
 5986SOL    HW119965   3.537   8.126  10.683 -0.8070  0.7078 -1.7457
 5986SOL    HW219966   3.539   8.250  10.769  0.7870 -1.4400  1.5428
 5987SOL     OW19967   6.313   5.680   6.303  0.0608 -0.0236  0.6283
 5987SOL    HW119968   6.387   5.619   6.308  1.2096  0.9466 -2.4496
 5987SOL    HW219969   6.351   5.762   6.272 -2.3951  0.1196 -2.4880
 5988SOL     OW19970   9.316   5.675   0.906  0.0564  0.2314  0.2171
 5988SOL    HW119971   9.251   5.644   0.969  0.1342 -0.3459  0.0261
 5988SOL    HW219972   9.278   5.657   0.821 -0.3404  1.6415  0.0775
 5989SOL     OW19973   2.150  10.109   4.515 -0.7179  0.2149 -0.2371
 5989SOL    HW119974   2.184  10.195   4.541  0.9286  0.2622 -2.2399
 5989SOL    HW219975   2.106  10.126   4.431 -1.9982 -0.6197  0.2370
 5990SOL     OW19976   4.262   6.774   5.823 -0.5300  0.4021  0.5976
 5990SOL    HW119977   4.187   6.727   5.788 -0.1430 -0.7997  1.2930
 5990SOL    HW219978   4.287   6.724   5.901  2.3982 -0.6642 -0.8620
 5991SOL     OW19979   2.859   9.783   8.652  0.4262 -0.7070  0.1723
 5991SOL    HW119980   2.769   9.816   8.645  0.9767  1.1227  0.9955
 5991SOL    HW219981   2.851   9.697   8.693 -0.8915 -0.1570  1.1252
 5992SOL     OW19982   5.539  10.385   1.591 -0.3354  0.6343  0.1393
 5992SOL    HW119983   5.561  10.303   1.635  0.0666  0.4691 -0.3549
 5992SOL    HW219984   5.467  10.361   1.532 -0.7934  0.8283  0.6119
 5993SOL     OW19985   3.259   7.966   6.770 -1.2692  0.1488 -0.0595
 5993SOL    HW119986   3.177   7.944   6.813 -0.1674 -0.5905  1.7602
 5993SOL    HW219987   3.324   7.908   6.810  0.1002  0.4810 -1.6818
 5994SOL     OW19988   4.085  10.993   1.457 -0.0713 -0.3322 -0.5567
 5994SOL    HW119989   4.091  11.053   1.382  1.6180  0.3996  0.1154
 5994SOL    HW219990   4.032  10.920   1.425  0.1508  0.2183 -2.2906
 5995SOL     OW19991   9.196   3.493   8.700 -0.1751  0.3458 -0.7311
 5995SOL    HW119992   9.194   3.478   8.795  0.4679 -1.1134 -0.9132
 5995SOL    HW219993   9.113   3.459   8.668 -0.2185  0.4559 -0.7350
 5996SOL     OW19994   8.467   1.209   9.370 -0.3013 -0.6739  0.3874
 5996SOL    HW119995   8.400   1.278   9.367 -1.7178 -1.9952  0.3164
 5996SOL    HW219996   8.547   1.253   9.342 -0.7878  1.3341  1.8931
 5997SOL     OW19997   1.063   9.188   6.351 -0.7473 -0.2059  0.3012
 5997SOL    HW119998   1.011   9.238   6.288 -2.0270  0.6866  1.9681
 5997SOL    HW219999   1.087   9.252   6.419  0.2014 -1.2143  0.9661
 5998SOL     OW20000   2.520   3.376  11.185 -0.9370 -0.7307 -0.9690
 5998SOL    HW120001   2.502   3.389  11.092 -1.5026 -0.4221 -0.8170
 5998SOL    HW220002   2.472   3.446  11.229  0.3130 -0.1138 -0.5256
 5999SOL     OW20003  10.324   9.920   1.426  0.4646  0.6159  0.0647
 5999SOL    HW120004  10.407   9.919   1.379  0.1432  2.6750 -0.6525
 5999SOL    HW220005  10.264   9.965   1.367 -1.0627 -0.4352  0.7592
 6000SOL     OW20006   5.698  10.862   1.713 -0.6285  0.3776  0.1559
 6000SOL    HW120007   5.750  10.835   1.638 -0.0785  0.3367  0.5505
 6000SOL    HW220008   5.609  10.869   1.678 -0.2736  1.0358 -0.6598
 6001SOL     OW20009   4.243   1.775  10.951  0.1655  0.0553 -0.8114
 6001SOL    HW120010   4.188   1.769  10.873  0.8195 -0.3932 -1.2470
 6001SOL    HW220011   4.290   1.858  10.942 -1.9115  1.4652  0.5696
 6002SOL     OW20012   4.784  10.722   5.946 -0.5930 -0.6773 -0.1200
 6002SOL    HW120013   4.855  10.669   5.982 -0.1034  1.1289  1.7614
 6002SOL    HW220014   4.708  10.699   5.999 -0.3735  0.4382  0.7254
 6003SOL     OW20015   8.009   6.506   5.010  0.0636 -0.0887  0.1004
 6003SOL    HW120016   8.015   6.541   5.099  1.3861 -0.4387  0.1585
 6003SOL    HW220017   7.968   6.420   5.021  0.8247 -0.4119  0.4490
 6004SOL     OW20018   1.562  10.977   7.653  0.5512  0.8623  0.0185
 6004SOL    HW120019   1.635  10.976   7.715 -0.1902  1.6026  0.9484
 6004SOL    HW220020   1.485  10.996   7.708 -0.3367  0.0930 -0.9287
 6005SOL     OW20021   8.549   3.769   1.910 -0.1046  0.2377  0.3801
 6005SOL    HW120022   8.593   3.833   1.854  0.1793 -0.2659  0.0149
 6005SOL    HW220023   8.511   3.821   1.981  0.7971  0.7271  0.5275
 6006SOL     OW20024  10.972   1.981   1.653  0.0245  0.0629 -0.5149
 6006SOL    HW120025  11.043   1.918   1.662  1.0480  1.3310  0.7322
 6006SOL    HW220026  10.944   1.999   1.743 -3.4152 -1.9897 -0.9774
 6007SOL     OW20027  10.738   8.275   0.840 -0.2071 -0.7204 -0.6619
 6007SOL    HW120028  10.651   8.271   0.802 -0.3707 -3.3777 -0.1969
 6007SOL    HW220029  10.725   8.259   0.933  0.6917  0.1919 -0.3560
 6008SOL     OW20030   2.304   8.442   9.766 -0.0488  0.6691 -0.1639
 6008SOL    HW120031   2.214   8.428   9.794 -1.2758  2.4685 -2.8132
 6008SOL    HW220032   2.348   8.477   9.844 -1.2627 -1.3597  1.5129
 6009SOL     OW20033   5.304   3.219   5.364 -0.3638 -0.2615  0.6004
 6009SOL    HW120034   5.289   3.311   5.341  1.6802 -0.0449 -0.1420
 6009SOL    HW220035   5.262   3.207   5.449  2.0905  2.3301  2.3521
 6010SOL     OW20036   4.941   3.711   7.726  0.3931  0.2433 -0.2863
 6010SOL    HW120037   4.882   3.776   7.764  1.3414  1.1921 -0.3876
 6010SOL    HW220038   4.966   3.748   7.642  0.2987 -0.6633 -0.7283
 6011SOL     OW20039   9.773   5.613   5.316 -0.1069 -0.9467 -0.4951
 6011SOL    HW120040   9.690   5.614   5.362  1.0154 -0.2944  1.6382
 6011SOL    HW220041   9.787   5.521   5.293 -0.0044 -1.6061  1.9169
 6012SOL     OW20042   2.728   5.809   2.631  0.2121 -0.2492  0.4432
 6012SOL    HW120043   2.639   5.781   2.609  0.1605  1.1903 -1.3364
 6012SOL    HW220044   2.727   5.816   2.727 -1.9186  0.7335  0.4020
 6013SOL     OW20045   3.165   8.192   2.921  0.2089 -0.1966 -0.1496
 6013SOL    HW120046   3.165   8.099   2.943  1.3453  0.3494  2.6464
 6013SOL    HW220047   3.114   8.233   2.992 -1.3657  1.2286 -2.0005
 6014SOL     OW20048   6.057   2.732   2.210  0.9084 -0.2599  0.3341
 6014SOL    HW120049   5.971   2.694   2.192  1.5122 -1.2682 -0.5043
 6014SOL    HW220050   6.059   2.741   2.306 -0.9321  1.7853  0.2475
 6015SOL     OW20051   2.836   7.460   4.040  0.8174 -0.1607  0.2662
 6015SOL    HW120052   2.868   7.549   4.056  0.1473  0.2989 -0.8855
 6015SOL    HW220053   2.912   7.414   4.004  0.5701  0.5695 -1.2297
 6016SOL     OW20054   5.657   6.509  10.231  0.9903  0.5302  0.3140
 6016SOL    HW120055   5.627   6.431  10.277  0.1664  0.8465  0.3333
 6016SOL    HW220056   5.735   6.481  10.184 -1.0701 -1.2308 -2.3712
 6017SOL     OW20057   5.680   2.325   0.740 -0.2432 -0.3219  0.4232
 6017SOL    HW120058   5.727   2.279   0.671  1.0629 -0.3575  1.2948
 6017SOL    HW220059   5.745   2.385   0.776 -1.8112  2.1001 -0.5259
 6018SOL     OW20060   3.923   5.764   7.597 -0.1631 -0.1446 -0.7754
 6018SOL    HW120061   3.989   5.752   7.665  1.7140  0.1774 -2.4186
 6018SOL    HW220062   3.970   5.745   7.515 -1.9183  0.8310 -2.0777
 6019SOL     OW20063   2.262   7.103   5.334 -0.2623  0.6376 -0.0659
 6019SOL    HW120064   2.221   7.024   5.297  0.6912 -0.0824  0.3673
 6019SOL    HW220065   2.282   7.157   5.257  0.1779 -0.0920 -0.4766
 6020SOL     OW20066   0.177   3.064  10.055 -0.0469 -0.5567  0.2433
 6020SOL    HW120067   0.259   3.018  10.070  0.1954  0.1377  1.0796
 6020SOL    HW220068   0.201   3.156  10.049 -0.7219 -0.3781  0.1653
 6021SOL     OW20069  10.638   0.969   4.018 -0.0508  0.1060 -0.3450
 6021SOL    HW120070  10.651   1.031   3.946 -0.3839 -2.4199 -2.7660
 6021SOL    HW220071  10.609   0.889   3.975  0.6193 -1.8474  2.5638
 6022SOL     OW20072  10.798   6.806   7.491 -0.2682 -1.0210  0.3154
 6022SOL    HW120073  10.710   6.845   7.498  0.7440  2.0105 -1.7770
 6022SOL    HW220074  10.808   6.787   7.398  2.4074  1.9291 -0.1531
 6023SOL     OW20075   3.315   1.487   4.635 -0.0831 -0.1615  0.1381
 6023SOL    HW120076   3.387   1.429   4.610  1.2343  1.4955 -0.0192
 6023SOL    HW220077   3.344   1.574   4.609 -2.0036  0.5989  0.4205
 6024SOL     OW20078  10.010  10.016   4.745 -0.0682 -0.3510 -0.4221
 6024SOL    HW120079  10.093  10.007   4.792 -0.4087 -0.4386  0.1602
 6024SOL    HW220080   9.961   9.936   4.766 -1.6398  1.0961  1.8898
 6025SOL     OW20081  10.284   8.698   0.631 -0.5872 -0.2720  0.1768
 6025SOL    HW120082  10.225   8.711   0.557 -0.0778  0.1063 -0.1705
 6025SOL    HW220083  10.357   8.647   0.596  1.5714  3.0886 -0.6264
 6026SOL     OW20084   9.611  10.506   7.063  0.5552  0.1450  0.1854
 6026SOL    HW120085   9.669  10.436   7.090 -0.0570 -0.1495  0.7698
 6026SOL    HW220086   9.668  10.570   7.020  1.2719 -0.2204  0.5810
 6027SOL     OW20087   2.172   1.808   6.911 -0.2970 -0.1516 -0.0682
 6027SOL    HW120088   2.134   1.895   6.912 -1.1480 -0.4955 -0.7621
 6027SOL    HW220089   2.194   1.792   6.819  0.6400 -0.3468  0.1740
 6028SOL     OW20090   1.419   7.907   9.751 -0.6559 -0.1527  0.0865
 6028SOL    HW120091   1.442   7.874   9.664  0.0433 -2.5706  1.0794
 6028SOL    HW220092   1.496   7.957   9.779 -1.3260  1.6020 -1.0642
 6029SOL     OW20093   9.779  11.041   1.828 -0.4254 -0.4658  0.4792
 6029SOL    HW120094   9.718  11.063   1.757 -0.2586  0.1727  0.5307
 6029SOL    HW220095   9.735  11.071   1.908  0.6127  1.4504  0.3771
 6030SOL     OW20096   0.033   5.400   2.449 -0.1864  0.1416  0.0221
 6030SOL    HW120097  -0.035   5.434   2.506 -1.6473  0.6689 -1.9438
 6030SOL    HW220098   0.019   5.305   2.449  0.3540  0.0379  1.1213
 6031SOL     OW20099   4.800   8.457   6.847 -0.0326 -0.4559 -0.1493
 6031SOL    HW120100   4.766   8.544   6.826 -0.9433 -1.3133 -2.6722
 6031SOL    HW220101   4.805   8.455   6.942 -0.3790  2.1930  0.0020
 6032SOL     OW20102   0.213   9.087  10.077  0.2898 -0.4916 -0.6644
 6032SOL    HW120103   0.230   9.175  10.110  0.3912 -1.0466  0.8620
 6032SOL    HW220104   0.278   9.032  10.122 -1.2066 -1.6607  0.1644
 6033SOL     OW20105   7.834   2.866   8.907  0.0144  0.1393  0.3575
 6033SOL    HW120106   7.907   2.905   8.955  1.3668 -0.4757 -1.1034
 6033SOL    HW220107   7.758   2.878   8.964  0.5811  3.6685  0.5985
 6034SOL     OW20108   6.842   4.512   0.231  0.5586 -0.1171  0.3984
 6034SOL    HW120109   6.810   4.525   0.320  0.7972  2.4165  0.1810
 6034SOL    HW220110   6.779   4.558   0.176  1.1035 -0.5746 -0.6218
 6035SOL     OW20111   9.099  10.015   1.919  0.3886 -0.4780 -0.5886
 6035SOL    HW120112   9.120   9.962   1.842  0.7981  1.4282 -1.8586
 6035SOL    HW220113   9.083  10.103   1.884 -0.4851  0.2124  1.4024
 6036SOL     OW20114   5.315  10.296   1.474 -0.0360  0.3076 -0.2982
 6036SOL    HW120115   5.322  10.246   1.393  0.3324  0.0559 -0.1153
 6036SOL    HW220116   5.240  10.354   1.460  0.4876  0.8076 -1.1042
 6037SOL     OW20117  10.047  11.143   3.508  0.1444 -0.2580 -0.5597
 6037SOL    HW120118   9.957  11.163   3.482  0.0903 -1.9781 -1.9700
 6037SOL    HW220119  10.062  11.194   3.587 -1.6606  0.9828 -0.9593
 6038SOL     OW20120   4.660   3.286   4.369  0.6248 -0.2057  0.4726
 6038SOL    HW120121   4.648   3.379   4.390  0.8773 -0.1845  0.5221
 6038SOL    HW220122   4.618   3.240   4.441 -1.1128 -0.1369 -0.4519
 6039SOL     OW20123   5.400   4.665   4.308  0.9944  0.2958 -0.0735
 6039SOL    HW120124   5.452   4.745   4.321 -0.6226  1.3354  0.3285
 6039SOL    HW220125   5.404   4.620   4.392  0.2763  1.0088  0.3667
 6040SOL     OW20126   3.958  11.053   7.842 -0.3043  0.3673  0.3642
 6040SOL    HW120127   3.959  10.981   7.906  0.9169  0.0086 -0.0313
 6040SOL    HW220128   4.042  11.098   7.856  0.5789 -0.4864 -1.8241
 6041SOL     OW20129   6.367   1.887   4.972  0.0624  0.3481  0.4796
 6041SOL    HW120130   6.329   1.806   4.939  1.0655 -0.1920  0.6422
 6041SOL    HW220131   6.291   1.943   4.991 -0.5847  0.2193 -1.5263
 6042SOL     OW20132   8.571   8.751   1.677  0.2981  0.5360 -0.6926
 6042SOL    HW120133   8.554   8.841   1.647 -2.0181 -0.0434 -1.3405
 6042SOL    HW220134   8.501   8.733   1.740  0.7308 -0.8338 -0.5686
 6043SOL     OW20135   2.820   3.000   5.587 -0.0899 -0.0850  0.7264
 6043SOL    HW120136   2.769   2.920   5.573  0.2135 -0.2218  0.3908
 6043SOL    HW220137   2.862   2.987   5.671  0.5796 -0.6192  0.3159
 6044SOL     OW20138   6.456   7.597  10.191 -0.5690 -0.2585  0.6050
 6044SOL    HW120139   6.486   7.661  10.127 -0.7040 -0.3162  0.4850
 6044SOL    HW220140   6.508   7.519  10.173 -0.8338 -0.3796  0.3561
 6045SOL     OW20141  10.371   7.725   1.167  0.0453 -0.3655 -0.0420
 6045SOL    HW120142  10.411   7.643   1.196  0.0859 -0.3841 -0.1513
 6045SOL    HW220143  10.431   7.793   1.199 -0.6589 -0.2918  1.1956
 6046SOL     OW20144   6.133   1.509   2.257  0.0069  0.0748  0.7361
 6046SOL    HW120145   6.095   1.446   2.196  0.7904  0.1135  0.2008
 6046SOL    HW220146   6.111   1.594   2.220  4.8826  0.3080 -2.5846
 6047SOL     OW20147   0.764   0.110   0.969  0.3929  0.8062  0.5201
 6047SOL    HW120148   0.848   0.109   1.014  0.8982  0.4704 -0.3897
 6047SOL    HW220149   0.768   0.033   0.911 -1.7530 -1.0467  2.6108
 6048SOL     OW20150  10.802   9.615   9.357 -0.1112 -0.5772  0.0214
 6048SOL    HW120151  10.773   9.528   9.331  0.0801 -1.2020  1.7433
 6048SOL    HW220152  10.720   9.664   9.370 -0.2103  0.0590 -2.5105
 6049SOL     OW20153   0.301   0.646   3.176 -0.2180 -0.0301 -0.0089
 6049SOL    HW120154   0.248   0.631   3.098  0.9020 -0.3541 -0.7406
 6049SOL    HW220155   0.307   0.560   3.218  1.7389 -0.5755 -1.2803
 6050SOL     OW20156   7.917   7.648   1.587 -0.7950 -0.2582 -0.2816
 6050SOL    HW120157   7.904   7.723   1.529  0.0015 -0.8687 -1.2691
 6050SOL    HW220158   7.951   7.579   1.531 -1.4229 -1.3525  0.6287
 6051SOL     OW20159   1.833   8.966   1.199 -0.0693  0.3788  0.5405
 6051SOL    HW120160   1.919   8.984   1.238  0.8992  0.7263 -1.6193
 6051SOL    HW220161   1.831   8.870   1.190  0.9510  0.4908 -1.1690
 6052SOL     OW20162   6.065   4.740  10.484  0.5801 -0.3190 -0.5439
 6052SOL    HW120163   6.047   4.767  10.394 -1.5840 -0.4450 -0.2020
 6052SOL    HW220164   6.068   4.644  10.480  0.7220 -0.3162 -0.5159
 6053SOL     OW20165   8.061   2.055   4.130 -0.3200 -0.1864  0.5519
 6053SOL    HW120166   8.081   2.135   4.179 -1.2881  0.5378 -0.2045
 6053SOL    HW220167   8.146   2.014   4.115  0.0862  0.0714  1.9757
 6054SOL     OW20168   1.646   3.407   7.155  0.3329  0.3860  0.3908
 6054SOL    HW120169   1.728   3.412   7.205 -0.4113  0.0622  1.6851
 6054SOL    HW220170   1.672   3.369   7.072  1.4705  0.0522  0.8710
 6055SOL     OW20171   3.501   5.119   5.082  0.0753 -0.1907 -0.0909
 6055SOL    HW120172   3.531   5.035   5.116  1.3045 -0.1502 -0.9902
 6055SOL    HW220173   3.414   5.102   5.046  0.8199 -1.3893 -1.3968
 6056SOL     OW20174   1.325   5.172  11.257 -0.1342 -0.0711  0.0742
 6056SOL    HW120175   1.358   5.104  11.198  3.5707  2.8188 -1.6103
 6056SOL    HW220176   1.237   5.191  11.225 -0.8367 -3.0567 -0.1304
 6057SOL     OW20177   8.922   4.833   2.130  0.5177 -0.2745  0.3929
 6057SOL    HW120178   8.886   4.847   2.218 -1.7601  0.3754 -0.5592
 6057SOL    HW220179   8.882   4.751   2.101 -1.6118  1.2152 -1.2630
 6058SOL     OW20180  10.787   4.542   9.565 -0.0673  0.2583 -0.2418
 6058SOL    HW120181  10.848   4.469   9.573  0.0303  0.2453 -1.0148
 6058SOL    HW220182  10.779   4.556   9.470 -0.8236  0.6258 -0.1294
 6059SOL     OW20183   6.669   3.233   9.897  0.0734 -0.1375 -0.4565
 6059SOL    HW120184   6.599   3.298   9.896  0.8246  0.7673  1.5122
 6059SOL    HW220185   6.749   3.284   9.879  0.7844 -0.2774  1.9986
 6060SOL     OW20186   1.070   7.493   6.477 -0.1175  0.1846  0.1135
 6060SOL    HW120187   1.022   7.412   6.494 -1.2066  0.7326 -0.2373
 6060SOL    HW220188   1.049   7.549   6.552 -1.2662  0.9689 -0.7606
 6061SOL     OW20189   8.912   7.207   2.238 -0.0815  0.5133 -0.4962
 6061SOL    HW120190   8.924   7.296   2.205  0.3965  0.7128  0.1976
 6061SOL    HW220191   8.990   7.189   2.289 -1.2308  0.5920  1.3613
 6062SOL     OW20192   6.938   1.084   8.056 -0.2796  0.3816 -0.0143
 6062SOL    HW120193   6.900   1.110   7.972  0.6803 -1.7685 -1.1920
 6062SOL    HW220194   6.862   1.065   8.111 -0.9997 -1.1404 -1.4262
 6063SOL     OW20195   3.419   6.132   8.741 -0.0703 -0.1132 -0.7539
 6063SOL    HW120196   3.476   6.196   8.784  0.6189 -1.9662  1.2846
 6063SOL    HW220197   3.479   6.064   8.708 -0.9534 -1.5889  0.5236
 6064SOL     OW20198  10.322   5.715   8.583  0.1588  0.9968 -0.1852
 6064SOL    HW120199  10.280   5.659   8.648 -0.4951 -0.7712 -2.0306
 6064SOL    HW220200  10.413   5.686   8.582 -0.7804 -2.5618 -3.4001
 6065SOL     OW20201   3.456   9.668   6.968 -0.5600  0.1617  0.4346
 6065SOL    HW120202   3.400   9.610   7.021  1.2439 -0.4823  1.7354
 6065SOL    HW220203   3.461   9.749   7.019 -2.4755  1.2970 -1.0277
 6066SOL     OW20204   2.905  11.265   0.868 -0.7378 -0.1325 -0.2942
 6066SOL    HW120205   2.912  11.169   0.863  0.9567 -0.1284  0.9348
 6066SOL    HW220206   2.870  11.291   0.784  0.5004 -1.7228 -1.3699
 6067SOL     OW20207   5.277   1.725   3.059  0.1958  0.4094 -0.5952
 6067SOL    HW120208   5.257   1.634   3.036 -0.5644  0.2426  0.6694
 6067SOL    HW220209   5.259   1.731   3.152  1.4425  1.5474 -0.4023
 6068SOL     OW20210   3.512   2.233   3.001 -0.3542  0.1450  0.6843
 6068SOL    HW120211   3.526   2.199   3.089 -1.0093 -1.7439  0.1185
 6068SOL    HW220212   3.427   2.196   2.975  0.3654 -0.2937 -1.1625
 6069SOL     OW20213   5.056   0.710   3.574  0.1225 -0.3205  0.2520
 6069SOL    HW120214   5.141   0.680   3.606  0.8278  0.3446 -0.9199
 6069SOL    HW220215   5.054   0.804   3.594  0.5191  0.0829 -1.4065
 6070SOL     OW20216   1.261   5.891   4.321 -0.1797  0.0689 -0.1726
 6070SOL    HW120217   1.176   5.856   4.294  0.2537 -0.3549 -1.0080
 6070SOL    HW220218   1.246   5.922   4.410 -1.6975  1.6710 -0.9290
 6071SOL     OW20219   5.916   5.096  10.470  0.2528  0.7004  0.4069
 6071SOL    HW120220   5.978   5.053  10.528  1.1784  1.1056 -0.2624
 6071SOL    HW220221   5.830   5.073  10.505  0.7120 -1.5228  0.2150
 6072SOL     OW20222  10.090   2.183   1.575 -0.5737  0.4258  0.2523
 6072SOL    HW120223  10.102   2.088   1.571 -0.4130  0.3804  1.4062
 6072SOL    HW220224  10.110   2.213   1.487  0.9559 -0.4527  0.2595
 6073SOL     OW20225   9.828   9.666   7.799  0.5147  0.2612 -0.0036
 6073SOL    HW120226   9.910   9.698   7.835  0.9979  1.8631 -2.3241
 6073SOL    HW220227   9.779   9.745   7.776 -1.3636 -0.6600  0.5559
 6074SOL     OW20228   5.801   3.795   6.265 -0.2286  0.4374  0.2681
 6074SOL    HW120229   5.878   3.759   6.220 -1.1887 -0.6187 -0.5837
 6074SOL    HW220230   5.785   3.878   6.220  0.3869  0.6479  0.4268
 6075SOL     OW20231  10.457   2.112   9.005 -0.0744  0.1441 -0.0524
 6075SOL    HW120232  10.401   2.107   8.928  0.0277 -0.4256 -0.0962
 6075SOL    HW220233  10.399   2.092   9.078  0.1835 -1.0948 -0.1573
 6076SOL     OW20234   7.266   5.216   7.198 -0.0086 -0.1759  0.1740
 6076SOL    HW120235   7.252   5.123   7.217 -0.5159 -0.5276 -1.7209
 6076SOL    HW220236   7.178   5.253   7.192  0.0132 -0.3082 -2.1851
 6077SOL     OW20237   7.148   2.047   2.350  0.5281  0.5183  0.0569
 6077SOL    HW120238   7.075   2.044   2.288  0.9393 -0.3279 -0.3996
 6077SOL    HW220239   7.138   2.132   2.394 -1.4025 -0.0355  0.8250
 6078SOL     OW20240   6.056   7.961   7.796  0.0008  0.7515  0.7573
 6078SOL    HW120241   6.136   7.908   7.793  1.0546  2.2630  1.2279
 6078SOL    HW220242   6.005   7.930   7.721  1.7252  0.8149 -0.5203
 6079SOL     OW20243   0.766   8.112   0.784  0.1875  0.1085 -0.3395
 6079SOL    HW120244   0.738   8.071   0.865 -1.9016 -1.4294 -1.7336
 6079SOL    HW220245   0.689   8.108   0.727  1.1114  2.4609 -1.9291
 6080SOL     OW20246  11.148   3.249  10.356 -0.4861 -0.0092  0.7225
 6080SOL    HW120247  11.058   3.230  10.383 -0.2935  0.3269  1.6084
 6080SOL    HW220248  11.158   3.201  10.273 -1.1446 -0.8875  1.1373
 6081SOL     OW20249   1.186   8.171   1.050 -0.2488  0.0479 -0.4302
 6081SOL    HW120250   1.263   8.181   1.105 -0.2641  1.3099 -0.5987
 6081SOL    HW220251   1.206   8.221   0.971 -1.9555  2.0864  0.3259
 6082SOL     OW20252   6.200   2.716   4.881  0.1596 -0.4580 -0.2715
 6082SOL    HW120253   6.136   2.659   4.839  0.1543 -1.2384  0.7499
 6082SOL    HW220254   6.277   2.659   4.894  0.5788  0.0963 -0.2780
 6083SOL     OW20255   9.204  10.967   5.487 -0.2798 -0.1158 -0.0875
 6083SOL    HW120256   9.167  11.041   5.440  0.7392 -0.0399 -0.7946
 6083SOL    HW220257   9.179  10.982   5.579  1.3724  2.0732  0.0869
 6084SOL     OW20258   3.879   4.770  10.406 -0.1250 -0.0122  0.6426
 6084SOL    HW120259   3.891   4.789  10.499 -0.3941 -0.2800  0.7333
 6084SOL    HW220260   3.820   4.838  10.374  0.9215  0.8077  0.3873
 6085SOL     OW20261   6.098   0.021   4.017  0.6070 -0.3628 -0.4452
 6085SOL    HW120262   6.104  -0.033   4.096 -0.2401  2.2167  1.5340
 6085SOL    HW220263   6.009   0.010   3.986  1.2537 -2.2443 -1.7931
 6086SOL     OW20264   1.338  10.336   3.333 -0.1629  0.2916 -0.2940
 6086SOL    HW120265   1.418  10.310   3.286 -0.5669  0.6667 -1.2209
 6086SOL    HW220266   1.360  10.419   3.374 -0.3217  0.8280 -1.2570
 6087SOL     OW20267   5.546   9.196   5.655 -0.4012  0.1927  0.3921
 6087SOL    HW120268   5.580   9.266   5.712 -2.5208  1.8841 -0.2792
 6087SOL    HW220269   5.490   9.242   5.593 -0.1426 -1.9018 -1.5085
 6088SOL     OW20270   7.221   2.837  10.331  0.0577 -0.3047 -0.0530
 6088SOL    HW120271   7.247   2.918  10.376 -1.0577 -0.0110  0.0930
 6088SOL    HW220272   7.141   2.861  10.284 -1.7286 -1.9344  1.9573
 6089SOL     OW20273  11.257   0.278   9.175  0.0620 -0.3922 -0.1189
 6089SOL    HW120274  11.325   0.238   9.121 -1.9308 -1.8590 -1.6721
 6089SOL    HW220275  11.197   0.207   9.197 -1.0597  0.8499  1.1338
 6090SOL     OW20276   0.394   3.813   4.810  0.2846 -0.3017 -0.1285
 6090SOL    HW120277   0.376   3.755   4.736 -0.0610  0.0477 -0.3216
 6090SOL    HW220278   0.385   3.756   4.887 -2.3615 -0.0448 -0.1525
 6091SOL     OW20279   1.450   7.727   6.836 -0.8952  0.4774  0.4657
 6091SOL    HW120280   1.438   7.649   6.891  0.3332 -0.7852 -0.9709
 6091SOL    HW220281   1.521   7.775   6.878 -1.0567  0.3704  0.8708
 6092SOL     OW20282   5.727   8.754   8.133 -0.5713 -0.1832  0.5023
 6092SOL    HW120283   5.793   8.809   8.090  2.4096 -2.3778  1.8695
 6092SOL    HW220284   5.704   8.802   8.212 -2.9436  1.9328 -1.3224
 6093SOL     OW20285   6.507   7.250   0.525  0.3939  0.0150  0.5985
 6093SOL    HW120286   6.566   7.199   0.581  0.6691 -0.7283 -0.3223
 6093SOL    HW220287   6.523   7.341   0.550  1.7899 -0.1789  0.5332
 6094SOL     OW20288  10.998   0.465   7.552 -0.5615 -0.7893 -0.3625
 6094SOL    HW120289  10.992   0.388   7.495 -0.7359 -2.6080  1.9743
 6094SOL    HW220290  11.085   0.500   7.536 -1.5632  0.5982 -3.8179
 6095SOL     OW20291   6.727   1.837   2.603  0.2578 -0.7157  0.0315
 6095SOL    HW120292   6.648   1.864   2.556 -1.5474 -4.0426  0.8522
 6095SOL    HW220293   6.737   1.902   2.672 -1.4034  0.1499 -0.4865
 6096SOL     OW20294   4.941   2.475   3.479  0.0358 -0.5064  0.1508
 6096SOL    HW120295   4.960   2.440   3.566  0.4312 -1.3793 -0.2725
 6096SOL    HW220296   4.952   2.400   3.420  1.1547  0.3785 -0.8104
 6097SOL     OW20297   4.615   2.564   1.324 -0.4662  0.3472 -0.2188
 6097SOL    HW120298   4.678   2.577   1.254 -1.9697 -1.0920 -1.9228
 6097SOL    HW220299   4.669   2.546   1.401  1.2121 -0.7554 -1.5809
 6098SOL     OW20300   7.365   7.698   2.667  0.1347  0.3061  0.1995
 6098SOL    HW120301   7.294   7.646   2.631 -0.0908  0.5570  0.2824
 6098SOL    HW220302   7.350   7.697   2.762  1.4016 -1.3713  0.4505
 6099SOL     OW20303  11.107   5.944   9.264  0.1593  0.0212 -0.8476
 6099SOL    HW120304  11.148   5.882   9.324 -1.5072 -0.1797  0.1612
 6099SOL    HW220305  11.163   6.021   9.267  3.0344 -1.7794 -3.1519
 6100SOL     OW20306   7.871   2.242   0.206  0.2990  0.0148 -0.5152
 6100SOL    HW120307   7.901   2.252   0.297  2.0104 -0.5769 -0.9864
 6100SOL    HW220308   7.895   2.152   0.183  0.0912  0.2377 -1.6380
 6101SOL     OW20309   0.536   9.570   1.740 -0.1777  0.0011 -0.2060
 6101SOL    HW120310   0.490   9.498   1.783 -0.3468  1.5995  2.5168
 6101SOL    HW220311   0.591   9.528   1.674 -2.9789 -2.2628 -1.3077
 6102SOL     OW20312   6.432   7.892   8.616  0.1236  0.4644  0.3256
 6102SOL    HW120313   6.389   7.873   8.700 -1.8962  0.6934 -0.5853
 6102SOL    HW220314   6.392   7.830   8.555  1.0386  0.7771 -0.6220
 6103SOL     OW20315   8.894   2.603   3.903  0.4285  0.1912 -0.4192
 6103SOL    HW120316   8.806   2.573   3.880 -0.3155  0.8998  1.3449
 6103SOL    HW220317   8.904   2.685   3.854 -0.2881  0.6097  0.1190
 6104SOL     OW20318   3.356   8.395   0.087  0.4901 -0.5154 -0.4398
 6104SOL    HW120319   3.373   8.393  -0.007 -2.9673  1.2102 -1.2489
 6104SOL    HW220320   3.332   8.305   0.109 -0.1350 -0.6453 -1.5750
 6105SOL     OW20321   2.049   8.381  11.048  0.1823 -0.0558 -0.2205
 6105SOL    HW120322   2.024   8.409  11.136  1.6575  1.0976 -0.1275
 6105SOL    HW220323   2.119   8.441  11.023  1.1820 -1.6403 -1.3873
 6106SOL     OW20324   3.481   8.705   6.292  0.0784  0.0439  0.3843
 6106SOL    HW120325   3.458   8.638   6.228  0.9902  1.3223 -1.3551
 6106SOL    HW220326   3.421   8.690   6.365 -0.4336 -1.9846 -0.3963
 6107SOL     OW20327   9.397  11.116   2.384 -0.5345 -0.4405 -0.3149
 6107SOL    HW120328   9.377  11.194   2.435  0.2351 -0.7306  0.4519
 6107SOL    HW220329   9.411  11.047   2.449 -1.4716 -1.2903 -0.9904
 6108SOL     OW20330   1.877   4.331   9.442 -0.4773 -0.7778 -0.1245
 6108SOL    HW120331   1.956   4.375   9.412 -1.0040  0.1838 -0.1590
 6108SOL    HW220332   1.907   4.247   9.478  0.3054 -1.4276 -2.1858
 6109SOL     OW20333  10.021   7.467  10.775 -0.2827  0.0928 -0.5262
 6109SOL    HW120334   9.966   7.484  10.852  1.5728 -0.4334  1.0037
 6109SOL    HW220335  10.022   7.550  10.727  1.0548  1.5321  1.7804
 6110SOL     OW20336  10.663   2.192   6.060 -0.0234 -0.3219 -0.0159
 6110SOL    HW120337  10.677   2.170   5.967  1.3088  0.7405 -0.1017
 6110SOL    HW220338  10.583   2.145   6.084  0.9694 -2.6871 -0.9966
 6111SOL     OW20339   6.859   7.936   9.091  0.2178  0.6778 -0.0549
 6111SOL    HW120340   6.866   7.902   9.180 -0.6088  0.1545 -0.1803
 6111SOL    HW220341   6.767   7.961   9.082  0.6066  2.1617 -0.2616
 6112SOL     OW20342   6.987   2.615   6.075 -0.5323  0.4844 -0.3850
 6112SOL    HW120343   7.067   2.667   6.087 -0.0976 -0.5892  1.9622
 6112SOL    HW220344   7.018   2.525   6.064 -1.3892 -0.0603  1.3069
 6113SOL     OW20345   8.367   6.236  11.056  0.0405  0.3648 -0.6848
 6113SOL    HW120346   8.409   6.258  11.139 -0.4263  2.9890 -1.0589
 6113SOL    HW220347   8.406   6.152  11.031 -0.2044 -0.7822  2.3985
 6114SOL     OW20348   9.512   7.907   8.130  0.1824  0.4508  0.4601
 6114SOL    HW120349   9.451   7.952   8.190 -1.6923  0.6630 -1.4647
 6114SOL    HW220350   9.569   7.976   8.098  0.4446  0.5406  1.0937
 6115SOL     OW20351   0.147   4.818   4.291 -0.4462 -0.1301 -0.4218
 6115SOL    HW120352   0.148   4.901   4.243  0.4235 -0.4684 -1.0130
 6115SOL    HW220353   0.235   4.782   4.279 -0.7062 -0.9799  0.1124
 6116SOL     OW20354   1.676   2.215   0.195 -0.0116 -0.6599 -0.2494
 6116SOL    HW120355   1.702   2.307   0.199 -1.5793 -0.2227  0.5407
 6116SOL    HW220356   1.720   2.175   0.270 -0.2402 -0.2907  0.0882
 6117SOL     OW20357   7.730   4.858   4.614 -0.9219 -0.1487  0.2465
 6117SOL    HW120358   7.739   4.855   4.519  2.0202  1.7042  0.3397
 6117SOL    HW220359   7.679   4.937   4.631 -0.9074 -0.1317  0.2104
 6118SOL     OW20360   1.163  10.909   5.101  0.2538 -0.8141  0.2143
 6118SOL    HW120361   1.244  10.903   5.153  0.6145 -0.6108 -0.3182
 6118SOL    HW220362   1.160  10.826   5.053  0.5857 -0.4849 -0.3918
 6119SOL     OW20363   6.609   5.811   5.332 -0.3001 -0.3068  0.3686
 6119SOL    HW120364   6.525   5.772   5.357 -0.1122 -0.2516  1.1039
 6119SOL    HW220365   6.648   5.840   5.415  1.6848 -2.7638  0.4242
 6120SOL     OW20366   5.068   8.049   9.292 -0.4866 -0.1403 -0.4415
 6120SOL    HW120367   5.101   8.019   9.207 -0.9189 -0.6178 -0.4456
 6120SOL    HW220368   5.072   8.145   9.287 -1.1714 -0.1424 -1.2752
 6121SOL     OW20369   7.668   4.672   9.285 -0.5038  0.0146 -0.2786
 6121SOL    HW120370   7.697   4.592   9.241  0.1748 -0.0927  0.3414
 6121SOL    HW220371   7.650   4.734   9.214 -1.2523 -0.7582 -0.7722
 6122SOL     OW20372  10.486   9.943   0.514 -0.1124  0.0216 -0.5567
 6122SOL    HW120373  10.448   9.996   0.584  0.2908  0.5612 -0.7348
 6122SOL    HW220374  10.457   9.854   0.532 -2.6348  0.5816 -1.4722
 6123SOL     OW20375   1.879   4.746   9.683 -1.2605  0.1008 -0.0552
 6123SOL    HW120376   1.836   4.661   9.680 -0.5048 -0.2505 -1.4813
 6123SOL    HW220377   1.815   4.804   9.726 -0.9469 -1.6127  3.0414
 6124SOL     OW20378   0.516   7.137   0.903 -0.1313 -0.2745  0.3903
 6124SOL    HW120379   0.539   7.226   0.931 -0.8264 -0.3496  1.2493
 6124SOL    HW220380   0.555   7.129   0.816 -0.7329  1.1489 -0.0459
 6125SOL     OW20381   7.349   1.838   2.566  0.3356  0.3867 -0.6768
 6125SOL    HW120382   7.289   1.773   2.529 -0.8071  2.2640 -2.3799
 6125SOL    HW220383   7.346   1.823   2.660 -0.8865 -1.1764 -0.9246
 6126SOL     OW20384   6.099   7.010   3.465  0.3131  0.4155 -0.0776
 6126SOL    HW120385   6.054   6.958   3.532  2.1848  2.3214  2.9404
 6126SOL    HW220386   6.028   7.044   3.410 -1.3507 -1.3763  0.8297
 6127SOL     OW20387   7.673   9.346   5.418  0.1103  0.1528  0.9917
 6127SOL    HW120388   7.706   9.278   5.358 -0.6231  0.8099 -0.1816
 6127SOL    HW220389   7.707   9.428   5.383  0.1904  0.5009  1.8534
 6128SOL     OW20390   5.933   5.388   3.605  0.0186  0.1845  0.0036
 6128SOL    HW120391   5.944   5.478   3.634  1.5881  0.4134 -1.1858
 6128SOL    HW220392   5.843   5.365   3.630 -1.5459  3.1091 -2.4166
 6129SOL     OW20393   5.612   4.926   7.719 -0.1143 -0.3246 -0.5248
 6129SOL    HW120394   5.562   4.886   7.648  0.8574 -0.5315 -1.1129
 6129SOL    HW220395   5.692   4.874   7.724 -0.6882 -1.1299  1.5907
 6130SOL     OW20396   4.921  11.276  10.870  0.1551 -0.3827  0.4587
 6130SOL    HW120397   4.953  11.340  10.806 -2.0655  1.5059  1.1420
 6130SOL    HW220398   4.982  11.283  10.943 -1.1142  2.5092  1.3656
 6131SOL     OW20399   4.739   2.008  11.134  0.0051  0.4108  0.8231
 6131SOL    HW120400   4.827   1.974  11.152 -0.0266  0.3934  0.9452
 6131SOL    HW220401   4.698   1.941  11.080  0.5017  0.9831 -0.3047
 6132SOL     OW20402   9.587  10.869   6.178  0.2910  0.2705 -0.1867
 6132SOL    HW120403   9.590  10.847   6.271 -2.4165 -0.9434 -0.2999
 6132SOL    HW220404   9.628  10.795   6.134 -1.5895 -0.8626 -0.1078
 6133SOL     OW20405   7.164   2.346   4.290 -0.4004 -0.2973 -0.1200
 6133SOL    HW120406   7.255   2.318   4.280 -0.0650  0.5169  0.5021
 6133SOL    HW220407   7.135   2.308   4.372  0.3569  1.8173  1.2149
 6134SOL     OW20408   3.189   0.008   6.559 -0.2983  0.1788 -0.4689
 6134SOL    HW120409   3.094   0.009   6.562 -0.2960  1.1595 -0.5065
 6134SOL    HW220410   3.211  -0.077   6.518 -1.0855 -0.7754  1.0192
 6135SOL     OW20411   0.241   8.274   5.643 -0.0386 -0.4121  0.4413
 6135SOL    HW120412   0.247   8.186   5.682 -3.4280 -0.6612  0.6403
 6135SOL    HW220413   0.279   8.332   5.710  0.7223 -1.5241  1.0128
 6136SOL     OW20414   3.116   1.587  10.312  0.2383 -0.5154 -0.2835
 6136SOL    HW120415   3.049   1.595  10.379  0.2677 -0.6323 -0.2411
 6136SOL    HW220416   3.199   1.601  10.359  0.1246  3.3324 -0.8627
 6137SOL     OW20417   0.009  10.969   6.204  0.2964 -0.0427  0.4828
 6137SOL    HW120418  -0.014  11.025   6.130 -2.9639  0.3933  1.6459
 6137SOL    HW220419  -0.024  10.882   6.181  1.1033 -0.3958  0.6166
 6138SOL     OW20420   0.599   7.135   9.639  0.2208  0.3391 -0.0671
 6138SOL    HW120421   0.628   7.101   9.724 -0.7084 -3.0963 -0.9590
 6138SOL    HW220422   0.649   7.085   9.575  1.7353  3.6397 -1.7188
 6139SOL     OW20423   3.905   6.760   9.790  1.0785  0.5821  0.3877
 6139SOL    HW120424   3.944   6.819   9.854  0.6643  2.1888 -0.7858
 6139SOL    HW220425   3.873   6.686   9.842 -0.0477  2.2353  2.1818
 6140SOL     OW20426   4.581   8.792  10.048 -0.3026 -0.0328  0.3928
 6140SOL    HW120427   4.571   8.883  10.020  0.1004 -0.6051 -1.7429
 6140SOL    HW220428   4.565   8.740   9.969  2.7971 -1.6651  0.6908
 6141SOL     OW20429   0.423   7.248   7.859  0.0586 -0.0671 -0.9730
 6141SOL    HW120430   0.472   7.267   7.780 -1.2435 -0.1492 -1.8394
 6141SOL    HW220431   0.331   7.252   7.832 -0.4049 -1.0076  0.3213
 6142SOL     OW20432   4.630  10.237   3.034  0.1863 -0.1520  0.5593
 6142SOL    HW120433   4.544  10.199   3.016  0.0945 -0.9200  2.4311
 6142SOL    HW220434   4.680  10.166   3.074  2.1730 -0.1189 -1.6249
 6143SOL     OW20435   0.268   0.567   0.464  0.2905  0.0695  0.1664
 6143SOL    HW120436   0.218   0.637   0.505 -1.6832 -1.4603  0.5313
 6143SOL    HW220437   0.279   0.502   0.533  2.6804  0.2606  0.0262
 6144SOL     OW20438   7.780   3.129   7.280  0.1864  0.1972 -0.5816
 6144SOL    HW120439   7.795   3.150   7.188 -0.6241  0.8205 -0.5811
 6144SOL    HW220440   7.711   3.189   7.308  1.9964  1.6495  1.0803
 6145SOL     OW20441   2.251  10.979   6.190  0.3536  0.2638 -0.6824
 6145SOL    HW120442   2.179  10.967   6.128 -0.4506  1.3727 -0.0002
 6145SOL    HW220443   2.238  11.068   6.225  0.1842 -0.6696  1.8267
 6146SOL     OW20444   8.188   5.324   4.457  0.3292 -0.2516  0.3848
 6146SOL    HW120445   8.215   5.392   4.395 -2.1485 -0.0425 -0.5830
 6146SOL    HW220446   8.171   5.370   4.539  2.6336 -0.3827  1.0066
 6147SOL     OW20447   6.004   9.950   1.805  0.1725  0.1418 -0.2987
 6147SOL    HW120448   6.051   9.942   1.722 -0.2748  0.0804 -0.5559
 6147SOL    HW220449   5.922   9.901   1.790 -1.2392  2.5271 -0.8356
 6148SOL     OW20450   7.091   9.114   9.318  0.1005  0.3538  0.0245
 6148SOL    HW120451   7.147   9.107   9.240  1.9134 -2.2435  1.4215
 6148SOL    HW220452   7.040   9.034   9.318 -0.0000  0.4045  1.4261
 6149SOL     OW20453   7.185  10.594   3.298  0.0733  0.2474 -0.0327
 6149SOL    HW120454   7.218  10.678   3.329  2.9677 -0.6939 -0.2579
 6149SOL    HW220455   7.199  10.597   3.203 -0.9791 -0.0430 -0.2101
 6150SOL     OW20456  11.129   0.446   7.209  0.1844 -0.7485  0.3522
 6150SOL    HW120457  11.049   0.394   7.218 -1.3892  1.6406  1.1928
 6150SOL    HW220458  11.132   0.468   7.116 -0.9880  0.3119  0.5326
 6151SOL     OW20459   8.392   9.921   8.289 -0.5011 -0.3894 -0.1671
 6151SOL    HW120460   8.400   9.831   8.320 -0.7838 -0.6811 -0.9490
 6151SOL    HW220461   8.460   9.930   8.223 -0.9138 -0.2361 -0.5749
 6152SOL     OW20462  10.900   9.323   9.858 -0.5943  0.5114  0.0915
 6152SOL    HW120463  10.836   9.348   9.925 -2.8291 -0.7867 -1.4296
 6152SOL    HW220464  10.939   9.405   9.830 -0.4918  1.1969  2.0858
 6153SOL     OW20465  10.178   6.310   3.884 -0.2137  0.4639 -0.3517
 6153SOL    HW120466  10.132   6.318   3.801 -0.0711 -1.8252 -0.7247
 6153SOL    HW220467  10.253   6.254   3.864  0.6510  1.0828  1.0276
 6154SOL     OW20468  10.292   0.871   1.559 -0.2924  0.3898  0.2491
 6154SOL    HW120469  10.357   0.829   1.503  0.5762  2.4696 -0.4259
 6154SOL    HW220470  10.213   0.876   1.505 -0.4701 -0.5174  0.4139
 6155SOL     OW20471   2.206   8.159   5.082 -0.3213  0.6825 -0.0313
 6155SOL    HW120472   2.227   8.209   5.003  0.6819 -1.1455 -0.9910
 6155SOL    HW220473   2.291   8.124   5.111 -0.7495  0.9016  1.5885
 6156SOL     OW20474   3.319   6.460   7.118 -0.3324 -0.1632 -0.0802
 6156SOL    HW120475   3.384   6.403   7.078 -1.2019 -0.8869 -0.5014
 6156SOL    HW220476   3.328   6.543   7.071 -0.0612 -0.4215 -0.4959
 6157SOL     OW20477  10.399   3.649   9.649 -1.0778 -0.0134 -0.0585
 6157SOL    HW120478  10.443   3.580   9.601 -0.9114 -0.6315  0.9459
 6157SOL    HW220479  10.362   3.706   9.582  0.8993  0.2986 -0.9492
 6158SOL     OW20480  10.137  10.333   7.065 -0.2705  0.5718  0.3821
 6158SOL    HW120481  10.154  10.417   7.023  0.9555  0.4415  0.6046
 6158SOL    HW220482  10.217  10.312   7.113 -0.6010 -0.6589  0.4478
 6159SOL     OW20483   4.727   9.004   8.724  0.2364  0.2373  0.0715
 6159SOL    HW120484   4.797   8.953   8.685 -0.2617  0.4330 -1.1151
 6159SOL    HW220485   4.772   9.078   8.765  0.8266 -0.3455  0.4964
 6160SOL     OW20486   2.856   6.015   0.025 -0.0759  0.1058  0.2460
 6160SOL    HW120487   2.767   5.997  -0.003  0.3221  0.5399 -1.3620
 6160SOL    HW220488   2.911   5.961  -0.032  0.8411  2.1436 -0.8980
 6161SOL     OW20489   3.253   3.166   1.556 -0.0208 -0.2096 -0.2324
 6161SOL    HW120490   3.221   3.093   1.609  2.2398 -1.4633 -0.5056
 6161SOL    HW220491   3.306   3.125   1.487  2.0072  1.7067  0.0838
 6162SOL     OW20492   7.408   6.342   6.829 -0.1475 -0.2420  0.1038
 6162SOL    HW120493   7.371   6.264   6.869  1.2369 -1.4592 -0.9015
 6162SOL    HW220494   7.475   6.371   6.890 -0.2364 -0.1996  0.1817
 6163SOL     OW20495   5.928   0.027   9.712  0.1232  0.3752 -0.4542
 6163SOL    HW120496   5.933  -0.045   9.649  0.6069  0.4331 -0.4862
 6163SOL    HW220497   5.908   0.104   9.658  0.3088  0.3845 -0.5111
 6164SOL     OW20498   5.824   3.968   3.789 -0.0973  0.2051 -0.0159
 6164SOL    HW120499   5.762   3.904   3.752 -1.9308  2.6117 -1.3941
 6164SOL    HW220500   5.778   4.005   3.864  0.2880  0.9687 -0.1457
 6165SOL     OW20501   9.443   0.938   7.650 -0.0955  0.0520 -0.0698
 6165SOL    HW120502   9.407   1.027   7.648  0.4745  0.3500  1.6172
 6165SOL    HW220503   9.376   0.885   7.691  0.7567  0.3445  1.8065
 6166SOL     OW20504   7.722   0.150   2.379  0.2500  1.1021 -0.6318
 6166SOL    HW120505   7.804   0.100   2.390  0.7183  2.3383  2.9798
 6166SOL    HW220506   7.661   0.087   2.342  1.9599 -0.8837 -0.3037
 6167SOL     OW20507   8.213   9.594   4.843  0.2065  0.2828  1.0638
 6167SOL    HW120508   8.152   9.532   4.804  0.2265  1.3075 -0.6793
 6167SOL    HW220509   8.297   9.548   4.841 -0.1786 -0.5150  2.0021
 6168SOL     OW20510   1.500   7.437   3.859 -0.3580  0.2932 -0.8873
 6168SOL    HW120511   1.463   7.349   3.854  1.1308 -0.3795 -0.8454
 6168SOL    HW220512   1.431   7.495   3.827 -3.3800 -0.2306  3.7849
 6169SOL     OW20513   0.541   6.189   6.690  0.5422 -0.0422 -0.5552
 6169SOL    HW120514   0.586   6.273   6.700 -0.1580  0.3451 -0.5794
 6169SOL    HW220515   0.485   6.201   6.613 -1.2882  0.2796  0.7426
 6170SOL     OW20516   1.827   8.867   2.848  0.1618 -0.3549 -0.1510
 6170SOL    HW120517   1.814   8.777   2.818  0.4009 -0.2295 -0.6395
 6170SOL    HW220518   1.871   8.910   2.775 -1.1518  0.5166 -0.4631
 6171SOL     OW20519   0.769   3.208  11.137 -0.4399 -0.0609  0.0538
 6171SOL    HW120520   0.819   3.213  11.219 -0.0230 -2.5945  0.0407
 6171SOL    HW220521   0.811   3.271  11.079 -1.1459  2.2690  1.9349
 6172SOL     OW20522   4.254   0.677   9.095 -0.0914 -0.1696 -0.2053
 6172SOL    HW120523   4.242   0.756   9.043  2.6183  0.7736  0.4330
 6172SOL    HW220524   4.194   0.614   9.057 -2.7892  2.2981 -0.3990
 6173SOL     OW20525   8.446   5.756   2.733  0.2385  0.0698  0.4821
 6173SOL    HW120526   8.435   5.661   2.735  0.1597  0.0868  0.8994
 6173SOL    HW220527   8.465   5.780   2.824  1.1485  0.3460  0.2326
 6174SOL     OW20528   9.441  10.736   6.799 -0.3842 -0.4006  0.2007
 6174SOL    HW120529   9.518  10.679   6.794  1.1596  1.6147 -0.3042
 6174SOL    HW220530   9.395  10.708   6.878  1.1065 -1.3729  0.7551
 6175SOL     OW20531  10.810   1.760   2.692  0.3002 -0.2391 -0.3487
 6175SOL    HW120532  10.905   1.758   2.684  0.5713  0.6979  1.8651
 6175SOL    HW220533  10.787   1.674   2.725  0.9549  0.8255  3.2553
 6176SOL     OW20534   8.923   8.926  10.908  0.1180 -0.0481 -0.2989
 6176SOL    HW120535   8.945   8.954  10.819  0.3848  1.4411  0.1999
 6176SOL    HW220536   9.000   8.876  10.936  1.0069  1.3432 -0.1520
 6177SOL     OW20537   0.437   4.962   0.814 -0.9218  0.2519 -0.2493
 6177SOL    HW120538   0.347   4.950   0.785 -0.9031  2.1188 -1.2026
 6177SOL    HW220539   0.486   4.978   0.733 -0.5151  3.6039  0.5197
 6178SOL     OW20540   4.664   4.617   5.086  0.0518 -0.3187 -0.2415
 6178SOL    HW120541   4.702   4.534   5.055 -2.3870 -1.3168 -0.8231
 6178SOL    HW220542   4.646   4.666   5.006 -0.2372 -0.0287  0.0012
 6179SOL     OW20543   3.184   3.481   7.887 -0.1890  0.0653  0.3692
 6179SOL    HW120544   3.247   3.410   7.876  0.5457  0.8158 -0.4529
 6179SOL    HW220545   3.173   3.489   7.982  0.6507 -0.3390  0.5112
 6180SOL     OW20546   2.049   1.617   5.839 -1.0001  0.0829 -0.5397
 6180SOL    HW120547   2.074   1.541   5.891  0.0726  0.1165 -0.9939
 6180SOL    HW220548   2.070   1.592   5.749 -1.5300  0.5659 -0.8045
 6181SOL     OW20549   1.566   4.266   7.299  0.4229  0.4039  0.6554
 6181SOL    HW120550   1.639   4.273   7.361  0.2956  1.1635  0.7300
 6181SOL    HW220551   1.573   4.344   7.244  0.7143 -0.4211 -0.5068
 6182SOL     OW20552   5.483   7.424   2.520  0.1416  0.5964 -0.0349
 6182SOL    HW120553   5.424   7.419   2.445 -0.4900  0.2986  0.4738
 6182SOL    HW220554   5.448   7.361   2.582  0.3345  1.2373  0.7383
 6183SOL     OW20555   1.657   0.286  10.043  0.1636 -0.2365  0.9810
 6183SOL    HW120556   1.566   0.284  10.014  0.5378 -0.6676 -0.2385
 6183SOL    HW220557   1.678   0.380  10.050  0.1196 -0.1035 -0.4124
 6184SOL     OW20558   1.540   2.071   4.213 -0.5267  0.0620  0.1109
 6184SOL    HW120559   1.613   2.120   4.250  0.3815  0.4437 -2.0524
 6184SOL    HW220560   1.545   1.986   4.256  0.4377  0.4721  0.8674
 6185SOL     OW20561   7.996   7.441   5.688 -0.6006  0.1788 -0.0091
 6185SOL    HW120562   8.017   7.522   5.641 -1.5527  1.7247  2.0594
 6185SOL    HW220563   8.062   7.436   5.757  1.0950 -2.3244 -1.6734
 6186SOL     OW20564   6.769   3.671   3.477 -0.0852 -0.0249  0.1807
 6186SOL    HW120565   6.683   3.653   3.515 -0.1063  1.5664  0.9474
 6186SOL    HW220566   6.800   3.585   3.447 -0.8354 -1.0452  2.1782
 6187SOL     OW20567   1.443   4.439   5.889  0.2922  0.2721 -0.3799
 6187SOL    HW120568   1.523   4.481   5.859 -0.5087  2.1559  0.0263
 6187SOL    HW220569   1.393   4.509   5.930 -0.4375 -1.3699  1.7266
 6188SOL     OW20570   2.118   5.311   6.315 -0.0341 -0.2999  0.0124
 6188SOL    HW120571   2.086   5.290   6.403 -1.8038  0.4920 -0.3826
 6188SOL    HW220572   2.129   5.406   6.316 -0.7825 -0.1866 -0.8059
 6189SOL     OW20573   2.961   7.291   9.526 -0.1986 -0.1329  0.4298
 6189SOL    HW120574   3.039   7.346   9.525 -0.1514 -0.1583 -1.7604
 6189SOL    HW220575   2.968   7.241   9.608  2.1353 -0.2156  0.2504
 6190SOL     OW20576   8.928   0.620   2.477  0.3902  0.1683  0.0654
 6190SOL    HW120577   8.874   0.584   2.548  1.4336 -2.3648 -0.3373
 6190SOL    HW220578   8.866   0.667   2.421 -0.9498 -0.4332  0.9923
 6191SOL     OW20579   1.683   5.984   9.975  0.1332  0.1331 -0.2266
 6191SOL    HW120580   1.744   6.040  10.024  1.9796 -1.6254 -0.3784
 6191SOL    HW220581   1.706   5.999   9.883  1.6265 -1.7963 -0.2367
 6192SOL     OW20582   3.123   0.732   6.525  0.0516 -0.3565  0.1472
 6192SOL    HW120583   3.036   0.769   6.510  1.3952  2.2141 -2.0925
 6192SOL    HW220584   3.158   0.783   6.597 -0.2587 -1.4218  1.0773
 6193SOL     OW20585   1.178   6.640  10.429 -0.8175 -0.1081  0.1358
 6193SOL    HW120586   1.194   6.698  10.504  0.1385  0.4338 -0.4785
 6193SOL    HW220587   1.187   6.696  10.352 -1.2979 -0.7701 -0.4228
 6194SOL     OW20588   1.267   3.577   3.525 -0.1398  0.0709  0.2708
 6194SOL    HW120589   1.288   3.660   3.483 -1.3919  0.1799 -0.1699
 6194SOL    HW220590   1.328   3.571   3.599 -0.8582  1.9911  1.0795
 6195SOL     OW20591   8.930   6.984   4.570  0.5084  0.6016 -0.0919
 6195SOL    HW120592   9.002   6.923   4.552  0.5694  0.6019  0.1456
 6195SOL    HW220593   8.867   6.969   4.500  0.1518 -0.3080  0.4046
 6196SOL     OW20594   6.858   3.775   6.480 -0.3641 -0.1562 -0.4011
 6196SOL    HW120595   6.790   3.741   6.422  1.8772 -1.5998 -2.3221
 6196SOL    HW220596   6.884   3.700   6.534 -0.2815  0.3756  0.3096
 6197SOL     OW20597   1.954   6.652  10.091 -0.1558  0.0607 -0.0989
 6197SOL    HW120598   2.033   6.682  10.136  0.3548 -0.8762 -0.3525
 6197SOL    HW220599   1.882   6.695  10.138  0.4801  0.7474  0.2732
 6198SOL     OW20600   1.825  10.363   1.137 -0.3517 -0.1453  0.1289
 6198SOL    HW120601   1.897  10.341   1.197 -0.6645  2.6542  1.6992
 6198SOL    HW220602   1.864  10.422   1.073 -0.8844  0.0569 -0.0150
 6199SOL     OW20603   8.287   1.925   4.656 -0.0541  0.7589 -0.3780
 6199SOL    HW120604   8.257   1.887   4.739 -0.7486  0.9635 -0.5267
 6199SOL    HW220605   8.320   1.850   4.606 -2.5344  0.0962 -1.1567
 6200SOL     OW20606   4.985   7.878   2.249  0.1774 -0.3454  0.1780
 6200SOL    HW120607   5.038   7.869   2.169 -0.5918  0.2550 -0.4155
 6200SOL    HW220608   4.976   7.972   2.261 -3.9011 -0.2859 -1.9165
 6201SOL     OW20609   1.388   5.820   3.190  0.5016 -0.2616 -0.1896
 6201SOL    HW120610   1.431   5.816   3.104  0.3207 -3.2018 -0.2574
 6201SOL    HW220611   1.348   5.734   3.201 -0.2479  0.3200  2.4982
 6202SOL     OW20612   7.879   5.531  10.035 -0.3722  0.4959  0.8122
 6202SOL    HW120613   7.815   5.473  10.076 -0.9715  0.5105 -0.0681
 6202SOL    HW220614   7.849   5.539   9.944  0.5780  0.9421  0.5254
 6203SOL     OW20615   1.913   1.183   6.423 -0.2917  0.1131 -0.4126
 6203SOL    HW120616   2.002   1.182   6.388  0.6141 -2.9079  1.6042
 6203SOL    HW220617   1.865   1.120   6.368 -1.2372  1.6069 -1.3904
 6204SOL     OW20618  10.639   9.163   7.782  0.1537 -0.2664 -0.1417
 6204SOL    HW120619  10.718   9.140   7.733  0.6853  0.6318  0.2697
 6204SOL    HW220620  10.627   9.092   7.844 -0.1178 -1.0635 -1.0691
 6205SOL     OW20621   4.983  11.073  10.106 -0.4353 -0.6855 -0.0324
 6205SOL    HW120622   5.053  11.050  10.168 -1.6735  0.3991  1.8694
 6205SOL    HW220623   5.011  11.034  10.023  0.5377 -3.6266  1.5380
 6206SOL     OW20624   5.197   6.918   3.433 -0.9409  0.7342  0.1227
 6206SOL    HW120625   5.215   6.824   3.434 -1.6001  0.6006  0.2775
 6206SOL    HW220626   5.276   6.958   3.397  0.3803  0.3648  2.4674
 6207SOL     OW20627   8.180   1.771   7.539 -0.4408 -0.2387 -0.0907
 6207SOL    HW120628   8.265   1.744   7.576  0.3755  1.3311 -0.7253
 6207SOL    HW220629   8.154   1.697   7.484  0.5575 -0.7195  0.0464
 6208SOL     OW20630  10.279   6.840   0.279  0.0067 -0.9095 -0.1256
 6208SOL    HW120631  10.359   6.814   0.325 -0.5512 -0.6769  1.0137
 6208SOL    HW220632  10.261   6.767   0.220  1.7928 -0.3736 -1.4027
 6209SOL     OW20633   0.136   8.719   2.766 -0.0914 -0.4998 -0.5938
 6209SOL    HW120634   0.119   8.679   2.680 -0.0128  0.8193 -1.2474
 6209SOL    HW220635   0.171   8.805   2.745  0.8887 -0.5414  0.7791
 6210SOL     OW20636   1.696   4.021   4.600  0.1568  0.4236 -0.0491
 6210SOL    HW120637   1.723   3.961   4.531  2.3909  1.1334  0.1353
 6210SOL    HW220638   1.751   3.999   4.674 -2.7038 -0.8335  1.8834
 6211SOL     OW20639  10.409  10.568   8.134 -0.1971 -0.0819 -0.2961
 6211SOL    HW120640  10.342  10.585   8.068 -0.1446 -0.5526 -0.4779
 6211SOL    HW220641  10.466  10.646   8.131  1.3290 -1.1547 -2.6819
 6212SOL     OW20642   1.391   1.026   5.910 -0.3793  0.1288  0.7091
 6212SOL    HW120643   1.406   0.948   5.963 -3.4946  0.0958  1.7258
 6212SOL    HW220644   1.298   1.045   5.922 -0.5199  1.9114 -2.3925
 6213SOL     OW20645   1.549  11.075   4.043  0.2881 -0.2178 -0.3094
 6213SOL    HW120646   1.544  11.026   4.125  0.3777  1.2214  0.5973
 6213SOL    HW220647   1.638  11.108   4.039 -0.4684  2.1533  0.5386
 6214SOL     OW20648  11.270   2.586   8.179 -0.6305  0.1431  0.4766
 6214SOL    HW120649  11.179   2.609   8.160 -0.6337  0.5261  0.9432
 6214SOL    HW220650  11.267   2.544   8.265 -0.0636  2.4505  1.6963
 6215SOL     OW20651   5.793   4.729  10.549  0.9555 -0.8758  0.1174
 6215SOL    HW120652   5.786   4.762  10.459 -0.1878  2.0870  1.1462
 6215SOL    HW220653   5.887   4.722  10.565  1.2272  0.5155 -0.7184
 6216SOL     OW20654  10.302   4.353  10.666 -0.2910 -0.0086  0.1509
 6216SOL    HW120655  10.373   4.299  10.701 -1.1499 -0.7406  0.7997
 6216SOL    HW220656  10.223   4.303  10.682 -0.6979 -1.1874 -4.2440
 6217SOL     OW20657   2.451   6.693   7.459 -0.0575  0.1369 -0.2981
 6217SOL    HW120658   2.363   6.671   7.488 -0.4912  0.0606 -1.6148
 6217SOL    HW220659   2.448   6.685   7.363  1.4308 -0.1018 -0.3547
 6218SOL     OW20660   7.371   8.370   5.452  0.2583 -0.5648  0.4034
 6218SOL    HW120661   7.328   8.286   5.466 -0.8496 -0.0866 -0.0315
 6218SOL    HW220662   7.334   8.428   5.518  1.6250 -0.5909  1.2504
 6219SOL     OW20663   9.075   8.625   8.097  0.9784 -0.1200  0.0819
 6219SOL    HW120664   9.128   8.554   8.060  2.1438 -0.9596  3.0662
 6219SOL    HW220665   9.114   8.705   8.063  0.8416 -0.8359 -1.8553
 6220SOL     OW20666   2.262   6.783   0.375 -0.5362  0.1212  0.1714
 6220SOL    HW120667   2.198   6.714   0.394 -1.5698  0.7778 -0.7685
 6220SOL    HW220668   2.256   6.795   0.280  1.2176  0.0082  0.0151
 6221SOL     OW20669   4.114   6.112   7.655 -0.3928  0.5152 -0.0941
 6221SOL    HW120670   4.101   6.201   7.621  0.0889  0.5712 -0.1397
 6221SOL    HW220671   4.026   6.082   7.676 -0.8385  0.1308 -2.2649
 6222SOL     OW20672   0.546   8.524   0.522 -0.0407  1.0725  0.4735
 6222SOL    HW120673   0.478   8.498   0.584 -1.8924  0.3541 -1.7275
 6222SOL    HW220674   0.628   8.493   0.562 -1.4010 -1.7083  1.3737
 6223SOL     OW20675   9.942   8.328   4.057 -0.0190 -0.1363 -0.0279
 6223SOL    HW120676  10.016   8.321   3.998 -0.0455 -0.0024 -0.0779
 6223SOL    HW220677   9.899   8.242   4.053 -1.5098  0.6269 -2.1445
 6224SOL     OW20678   9.504   1.230   0.973 -0.1024  0.5393  0.2104
 6224SOL    HW120679   9.423   1.183   0.952 -1.7976  3.0315  0.7258
 6224SOL    HW220680   9.509   1.228   1.068  1.4578 -1.1010  0.1362
 6225SOL     OW20681   4.934   3.712   8.760  0.5447  0.2584 -0.2907
 6225SOL    HW120682   4.909   3.629   8.800 -4.0292  1.1310 -0.7582
 6225SOL    HW220683   4.885   3.778   8.809 -2.6963  1.7099 -4.7706
 6226SOL     OW20684   2.370   2.690   8.694  0.0287 -0.2946  0.4139
 6226SOL    HW120685   2.429   2.669   8.767  0.7845  0.5886  0.0697
 6226SOL    HW220686   2.427   2.726   8.626 -1.0684  2.1196  0.6668
 6227SOL     OW20687  10.602   3.611   1.692 -0.7200  0.2781 -0.4787
 6227SOL    HW120688  10.658   3.638   1.765  3.0936 -0.2895 -2.8998
 6227SOL    HW220689  10.571   3.524   1.718  0.6178  0.0453  0.5074
 6228SOL     OW20690   5.392   4.380   4.770 -0.2635 -0.3829 -0.0710
 6228SOL    HW120691   5.301   4.351   4.766 -0.3326 -0.0719 -3.8555
 6228SOL    HW220692   5.443   4.301   4.752  0.2491 -0.4023  1.3141
 6229SOL     OW20693   1.766   7.137   8.682 -0.8220  0.7036  0.4843
 6229SOL    HW120694   1.772   7.232   8.673 -1.0654  1.2629  4.4033
 6229SOL    HW220695   1.853   7.110   8.710 -0.2099 -0.6223 -2.3982
 6230SOL     OW20696   3.901   4.573  10.672 -0.4579 -0.7867 -0.6183
 6230SOL    HW120697   3.872   4.557  10.582 -0.3920 -0.8112 -0.6350
 6230SOL    HW220698   3.992   4.600  10.664 -0.9403  0.9789 -0.7198
 6231SOL     OW20699   8.293  10.592   2.407  0.3330  0.0846 -0.1595
 6231SOL    HW120700   8.370  10.647   2.395 -0.2494  0.8736 -0.3160
 6231SOL    HW220701   8.230  10.624   2.343 -1.0079  1.0714  1.5760
 6232SOL     OW20702   7.164   2.888   2.846 -0.4920  0.0854  0.1062
 6232SOL    HW120703   7.116   2.809   2.820 -1.6789  1.2054 -1.3338
 6232SOL    HW220704   7.207   2.917   2.765 -0.2446  1.0155  0.5700
 6233SOL     OW20705   3.176  10.024  10.009 -0.3147 -0.0488 -0.0261
 6233SOL    HW120706   3.148  10.113   9.990 -0.5638 -0.3278 -1.0517
 6233SOL    HW220707   3.203  10.026  10.100 -0.8785  0.9326  0.1351
 6234SOL     OW20708   1.966   0.230   5.455  0.1921 -0.3988  0.2522
 6234SOL    HW120709   1.890   0.216   5.512 -0.6783  0.0946 -0.7402
 6234SOL    HW220710   2.040   0.233   5.514 -0.3269 -2.5823  1.1033
 6235SOL     OW20711   6.572  10.969   2.455 -0.4306 -0.3885  0.3893
 6235SOL    HW120712   6.541  11.011   2.375 -0.7452  0.5186  0.9616
 6235SOL    HW220713   6.630  11.034   2.494  0.8055 -1.3619  0.2262
 6236SOL     OW20714   4.443   4.425  10.006  0.0776 -0.1820 -0.6321
 6236SOL    HW120715   4.523   4.443  10.054  0.4907  0.9337 -1.6802
 6236SOL    HW220716   4.420   4.509   9.966 -2.2566 -0.1673  0.5495
 6237SOL     OW20717   5.220  11.058   3.300 -0.0932  0.6481 -0.5565
 6237SOL    HW120718   5.221  11.031   3.392 -3.0386  3.2674  0.3952
 6237SOL    HW220719   5.164  10.994   3.257  1.2317 -0.5397 -0.6094
 6238SOL     OW20720  10.567   5.151   9.031  0.0208  0.7816  0.0202
 6238SOL    HW120721  10.642   5.109   8.989 -0.1196 -0.7582  1.2236
 6238SOL    HW220722  10.605   5.202   9.102 -0.0431  0.1925  0.4822
 6239SOL     OW20723   4.543   8.345   8.407 -0.9063 -0.4709  0.6206
 6239SOL    HW120724   4.532   8.254   8.380 -2.2092 -0.2126  0.2410
 6239SOL    HW220725   4.492   8.353   8.487 -3.3247  0.6241 -0.9037
 6240SOL     OW20726   0.818   8.763  10.934 -0.0122  0.0856  0.1394
 6240SOL    HW120727   0.812   8.742  11.027  0.1018 -3.5582 -0.5400
 6240SOL    HW220728   0.728   8.755  10.902  0.2669 -1.0662 -0.4304
 6241SOL     OW20729  10.315   0.502   6.505  0.1156  0.7462 -0.0355
 6241SOL    HW120730  10.305   0.407   6.503  1.5440  0.5780 -0.8569
 6241SOL    HW220731  10.322   0.523   6.598  2.2106 -0.2858  0.1074
 6242SOL     OW20732   1.129   1.043   0.843 -0.0058  0.5176  0.4625
 6242SOL    HW120733   1.144   0.955   0.811 -0.0305  1.2775 -1.7925
 6242SOL    HW220734   1.054   1.075   0.793 -1.2687  1.1757  2.6246
 6243SOL     OW20735   1.226   1.073   6.818 -0.0010  0.2766 -0.1820
 6243SOL    HW120736   1.319   1.077   6.841 -0.2950 -0.2816  1.2088
 6243SOL    HW220737   1.201   0.982   6.834 -0.5140  0.1003 -1.7759
 6244SOL     OW20738   7.417   9.786   1.788 -0.0882 -0.0742  0.0250
 6244SOL    HW120739   7.475   9.725   1.834  0.1356  0.6559  0.7512
 6244SOL    HW220740   7.351   9.809   1.854 -1.3108 -1.0230 -0.8417
 6245SOL     OW20741   8.637   7.492   1.554  0.3336  0.3673 -0.3673
 6245SOL    HW120742   8.606   7.411   1.514 -0.7526  0.1470  0.8682
 6245SOL    HW220743   8.684   7.464   1.633 -0.2942  0.9290  0.2234
 6246SOL     OW20744   8.057   9.613  10.889  0.3685  0.4866  0.4182
 6246SOL    HW120745   8.083   9.539  10.835 -1.8927  1.1003 -1.6847
 6246SOL    HW220746   8.020   9.676  10.827 -0.9707  1.8958  2.5338
 6247SOL     OW20747   8.855   9.435   9.095 -0.0370  0.4234 -0.1463
 6247SOL    HW120748   8.905   9.359   9.125 -0.5304  1.0914  2.6220
 6247SOL    HW220749   8.916   9.508   9.102 -0.5424  0.7942  0.4257
 6248SOL     OW20750   6.839   7.536   1.836 -0.4188 -0.0153 -0.1355
 6248SOL    HW120751   6.796   7.565   1.755  0.1716 -0.0325 -0.4643
 6248SOL    HW220752   6.863   7.445   1.819  0.1663  0.1323 -0.1504
 6249SOL     OW20753   8.141   5.021   8.634  0.3739 -0.7915  0.3760
 6249SOL    HW120754   8.066   5.055   8.683  0.1508 -0.3838 -0.2389
 6249SOL    HW220755   8.102   4.969   8.563  0.6295  0.1673 -0.4952
 6250SOL     OW20756  11.206   3.307   2.389  0.8716  0.1822  0.2124
 6250SOL    HW120757  11.239   3.288   2.477  1.1444 -2.1784 -0.3442
 6250SOL    HW220758  11.249   3.243   2.333 -2.6117 -1.3505 -0.9799
 6251SOL     OW20759   3.491   6.390   5.228 -0.7373  0.5229 -0.4140
 6251SOL    HW120760   3.553   6.338   5.281 -1.7693 -1.6026 -1.1861
 6251SOL    HW220761   3.490   6.346   5.143 -3.4749  0.3081 -0.3502
 6252SOL     OW20762   2.639  10.236   9.801  0.2665  0.4614 -0.1972
 6252SOL    HW120763   2.553  10.278   9.807  0.4728  0.9552 -0.5383
 6252SOL    HW220764   2.686  10.288   9.735  1.2876  1.0153  0.9397
 6253SOL     OW20765   5.738  10.117  10.070 -0.0731 -0.2217  0.2819
 6253SOL    HW120766   5.646  10.095  10.088 -0.2298  1.3459  1.6535
 6253SOL    HW220767   5.780  10.032  10.056 -1.0983 -1.2833  2.8840
 6254SOL     OW20768   3.922   1.742   4.641  0.1268 -0.2346  0.1835
 6254SOL    HW120769   3.910   1.676   4.711 -0.3467  0.4844  0.7955
 6254SOL    HW220770   3.924   1.825   4.688 -1.2173  0.3482 -0.7502
 6255SOL     OW20771   3.662   0.546   6.325 -0.1332  0.2928 -0.2522
 6255SOL    HW120772   3.586   0.502   6.288 -0.9035  0.6880  0.8333
 6255SOL    HW220773   3.729   0.477   6.330  0.0068  0.2099 -2.2964
 6256SOL     OW20774   4.446   5.510   3.548  0.5185 -0.3074 -0.4275
 6256SOL    HW120775   4.456   5.605   3.550  1.3597 -0.3905 -0.4225
 6256SOL    HW220776   4.372   5.495   3.488 -2.5682  0.5438  2.7721
 6257SOL     OW20777   1.205   1.951   1.443 -0.4125  0.5412 -1.4214
 6257SOL    HW120778   1.132   2.013   1.444 -1.2743 -0.4460 -0.3698
 6257SOL    HW220779   1.237   1.949   1.533 -1.8884 -2.1846 -0.8700
 6258SOL     OW20780   8.744   6.247   4.441  0.2462  0.2774  0.0263
 6258SOL    HW120781   8.733   6.267   4.348  1.2169  0.4500 -0.0649
 6258SOL    HW220782   8.655   6.244   4.476 -0.2590 -1.6448 -1.2686
 6259SOL     OW20783   5.852   8.768   0.349 -0.6307  0.4684  0.0940
 6259SOL    HW120784   5.890   8.681   0.338  0.9517  1.2287 -0.5846
 6259SOL    HW220785   5.858   8.785   0.443  0.9046  0.6464 -0.0222
 6260SOL     OW20786   5.768   5.171   1.655 -0.0094 -0.2211  0.4636
 6260SOL    HW120787   5.858   5.184   1.626  0.2190 -2.2105  0.1705
 6260SOL    HW220788   5.739   5.091   1.611 -1.1406 -0.9068  2.3229
 6261SOL     OW20789   6.327   9.250   7.562 -0.2965 -0.1394 -0.3146
 6261SOL    HW120790   6.405   9.268   7.510  0.3485  2.6133  1.4505
 6261SOL    HW220791   6.311   9.156   7.548  2.0440 -0.3405 -2.3777
 6262SOL     OW20792   8.002   3.359   6.982  0.7412  0.1139 -0.3336
 6262SOL    HW120793   8.075   3.395   6.931  0.0731  0.2712 -1.2089
 6262SOL    HW220794   7.950   3.435   7.006 -0.9685 -0.2191 -2.6458
 6263SOL     OW20795  10.479   8.914  10.952  0.1731  0.4245  0.1130
 6263SOL    HW120796  10.477   8.982  10.885  1.3341  0.5256  0.1566
 6263SOL    HW220797  10.394   8.920  10.995 -0.4966  0.5425 -1.1616
 6264SOL     OW20798   6.897   5.041   2.076  0.5852  0.5942 -0.9086
 6264SOL    HW120799   6.806   5.060   2.096  0.5636  1.0281 -1.4072
 6264SOL    HW220800   6.900   5.029   1.981  0.9306 -0.0858 -0.8231
 6265SOL     OW20801   7.670   3.979   4.916  0.2830 -0.0293 -0.3125
 6265SOL    HW120802   7.705   3.918   4.982  1.9775  1.1592 -0.0451
 6265SOL    HW220803   7.583   3.945   4.896  0.4445 -1.4690  1.1937
 6266SOL     OW20804  10.007   5.446   9.735 -0.0647  0.9579 -0.1685
 6266SOL    HW120805  10.019   5.507   9.809  1.4766 -0.3757  0.7664
 6266SOL    HW220806  10.046   5.491   9.661  0.3909  1.4264  0.3415
 6267SOL     OW20807   1.818   4.412  10.789  0.3393  0.0509  0.2414
 6267SOL    HW120808   1.869   4.383  10.714  0.5917 -1.0288  0.8115
 6267SOL    HW220809   1.828   4.507  10.790 -0.1776  0.1522 -1.4494
 6268SOL     OW20810   7.169  10.594   7.264  0.0025 -0.6903  0.6960
 6268SOL    HW120811   7.252  10.549   7.281 -0.1185 -2.0236 -1.7668
 6268SOL    HW220812   7.183  10.683   7.296  1.9009 -1.2400  1.5374
 6269SOL     OW20813   2.855   9.999   7.654  0.6672  0.2074  0.0405
 6269SOL    HW120814   2.869   9.980   7.561  0.9155 -0.9167  0.2866
 6269SOL    HW220815   2.785  10.064   7.655  1.1923  0.8245 -0.9588
 6270SOL     OW20816   8.836   1.291   0.738 -0.9201  0.0022  0.1923
 6270SOL    HW120817   8.833   1.363   0.675  0.0753 -0.7395 -0.7520
 6270SOL    HW220818   8.834   1.212   0.684 -0.3652 -0.6590  1.1079
 6271SOL     OW20819   6.749   6.652   9.660 -0.2227  0.4711 -0.0408
 6271SOL    HW120820   6.795   6.735   9.667 -1.6392  1.4107 -1.3400
 6271SOL    HW220821   6.791   6.607   9.586  0.1399  0.2838  0.2744
 6272SOL     OW20822   6.486   9.462   9.960 -0.0762 -0.1400  0.2609
 6272SOL    HW120823   6.497   9.367   9.966  2.0104  0.1575  2.6813
 6272SOL    HW220824   6.427   9.483  10.032  0.1908  0.4873  0.2972
 6273SOL     OW20825   5.963   8.207   6.227  0.3261  0.3754 -0.8140
 6273SOL    HW120826   6.003   8.128   6.264 -3.3492 -1.0141  0.7007
 6273SOL    HW220827   5.936   8.258   6.303 -2.6359  0.0902 -1.5554
 6274SOL     OW20828   9.518  10.201   5.773  0.0184 -0.3839  0.0973
 6274SOL    HW120829   9.492  10.271   5.834 -2.3202 -1.1574  0.1121
 6274SOL    HW220830   9.450  10.202   5.706  1.2413 -1.1373 -1.1953
 6275SOL     OW20831   7.436   0.916   7.953  1.1488  0.0902  0.3106
 6275SOL    HW120832   7.391   1.000   7.967  2.1777  0.7118 -0.0149
 6275SOL    HW220833   7.382   0.872   7.887  1.5733  1.2957 -0.9058
 6276SOL     OW20834   3.015   3.521  10.514  0.4294 -0.0636 -0.4742
 6276SOL    HW120835   3.068   3.599  10.529 -1.2035  1.0182 -0.0424
 6276SOL    HW220836   3.023   3.503  10.420  1.0609  0.4346 -0.5183
 6277SOL     OW20837   7.829  10.196   3.312 -0.1282 -0.3797  0.1410
 6277SOL    HW120838   7.801  10.136   3.381  2.3164  0.0397  1.6569
 6277SOL    HW220839   7.758  10.260   3.305 -1.1956 -1.4218  1.0281
 6278SOL     OW20840   9.049   2.813  10.832  0.0569  0.1047  0.3739
 6278SOL    HW120841   8.963   2.805  10.791 -0.3331  1.5574  0.8369
 6278SOL    HW220842   9.086   2.725  10.828 -2.1043 -0.9584  1.5774
 6279SOL     OW20843  10.835   5.528   8.502  0.0734  0.2454  0.6996
 6279SOL    HW120844  10.924   5.559   8.483  0.4602 -0.7172  0.8940
 6279SOL    HW220845  10.810   5.478   8.424  0.6158 -1.4292  1.5528
 6280SOL     OW20846   2.100   2.625   9.767  0.2757 -0.1670  0.0264
 6280SOL    HW120847   2.133   2.559   9.705 -1.4467 -1.8376  0.8134
 6280SOL    HW220848   2.063   2.574   9.839  0.2909  1.7148  1.4327
 6281SOL     OW20849   5.213   8.141   3.009 -0.0427  0.3666  0.7365
 6281SOL    HW120850   5.266   8.068   3.040  1.3223  1.9557  2.2808
 6281SOL    HW220851   5.133   8.099   2.976  0.4094 -1.7787  2.1495
 6282SOL     OW20852   1.514   8.317  11.282 -0.6479  0.0574  0.3361
 6282SOL    HW120853   1.576   8.256  11.322  0.0792  0.2365 -0.4830
 6282SOL    HW220854   1.438   8.263  11.258 -0.2873 -0.4016  0.2234
 6283SOL     OW20855  10.443   1.752   2.805  0.0205 -0.7835  0.3932
 6283SOL    HW120856  10.357   1.763   2.845  0.1769  0.0555  0.5096
 6283SOL    HW220857  10.498   1.818   2.846  0.4446 -0.5911 -0.4514
 6284SOL     OW20858   9.414  10.386   4.464  0.7715 -0.4231 -0.1189
 6284SOL    HW120859   9.481  10.318   4.455 -0.3876 -1.4617 -1.4602
 6284SOL    HW220860   9.453  10.464   4.425  1.6398 -0.6636  0.2464
 6285SOL     OW20861   4.621   5.830   6.779  0.1502  0.3312  0.2915
 6285SOL    HW120862   4.699   5.869   6.740 -1.6855  1.3119 -2.7912
 6285SOL    HW220863   4.574   5.791   6.705 -1.2272 -2.2401  2.3550
 6286SOL     OW20864   9.486   4.022   9.263 -0.1398  0.1499  0.2313
 6286SOL    HW120865   9.441   3.937   9.263  2.1100 -1.1170  1.0606
 6286SOL    HW220866   9.508   4.038   9.171  0.2545 -0.6471  0.1814
 6287SOL     OW20867   5.637   4.769   0.355 -0.1384  0.4280  1.0235
 6287SOL    HW120868   5.630   4.865   0.352 -0.2981  0.3953 -0.1470
 6287SOL    HW220869   5.634   4.742   0.263 -0.2928 -0.7185  1.3503
 6288SOL     OW20870   4.535   2.139   1.350 -0.5115 -0.4721 -0.0841
 6288SOL    HW120871   4.449   2.158   1.313 -1.2857 -2.2928  0.6878
 6288SOL    HW220872   4.541   2.044   1.351  1.4284 -0.4003  0.1187
 6289SOL     OW20873   4.775   5.902   8.451  0.3236  0.1976  0.6620
 6289SOL    HW120874   4.788   5.921   8.358  1.7007 -1.4740  0.4831
 6289SOL    HW220875   4.759   5.808   8.455 -0.4021  0.3492  2.0755
 6290SOL     OW20876   7.647   5.052   7.753 -0.4081 -0.2170 -0.5322
 6290SOL    HW120877   7.676   4.961   7.757  0.0414 -0.0207  1.5185
 6290SOL    HW220878   7.556   5.049   7.782  0.3860  0.2427  2.2899
 6291SOL     OW20879   9.340   3.287   2.736  0.4597  0.2913 -0.1051
 6291SOL    HW120880   9.405   3.345   2.696  1.0437 -0.5413 -0.3804
 6291SOL    HW220881   9.343   3.309   2.829  1.0963  0.3106 -0.1230
 6292SOL     OW20882   8.891   7.915   2.465  0.0131 -0.7773  0.3407
 6292SOL    HW120883   8.914   7.942   2.376  2.5754 -0.4128  1.0232
 6292SOL    HW220884   8.819   7.973   2.490  0.0116 -0.1183 -1.0776
 6293SOL     OW20885  10.624   3.984   9.888 -0.2705  0.0409  0.0670
 6293SOL    HW120886  10.599   3.950   9.802 -2.3065 -1.7125  1.2705
 6293SOL    HW220887  10.547   4.031   9.919  1.3921  3.2608 -0.1750
 6294SOL     OW20888   5.678   7.871   5.451  0.0203 -0.2757  0.6713
 6294SOL    HW120889   5.586   7.849   5.463 -0.7040  2.3358  0.4764
 6294SOL    HW220890   5.721   7.787   5.436 -3.0604 -1.3856 -4.2253
 6295SOL     OW20891   1.817   1.964   7.499 -0.0228 -0.2194 -0.0410
 6295SOL    HW120892   1.783   1.973   7.410 -0.7223 -0.0192  0.2423
 6295SOL    HW220893   1.908   1.936   7.487  0.0723  0.3914 -0.8264
 6296SOL     OW20894   2.963   1.390  11.030 -0.8730  0.2419 -0.3602
 6296SOL    HW120895   2.956   1.424  10.941 -0.7200  1.7753  0.1741
 6296SOL    HW220896   3.057   1.380  11.045 -0.8758  0.4005 -0.2316
 6297SOL     OW20897   4.714   0.634   0.308  0.2292  0.1139  0.2525
 6297SOL    HW120898   4.620   0.618   0.304 -0.6939  3.9374  2.3101
 6297SOL    HW220899   4.732   0.651   0.400  2.5353  1.4774 -0.3560
 6298SOL     OW20900   3.735   8.951   6.290  0.0894  0.3138  0.2917
 6298SOL    HW120901   3.640   8.959   6.282  0.2141  1.0698 -0.5089
 6298SOL    HW220902   3.763   8.910   6.208  0.3535 -0.9115  0.9659
 6299SOL     OW20903   3.155   0.664   6.085 -0.2662  0.7106  0.0835
 6299SOL    HW120904   3.073   0.703   6.055 -0.5012  0.7956  0.8174
 6299SOL    HW220905   3.130   0.611   6.160  0.1992 -0.1134 -0.3387
 6300SOL     OW20906   2.784   6.602   1.101  0.4978 -0.4327  0.0676
 6300SOL    HW120907   2.754   6.516   1.130  0.5284 -0.8207 -1.0043
 6300SOL    HW220908   2.824   6.641   1.179 -1.1524 -0.6252  1.0541
 6301SOL     OW20909   0.415   1.496   1.678 -0.3869 -0.3484  0.0014
 6301SOL    HW120910   0.367   1.579   1.685 -0.3336 -0.2707 -0.5575
 6301SOL    HW220911   0.452   1.483   1.766  1.5969  1.4349 -0.4906
 6302SOL     OW20912   7.431   9.886  10.588  0.2892 -0.0776  0.2411
 6302SOL    HW120913   7.429   9.981  10.581 -0.1770 -0.1088 -0.0934
 6302SOL    HW220914   7.470   9.869  10.674 -0.2260  0.4304  0.5833
 6303SOL     OW20915   5.252   4.439  10.879 -0.6342 -0.3845 -0.5130
 6303SOL    HW120916   5.188   4.376  10.910 -0.2803  0.9206  3.3368
 6303SOL    HW220917   5.330   4.387  10.860  0.2785 -1.1978  4.3069
 6304SOL     OW20918   4.111   9.900   1.734 -0.5763 -0.4276  0.5847
 6304SOL    HW120919   4.116   9.988   1.772  0.1910  0.0646 -0.5845
 6304SOL    HW220920   4.139   9.842   1.805  0.2505  0.4093  0.9718
 6305SOL     OW20921   3.707   2.712   1.272 -0.1083  0.3376  0.5060
 6305SOL    HW120922   3.793   2.732   1.309  0.1180  0.6855 -0.1965
 6305SOL    HW220923   3.650   2.703   1.349  0.7980 -1.1664  1.0453
 6306SOL     OW20924   9.707   5.118   9.506 -0.0993  0.1801 -0.3365
 6306SOL    HW120925   9.628   5.153   9.464  0.3851  2.8132  0.7085
 6306SOL    HW220926   9.719   5.175   9.582  2.5150 -0.4839 -0.1931
 6307SOL     OW20927   9.245   1.384   9.930 -0.8338 -0.7472  0.2502
 6307SOL    HW120928   9.213   1.456   9.876 -1.1421 -1.8570 -1.1116
 6307SOL    HW220929   9.307   1.425   9.991 -1.4903  0.7493 -0.0385
 6308SOL     OW20930   7.720   0.597   3.654  0.0288 -0.5963 -0.1935
 6308SOL    HW120931   7.743   0.598   3.747  1.5541 -2.5870 -0.4871
 6308SOL    HW220932   7.798   0.628   3.609  0.3110 -2.3058 -0.9378
 6309SOL     OW20933  10.762  10.741   9.103 -0.1360  0.0198 -0.1640
 6309SOL    HW120934  10.698  10.750   9.032  1.8420  0.7159 -1.9320
 6309SOL    HW220935  10.753  10.650   9.132 -0.3938 -0.5376 -1.9167
 6310SOL     OW20936   3.923   4.658   5.796 -0.0592  0.4248  0.2187
 6310SOL    HW120937   3.966   4.586   5.748 -0.8602 -2.2456  3.1396
 6310SOL    HW220938   3.835   4.663   5.758  0.1450  0.1636 -0.3067
 6311SOL     OW20939   9.870   8.723   6.994  0.1250  0.2276  0.5185
 6311SOL    HW120940   9.777   8.702   6.982 -0.0983  0.3787  1.8706
 6311SOL    HW220941   9.888   8.700   7.085  1.1613  1.1387  0.5569
 6312SOL     OW20942   9.943   3.478   9.290 -0.0300  0.0828 -0.3093
 6312SOL    HW120943   9.984   3.399   9.325  0.1538  0.4749  0.3824
 6312SOL    HW220944   9.860   3.447   9.252 -0.9094 -0.1983  1.7031
 6313SOL     OW20945   9.069   7.016   3.457  0.4456 -0.5837  0.1969
 6313SOL    HW120946   9.160   6.997   3.482  1.1339  1.1371 -0.7940
 6313SOL    HW220947   9.072   7.025   3.361 -0.3551  1.4312  0.3222
 6314SOL     OW20948  10.791   2.342   5.223  0.3978  0.5455 -0.1671
 6314SOL    HW120949  10.784   2.381   5.310 -1.2203  1.5036 -0.6915
 6314SOL    HW220950  10.750   2.405   5.165 -2.0220 -1.7155 -1.1244
 6315SOL     OW20951   9.471   4.323   4.932 -0.5764  0.0804  0.4495
 6315SOL    HW120952   9.380   4.309   4.905 -0.7066  0.2911  0.7737
 6315SOL    HW220953   9.506   4.385   4.867 -0.6719  0.0152  0.3371
 6316SOL     OW20954   9.910   9.509   5.277 -0.5049 -0.5613 -0.1740
 6316SOL    HW120955   9.844   9.449   5.311  0.2246 -1.4063 -0.2382
 6316SOL    HW220956   9.934   9.563   5.352 -3.2125  1.6665 -0.7015
 6317SOL     OW20957   0.146   0.792   3.846 -0.1980 -0.0043  0.2293
 6317SOL    HW120958   0.127   0.736   3.771 -1.1317  0.3350  0.1912
 6317SOL    HW220959   0.217   0.848   3.817 -0.6837  0.2594 -0.4811
 6318SOL     OW20960   0.991   4.332   7.608  0.0933 -0.4548  0.4355
 6318SOL    HW120961   0.950   4.249   7.585  0.7964 -0.6228 -0.2761
 6318SOL    HW220962   1.080   4.309   7.633  0.6271  0.1655 -0.7691
 6319SOL     OW20963  10.740   8.350  10.453 -0.6629  0.3061  0.3570
 6319SOL    HW120964  10.825   8.337  10.411 -0.7640 -1.0985  0.5327
 6319SOL    HW220965  10.736   8.283  10.521 -1.9909  0.2042  0.2111
 6320SOL     OW20966   8.086   7.937   8.442 -0.0018 -0.8191 -0.4956
 6320SOL    HW120967   8.086   7.926   8.537  0.2326 -0.2504 -0.4275
 6320SOL    HW220968   8.065   8.029   8.428  4.3437  0.3424 -0.8340
 6321SOL     OW20969   8.149   0.872   4.131  0.4120  0.3774 -0.0137
 6321SOL    HW120970   8.213   0.904   4.067  0.6007  0.2918  0.1331
 6321SOL    HW220971   8.139   0.945   4.193  2.1974 -0.4692  1.3627
 6322SOL     OW20972   0.263   2.409   7.587  0.3026  0.4054 -0.2098
 6322SOL    HW120973   0.278   2.386   7.495  0.3553  0.5997 -0.2494
 6322SOL    HW220974   0.171   2.388   7.602  0.6482 -1.0100  0.0987
 6323SOL     OW20975   7.307   1.228   3.022  0.4564 -0.3446 -0.7956
 6323SOL    HW120976   7.271   1.193   3.104 -1.4325 -0.8584 -1.7830
 6323SOL    HW220977   7.294   1.322   3.028  3.8603  0.1830  1.0685
 6324SOL     OW20978  10.125   4.345   2.445  0.5872 -0.0931 -0.5753
 6324SOL    HW120979  10.107   4.436   2.422  0.2663 -0.3667 -1.4669
 6324SOL    HW220980  10.174   4.350   2.527 -2.4907  0.7700  1.3865
 6325SOL     OW20981   1.161   5.414   6.430 -0.5528  0.6472  0.8632
 6325SOL    HW120982   1.066   5.398   6.431 -0.2936 -1.0760  1.9996
 6325SOL    HW220983   1.170   5.501   6.392 -2.5609  0.6277  0.2281
 6326SOL     OW20984   7.748   5.394   9.472 -0.1500  0.2422  0.3207
 6326SOL    HW120985   7.703   5.320   9.513  1.9011 -2.8685 -2.5295
 6326SOL    HW220986   7.684   5.429   9.409 -0.7823  0.2744  0.9695
 6327SOL     OW20987   2.693   1.879   9.507  0.3354  0.0377 -0.4585
 6327SOL    HW120988   2.637   1.836   9.571 -1.5105  0.2149 -1.8547
 6327SOL    HW220989   2.762   1.815   9.488  0.1164 -0.5465  0.6785
 6328SOL     OW20990   3.989   1.369   3.220  0.2158  0.1425  0.3281
 6328SOL    HW120991   3.933   1.365   3.298 -0.4862 -1.6975 -0.2061
 6328SOL    HW220992   3.944   1.312   3.157  2.1070 -0.4691 -0.5184
 6329SOL     OW20993  11.272   3.500   3.890  0.3374  0.2283 -0.3984
 6329SOL    HW120994  11.319   3.557   3.829  1.9788 -1.5611 -0.9228
 6329SOL    HW220995  11.190   3.480   3.847 -0.2709  2.1337 -0.2033
 6330SOL     OW20996   1.213   6.923   8.338  0.1173  0.2566 -0.0328
 6330SOL    HW120997   1.186   7.001   8.387  0.2061  1.0587 -1.2243
 6330SOL    HW220998   1.221   6.855   8.405  0.9607  1.4925  1.1827
 6331SOL     OW20999   8.286   1.162   3.043  0.7968  0.1443  0.5145
 6331SOL    HW121000   8.289   1.255   3.068 -0.1695  0.8559 -1.7644
 6331SOL    HW221001   8.213   1.156   2.982  1.5431 -1.9090 -0.2693
 6332SOL     OW21002   8.308   3.180   1.379 -0.6041  0.2004 -0.1787
 6332SOL    HW121003   8.379   3.236   1.348 -0.9181 -0.6061 -2.4851
 6332SOL    HW221004   8.350   3.120   1.441  0.7559 -0.3190 -1.5629
 6333SOL     OW21005   6.525   5.851  10.210  0.5831 -0.3328 -0.7015
 6333SOL    HW121006   6.547   5.923  10.268  0.3876  0.4222 -1.5349
 6333SOL    HW221007   6.610   5.813  10.186  0.6360 -0.9758  0.4597
 6334SOL     OW21008   3.914  10.135   6.693  0.2530  0.0986 -0.1457
 6334SOL    HW121009   3.825  10.154   6.662  0.6795  2.1607 -0.2230
 6334SOL    HW221010   3.908  10.142   6.788 -0.0499 -1.7194  0.0132
 6335SOL     OW21011   5.783   2.414  10.021  0.0258 -0.1862 -0.2759
 6335SOL    HW121012   5.875   2.424   9.997 -0.3297 -1.4287 -2.4930
 6335SOL    HW221013   5.739   2.489   9.978 -0.2105 -0.6264 -0.8175
 6336SOL     OW21014   6.911   5.375   1.297  0.4368  0.7339  0.6919
 6336SOL    HW121015   6.930   5.448   1.239  0.7054  0.6521  0.6730
 6336SOL    HW221016   6.907   5.299   1.239 -3.3593  1.1568  0.1576
 6337SOL     OW21017   9.731   4.720   3.204 -0.0030  0.0750 -0.5147
 6337SOL    HW121018   9.656   4.771   3.176 -0.0161  0.1217 -0.3955
 6337SOL    HW221019   9.694   4.651   3.259  0.0675  0.2682 -0.2218
 6338SOL     OW21020   2.477   8.193   0.348 -0.4875  0.1242 -0.0953
 6338SOL    HW121021   2.444   8.274   0.387 -1.3846 -0.9537  1.5352
 6338SOL    HW221022   2.402   8.133   0.351  0.7225 -1.4219  0.7656
 6339SOL     OW21023   0.381   4.843  11.120 -0.3373  0.4017 -0.2336
 6339SOL    HW121024   0.449   4.907  11.099  0.5341  0.4445  2.4237
 6339SOL    HW221025   0.425   4.758  11.110 -0.5974  0.3207 -0.7430
 6340SOL     OW21026   8.582   2.036   9.854 -0.1006  0.0130  0.0243
 6340SOL    HW121027   8.530   2.108   9.890  0.0156 -0.9657  2.2918
 6340SOL    HW221028   8.520   1.965   9.841 -0.1667  0.3594 -1.9822
 6341SOL     OW21029   4.009   7.270  10.992 -0.5233 -0.8520 -0.0798
 6341SOL    HW121030   4.091   7.290  10.946 -1.1093 -0.9908 -1.2396
 6341SOL    HW221031   3.992   7.178  10.973 -1.2313 -0.6784 -0.3394
 6342SOL     OW21032   1.369   0.692   5.460  0.2318 -0.3716  0.6529
 6342SOL    HW121033   1.314   0.696   5.538 -1.2225  0.0340 -0.3476
 6342SOL    HW221034   1.409   0.605   5.463 -3.6881 -2.4778 -0.6038
 6343SOL     OW21035   8.963   5.267   9.647  0.7536 -0.1830  0.1668
 6343SOL    HW121036   8.898   5.231   9.586 -2.0561  1.5222  1.9069
 6343SOL    HW221037   9.046   5.227   9.620 -0.7087 -1.3883 -3.1469
 6344SOL     OW21038   9.061   4.859   8.333 -0.4794  0.8561  0.4265
 6344SOL    HW121039   9.055   4.778   8.383 -0.2609 -0.1911 -1.1860
 6344SOL    HW221040   9.119   4.915   8.385 -2.0210  0.6936  2.4433
 6345SOL     OW21041   6.721  10.993   7.220  0.4453 -0.3379 -0.1005
 6345SOL    HW121042   6.719  10.926   7.151  2.6641 -1.5187  0.8897
 6345SOL    HW221043   6.768  11.066   7.181  0.5982 -0.5118 -0.2453
 6346SOL     OW21044   5.300   0.372  10.731 -0.1652 -0.7647 -0.3095
 6346SOL    HW121045   5.370   0.345  10.791 -1.2147  0.0105  1.3464
 6346SOL    HW221046   5.310   0.467  10.723 -0.3637 -0.7918 -0.9707
 6347SOL     OW21047   3.917   3.332   8.423 -0.2972  0.1556  0.0830
 6347SOL    HW121048   3.880   3.259   8.473 -0.9148 -0.0024 -0.5861
 6347SOL    HW221049   3.901   3.309   8.331  0.4057  0.6581 -0.1727
 6348SOL     OW21050   4.198   2.054  11.223 -0.5813  0.7054  0.4941
 6348SOL    HW121051   4.282   2.078  11.262 -0.4472  0.8813  0.1029
 6348SOL    HW221052   4.209   2.070  11.130 -1.0837  0.8257  0.4508
 6349SOL     OW21053   1.453  10.609   8.810 -0.3961  0.2136 -0.0707
 6349SOL    HW121054   1.371  10.610   8.859 -0.0182 -0.1906  0.5956
 6349SOL    HW221055   1.515  10.658   8.865  0.2422 -0.9183  0.2727
 6350SOL     OW21056   8.391   9.261   1.640 -0.8458 -0.3443 -0.4680
 6350SOL    HW121057   8.390   9.303   1.554 -1.8336 -2.2687 -1.4559
 6350SOL    HW221058   8.333   9.314   1.693 -1.9615 -0.3297 -1.6425
 6351SOL     OW21059   7.939   9.708   0.663 -0.1261 -0.3215  0.0717
 6351SOL    HW121060   8.029   9.676   0.661  0.3851  1.0196  0.8430
 6351SOL    HW221061   7.890   9.638   0.706  1.4309  0.8641  4.2283
 6352SOL     OW21062   0.546   7.757   7.478  0.0458  0.7257 -0.4130
 6352SOL    HW121063   0.583   7.779   7.564  0.2304  2.6635 -0.9456
 6352SOL    HW221064   0.621   7.751   7.420 -0.1711  0.5733 -0.6796
 6353SOL     OW21065   0.095   6.089   4.492  0.0169 -0.5029  0.1681
 6353SOL    HW121066   0.176   6.086   4.442  1.2904 -1.3438  2.1789
 6353SOL    HW221067   0.065   5.998   4.495  1.1973 -0.8790  2.7691
 6354SOL     OW21068  10.867   6.630   9.294 -0.2589 -0.4052 -0.4871
 6354SOL    HW121069  10.843   6.550   9.248 -1.1161 -0.2104 -0.3972
 6354SOL    HW221070  10.815   6.699   9.251 -2.0390 -0.3932  1.5002
 6355SOL     OW21071  10.266   9.117   6.225 -0.0039 -0.1680 -0.2790
 6355SOL    HW121072  10.261   9.195   6.280 -0.5317 -0.6546  0.3745
 6355SOL    HW221073  10.184   9.071   6.240  1.4811 -2.4257  1.7548
 6356SOL     OW21074   4.317   8.235  10.834 -0.3057  0.3456 -0.0141
 6356SOL    HW121075   4.368   8.186  10.770  0.4088  1.3169 -0.2123
 6356SOL    HW221076   4.284   8.311  10.785 -3.2286 -0.9873 -0.2994
 6357SOL     OW21077   6.751   1.424   4.175  0.1857  0.4570  0.0333
 6357SOL    HW121078   6.706   1.506   4.155 -0.4859  0.5132  1.6524
 6357SOL    HW221079   6.758   1.379   4.090 -1.5373  1.1358 -0.5053
 6358SOL     OW21080   9.127   0.551   5.226  0.1648  0.8881 -0.4142
 6358SOL    HW121081   9.160   0.490   5.160 -2.4163  0.6774 -1.6377
 6358SOL    HW221082   9.116   0.498   5.304  1.3726  0.6697 -0.3759
 6359SOL     OW21083   2.331   8.877   0.269 -0.2758  0.5783  0.4743
 6359SOL    HW121084   2.283   8.900   0.190 -1.0343  2.6718  1.4525
 6359SOL    HW221085   2.263   8.856   0.333  0.2863 -0.1762  0.8487
 6360SOL     OW21086   7.834   0.733  10.731 -0.3273  0.3126 -0.0055
 6360SOL    HW121087   7.810   0.694  10.647 -0.6490 -0.4244  0.4276
 6360SOL    HW221088   7.928   0.753  10.722 -0.5882  1.2219 -0.9167
 6361SOL     OW21089  10.377   9.385   6.852 -0.4776 -0.3941  0.2730
 6361SOL    HW121090  10.447   9.448   6.867 -1.4505  0.7943  0.0069
 6361SOL    HW221091  10.393   9.353   6.763  0.3030 -0.8992  0.5875
 6362SOL     OW21092   1.627  10.597   6.618 -0.2685 -0.0660 -0.3296
 6362SOL    HW121093   1.539  10.618   6.587  0.3030 -0.2447 -2.2071
 6362SOL    HW221094   1.654  10.522   6.565  1.1501  0.1923 -0.0183
 6363SOL     OW21095   4.561   8.132   1.298  0.7118  0.2349 -0.1834
 6363SOL    HW121096   4.476   8.115   1.256  0.7900  1.6307 -0.9785
 6363SOL    HW221097   4.625   8.119   1.228  1.1761 -0.8665  0.4321
 6364SOL     OW21098   7.130   4.812   6.587 -0.3869 -0.2280  0.0812
 6364SOL    HW121099   7.098   4.760   6.513 -1.4492 -0.2264  0.5287
 6364SOL    HW221100   7.129   4.752   6.661 -2.3919  0.5966  0.7836
 6365SOL     OW21101   2.771   6.613   8.306  0.1387 -0.5824  0.7188
 6365SOL    HW121102   2.809   6.593   8.220  0.1041 -0.4448  0.6697
 6365SOL    HW221103   2.791   6.537   8.360 -2.5421 -2.1248 -0.2762
 6366SOL     OW21104   6.531   5.891   5.890 -0.2427 -0.7145  0.0673
 6366SOL    HW121105   6.560   5.956   5.954  2.7349 -2.5173  0.7801
 6366SOL    HW221106   6.448   5.925   5.857  1.0325  3.3791  0.4285
 6367SOL     OW21107   6.503   2.791   5.711 -0.7061 -0.2442 -0.1996
 6367SOL    HW121108   6.411   2.811   5.698 -0.5997  2.1837  1.9125
 6367SOL    HW221109   6.506   2.748   5.797  0.1678  0.7308  0.2935
 6368SOL     OW21110   6.408   0.646   9.011 -0.3010  0.0361 -0.2193
 6368SOL    HW121111   6.379   0.570   8.961  0.6055 -1.4055  1.3220
 6368SOL    HW221112   6.459   0.698   8.949 -0.3995 -0.9385 -1.1511
 6369SOL     OW21113   9.175   4.328   5.804  0.0296  0.2621  0.2129
 6369SOL    HW121114   9.179   4.285   5.889 -0.3070 -1.2180 -0.4784
 6369SOL    HW221115   9.258   4.307   5.762  0.4976  1.6012  0.4345
 6370SOL     OW21116   0.352  10.880  10.753  0.0882  0.1389 -0.7076
 6370SOL    HW121117   0.402  10.872  10.672  2.0706  2.0985  0.2195
 6370SOL    HW221118   0.353  10.974  10.773 -0.9300 -0.2041  1.2163
 6371SOL     OW21119   0.112   5.488   5.614 -0.0143 -0.2986  0.5123
 6371SOL    HW121120   0.071   5.478   5.700  0.4306  0.9644  0.9042
 6371SOL    HW221121   0.205   5.498   5.633  0.6761 -3.8639 -0.4174
 6372SOL     OW21122   2.035   7.557  10.841  0.0909  0.6168  0.5494
 6372SOL    HW121123   2.017   7.648  10.819 -4.0526  0.4108  2.2744
 6372SOL    HW221124   2.117   7.537  10.795  0.5103  4.7672 -0.9043
 6373SOL     OW21125   1.638  10.936  10.069 -0.0961 -0.5689  0.0776
 6373SOL    HW121126   1.630  10.914  10.162  0.6324  0.7336  0.4663
 6373SOL    HW221127   1.552  10.970  10.045 -0.5285 -1.6303  0.0508
 6374SOL     OW21128  10.221   7.468   6.551 -0.8318 -0.4838 -0.0092
 6374SOL    HW121129  10.277   7.391   6.556  0.1936  0.0041 -2.3350
 6374SOL    HW221130  10.187   7.480   6.639  2.1265 -1.2816  1.3471
 6375SOL     OW21131   0.393   0.333   2.615  0.7591  0.5767 -0.6015
 6375SOL    HW121132   0.332   0.405   2.629  2.6735  2.7792 -2.5775
 6375SOL    HW221133   0.404   0.293   2.701 -3.0068  0.3504 -0.0812
 6376SOL     OW21134   6.209   1.082   8.260  0.3657 -0.1511  0.3768
 6376SOL    HW121135   6.148   1.153   8.238  0.0936 -0.3021  0.6431
 6376SOL    HW221136   6.252   1.062   8.177  0.7323  0.5972  0.3783
 6377SOL     OW21137   9.168   1.748   2.168 -0.3498 -0.7459 -0.1408
 6377SOL    HW121138   9.245   1.803   2.155  0.5951 -1.9963  0.0478
 6377SOL    HW221139   9.202   1.659   2.173 -1.6817 -1.2288  1.1071
 6378SOL     OW21140   3.117   0.802   4.885  0.1953 -0.4830 -0.3282
 6378SOL    HW121141   3.023   0.788   4.874  0.2859 -0.3377 -1.4197
 6378SOL    HW221142   3.151   0.717   4.915 -0.5934  0.0961  2.4709
 6379SOL     OW21143   3.945   5.670  10.671  0.3850  0.2585  0.0412
 6379SOL    HW121144   3.896   5.594  10.640  1.8015  0.4559 -2.9798
 6379SOL    HW221145   3.929   5.671  10.766 -2.4064 -1.7693 -0.2745
 6380SOL     OW21146  11.206   2.324   9.298 -0.8956 -0.3496  0.4496
 6380SOL    HW121147  11.148   2.251   9.275 -1.3004 -0.6715  2.3196
 6380SOL    HW221148  11.173   2.356   9.382  2.2170 -1.2754  2.2166
 6381SOL     OW21149   1.893   2.802   6.151 -0.3246  0.3557 -0.2676
 6381SOL    HW121150   1.891   2.897   6.141  1.5640  0.3048 -1.7282
 6381SOL    HW221151   1.917   2.769   6.064  0.4766 -1.3780  0.5579
 6382SOL     OW21152   8.938   3.538   5.473  0.1404 -0.1992 -0.1733
 6382SOL    HW121153   8.878   3.597   5.427  1.9494  1.6426 -0.3097
 6382SOL    HW221154   8.881   3.487   5.531 -1.5543  1.4395 -0.2910
 6383SOL     OW21155   5.055  11.128   2.018 -0.7385 -0.3635  0.6355
 6383SOL    HW121156   5.131  11.073   2.034  1.2147  1.9294 -0.1693
 6383SOL    HW221157   5.027  11.105   1.929  1.2012  1.0610 -0.4254
 6384SOL     OW21158  10.734   2.169   4.785  0.6473  0.2831  0.1609
 6384SOL    HW121159  10.665   2.151   4.850  0.0179  1.2785 -0.2008
 6384SOL    HW221160  10.758   2.260   4.801  1.2211  0.2257 -0.3415
 6385SOL     OW21161   2.477   5.215   9.598 -0.3256  0.3053 -0.1354
 6385SOL    HW121162   2.498   5.202   9.505 -0.3096 -3.0466  0.1955
 6385SOL    HW221163   2.432   5.134   9.623  2.2765 -0.2159  3.4863
 6386SOL     OW21164   3.863   0.990   6.952 -0.1542  0.1968  0.4043
 6386SOL    HW121165   3.838   1.073   6.993  1.4117  1.1641 -0.4991
 6386SOL    HW221166   3.798   0.976   6.883  1.1296  2.1670 -1.2930
 6387SOL     OW21167   2.463   9.709  10.536  0.3970 -0.7081  0.1647
 6387SOL    HW121168   2.414   9.790  10.534  1.4681  0.0954  2.3976
 6387SOL    HW221169   2.409   9.646  10.488  0.1411  1.5700 -2.7575
 6388SOL     OW21170   7.040   2.769   4.355  0.0064  0.2973 -0.0138
 6388SOL    HW121171   7.103   2.718   4.304 -1.4908 -1.5186 -0.1599
 6388SOL    HW221172   7.007   2.834   4.293  0.9611  0.6063 -0.2216
 6389SOL     OW21173   8.666   0.652   6.063  0.1171  0.2196 -0.2677
 6389SOL    HW121174   8.593   0.615   6.015 -0.3541  1.0205 -0.1832
 6389SOL    HW221175   8.634   0.660   6.153  0.5977 -0.1982 -0.0554
 6390SOL     OW21176   2.950   7.683   4.848 -0.1264 -0.2044  0.2778
 6390SOL    HW121177   2.876   7.623   4.842  0.6781 -1.2002 -0.0171
 6390SOL    HW221178   2.991   7.661   4.932  0.3082 -0.2325  0.0610
 6391SOL     OW21179   2.342   2.864   6.925 -0.3024 -0.5185  0.1007
 6391SOL    HW121180   2.327   2.888   6.834 -2.7736  2.6552  1.1892
 6391SOL    HW221181   2.422   2.911   6.950 -1.2563  1.0301  0.3180
 6392SOL     OW21182   5.431   8.936   2.175 -0.2857  0.5121  0.3650
 6392SOL    HW121183   5.450   8.876   2.248 -4.5845  2.0067  3.1183
 6392SOL    HW221184   5.509   8.990   2.167  2.2678 -2.8486  0.3250
 6393SOL     OW21185   7.109   9.920   4.646  0.6211 -0.3864 -0.1126
 6393SOL    HW121186   7.167   9.921   4.723  0.9430 -0.8962 -0.3418
 6393SOL    HW221187   7.162   9.880   4.577  1.2500  2.3241 -1.3316
 6394SOL     OW21188   4.041   2.674   0.218 -0.1925 -0.2351 -0.3025
 6394SOL    HW121189   4.123   2.650   0.175 -0.3487  0.3594 -0.9493
 6394SOL    HW221190   4.048   2.768   0.230 -0.1120 -0.4020  1.0865
 6395SOL     OW21191   5.195   9.507   6.057 -0.5297  0.6311  0.3686
 6395SOL    HW121192   5.142   9.507   5.978 -0.9465  0.3461  0.6456
 6395SOL    HW221193   5.228   9.417   6.065 -2.2848  0.0559  1.6976
 6396SOL     OW21194   9.509   3.595   7.935  0.3157  0.3696 -0.4126
 6396SOL    HW121195   9.553   3.600   8.020 -1.3574  0.8946  0.4666
 6396SOL    HW221196   9.493   3.686   7.912  0.8182  0.2318 -1.3561
 6397SOL     OW21197  10.005   3.907   2.014  0.5979 -0.3039 -0.1569
 6397SOL    HW121198  10.003   3.839   1.947 -0.2758  0.3314 -0.7941
 6397SOL    HW221199  10.064   3.872   2.081  1.5174 -0.9472 -1.2472
 6398SOL     OW21200   0.167   9.691   3.856  0.4046  0.4982 -0.5023
 6398SOL    HW121201   0.243   9.689   3.798  0.0171 -1.1142 -0.9834
 6398SOL    HW221202   0.124   9.774   3.835  0.4400  0.1049 -2.3157
 6399SOL     OW21203   1.892   5.054   2.366  0.0490 -0.5425  0.1446
 6399SOL    HW121204   1.889   5.035   2.459  1.4319  4.4991  1.5186
 6399SOL    HW221205   1.811   5.103   2.348  0.2840 -0.5538 -1.0816
 6400SOL     OW21206   0.686   7.470   7.110  0.2653  0.1555 -0.2626
 6400SOL    HW121207   0.706   7.472   7.016 -2.0076 -0.2626 -0.8012
 6400SOL    HW221208   0.694   7.561   7.138  0.7500  0.3187 -0.9007
 6401SOL     OW21209   2.259   8.455   8.255  0.6303  0.5155 -0.1258
 6401SOL    HW121210   2.323   8.387   8.279 -0.8096 -0.7836  0.1755
 6401SOL    HW221211   2.239   8.438   8.163  0.0482  0.3455  0.0319
 6402SOL     OW21212   8.653   8.190   0.663  0.0454  0.2351 -0.1512
 6402SOL    HW121213   8.654   8.107   0.711 -3.2603  0.0641 -0.1895
 6402SOL    HW221214   8.633   8.165   0.572  0.1524  1.0208 -0.4005
 6403SOL     OW21215   7.604   6.823   0.726  0.4617  0.1386 -0.5237
 6403SOL    HW121216   7.516   6.852   0.703 -0.2194 -0.8254  0.7733
 6403SOL    HW221217   7.646   6.900   0.764 -0.7185 -0.0222  1.2246
 6404SOL     OW21218  10.072   0.480   7.128 -0.4330  0.1819  0.5601
 6404SOL    HW121219  10.062   0.502   7.036 -1.7943 -2.3593  0.0131
 6404SOL    HW221220  10.151   0.526   7.155 -1.8504  3.8660 -0.8497
 6405SOL     OW21221   9.022   1.842   0.966 -0.1069  0.5459  0.7019
 6405SOL    HW121222   9.096   1.844   0.905 -0.3519 -1.5298  0.2823
 6405SOL    HW221223   9.049   1.780   1.034 -1.2303  0.1993  0.8400
 6406SOL     OW21224   9.667   0.848   1.533 -0.7673  0.5161 -0.6753
 6406SOL    HW121225   9.742   0.884   1.580  0.3947 -1.7409 -0.6299
 6406SOL    HW221226   9.704   0.815   1.451 -0.8819 -3.6147  0.7054
 6407SOL     OW21227   9.663   9.727  10.718  0.6431  0.3542  0.7879
 6407SOL    HW121228   9.701   9.660  10.661 -2.4577 -0.1180 -0.9434
 6407SOL    HW221229   9.704   9.809  10.691  1.3776 -0.2894 -0.0716
 6408SOL     OW21230   0.397   9.402   1.889 -0.9923 -0.9594 -0.7136
 6408SOL    HW121231   0.355   9.350   1.820 -1.1520 -0.0478 -1.3207
 6408SOL    HW221232   0.339   9.477   1.901  0.3681  0.2538 -1.4687
 6409SOL     OW21233   2.402   8.453  11.181 -0.3612 -0.1884  0.2525
 6409SOL    HW121234   2.370   8.387  11.242 -3.2639  1.1892  0.4160
 6409SOL    HW221235   2.473   8.497  11.227 -1.5095 -0.1567  2.0973
 6410SOL     OW21236   2.733   2.058   5.915 -0.4576 -0.4256  0.5924
 6410SOL    HW121237   2.698   2.134   5.868  0.3706 -0.2354  0.2727
 6410SOL    HW221238   2.777   2.094   5.992  1.7643 -0.3656 -0.6361
 6411SOL     OW21239   9.239   1.968   1.077 -0.6085  0.2358 -0.0699
 6411SOL    HW121240   9.270   1.878   1.091 -2.6046 -0.5737 -0.5126
 6411SOL    HW221241   9.235   2.006   1.164  0.5153  0.0132  0.0956
 6412SOL     OW21242   8.313   4.321   3.476 -0.3650 -0.3631  0.0248
 6412SOL    HW121243   8.229   4.342   3.435 -1.2889  1.5360  2.6355
 6412SOL    HW221244   8.374   4.387   3.442 -1.0712  1.0653  1.4222
 6413SOL     OW21245   8.805   0.995   9.006 -0.1152 -0.0060 -0.0395
 6413SOL    HW121246   8.896   0.965   9.009  0.3463  1.3779  2.0844
 6413SOL    HW221247   8.768   0.968   9.091 -0.9010  1.6773  0.1991
 6414SOL     OW21248   9.502   6.108   3.238 -0.5812 -0.3098 -0.3456
 6414SOL    HW121249   9.490   6.044   3.308  0.0150  0.3910  0.4054
 6414SOL    HW221250   9.414   6.141   3.220 -1.0762 -2.0424 -1.4600
 6415SOL     OW21251   5.881   9.645   2.002 -0.1426  0.1571  0.1406
 6415SOL    HW121252   5.917   9.714   2.059  0.0560  1.2237 -1.2250
 6415SOL    HW221253   5.949   9.631   1.936  0.8684 -3.0534  1.6565
 6416SOL     OW21254  10.093   7.488   1.959  0.6901  0.0059  0.4074
 6416SOL    HW121255  10.097   7.436   2.039 -0.8289 -0.0425  0.4824
 6416SOL    HW221256  10.042   7.434   1.898  1.1770  0.3702 -0.3346
 6417SOL     OW21257   2.561   8.126   1.689 -0.2367  0.8760  0.1539
 6417SOL    HW121258   2.646   8.170   1.680 -0.1716  0.5660 -0.8764
 6417SOL    HW221259   2.505   8.190   1.732  0.4246  1.2179  0.5104
 6418SOL     OW21260   9.792  10.190   1.021 -0.2467  0.0382  0.3065
 6418SOL    HW121261   9.861  10.255   1.008  1.7954 -2.2423 -1.3335
 6418SOL    HW221262   9.711  10.240   1.018  1.1653  2.4502 -1.4628
 6419SOL     OW21263   6.108   4.061   4.992 -0.0063 -0.2471 -0.1184
 6419SOL    HW121264   6.178   3.996   5.001  0.5004 -0.0755 -2.3046
 6419SOL    HW221265   6.033   4.011   4.959  0.1422  0.1214 -1.0407
 6420SOL     OW21266  11.055   4.563   9.222 -0.2777 -0.1063 -0.5440
 6420SOL    HW121267  11.094   4.475   9.224  1.9489  0.7869 -0.8942
 6420SOL    HW221268  11.113   4.613   9.164 -2.7705  1.0584 -2.1733
 6421SOL     OW21269   3.533   8.590   5.158  0.2789  0.0418 -0.3111
 6421SOL    HW121270   3.550   8.684   5.150  0.7522  0.0780  0.9654
 6421SOL    HW221271   3.619   8.550   5.168 -0.0070 -0.3479  0.7439
 6422SOL     OW21272  10.478  10.219   0.067 -0.1502  0.2119 -0.2082
 6422SOL    HW121273  10.561  10.258   0.096  0.4255 -1.5764  0.6950
 6422SOL    HW221274  10.441  10.283   0.007  1.0426  1.8336  0.7221
 6423SOL     OW21275   6.223   1.770   9.444 -0.1679 -0.0022  0.2463
 6423SOL    HW121276   6.146   1.714   9.450  0.4353 -0.9320 -0.4513
 6423SOL    HW221277   6.292   1.714   9.408  0.2934  1.3316 -1.0535
 6424SOL     OW21278   4.968  11.276   0.983  0.0222 -0.3659 -0.2385
 6424SOL    HW121279   5.043  11.230   1.021 -0.4241  2.3703  4.8456
 6424SOL    HW221280   5.003  11.360   0.954 -0.6635 -0.1286 -0.3936
 6425SOL     OW21281   5.871  11.155   5.629 -0.0959 -0.0384  0.4905
 6425SOL    HW121282   5.881  11.156   5.534 -0.0427 -0.2276  0.4953
 6425SOL    HW221283   5.850  11.064   5.651  0.7801 -0.1799  0.7515
 6426SOL     OW21284   8.307  11.067   7.119  0.2786 -0.6497  0.2593
 6426SOL    HW121285   8.379  11.063   7.056  1.0192  0.2760  1.0294
 6426SOL    HW221286   8.349  11.061   7.204 -0.6686 -1.2792  0.6926
 6427SOL     OW21287   4.782   3.074   2.591 -0.1294 -0.5294  0.4782
 6427SOL    HW121288   4.770   3.092   2.684 -0.1563  1.3194  0.1500
 6427SOL    HW221289   4.867   3.113   2.570  0.1050 -1.3588 -0.1902
 6428SOL     OW21290   3.372   4.863   1.258  0.0662  0.0872  0.6215
 6428SOL    HW121291   3.342   4.948   1.226 -1.4350 -1.1328 -1.4396
 6428SOL    HW221292   3.307   4.837   1.324  0.2190  0.2606  0.8450
 6429SOL     OW21293   8.552   5.284   6.700  1.1727 -0.2843 -0.3870
 6429SOL    HW121294   8.499   5.336   6.639  2.6096 -0.6644 -2.0162
 6429SOL    HW221295   8.638   5.277   6.658  2.2745 -0.4448  1.7660
 6430SOL     OW21296   9.783   2.003   7.635  0.2567 -1.1275 -0.5644
 6430SOL    HW121297   9.723   1.933   7.612  1.0410 -0.8858 -3.8851
 6430SOL    HW221298   9.782   2.062   7.559  1.6132  1.0537  0.9807
 6431SOL     OW21299   1.712   7.589   7.244 -0.0224  0.2064  0.1260
 6431SOL    HW121300   1.644   7.524   7.261 -0.1507 -0.1765 -1.6841
 6431SOL    HW221301   1.775   7.544   7.188 -0.3437  1.7459 -1.5449
 6432SOL     OW21302   2.985   7.666   0.351  0.0613 -0.4230 -0.4266
 6432SOL    HW121303   2.939   7.583   0.354  0.6181 -0.7515 -0.7445
 6432SOL    HW221304   2.960   7.711   0.431  1.5857 -1.8750  0.9440
 6433SOL     OW21305   6.012  10.462   6.127 -0.4428  0.5353 -0.0115
 6433SOL    HW121306   5.927  10.471   6.083  0.4500  0.3209 -1.8654
 6433SOL    HW221307   6.074  10.503   6.068  0.4043  3.8219  2.8050
 6434SOL     OW21308   4.067   7.742   7.815  0.4020  0.3648  0.2024
 6434SOL    HW121309   4.065   7.818   7.757  0.0100 -0.9835 -1.6291
 6434SOL    HW221310   4.056   7.779   7.903  0.0057  2.3926 -0.6390
 6435SOL     OW21311   3.142   2.707   0.829 -0.4335  0.3519 -0.3086
 6435SOL    HW121312   3.082   2.649   0.782  1.2655 -2.7576  0.9912
 6435SOL    HW221313   3.089   2.743   0.900 -0.9808 -2.1207  0.6761
 6436SOL     OW21314   9.633   5.950   9.414 -0.4792  0.3046  0.3922
 6436SOL    HW121315   9.578   5.963   9.491 -0.7205 -0.4669  0.3600
 6436SOL    HW221316   9.573   5.923   9.345 -0.2728  1.0507 -0.0930
 6437SOL     OW21317   7.101   4.069   6.204  0.1430 -0.9455 -0.0169
 6437SOL    HW121318   7.196   4.060   6.215 -0.1509 -2.0508  2.0492
 6437SOL    HW221319   7.070   3.979   6.194 -1.0324 -0.9630  3.0502
 6438SOL     OW21320   1.652  11.268   5.713 -0.0324  0.4290 -0.7759
 6438SOL    HW121321   1.726  11.322   5.739  0.6543 -0.1455 -1.4485
 6438SOL    HW221322   1.614  11.314   5.638 -2.0081  2.0818  1.1236
 6439SOL     OW21323  10.697   4.908   2.107  0.0428  0.5510 -0.0144
 6439SOL    HW121324  10.738   4.983   2.150 -0.7047  0.8104  0.2672
 6439SOL    HW221325  10.765   4.873   2.049  0.7951  0.6960  0.7654
 6440SOL     OW21326   0.472   0.881   7.959  0.8298  0.3746  0.4125
 6440SOL    HW121327   0.455   0.970   7.989 -0.8792 -0.0043  0.6216
 6440SOL    HW221328   0.477   0.828   8.039  1.2000  0.1587  0.2545
 6441SOL     OW21329   4.255   9.834   6.026 -0.8200  0.4430  0.1361
 6441SOL    HW121330   4.222   9.898   6.090  0.2232 -0.6456  1.8422
 6441SOL    HW221331   4.191   9.763   6.029 -0.9230  0.5173 -0.2672
 6442SOL     OW21332   3.333   3.791   0.963 -0.2680  0.1631  0.3050
 6442SOL    HW121333   3.359   3.843   1.039  1.0115  0.3841 -0.2689
 6442SOL    HW221334   3.396   3.814   0.895  0.3988 -2.2244  0.0407
 6443SOL     OW21335   5.695   9.849   1.020  0.0452 -0.2811  0.3023
 6443SOL    HW121336   5.742   9.817   0.943  3.6225  1.6549  1.4651
 6443SOL    HW221337   5.752   9.829   1.094 -1.1217  1.8370  1.8964
 6444SOL     OW21338   3.366  11.073  10.537 -0.0342 -0.1951  0.0754
 6444SOL    HW121339   3.294  11.132  10.561  0.3748 -0.1304  1.2030
 6444SOL    HW221340   3.348  11.050  10.446 -1.1618  0.2818  0.1509
 6445SOL     OW21341   0.087   8.824   4.937 -0.3860 -0.0574 -0.5284
 6445SOL    HW121342   0.137   8.817   4.856  0.8244  0.5416  0.1315
 6445SOL    HW221343   0.153   8.848   5.003 -0.9060 -2.6411  1.0710
 6446SOL     OW21344   2.841   7.946   5.440  0.2260 -0.1655  0.3760
 6446SOL    HW121345   2.922   7.995   5.426 -0.3976  0.5108 -1.1868
 6446SOL    HW221346   2.779   7.986   5.380 -0.6491 -2.1344 -0.1188
 6447SOL     OW21347   8.293   2.618   0.096 -0.3344  0.1078 -0.5199
 6447SOL    HW121348   8.240   2.683   0.142  1.0871  0.6615  0.3804
 6447SOL    HW221349   8.311   2.551   0.162 -0.3085 -0.3114 -0.9480
 6448SOL     OW21350   9.609   9.167   5.552  0.2247 -0.2642  0.1923
 6448SOL    HW121351   9.551   9.118   5.610  1.1279 -0.1418  1.2321
 6448SOL    HW221352   9.650   9.101   5.497 -1.4014 -0.2900 -1.0576
 6449SOL     OW21353   0.752   3.787   2.589 -0.1271  0.5711 -0.0097
 6449SOL    HW121354   0.688   3.785   2.660 -0.7342 -1.0756 -0.5609
 6449SOL    HW221355   0.731   3.711   2.535  2.4679 -0.2147 -0.0469
 6450SOL     OW21356   3.618   7.515   5.661 -0.1581  0.2805 -0.0448
 6450SOL    HW121357   3.652   7.461   5.590  0.5814 -0.4914  0.8693
 6450SOL    HW221358   3.690   7.574   5.683  0.2185 -0.5619  1.1047
 6451SOL     OW21359   3.565  10.230   1.674  0.5901 -0.8522 -0.1440
 6451SOL    HW121360   3.591  10.321   1.667 -0.6758 -0.3033  1.6590
 6451SOL    HW221361   3.501  10.218   1.603 -1.4327  0.5322  1.3448
 6452SOL     OW21362   3.207   3.925   7.244 -0.1921 -0.5284  0.3036
 6452SOL    HW121363   3.244   3.926   7.156 -2.3851  0.5543 -0.6849
 6452SOL    HW221364   3.279   3.952   7.301  0.7926  0.5958 -1.3819
 6453SOL     OW21365   0.598   5.923   6.868  0.0857 -0.3819  0.3751
 6453SOL    HW121366   0.522   5.867   6.857  0.0175 -0.1854 -0.2315
 6453SOL    HW221367   0.590   5.988   6.798 -0.4687  1.1117  1.7773
 6454SOL     OW21368   1.382   2.070   7.174 -0.4468 -0.4107 -0.2230
 6454SOL    HW121369   1.415   2.030   7.255  2.3333  0.9763 -0.5377
 6454SOL    HW221370   1.419   2.016   7.104 -1.6415 -0.7504 -0.6104
 6455SOL     OW21371   6.317   2.350   9.893 -0.0010  0.2330  0.1901
 6455SOL    HW121372   6.314   2.325   9.801 -1.7582 -1.9458  0.7399
 6455SOL    HW221373   6.348   2.272   9.939 -2.1389  0.1461  1.6744
 6456SOL     OW21374   7.329   6.590   3.978  0.5557  0.5462  0.5742
 6456SOL    HW121375   7.421   6.591   4.006  0.1983 -0.4787  1.8486
 6456SOL    HW221376   7.309   6.498   3.964  0.0992  0.8701 -1.1116
 6457SOL     OW21377   0.844   0.545   8.676 -0.0781 -0.1446  0.3677
 6457SOL    HW121378   0.799   0.583   8.600  0.3000 -0.7391 -0.1681
 6457SOL    HW221379   0.929   0.588   8.677 -0.2149  0.1263  0.6811
 6458SOL     OW21380   0.636   5.713   1.369 -0.7590 -0.1861  0.1587
 6458SOL    HW121381   0.567   5.777   1.386 -0.3154  0.3444  0.0114
 6458SOL    HW221382   0.593   5.645   1.318 -0.6105  1.4366 -2.3016
 6459SOL     OW21383   9.212   7.577   2.607  0.1108 -0.3706 -0.0096
 6459SOL    HW121384   9.181   7.503   2.658  1.3146 -0.9162 -0.0320
 6459SOL    HW221385   9.148   7.646   2.623  0.3390 -0.5901  2.0681
 6460SOL     OW21386   9.663   1.606   3.059 -0.0320 -0.3457 -0.7573
 6460SOL    HW121387   9.737   1.564   3.015 -0.9064 -1.1200 -1.5295
 6460SOL    HW221388   9.602   1.535   3.078 -0.0431  0.0918  1.0279
 6461SOL     OW21389   5.320   2.299   6.029  0.0083  0.2080  0.5986
 6461SOL    HW121390   5.242   2.245   6.043 -1.5458  2.4994  1.3563
 6461SOL    HW221391   5.300   2.350   5.951  0.2777  1.5386  1.3627
 6462SOL     OW21392   8.500   2.702  10.165 -0.4655  0.3495  0.3248
 6462SOL    HW121393   8.432   2.642  10.195 -2.7528  2.7964  0.4133
 6462SOL    HW221394   8.530   2.746  10.245 -0.4501  0.9233  0.0062
 6463SOL     OW21395   0.281   9.001   5.626  0.4787 -0.0108  0.1557
 6463SOL    HW121396   0.213   9.064   5.600  0.9195 -0.0072 -1.0521
 6463SOL    HW221397   0.233   8.920   5.644  0.0509  0.2727  0.3183
 6464SOL     OW21398   0.372   5.030   6.802 -0.0955 -0.0776 -0.5174
 6464SOL    HW121399   0.290   4.980   6.796  0.3085 -0.6542 -1.4691
 6464SOL    HW221400   0.360   5.102   6.741 -0.3029  0.4636  0.1486
 6465SOL     OW21401   2.685   8.470   6.841  0.3448 -0.0593  0.0024
 6465SOL    HW121402   2.706   8.511   6.925 -2.1326 -0.7325  1.0376
 6465SOL    HW221403   2.706   8.377   6.854  0.0611 -0.1465 -0.1518
 6466SOL     OW21404  10.080   6.952   6.608  0.1116  0.9434  0.0540
 6466SOL    HW121405  10.086   6.962   6.703  1.3652 -1.6108  0.3178
 6466SOL    HW221406  10.145   7.013   6.573 -0.1269  1.6609  0.8395
 6467SOL     OW21407   6.103  10.644   9.389 -0.1722 -0.0071  0.1625
 6467SOL    HW121408   6.185  10.665   9.432 -0.1169  1.3201 -0.5314
 6467SOL    HW221409   6.044  10.717   9.410 -0.2380  0.5399 -1.6687
 6468SOL     OW21410   6.538  10.058   4.408  0.0952  0.0919  0.1845
 6468SOL    HW121411   6.468  10.029   4.350 -0.5966  1.1818  0.4491
 6468SOL    HW221412   6.579  10.131   4.362  1.1534 -0.5917 -0.0127
 6469SOL     OW21413   7.488   6.634   5.521 -0.0014 -0.1387 -0.1291
 6469SOL    HW121414   7.516   6.564   5.580  0.5901  0.1141 -0.1015
 6469SOL    HW221415   7.437   6.693   5.575 -0.5184 -0.5552 -0.1559
 6470SOL     OW21416   5.060   9.850   0.273  0.0932  0.9572  0.1388
 6470SOL    HW121417   5.006   9.866   0.196 -2.0077  0.3204  1.3963
 6470SOL    HW221418   5.032   9.917   0.336 -0.7521 -0.6065  1.5137
 6471SOL     OW21419   4.994   8.349   0.667  0.0892 -0.2498 -0.5823
 6471SOL    HW121420   4.970   8.285   0.600  0.1835 -1.3478  0.4050
 6471SOL    HW221421   4.964   8.433   0.632 -2.8075 -1.1841 -0.6133
 6472SOL     OW21422   7.026   3.653  10.205 -0.3076  0.1674  0.1389
 6472SOL    HW121423   7.112   3.623  10.235 -0.7043 -0.9550  0.2191
 6472SOL    HW221424   6.972   3.574  10.207 -0.7086  0.3038 -2.2631
 6473SOL     OW21425   9.249   3.959   1.182  0.5327  0.4146  0.5258
 6473SOL    HW121426   9.268   3.895   1.113  0.3368  2.2763 -1.3163
 6473SOL    HW221427   9.157   3.944   1.204  0.8685 -0.8873  1.2234
 6474SOL     OW21428   3.112   0.781   0.240  0.5946 -0.4809  0.4399
 6474SOL    HW121429   3.083   0.750   0.326  0.1825 -1.5088 -0.0643
 6474SOL    HW221430   3.145   0.870   0.257 -2.0149  0.4347  1.2197
 6475SOL     OW21431   3.878   4.520   3.298 -0.8006 -0.3204 -0.6268
 6475SOL    HW121432   3.914   4.471   3.371 -0.7308  1.5389  0.6609
 6475SOL    HW221433   3.799   4.561   3.334 -0.6051  0.8566 -1.4850
 6476SOL     OW21434  10.658   2.898   4.882 -0.5777  0.4482  0.1214
 6476SOL    HW121435  10.606   2.824   4.851 -0.9959  0.7953 -0.0219
 6476SOL    HW221436  10.594   2.967   4.898 -0.2411  0.6414  0.6699
 6477SOL     OW21437  10.200   9.069   1.775 -0.4259 -0.4517  0.1620
 6477SOL    HW121438  10.221   9.098   1.686 -0.0008 -1.2022  0.0097
 6477SOL    HW221439  10.286   9.059   1.817 -0.6110 -0.4390  0.5433
 6478SOL     OW21440   5.181   8.108   6.940  0.3941 -0.0676  0.3129
 6478SOL    HW121441   5.217   8.073   6.858  2.0238  1.8057  0.1452
 6478SOL    HW221442   5.106   8.161   6.912  1.8610  1.8511 -0.2621
 6479SOL     OW21443   7.300   3.946   6.901  0.1824 -0.5354 -0.4905
 6479SOL    HW121444   7.224   3.996   6.932 -1.8136 -1.5497 -3.3301
 6479SOL    HW221445   7.274   3.855   6.911 -0.2038 -0.9178 -3.9436
 6480SOL     OW21446   8.718   8.042   0.344 -0.1302  1.2794 -0.3906
 6480SOL    HW121447   8.640   8.097   0.334 -0.1500  1.6543  1.5112
 6480SOL    HW221448   8.752   8.033   0.254 -2.3724  1.0388 -1.2765
 6481SOL     OW21449   9.312   0.152   5.216 -0.0905  0.1177 -0.0010
 6481SOL    HW121450   9.370   0.207   5.268  1.1231 -1.5967  0.5688
 6481SOL    HW221451   9.333   0.174   5.125 -1.0004  1.9064  0.1899
 6482SOL     OW21452   9.660   4.031   0.356 -0.2280  0.4712 -0.0611
 6482SOL    HW121453   9.618   3.983   0.284  2.5573 -0.3251 -1.2711
 6482SOL    HW221454   9.637   4.122   0.340  1.5924  0.5439 -3.0290
 6483SOL     OW21455   0.399   3.643   5.016 -0.8024  0.2835  0.4379
 6483SOL    HW121456   0.342   3.587   5.069 -0.6097 -1.0826 -0.7485
 6483SOL    HW221457   0.480   3.650   5.068 -1.0429 -0.0551  0.8652
 6484SOL     OW21458   1.083   1.246   5.181  0.2845  0.5406  0.1283
 6484SOL    HW121459   1.158   1.197   5.148  0.6414  0.7664  0.6041
 6484SOL    HW221460   1.120   1.310   5.242 -0.2070  1.1643 -0.2059
 6485SOL     OW21461   0.689   9.109   7.665  0.0154 -0.8440  0.3594
 6485SOL    HW121462   0.735   9.179   7.620  0.6377 -0.0754  2.0985
 6485SOL    HW221463   0.649   9.057   7.595  0.5513  0.5334 -1.0158
 6486SOL     OW21464   0.096   2.495  10.871 -0.3053 -0.3993  0.4146
 6486SOL    HW121465   0.187   2.479  10.898 -0.5770 -0.4980  1.2830
 6486SOL    HW221466   0.104   2.540  10.787  0.6035  1.5894  1.4954
 6487SOL     OW21467   6.272   2.860   1.741 -0.2407  0.1060 -0.0416
 6487SOL    HW121468   6.284   2.860   1.836  1.8004 -1.2684 -0.2369
 6487SOL    HW221469   6.222   2.940   1.723  0.3702  1.0320  2.0674
 6488SOL     OW21470   2.167   3.287   6.019 -0.5390 -0.7732  0.5875
 6488SOL    HW121471   2.111   3.304   6.094  1.4963  1.2861  1.7986
 6488SOL    HW221472   2.143   3.355   5.955  2.1917  1.9742  2.2082
 6489SOL     OW21473   8.553   4.840   4.618 -0.0562 -0.4801 -0.0611
 6489SOL    HW121474   8.580   4.910   4.559 -0.5978 -1.0403 -0.9910
 6489SOL    HW221475   8.483   4.879   4.671  3.0414  1.3413  3.1219
 6490SOL     OW21476   2.514   8.696   8.010 -0.5938  0.1684 -0.2806
 6490SOL    HW121477   2.493   8.727   7.922 -0.1796 -2.5760 -1.4620
 6490SOL    HW221478   2.539   8.604   7.997  0.7115  0.0249  2.5505
 6491SOL     OW21479   7.611   2.755   1.293 -0.1747 -0.3470  0.5815
 6491SOL    HW121480   7.696   2.774   1.254 -0.3176  0.5370  0.6982
 6491SOL    HW221481   7.547   2.778   1.226 -0.3447 -0.7376  0.6012
 6492SOL     OW21482   8.745   3.790   6.616 -0.5814  0.2963 -0.2949
 6492SOL    HW121483   8.806   3.862   6.633  1.7181 -1.3836 -0.9466
 6492SOL    HW221484   8.757   3.769   6.523 -0.5727 -1.4277  0.0618
 6493SOL     OW21485  10.690  10.702   1.891 -0.1665 -0.2582 -0.8008
 6493SOL    HW121486  10.611  10.665   1.931 -0.0520  0.8321  0.5025
 6493SOL    HW221487  10.703  10.650   1.812 -1.2918 -1.4859 -0.2206
 6494SOL     OW21488   8.629   7.451   2.251 -0.0770  0.8603  0.2405
 6494SOL    HW121489   8.538   7.467   2.228 -0.7387 -1.0135  1.3202
 6494SOL    HW221490   8.651   7.521   2.313 -1.1903  0.6509  0.9077
 6495SOL     OW21491   6.666   2.915   1.204 -0.4600 -0.6405  0.6465
 6495SOL    HW121492   6.727   2.980   1.238 -1.5577 -0.1795  1.8306
 6495SOL    HW221493   6.651   2.942   1.113  0.1432 -0.0321  0.7187
 6496SOL     OW21494   0.755   4.825   4.498  0.3150  0.7269 -0.5185
 6496SOL    HW121495   0.840   4.794   4.530  0.0455 -1.1285 -1.4094
 6496SOL    HW221496   0.774   4.908   4.455  1.4686  0.9490  0.3761
 6497SOL     OW21497  10.796   6.353   7.263 -0.1566  0.0208  0.2586
 6497SOL    HW121498  10.777   6.381   7.173 -1.2325 -0.6551  0.2520
 6497SOL    HW221499  10.844   6.426   7.302 -0.6526  0.7832 -0.5328
 6498SOL     OW21500   9.077   2.511   8.534 -0.5137 -0.3166  0.5913
 6498SOL    HW121501   9.157   2.471   8.499  0.4107 -1.2167  3.4557
 6498SOL    HW221502   9.103   2.600   8.557 -1.8179  1.2293 -3.1020
 6499SOL     OW21503  10.050   8.188  10.991 -0.0326  0.2041  0.2933
 6499SOL    HW121504  10.055   8.284  10.994 -2.9882  0.4203  1.2752
 6499SOL    HW221505  10.037   8.167  10.899  2.0316  0.5672 -0.1366
 6500SOL     OW21506   0.365   6.327   6.920  0.3845 -0.8434 -0.7645
 6500SOL    HW121507   0.271   6.344   6.914  0.0210 -1.4414  1.8092
 6500SOL    HW221508   0.406   6.408   6.891 -0.9976  0.2058  0.0351
 6501SOL     OW21509   2.160   5.231   4.500  0.4567  0.1748  0.2167
 6501SOL    HW121510   2.204   5.150   4.477 -0.2740 -0.5713  1.3606
 6501SOL    HW221511   2.209   5.265   4.576 -0.9861 -0.7707  1.6339
 6502SOL     OW21512   1.754   0.137   3.707 -0.1007  0.4486  0.1943
 6502SOL    HW121513   1.808   0.165   3.781  1.6425  0.6781 -1.0948
 6502SOL    HW221514   1.814   0.086   3.652 -1.3660  0.2094 -1.0049
 6503SOL     OW21515  10.592   9.303   3.305  0.7363  0.2332  0.1521
 6503SOL    HW121516  10.506   9.268   3.283  1.0594 -0.7340  0.3468
 6503SOL    HW221517  10.581   9.340   3.393  0.0095  2.0602 -0.6641
 6504SOL     OW21518   9.451   3.943   2.184 -0.2326 -0.3847 -0.1001
 6504SOL    HW121519   9.539   3.922   2.215  0.0770  1.4677  0.4345
 6504SOL    HW221520   9.430   3.873   2.123  2.4519  0.1369 -1.8184
 6505SOL     OW21521   3.914   3.767   9.947  0.1657  0.1492  0.0140
 6505SOL    HW121522   3.955   3.715  10.016 -0.8548 -1.4811 -0.5447
 6505SOL    HW221523   3.823   3.777   9.975 -0.1649 -0.1958 -0.8926
 6506SOL     OW21524   4.383  11.217   0.960 -0.0464 -0.3148 -0.4360
 6506SOL    HW121525   4.374  11.183   1.049  0.5597  0.1590 -0.1838
 6506SOL    HW221526   4.395  11.139   0.906  1.1995 -0.5401  0.1169
 6507SOL     OW21527   2.443   4.257   0.707  0.7712 -0.3539 -0.0999
 6507SOL    HW121528   2.375   4.236   0.643  0.1380 -2.3378  1.1445
 6507SOL    HW221529   2.517   4.286   0.654 -0.0507 -1.0020 -1.6765
 6508SOL     OW21530   5.772  10.390   3.253 -0.4060 -0.4451 -0.3471
 6508SOL    HW121531   5.815  10.377   3.168 -0.1360 -0.5718 -0.1941
 6508SOL    HW221532   5.760  10.485   3.259  1.1835 -0.2491  0.2352
 6509SOL     OW21533   9.620   3.257   2.787 -0.4297 -0.6124  0.3395
 6509SOL    HW121534   9.681   3.184   2.770  0.4652 -0.3163  2.0183
 6509SOL    HW221535   9.565   3.225   2.859  0.5716  0.6294  1.7278
 6510SOL     OW21536   5.701   9.039  10.527  0.2289  0.1088  0.3985
 6510SOL    HW121537   5.719   8.978  10.598  0.0828 -1.0881 -0.5612
 6510SOL    HW221538   5.667   8.985  10.456  1.9951  0.9956 -1.2277
 6511SOL     OW21539   3.457   4.382  10.603  0.2816 -0.8007  0.0939
 6511SOL    HW121540   3.515   4.409  10.674 -1.2766  1.6182  0.5490
 6511SOL    HW221541   3.373   4.365  10.645 -0.1922 -1.1148 -0.9474
 6512SOL     OW21542   6.002   5.279   0.285 -0.7718 -0.2075  1.3863
 6512SOL    HW121543   6.052   5.289   0.366 -0.0417  1.4660  0.7630
 6512SOL    HW221544   5.972   5.367   0.264 -1.0880 -0.6405 -0.0742
 6513SOL     OW21545   0.285   1.482   7.117 -0.1988 -0.1069 -0.3162
 6513SOL    HW121546   0.343   1.408   7.131 -0.6319 -0.9798 -2.7007
 6513SOL    HW221547   0.262   1.511   7.206 -0.1475 -2.9020  0.7132
 6514SOL     OW21548   2.273   1.806  10.674  0.0648  0.2542 -0.4978
 6514SOL    HW121549   2.343   1.830  10.614  3.0253  0.3956  2.6695
 6514SOL    HW221550   2.273   1.710  10.674  0.4977  0.2506 -0.3204
 6515SOL     OW21551   3.651   5.481   8.716  0.3469 -0.1966 -0.5195
 6515SOL    HW121552   3.660   5.519   8.803  0.1639  0.3798 -0.7446
 6515SOL    HW221553   3.577   5.421   8.723 -0.7971  1.1256 -0.6858
 6516SOL     OW21554   4.487   7.887  10.468 -0.4100  0.8017 -0.2922
 6516SOL    HW121555   4.534   7.862  10.389  0.6737 -1.8062  1.0309
 6516SOL    HW221556   4.411   7.827  10.470  0.1797  0.0426  1.1263
 6517SOL     OW21557   7.994   7.690   5.923 -0.7480 -0.2656 -0.0822
 6517SOL    HW121558   8.065   7.699   5.860 -0.7490 -0.2163 -0.0761
 6517SOL    HW221559   8.005   7.602   5.959 -1.1279 -0.5283 -0.6117
 6518SOL     OW21560   6.726   7.268   3.986  0.3937 -0.4098 -0.5049
 6518SOL    HW121561   6.646   7.290   4.034  0.9750  1.9354 -0.5028
 6518SOL    HW221562   6.773   7.208   4.044  0.3134  1.0715  1.1816
 6519SOL     OW21563   5.264  10.198  10.840  0.4389 -0.0621 -0.0255
 6519SOL    HW121564   5.171  10.177  10.851 -0.8595  4.2665 -0.7240
 6519SOL    HW221565   5.300  10.195  10.928 -0.5490 -1.0377  0.3615
 6520SOL     OW21566   2.027   8.663   0.374  0.1272 -0.2547 -0.2060
 6520SOL    HW121567   2.040   8.632   0.284  0.3638 -0.2518 -0.1732
 6520SOL    HW221568   1.933   8.678   0.381  0.4219  3.0300 -1.5179
 6521SOL     OW21569   7.942   5.040   0.173  0.4905 -0.2339 -1.1289
 6521SOL    HW121570   7.894   4.958   0.160 -1.1147  0.2651  1.0376
 6521SOL    HW221571   8.029   5.012   0.200 -0.0838 -1.2515 -0.2516
 6522SOL     OW21572  10.812   3.833   7.886  0.5840  0.0374 -0.6129
 6522SOL    HW121573  10.780   3.745   7.869  1.6864 -0.1924 -1.6982
 6522SOL    HW221574  10.860   3.826   7.968  0.7571 -0.4084 -0.7471
 6523SOL     OW21575  10.782   6.843   6.776  0.0274  0.0782  0.4911
 6523SOL    HW121576  10.791   6.933   6.744 -3.0480 -0.0506 -1.1419
 6523SOL    HW221577  10.834   6.791   6.716 -0.2629  0.5291 -0.1647
 6524SOL     OW21578   9.727   2.051  10.612 -0.4088 -0.7715  0.1163
 6524SOL    HW121579   9.748   2.121  10.550  3.4542 -2.1496 -0.4027
 6524SOL    HW221580   9.720   2.096  10.696 -1.0759  0.5758 -0.6274
 6525SOL     OW21581   8.356   5.461   2.241 -0.8961  0.3612 -0.8372
 6525SOL    HW121582   8.318   5.482   2.326 -1.4358  0.7591 -1.1713
 6525SOL    HW221583   8.436   5.412   2.261 -0.1713  1.8054 -0.0706
 6526SOL     OW21584   9.436   8.938  10.672  0.3753  0.4787  0.5199
 6526SOL    HW121585   9.462   8.893  10.752 -1.0654  2.6453  2.3145
 6526SOL    HW221586   9.341   8.926  10.667  0.6364 -1.4343 -2.1288
 6527SOL     OW21587   0.573  11.098   4.227 -0.0471  0.2104  0.1833
 6527SOL    HW121588   0.556  11.079   4.319 -2.3701  0.3143 -0.1613
 6527SOL    HW221589   0.651  11.047   4.205 -1.4659 -2.6698  1.3275
 6528SOL     OW21590   8.263   3.434   2.305  0.1292 -0.8205 -0.1328
 6528SOL    HW121591   8.218   3.439   2.221 -0.0092  0.2936 -0.0085
 6528SOL    HW221592   8.347   3.477   2.290  0.1951 -0.8162  0.2376
 6529SOL     OW21593   3.577   4.777   7.803  0.1390  0.0680 -0.5290
 6529SOL    HW121594   3.602   4.693   7.766 -0.3489 -0.2015 -0.2544
 6529SOL    HW221595   3.656   4.808   7.847 -0.4215 -1.5605  1.7924
 6530SOL     OW21596   7.508  10.753   4.516  0.7637 -0.3845 -0.1740
 6530SOL    HW121597   7.487  10.842   4.486  0.7104 -0.0317  0.8694
 6530SOL    HW221598   7.423  10.711   4.528  0.7951 -0.6924 -0.9769
 6531SOL     OW21599   6.869  10.734   1.711  1.3190 -0.3196 -0.0973
 6531SOL    HW121600   6.886  10.641   1.702 -0.8537 -0.9241  1.1648
 6531SOL    HW221601   6.946  10.769   1.755  1.8549 -1.6706  0.0703
 6532SOL     OW21602   7.555   0.379  10.086  0.0211  0.6238  0.5258
 6532SOL    HW121603   7.518   0.465  10.065 -1.5830 -0.4892 -1.5636
 6532SOL    HW221604   7.572   0.339  10.001  3.5622 -0.0602  1.3959
 6533SOL     OW21605   3.278   1.484   7.599 -0.2150  0.2607  0.3280
 6533SOL    HW121606   3.306   1.543   7.669  1.6734 -0.5099  0.2840
 6533SOL    HW221607   3.348   1.419   7.593 -0.5209  0.0606 -1.9853
 6534SOL     OW21608   2.189   7.637   1.337  0.5817  0.1990  0.4438
 6534SOL    HW121609   2.161   7.567   1.396 -0.3221  1.7227  1.9064
 6534SOL    HW221610   2.137   7.623   1.257  2.7624 -2.6638 -0.6231
 6535SOL     OW21611   4.809  10.376   0.596 -0.3935 -0.1808  0.0508
 6535SOL    HW121612   4.882  10.337   0.547  0.3575  0.5189  0.5887
 6535SOL    HW221613   4.824  10.470   0.589 -0.3852 -0.0668  1.4634
 6536SOL     OW21614  10.790  11.243  11.097  0.0655  0.0759  0.2104
 6536SOL    HW121615  10.711  11.223  11.148  1.5004 -1.0514  2.1202
 6536SOL    HW221616  10.862  11.207  11.149  1.6988 -0.7739 -2.4532
 6537SOL     OW21617   6.225   2.965   2.676  0.5535  0.2253 -0.4683
 6537SOL    HW121618   6.218   3.048   2.630 -4.1848  0.4601  0.1393
 6537SOL    HW221619   6.206   2.987   2.768  2.6609 -1.1438  0.3632
 6538SOL     OW21620   9.586   3.260   7.884 -0.5826  0.4248 -0.8892
 6538SOL    HW121621   9.525   3.247   7.956 -0.0265 -1.9563 -0.7610
 6538SOL    HW221622   9.543   3.323   7.827 -1.8525  0.9695  0.6078
 6539SOL     OW21623   0.939  10.806   9.898 -0.2491 -0.8223 -0.4411
 6539SOL    HW121624   0.916  10.893   9.865  3.8991  1.6445  2.2386
 6539SOL    HW221625   1.004  10.773   9.836  1.2713 -0.0000  0.6469
 6540SOL     OW21626   8.659   4.179   6.434  0.0839  0.1725 -0.1680
 6540SOL    HW121627   8.643   4.263   6.392  1.7051  0.0062 -1.2180
 6540SOL    HW221628   8.635   4.114   6.368  1.0395 -0.1270 -0.2398
 6541SOL     OW21629   0.377   8.764   8.147 -1.1282 -0.2687  0.0654
 6541SOL    HW121630   0.283   8.768   8.161 -1.1695  0.3112 -0.3582
 6541SOL    HW221631   0.387   8.738   8.055 -0.9057  1.7499 -0.5372
 6542SOL     OW21632  10.979   3.708   0.200  0.0280  0.6237  0.1830
 6542SOL    HW121633  11.003   3.785   0.251  0.0491 -0.2006  1.4802
 6542SOL    HW221634  10.895   3.679   0.238  1.5489 -1.8391  2.0149
 6543SOL     OW21635   3.117   8.563   2.968 -0.2815  0.0310  0.2176
 6543SOL    HW121636   3.100   8.470   2.985  1.4668  0.0246  2.5352
 6543SOL    HW221637   3.169   8.564   2.888  1.3969 -1.2550  1.2115
 6544SOL     OW21638  10.515   3.755   8.195  0.2572  0.4927  0.0775
 6544SOL    HW121639  10.455   3.744   8.269  1.8423  3.2736  1.9630
 6544SOL    HW221640  10.556   3.668   8.184 -2.3919 -0.8598  0.1884
 6545SOL     OW21641  11.197   7.052   1.716  0.0033 -0.4159 -0.6524
 6545SOL    HW121642  11.160   7.001   1.644 -0.5449 -0.6176 -0.2384
 6545SOL    HW221643  11.129   7.116   1.737  0.3388 -0.0724 -0.5976
 6546SOL     OW21644   7.642   5.566  10.623 -0.0358 -0.2988  1.0453
 6546SOL    HW121645   7.693   5.494  10.660 -0.0536 -0.2797  1.1069
 6546SOL    HW221646   7.675   5.574  10.533  1.5826  1.0950  1.7027
 6547SOL     OW21647   1.054   4.881   9.750 -0.1675 -0.2479 -0.0153
 6547SOL    HW121648   1.038   4.788   9.739 -0.3554 -0.0152 -1.8883
 6547SOL    HW221649   1.115   4.904   9.680 -1.3097  1.3294 -0.5386
 6548SOL     OW21650   1.725   3.101   4.629  0.2100 -0.3008 -0.0007
 6548SOL    HW121651   1.778   3.036   4.584  0.6776 -0.8518  1.2910
 6548SOL    HW221652   1.702   3.164   4.561  0.8739 -1.0901 -0.9991
 6549SOL     OW21653   5.293   2.556   7.863  0.3874  0.3546 -0.0989
 6549SOL    HW121654   5.215   2.550   7.919  0.1721 -2.7907 -0.5635
 6549SOL    HW221655   5.348   2.483   7.892  1.0820 -0.2670 -2.7604
 6550SOL     OW21656  10.320   1.291   2.022 -0.4031  0.0764  0.0018
 6550SOL    HW121657  10.266   1.213   2.034 -1.2792  0.5954 -0.4405
 6550SOL    HW221658  10.330   1.327   2.110  2.5154 -2.0892  0.7167
 6551SOL     OW21659   2.964   5.585   8.187  0.4182 -1.0855  0.2521
 6551SOL    HW121660   2.939   5.566   8.278  1.5709 -3.7214  0.1268
 6551SOL    HW221661   3.046   5.536   8.175  1.0664  0.3820 -1.8065
 6552SOL     OW21662   6.718   2.020   9.233  0.4858  0.3899 -0.1262
 6552SOL    HW121663   6.726   2.012   9.138  0.5087  2.1698 -0.3085
 6552SOL    HW221664   6.634   1.980   9.254  2.2858 -4.0146 -0.2533
 6553SOL     OW21665   7.780   4.604   8.389  0.8505  0.2444  0.2775
 6553SOL    HW121666   7.753   4.597   8.481 -1.1701 -1.3840 -0.3779
 6553SOL    HW221667   7.844   4.676   8.389 -1.8097  2.8839  2.3424
 6554SOL     OW21668   1.490   1.469   5.724  0.2366 -0.2854 -0.0935
 6554SOL    HW121669   1.580   1.466   5.756 -0.8102 -2.5740  3.0594
 6554SOL    HW221670   1.444   1.525   5.786 -0.6474  0.5923 -1.4756
 6555SOL     OW21671   0.053   8.867   3.344 -0.4019  0.5010 -0.2041
 6555SOL    HW121672   0.077   8.778   3.372  1.0412  0.5691 -1.0920
 6555SOL    HW221673   0.122   8.891   3.281  0.2022  2.8983  1.2549
 6556SOL     OW21674   9.260   8.137   2.329  0.5118 -0.6524 -0.2243
 6556SOL    HW121675   9.255   8.058   2.276  0.8474 -1.0335  0.3093
 6556SOL    HW221676   9.277   8.207   2.266 -0.4050 -0.9003 -0.7796
 6557SOL     OW21677   0.591   1.617   8.242 -0.0441 -0.3208 -0.2793
 6557SOL    HW121678   0.626   1.647   8.326  3.0517 -1.0699 -1.1447
 6557SOL    HW221679   0.574   1.524   8.255 -1.5390 -0.0186  0.0526
 6558SOL     OW21680  10.064  10.594   4.529  0.1672  0.1731  0.3397
 6558SOL    HW121681  10.022  10.589   4.443  1.1212  0.8342 -0.1753
 6558SOL    HW221682  10.149  10.635   4.513  0.2646  0.5411  1.6388
 6559SOL     OW21683  11.240   2.802   5.659  0.4022  0.2807  0.0140
 6559SOL    HW121684  11.321   2.846   5.632 -0.2934  0.6934 -1.5565
 6559SOL    HW221685  11.193   2.867   5.710  0.9188  0.1470  0.6650
 6560SOL     OW21686   4.146  10.790   6.106  0.3588  0.0242  0.3211
 6560SOL    HW121687   4.150  10.698   6.078  0.9599  0.1415 -0.0028
 6560SOL    HW221688   4.189  10.791   6.192 -1.0238 -0.2471  1.0510
 6561SOL     OW21689   1.536   0.802   7.764 -0.0807 -0.2674  0.0649
 6561SOL    HW121690   1.486   0.832   7.688  1.5196 -0.3628 -1.0900
 6561SOL    HW221691   1.513   0.710   7.773  0.5757 -0.5596 -1.0608
 6562SOL     OW21692   5.684   0.048   5.827  0.1362 -0.1450 -0.8318
 6562SOL    HW121693   5.623   0.121   5.833 -1.6936 -1.6435 -0.2560
 6562SOL    HW221694   5.664   0.008   5.742  1.3587  0.1902 -1.2944
 6563SOL     OW21695   1.673   9.390   3.989  0.9437 -0.2394 -0.3596
 6563SOL    HW121696   1.738   9.320   3.997  1.8321  0.3355 -2.2209
 6563SOL    HW221697   1.633   9.376   3.903 -1.0820 -0.2762  0.5229
 6564SOL     OW21698   9.859   5.550   0.911  0.2797  0.0496  0.4674
 6564SOL    HW121699   9.829   5.637   0.884 -0.4066 -0.7627 -1.6329
 6564SOL    HW221700   9.822   5.491   0.845  2.3877 -1.5996  0.6544
 6565SOL     OW21701   5.491   8.703   1.440  0.2324  0.4063 -0.0929
 6565SOL    HW121702   5.499   8.778   1.381  0.4936  1.5651  1.3783
 6565SOL    HW221703   5.582   8.684   1.466  0.2516 -0.9260 -1.0306
 6566SOL     OW21704   5.013   4.879   8.358 -0.2059 -0.2288  0.3565
 6566SOL    HW121705   4.940   4.930   8.321 -0.8199 -1.4481 -0.1917
 6566SOL    HW221706   4.973   4.795   8.381  1.0179 -0.8766  0.1614
 6567SOL     OW21707   2.491   6.381   9.285  0.0538 -0.3600  0.4493
 6567SOL    HW121708   2.435   6.434   9.342 -0.1596 -0.8970  0.7367
 6567SOL    HW221709   2.440   6.369   9.205  0.7380  1.2309 -0.2758
 6568SOL     OW21710   5.378   3.544   7.004  0.4110 -0.0073 -0.6556
 6568SOL    HW121711   5.298   3.548   7.056  1.1518 -0.8031  0.6095
 6568SOL    HW221712   5.366   3.468   6.947 -0.5622  1.0878 -1.9789
 6569SOL     OW21713   0.717   0.688   4.955 -0.7102  0.3881  0.1413
 6569SOL    HW121714   0.663   0.720   4.883 -1.4943  1.2704  1.0920
 6569SOL    HW221715   0.804   0.679   4.917 -1.1212  0.7760 -0.9311
 6570SOL     OW21716   6.298   4.498   6.206 -0.5690 -0.3190 -0.3582
 6570SOL    HW121717   6.282   4.571   6.145 -1.1226 -1.2446 -1.3563
 6570SOL    HW221718   6.331   4.540   6.286 -1.8028  1.1109 -0.5638
 6571SOL     OW21719   7.717   1.747   7.237  0.4572  0.1765 -0.0930
 6571SOL    HW121720   7.622   1.755   7.235  0.5544  1.8030 -0.0560
 6571SOL    HW221721   7.741   1.721   7.148 -0.0110  0.0269 -0.1749
 6572SOL     OW21722   8.284   1.031   2.432 -0.4783  0.5455  0.4402
 6572SOL    HW121723   8.333   1.056   2.511  0.1293 -2.7398  1.2575
 6572SOL    HW221724   8.349   0.988   2.377 -1.8930 -1.8802  0.5304
 6573SOL     OW21725   3.455   7.187   2.050 -0.5539 -0.4361  0.2436
 6573SOL    HW121726   3.480   7.261   2.105  0.4271  0.0267 -0.8008
 6573SOL    HW221727   3.409   7.127   2.110  0.8563 -0.1536  1.6713
 6574SOL     OW21728   9.326   1.642   5.346 -0.2902  0.0780  0.5917
 6574SOL    HW121729   9.339   1.726   5.301 -0.8319 -0.5532 -0.7713
 6574SOL    HW221730   9.414   1.616   5.373  0.1438  0.1372 -0.7115
 6575SOL     OW21731  11.261  11.168   6.459  0.9083  0.5366  0.2895
 6575SOL    HW121732  11.300  11.124   6.383 -0.5470  0.2994 -0.3648
 6575SOL    HW221733  11.179  11.121   6.474  1.0454  0.7547  1.8610
 6576SOL     OW21734   6.232   0.959   0.919 -0.0664 -0.1663 -0.6415
 6576SOL    HW121735   6.258   0.873   0.952 -0.5945  0.4889  1.6306
 6576SOL    HW221736   6.291   1.020   0.961 -2.2709  0.9165  1.1006
 6577SOL     OW21737   1.294   8.266  11.126  1.0188  0.4092  0.6653
 6577SOL    HW121738   1.290   8.354  11.090 -0.8361  1.1577  2.5098
 6577SOL    HW221739   1.214   8.223  11.095  1.1067 -0.0659  1.0698
 6578SOL     OW21740   0.395  10.447   9.320  0.2112  0.1774  0.8260
 6578SOL    HW121741   0.421  10.444   9.412 -0.9758  0.7316  1.1966
 6578SOL    HW221742   0.475  10.426   9.272  0.4251 -1.9768  2.0293
 6579SOL     OW21743  10.902   1.830  10.436  0.0610  0.3987 -0.0496
 6579SOL    HW121744  10.891   1.795  10.525 -2.2960  0.6663 -0.1640
 6579SOL    HW221745  10.841   1.903  10.431  0.4205  0.6244 -1.7810
 6580SOL     OW21746   4.373   8.517   6.802  0.3497  0.1488  0.8688
 6580SOL    HW121747   4.375   8.465   6.721 -0.2774  0.7369  0.4675
 6580SOL    HW221748   4.338   8.602   6.775  3.1925  1.5096  1.1063
 6581SOL     OW21749   4.776   3.468  11.009  0.3611 -0.2345  0.6557
 6581SOL    HW121750   4.857   3.423  10.983  1.4820  2.1164 -0.1990
 6581SOL    HW221751   4.775   3.548  10.956 -2.6353 -0.2368  0.5416
 6582SOL     OW21752   5.289   1.610   1.788  0.4764  0.2059  0.1312
 6582SOL    HW121753   5.381   1.585   1.792  1.1964  1.8667 -3.0218
 6582SOL    HW221754   5.289   1.705   1.789 -0.6833  0.4619 -3.9679
 6583SOL     OW21755   2.160   7.017   1.876  0.5361  0.6280  0.3034
 6583SOL    HW121756   2.169   6.935   1.829  1.2875  0.6711  0.3551
 6583SOL    HW221757   2.168   7.085   1.809 -2.4196  0.6805 -0.1248
 6584SOL     OW21758   7.515  11.238   6.868  0.7242 -0.1911 -0.8631
 6584SOL    HW121759   7.512  11.223   6.773  2.1961 -0.9419 -0.8221
 6584SOL    HW221760   7.592  11.293   6.881 -0.8946  2.1110 -0.3194
 6585SOL     OW21761   5.406   4.463   8.863  0.3567  0.4657 -0.5363
 6585SOL    HW121762   5.329   4.415   8.895 -0.3378  1.6618 -0.3870
 6585SOL    HW221763   5.392   4.471   8.769  1.2498 -0.9590 -0.8394
 6586SOL     OW21764   4.289   0.138  10.551 -0.2446  0.5210  0.1271
 6586SOL    HW121765   4.334   0.088  10.619 -0.1924 -0.2075 -0.4288
 6586SOL    HW221766   4.358   0.166  10.491 -0.5719 -1.4883 -1.2984
 6587SOL     OW21767   3.864   7.651   5.702 -1.0606 -0.4433 -0.4182
 6587SOL    HW121768   3.847   7.671   5.795  1.2559  3.5259 -0.6255
 6587SOL    HW221769   3.821   7.722   5.654 -0.3756 -1.1829 -2.2053
 6588SOL     OW21770   2.847   0.785   4.440  0.0286  0.4006  0.2267
 6588SOL    HW121771   2.881   0.696   4.450 -0.3675  0.1892 -0.2426
 6588SOL    HW221772   2.877   0.831   4.518 -0.4330 -0.3599  0.8672
 6589SOL     OW21773   1.179   5.148   6.625 -0.3732 -0.3572  0.2243
 6589SOL    HW121774   1.198   5.180   6.537 -2.3284 -0.2904 -0.2280
 6589SOL    HW221775   1.264   5.119   6.660  0.5272  0.1740 -1.4410
 6590SOL     OW21776   1.894   0.543   7.071  0.0034  0.0183 -0.0291
 6590SOL    HW121777   1.862   0.585   6.991 -1.1285 -0.1270  0.3364
 6590SOL    HW221778   1.952   0.474   7.041 -0.9439 -0.4716 -0.7553
 6591SOL     OW21779   8.210   7.881   4.659  0.1776 -0.2110 -0.6973
 6591SOL    HW121780   8.131   7.854   4.612 -0.6809 -0.9850  1.0869
 6591SOL    HW221781   8.267   7.804   4.656  0.3801 -0.0534 -0.9731
 6592SOL     OW21782   1.366   4.778   3.899 -0.1225  0.3524 -0.7385
 6592SOL    HW121783   1.461   4.764   3.895 -0.2881 -0.7963 -0.8266
 6592SOL    HW221784   1.355   4.872   3.884  1.0569  0.6523  0.1448
 6593SOL     OW21785   7.416   2.329   1.190 -0.5070 -0.2055 -0.8185
 6593SOL    HW121786   7.450   2.399   1.134  0.8771  0.1428  0.4029
 6593SOL    HW221787   7.416   2.252   1.133  0.2784  0.2595 -1.4810
 6594SOL     OW21788   0.379  10.346   2.766 -0.5355  0.4927 -0.3836
 6594SOL    HW121789   0.363  10.253   2.752  1.6683 -0.2189  1.1455
 6594SOL    HW221790   0.375  10.357   2.861  2.5879  1.1167 -0.1950
 6595SOL     OW21791   4.177   6.040   2.737  0.3862  0.3870 -0.6810
 6595SOL    HW121792   4.249   6.044   2.800 -0.6489 -0.6559  0.6509
 6595SOL    HW221793   4.142   6.129   2.734 -0.0003  0.3138  0.8243
 6596SOL     OW21794  10.934   0.933   8.082 -0.9081 -0.0253  0.0570
 6596SOL    HW121795  10.913   0.840   8.089  0.7728 -0.4279  0.2559
 6596SOL    HW221796  10.997   0.949   8.153 -0.0837  0.9135 -0.8475
 6597SOL     OW21797   6.419   0.381   2.230 -0.0171  0.4587  0.2708
 6597SOL    HW121798   6.458   0.469   2.228  0.7979  0.1604 -2.6790
 6597SOL    HW221799   6.343   0.388   2.172  0.7133 -0.9902 -0.9220
 6598SOL     OW21800   6.254   7.869   2.423  0.1989 -0.2716  0.3826
 6598SOL    HW121801   6.163   7.898   2.427  0.4256  0.6714 -0.7054
 6598SOL    HW221802   6.252   7.778   2.451 -0.9172  0.0617  1.4234
 6599SOL     OW21803   8.462   1.422   2.165  1.3374  0.0592 -0.0740
 6599SOL    HW121804   8.473   1.497   2.223  2.6151 -1.4243  1.6929
 6599SOL    HW221805   8.528   1.359   2.192  0.5268 -1.6209 -1.7012
 6600SOL     OW21806   5.099   3.494   4.144 -0.3106 -0.4639  0.2783
 6600SOL    HW121807   5.057   3.528   4.223  1.2394  1.4100  0.3512
 6600SOL    HW221808   5.116   3.402   4.164 -3.4219 -1.0841  0.5775
 6601SOL     OW21809   7.187   5.732  10.378  0.2809  0.6257  0.1980
 6601SOL    HW121810   7.270   5.709  10.419 -0.0590  1.1255  1.1993
 6601SOL    HW221811   7.123   5.676  10.420  0.3509 -1.2901 -2.0579
 6602SOL     OW21812   8.047  10.958   3.727  0.8500 -0.2291  0.3265
 6602SOL    HW121813   7.980  11.011   3.768  0.8626 -1.1847  1.6329
 6602SOL    HW221814   8.013  10.939   3.639  0.1340  0.5655  0.4214
 6603SOL     OW21815   7.653   9.053   0.009  0.4898  0.3339 -0.0132
 6603SOL    HW121816   7.584   8.987  -0.002  0.0009  0.5898  1.3088
 6603SOL    HW221817   7.734   9.003   0.008  0.4813  0.1918 -3.2368
 6604SOL     OW21818   4.924   9.118   1.945 -0.3311 -0.3130  0.4428
 6604SOL    HW121819   4.923   9.061   1.868 -0.4117  1.4866 -0.9541
 6604SOL    HW221820   4.863   9.189   1.924  1.1165  1.2679  1.3289
 6605SOL     OW21821   2.542   8.749   5.871  0.5273  0.4485  0.1724
 6605SOL    HW121822   2.505   8.717   5.788  0.2254  2.0040 -0.3319
 6605SOL    HW221823   2.636   8.759   5.853  1.3800 -3.4942  1.4499
 6606SOL     OW21824   1.775   1.156   3.249  0.2108  0.0266 -0.3364
 6606SOL    HW121825   1.846   1.102   3.216  0.3249 -0.0589  0.0446
 6606SOL    HW221826   1.707   1.094   3.275  1.4033 -0.1604  2.6907
 6607SOL     OW21827   7.662   6.736   9.288 -0.4052  0.3472  0.3295
 6607SOL    HW121828   7.626   6.676   9.223  1.8198 -1.0351  0.2858
 6607SOL    HW221829   7.757   6.721   9.285  0.0146  2.3060  1.8849
 6608SOL     OW21830   3.478   3.982   2.262 -0.7715 -0.0608 -0.1174
 6608SOL    HW121831   3.467   4.016   2.351  0.0472  0.1336 -0.0822
 6608SOL    HW221832   3.428   4.042   2.207 -0.1020  0.6635  0.0531
 6609SOL     OW21833   1.713   9.429   1.131  0.3617 -0.0436 -0.2784
 6609SOL    HW121834   1.623   9.416   1.164  0.7380  2.3082  2.0683
 6609SOL    HW221835   1.765   9.441   1.210  2.0067  2.6571 -1.6331
 6610SOL     OW21836   9.775   4.799   9.379 -0.4806 -0.1353 -0.5142
 6610SOL    HW121837   9.845   4.864   9.377 -0.6694  0.2269  1.7650
 6610SOL    HW221838   9.704   4.842   9.427 -0.5989 -1.9655  1.0828
 6611SOL     OW21839   8.008   1.832   1.998  0.1538  0.0478 -0.3772
 6611SOL    HW121840   8.005   1.864   2.088 -0.4007 -1.1710  0.0551
 6611SOL    HW221841   7.931   1.776   1.989  0.9387 -0.9736 -1.1621
 6612SOL     OW21842  10.821   2.179   8.421  0.2280  0.2838  0.2642
 6612SOL    HW121843  10.875   2.236   8.365 -0.0693 -0.3062 -0.6413
 6612SOL    HW221844  10.811   2.229   8.502  2.4820  0.2370  0.6346
 6613SOL     OW21845   8.289   0.304  10.345 -0.0117 -0.2926  0.3125
 6613SOL    HW121846   8.342   0.239  10.301 -0.1537 -0.5937  0.5787
 6613SOL    HW221847   8.278   0.375  10.281 -0.4618 -0.8491 -0.2362
 6614SOL     OW21848   2.789   8.221   8.083 -0.4362  0.4455 -0.1528
 6614SOL    HW121849   2.792   8.128   8.106  0.7558  0.2292 -1.1116
 6614SOL    HW221850   2.842   8.228   8.004  1.3595  2.3045  1.1117
 6615SOL     OW21851   8.819   1.540   5.221  0.5622 -0.6580 -0.0100
 6615SOL    HW121852   8.817   1.616   5.279 -1.2681  1.0707 -2.1866
 6615SOL    HW221853   8.907   1.542   5.182  0.7287 -0.0212  0.3778
 6616SOL     OW21854   6.111   7.051   2.642  0.3828  0.2933  0.0619
 6616SOL    HW121855   6.100   6.956   2.637  1.5935  0.1506 -0.1470
 6616SOL    HW221856   6.138   7.077   2.554 -0.4863  0.9248 -0.0358
 6617SOL     OW21857   5.212   4.155   1.598 -0.4004  0.5275 -0.4218
 6617SOL    HW121858   5.193   4.245   1.627  3.2785  1.2073  0.4988
 6617SOL    HW221859   5.270   4.121   1.666 -2.1188 -2.8642 -0.4723
 6618SOL     OW21860   7.976   1.360   1.065 -0.0965 -0.6999 -0.0940
 6618SOL    HW121861   7.915   1.397   1.128  1.1292  0.7885  0.2851
 6618SOL    HW221862   7.986   1.269   1.091 -0.8100 -0.5054  0.9035
 6619SOL     OW21863  10.090   6.573   6.187  0.5706  0.1032  0.5086
 6619SOL    HW121864  10.177   6.545   6.216  1.0157  0.7240 -0.1985
 6619SOL    HW221865  10.038   6.575   6.268  1.1935 -0.3178  0.9353
 6620SOL     OW21866   3.208   0.283   3.560  0.2450  0.4428  0.2971
 6620SOL    HW121867   3.189   0.280   3.653 -0.2362  0.7500  0.2134
 6620SOL    HW221868   3.282   0.343   3.551 -1.1159  2.1951  0.2752
 6621SOL     OW21869   6.258   3.522   6.755 -0.1403 -0.6287 -0.0047
 6621SOL    HW121870   6.179   3.469   6.761 -0.5863 -0.1275 -1.1507
 6621SOL    HW221871   6.227   3.609   6.731  0.7220 -0.2841  0.0713
 6622SOL     OW21872   8.974   0.200   8.984 -0.6800  0.2222 -0.5529
 6622SOL    HW121873   9.035   0.236   9.049 -0.5038  0.5026 -0.8738
 6622SOL    HW221874   8.901   0.167   9.036 -0.8495  1.0497 -0.2589
 6623SOL     OW21875   7.132   3.296   5.574 -0.5158 -0.3757  0.1459
 6623SOL    HW121876   7.128   3.291   5.670 -0.5735 -0.8456  0.1225
 6623SOL    HW221877   7.077   3.224   5.544  3.0769 -3.3101 -0.1891
 6624SOL     OW21878   5.236   8.124  10.790  0.0659  0.4479 -0.6929
 6624SOL    HW121879   5.308   8.165  10.838 -1.9161  0.0910  2.9595
 6624SOL    HW221880   5.271   8.039  10.763  0.6502 -0.4605  2.5018
 6625SOL     OW21881   0.741   3.905   5.514 -0.0128 -0.2308  0.1765
 6625SOL    HW121882   0.774   3.909   5.604  0.3190 -1.7327  0.1538
 6625SOL    HW221883   0.797   3.965   5.465 -0.8459  1.3821  1.1300
 6626SOL     OW21884   2.159  10.858   4.343  0.3413  0.2579 -0.0760
 6626SOL    HW121885   2.174  10.918   4.417 -0.7059 -1.3659  1.5371
 6626SOL    HW221886   2.137  10.916   4.270 -0.6496  1.8694  1.4152
 6627SOL     OW21887   4.417   5.480   3.946  0.3540  0.9179  0.3093
 6627SOL    HW121888   4.475   5.419   3.901 -1.4967 -1.3626  0.8695
 6627SOL    HW221889   4.388   5.540   3.878  0.9726  0.1988 -0.6108
 6628SOL     OW21890   2.558   1.825   0.999  0.4996 -0.0762 -0.2063
 6628SOL    HW121891   2.621   1.891   1.029  0.8346  0.5488 -2.1455
 6628SOL    HW221892   2.578   1.747   1.051  0.4527  1.1412  1.7618
 6629SOL     OW21893   1.155   7.034  10.755 -0.4152 -0.5703 -0.5600
 6629SOL    HW121894   1.153   7.093  10.680  1.5643 -2.6884 -2.4406
 6629SOL    HW221895   1.248   7.031  10.781 -1.0175 -0.0373  1.9414
 6630SOL     OW21896  11.087   3.444   9.069  0.4644  0.5965 -0.3144
 6630SOL    HW121897  11.022   3.410   9.131 -1.3595  0.4968 -2.1565
 6630SOL    HW221898  11.142   3.369   9.048 -0.1178  0.1396 -0.2485
 6631SOL     OW21899   0.982   9.995   1.863  0.7204  0.4710 -0.3916
 6631SOL    HW121900   0.896   9.961   1.839  0.3929  0.4794  0.7169
 6631SOL    HW221901   1.026  10.010   1.779 -0.3002  0.3409 -0.9685
 6632SOL     OW21902  10.014   0.829   6.614 -0.0145 -1.0226  0.1135
 6632SOL    HW121903  10.021   0.904   6.555 -0.7748 -0.7073  0.4119
 6632SOL    HW221904   9.926   0.795   6.599 -0.7252 -0.1284  1.9942
 6633SOL     OW21905   4.582   9.169   9.315  0.3657 -0.7385  0.3517
 6633SOL    HW121906   4.531   9.154   9.235 -0.4856 -0.8466  0.8972
 6633SOL    HW221907   4.540   9.114   9.381  0.5202 -0.0044  1.0865
 6634SOL     OW21908   8.102   8.748   1.864  0.0587 -0.5765  0.3688
 6634SOL    HW121909   8.017   8.703   1.867  0.1417 -0.6902  2.2212
 6634SOL    HW221910   8.079   8.841   1.859 -0.1405 -0.6880 -1.0106
 6635SOL     OW21911   2.205  10.319   3.771  0.0266 -0.1257 -0.8574
 6635SOL    HW121912   2.178  10.323   3.863 -0.5129 -0.1278 -1.0126
 6635SOL    HW221913   2.202  10.225   3.749  1.5842 -0.3091 -0.4715
 6636SOL     OW21914   4.040   3.918   6.623 -0.1636 -0.0131  0.7810
 6636SOL    HW121915   4.050   3.838   6.674 -0.8963 -1.0062 -0.5605
 6636SOL    HW221916   3.999   3.980   6.683 -2.7180 -1.7160  0.9474
 6637SOL     OW21917   7.401   0.198   0.058 -1.3629 -0.1516 -0.9064
 6637SOL    HW121918   7.368   0.218   0.146 -0.3769  0.0528 -0.5639
 6637SOL    HW221919   7.401   0.103   0.053  0.2833 -0.2441  0.0301
 6638SOL     OW21920   3.313   4.815   9.919  0.7675 -0.1305 -0.0400
 6638SOL    HW121921   3.321   4.749   9.850  2.5237  1.6077 -1.6290
 6638SOL    HW221922   3.376   4.789   9.986 -0.9447 -1.8274  1.0287
 6639SOL     OW21923   9.321   3.010   7.169 -0.3272  0.0127  0.3457
 6639SOL    HW121924   9.342   2.946   7.238 -3.3425 -1.5084 -0.0066
 6639SOL    HW221925   9.270   3.077   7.214  0.8756  1.0331  0.2457
 6640SOL     OW21926   3.295   9.971   9.513 -0.0900  0.5605  0.4562
 6640SOL    HW121927   3.357   9.988   9.441  0.4565 -2.1579  0.1948
 6640SOL    HW221928   3.349   9.971   9.592 -0.0201 -0.2435  0.4117
 6641SOL     OW21929  10.053   0.123  11.102 -0.1753  0.3109 -0.2451
 6641SOL    HW121930  10.080   0.173  11.179 -0.0530 -0.6317  0.3401
 6641SOL    HW221931   9.988   0.178  11.059  3.1157  3.1233 -2.1974
 6642SOL     OW21932   6.441   8.041   9.709 -0.7167 -0.3185 -1.0204
 6642SOL    HW121933   6.443   8.129   9.671  0.6858  0.0147 -0.2076
 6642SOL    HW221934   6.469   8.052   9.799 -0.6443 -1.5908 -0.8624
 6643SOL     OW21935   0.805   5.399  10.823  0.3432  1.1190  0.2493
 6643SOL    HW121936   0.883   5.440  10.786 -0.5266 -0.1226 -3.3964
 6643SOL    HW221937   0.736   5.465  10.813  0.1510  0.8552 -0.2342
 6644SOL     OW21938  10.525   7.514   4.225  0.3079  0.1029  1.0413
 6644SOL    HW121939  10.474   7.465   4.290  0.7658  2.0703  3.0118
 6644SOL    HW221940  10.610   7.529   4.268  0.3560  2.1254  0.3340
 6645SOL     OW21941   4.552   5.227   0.145  0.1257  0.7797 -0.2549
 6645SOL    HW121942   4.470   5.244   0.098  0.6188  0.7779 -1.1345
 6645SOL    HW221943   4.589   5.314   0.160  0.2270  0.7539 -0.3502
 6646SOL     OW21944   1.235  10.212   4.326  0.5684 -0.4538 -0.8515
 6646SOL    HW121945   1.198  10.240   4.242 -1.3797  0.3902  0.2156
 6646SOL    HW221946   1.191  10.267   4.391  0.5821 -2.3950  0.9058
 6647SOL     OW21947   6.480   1.430   4.847 -0.7415  0.1368  0.4521
 6647SOL    HW121948   6.446   1.366   4.910 -0.7684  0.7032  1.0213
 6647SOL    HW221949   6.549   1.382   4.801 -1.8811 -0.8395 -0.3182
 6648SOL     OW21950   5.868  10.203  10.676  0.0842  0.0660  0.6096
 6648SOL    HW121951   5.948  10.256  10.672 -0.2176  0.4834 -0.5488
 6648SOL    HW221952   5.811  10.242  10.609  0.9475 -3.4679 -2.4799
 6649SOL     OW21953  10.538   9.267   6.385 -0.3894  0.2162  0.3405
 6649SOL    HW121954  10.601   9.222   6.330 -1.6661 -1.0254 -0.1716
 6649SOL    HW221955  10.563   9.360   6.380  1.7507 -0.2873  0.6850
 6650SOL     OW21956  10.075   0.805   9.991 -0.6512 -0.5884  0.2686
 6650SOL    HW121957  10.111   0.890   9.966 -1.9240  0.0242  0.3919
 6650SOL    HW221958  10.078   0.753   9.911 -0.9810 -0.0033 -0.1311
 6651SOL     OW21959   3.483   8.624   7.451 -0.3517  0.0810  0.2747
 6651SOL    HW121960   3.437   8.555   7.404 -0.1523 -0.2201  0.5144
 6651SOL    HW221961   3.565   8.583   7.479  0.1496  0.6660 -0.3133
 6652SOL     OW21962   8.553   5.851   7.005  0.2224  0.7725  0.9631
 6652SOL    HW121963   8.626   5.857   7.066  0.1983 -0.1122  1.0939
 6652SOL    HW221964   8.539   5.757   6.993  0.1971  0.9283 -0.3774
 6653SOL     OW21965   8.857  10.561   8.901  0.0511 -0.4054  0.0509
 6653SOL    HW121966   8.921  10.499   8.935 -0.0217 -0.6676 -0.2831
 6653SOL    HW221967   8.775  10.512   8.897 -0.4489  0.2482  1.5430
 6654SOL     OW21968   9.297   9.600   4.881  0.1379 -0.0034 -0.0104
 6654SOL    HW121969   9.305   9.540   4.807  1.4564 -0.1241  0.2038
 6654SOL    HW221970   9.387   9.630   4.897 -0.1269  0.0145  1.5361
 6655SOL     OW21971   0.153   7.251   5.789  0.0923 -0.4770 -0.7651
 6655SOL    HW121972   0.199   7.299   5.858  0.5657  1.9368 -2.6076
 6655SOL    HW221973   0.216   7.187   5.757  0.2466 -0.8556  0.2594
 6656SOL     OW21974   6.053   2.154   8.774  0.1297  0.7928 -0.3338
 6656SOL    HW121975   6.080   2.079   8.826 -0.7353 -1.6299 -3.1315
 6656SOL    HW221976   6.135   2.200   8.754  0.5083  1.6616  2.7367
 6657SOL     OW21977   4.661   1.250   0.507 -0.2170 -0.2748  0.2441
 6657SOL    HW121978   4.673   1.181   0.572 -0.3671 -1.3534 -0.8441
 6657SOL    HW221979   4.674   1.331   0.556  0.1756 -1.0683  1.5054
 6658SOL     OW21980   2.997   6.886   5.106 -0.4648  0.3225  0.1002
 6658SOL    HW121981   2.942   6.842   5.041 -1.6820  3.0706 -0.8466
 6658SOL    HW221982   3.081   6.899   5.062 -1.3671  2.4169 -1.1321
 6659SOL     OW21983   0.485   0.422   6.796 -0.0556 -0.1464  0.1612
 6659SOL    HW121984   0.538   0.457   6.725  2.7819  0.3797  2.3826
 6659SOL    HW221985   0.546   0.410   6.868 -2.4159 -2.4922  1.9492
 6660SOL     OW21986   6.256   0.272   4.325 -0.3748 -0.0029  0.2599
 6660SOL    HW121987   6.196   0.238   4.392 -1.2204  0.1350 -0.4090
 6660SOL    HW221988   6.201   0.327   4.269  0.4746  0.4815 -0.1132
 6661SOL     OW21989   0.233   7.798   9.946  0.2376  0.0615  0.3772
 6661SOL    HW121990   0.205   7.714   9.981  1.3744 -0.6555 -0.3685
 6661SOL    HW221991   0.318   7.814   9.988  0.6570  0.1739 -0.4924
 6662SOL     OW21992   0.187   2.746   7.318  0.4824 -0.5287  0.7023
 6662SOL    HW121993   0.146   2.669   7.356  1.5142 -2.0347 -1.0382
 6662SOL    HW221994   0.249   2.776   7.385 -0.1061 -1.0676  1.5005
 6663SOL     OW21995   1.585   3.147   1.836  0.3215  0.2700  0.5868
 6663SOL    HW121996   1.639   3.103   1.902  0.3746  1.7054  1.5517
 6663SOL    HW221997   1.500   3.104   1.842  1.2738 -1.9681 -0.8997
 6664SOL     OW21998   4.665   0.234   1.529  0.1143  0.4701 -0.1610
 6664SOL    HW121999   4.603   0.166   1.503 -0.1150  0.7764 -0.4151
 6664SOL    HW222000   4.611   0.308   1.555  0.3131  0.0142  1.7264
 6665SOL     OW22001   9.241   2.216   6.316 -0.2361  0.1047  0.0109
 6665SOL    HW122002   9.200   2.300   6.299  1.9822  1.1114 -0.7810
 6665SOL    HW222003   9.177   2.151   6.286 -0.7502  1.5998 -2.3874
 6666SOL     OW22004   0.348  10.167   5.215  0.1928 -0.4592  0.2131
 6666SOL    HW122005   0.439  10.183   5.243 -0.6240  2.5378  1.5995
 6666SOL    HW222006   0.355  10.150   5.121  2.1658  0.2087  0.1888
 6667SOL     OW22007   4.931   1.267   8.051 -0.2431 -0.0943 -0.9074
 6667SOL    HW122008   5.000   1.209   8.021 -0.5847 -0.4976 -0.9156
 6667SOL    HW222009   4.966   1.355   8.038  0.4910 -0.3056 -0.3772
 6668SOL     OW22010   4.295   2.947   5.853  0.2431 -0.4312  0.1177
 6668SOL    HW122011   4.370   2.923   5.907  0.1373  0.5669  0.7476
 6668SOL    HW222012   4.228   2.975   5.916 -1.1553 -2.5165 -0.3430
 6669SOL     OW22013   5.475   5.862   7.980  0.1477  0.6671  0.4231
 6669SOL    HW122014   5.488   5.788   7.921 -6.0008 -0.1138 -0.5840
 6669SOL    HW222015   5.459   5.937   7.922 -1.0132  1.0139  1.1419
 6670SOL     OW22016  10.850   6.257   4.614  0.3098  0.3845 -0.0583
 6670SOL    HW122017  10.813   6.343   4.635  0.2484  0.4773 -0.5373
 6670SOL    HW222018  10.934   6.277   4.572  1.0845  0.1671  1.3474
 6671SOL     OW22019   7.726   3.251   2.068 -0.3011 -0.2799 -0.3673
 6671SOL    HW122020   7.790   3.322   2.074 -0.2010 -0.2176 -1.7246
 6671SOL    HW222021   7.757   3.186   2.130  1.1761 -0.3080 -1.0844
 6672SOL     OW22022   9.162   9.165   1.844  0.2618  1.2846  0.0263
 6672SOL    HW122023   9.235   9.111   1.813  0.3668  1.4238  0.0308
 6672SOL    HW222024   9.158   9.148   1.938 -1.1506 -0.4686 -0.3043
 6673SOL     OW22025   0.359   2.422   9.169  0.1822  0.4800  0.9379
 6673SOL    HW122026   0.277   2.464   9.196 -0.6546 -1.2784  1.2832
 6673SOL    HW222027   0.368   2.445   9.077 -1.2917 -0.1784  0.6070
 6674SOL     OW22028   0.084   1.698   2.056 -0.1508 -0.1950  0.1843
 6674SOL    HW122029   0.111   1.630   1.995  0.1540  0.2531 -0.1945
 6674SOL    HW222030   0.091   1.658   2.143  2.8534  0.1965  0.2388
 6675SOL     OW22031   3.446   5.990   3.162 -0.3217 -0.3196 -0.1926
 6675SOL    HW122032   3.425   6.076   3.200  1.3131 -0.3096  0.7899
 6675SOL    HW222033   3.364   5.941   3.165 -1.3514  1.2552 -0.9711
 6676SOL     OW22034   8.913  11.097   1.894 -0.2815  0.3960  1.0085
 6676SOL    HW122035   8.863  11.033   1.945 -0.9215 -1.1426 -1.3692
 6676SOL    HW222036   8.997  11.053   1.878 -0.1692  0.7637  0.5749
 6677SOL     OW22037   6.036   6.158   4.503  1.3747 -0.3416  0.2070
 6677SOL    HW122038   6.063   6.103   4.576  0.0535 -0.5942  0.5361
 6677SOL    HW222039   5.962   6.112   4.463 -0.0121  1.3123  0.7104
 6678SOL     OW22040   1.966   7.970   7.800 -0.1669 -0.2340 -0.1964
 6678SOL    HW122041   1.886   8.017   7.776 -1.8985 -2.5772  0.6350
 6678SOL    HW222042   1.944   7.926   7.882  2.6995  0.6508  1.1528
 6679SOL     OW22043   1.612   5.075   3.206 -0.2089  0.7319 -0.1221
 6679SOL    HW122044   1.539   5.076   3.144 -0.7313 -1.5599  0.3571
 6679SOL    HW222045   1.651   5.161   3.198 -1.3522  1.1228 -2.3298
 6680SOL     OW22046  10.620   7.646   1.340 -0.4666  0.2793  0.3686
 6680SOL    HW122047  10.690   7.689   1.290  0.5315 -1.0636  0.5692
 6680SOL    HW222048  10.620   7.691   1.424  0.7865 -0.2811  0.6923
 6681SOL     OW22049   3.875   2.237  11.107  0.0583  1.1021  0.5477
 6681SOL    HW122050   3.863   2.147  11.135 -1.5220  0.7293 -1.1332
 6681SOL    HW222051   3.969   2.246  11.092  0.1654 -0.4232  0.2127
 6682SOL     OW22052   3.911   6.112   3.562  0.0389 -0.0763 -0.2870
 6682SOL    HW122053   3.824   6.147   3.546  0.0840  0.1966  0.0414
 6682SOL    HW222054   3.964   6.189   3.583 -0.1499 -0.4431  1.7058
 6683SOL     OW22055   0.797   4.265   6.165  0.1514  0.1444 -0.3351
 6683SOL    HW122056   0.771   4.342   6.214 -0.0338  1.7475 -2.8009
 6683SOL    HW222057   0.720   4.208   6.166  0.0684  0.2458  0.9183
 6684SOL     OW22058   2.603   2.080   7.703  0.2191 -0.3248  0.0591
 6684SOL    HW122059   2.552   2.025   7.763 -1.5088  0.3761 -0.6946
 6684SOL    HW222060   2.542   2.149   7.677  1.0975 -0.2811 -2.0548
 6685SOL     OW22061   4.631   1.468   7.330  0.3516  0.1904 -0.0821
 6685SOL    HW122062   4.567   1.399   7.350 -1.4603  1.3057 -1.6152
 6685SOL    HW222063   4.617   1.534   7.397 -1.6216  1.3313 -1.5174
 6686SOL     OW22064   3.311   0.355  10.176  0.2921  0.3188  0.2875
 6686SOL    HW122065   3.287   0.394  10.260  1.6133  0.4912  0.6085
 6686SOL    HW222066   3.363   0.278  10.199 -2.1940 -1.6946 -0.3319
 6687SOL     OW22067   5.504   5.399   6.360 -1.0592  0.2259 -0.2439
 6687SOL    HW122068   5.576   5.403   6.296 -0.0309 -3.2870  0.4663
 6687SOL    HW222069   5.546   5.409   6.445 -1.3739 -1.6635  0.1733
 6688SOL     OW22070   3.655   3.384   6.358 -0.3419 -0.0838  0.0049
 6688SOL    HW122071   3.707   3.424   6.428 -1.3828  1.3783 -0.0074
 6688SOL    HW222072   3.717   3.375   6.285 -0.0784  1.7474 -0.0587
 6689SOL     OW22073   3.356   4.654   4.965 -0.2021  0.1802  0.0030
 6689SOL    HW122074   3.411   4.633   4.890 -2.0576 -0.7162 -1.1687
 6689SOL    HW222075   3.417   4.663   5.038  1.3753 -2.5083 -0.8498
 6690SOL     OW22076  10.324   5.177   1.869 -0.5932  0.0594  0.3243
 6690SOL    HW122077  10.390   5.221   1.816  0.4096 -2.0654 -0.2867
 6690SOL    HW222078  10.322   5.087   1.836 -1.5704 -0.7411  2.3814
 6691SOL     OW22079   9.665   0.139  11.223  0.0188 -0.2117 -0.5708
 6691SOL    HW122080   9.719   0.168  11.149  0.0171 -0.8350 -0.8260
 6691SOL    HW222081   9.600   0.081  11.183 -0.0421 -0.4793 -0.0895
 6692SOL     OW22082   7.121   8.811   1.969  0.2375 -0.1708  0.8314
 6692SOL    HW122083   7.193   8.782   2.026  1.5004 -1.0327 -1.0828
 6692SOL    HW222084   7.127   8.753   1.893 -0.8617  1.4464 -0.5518
 6693SOL     OW22085  10.715   8.936  10.179 -0.1259  0.4650  0.2309
 6693SOL    HW122086  10.744   8.847  10.196 -1.0024  0.4858  2.0162
 6693SOL    HW222087  10.705   8.940  10.083  0.6091 -1.1023  0.0573
 6694SOL     OW22088   9.295  11.147   1.703 -0.2954  0.3481  0.0375
 6694SOL    HW122089   9.319  11.142   1.611  1.4594 -0.9867  0.5173
 6694SOL    HW222090   9.361  11.202   1.744 -0.0858 -0.4090  0.7628
 6695SOL     OW22091   3.315   3.512   1.458  0.7355  0.3513 -0.1432
 6695SOL    HW122092   3.388   3.575   1.463  0.9621  0.4744 -3.2131
 6695SOL    HW222093   3.337   3.455   1.385 -1.1547 -1.1476  0.3726
 6696SOL     OW22094   4.688   7.784   0.322  0.0378  0.0111  0.3498
 6696SOL    HW122095   4.751   7.850   0.351 -0.5147  0.4532  0.5706
 6696SOL    HW222096   4.659   7.814   0.236  1.4777 -1.1621 -0.5805
 6697SOL     OW22097   8.880   3.753   0.310 -0.4896 -0.3855  0.0112
 6697SOL    HW122098   8.939   3.745   0.235 -1.4628 -0.3339 -0.7815
 6697SOL    HW222099   8.871   3.848   0.323 -1.2815 -0.3595 -0.6118
 6698SOL     OW22100   6.446   4.121   1.643 -0.4372 -0.1342  0.0062
 6698SOL    HW122101   6.420   4.090   1.556 -3.9290 -0.2020  0.9346
 6698SOL    HW222102   6.404   4.206   1.652  1.9588  1.0597  0.7641
 6699SOL     OW22103   8.418   8.994   9.804  0.2995 -0.3171 -0.0119
 6699SOL    HW122104   8.384   8.908   9.825  0.3139 -0.4772 -0.6199
 6699SOL    HW222105   8.421   9.040   9.888  1.1696 -1.2134  0.4695
 6700SOL     OW22106   1.076   2.849   5.164  0.8315 -0.0413  0.1105
 6700SOL    HW122107   1.093   2.802   5.082 -0.0636 -0.6325  0.2500
 6700SOL    HW222108   1.154   2.902   5.177  1.2240 -0.3552 -0.8421
 6701SOL     OW22109   5.986   9.159   7.762  0.4213  0.1422  0.2881
 6701SOL    HW122110   6.066   9.106   7.767  2.3587  2.9833  2.8405
 6701SOL    HW222111   6.006   9.225   7.694 -1.1694 -1.0346 -1.4182
 6702SOL     OW22112   6.077   8.941   5.321  0.2929  0.2019 -0.0477
 6702SOL    HW122113   6.036   8.951   5.407  2.4149  0.4003  1.0146
 6702SOL    HW222114   6.083   8.846   5.308 -1.1554  0.1589 -0.5916
 6703SOL     OW22115   2.279   4.485   5.980 -0.1466  0.0526  0.3348
 6703SOL    HW122116   2.303   4.473   5.888  1.4252  0.6734  0.6384
 6703SOL    HW222117   2.215   4.416   5.998  1.5979 -1.8434 -0.4598
 6704SOL     OW22118  10.919   3.597   4.495  0.1224 -0.5853  0.0755
 6704SOL    HW122119  10.927   3.532   4.425 -2.2346 -1.3082  0.3862
 6704SOL    HW222120  10.900   3.679   4.449 -0.2161 -0.8037 -0.1768
 6705SOL     OW22121   1.034   0.388   8.871  0.3297  0.7232  0.1399
 6705SOL    HW122122   0.987   0.424   8.946  0.0673  1.2727 -0.2847
 6705SOL    HW222123   1.041   0.461   8.810  0.4122  0.2365 -0.4347
 6706SOL     OW22124   5.672   8.045   3.896  0.0006  0.0475 -0.0495
 6706SOL    HW122125   5.696   8.036   3.803  1.8289  0.7315  0.3067
 6706SOL    HW222126   5.665   8.139   3.909 -0.3416 -0.0543  0.5010
 6707SOL     OW22127   5.364   5.736   4.722 -0.5912  0.9072 -0.3510
 6707SOL    HW122128   5.304   5.807   4.747 -1.1101  0.4447 -0.2558
 6707SOL    HW222129   5.451   5.772   4.736 -0.8402  1.7748 -0.9941
 6708SOL     OW22130   9.177   2.456   4.295 -0.0217 -0.5590  0.1790
 6708SOL    HW122131   9.084   2.470   4.274 -0.0766 -1.1034  0.0453
 6708SOL    HW222132   9.222   2.458   4.210 -0.2328 -2.6679 -0.0466
 6709SOL     OW22133   3.720  11.272   3.645  0.6210  0.1592  0.0242
 6709SOL    HW122134   3.627  11.295   3.654  1.0114  1.4149  1.2468
 6709SOL    HW222135   3.731  11.255   3.551 -0.2820  2.7263 -0.6363
 6710SOL     OW22136   4.291   3.466   8.782 -0.2587 -0.3800 -0.0704
 6710SOL    HW122137   4.253   3.431   8.863  1.7462  0.5264  1.3486
 6710SOL    HW222138   4.267   3.559   8.783  0.8667 -0.0762  0.1972
 6711SOL     OW22139   9.878   5.175   7.440  0.1224  0.3078  0.0230
 6711SOL    HW122140   9.809   5.138   7.495  0.0469 -0.4034 -0.5277
 6711SOL    HW222141   9.862   5.137   7.353  0.0687  1.6037 -0.5664
 6712SOL     OW22142  10.228   1.236   4.571  0.8870 -0.6291 -0.3126
 6712SOL    HW122143  10.254   1.161   4.624  0.1580  0.2820  1.4261
 6712SOL    HW222144  10.309   1.287   4.562  1.1170 -1.0147 -0.4662
 6713SOL     OW22145   5.887   2.083   6.349 -0.4557  0.1853 -0.6950
 6713SOL    HW122146   5.918   2.095   6.259  0.0007 -0.8149 -0.6861
 6713SOL    HW222147   5.793   2.102   6.345 -0.8032 -1.5144 -1.7708
 6714SOL     OW22148   2.599   0.495   5.142 -0.6335  0.3864  0.9593
 6714SOL    HW122149   2.622   0.579   5.101 -3.7938  0.0312 -1.9894
 6714SOL    HW222150   2.654   0.431   5.098 -1.0282  0.5135  0.2567
 6715SOL     OW22151   9.542   9.531   9.318  0.4329 -0.1686  0.0586
 6715SOL    HW122152   9.629   9.503   9.348  0.4205 -0.2721 -0.0030
 6715SOL    HW222153   9.489   9.531   9.398  0.7340  0.8568  0.2752
 6716SOL     OW22154   8.326   5.917   7.414  0.3303 -0.3690 -0.0663
 6716SOL    HW122155   8.285   5.956   7.491 -0.5333 -1.1320 -0.1226
 6716SOL    HW222156   8.412   5.958   7.409 -0.5565  1.6224 -0.1884
 6717SOL     OW22157   3.645   3.092  10.961 -0.4839  0.8776 -0.6107
 6717SOL    HW122158   3.727   3.089  11.011 -1.1145 -1.2967  0.4375
 6717SOL    HW222159   3.619   3.184  10.963 -0.0295  1.0458  2.4441
 6718SOL     OW22160   0.946   6.189   0.310 -0.6894  0.0737  0.4386
 6718SOL    HW122161   0.930   6.117   0.370 -0.0581  0.3228  0.9167
 6718SOL    HW222162   0.869   6.245   0.317  0.1578  1.0683  2.4193
 6719SOL     OW22163   3.504   3.625   2.890  0.5107 -0.4556  0.7549
 6719SOL    HW122164   3.452   3.705   2.892  0.6109 -0.4142  2.1773
 6719SOL    HW222165   3.585   3.649   2.846  0.5292  0.2101  1.1554
 6720SOL     OW22166   1.359   1.305   4.772  0.4056 -0.0975  0.3626
 6720SOL    HW122167   1.431   1.242   4.768  2.0058  1.5775  0.7229
 6720SOL    HW222168   1.345   1.319   4.866  0.4806  0.4747  0.2964
 6721SOL     OW22169   6.394   3.937   6.395  0.0891  0.6378  0.4995
 6721SOL    HW122170   6.430   3.988   6.467 -0.7320  2.2080 -0.1577
 6721SOL    HW222171   6.409   3.991   6.317 -0.7049 -0.1800 -0.2474
 6722SOL     OW22172   6.376   3.916   7.791  0.1572 -0.2232 -0.2656
 6722SOL    HW122173   6.397   3.898   7.700  1.6132 -0.6812  0.1278
 6722SOL    HW222174   6.446   3.975   7.821 -2.2747  3.0493 -0.3983
 6723SOL     OW22175   1.398   3.524   1.363  0.3781  0.3751  0.2432
 6723SOL    HW122176   1.319   3.577   1.355 -0.3020 -0.4114  1.3825
 6723SOL    HW222177   1.456   3.556   1.293 -2.6234 -2.0276 -3.7907
 6724SOL     OW22178   3.625   5.405   7.777 -0.0079 -0.2799 -0.3679
 6724SOL    HW122179   3.599   5.461   7.704 -0.5933 -0.7069 -0.4972
 6724SOL    HW222180   3.718   5.391   7.766 -0.1276 -0.4818 -1.1280
 6725SOL     OW22181   6.416   6.815  11.202  0.0595 -0.0961  0.8578
 6725SOL    HW122182   6.386   6.778  11.120 -0.7488 -1.4632  1.7328
 6725SOL    HW222183   6.510   6.796  11.205 -0.4058 -2.6694  1.5175
 6726SOL     OW22184   6.897   4.871   6.302 -0.2964 -0.2069  1.1326
 6726SOL    HW122185   6.847   4.929   6.244  0.6926  1.8771  2.2728
 6726SOL    HW222186   6.837   4.798   6.320 -1.7493  0.6500 -0.0144
 6727SOL     OW22187   0.775   1.298  10.714 -0.6586 -0.4694 -0.6381
 6727SOL    HW122188   0.774   1.321  10.807 -1.2969  0.4135 -0.8439
 6727SOL    HW222189   0.724   1.217  10.708  1.5225 -2.0007  0.0874
 6728SOL     OW22190   8.289   0.373   3.860  0.4116  0.4795 -0.2165
 6728SOL    HW122191   8.321   0.375   3.950 -0.1939  0.5156 -0.0011
 6728SOL    HW222192   8.368   0.377   3.807  0.7749  0.4195  0.3136
 6729SOL     OW22193   0.218   1.400  10.649  0.2046 -0.8083  0.3270
 6729SOL    HW122194   0.250   1.341  10.582 -0.3561 -2.0753  1.1418
 6729SOL    HW222195   0.247   1.487  10.621  3.1568 -1.6899  0.3289
 6730SOL     OW22196   6.936   9.782   5.653  0.8225  0.2502  0.1609
 6730SOL    HW122197   6.845   9.803   5.631  1.6719  2.0329 -2.0643
 6730SOL    HW222198   6.947   9.692   5.622  0.2828  0.6662 -1.3649
 6731SOL     OW22199   6.552   8.570   6.885  0.3243  0.2006  0.3775
 6731SOL    HW122200   6.573   8.498   6.826  3.2676 -0.0674  1.6050
 6731SOL    HW222201   6.520   8.639   6.827  1.3215 -0.6878 -1.3054
 6732SOL     OW22202   4.744   8.837   4.254 -0.3320 -0.5529 -0.0558
 6732SOL    HW122203   4.693   8.765   4.289  1.3287 -2.4993 -1.4181
 6732SOL    HW222204   4.834   8.803   4.249  0.9572  2.3111  1.2052
 6733SOL     OW22205   2.846  10.629  10.403  0.6568  0.3387 -0.0726
 6733SOL    HW122206   2.926  10.649  10.355  2.2795  1.0009  2.7175
 6733SOL    HW222207   2.867  10.553  10.456 -0.3964  0.8289  1.0964
 6734SOL     OW22208   9.690   9.214   5.250  0.0157  0.7924  1.2245
 6734SOL    HW122209   9.629   9.262   5.305  0.7376  2.3690  0.7189
 6734SOL    HW222210   9.639   9.143   5.212 -1.1489  1.2861  1.8394
 6735SOL     OW22211   3.379   0.653   3.918  0.0270  0.0876 -0.2324
 6735SOL    HW122212   3.443   0.701   3.971 -0.6368  1.0342 -0.2679
 6735SOL    HW222213   3.409   0.563   3.921 -0.3052 -0.0067  2.2477
 6736SOL     OW22214  11.164   0.915   9.766  0.1897 -0.1493  0.1514
 6736SOL    HW122215  11.179   0.996   9.816 -0.1656  0.4986 -0.7540
 6736SOL    HW222216  11.080   0.883   9.799 -1.5601  1.8725 -1.9817
 6737SOL     OW22217   9.082   7.982  10.169  0.0121 -0.0028  0.4315
 6737SOL    HW122218   8.987   7.994  10.175 -0.2130 -0.1289 -1.8736
 6737SOL    HW222219   9.105   8.019  10.083  2.3249  1.5797  1.6205
 6738SOL     OW22220   8.711   5.416   8.835 -0.3591  0.6141 -0.3411
 6738SOL    HW122221   8.706   5.438   8.742 -0.4064  2.3698  0.0423
 6738SOL    HW222222   8.789   5.462   8.867 -0.9439  0.9235  0.7048
 6739SOL     OW22223  11.077   7.134   9.941 -0.0013  0.2707 -0.6406
 6739SOL    HW122224  11.093   7.228   9.946  3.5403 -0.2009 -0.4986
 6739SOL    HW222225  11.067   7.106  10.032 -0.9199  0.4611 -0.6758
 6740SOL     OW22226   8.056   1.886   3.283  0.8677 -0.2567 -0.2546
 6740SOL    HW122227   8.150   1.884   3.263  0.7082 -2.6101 -1.0891
 6740SOL    HW222228   8.036   1.796   3.310 -0.9977  0.4181  0.7801
 6741SOL     OW22229  11.201   5.601   8.115  0.8513 -0.4035  0.7234
 6741SOL    HW122230  11.264   5.615   8.044  0.8178  0.0745  0.7889
 6741SOL    HW222231  11.116   5.602   8.072  0.7769  0.7094  0.8831
 6742SOL     OW22232  11.236  10.788   0.652 -0.6957 -0.0646 -0.2991
 6742SOL    HW122233  11.239  10.695   0.672  0.5882  0.0362  0.1072
 6742SOL    HW222234  11.191  10.828   0.726  0.0296 -0.2158  0.2421
 6743SOL     OW22235   8.881   8.073   3.483  0.1825  1.0000  0.1897
 6743SOL    HW122236   8.830   8.143   3.442 -1.4855  0.9190  1.9545
 6743SOL    HW222237   8.921   8.026   3.410  1.9247  4.1051 -1.0815
 6744SOL     OW22238   7.805   3.445   0.695  0.1907 -0.0689 -0.0203
 6744SOL    HW122239   7.815   3.532   0.733 -0.4991 -0.3468  0.8144
 6744SOL    HW222240   7.842   3.385   0.760 -1.6060 -0.6016  0.5603
 6745SOL     OW22241   3.279   7.115   0.004 -0.0667 -0.2798 -0.7816
 6745SOL    HW122242   3.232   7.198  -0.006 -1.9179 -1.1705 -0.0280
 6745SOL    HW222243   3.216   7.057   0.048  1.5114 -1.7917 -0.4006
 6746SOL     OW22244   8.920   0.827   8.002  0.4770 -0.2937  0.4132
 6746SOL    HW122245   8.855   0.859   7.939  0.5089  1.4892  1.2240
 6746SOL    HW222246   8.974   0.766   7.952 -0.2853  0.0974 -0.9411
 6747SOL     OW22247   5.257   9.237   5.051  0.4458  0.2253  0.0117
 6747SOL    HW122248   5.290   9.309   5.106  3.0001 -2.0555  1.7372
 6747SOL    HW222249   5.190   9.194   5.105 -0.4379  0.7233 -0.6555
 6748SOL     OW22250   5.603  11.148   7.052  0.3035 -0.3290 -0.0696
 6748SOL    HW122251   5.617  11.225   7.108  1.0552 -1.8634  1.9744
 6748SOL    HW222252   5.679  11.148   6.993 -0.0303  0.8258 -0.5245
 6749SOL     OW22253  10.525   2.305   7.799 -0.9779  0.4638  0.0786
 6749SOL    HW122254  10.506   2.283   7.890  1.4512  0.3191  0.6016
 6749SOL    HW222255  10.616   2.280   7.786 -0.3137  3.2492 -1.4841
 6750SOL     OW22256   2.609   7.283   8.564 -0.1087 -0.2768 -0.5955
 6750SOL    HW122257   2.564   7.208   8.604 -1.3648  0.4269 -0.6352
 6750SOL    HW222258   2.701   7.259   8.567 -0.1149 -0.3403  2.6585
 6751SOL     OW22259   7.445  10.658   0.629 -0.7507  0.6310 -0.2950
 6751SOL    HW122260   7.409  10.644   0.542  0.8508  2.1776 -1.2556
 6751SOL    HW222261   7.440  10.572   0.671 -1.1638 -0.2345 -2.0415
 6752SOL     OW22262   3.548   3.550   0.129  0.2864  0.5770 -0.1617
 6752SOL    HW122263   3.506   3.550   0.215 -0.9693  1.0508 -0.7568
 6752SOL    HW222264   3.476   3.543   0.066  1.2199 -0.4652 -1.1762
 6753SOL     OW22265  10.894   0.723   6.657  0.4253  0.4897  0.2147
 6753SOL    HW122266  10.878   0.629   6.655  1.3741  0.2956  1.0780
 6753SOL    HW222267  10.843   0.755   6.731  2.3994  0.1444  1.8357
 6754SOL     OW22268   5.169   9.642  11.155 -0.2641  0.2559  0.0642
 6754SOL    HW122269   5.216   9.725  11.161  0.9661 -0.1959 -2.1244
 6754SOL    HW222270   5.219   9.581  11.209  0.2616  0.3850 -0.2653
 6755SOL     OW22271   7.323   6.189   3.478 -0.5496 -0.0402 -0.2100
 6755SOL    HW122272   7.293   6.144   3.556 -1.5031  0.0615 -0.5107
 6755SOL    HW222273   7.252   6.249   3.455  0.9109  2.0900  0.5085
 6756SOL     OW22274   9.207   7.497   8.666 -0.5243 -0.2755  0.2917
 6756SOL    HW122275   9.249   7.582   8.676  2.3917 -1.6935  1.3035
 6756SOL    HW222276   9.231   7.468   8.578  1.5659 -1.4864  1.2009
 6757SOL     OW22277   2.332   6.478   0.387  0.1405 -0.2004  0.0778
 6757SOL    HW122278   2.404   6.538   0.366 -2.0408  1.9814 -1.7488
 6757SOL    HW222279   2.265   6.533   0.427 -1.5291 -1.6425 -0.5986
 6758SOL     OW22280   7.913   3.790   7.737 -0.0837 -0.0746 -0.1080
 6758SOL    HW122281   7.830   3.790   7.688  0.6294 -0.2973 -1.3399
 6758SOL    HW222282   7.887   3.771   7.827 -1.5188  1.1943 -0.2137
 6759SOL     OW22283   2.378   6.205   8.736  0.6843  0.2391  0.1026
 6759SOL    HW122284   2.310   6.138   8.728 -0.5756  1.5563 -0.8127
 6759SOL    HW222285   2.430   6.195   8.656 -1.0225  1.8656 -1.3188
 6760SOL     OW22286   7.768   3.339   9.851 -0.2693  0.0363  0.9354
 6760SOL    HW122287   7.824   3.339   9.773 -1.5492  0.7346 -0.0106
 6760SOL    HW222288   7.757   3.247   9.873 -2.1719 -0.3982 -1.4352
 6761SOL     OW22289   6.136   0.034   5.913 -0.3448 -0.4308  0.4176
 6761SOL    HW122290   6.203   0.001   5.852  0.2451 -2.0149  1.8550
 6761SOL    HW222291   6.167   0.121   5.937  0.7916 -0.8244  0.4419
 6762SOL     OW22292   5.559   9.665  10.890  0.6819  0.1474 -0.0596
 6762SOL    HW122293   5.519   9.746  10.921 -0.3741 -0.0412 -0.8741
 6762SOL    HW222294   5.652   9.674  10.913  0.1520  0.3942  2.3128
 6763SOL     OW22295   9.632   3.487   5.649 -0.1608  0.1770  0.1253
 6763SOL    HW122296   9.621   3.572   5.693  0.4652  0.1259  0.3869
 6763SOL    HW222297   9.672   3.431   5.715 -0.4137 -0.2813 -0.1037
 6764SOL     OW22298   9.583   5.192   9.917  0.0230 -0.7267 -0.1786
 6764SOL    HW122299   9.596   5.104   9.952  1.5991 -0.1506  0.7708
 6764SOL    HW222300   9.661   5.210   9.865 -1.1164 -0.5619 -1.9162
 6765SOL     OW22301   2.055   1.477  10.959  0.4520  0.2656  0.3711
 6765SOL    HW122302   2.026   1.568  10.949  0.6046  0.3220  0.4299
 6765SOL    HW222303   2.150   1.484  10.968  0.3648  0.1893  1.4918
 6766SOL     OW22304   3.771   3.760   2.857 -0.6067 -0.1421  0.0083
 6766SOL    HW122305   3.815   3.756   2.942 -1.0210 -1.0790  0.1932
 6766SOL    HW222306   3.729   3.846   2.855 -0.1330  0.1066  0.5093
 6767SOL     OW22307   7.757   0.987   6.616 -1.2789 -0.4303  0.4736
 6767SOL    HW122308   7.697   1.046   6.570  1.0115  2.8561  1.3607
 6767SOL    HW222309   7.840   0.998   6.570  0.0040 -0.4431  2.6820
 6768SOL     OW22310   3.522   7.660   2.669  0.3599 -0.0071  0.0493
 6768SOL    HW122311   3.515   7.612   2.752 -0.9377  0.5620  0.2897
 6768SOL    HW222312   3.478   7.743   2.686 -2.4655 -0.9481 -2.0025
 6769SOL     OW22313   6.078   1.885   9.880  0.0959  0.1386 -0.2869
 6769SOL    HW122314   6.086   1.978   9.900 -0.8583  0.6807 -2.1858
 6769SOL    HW222315   6.148   1.843   9.930  0.2475  1.8025  0.9708
 6770SOL     OW22316   3.263   4.574   4.677 -0.1340 -0.0106 -0.4543
 6770SOL    HW122317   3.319   4.496   4.679 -0.6042 -0.3372  0.1821
 6770SOL    HW222318   3.193   4.555   4.739 -1.4179  0.0479 -1.8233
 6771SOL     OW22319   4.650   9.188   5.724 -0.2087  0.3887  0.2221
 6771SOL    HW122320   4.608   9.102   5.722 -1.3842  0.9423  0.1370
 6771SOL    HW222321   4.683   9.200   5.635  2.1300 -0.9593  0.8092
 6772SOL     OW22322   8.179  10.857   7.320  0.5754  0.0095 -0.4428
 6772SOL    HW122323   8.220  10.812   7.246  0.4709 -0.6369 -0.1192
 6772SOL    HW222324   8.094  10.887   7.286  0.9926  0.6841 -0.8941
 6773SOL     OW22325  11.246  10.988   3.006  0.8026 -0.6119 -0.1616
 6773SOL    HW122326  11.258  10.917   3.069 -1.7325 -0.4800  0.6027
 6773SOL    HW222327  11.230  11.065   3.061  2.0376  0.2602 -0.9902
 6774SOL     OW22328   2.241   4.077   7.208 -0.4178  0.9375 -0.2954
 6774SOL    HW122329   2.230   4.096   7.115  1.2824  0.8492 -0.5332
 6774SOL    HW222330   2.335   4.084   7.224 -0.5528 -0.1387  1.1865
 6775SOL     OW22331   4.559  10.778   6.322  0.6765  0.2492 -0.3671
 6775SOL    HW122332   4.615  10.819   6.388 -0.4677  0.8552  0.2543
 6775SOL    HW222333   4.611  10.704   6.289  1.5594  0.3835  0.6727
 6776SOL     OW22334   0.021   4.558   3.661 -0.5816  0.2493 -0.3919
 6776SOL    HW122335   0.104   4.517   3.686 -1.3477 -0.6094  0.8668
 6776SOL    HW222336  -0.046   4.498   3.695 -1.7265  0.5985 -1.9329
 6777SOL     OW22337   7.244   9.595   0.301 -0.2043  0.2833 -0.1888
 6777SOL    HW122338   7.183   9.526   0.276 -0.6376  0.6361 -0.1271
 6777SOL    HW222339   7.326   9.550   0.319  0.1417  0.0030 -2.2357
 6778SOL     OW22340   1.080   6.469  11.234 -0.8671  0.3060 -0.0230
 6778SOL    HW122341   1.157   6.520  11.262  0.0808 -0.9892 -0.1569
 6778SOL    HW222342   1.091   6.459  11.139 -1.1961  0.0944 -0.0405
 6779SOL     OW22343   2.113   7.107   3.201  0.4785 -0.3465  0.6549
 6779SOL    HW122344   2.165   7.078   3.126 -2.4184 -0.4815 -1.4383
 6779SOL    HW222345   2.115   7.202   3.197  0.4889 -0.3525  0.5156
 6780SOL     OW22346   1.409   8.691   2.248  0.2673  0.3118 -0.1421
 6780SOL    HW122347   1.445   8.620   2.302  1.5945  0.4892 -0.7346
 6780SOL    HW222348   1.400   8.764   2.308  0.3538  0.0808  0.1546
 6781SOL     OW22349  10.031   8.435   0.047  0.2637  0.0031 -0.1084
 6781SOL    HW122350   9.948   8.396   0.074 -0.3456 -1.7991 -3.9486
 6781SOL    HW222351  10.098   8.378   0.084 -0.5454 -3.1053 -2.9488
 6782SOL     OW22352   0.834   9.402  10.412 -0.2113 -0.4608  0.4601
 6782SOL    HW122353   0.874   9.389  10.326 -0.4188  1.3154  0.0616
 6782SOL    HW222354   0.777   9.326  10.423 -0.3320 -0.6276 -1.0640
 6783SOL     OW22355   1.738   6.322   0.563 -0.7041  0.4611  0.2552
 6783SOL    HW122356   1.757   6.248   0.619  1.6176 -0.7993 -2.0102
 6783SOL    HW222357   1.772   6.398   0.610  1.3091 -0.5753  0.5617
 6784SOL     OW22358   1.942   3.413   4.479  0.4186 -0.2177 -0.5714
 6784SOL    HW122359   1.925   3.354   4.552  0.7429  0.1309 -0.2114
 6784SOL    HW222360   1.968   3.495   4.520  0.1869  0.1098 -1.0727
 6785SOL     OW22361   4.775  10.074   5.999  0.1724  0.2793 -0.7086
 6785SOL    HW122362   4.738  10.126   6.071 -0.3544  0.1360 -0.8779
 6785SOL    HW222363   4.849  10.127   5.968  0.5342  0.2466  0.0738
 6786SOL     OW22364   2.367   5.045   8.553 -0.1268  0.3064  0.0544
 6786SOL    HW122365   2.427   5.009   8.488  2.2117 -0.2175  2.3292
 6786SOL    HW222366   2.424   5.085   8.619 -2.4137  2.2712  1.0075
 6787SOL     OW22367   5.541   5.165   2.017 -0.7705 -0.2507 -0.3949
 6787SOL    HW122368   5.592   5.226   2.070  1.9383 -2.9198  0.3989
 6787SOL    HW222369   5.501   5.105   2.081  0.5833 -2.0762 -1.1457
 6788SOL     OW22370  10.705  10.644   0.263 -1.2743  0.2975  0.3817
 6788SOL    HW122371  10.708  10.603   0.176  0.7220  1.4171 -0.1322
 6788SOL    HW222372  10.785  10.696   0.268 -1.7169  0.8667  2.6195
 6789SOL     OW22373   0.099   6.692   1.988 -0.2364 -0.2355  0.0269
 6789SOL    HW122374   0.065   6.633   2.056  0.5831  1.3311  1.9102
 6789SOL    HW222375   0.086   6.780   2.024  1.7733  0.5895 -1.0730
 6790SOL     OW22376   0.216   9.395   1.031 -1.0950 -0.5747  1.2662
 6790SOL    HW122377   0.168   9.450   1.093 -1.1841  0.3730  0.3887
 6790SOL    HW222378   0.181   9.419   0.946 -0.1722 -1.0291  0.7405
 6791SOL     OW22379   5.819   7.455   5.892  0.2338 -0.3280  0.1611
 6791SOL    HW122380   5.866   7.535   5.915 -0.3996  0.6797 -1.8254
 6791SOL    HW222381   5.837   7.443   5.799 -1.0200 -1.5954  0.0579
 6792SOL     OW22382  10.746   1.019  11.127  0.2132  0.3758  0.5962
 6792SOL    HW122383  10.718   1.047  11.040  0.5733 -0.7435  0.1064
 6792SOL    HW222384  10.680   1.054  11.186  0.1449  1.4290 -0.0838
 6793SOL     OW22385  10.450   2.942   6.156  0.3393  0.2510  0.0804
 6793SOL    HW122386  10.531   2.961   6.204  1.7791 -0.7473 -1.8472
 6793SOL    HW222387  10.424   3.027   6.120  0.1602  0.6939  1.1951
 6794SOL     OW22388   5.110   5.200   9.402  0.6652 -1.1186  0.1180
 6794SOL    HW122389   5.028   5.174   9.358  0.0202  0.0991  0.5578
 6794SOL    HW222390   5.091   5.189   9.495  1.4469 -2.0462  0.1735
 6795SOL     OW22391   1.377   1.835   8.938  0.5035 -0.0100  0.3241
 6795SOL    HW122392   1.416   1.771   8.879 -0.4133 -0.3960  0.1096
 6795SOL    HW222393   1.443   1.904   8.947  1.0045 -0.3816 -0.4397
 6796SOL     OW22394   4.023   6.357   5.512  0.4386  0.1889 -0.5474
 6796SOL    HW122395   4.115   6.336   5.528  0.1254  0.0980  1.3704
 6796SOL    HW222396   4.022   6.450   5.493  0.7542  0.6488  1.4740
 6797SOL     OW22397   0.115   4.709   1.234 -0.0579  0.1483  0.2381
 6797SOL    HW122398   0.178   4.651   1.193  1.3791  0.1710  2.2456
 6797SOL    HW222399   0.058   4.651   1.284 -1.8173  0.1134 -1.6779
 6798SOL     OW22400   3.089   0.722   2.813 -0.3342  0.9305 -0.2580
 6798SOL    HW122401   3.044   0.763   2.886 -1.4956 -1.0464  0.2092
 6798SOL    HW222402   3.166   0.777   2.798 -0.9734  2.3257  1.3305
 6799SOL     OW22403   3.401   3.450   5.578 -0.1837  0.1745 -0.2925
 6799SOL    HW122404   3.445   3.455   5.663  0.4284  0.8809 -0.6380
 6799SOL    HW222405   3.339   3.523   5.579  0.2776  0.5738 -0.6979
 6800SOL     OW22406   3.764   7.947   9.794  0.3105  0.2352 -0.5161
 6800SOL    HW122407   3.814   8.012   9.842 -2.0792  2.1020 -0.3728
 6800SOL    HW222408   3.725   7.892   9.862  1.7843 -1.0013 -0.6167
 6801SOL     OW22409   0.885   7.291   9.523  0.1068  0.1096  0.2921
 6801SOL    HW122410   0.856   7.333   9.442  0.7434  2.3873  1.1500
 6801SOL    HW222411   0.851   7.347   9.593  0.1317 -1.4259  1.5978
 6802SOL     OW22412   1.615   9.015   1.364  0.1442 -0.2275  0.2366
 6802SOL    HW122413   1.679   9.042   1.298 -1.7442  0.1812 -1.5087
 6802SOL    HW222414   1.663   9.021   1.447  2.3994 -0.1025 -0.9850
 6803SOL     OW22415   1.869   2.414   0.406  0.2153 -0.2050  0.3426
 6803SOL    HW122416   1.961   2.388   0.412  0.2250  0.1382  1.9090
 6803SOL    HW222417   1.869   2.508   0.427 -0.3572  0.1085 -0.9199
 6804SOL     OW22418  10.259   3.916   6.225 -0.7038 -0.2794 -0.1750
 6804SOL    HW122419  10.308   3.850   6.176  0.4686 -0.2724  0.9224
 6804SOL    HW222420  10.283   3.901   6.316  0.1887  2.0817  0.0709
 6805SOL     OW22421   9.222   6.612   9.999 -0.0038 -0.3349 -0.5999
 6805SOL    HW122422   9.177   6.693  10.024 -0.9753 -0.7033 -1.1194
 6805SOL    HW222423   9.301   6.611  10.054  0.4014  1.3160 -1.1050
 6806SOL     OW22424   0.688   8.192   1.711 -0.3719  0.4653  0.4066
 6806SOL    HW122425   0.672   8.103   1.681 -1.6535  1.1112 -0.9491
 6806SOL    HW222426   0.740   8.232   1.642 -0.4043  0.9707  0.6708
 6807SOL     OW22427  10.047   9.824   8.434 -0.0810 -0.0429  0.0473
 6807SOL    HW122428  10.140   9.802   8.442  0.3540  1.6234  0.0604
 6807SOL    HW222429  10.030   9.821   8.340 -0.9405 -3.6189  0.1910
 6808SOL     OW22430   0.429   7.920   3.422  0.3346  0.0423  0.1307
 6808SOL    HW122431   0.371   7.867   3.368 -0.2221 -0.9418  1.6266
 6808SOL    HW222432   0.515   7.913   3.379  0.5227 -2.9589  0.7807
 6809SOL     OW22433   4.737   2.287   9.257  0.6666 -0.1330 -0.1804
 6809SOL    HW122434   4.735   2.352   9.328 -0.7123  0.4015 -0.6951
 6809SOL    HW222435   4.710   2.335   9.179  2.0636 -0.7495 -1.0761
 6810SOL     OW22436   5.927   5.194   0.951  0.9615  0.2901 -0.8132
 6810SOL    HW122437   5.913   5.288   0.944  1.0179  0.2066 -3.1385
 6810SOL    HW222438   6.000   5.176   0.890 -1.6663 -1.6801 -3.7266
 6811SOL     OW22439   6.154   1.764   5.344  0.5783  0.1368  0.9707
 6811SOL    HW122440   6.068   1.805   5.343  0.0321 -1.0048  0.5793
 6811SOL    HW222441   6.208   1.821   5.288  0.3751  1.4099  2.0006
 6812SOL     OW22442   8.624   2.026  10.629 -0.4537  0.4557  0.1153
 6812SOL    HW122443   8.596   1.941  10.596  0.7769 -0.0085  0.2286
 6812SOL    HW222444   8.685   2.059  10.563 -1.9010  1.8633 -0.5812
 6813SOL     OW22445   1.273   0.421   8.265  0.0419  0.8155 -0.0778
 6813SOL    HW122446   1.297   0.363   8.337  3.1227 -0.5149 -1.9798
 6813SOL    HW222447   1.208   0.372   8.215 -0.1198  0.5927  0.3478
 6814SOL     OW22448   6.080   5.596   0.942  0.2480  0.1869  0.2552
 6814SOL    HW122449   6.127   5.579   0.860 -0.0926 -0.8489  0.2619
 6814SOL    HW222450   6.105   5.686   0.965  1.5041 -0.0140 -0.2149
 6815SOL     OW22451   9.690   4.417   6.367 -0.5967 -0.1139 -0.9157
 6815SOL    HW122452   9.632   4.473   6.419  0.2697  0.7815 -0.8823
 6815SOL    HW222453   9.728   4.476   6.301  0.5684 -0.5825 -0.6900
 6816SOL     OW22454   4.756   9.457   4.387 -0.0279 -0.0351  1.0469
 6816SOL    HW122455   4.793   9.440   4.300 -2.6284  1.4177 -0.4610
 6816SOL    HW222456   4.832   9.474   4.442  1.6655  0.5090 -1.2837
 6817SOL     OW22457  10.940   2.203   8.713  0.1302  0.7985 -0.2113
 6817SOL    HW122458  10.893   2.180   8.793 -0.1172 -1.4717 -0.9649
 6817SOL    HW222459  10.898   2.284   8.683 -1.1923  0.5183  0.8039
 6818SOL     OW22460   3.728   2.289   2.801 -0.1629 -0.2417  0.3520
 6818SOL    HW122461   3.709   2.357   2.866  0.6794 -1.6020  2.0997
 6818SOL    HW222462   3.694   2.209   2.839  0.8291 -1.1757 -0.6535
 6819SOL     OW22463   5.928   8.226   7.456  0.1540  0.2928  0.4916
 6819SOL    HW122464   5.846   8.256   7.496  0.9193  0.5055  1.9981
 6819SOL    HW222465   5.996   8.268   7.509  1.2401  0.3029 -0.8754
 6820SOL     OW22466   1.367   9.609   6.452  0.7717 -0.4189 -0.1165
 6820SOL    HW122467   1.280   9.617   6.491  0.0712  0.7015 -1.8143
 6820SOL    HW222468   1.426   9.603   6.527 -0.7877 -1.7877  1.0825
 6821SOL     OW22469   9.228   8.822   7.982 -0.7552  0.3584  0.4600
 6821SOL    HW122470   9.283   8.882   8.033 -1.1379  1.8124 -0.7564
 6821SOL    HW222471   9.290   8.772   7.928 -0.5001  0.5270  0.5926
 6822SOL     OW22472   6.504   3.245   9.008 -0.0398  0.4179  0.2541
 6822SOL    HW122473   6.528   3.268   8.918 -0.2849 -1.5899 -0.3799
 6822SOL    HW222474   6.530   3.321   9.060  0.1868  1.5962 -1.4901
 6823SOL     OW22475  10.913   8.281   5.926 -0.0950 -0.3550  0.6048
 6823SOL    HW122476  10.838   8.237   5.887 -0.6905  1.5841 -0.5874
 6823SOL    HW222477  10.892   8.285   6.020 -1.9319  0.8842  0.2023
 6824SOL     OW22478   1.927  11.141   5.722 -0.0890  0.1524 -0.3591
 6824SOL    HW122479   1.948  11.050   5.743  1.6902  0.4288 -0.7093
 6824SOL    HW222480   1.869  11.136   5.646 -3.1306 -0.7314  1.8407
 6825SOL     OW22481   6.046  11.023   2.057 -0.0878  0.3616  0.2460
 6825SOL    HW122482   6.053  10.985   2.145  1.1500 -0.3257 -0.1225
 6825SOL    HW222483   5.977  10.973   2.014 -0.1496  0.1743  0.5607
 6826SOL     OW22484   6.443   0.504   3.777  1.0195 -0.0473  0.7858
 6826SOL    HW122485   6.442   0.446   3.853  1.6375  1.2843  1.8432
 6826SOL    HW222486   6.510   0.569   3.797 -0.1685  1.4839 -0.0131
 6827SOL     OW22487   1.814   4.394  11.144  0.0089  0.4767  0.3070
 6827SOL    HW122488   1.748   4.325  11.153 -0.0288  0.5194  0.3569
 6827SOL    HW222489   1.869   4.365  11.070  0.4821 -0.0080  0.8362
 6828SOL     OW22490   4.777   5.519   3.000 -0.9708 -0.4715 -0.0939
 6828SOL    HW122491   4.745   5.600   3.039 -2.2098 -0.7539 -0.4677
 6828SOL    HW222492   4.797   5.542   2.910  0.0883 -0.2524  0.1894
 6829SOL     OW22493   8.572  10.110   0.245  0.2410 -0.4126 -0.3921
 6829SOL    HW122494   8.541  10.130   0.157  0.5708  1.7128 -0.0927
 6829SOL    HW222495   8.621  10.189   0.272  3.1619 -2.3238  0.3887
 6830SOL     OW22496   3.958   1.208   7.602 -0.3308  0.6950  0.1559
 6830SOL    HW122497   3.975   1.251   7.518 -1.0706  0.2943 -0.2173
 6830SOL    HW222498   3.865   1.184   7.597  0.0430 -0.9058  0.3548
 6831SOL     OW22499  10.842  11.128   9.588  0.4724 -0.3217 -0.0140
 6831SOL    HW122500  10.794  11.130   9.670  2.7746  0.5419  1.3987
 6831SOL    HW222501  10.853  11.220   9.564  0.9171 -0.5191 -0.6199
 6832SOL     OW22502   7.717   7.630   6.116  0.1562 -0.4109  0.0180
 6832SOL    HW122503   7.672   7.565   6.170  1.4019 -1.0254  0.3334
 6832SOL    HW222504   7.688   7.612   6.026  2.0271 -2.7743 -0.2005
 6833SOL     OW22505   1.532   2.804  10.729 -0.9592  0.0156 -0.4838
 6833SOL    HW122506   1.504   2.778  10.816  0.2362  0.3981  0.0291
 6833SOL    HW222507   1.481   2.748  10.670 -2.7615  0.6738  0.3954
 6834SOL     OW22508   2.002   2.769   4.759  0.7205 -0.5013  0.0132
 6834SOL    HW122509   1.953   2.713   4.818  3.4280 -2.3715  0.6558
 6834SOL    HW222510   2.032   2.842   4.813 -0.9812  0.4953 -0.3181
 6835SOL     OW22511   3.115   6.481   5.560  0.0300 -0.1014 -0.2553
 6835SOL    HW122512   3.036   6.450   5.602  0.0368 -1.2564 -1.0488
 6835SOL    HW222513   3.105   6.576   5.557 -0.9821 -0.1806  0.3043
 6836SOL     OW22514   2.255   6.781   5.148 -0.0874 -0.4148  0.5918
 6836SOL    HW122515   2.256   6.694   5.108 -0.4628  0.6677 -1.9496
 6836SOL    HW222516   2.230   6.840   5.077  1.3365  1.9399  1.9098
 6837SOL     OW22517   4.122   6.046   5.994  0.0796 -0.4806  0.0092
 6837SOL    HW122518   4.107   6.071   6.085 -0.5089 -2.1455  0.3893
 6837SOL    HW222519   4.216   6.026   5.990  0.2558  0.2872  0.0517
 6838SOL     OW22520  10.386   8.495   7.276  0.1340 -0.0576  0.1642
 6838SOL    HW122521  10.429   8.541   7.347 -0.2506 -0.5593  0.7263
 6838SOL    HW222522  10.414   8.542   7.197 -0.1290  1.0483  0.7051
 6839SOL     OW22523   6.987   3.527  10.842  0.5757 -0.4079 -0.0971
 6839SOL    HW122524   7.058   3.592  10.851 -0.2657  0.3570  1.3346
 6839SOL    HW222525   6.938   3.556  10.765 -0.4050  1.3432  1.1053
 6840SOL     OW22526   1.662  10.299   4.839 -0.3070 -1.0241  0.2685
 6840SOL    HW122527   1.585  10.341   4.802 -2.0617 -2.4583  2.1006
 6840SOL    HW222528   1.684  10.351   4.916  3.2430  1.8632 -2.3043
 6841SOL     OW22529  10.256   7.388   2.576 -0.0551 -0.1621  0.1412
 6841SOL    HW122530  10.193   7.369   2.645 -0.1024  0.5842  0.3061
 6841SOL    HW222531  10.331   7.427   2.621  0.4929 -0.9420 -0.0653
 6842SOL     OW22532   9.771   4.144   2.593 -0.3053  0.9175  0.0426
 6842SOL    HW122533   9.748   4.155   2.501  0.4365 -0.4599 -0.3410
 6842SOL    HW222534   9.835   4.072   2.593 -1.3550 -0.0848  1.7610
 6843SOL     OW22535   6.794   3.830   5.730  0.2496 -0.3791 -0.0104
 6843SOL    HW122536   6.734   3.789   5.667 -0.6317  2.8514 -1.4363
 6843SOL    HW222537   6.767   3.793   5.815 -1.7262 -1.2892 -0.9536
 6844SOL     OW22538  10.553   1.113   7.851  0.2330 -0.0098 -0.5659
 6844SOL    HW122539  10.515   1.063   7.924 -0.2602 -0.6080 -1.2238
 6844SOL    HW222540  10.542   1.205   7.876  0.9089 -0.2091  0.5373
 6845SOL     OW22541   8.303  10.779   3.517 -0.3838  0.3133 -0.5987
 6845SOL    HW122542   8.394  10.807   3.509  0.1724 -1.7459 -2.9661
 6845SOL    HW222543   8.303  10.714   3.587 -0.2330  1.0103  0.0489
 6846SOL     OW22544   9.339   6.099   9.212  0.1625 -0.0918 -0.2732
 6846SOL    HW122545   9.363   6.028   9.271 -0.5395  0.4667  0.7211
 6846SOL    HW222546   9.422   6.140   9.188  0.5044 -0.7118 -0.1512
 6847SOL     OW22547   9.284  11.230   0.635  0.6415  0.6918  0.0666
 6847SOL    HW122548   9.227  11.240   0.559  1.9562 -2.3462 -1.5061
 6847SOL    HW222549   9.340  11.307   0.634 -0.5119  1.5514 -1.0124
 6848SOL     OW22550   6.469   1.793   2.820  0.6055  0.8491  0.2568
 6848SOL    HW122551   6.377   1.792   2.847  0.5085  1.7094 -0.0172
 6848SOL    HW222552   6.499   1.881   2.840  1.6466  0.3022  1.2033
 6849SOL     OW22553   9.229   4.128   8.605 -0.2854  0.0404 -0.7242
 6849SOL    HW122554   9.160   4.102   8.667 -1.1733  1.6467 -0.9765
 6849SOL    HW222555   9.252   4.218   8.631  2.0890 -0.6168 -0.3549
 6850SOL     OW22556   6.579   4.472   7.920  0.2494  0.0013 -0.0379
 6850SOL    HW122557   6.501   4.459   7.865  1.4240 -0.7263 -1.6221
 6850SOL    HW222558   6.563   4.554   7.966 -1.5067 -0.2078 -0.2209
 6851SOL     OW22559   5.173   5.644   1.579 -0.2957 -0.6596 -0.1721
 6851SOL    HW122560   5.232   5.614   1.648  1.6719  2.6459 -0.1764
 6851SOL    HW222561   5.120   5.712   1.621  1.1488  1.6365 -1.8252
 6852SOL     OW22562   2.903   6.096   1.961 -0.2465  0.3272  0.2234
 6852SOL    HW122563   2.975   6.103   2.023  1.0575  1.1909 -1.2985
 6852SOL    HW222564   2.946   6.085   1.876 -1.9379  0.1638 -0.6461
 6853SOL     OW22565   9.746   1.950  11.013  0.0720  0.0002  0.5505
 6853SOL    HW122566   9.656   1.922  10.998 -0.7981  3.2318 -1.1359
 6853SOL    HW222567   9.743   1.995  11.098  0.0242  0.4072  0.3317
 6854SOL     OW22568   6.312   8.987   2.905  0.2219  0.1437  0.6169
 6854SOL    HW122569   6.284   9.048   2.973  0.5113 -0.3026  1.1463
 6854SOL    HW222570   6.288   9.029   2.823  1.0567  1.3066  0.9439
 6855SOL     OW22571   3.636   2.133   5.440  0.1731  0.1885  0.3384
 6855SOL    HW122572   3.638   2.076   5.363 -2.0489  1.6396 -0.8857
 6855SOL    HW222573   3.567   2.095   5.495 -1.6055  1.7944 -0.6677
 6856SOL     OW22574  11.142   2.340   6.963  0.7587 -0.5002 -0.1750
 6856SOL    HW122575  11.121   2.395   7.038  1.2928  1.0777 -1.1374
 6856SOL    HW222576  11.091   2.376   6.891 -0.1956 -2.3579 -0.4755
 6857SOL     OW22577   7.650   6.986   2.652 -0.1442 -0.5057  0.2294
 6857SOL    HW122578   7.741   7.004   2.677 -0.4405  0.4607  0.6418
 6857SOL    HW222579   7.620   6.922   2.718 -0.2801  0.4695  1.1377
 6858SOL     OW22580   0.163   5.598   0.372 -0.1995 -1.0351 -0.3650
 6858SOL    HW122581   0.250   5.576   0.407 -0.5897  1.0600  2.3116
 6858SOL    HW222582   0.102   5.547   0.425 -0.6976 -0.0814  0.0044
 6859SOL     OW22583   3.065   1.502   1.798  0.0036  0.3201  0.8780
 6859SOL    HW122584   3.053   1.511   1.892  1.0313 -0.7511  1.1333
 6859SOL    HW222585   3.113   1.420   1.787 -0.3690  0.2627 -0.6012
 6860SOL     OW22586   8.075   9.063   2.762 -0.4505  0.0639 -0.4080
 6860SOL    HW122587   8.166   9.041   2.784 -0.7419 -0.4721  0.3040
 6860SOL    HW222588   8.023   9.010   2.822 -1.2464  0.0882 -1.0759
 6861SOL     OW22589   8.380   3.741   9.999 -0.4019 -0.3068  0.5984
 6861SOL    HW122590   8.475   3.726  10.000 -0.3464 -0.2013 -1.1438
 6861SOL    HW222591   8.343   3.657   9.969 -0.8022 -0.0691  0.4244
 6862SOL     OW22592   7.535   7.381   9.337  0.1989 -0.0207  0.4958
 6862SOL    HW122593   7.624   7.403   9.365  0.0540  0.9802  0.1998
 6862SOL    HW222594   7.498   7.334   9.412  0.9337 -0.3341  0.6675
 6863SOL     OW22595   1.786   3.286   1.694 -0.1376 -0.1064 -0.6579
 6863SOL    HW122596   1.717   3.250   1.749 -1.4395  1.5602 -1.1361
 6863SOL    HW222597   1.749   3.366   1.657  2.1387  0.9871 -0.7491
 6864SOL     OW22598   9.790   5.715   7.822 -0.4048  0.2012  0.0806
 6864SOL    HW122599   9.787   5.810   7.817 -0.1660  0.4471  3.0258
 6864SOL    HW222600   9.883   5.693   7.818 -0.1267  0.4789  2.9755
 6865SOL     OW22601   8.641   2.104   4.736 -0.1141  0.2822 -0.1193
 6865SOL    HW122602   8.608   2.019   4.707 -0.8311  1.0721 -1.7559
 6865SOL    HW222603   8.620   2.107   4.830  0.3097 -1.4805  0.0739
 6866SOL     OW22604  10.187   8.589   8.880  0.4182  0.3622 -0.2403
 6866SOL    HW122605  10.153   8.573   8.792 -0.8738  0.4061  0.2328
 6866SOL    HW222606  10.275   8.623   8.866 -0.0675  1.1413 -1.5432
 6867SOL     OW22607   6.580   9.748   2.960 -0.2751  0.0229 -0.0632
 6867SOL    HW122608   6.557   9.709   2.876 -1.9762  2.2152 -0.7172
 6867SOL    HW222609   6.502   9.738   3.014  0.4491 -0.4467  0.9364
 6868SOL     OW22610   6.764   0.318   1.051 -0.2351  0.1407  0.2756
 6868SOL    HW122611   6.826   0.373   1.004 -1.0269  1.1183  0.3451
 6868SOL    HW222612   6.679   0.338   1.012 -0.4524 -1.6980 -0.3036
 6869SOL     OW22613   1.970   7.378   5.300  0.2497 -0.1186  0.3426
 6869SOL    HW122614   1.882   7.378   5.261  0.4589  1.7915 -0.2128
 6869SOL    HW222615   2.020   7.439   5.247  1.8737 -0.9706  0.8155
 6870SOL     OW22616   3.819   9.394   8.176  0.0782 -0.1100 -0.0947
 6870SOL    HW122617   3.890   9.332   8.164 -1.6842 -2.7114  1.7488
 6870SOL    HW222618   3.741   9.349   8.143 -1.1206  1.5775  0.2802
 6871SOL     OW22619   9.397  10.373  10.975 -0.2229 -0.1567 -0.2215
 6871SOL    HW122620   9.467  10.342  10.918 -1.0077  0.3312 -1.4745
 6871SOL    HW222621   9.356  10.444  10.927 -1.6003 -0.4385  0.4814
 6872SOL     OW22622   4.811   3.744   5.842 -1.2107 -0.3104  0.4890
 6872SOL    HW122623   4.870   3.680   5.880  1.0968 -0.1504 -2.4293
 6872SOL    HW222624   4.858   3.827   5.848 -1.6700  0.0649 -0.7488
 6873SOL     OW22625  11.089   3.478   3.303  0.3967  0.2004 -0.7509
 6873SOL    HW122626  11.152   3.412   3.275  0.9947 -0.3362  1.6579
 6873SOL    HW222627  11.004   3.444   3.275  1.0071  0.2414 -2.7663
 6874SOL     OW22628  10.570   0.356   9.226 -0.7028  0.5561 -0.4595
 6874SOL    HW122629  10.495   0.320   9.179  1.0121 -0.6492 -2.4846
 6874SOL    HW222630  10.534   0.424   9.282 -3.3179 -0.2109 -1.0896
 6875SOL     OW22631   6.664   4.243  10.903  0.2702  0.1436 -0.5536
 6875SOL    HW122632   6.570   4.224  10.895 -0.0218  0.6527  1.2381
 6875SOL    HW222633   6.668   4.338  10.914  0.8118 -0.0501  1.2199
 6876SOL     OW22634   2.914   3.428   7.740  0.3713  0.1080  0.1438
 6876SOL    HW122635   2.916   3.427   7.645  0.2158 -0.4725  0.1453
 6876SOL    HW222636   3.004   3.449   7.766  0.0678  1.9476 -0.1446
 6877SOL     OW22637   6.731   9.721  11.169 -0.1210  0.7799 -0.3002
 6877SOL    HW122638   6.720   9.642  11.222 -0.2148 -1.4247 -3.3790
 6877SOL    HW222639   6.756   9.788  11.232 -0.4452 -1.5598  2.5392
 6878SOL     OW22640   8.013   3.102   8.600  0.3995  0.8031 -0.5864
 6878SOL    HW122641   8.052   3.148   8.675  1.3257  1.0962 -1.2294
 6878SOL    HW222642   8.012   3.010   8.626  1.4199  0.8082 -0.5009
 6879SOL     OW22643   6.339   1.075  10.691  0.5111  0.2650  0.1770
 6879SOL    HW122644   6.249   1.100  10.713  0.6069 -0.5590  1.6093
 6879SOL    HW222645   6.331   0.988  10.653  0.6939  0.2039  0.2786
 6880SOL     OW22646   0.742   4.170   4.183  0.2683 -0.9774  0.1786
 6880SOL    HW122647   0.729   4.091   4.130 -2.2253 -0.1115 -0.6382
 6880SOL    HW222648   0.653   4.198   4.206  0.9893  2.0632 -0.3122
 6881SOL     OW22649   8.058   8.860   1.326 -0.3424  0.3631  0.2052
 6881SOL    HW122650   8.082   8.775   1.290  1.4791 -0.5765  3.2701
 6881SOL    HW222651   7.978   8.842   1.377 -1.4487  1.1194 -1.1977
 6882SOL     OW22652   7.404   6.697   4.301  0.1453  0.0890 -0.4536
 6882SOL    HW122653   7.440   6.775   4.258  2.2121  0.7398  2.1553
 6882SOL    HW222654   7.475   6.667   4.358 -1.5643 -2.1182  0.6416
 6883SOL     OW22655   0.970   9.663   7.632 -0.4578 -0.3415 -0.3810
 6883SOL    HW122656   0.980   9.641   7.724 -1.2290 -0.4640 -0.3198
 6883SOL    HW222657   1.031   9.735   7.617 -0.3826 -0.2740  0.2424
 6884SOL     OW22658   3.016   2.192   0.941 -0.4479 -0.3842 -0.1736
 6884SOL    HW122659   3.023   2.280   0.903 -0.0632 -0.4241 -0.2080
 6884SOL    HW222660   3.098   2.149   0.914  0.0787 -0.2426  1.1343
 6885SOL     OW22661   3.175   6.775   8.483 -0.2580 -0.0814  0.0171
 6885SOL    HW122662   3.192   6.781   8.389  0.2688 -2.0812 -0.0761
 6885SOL    HW222663   3.230   6.702   8.513 -2.2590 -1.1391  1.3698
 6886SOL     OW22664   5.074   6.040   2.302  0.1850 -0.3112  0.3676
 6886SOL    HW122665   5.142   5.976   2.322 -0.3275 -0.4512  1.7607
 6886SOL    HW222666   5.014   6.035   2.376 -0.5481  0.8755 -0.1205
 6887SOL     OW22667   9.586  10.668   1.023 -0.2981 -0.7554  0.5534
 6887SOL    HW122668   9.505  10.657   1.073  0.2336 -1.4184  1.2879
 6887SOL    HW222669   9.563  10.730   0.954 -1.6293 -1.4545  0.3249
 6888SOL     OW22670   2.666   2.397   2.977  0.1825  0.5452 -0.0434
 6888SOL    HW122671   2.622   2.332   3.032  0.2399 -0.6964 -1.3945
 6888SOL    HW222672   2.758   2.369   2.975  0.1067  0.3201 -1.0793
 6889SOL     OW22673   2.943   6.521   2.496  0.0564 -0.3310  0.6797
 6889SOL    HW122674   2.964   6.438   2.538 -2.2017  0.3850  3.6448
 6889SOL    HW222675   3.003   6.584   2.536  0.0045 -0.1228  0.4330
 6890SOL     OW22676   7.890   1.457   3.577  1.4679  0.2001  0.3623
 6890SOL    HW122677   7.808   1.433   3.536  1.2177  0.3879  0.7381
 6890SOL    HW222678   7.889   1.553   3.577  1.9946  0.2110 -0.2312
 6891SOL     OW22679   8.002   6.589   1.688 -0.1939 -0.5028 -0.4514
 6891SOL    HW122680   8.027   6.627   1.604  2.9172  0.6703  0.8477
 6891SOL    HW222681   7.941   6.652   1.726  1.6084  1.1787 -0.1522
 6892SOL     OW22682   1.129   0.099   7.601 -0.1295  0.4995 -0.5845
 6892SOL    HW122683   1.121   0.180   7.650 -1.0749  0.1625 -0.1613
 6892SOL    HW222684   1.185   0.121   7.527  0.3621  1.3070  0.0107
 6893SOL     OW22685   8.571   4.085   2.309  0.0767 -0.2757 -0.4799
 6893SOL    HW122686   8.663   4.113   2.307  0.1209 -0.4306 -0.6948
 6893SOL    HW222687   8.527   4.141   2.245 -0.9401  2.9932  2.7247
 6894SOL     OW22688   3.243   2.095   3.923 -0.2309  0.0943 -0.9092
 6894SOL    HW122689   3.148   2.093   3.938 -0.1025  2.3586  0.6693
 6894SOL    HW222690   3.252   2.079   3.829 -2.2326  0.4710 -1.2075
 6895SOL     OW22691   0.067   8.591  11.161  0.0064 -0.0703 -0.8761
 6895SOL    HW122692   0.103   8.646  11.092 -1.7978 -0.3150 -2.0704
 6895SOL    HW222693   0.004   8.647  11.206  0.4936 -0.2034  0.0018
 6896SOL     OW22694  10.255  10.726   7.968 -0.2040  0.0851 -0.1401
 6896SOL    HW122695  10.269  10.740   7.874  0.6515 -0.4569 -0.1124
 6896SOL    HW222696  10.275  10.810   8.008 -0.2663  0.2359 -0.4235
 6897SOL     OW22697   5.781   3.121   9.228 -0.0851 -0.4101  0.2006
 6897SOL    HW122698   5.860   3.119   9.282 -0.0182  0.6830  0.1680
 6897SOL    HW222699   5.780   3.036   9.185  1.3032 -0.3109 -0.1026
 6898SOL     OW22700   3.161   5.336   6.466  0.1801  0.4539 -0.1223
 6898SOL    HW122701   3.185   5.385   6.545  2.5920  0.8121 -0.9771
 6898SOL    HW222702   3.218   5.371   6.398 -1.0549 -0.6083 -1.7959
 6899SOL     OW22703  10.710  10.765   9.927  0.7572  0.2569  0.3179
 6899SOL    HW122704  10.659  10.714   9.990 -0.4748  2.1955  0.9707
 6899SOL    HW222705  10.793  10.718   9.921 -0.0647 -1.4574  1.3427
 6900SOL     OW22706   1.202   6.912   9.311 -0.2399 -0.4044  0.1162
 6900SOL    HW122707   1.241   6.833   9.273 -2.1305 -1.4390  0.2040
 6900SOL    HW222708   1.223   6.982   9.249  0.3656 -1.2243 -0.6204
 6901SOL     OW22709   2.605   6.695   1.349  0.5291  0.5956 -0.1747
 6901SOL    HW122710   2.521   6.661   1.318 -0.0667  1.4389  0.4814
 6901SOL    HW222711   2.652   6.617   1.380 -0.5380  0.2632  0.6895
 6902SOL     OW22712   0.893   6.505   5.251 -0.2848 -0.1969 -0.1480
 6902SOL    HW122713   0.850   6.466   5.328 -0.3366  1.5251  0.7331
 6902SOL    HW222714   0.821   6.540   5.198 -0.0962  2.5513  1.2525
 6903SOL     OW22715   6.674   7.218   6.172 -0.2552 -0.1677  0.2728
 6903SOL    HW122716   6.693   7.163   6.248  0.6019  0.2813  0.3875
 6903SOL    HW222717   6.756   7.263   6.153 -0.5809  0.0651 -0.6494
 6904SOL     OW22718   5.518   6.622   7.086 -0.0659 -0.1374  0.6633
 6904SOL    HW122719   5.462   6.557   7.043  0.8349  0.8662 -2.2314
 6904SOL    HW222720   5.465   6.656   7.158 -2.4925 -0.4689 -0.8692
 6905SOL     OW22721   1.461   3.016   5.679  0.2355 -0.5606  0.3029
 6905SOL    HW122722   1.394   2.949   5.694 -1.6319  1.2280  0.4571
 6905SOL    HW222723   1.459   3.070   5.758 -2.5713  3.0569 -1.8699
 6906SOL     OW22724   6.992   0.419  10.871 -0.1873 -0.9180  0.2098
 6906SOL    HW122725   7.061   0.393  10.811 -0.7425 -0.9662 -0.4247
 6906SOL    HW222726   7.037   0.466  10.941  0.5034 -1.1312 -0.0845
 6907SOL     OW22727   8.087   6.678  10.509  0.3830  0.8025 -0.2377
 6907SOL    HW122728   8.117   6.699  10.421 -0.8008  0.0210 -0.8587
 6907SOL    HW222729   8.018   6.742  10.527 -0.3844  0.0769 -0.4921
 6908SOL     OW22730  10.584  10.990   0.682  0.1437  0.7245 -0.7399
 6908SOL    HW122731  10.666  10.950   0.651 -0.4194 -0.2661 -1.0094
 6908SOL    HW222732  10.521  10.972   0.612 -1.2969 -2.0006  1.0931
 6909SOL     OW22733   7.267   4.214  10.082 -0.0996 -0.1753 -0.1521
 6909SOL    HW122734   7.182   4.208  10.124 -0.0448 -0.0697 -0.0277
 6909SOL    HW222735   7.302   4.299  10.108  0.8601 -0.9790  1.3348
 6910SOL     OW22736   2.975   2.175   2.354  0.1371  0.3701  0.6295
 6910SOL    HW122737   3.026   2.120   2.413 -0.2137 -0.2585  0.3565
 6910SOL    HW222738   2.892   2.189   2.400  0.8816  2.1993  1.5080
 6911SOL     OW22739   7.173   2.465   2.908 -0.0749  0.6246  0.1013
 6911SOL    HW122740   7.085   2.498   2.926 -0.1036  0.4924  0.2051
 6911SOL    HW222741   7.228   2.543   2.903 -0.5420  0.8820 -1.9748
 6912SOL     OW22742   1.521   3.033   2.526  0.5246  0.4828  0.1827
 6912SOL    HW122743   1.609   3.005   2.501 -0.3128 -1.2680 -0.9846
 6912SOL    HW222744   1.526   3.045   2.621  1.5963 -1.3614  0.4183
 6913SOL     OW22745   7.815   8.771   7.358  0.1940 -0.0607 -0.2941
 6913SOL    HW122746   7.790   8.681   7.337 -1.7777  0.3605  0.0373
 6913SOL    HW222747   7.834   8.812   7.273  1.7287 -0.9109 -0.4033
 6914SOL     OW22748   9.078   7.491  10.797 -0.1274  0.1100 -0.2890
 6914SOL    HW122749   9.111   7.578  10.775 -1.1779  0.6632  0.2796
 6914SOL    HW222750   9.047   7.456  10.713 -2.3773  1.4591 -0.1055
 6915SOL     OW22751   2.072   5.296   7.322  0.2325 -0.3127  0.2465
 6915SOL    HW122752   2.159   5.261   7.343  0.6495  0.5132 -0.0671
 6915SOL    HW222753   2.011   5.238   7.368  0.8127 -2.3462 -1.3871
 6916SOL     OW22754   1.957   9.159   8.500  0.5891  0.4798  0.5138
 6916SOL    HW122755   1.927   9.232   8.555  1.3626  0.2745  1.2137
 6916SOL    HW222756   2.045   9.185   8.472  0.3659  0.3906 -0.2896
 6917SOL     OW22757   7.239   8.236   8.609 -0.0257  0.0247  0.4113
 6917SOL    HW122758   7.286   8.281   8.538  0.0772 -1.3931 -0.4724
 6917SOL    HW222759   7.300   8.169   8.639 -0.3043  0.2258  1.4643
 6918SOL     OW22760   4.562   0.913   0.808  0.6036 -0.3576 -0.0856
 6918SOL    HW122761   4.594   0.838   0.859  1.2417 -1.4773 -2.0248
 6918SOL    HW222762   4.473   0.928   0.841 -0.2982 -3.2376 -0.9196
 6919SOL     OW22763   1.510   5.201   9.989 -0.4989  0.3782  0.5213
 6919SOL    HW122764   1.591   5.169   9.949 -0.9765 -2.0972  1.3663
 6919SOL    HW222765   1.531   5.290  10.017  1.9738 -0.2230  0.8382
 6920SOL     OW22766   7.946   6.289   2.670 -0.5738 -0.7394 -0.0865
 6920SOL    HW122767   7.959   6.195   2.659 -1.8141 -0.9308 -0.0546
 6920SOL    HW222768   7.973   6.326   2.586  1.2937 -0.9484  0.3818
 6921SOL     OW22769  11.201   2.372   3.081  0.3635 -0.2416  0.1638
 6921SOL    HW122770  11.216   2.280   3.103  0.8015 -0.1735  0.1607
 6921SOL    HW222771  11.286   2.414   3.095  0.6029 -0.1468 -1.3899
 6922SOL     OW22772   7.280   6.258   6.606 -0.0052  0.2568  0.1655
 6922SOL    HW122773   7.203   6.222   6.650 -0.0064  1.2870  1.0640
 6922SOL    HW222774   7.324   6.309   6.674  1.1006  0.2491 -0.5187
 6923SOL     OW22775   4.925   8.707   1.755 -0.0914 -0.6929  0.5055
 6923SOL    HW122776   4.848   8.743   1.801 -0.7780 -0.6502 -0.6347
 6923SOL    HW222777   4.986   8.780   1.749 -0.8507 -0.1155 -0.4481
 6924SOL     OW22778   7.890   2.346  11.068 -0.1603  0.4141  0.2196
 6924SOL    HW122779   7.895   2.366  11.161 -0.0312  0.5150  0.1917
 6924SOL    HW222780   7.948   2.410  11.027 -2.0807  1.9878 -0.1755
 6925SOL     OW22781   1.411   5.856   0.528  0.7108  0.2959  0.5091
 6925SOL    HW122782   1.391   5.823   0.440 -0.1642  0.4160  0.6546
 6925SOL    HW222783   1.326   5.872   0.568  1.0829 -0.7624  1.7796
 6926SOL     OW22784   2.403   9.428   1.628  0.1666  0.0549  0.0772
 6926SOL    HW122785   2.454   9.409   1.549 -0.5523 -0.7390 -0.2079
 6926SOL    HW222786   2.312   9.425   1.599 -0.0856  0.2250  0.8383
 6927SOL     OW22787   0.786   2.598   8.463  0.1735 -0.4767  0.5460
 6927SOL    HW122788   0.783   2.648   8.382 -0.4630 -2.2089 -0.5629
 6927SOL    HW222789   0.694   2.576   8.480  0.5388 -2.6830  0.0154
 6928SOL     OW22790   9.454   4.536   1.513  0.4014 -0.2780 -0.1508
 6928SOL    HW122791   9.412   4.480   1.578  0.3991  0.3301  0.3818
 6928SOL    HW222792   9.447   4.487   1.431  0.2143 -0.9582  0.2622
 6929SOL     OW22793   3.307   8.147   1.257  0.5064  0.6722  0.3652
 6929SOL    HW122794   3.298   8.190   1.342 -0.2446  0.8073  0.2184
 6929SOL    HW222795   3.335   8.058   1.279 -0.8510  0.3358  0.8227
 6930SOL     OW22796   0.925   0.127   2.479 -0.2334 -0.5030 -0.5527
 6930SOL    HW122797   0.967   0.101   2.561 -1.5723 -1.5131 -0.1366
 6930SOL    HW222798   0.869   0.201   2.503 -0.0820 -0.3403 -0.7043
 6931SOL     OW22799   3.373  10.069   6.596  0.0922  0.1275 -0.6577
 6931SOL    HW122800   3.390   9.990   6.544 -1.6995 -1.0519  0.4331
 6931SOL    HW222801   3.295  10.047   6.648 -0.6063  2.7045 -0.4801
 6932SOL     OW22802   2.008   5.140  10.402 -0.4520 -0.1964  0.2127
 6932SOL    HW122803   2.082   5.134  10.341 -0.5314  2.5539 -0.2733
 6932SOL    HW222804   1.932   5.116  10.350 -0.2996  0.3553 -0.2784
 6933SOL     OW22805   1.306   9.808  11.014 -0.5663  0.1350  0.0389
 6933SOL    HW122806   1.304   9.902  10.995 -0.4026  0.0685 -0.3256
 6933SOL    HW222807   1.298   9.802  11.109 -2.0764  0.4484 -0.0527
 6934SOL     OW22808   7.216   4.703   8.872 -0.2205 -0.8943 -0.9143
 6934SOL    HW122809   7.302   4.666   8.891 -0.5917 -0.8229  1.0039
 6934SOL    HW222810   7.236   4.786   8.829  0.6632 -1.0381 -0.8143
 6935SOL     OW22811  11.256   7.810   2.124 -0.4113 -0.4440  0.1558
 6935SOL    HW122812  11.338   7.823   2.077 -0.4150 -0.5135  0.1313
 6935SOL    HW222813  11.267   7.860   2.205 -0.5557 -0.0037 -0.0938
 6936SOL     OW22814  10.996   1.724   6.544 -0.8557 -0.2532 -0.2077
 6936SOL    HW122815  11.023   1.638   6.576 -0.1172  0.5719  1.4662
 6936SOL    HW222816  11.039   1.786   6.601 -2.7731  1.2169 -0.2649
 6937SOL     OW22817   5.043   5.973   8.646 -0.8232  0.1773 -0.0991
 6937SOL    HW122818   5.138   5.982   8.633 -0.8394  0.0654 -0.2870
 6937SOL    HW222819   5.032   5.883   8.677 -0.8950  0.1139 -0.3120
 6938SOL     OW22820  10.261  11.114   4.403 -0.5039  0.5396  0.0877
 6938SOL    HW122821  10.285  11.069   4.484  1.1876  0.8941 -0.1810
 6938SOL    HW222822  10.344  11.145   4.367 -1.2553  0.7385 -1.5840
 6939SOL     OW22823   8.344   3.410   9.925  0.0423 -0.0711  0.1726
 6939SOL    HW122824   8.351   3.326   9.878  1.8017 -1.4105  2.6004
 6939SOL    HW222825   8.270   3.454   9.884 -1.1593 -2.9410 -1.0114
 6940SOL     OW22826   6.341   9.921   2.178  0.5748  0.6200 -0.9603
 6940SOL    HW122827   6.365   9.832   2.203  0.4021  0.3864 -1.5863
 6940SOL    HW222828   6.303   9.911   2.090  2.3867  1.5440 -1.9079
 6941SOL     OW22829   8.258  10.317   2.383 -0.2485  0.6637 -0.0956
 6941SOL    HW122830   8.345  10.298   2.418 -0.5258  3.1416  2.2445
 6941SOL    HW222831   8.250  10.412   2.388 -1.8691  0.8757 -3.4928
 6942SOL     OW22832   4.548   0.002   0.052 -0.6056  0.5040  0.2803
 6942SOL    HW122833   4.561  -0.076  -0.002 -0.6201  1.5104 -1.2197
 6942SOL    HW222834   4.583  -0.022   0.138  2.7897  0.0257 -1.1016
 6943SOL     OW22835   2.625   4.663   9.603 -0.0375  0.0304 -0.0778
 6943SOL    HW122836   2.626   4.747   9.558  0.8761  0.0209 -0.1054
 6943SOL    HW222837   2.644   4.685   9.694  0.1003 -0.1287 -0.0667
 6944SOL     OW22838   6.211   9.591   6.193 -0.2554 -0.1878 -0.8770
 6944SOL    HW122839   6.213   9.573   6.287 -0.6832  1.6898 -0.4717
 6944SOL    HW222840   6.255   9.676   6.183 -2.7255  1.0778 -1.9713
 6945SOL     OW22841   6.437   3.197  10.995  0.1205 -0.4424 -0.2293
 6945SOL    HW122842   6.532   3.183  10.995  0.8302  3.0720  1.8826
 6945SOL    HW222843   6.416   3.222  10.905  1.1843 -1.1651 -0.6991
 6946SOL     OW22844   7.527   9.066   5.503  0.4367 -0.1360  0.2473
 6946SOL    HW122845   7.590   9.045   5.434 -0.5523  2.5134 -1.5997
 6946SOL    HW222846   7.540   9.159   5.521 -0.7294 -0.2881  2.2241
 6947SOL     OW22847   2.161   3.214   7.182 -0.1640  0.1896  0.9081
 6947SOL    HW122848   2.199   3.133   7.215  1.7680  0.5763 -0.1708
 6947SOL    HW222849   2.204   3.283   7.234 -0.7489  0.5812  0.8790
 6948SOL     OW22850   6.283  11.107   7.561 -0.0311  0.7259 -0.1682
 6948SOL    HW122851   6.327  11.074   7.640 -0.5760  1.2900  0.3794
 6948SOL    HW222852   6.278  11.031   7.503 -0.1330  0.1586  0.5685
 6949SOL     OW22853   2.141   9.232  10.781 -0.0858 -0.1952 -0.6132
 6949SOL    HW122854   2.094   9.246  10.864 -1.2604 -0.5055 -1.1952
 6949SOL    HW222855   2.231   9.214  10.807 -0.6545 -1.3516  0.6739
 6950SOL     OW22856   7.934   0.702  11.144 -0.7976 -0.3776 -0.0192
 6950SOL    HW122857   7.877   0.742  11.210 -2.1276  0.2805 -1.5097
 6950SOL    HW222858   7.986   0.774  11.109 -1.0299 -0.4861 -0.5990
 6951SOL     OW22859   9.882   9.420   0.868 -0.8537  0.0456  0.8185
 6951SOL    HW122860   9.967   9.443   0.905  0.2937  2.3895 -2.7251
 6951SOL    HW222861   9.898   9.337   0.822  0.4195  1.6442 -1.8950
 6952SOL     OW22862   1.663  10.945   9.158  0.3310  0.2843 -0.3424
 6952SOL    HW122863   1.758  10.951   9.168  0.3375 -1.6773  1.5513
 6952SOL    HW222864   1.640  10.860   9.196 -2.1909  0.7063 -0.7380
 6953SOL     OW22865   8.594   0.733  11.275  0.1915 -0.2732 -0.1215
 6953SOL    HW122866   8.625   0.705  11.189 -0.9880 -1.3293 -0.2249
 6953SOL    HW222867   8.587   0.653  11.326 -0.6016  0.1558  0.4687
 6954SOL     OW22868   1.712   0.249   7.629  0.1142 -0.5302  0.2299
 6954SOL    HW122869   1.787   0.198   7.661 -0.4915 -1.1141  0.7537
 6954SOL    HW222870   1.743   0.290   7.548  1.7603  1.1133  1.6110
 6955SOL     OW22871   9.283   0.758   2.992  0.4052  0.5726 -0.3995
 6955SOL    HW122872   9.340   0.733   3.065 -0.3371  1.0911  0.3908
 6955SOL    HW222873   9.230   0.680   2.975 -0.8496  1.0589  1.0316
 6956SOL     OW22874   6.290   9.268   3.518  0.2087 -0.9807 -0.3372
 6956SOL    HW122875   6.319   9.251   3.608 -3.0979 -1.9681  0.6807
 6956SOL    HW222876   6.284   9.363   3.512  1.7498 -0.8384 -0.0146
 6957SOL     OW22877   3.783   8.216   7.229  0.3764 -0.6373  0.0600
 6957SOL    HW122878   3.751   8.306   7.232  0.8738 -0.4776  1.0837
 6957SOL    HW222879   3.773   8.190   7.137  0.0706  0.4001 -0.2153
 6958SOL     OW22880   7.373   2.896  10.885  0.4131  0.1314 -0.0109
 6958SOL    HW122881   7.309   2.950  10.932  1.3255  2.1544 -0.9852
 6958SOL    HW222882   7.420   2.850  10.954 -2.6048 -2.1499  0.7247
 6959SOL     OW22883   4.242   3.065   2.166 -0.0153 -0.0476 -0.4024
 6959SOL    HW122884   4.308   3.113   2.217  0.2558 -0.3203 -0.4939
 6959SOL    HW222885   4.280   3.058   2.078 -0.4509  0.3567 -0.6299
 6960SOL     OW22886   6.809   3.805   2.800 -0.0446  0.4463 -0.1774
 6960SOL    HW122887   6.844   3.751   2.729  0.5312  0.7182 -0.1126
 6960SOL    HW222888   6.778   3.885   2.757  0.2806  0.6000 -0.1330
 6961SOL     OW22889   3.818   1.730   5.457  0.2677 -0.0267 -0.2144
 6961SOL    HW122890   3.833   1.750   5.549  0.8389  2.1133 -0.7222
 6961SOL    HW222891   3.871   1.653   5.440  0.5280 -0.1628  1.1328
 6962SOL     OW22892   3.736  11.250   1.808  0.2339 -0.1345 -0.0318
 6962SOL    HW122893   3.648  11.286   1.807  0.7734  1.2774  0.0766
 6962SOL    HW222894   3.724  11.156   1.798 -1.3340 -0.0921  1.0787
 6963SOL     OW22895   5.549   3.177   0.463 -0.1706  0.6439  0.6300
 6963SOL    HW122896   5.632   3.200   0.419 -0.5062  2.1116  0.6889
 6963SOL    HW222897   5.561   3.208   0.552  0.1605 -1.5041  1.3872
 6964SOL     OW22898   8.274   1.093   0.828  0.2311  0.5093 -0.6075
 6964SOL    HW122899   8.270   1.176   0.780 -5.1639 -0.6114 -2.8963
 6964SOL    HW222900   8.301   1.028   0.763 -0.2665 -0.1090 -0.2163
 6965SOL     OW22901   8.561   6.840   4.734 -0.5822  0.2355  0.2809
 6965SOL    HW122902   8.626   6.900   4.770 -0.1004  0.6812 -1.2406
 6965SOL    HW222903   8.477   6.874   4.763 -0.3976  2.3566 -1.4545
 6966SOL     OW22904   5.994   5.859  10.579  0.0944  0.2963  0.4055
 6966SOL    HW122905   6.066   5.823  10.526  0.4258 -0.1688  1.1449
 6966SOL    HW222906   6.004   5.954  10.572  1.0945  0.2403  0.8832
 6967SOL     OW22907   5.100   1.385   1.029  0.0881 -0.6974  0.1319
 6967SOL    HW122908   5.165   1.416   1.092 -0.3831 -1.7432  1.1811
 6967SOL    HW222909   5.049   1.463   1.006 -0.9378 -0.5716  2.5255
 6968SOL     OW22910   8.839   0.918   5.390  0.2383  0.1059 -0.0882
 6968SOL    HW122911   8.930   0.910   5.363  0.7030  3.7489 -0.0365
 6968SOL    HW222912   8.843   0.955   5.478 -1.3458 -1.1234  0.5609
 6969SOL     OW22913  10.105   5.498   1.528  0.5371 -0.0548 -0.0836
 6969SOL    HW122914  10.156   5.576   1.550 -0.2875  0.8987 -1.4133
 6969SOL    HW222915  10.015   5.530   1.520  0.1557 -1.1852 -0.5141
 6970SOL     OW22916  10.000   6.111   7.999  0.0157  0.2398  0.3802
 6970SOL    HW122917  10.081   6.161   7.999  0.0650  0.1796 -0.7668
 6970SOL    HW222918  10.025   6.023   8.028  0.4513  0.0865 -0.4466
 6971SOL     OW22919   7.652   1.262  11.180 -0.3721 -0.2384  0.1877
 6971SOL    HW122920   7.619   1.178  11.212 -0.2944 -0.5972 -0.6559
 6971SOL    HW222921   7.580   1.323  11.194 -0.1401 -0.2409  1.5793
 6972SOL     OW22922   5.687   3.016  10.983  0.2088  0.0009 -0.2684
 6972SOL    HW122923   5.611   3.074  10.986 -0.2451 -0.6161  0.7768
 6972SOL    HW222924   5.678   2.961  11.061  1.6565 -0.1745 -0.1946
 6973SOL     OW22925   0.450   1.679  11.131 -0.7778 -0.4749  0.6519
 6973SOL    HW122926   0.379   1.645  11.186 -2.0590  0.3130 -0.4405
 6973SOL    HW222927   0.465   1.610  11.066  0.2128 -1.0876  1.5119
 6974SOL     OW22928  10.491   8.326   4.089 -0.0546  0.2069 -0.7727
 6974SOL    HW122929  10.556   8.257   4.098  0.1208  0.2698 -1.5143
 6974SOL    HW222930  10.543   8.406   4.077 -0.2660  0.3337 -0.8419
 6975SOL     OW22931  10.683   1.057   2.839 -0.3339 -0.2955  0.1453
 6975SOL    HW122932  10.691   1.009   2.756 -0.4578 -1.2024  0.6389
 6975SOL    HW222933  10.749   1.126   2.834 -0.3269 -0.3578 -0.7017
 6976SOL     OW22934   5.202   4.945   9.751 -0.1084  0.0153  0.0851
 6976SOL    HW122935   5.284   4.895   9.759  0.1091  0.1843 -0.9875
 6976SOL    HW222936   5.158   4.931   9.835  0.2189 -1.4942  0.0484
 6977SOL     OW22937   0.766   4.368  10.040 -0.3102  0.0425  0.2547
 6977SOL    HW122938   0.745   4.323   9.958  0.6475  0.7044 -0.3716
 6977SOL    HW222939   0.790   4.297  10.100  1.8638 -0.2984 -0.9218
 6978SOL     OW22940   1.234   5.162   7.172  0.1128 -0.0276  0.7253
 6978SOL    HW122941   1.255   5.173   7.079 -2.4078 -1.7458 -0.1793
 6978SOL    HW222942   1.315   5.132   7.211  0.8187 -1.0231 -1.3284
 6979SOL     OW22943   9.337   2.788  10.407  0.2991 -0.2293  0.1122
 6979SOL    HW122944   9.277   2.725  10.445 -0.4663  0.7468  0.5635
 6979SOL    HW222945   9.330   2.774  10.312  0.2822 -0.9359  0.2146
 6980SOL     OW22946   9.184   1.516   4.786 -0.2538  0.0531 -0.3113
 6980SOL    HW122947   9.260   1.533   4.730 -0.8758 -2.9519 -2.3831
 6980SOL    HW222948   9.158   1.426   4.763 -2.4884 -0.2177  2.6685
 6981SOL     OW22949   8.684   1.227   2.240 -0.1607 -0.3164 -0.0775
 6981SOL    HW122950   8.644   1.150   2.280  1.2637 -1.1320 -0.1257
 6981SOL    HW222951   8.726   1.193   2.160  0.0090  0.6228 -0.3997
 6982SOL     OW22952   7.086   3.985   2.191 -0.2002 -0.5495  0.5266
 6982SOL    HW122953   7.061   4.076   2.209 -2.6547 -1.2517  1.0728
 6982SOL    HW222954   7.179   3.981   2.210 -0.0483  1.8188  0.5760
 6983SOL     OW22955   8.288   5.936   5.659 -0.8945  0.2321 -0.1613
 6983SOL    HW122956   8.376   5.914   5.627 -1.4944 -0.4081 -1.3999
 6983SOL    HW222957   8.302   6.016   5.710  0.3592  0.3394 -0.6181
 6984SOL     OW22958  10.564   6.037   9.002 -0.3876  1.0349  0.2654
 6984SOL    HW122959  10.482   6.047   8.952 -2.5661 -2.8751  2.5080
 6984SOL    HW222960  10.621   5.986   8.944 -1.1141  0.4225  0.0680
 6985SOL     OW22961   8.033   1.379   9.874  0.5060 -0.2023  0.1710
 6985SOL    HW122962   8.085   1.457   9.895  1.1643 -1.1638  2.4787
 6985SOL    HW222963   7.955   1.388   9.929 -0.0411 -0.5597 -0.5339
 6986SOL     OW22964   7.896   1.525   7.073  0.3186  0.4087  0.2007
 6986SOL    HW122965   7.861   1.449   7.119  1.7502  0.5459  1.6161
 6986SOL    HW222966   7.836   1.540   7.001  0.2230 -2.3454 -0.3904
 6987SOL     OW22967   8.361   4.651   3.189  0.6159  0.3845  0.6465
 6987SOL    HW122968   8.343   4.710   3.116  0.4933 -0.7412 -0.2735
 6987SOL    HW222969   8.276   4.609   3.208  1.3709 -2.3672 -1.3751
 6988SOL     OW22970   7.338  11.103   5.939 -0.0356  0.2152 -0.0639
 6988SOL    HW122971   7.291  11.020   5.938 -0.4046  0.4158  0.5957
 6988SOL    HW222972   7.270  11.170   5.941  0.2695  0.5114  0.7404
 6989SOL     OW22973   7.427   1.904   1.702  0.2500 -0.1726 -0.5156
 6989SOL    HW122974   7.403   1.826   1.752 -0.7799  0.5014  0.0656
 6989SOL    HW222975   7.351   1.923   1.647  1.3345 -0.8727 -2.3703
 6990SOL     OW22976   8.296   4.177   2.417 -0.4430  0.0257 -0.1694
 6990SOL    HW122977   8.389   4.160   2.401  0.6643  3.3249  1.9011
 6990SOL    HW222978   8.257   4.090   2.425  3.1253 -1.5655  2.3615
 6991SOL     OW22979   8.174   8.531   0.097  0.8584  0.5496 -0.2660
 6991SOL    HW122980   8.180   8.438   0.117  0.8531  0.4696 -0.6322
 6991SOL    HW222981   8.191   8.537   0.003  0.6095  0.8924 -0.2922
 6992SOL     OW22982   3.398   6.411   7.981 -0.0995  0.2879 -0.4836
 6992SOL    HW122983   3.312   6.377   8.004  0.5201 -1.6592 -0.8012
 6992SOL    HW222984   3.448   6.407   8.063  0.0498  0.2001 -0.5784
 6993SOL     OW22985   5.447   1.516   3.577 -0.6229  0.0500  0.2733
 6993SOL    HW122986   5.380   1.544   3.639 -2.5931 -2.3114 -0.6402
 6993SOL    HW222987   5.400   1.465   3.511  1.5725  1.2454 -2.4434
 6994SOL     OW22988   4.665   3.235   1.958 -0.3680 -0.3934  0.1324
 6994SOL    HW122989   4.709   3.194   2.032 -1.7429 -0.3541  1.0109
 6994SOL    HW222990   4.646   3.162   1.899  0.2582 -0.5041  0.0584
 6995SOL     OW22991   0.688  10.975   0.780  0.3044 -0.4593 -0.0237
 6995SOL    HW122992   0.640  10.922   0.717  0.9175  0.7632 -1.5845
 6995SOL    HW222993   0.750  10.915   0.820 -1.5930 -1.7731  1.1097
 6996SOL     OW22994  10.660   8.127   9.162  0.4522  0.3034 -0.4907
 6996SOL    HW122995  10.716   8.156   9.234 -0.9211  0.8021  0.4133
 6996SOL    HW222996  10.596   8.197   9.151 -1.2489 -1.1170 -0.1152
 6997SOL     OW22997   5.072   0.828   9.486  1.0025 -0.0122  0.0876
 6997SOL    HW122998   4.978   0.838   9.496  1.1350 -0.5757  3.0844
 6997SOL    HW222999   5.083   0.759   9.421 -0.6895 -0.6109  0.4092
 6998SOL     OW23000   3.244   5.698   9.893 -0.7935 -0.1139  0.0147
 6998SOL    HW123001   3.153   5.680   9.918 -0.8217  0.6967  0.5403
 6998SOL    HW223002   3.237   5.762   9.822 -0.6222  0.7253  0.7375
 6999SOL     OW23003   4.108   9.551   8.032  0.5374 -0.5543  0.5035
 6999SOL    HW123004   4.164   9.605   7.976 -0.9569 -1.2364 -1.8066
 6999SOL    HW223005   4.158   9.540   8.113  2.4099  1.2895 -0.2976
 7000SOL     OW23006   9.799   4.255  10.031  0.4338 -0.1599 -0.0418
 7000SOL    HW123007   9.743   4.237   9.956  0.0056  1.0660 -0.0418
 7000SOL    HW223008   9.776   4.188  10.095 -1.0542  0.3219 -0.0436
 7001SOL     OW23009   3.310   1.297   9.451 -0.4974 -0.0598  0.8195
 7001SOL    HW123010   3.317   1.377   9.502  0.7435  0.3669  0.0208
 7001SOL    HW223011   3.254   1.240   9.504 -1.5667  1.3851  1.3088
 7002SOL     OW23012   4.656   2.754   8.466 -0.3033 -0.3130 -0.3919
 7002SOL    HW123013   4.749   2.739   8.448 -0.2051 -1.8034  1.0717
 7002SOL    HW223014   4.618   2.774   8.380  0.9824 -1.8678 -1.3958
 7003SOL     OW23015  11.254   4.319   0.210  0.5192  0.4721 -0.6501
 7003SOL    HW123016  11.258   4.250   0.144  0.4437  1.5568 -1.8339
 7003SOL    HW223017  11.337   4.312   0.256  0.1421 -0.9716 -0.1296
 7004SOL     OW23018   6.107   6.768   9.100 -0.4829  0.0930  0.5895
 7004SOL    HW123019   6.081   6.741   9.188 -0.7488  1.4401  0.9347
 7004SOL    HW223020   6.171   6.838   9.114 -1.2305  0.9753 -0.2714
 7005SOL     OW23021  11.106   8.249   3.721  0.2897  0.3836 -0.4895
 7005SOL    HW123022  11.046   8.280   3.788  0.2924 -1.3455  0.3776
 7005SOL    HW223023  11.192   8.282   3.747  0.1177  0.6266 -0.2357
 7006SOL     OW23024   9.647   1.131   9.495  0.5244 -0.0075  0.0594
 7006SOL    HW123025   9.735   1.139   9.460  0.5839  1.4938  0.4546
 7006SOL    HW223026   9.654   1.065   9.564  1.1710 -0.4352 -0.4109
 7007SOL     OW23027   9.377   8.993   1.088 -0.5319 -0.7702 -0.0083
 7007SOL    HW123028   9.396   8.985   1.182  1.7460 -0.1430 -0.3541
 7007SOL    HW223029   9.295   9.043   1.085 -0.4311 -0.4322  1.6441
 7008SOL     OW23030   5.510   8.991   0.766  0.6940 -0.0342  0.5817
 7008SOL    HW123031   5.438   8.944   0.809 -0.3851  1.1513  0.1440
 7008SOL    HW223032   5.479   9.081   0.760  0.8808 -0.0518 -2.3847
 7009SOL     OW23033   7.099  10.498   2.571  0.1821 -0.3461 -0.0387
 7009SOL    HW123034   7.058  10.412   2.562 -2.5024  0.7603  0.4780
 7009SOL    HW223035   7.184  10.489   2.530  0.1896 -3.3587  0.4161
 7010SOL     OW23036   0.595   1.923   2.738  0.4558 -0.5900 -0.6890
 7010SOL    HW123037   0.663   1.983   2.709 -0.5018  0.9457  0.1224
 7010SOL    HW223038   0.636   1.875   2.811  0.2708  1.3648  0.7898
 7011SOL     OW23039   8.474   6.143   1.840 -0.2314 -0.1856  0.0744
 7011SOL    HW123040   8.384   6.127   1.867 -0.5621  1.0641 -0.2293
 7011SOL    HW223041   8.518   6.058   1.851 -1.8899 -1.3582 -1.6655
 7012SOL     OW23042   4.814   6.722   3.011 -0.0496 -0.0259  0.4556
 7012SOL    HW123043   4.784   6.773   3.086 -0.2811 -0.3781  0.6005
 7012SOL    HW223044   4.783   6.772   2.935 -2.1124 -0.9991  0.5936
 7013SOL     OW23045   2.887   4.760   3.643  0.3876  0.2841  0.0219
 7013SOL    HW123046   2.962   4.811   3.676 -0.5657  3.3686 -2.1517
 7013SOL    HW223047   2.893   4.769   3.548 -1.6635 -1.0578 -0.2754
 7014SOL     OW23048   2.718   2.525   5.119 -0.2967 -0.0969  1.1221
 7014SOL    HW123049   2.796   2.527   5.064  0.1388 -2.8038  1.4989
 7014SOL    HW223050   2.645   2.517   5.058 -0.1887  0.9096  0.8364
 7015SOL     OW23051   6.243   8.042  10.036 -0.3646 -0.5479  0.1754
 7015SOL    HW123052   6.259   7.960  10.083 -0.6460  0.3299  1.8815
 7015SOL    HW223053   6.186   8.017   9.963 -1.0283 -1.7739  1.0789
 7016SOL     OW23054   2.287   8.893   1.484 -0.0761 -0.4493  0.0564
 7016SOL    HW123055   2.300   8.798   1.492 -2.5030 -0.8294  0.2312
 7016SOL    HW223056   2.249   8.919   1.568  1.8394  1.0041  0.5549
 7017SOL     OW23057  11.098   3.940   9.917  1.0946  0.0207 -0.0062
 7017SOL    HW123058  11.054   3.874   9.864 -1.1137  1.2700  0.1338
 7017SOL    HW223059  11.064   3.927  10.006  1.1123  0.9035  0.1417
 7018SOL     OW23060  10.999   1.227   7.845 -0.5318  0.2633 -0.0447
 7018SOL    HW123061  11.057   1.218   7.920 -0.2086  1.0084 -0.1975
 7018SOL    HW223062  11.042   1.176   7.776 -1.4499 -1.4662  0.5898
 7019SOL     OW23063  11.154   1.279   8.939 -0.6727 -0.4044 -0.0968
 7019SOL    HW123064  11.136   1.185   8.941 -0.8784 -0.4023 -1.1936
 7019SOL    HW223065  11.203   1.292   8.857 -0.9110  0.4895 -0.1023
 7020SOL     OW23066   7.244   5.358   0.337 -0.3064 -0.0489  0.5903
 7020SOL    HW123067   7.255   5.407   0.256  1.0404  1.0402  1.3719
 7020SOL    HW223068   7.267   5.268   0.315 -2.9301 -0.4259 -0.9076
 7021SOL     OW23069   2.142   1.207   3.851 -0.6307 -0.2256 -0.6837
 7021SOL    HW123070   2.131   1.183   3.759  0.6210 -1.5027 -0.5344
 7021SOL    HW223071   2.127   1.126   3.899 -1.2655  0.4295  0.2428
 7022SOL     OW23072   3.584   6.274   4.956 -0.6926 -0.5024 -0.0432
 7022SOL    HW123073   3.657   6.335   4.947  0.6349 -1.8860  0.9934
 7022SOL    HW223074   3.563   6.249   4.866 -0.5108  0.5772 -0.4046
 7023SOL     OW23075   2.662   1.045   5.841  0.4005 -0.5198 -0.0195
 7023SOL    HW123076   2.696   1.129   5.811  0.2091 -0.0473  1.0287
 7023SOL    HW223077   2.567   1.053   5.832  0.4475 -2.0390 -3.4727
 7024SOL     OW23078   0.406   3.954   1.621 -0.0820 -0.1198  0.4776
 7024SOL    HW123079   0.439   4.040   1.595 -1.0896 -0.1928 -1.2008
 7024SOL    HW223080   0.406   3.903   1.539 -2.3968 -0.7413  0.8017
 7025SOL     OW23081  10.327   9.548   8.170 -0.2375 -0.4475  0.6593
 7025SOL    HW123082  10.309   9.633   8.131 -1.3168 -0.8538  0.2342
 7025SOL    HW223083  10.391   9.508   8.111 -0.1749 -0.1694  0.5379
 7026SOL     OW23084   9.359   8.581  10.713  0.0847  0.3970 -0.6945
 7026SOL    HW123085   9.389   8.642  10.645  1.5672 -2.1141 -2.4801
 7026SOL    HW223086   9.267   8.566  10.693 -0.3517  2.0944 -0.1208
 7027SOL     OW23087   1.411   8.112   4.907 -0.4175 -0.0446  0.5948
 7027SOL    HW123088   1.354   8.095   4.981 -3.0096  3.4020 -0.3211
 7027SOL    HW223089   1.357   8.096   4.830  0.4841  1.2845 -0.3829
 7028SOL     OW23090   3.255   7.953   9.940 -0.5365  0.2763  0.0449
 7028SOL    HW123091   3.260   8.046   9.962 -0.0306  1.0153 -2.8861
 7028SOL    HW223092   3.306   7.943   9.860 -1.7818 -2.2456 -0.5648
 7029SOL     OW23093   5.498   1.481   2.072  0.5814  0.0289 -0.1300
 7029SOL    HW123094   5.463   1.394   2.089 -0.5910  0.4033 -0.5152
 7029SOL    HW223095   5.436   1.541   2.114  0.1262  0.7519 -1.7481
 7030SOL     OW23096   2.890   4.545   7.053 -0.3192 -0.3798 -0.6097
 7030SOL    HW123097   2.797   4.544   7.033 -1.0748  3.2572  1.7360
 7030SOL    HW223098   2.930   4.594   6.981 -0.6321  0.0934 -0.4667
 7031SOL     OW23099   7.577   6.949   3.644 -0.0612 -0.4007  0.2050
 7031SOL    HW123100   7.549   6.858   3.641 -0.3956 -0.3060  0.3453
 7031SOL    HW223101   7.672   6.946   3.634 -0.0655 -0.7661  0.2718
 7032SOL     OW23102   8.744   7.960   5.174  0.5492 -0.3625 -0.0452
 7032SOL    HW123103   8.759   8.028   5.239  2.5228 -0.4914 -0.3120
 7032SOL    HW223104   8.743   7.879   5.224  1.8436 -0.4414 -0.1179
 7033SOL     OW23105  10.826   3.516   5.930 -0.1147  0.1630  0.2076
 7033SOL    HW123106  10.909   3.559   5.910 -0.4589  1.1250  0.8389
 7033SOL    HW223107  10.838   3.481   6.019 -0.4971  0.5776  0.4214
 7034SOL     OW23108   2.563   2.955   1.560 -0.3963 -0.2705 -0.1040
 7034SOL    HW123109   2.471   2.932   1.576 -0.6449 -0.4268 -1.6432
 7034SOL    HW223110   2.602   2.957   1.647 -1.6755 -0.9913  0.5207
 7035SOL     OW23111   5.774   4.047   6.193 -0.1500 -0.1455  0.4298
 7035SOL    HW123112   5.761   4.141   6.207 -1.4572  0.0564 -1.6953
 7035SOL    HW223113   5.794   4.040   6.099  0.1741 -1.9740  0.6121
 7036SOL     OW23114   4.634   3.938   6.609 -0.4407 -0.5588  0.4727
 7036SOL    HW123115   4.582   3.892   6.676  0.2487 -0.7208  0.9076
 7036SOL    HW223116   4.578   3.938   6.532 -1.7687  0.7157  1.3741
 7037SOL     OW23117   8.844   7.009   9.664  0.3416 -0.0619  0.0885
 7037SOL    HW123118   8.778   6.942   9.684 -0.1384  0.9095  2.1147
 7037SOL    HW223119   8.824   7.080   9.726  1.0170  1.8320 -1.7604
 7038SOL     OW23120   5.530  10.530   9.675  0.1920 -0.0848 -0.1354
 7038SOL    HW123121   5.479  10.450   9.666  1.7746 -0.9597 -2.1683
 7038SOL    HW223122   5.466  10.601   9.670 -1.2108 -1.1622  1.4985
 7039SOL     OW23123   2.047   1.522   7.029  0.4016 -0.1180  0.1321
 7039SOL    HW123124   2.014   1.508   6.940  1.2646  1.2720 -0.4429
 7039SOL    HW223125   1.984   1.478   7.085 -0.6214 -0.3139 -1.1197
 7040SOL     OW23126   2.917  10.434   7.118 -0.4173 -0.2247 -0.3844
 7040SOL    HW123127   2.955  10.515   7.152 -1.3028 -0.3948  1.1107
 7040SOL    HW223128   2.827  10.458   7.094 -0.2345 -0.4433 -1.3223
 7041SOL     OW23129   4.899  10.010   2.829  0.1733 -0.2698 -0.3303
 7041SOL    HW123130   4.860  10.094   2.804  1.7691  1.3012  2.0534
 7041SOL    HW223131   4.989  10.015   2.795  0.6823 -0.4056  0.9561
 7042SOL     OW23132  10.131  11.133   6.471  0.4342 -0.0950 -1.0416
 7042SOL    HW123133  10.150  11.224   6.453  2.8792  0.3360  2.6115
 7042SOL    HW223134  10.067  11.136   6.543 -0.1638 -1.2823 -1.4950
 7043SOL     OW23135   8.965   6.925  10.294 -0.2204  0.2974 -0.1222
 7043SOL    HW123136   8.902   6.996  10.281 -0.3441  0.0816 -0.7807
 7043SOL    HW223137   9.051   6.967  10.286 -0.2838  0.2401 -1.5214
 7044SOL     OW23138   1.236   3.297   8.527 -0.4277  0.6032 -0.3097
 7044SOL    HW123139   1.209   3.274   8.438  0.7311 -0.4253 -0.4210
 7044SOL    HW223140   1.167   3.260   8.583 -1.6385  2.0455 -0.8022
 7045SOL     OW23141   1.271   8.115   6.448  0.1098 -0.2019 -0.2802
 7045SOL    HW123142   1.253   8.022   6.462 -0.3069  0.0396  0.8732
 7045SOL    HW223143   1.210   8.161   6.505  0.6715  0.7775 -0.4338
 7046SOL     OW23144   0.809  10.731   8.460 -0.6268 -0.2062  0.2320
 7046SOL    HW123145   0.740  10.793   8.436  1.3833  1.9282 -0.4517
 7046SOL    HW223146   0.838  10.760   8.546 -1.2901 -1.8132  1.0412
 7047SOL     OW23147  10.777   9.118   0.309  0.7267 -0.8367 -0.6221
 7047SOL    HW123148  10.785   9.032   0.266  2.5543 -0.2283 -1.6328
 7047SOL    HW223149  10.844   9.117   0.377 -0.0662 -0.6258  0.1845
 7048SOL     OW23150   5.035  10.985   2.297  0.2536 -0.0982  0.2313
 7048SOL    HW123151   5.115  10.972   2.247 -0.1447  0.4055 -0.5589
 7048SOL    HW223152   5.007  11.074   2.276  0.9021  0.7420  2.5712
 7049SOL     OW23153   5.691   5.352   7.884 -0.0225 -0.0688  0.0087
 7049SOL    HW123154   5.641   5.354   7.803 -1.4264 -1.1101  0.8044
 7049SOL    HW223155   5.635   5.305   7.946  1.9206 -1.3145  0.9500
 7050SOL     OW23156   4.312   5.149   2.495  0.0342 -0.7538 -0.2898
 7050SOL    HW123157   4.405   5.134   2.474  0.6161  2.4342 -0.5540
 7050SOL    HW223158   4.298   5.101   2.576  2.9778  1.3293  1.6892
 7051SOL     OW23159   7.940   6.816  11.196  0.2428 -0.3602 -0.2613
 7051SOL    HW123160   8.007   6.884  11.187  0.3605 -0.6975 -2.7002
 7051SOL    HW223161   7.987   6.734  11.179 -0.6481 -0.6495 -1.4878
 7052SOL     OW23162   1.277   5.710   2.341 -0.3511  0.1633 -0.0284
 7052SOL    HW123163   1.336   5.649   2.385 -0.2031 -0.1110 -0.5996
 7052SOL    HW223164   1.191   5.669   2.348 -0.4868  0.5678  0.8128
 7053SOL     OW23165   0.901   4.903   5.857 -0.8124  0.4193  0.4728
 7053SOL    HW123166   0.833   4.836   5.847 -0.0288 -0.5008  1.1875
 7053SOL    HW223167   0.921   4.929   5.767 -2.6261  1.2681  0.2599
 7054SOL     OW23168   1.949   6.852   0.290  0.2799  0.4750  0.1622
 7054SOL    HW123169   1.990   6.765   0.286  0.5066  0.5686  0.4169
 7054SOL    HW223170   1.915   6.858   0.379  0.7890  0.8815  0.3373
 7055SOL     OW23171   9.288   2.008   5.298  0.1056 -0.3634 -0.2227
 7055SOL    HW123172   9.313   2.060   5.222 -0.4483  1.5711  0.8615
 7055SOL    HW223173   9.368   1.962   5.322  1.8880  3.0699  1.1207
 7056SOL     OW23174   9.576   3.554   0.361  0.4028 -0.3275  0.0681
 7056SOL    HW123175   9.534   3.632   0.398  2.4088  0.2837  1.2249
 7056SOL    HW223176   9.517   3.526   0.291 -0.7690  1.7737  0.1207
 7057SOL     OW23177   5.764   6.794  10.318  0.6844 -0.6685 -0.1888
 7057SOL    HW123178   5.819   6.843  10.256  0.7617 -1.7029 -0.9713
 7057SOL    HW223179   5.746   6.711  10.273 -1.2236 -0.5097  0.1903
 7058SOL     OW23180  10.275   9.838   4.767 -0.1238 -0.0727  0.0997
 7058SOL    HW123181  10.206   9.807   4.708 -1.9398  0.5794  1.7785
 7058SOL    HW223182  10.310   9.758   4.807 -0.1513 -0.3849 -0.4960
 7059SOL     OW23183   3.672   7.550   0.307 -0.2249  0.9188  0.5758
 7059SOL    HW123184   3.582   7.517   0.311  0.9082 -2.4462  1.8440
 7059SOL    HW223185   3.689   7.561   0.213 -1.0702 -1.3976  0.0636
 7060SOL     OW23186   8.783   9.536   6.555  0.0260  0.3976  0.4346
 7060SOL    HW123187   8.855   9.545   6.618  0.0334  2.2241  0.2353
 7060SOL    HW223188   8.826   9.513   6.473  0.3535  1.0405  0.4193
 7061SOL     OW23189   8.278   7.325   0.084  0.2986  0.5305  0.1737
 7061SOL    HW123190   8.306   7.356   0.170 -3.1335 -0.6611  1.9395
 7061SOL    HW223191   8.230   7.399   0.046 -1.0841  0.0191  0.8582
 7062SOL     OW23192  10.882   9.541   0.855 -0.4321  0.2599 -0.0142
 7062SOL    HW123193  10.802   9.552   0.906 -0.7944 -2.7293  0.2689
 7062SOL    HW223194  10.852   9.506   0.771  0.4038  1.9793 -1.0780
 7063SOL     OW23195   7.671   2.206   8.647  0.9848  0.7133  0.1711
 7063SOL    HW123196   7.612   2.281   8.643  0.0674 -0.0268 -1.0244
 7063SOL    HW223197   7.631   2.141   8.589  2.6248 -0.0805 -0.1368
 7064SOL     OW23198   4.492   1.037   8.770 -0.0954  0.0291  1.1217
 7064SOL    HW123199   4.574   1.053   8.818 -0.0927 -2.5939  2.1324
 7064SOL    HW223200   4.520   1.011   8.682  0.0026  1.8614  0.5712
 7065SOL     OW23201   2.458   8.062   6.867  0.1006 -0.5546 -0.4035
 7065SOL    HW123202   2.500   8.045   6.952  0.2462  1.4125 -0.0105
 7065SOL    HW223203   2.368   8.084   6.889 -0.5733 -2.5265 -1.0399
 7066SOL     OW23204  10.451   0.327   1.992  0.9321  0.4358 -0.1235
 7066SOL    HW123205  10.493   0.253   1.947  2.8716  0.6233  1.2273
 7066SOL    HW223206  10.426   0.292   2.078 -0.7453  0.6410 -0.4952
 7067SOL     OW23207   0.382   9.039   5.352  0.6580  1.3549 -0.0341
 7067SOL    HW123208   0.348   9.030   5.441 -0.1463  0.3928 -0.4223
 7067SOL    HW223209   0.376   9.132   5.334  0.7602  1.5532  0.8900
 7068SOL     OW23210   3.485   0.747   6.553 -0.1386 -0.2128  0.2187
 7068SOL    HW123211   3.562   0.705   6.590 -1.2095 -2.6230 -0.1157
 7068SOL    HW223212   3.449   0.800   6.624 -0.0834 -1.8162  1.4831
 7069SOL     OW23213  10.145   5.784   3.334 -0.0957  0.4034 -0.6509
 7069SOL    HW123214  10.219   5.735   3.300 -0.6603  1.5179 -3.8363
 7069SOL    HW223215  10.077   5.718   3.348  1.3543 -0.6400  2.3707
 7070SOL     OW23216   3.877   0.994  10.659  0.6934 -0.0529  0.2374
 7070SOL    HW123217   3.794   0.964  10.697  1.3016 -2.9193 -0.4682
 7070SOL    HW223218   3.891   0.937  10.584  3.2901  0.3790  0.3149
 7071SOL     OW23219   5.651   3.958   0.840 -0.4421 -0.2095 -0.1515
 7071SOL    HW123220   5.613   3.950   0.928 -0.5479 -0.9289 -0.2552
 7071SOL    HW223221   5.738   3.920   0.849 -0.2010  0.3148 -0.2104
 7072SOL     OW23222   7.361   5.797   0.631 -0.3498  0.6577 -0.2527
 7072SOL    HW123223   7.416   5.875   0.625 -0.8577  1.1877  1.4583
 7072SOL    HW223224   7.286   5.824   0.683 -0.0764 -1.2171  1.2319
 7073SOL     OW23225   1.458   0.175   8.347  0.4935 -0.4292 -0.1891
 7073SOL    HW123226   1.447   0.172   8.442  0.2362  1.9781 -0.0881
 7073SOL    HW223227   1.490   0.087   8.324 -1.5309 -1.7967  1.7932
 7074SOL     OW23228   7.595   9.364   9.529 -0.0010  0.2456  0.1913
 7074SOL    HW123229   7.610   9.458   9.520 -1.6663  0.6863  1.5666
 7074SOL    HW223230   7.536   9.355   9.604 -1.2197 -1.7604 -0.8914
 7075SOL     OW23231  10.079   0.890   6.862  0.5240 -0.5055  0.5892
 7075SOL    HW123232  10.056   0.899   6.769  1.5789 -0.3036  0.3380
 7075SOL    HW223233  10.107   0.978   6.888 -1.1373 -0.1924  1.5077
 7076SOL     OW23234   3.864   1.092   4.754  0.1276  0.3093  0.2041
 7076SOL    HW123235   3.860   1.134   4.840 -0.6793  1.4160 -0.3655
 7076SOL    HW223236   3.777   1.105   4.716 -0.4142 -2.4821  0.2679
 7077SOL     OW23237   9.058   7.875   1.386 -0.4232 -0.2183 -0.7802
 7077SOL    HW123238   9.134   7.829   1.349  0.2479  1.5231 -1.6748
 7077SOL    HW223239   8.987   7.811   1.383  0.8853 -1.7492 -0.3288
 7078SOL     OW23240   3.280   6.834   6.815  0.3400 -0.5451  0.2504
 7078SOL    HW123241   3.365   6.802   6.785  0.3917 -0.4029  0.2464
 7078SOL    HW223242   3.280   6.927   6.793 -0.9482 -1.0589 -2.4123
 7079SOL     OW23243   6.435  10.814   3.921 -0.1562 -0.3379  0.2058
 7079SOL    HW123244   6.474  10.845   4.003 -1.3095 -0.1031  0.6778
 7079SOL    HW223245   6.510  10.805   3.861  1.2555 -3.7888  2.2312
 7080SOL     OW23246   5.504   7.863   6.875 -0.7659 -0.1152  0.1215
 7080SOL    HW123247   5.490   7.780   6.920 -0.4981 -0.6733 -0.7864
 7080SOL    HW223248   5.593   7.888   6.900 -0.8727 -0.0655  0.4550
 7081SOL     OW23249  10.638   1.375   2.217 -0.0168 -0.2722 -0.2149
 7081SOL    HW123250  10.727   1.355   2.248  0.2531 -1.0564 -1.4250
 7081SOL    HW223251  10.583   1.311   2.261  0.2497 -0.8662 -0.7431
 7082SOL     OW23252   5.675  10.816   3.637 -0.6229 -0.4409  0.1925
 7082SOL    HW123253   5.757  10.860   3.612 -0.5311  0.6596  2.2121
 7082SOL    HW223254   5.693  10.723   3.622  0.9259 -0.2036  0.3339
 7083SOL     OW23255   9.148   7.778   4.092  0.3124  0.0046  0.0322
 7083SOL    HW123256   9.071   7.829   4.067  0.5114 -0.7644 -2.4340
 7083SOL    HW223257   9.124   7.738   4.175 -1.2441  1.1925  0.1999
 7084SOL     OW23258   1.873   2.747   2.283  0.2739 -0.5720 -0.0610
 7084SOL    HW123259   1.957   2.788   2.259  0.8705  0.4862  3.3848
 7084SOL    HW223260   1.813   2.820   2.293 -0.0959 -1.0092  0.9464
 7085SOL     OW23261   5.605   8.299   8.108 -0.7729  0.1370 -0.6861
 7085SOL    HW123262   5.530   8.243   8.130  0.9031 -0.8920  3.3217
 7085SOL    HW223263   5.645   8.256   8.033 -1.2654 -2.4251  0.4079
 7086SOL     OW23264   6.122   2.140  10.014 -0.1722  0.1246  0.1163
 7086SOL    HW123265   6.217   2.131  10.019  0.0480  2.1904  0.4776
 7086SOL    HW223266   6.094   2.157  10.104 -0.8702 -0.1771 -0.0341
 7087SOL     OW23267   8.784   6.016   5.944 -0.2912  0.2032  0.4781
 7087SOL    HW123268   8.811   6.108   5.948 -2.2807  0.8516  0.1646
 7087SOL    HW223269   8.803   5.982   6.032 -0.9348  1.3501  1.0866
 7088SOL     OW23270   1.055   0.687   1.576  0.8104  0.0825  0.7554
 7088SOL    HW123271   1.105   0.655   1.501  0.4110  3.2492 -1.0645
 7088SOL    HW223272   1.102   0.655   1.653  0.5032 -4.4692 -0.6431
 7089SOL     OW23273   5.337   9.720   0.357  0.3594  0.3053 -0.4409
 7089SOL    HW123274   5.333   9.687   0.447  0.9539  0.2394 -0.4353
 7089SOL    HW223275   5.260   9.777   0.349  0.3224  0.3380  0.1187
 7090SOL     OW23276   1.575   1.500   0.789  0.6146 -0.1532  0.3504
 7090SOL    HW123277   1.639   1.536   0.850  0.0519 -1.6066  1.8496
 7090SOL    HW223278   1.602   1.408   0.778 -1.1203 -0.7624  0.9370
 7091SOL     OW23279  10.168   4.687   3.973  0.1108  0.6095  0.0985
 7091SOL    HW123280  10.250   4.647   3.944  0.5137  0.7923  0.9487
 7091SOL    HW223281  10.104   4.616   3.966  0.2303  0.6094 -1.0539
 7092SOL     OW23282   3.664   4.667   7.230 -0.0357 -0.3638  0.0168
 7092SOL    HW123283   3.615   4.714   7.297  0.3589  1.3803 -0.8645
 7092SOL    HW223284   3.739   4.630   7.277  1.0014  2.0088  0.3648
 7093SOL     OW23285   6.061   3.413  10.733  0.0346 -0.2844  0.7933
 7093SOL    HW123286   5.972   3.428  10.766 -0.5002 -2.4960  0.5258
 7093SOL    HW223287   6.097   3.501  10.720 -2.0467  0.6656  1.0475
 7094SOL     OW23288  10.972   1.882   0.419  0.1909 -0.2101  0.3066
 7094SOL    HW123289  11.029   1.897   0.494  1.1217  1.9077 -0.7366
 7094SOL    HW223290  10.940   1.969   0.395 -1.0254 -0.9721 -1.0327
 7095SOL     OW23291   0.863  10.394   6.108  0.2181  0.8528  0.5297
 7095SOL    HW123292   0.798  10.325   6.120 -0.1737  0.3211 -3.4116
 7095SOL    HW223293   0.812  10.472   6.087  0.6093  0.2235 -3.5438
 7096SOL     OW23294  11.131   2.532   6.419 -0.7970  0.2304  0.3280
 7096SOL    HW123295  11.134   2.574   6.505 -0.5833  0.9007 -0.0018
 7096SOL    HW223296  11.111   2.603   6.358  1.8556  0.3337 -0.5464
 7097SOL     OW23297  10.986   1.992   5.130 -0.3420  0.3885 -0.1532
 7097SOL    HW123298  11.022   1.997   5.041  1.0752  0.5914  0.4106
 7097SOL    HW223299  10.979   1.899   5.148 -1.7188  0.3245 -0.8772
 7098SOL     OW23300   4.767   5.396   9.589 -0.4880  0.4733 -0.2446
 7098SOL    HW123301   4.710   5.427   9.658 -0.6121 -0.7123  0.2048
 7098SOL    HW223302   4.793   5.308   9.616 -0.1724  0.1596 -1.4783
 7099SOL     OW23303   9.564  10.630   8.773  0.2573  0.4324 -0.5340
 7099SOL    HW123304   9.469  10.617   8.769  0.2946 -1.1521  1.7611
 7099SOL    HW223305   9.599  10.564   8.713 -0.0270 -1.7110  1.5398
 7100SOL     OW23306   5.029   3.992   9.235 -0.4745  0.7486  0.3874
 7100SOL    HW123307   4.937   4.019   9.245 -0.3808  1.6973 -1.0454
 7100SOL    HW223308   5.030   3.939   9.156  0.2655  1.0421  0.1902
 7101SOL     OW23309   4.312   3.964   0.665  0.4807  0.5915 -0.0165
 7101SOL    HW123310   4.391   3.914   0.645 -0.1673 -1.2506  1.7757
 7101SOL    HW223311   4.264   3.967   0.582 -0.1290 -3.1079  0.0190
 7102SOL     OW23312   2.732   1.959   4.751  0.2279 -0.4215  0.3031
 7102SOL    HW123313   2.670   2.031   4.742  1.0852  0.4386  1.0603
 7102SOL    HW223314   2.709   1.919   4.835 -0.8753 -1.6838 -0.5565
 7103SOL     OW23315   9.849   9.391   3.227  0.1815 -0.3264  0.2690
 7103SOL    HW123316   9.808   9.473   3.203  0.2633 -0.4354 -0.2552
 7103SOL    HW223317   9.785   9.347   3.283  0.6941  0.7033  1.7224
 7104SOL     OW23318   0.532   7.656   8.332 -0.0310  0.1027  0.3471
 7104SOL    HW123319   0.565   7.739   8.298  0.0459 -1.0466 -2.6827
 7104SOL    HW223320   0.456   7.636   8.278  0.1520 -1.9618  0.7619
 7105SOL     OW23321   8.817   1.486   9.924  0.2283 -0.4572 -0.3405
 7105SOL    HW123322   8.851   1.413   9.872 -1.2607 -0.9840 -0.6424
 7105SOL    HW223323   8.784   1.444  10.004  0.0854 -0.0014 -0.1577
 7106SOL     OW23324   9.815   9.514   1.545  0.0157 -0.4334 -0.4215
 7106SOL    HW123325   9.742   9.571   1.522 -0.5861 -0.7072  0.7657
 7106SOL    HW223326   9.872   9.569   1.599 -0.1679 -0.7208  0.0649
 7107SOL     OW23327   6.283   3.431   8.115  0.3065 -0.4130  1.0041
 7107SOL    HW123328   6.308   3.523   8.102  0.5952 -0.4759  1.1246
 7107SOL    HW223329   6.342   3.399   8.183  1.2934 -1.1504 -0.1489
 7108SOL     OW23330   7.675   9.662   2.808 -0.1701 -0.0762  0.1674
 7108SOL    HW123331   7.583   9.635   2.806  0.5178 -2.5880 -1.0137
 7108SOL    HW223332   7.678   9.740   2.752 -1.3537 -0.7584 -0.8959
 7109SOL     OW23333   4.108  10.200   9.959 -0.7163 -0.4236 -0.7039
 7109SOL    HW123334   4.080  10.283   9.922 -1.5208 -0.6278 -0.5756
 7109SOL    HW223335   4.137  10.148   9.884 -0.9695 -0.3147 -0.8774
 7110SOL     OW23336  11.025   9.436   1.406 -0.5983 -0.5494 -0.2286
 7110SOL    HW123337  11.012   9.352   1.451  1.5722 -1.2445 -0.7849
 7110SOL    HW223338  11.055   9.411   1.319  2.1733  0.7509  0.2626
 7111SOL     OW23339  11.037   3.653   7.422 -0.4947 -0.0288  0.0304
 7111SOL    HW123340  11.122   3.649   7.465 -1.1081 -0.2703  1.2562
 7111SOL    HW223341  11.055   3.695   7.337  1.2454 -2.2611 -0.7937
 7112SOL     OW23342   8.045   5.770   7.365  0.0428  0.4120  0.1524
 7112SOL    HW123343   8.130   5.814   7.367 -0.0162  0.5713 -0.5948
 7112SOL    HW223344   8.024   5.754   7.457  0.0602  1.9485  0.4384
 7113SOL     OW23345   0.593   1.912  10.478  0.2437 -0.8966 -0.5174
 7113SOL    HW123346   0.531   1.911  10.405  0.3404 -1.7024 -0.6054
 7113SOL    HW223347   0.553   1.853  10.543  0.8880 -1.3827 -0.5562
 7114SOL     OW23348   8.975   1.297   6.169 -0.6647  0.0469  0.3817
 7114SOL    HW123349   9.026   1.216   6.160 -0.8319  0.1169 -1.6262
 7114SOL    HW223350   8.998   1.330   6.255  1.1515 -0.9713  0.3374
 7115SOL     OW23351   7.507   9.606   7.860  0.3804  0.5003 -0.1923
 7115SOL    HW123352   7.431   9.580   7.806  0.7812  0.3458 -0.6922
 7115SOL    HW223353   7.516   9.700   7.845  1.4386  0.2012 -1.6525
 7116SOL     OW23354   8.148   3.980   0.630  0.3248 -0.0131 -0.4523
 7116SOL    HW123355   8.239   4.001   0.613  0.5894 -0.0912  0.8151
 7116SOL    HW223356   8.148   3.886   0.647  0.0552  0.0488 -0.1116
 7117SOL     OW23357   9.053   1.501   8.557 -0.1993 -0.7508 -0.2890
 7117SOL    HW123358   9.071   1.552   8.478 -1.5270 -0.8013 -0.6373
 7117SOL    HW223359   9.097   1.550   8.627 -1.6859  1.1052 -0.5482
 7118SOL     OW23360   7.946  10.086  10.329  0.3101 -0.2254  0.0262
 7118SOL    HW123361   7.995  10.004  10.332 -0.1933 -0.5362  2.9361
 7118SOL    HW223362   7.898  10.083  10.246  2.4853 -1.4891 -1.2828
 7119SOL     OW23363   8.676   2.649   5.960 -0.2350 -0.5446 -0.0768
 7119SOL    HW123364   8.628   2.708   5.901  0.4199  0.5610  0.4571
 7119SOL    HW223365   8.608   2.609   6.014 -0.8369 -1.4821 -1.4656
 7120SOL     OW23366   2.067   3.260  10.931 -0.1823 -0.0841  1.0574
 7120SOL    HW123367   2.020   3.229  10.854  1.6171 -2.1703  0.6831
 7120SOL    HW223368   2.111   3.339  10.902 -0.3667 -0.2610  0.2619
 7121SOL     OW23369   0.853  10.288   2.957 -0.0149 -0.4653 -0.1284
 7121SOL    HW123370   0.814  10.298   2.870  0.3431 -1.0797 -0.3732
 7121SOL    HW223371   0.925  10.227   2.943 -0.5399 -1.3161  0.7833
 7122SOL     OW23372   9.433   3.775  11.216  0.2977 -0.4613 -0.1606
 7122SOL    HW123373   9.419   3.728  11.134 -0.1203 -0.1750 -0.2547
 7122SOL    HW223374   9.422   3.709  11.284  0.6069 -0.6924 -0.3308
 7123SOL     OW23375   7.589  10.388   5.990  0.5592 -0.2459 -0.2997
 7123SOL    HW123376   7.548  10.315   6.037  1.1711 -0.9285 -0.7910
 7123SOL    HW223377   7.636  10.437   6.057 -0.0267 -0.1874  0.0701
 7124SOL     OW23378   8.689   9.218   8.214  0.0033  0.0488  0.1087
 7124SOL    HW123379   8.734   9.197   8.132 -1.0802 -0.6257 -0.3298
 7124SOL    HW223380   8.598   9.192   8.199 -0.2398  0.0349  1.4813
 7125SOL     OW23381  10.466   4.453   1.439  0.2957 -0.1281  0.6328
 7125SOL    HW123382  10.385   4.505   1.443 -0.4697 -1.2231  0.0247
 7125SOL    HW223383  10.475   4.431   1.346  0.3721 -1.4071  0.9245
 7126SOL     OW23384   7.796   5.991   6.526  0.2170  0.1920 -0.6297
 7126SOL    HW123385   7.887   5.961   6.525  0.3250  0.4131  1.0179
 7126SOL    HW223386   7.753   5.935   6.590 -0.0756  2.0731  0.9082
 7127SOL     OW23387  10.264   0.244   1.418 -0.1497 -0.1284 -0.1505
 7127SOL    HW123388  10.290   0.278   1.333  0.7669  0.5544  0.3799
 7127SOL    HW223389  10.339   0.261   1.475 -0.8876 -0.2270  0.8911
 7128SOL     OW23390   0.585   9.557   6.699 -0.3303 -0.3983 -0.2896
 7128SOL    HW123391   0.606   9.464   6.694 -1.5324 -0.7098  0.2634
 7128SOL    HW223392   0.535   9.575   6.619  0.1206 -0.1597 -0.5233
 7129SOL     OW23393  11.103  10.878   9.100  0.7867  0.0293  0.8346
 7129SOL    HW123394  11.021  10.917   9.132  0.4455  0.7654 -0.8116
 7129SOL    HW223395  11.167  10.899   9.168 -0.2484  0.0058  1.8549
 7130SOL     OW23396   7.518   7.022   2.071  0.1081 -0.1378  0.2221
 7130SOL    HW123397   7.582   7.077   2.026 -1.4679  2.3313  0.7388
 7130SOL    HW223398   7.503   7.067   2.154 -2.1465 -0.6574  0.1690
 7131SOL     OW23399   7.622   3.303   9.205  0.0335 -0.1606  0.3203
 7131SOL    HW123400   7.619   3.342   9.118 -1.5003 -2.6780 -0.8768
 7131SOL    HW223401   7.703   3.251   9.205 -0.3251 -0.7209  0.1257
 7132SOL     OW23402   1.059   0.346   1.028  0.0008 -0.4803  0.2107
 7132SOL    HW123403   1.044   0.252   1.042 -1.0358 -0.5824 -1.4100
 7132SOL    HW223404   0.988   0.374   0.971 -0.2760  1.5347  1.4409
 7133SOL     OW23405   0.125   0.158   4.397  0.0428  0.0162 -0.7234
 7133SOL    HW123406   0.135   0.245   4.357 -0.5666  0.4069 -0.0554
 7133SOL    HW223407   0.112   0.176   4.490 -2.3509 -0.6452 -0.8779
 7134SOL     OW23408   9.121   2.900   1.802  0.0362  0.3873  0.0126
 7134SOL    HW123409   9.049   2.886   1.741  1.6394  0.1875 -1.9223
 7134SOL    HW223410   9.107   2.988   1.836 -2.6474 -0.6321  1.9077
 7135SOL     OW23411   3.945   4.434   1.440  0.0419 -0.2631 -0.1357
 7135SOL    HW123412   3.987   4.500   1.385  0.0256 -0.8278 -0.8408
 7135SOL    HW223413   3.852   4.442   1.420 -0.0594  0.1205  0.4697
 7136SOL     OW23414   2.752   1.706   2.777 -0.0000 -0.2556  0.3089
 7136SOL    HW123415   2.838   1.681   2.744 -0.9267 -2.1205 -0.8129
 7136SOL    HW223416   2.771   1.773   2.843  2.5683 -2.6524  2.2599
 7137SOL     OW23417   2.972   1.475   8.110 -0.8269  0.2126 -0.8590
 7137SOL    HW123418   2.887   1.495   8.148 -1.5551 -1.1231 -1.7159
 7137SOL    HW223419   3.034   1.483   8.183 -1.5175  2.1211 -0.4292
 7138SOL     OW23420   2.771   1.845   8.891  0.3083  0.2146  0.3097
 7138SOL    HW123421   2.862   1.830   8.869  0.0705 -0.2277 -0.4129
 7138SOL    HW223422   2.761   1.812   8.980  0.2989 -2.0411 -0.4673
 7139SOL     OW23423   5.610   1.531   8.480 -0.0652 -0.0820 -0.1808
 7139SOL    HW123424   5.630   1.579   8.399 -0.9417  2.9757  1.2367
 7139SOL    HW223425   5.541   1.470   8.455 -0.8975  1.3701 -1.6412
 7140SOL     OW23426   2.996   3.660   6.562 -0.2729  0.3154  0.2584
 7140SOL    HW123427   2.970   3.567   6.560  1.2348 -0.1528  1.2414
 7140SOL    HW223428   2.985   3.686   6.653 -2.7767  1.7856 -0.3690
 7141SOL     OW23429   4.430   2.286   8.174 -0.2834  0.3509 -0.1808
 7141SOL    HW123430   4.469   2.216   8.122 -1.7504 -2.3422  2.0592
 7141SOL    HW223431   4.352   2.313   8.126 -0.7686 -0.9865 -0.1686
 7142SOL     OW23432  10.356   6.268   3.534  0.0819  0.2873 -0.0847
 7142SOL    HW123433  10.314   6.206   3.592 -1.4671  0.5873 -0.8362
 7142SOL    HW223434  10.446   6.274   3.566  0.0282 -1.6391  0.5514
 7143SOL     OW23435   1.008   7.557   0.362  0.0327  0.1934 -0.1568
 7143SOL    HW123436   1.073   7.487   0.359  0.9219  0.8774  1.7289
 7143SOL    HW223437   1.013   7.598   0.275  1.4861 -0.3190 -0.3470
 7144SOL     OW23438   4.189   4.625   4.208 -0.0450  0.1108  0.0330
 7144SOL    HW123439   4.218   4.615   4.117 -1.3952 -1.6204 -0.2639
 7144SOL    HW223440   4.187   4.719   4.222  1.7201  0.3742 -1.2135
 7145SOL     OW23441   2.294   6.585  11.139  0.2046  0.2046 -0.8159
 7145SOL    HW123442   2.385   6.556  11.147  0.4106  1.0708  0.1745
 7145SOL    HW223443   2.248   6.510  11.100  1.3281 -0.2473 -1.3051
 7146SOL     OW23444   6.491   5.398   2.682  0.7028  0.3074 -0.0930
 7146SOL    HW123445   6.455   5.414   2.769 -0.1563 -1.8860  0.0362
 7146SOL    HW223446   6.522   5.308   2.686  2.3398  0.7644 -1.5308
 7147SOL     OW23447   0.148   4.421   0.847 -0.1078  0.8041  0.1365
 7147SOL    HW123448   0.131   4.379   0.931 -3.2005 -0.0615 -0.7922
 7147SOL    HW223449   0.136   4.515   0.864 -0.4552  0.6603  0.6874
 7148SOL     OW23450   7.377   0.427   7.038 -0.5201  0.8937 -0.1916
 7148SOL    HW123451   7.391   0.489   6.967  0.0240 -0.4817 -1.3448
 7148SOL    HW223452   7.462   0.386   7.052 -1.0343 -0.1933 -0.0791
 7149SOL     OW23453   7.938   8.245   5.863 -1.4400  0.3464  0.1484
 7149SOL    HW123454   7.899   8.175   5.916 -1.4599  0.2258 -0.0227
 7149SOL    HW223455   7.971   8.200   5.785  1.5620 -0.0151  1.5065
 7150SOL     OW23456   9.955   3.364   3.443 -0.1923  0.0902  0.0504
 7150SOL    HW123457   9.865   3.396   3.439 -1.3576 -2.9435 -1.1288
 7150SOL    HW223458   9.980   3.352   3.351 -0.1739 -2.9086  0.3532
 7151SOL     OW23459   1.081   5.888   5.859  0.1523 -0.1756 -0.3639
 7151SOL    HW123460   1.087   5.983   5.862  0.6420 -0.1710 -1.2008
 7151SOL    HW223461   1.076   5.861   5.950  0.3893  0.6304 -0.1098
 7152SOL     OW23462   3.439   6.557   8.250 -0.1861  0.1778 -0.5993
 7152SOL    HW123463   3.508   6.592   8.306 -0.7899  1.0290 -0.3629
 7152SOL    HW223464   3.480   6.547   8.164  1.0477 -2.0914  0.1562
 7153SOL     OW23465  10.000   1.236   0.626  0.0055  0.0689  0.0906
 7153SOL    HW123466   9.918   1.260   0.582 -1.4187 -0.1170  2.4393
 7153SOL    HW223467  10.068   1.280   0.576 -1.4692 -0.0172 -2.1488
 7154SOL     OW23468   0.052   5.193   7.591  0.0683  0.4725  0.1148
 7154SOL    HW123469  -0.003   5.161   7.519 -1.5095  0.7893  1.1133
 7154SOL    HW223470   0.005   5.270   7.623  2.4477  2.3127 -0.5974
 7155SOL     OW23471   6.893   4.425   2.830 -0.1862 -0.2527 -0.0364
 7155SOL    HW123472   6.814   4.464   2.868  0.6527  0.6431  0.8563
 7155SOL    HW223473   6.861   4.349   2.782 -2.0985  2.2225 -3.0575
 7156SOL     OW23474   7.826   8.140   3.949  0.2142  0.5018  0.0606
 7156SOL    HW123475   7.887   8.204   3.912  1.2626 -0.1207  0.6706
 7156SOL    HW223476   7.818   8.165   4.041  0.4006 -0.0494  0.2312
 7157SOL     OW23477   3.976   4.850   0.115 -0.1150  0.4838  0.0606
 7157SOL    HW123478   4.008   4.776   0.062 -2.2540 -0.4288 -0.0496
 7157SOL    HW223479   4.056   4.894   0.143  1.3178 -2.2444  0.6722
 7158SOL     OW23480   7.164   0.848  11.237 -0.3864  0.4738  0.4199
 7158SOL    HW123481   7.103   0.778  11.259 -1.0714  1.7224  2.8577
 7158SOL    HW223482   7.121   0.928  11.267  1.6952  1.6109  0.5713
 7159SOL     OW23483   7.241   5.322   9.001  0.0213  0.0092  0.3956
 7159SOL    HW123484   7.254   5.391   8.937  0.8587 -1.4558 -1.0981
 7159SOL    HW223485   7.153   5.289   8.982  0.5884 -0.9957 -0.6570
 7160SOL     OW23486   8.167   5.080   6.428  0.0656  0.1184 -0.0341
 7160SOL    HW123487   8.225   5.039   6.492  1.6047  0.3683 -1.2222
 7160SOL    HW223488   8.141   5.008   6.370  0.3742  0.2674 -0.3615
 7161SOL     OW23489  10.995   8.333   9.753 -0.3132  0.3311 -0.0209
 7161SOL    HW123490  11.001   8.384   9.834 -0.8154  1.1595 -0.4920
 7161SOL    HW223491  11.037   8.389   9.687 -2.4982  0.9799 -0.9292
 7162SOL     OW23492   8.616   4.416   4.459  0.3636 -0.0339 -0.3897
 7162SOL    HW123493   8.678   4.358   4.414  1.3505 -0.0129  0.8930
 7162SOL    HW223494   8.671   4.482   4.501 -0.6044  0.5502 -0.0049
 7163SOL     OW23495   0.016   0.288   2.148 -0.3773 -0.0440  0.2400
 7163SOL    HW123496   0.021   0.338   2.066 -2.3714  1.6146  1.0483
 7163SOL    HW223497   0.104   0.295   2.185  0.2328  0.1939 -1.1751
 7164SOL     OW23498   7.106   7.823   0.778  0.2412  0.4569  0.7093
 7164SOL    HW123499   7.106   7.877   0.699 -1.4098 -0.0963  0.2882
 7164SOL    HW223500   7.139   7.738   0.749  0.4020  0.4852  0.8062
 7165SOL     OW23501   5.489   3.439   2.823 -0.0725  0.8038  0.4550
 7165SOL    HW123502   5.584   3.453   2.824 -0.0904  1.5251 -1.9298
 7165SOL    HW223503   5.454   3.516   2.779 -1.5583 -0.3730 -0.5195
 7166SOL     OW23504   6.923   9.411   9.830 -0.1793 -0.3805  0.4395
 7166SOL    HW123505   6.861   9.374   9.892 -1.0619  0.0727 -0.1469
 7166SOL    HW223506   6.875   9.483   9.789  0.8072  0.1018  0.1129
 7167SOL     OW23507   7.640   5.881   5.054 -0.2409  0.0336  0.1364
 7167SOL    HW123508   7.668   5.894   5.145 -0.5519  0.5407  0.1612
 7167SOL    HW223509   7.688   5.947   5.004 -1.3636  0.9110  0.1786
 7168SOL     OW23510   0.057   7.568   9.366 -0.0276 -0.0158  0.3997
 7168SOL    HW123511  -0.017   7.628   9.376 -0.7765 -1.0505  1.3776
 7168SOL    HW223512   0.038   7.497   9.428  2.2664  0.1379  1.3567
 7169SOL     OW23513   9.710   9.689   3.489 -0.1620 -0.0691 -0.0615
 7169SOL    HW123514   9.646   9.750   3.453 -0.2615  0.1689  0.5093
 7169SOL    HW223515   9.759   9.657   3.413  0.5270  1.4289 -0.2741
 7170SOL     OW23516   6.055   4.325   5.057  0.0735 -0.2577 -0.3762
 7170SOL    HW123517   6.065   4.230   5.051  0.7031 -0.1417 -1.3528
 7170SOL    HW223518   6.074   4.357   4.969 -0.0384  0.7862 -0.0355
 7171SOL     OW23519   3.972   8.360   7.388  0.2898 -0.0980  0.0534
 7171SOL    HW123520   4.060   8.322   7.381 -0.0911 -0.9793 -0.0122
 7171SOL    HW223521   3.925   8.326   7.312 -0.5682 -0.8560  0.9036
 7172SOL     OW23522   5.323   8.960   8.102 -0.0684  0.2391  0.3126
 7172SOL    HW123523   5.302   8.920   8.187 -0.8116 -0.7495 -0.3160
 7172SOL    HW223524   5.294   8.895   8.037 -1.6296  1.9379 -0.7683
 7173SOL     OW23525   7.456   5.600   6.447 -0.0801 -0.1320 -0.5273
 7173SOL    HW123526   7.487   5.510   6.437 -1.3748 -0.5988 -0.5468
 7173SOL    HW223527   7.438   5.610   6.540 -2.5579 -0.8499 -0.8519
 7174SOL     OW23528   7.999   3.082   2.193 -0.1773  0.2073 -0.0928
 7174SOL    HW123529   8.071   3.121   2.145  0.9095  1.4622  2.3872
 7174SOL    HW223530   7.978   3.146   2.261 -2.7835 -0.7047  0.0679
 7175SOL     OW23531   6.584   9.200   7.337 -0.7277  0.4319  0.5997
 7175SOL    HW123532   6.664   9.241   7.304 -0.0713 -1.4121 -0.2125
 7175SOL    HW223533   6.515   9.233   7.280  0.1371 -1.3480 -1.5946
 7176SOL     OW23534   0.572   1.439  10.596 -0.2354 -0.4791  0.0703
 7176SOL    HW123535   0.567   1.371  10.528  0.2145 -0.5664  0.1266
 7176SOL    HW223536   0.652   1.420  10.644 -0.1444  0.0488  0.1344
 7177SOL     OW23537   0.660   7.588   3.639  0.3757  0.2210 -0.1629
 7177SOL    HW123538   0.598   7.580   3.567 -0.2552 -1.8768  0.5424
 7177SOL    HW223539   0.746   7.586   3.597  0.0058  0.1832 -0.9392
 7178SOL     OW23540   4.122   1.522   8.919  0.0450  0.5309 -0.2477
 7178SOL    HW123541   4.205   1.479   8.903  1.1511  2.5320 -0.2976
 7178SOL    HW223542   4.088   1.482   9.000  2.2921  1.3236  1.1793
 7179SOL     OW23543   7.022   7.617   8.706  0.6640 -0.4628  0.0794
 7179SOL    HW123544   6.988   7.621   8.796  1.0667 -0.3578  0.2300
 7179SOL    HW223545   6.997   7.530   8.675  0.6351 -0.5493  0.3424
 7180SOL     OW23546  11.189   9.642   5.464 -0.4504 -0.5169 -0.1692
 7180SOL    HW123547  11.239   9.712   5.422 -0.2998  0.5650  1.6820
 7180SOL    HW223548  11.099   9.674   5.464 -0.3583 -0.1962  0.8168
 7181SOL     OW23549   4.533  10.154   1.796 -0.3018 -0.0686 -0.2733
 7181SOL    HW123550   4.518  10.123   1.886  1.1815 -0.7132 -0.2175
 7181SOL    HW223551   4.550  10.248   1.806  0.4615 -0.2495  0.2007
 7182SOL     OW23552  11.189   6.577   1.630 -0.4308 -0.2641 -0.0007
 7182SOL    HW123553  11.161   6.669   1.633 -1.8624 -0.6799  0.0216
 7182SOL    HW223554  11.167   6.548   1.542 -1.0626 -0.8948  0.3497
 7183SOL     OW23555   0.662   0.509   1.831 -0.0999  0.1491  0.0770
 7183SOL    HW123556   0.604   0.584   1.827 -0.0348  0.1328 -2.0782
 7183SOL    HW223557   0.638   0.464   1.912 -0.6255  2.0659  1.0306
 7184SOL     OW23558  10.078   2.355   4.631 -0.7294 -0.0388  0.4674
 7184SOL    HW123559  10.098   2.426   4.693 -1.5128  1.2685 -0.7234
 7184SOL    HW223560  10.060   2.279   4.687  1.2190  0.3684  1.7542
 7185SOL     OW23561   6.250  10.173  10.390  0.0387  0.3173 -0.2110
 7185SOL    HW123562   6.221  10.258  10.424 -3.0451 -0.4102 -0.7431
 7185SOL    HW223563   6.236  10.178  10.296  0.2819 -0.6272 -0.3120
 7186SOL     OW23564   1.211   9.212   2.832  0.7618 -0.2638  0.0756
 7186SOL    HW123565   1.206   9.281   2.766  1.9673  1.2000  1.4580
 7186SOL    HW223566   1.195   9.257   2.915 -1.5905 -2.1927  0.7971
 7187SOL     OW23567   3.301   2.472   7.418 -0.7653  0.5241  0.2469
 7187SOL    HW123568   3.253   2.553   7.403 -0.8708  0.4656  0.2714
 7187SOL    HW223569   3.351   2.489   7.498 -0.6498  0.6277  0.1538
 7188SOL     OW23570   2.597   0.707   9.225  0.1585  0.3353 -0.0498
 7188SOL    HW123571   2.581   0.617   9.197 -0.9086  0.2513  0.7828
 7188SOL    HW223572   2.652   0.699   9.303  1.3816  0.4916 -0.8604
 7189SOL     OW23573   0.854   8.882   6.749  0.3775  0.0488 -0.7751
 7189SOL    HW123574   0.913   8.865   6.676  0.3687  1.1034 -1.0430
 7189SOL    HW223575   0.874   8.972   6.775 -2.5631  1.2435 -2.2443
 7190SOL     OW23576   4.995   1.540   4.975 -0.6999  0.0008 -0.5208
 7190SOL    HW123577   5.029   1.474   5.036 -1.8080 -1.1414 -1.0922
 7190SOL    HW223578   4.989   1.494   4.891  0.7980  1.5411 -1.5541
 7191SOL     OW23579  10.978   5.426   7.151 -0.7602 -1.0002 -0.4284
 7191SOL    HW123580  10.924   5.505   7.165  0.2846 -0.4798  0.8765
 7191SOL    HW223581  10.915   5.354   7.147 -1.6927 -0.1783 -1.0445
 7192SOL     OW23582   8.268   6.551   6.928  0.6166  1.1150  0.0068
 7192SOL    HW123583   8.173   6.560   6.943  0.4307 -0.1947 -0.2611
 7192SOL    HW223584   8.280   6.458   6.910  2.2493  0.8571  2.1136
 7193SOL     OW23585   5.449   4.616   3.347  0.0358 -0.3944 -0.5407
 7193SOL    HW123586   5.453   4.691   3.289  1.5330  1.0252  1.2588
 7193SOL    HW223587   5.507   4.638   3.420  0.0079 -3.0132  0.4140
 7194SOL     OW23588   4.000   5.231   4.537  0.3704  0.3742 -0.0470
 7194SOL    HW123589   3.987   5.262   4.627  1.6560  0.9577 -0.0362
 7194SOL    HW223590   3.936   5.280   4.485 -0.2533  0.1722  0.5063
 7195SOL     OW23591   2.362   1.880   0.530 -0.2539  0.9107  0.6750
 7195SOL    HW123592   2.429   1.845   0.589 -0.5821  0.8139  0.9925
 7195SOL    HW223593   2.314   1.802   0.501 -1.8017  1.1763  2.3707
 7196SOL     OW23594   2.842   9.974   6.322  0.3510 -0.2223  0.3124
 7196SOL    HW123595   2.914  10.013   6.371 -0.5921 -2.2055  3.5473
 7196SOL    HW223596   2.764   9.998   6.371 -0.7139 -2.0460 -0.4164
 7197SOL     OW23597   4.927   1.160   3.736 -0.2528  0.5960 -0.0821
 7197SOL    HW123598   5.008   1.139   3.782  0.7778 -0.4872 -2.2984
 7197SOL    HW223599   4.948   1.237   3.684 -1.2719  1.5239  0.8276
 7198SOL     OW23600   6.352  10.483   9.995  0.2057  0.0677 -0.4183
 7198SOL    HW123601   6.350  10.579  10.003  0.7211  0.2666 -2.2426
 7198SOL    HW223602   6.349  10.467   9.901  3.2931 -1.6140 -0.3332
 7199SOL     OW23603   8.774   5.395   1.959  0.3902  0.1447 -0.2061
 7199SOL    HW123604   8.841   5.327   1.946 -0.5092 -0.5624 -1.2839
 7199SOL    HW223605   8.799   5.437   2.041  0.7574 -1.7427  0.7039
 7200SOL     OW23606   5.596   5.315   7.625 -0.8655 -0.0981 -0.0311
 7200SOL    HW123607   5.524   5.261   7.592 -1.9731  2.0172 -1.2986
 7200SOL    HW223608   5.659   5.319   7.553 -0.5012 -0.1826  0.2784
 7201SOL     OW23609   3.962   0.055   0.522  0.2164 -0.0837  0.0957
 7201SOL    HW123610   4.005   0.079   0.604  0.6100 -1.3348  0.2779
 7201SOL    HW223611   3.941   0.139   0.481  0.5423  0.5616  1.1908
 7202SOL     OW23612   5.623   8.873  10.326  0.1677 -0.1151  0.8480
 7202SOL    HW123613   5.710   8.907  10.307  0.9571 -1.1781  2.3874
 7202SOL    HW223614   5.634   8.778  10.327 -0.9074 -0.2511  1.4839
 7203SOL     OW23615   8.111   0.668   4.990 -0.1909  0.6861  0.2189
 7203SOL    HW123616   8.165   0.738   4.952  1.5165 -1.5364 -1.7325
 7203SOL    HW223617   8.094   0.697   5.080  0.8463  3.3325 -0.3389
 7204SOL     OW23618   7.581   5.013   1.285  0.9934  0.6498  0.2268
 7204SOL    HW123619   7.666   5.026   1.328  0.8099 -0.3537  0.9359
 7204SOL    HW223620   7.603   5.007   1.192  2.1394 -2.3205  0.5490
 7205SOL     OW23621   5.706   5.724   9.497 -0.0314  0.3603  0.1838
 7205SOL    HW123622   5.770   5.673   9.547  0.6306  0.8071 -0.1901
 7205SOL    HW223623   5.622   5.685   9.519  0.5022 -1.2011 -0.4564
 7206SOL     OW23624  10.167   3.866   2.772  0.4105  0.8141  0.2782
 7206SOL    HW123625  10.172   3.857   2.867 -1.9808 -1.1932  0.3165
 7206SOL    HW223626  10.212   3.788   2.739  2.9287  2.4322 -0.3937
 7207SOL     OW23627   4.414   5.784   9.277  0.0950  0.2154  0.6739
 7207SOL    HW123628   4.509   5.780   9.264  0.2633  0.4758  1.7301
 7207SOL    HW223629   4.399   5.733   9.357 -0.8045 -0.8156 -0.1268
 7208SOL     OW23630   7.930   7.456   7.140  0.2526  0.3497  0.8626
 7208SOL    HW123631   7.899   7.463   7.049 -0.7444  1.1422  1.2462
 7208SOL    HW223632   7.978   7.373   7.142  0.3000  0.3201 -0.3914
 7209SOL     OW23633  11.010   7.758   6.241 -0.5771  0.8708 -0.1578
 7209SOL    HW123634  10.983   7.714   6.322  0.9524 -1.6082 -0.8679
 7209SOL    HW223635  11.103   7.775   6.253 -0.2995  0.3276 -1.4402
 7210SOL     OW23636   1.341   0.678   9.819 -0.2828 -0.1412 -0.2392
 7210SOL    HW123637   1.314   0.726   9.740 -1.6716 -1.0238 -0.3344
 7210SOL    HW223638   1.403   0.613   9.788 -1.2469 -0.8528 -0.7157
 7211SOL     OW23639   6.755   4.042   6.545 -0.6269 -0.4630 -0.2369
 7211SOL    HW123640   6.777   3.956   6.509 -0.5189 -0.7781  0.5707
 7211SOL    HW223641   6.676   4.028   6.596 -0.5135 -0.1136  0.0413
 7212SOL     OW23642   3.603   0.204   9.654  0.2938 -0.0470  0.2741
 7212SOL    HW123643   3.601   0.112   9.629 -1.0340 -0.6046  2.2585
 7212SOL    HW223644   3.604   0.203   9.749 -2.1466  1.9892  0.4030
 7213SOL     OW23645   7.148   8.991   0.356 -0.1757 -0.3107 -0.6474
 7213SOL    HW123646   7.177   9.082   0.357  1.1731 -0.7133 -0.3350
 7213SOL    HW223647   7.068   8.990   0.408  0.2464  0.5601  0.0461
 7214SOL     OW23648   9.419   7.807   7.899 -0.6761  0.1589  0.5306
 7214SOL    HW123649   9.458   7.826   7.984  0.6192  0.5772 -0.1412
 7214SOL    HW223650   9.454   7.720   7.877  1.1998  1.1800 -0.7717
 7215SOL     OW23651   7.613   8.828  10.047  0.7332  0.1289 -0.1834
 7215SOL    HW123652   7.591   8.735  10.051 -0.2099  0.2917 -0.9638
 7215SOL    HW223653   7.565   8.860   9.970  0.4927  1.3950  0.4664
 7216SOL     OW23654   3.729   9.350   6.471  0.6493 -0.1484 -0.6012
 7216SOL    HW123655   3.797   9.284   6.455 -0.0290 -0.8487 -0.5961
 7216SOL    HW223656   3.678   9.352   6.390  0.2813 -0.0859 -0.3691
 7217SOL     OW23657   1.182   6.983   5.011 -0.3849  0.4198 -0.5379
 7217SOL    HW123658   1.207   6.901   4.968  1.6137  0.8052 -0.2102
 7217SOL    HW223659   1.197   6.966   5.104  0.7671  1.3652 -0.5276
 7218SOL     OW23660  10.652   8.824  11.155  0.4464 -0.3099 -0.7201
 7218SOL    HW123661  10.713   8.897  11.160  0.3606 -0.3303  1.3421
 7218SOL    HW223662  10.589   8.850  11.087  0.5486  1.4150 -0.1989
 7219SOL     OW23663   9.976   9.874   4.094  0.0698  0.1127  0.3746
 7219SOL    HW123664   9.934   9.827   4.166  1.2681 -1.0164  0.3743
 7219SOL    HW223665   9.907   9.930   4.059 -1.7340 -2.3090 -0.2107
 7220SOL     OW23666   4.156   7.483   9.603 -0.0849  0.1945  0.2233
 7220SOL    HW123667   4.065   7.506   9.624  0.5132  0.8611  2.3731
 7220SOL    HW223668   4.200   7.482   9.688  1.7242 -1.0555 -0.6839
 7221SOL     OW23669   5.801   0.879   2.109 -0.0173 -0.4639  0.4743
 7221SOL    HW123670   5.708   0.867   2.088 -0.0677  1.3577 -0.4762
 7221SOL    HW223671   5.820   0.810   2.173 -1.3406 -2.5681 -1.2612
 7222SOL     OW23672   1.887   5.302   9.647 -0.3292 -0.5361 -0.1311
 7222SOL    HW123673   1.814   5.363   9.657 -0.1202 -0.2712 -0.2219
 7222SOL    HW223674   1.927   5.297   9.734 -0.2275 -0.3920 -0.1689
 7223SOL     OW23675   1.044   7.319   8.184  0.0684  0.5890  0.2282
 7223SOL    HW123676   1.029   7.239   8.236  1.7991  0.4027  0.4808
 7223SOL    HW223677   0.991   7.306   8.105  0.0909 -0.6861  0.3947
 7224SOL     OW23678   8.168   2.365   9.056 -0.2385 -0.1632 -0.1384
 7224SOL    HW123679   8.144   2.333   8.969 -1.4720  1.4888 -0.4594
 7224SOL    HW223680   8.177   2.286   9.109 -2.2606 -1.1112 -1.0847
 7225SOL     OW23681   8.181   2.078   5.603  0.2367 -0.1995  0.5625
 7225SOL    HW123682   8.087   2.060   5.613 -0.1854  1.6736  0.3740
 7225SOL    HW223683   8.186   2.173   5.593  1.9851 -0.4353 -1.5138
 7226SOL     OW23684   8.783   7.303   9.695  0.3205  0.7361  0.6524
 7226SOL    HW123685   8.849   7.358   9.650  0.2745 -0.9467 -1.6667
 7226SOL    HW223686   8.699   7.343   9.671  0.3431  0.3817 -0.0632
 7227SOL     OW23687   4.343   0.078   5.954 -0.4100 -0.3346 -0.5775
 7227SOL    HW123688   4.293   0.086   5.872  0.8996 -0.8227 -1.4570
 7227SOL    HW223689   4.295   0.014   6.006 -0.9646 -0.4199 -1.1880
 7228SOL     OW23690   0.067   6.972  10.765 -0.0658 -0.3989 -0.1852
 7228SOL    HW123691   0.022   6.937  10.688  0.8252 -1.2367 -0.3470
 7228SOL    HW223692   0.137   6.909  10.783  1.1499  0.9280 -0.0494
 7229SOL     OW23693   9.584   8.894   9.497  0.8248  0.2103  0.4688
 7229SOL    HW123694   9.533   8.896   9.578 -0.0082  0.0243 -0.0416
 7229SOL    HW223695   9.580   8.802   9.468  0.7838  0.3542  0.0082
 7230SOL     OW23696   6.148   2.265   9.153  0.3899 -0.1169 -0.2403
 7230SOL    HW123697   6.082   2.264   9.083 -0.7202 -0.3921  0.7798
 7230SOL    HW223698   6.106   2.220   9.226  2.0421 -1.0647  0.1777
 7231SOL     OW23699   0.172   5.030  10.149  0.3488  0.5468  0.1410
 7231SOL    HW123700   0.134   5.117  10.140 -0.3924  0.2034 -0.0827
 7231SOL    HW223701   0.261   5.039  10.114  0.0006  1.0141 -0.6371
 7232SOL     OW23702  11.244   5.404   7.201  0.5943  0.2304  0.4199
 7232SOL    HW123703  11.148   5.400   7.201  0.6264 -1.0328 -0.4828
 7232SOL    HW223704  11.266   5.433   7.113  1.0389  1.0895  0.8056
 7233SOL     OW23705   3.776   8.585   6.780 -0.3442 -0.8270  0.2167
 7233SOL    HW123706   3.723   8.505   6.784 -1.9181 -0.2342 -3.9210
 7233SOL    HW223707   3.839   8.568   6.710  0.2596  1.0500  0.2625
 7234SOL     OW23708   0.339   0.925   6.464 -0.0373  0.0924  0.8487
 7234SOL    HW123709   0.280   0.938   6.538  0.0502 -0.6656  1.0669
 7234SOL    HW223710   0.290   0.956   6.388 -0.0515  1.0694  1.2415
 7235SOL     OW23711   6.996   6.702  10.884  0.1507 -0.0922  0.6325
 7235SOL    HW123712   7.001   6.698  10.788  3.0613 -2.0928  0.7634
 7235SOL    HW223713   6.943   6.626  10.908  3.2947 -2.4620  0.6568
 7236SOL     OW23714   1.345   2.113   8.591  0.6465  0.1366  0.3344
 7236SOL    HW123715   1.350   2.095   8.497 -0.0076 -0.4175  0.3941
 7236SOL    HW223716   1.429   2.084   8.625  1.1452  0.9499 -0.1666
 7237SOL     OW23717   2.203   7.132   1.602  0.3834 -0.0943  0.1603
 7237SOL    HW123718   2.168   7.062   1.546 -0.3636  0.2953  0.1236
 7237SOL    HW223719   2.261   7.182   1.545 -1.7414  1.3764 -0.8204
 7238SOL     OW23720   1.373   2.495   0.697 -0.2181 -0.2044  0.2282
 7238SOL    HW123721   1.429   2.481   0.621  1.1296 -0.3116  1.2009
 7238SOL    HW223722   1.285   2.474   0.667 -0.1509  2.3201 -2.0543
 7239SOL     OW23723   5.553   3.846   9.028  0.4922 -0.0843  0.8816
 7239SOL    HW123724   5.515   3.930   9.002  1.7380  1.4769  3.6321
 7239SOL    HW223725   5.565   3.798   8.946  1.8798  3.3535 -1.1411
 7240SOL     OW23726   5.087   9.048   3.127  0.0660  0.0718  0.6564
 7240SOL    HW123727   5.047   8.978   3.179  0.0828  1.5995  2.8723
 7240SOL    HW223728   5.028   9.123   3.139  0.6099  0.7687 -0.7879
 7241SOL     OW23729   1.072   2.740   4.888 -0.2307 -0.3218 -0.5586
 7241SOL    HW123730   0.990   2.704   4.923 -0.4384 -1.4952 -2.1387
 7241SOL    HW223731   1.131   2.665   4.884 -0.3882 -0.3862 -3.0961
 7242SOL     OW23732   6.981   1.944   3.289  0.1511  0.0533 -0.6574
 7242SOL    HW123733   6.998   1.926   3.197  0.9621  1.3570 -0.7768
 7242SOL    HW223734   7.055   1.905   3.335  0.4012  0.5146 -0.6674
 7243SOL     OW23735   4.850   5.959   5.779  0.0172 -0.5161  0.0646
 7243SOL    HW123736   4.920   5.980   5.840 -1.5014  2.8710  0.8907
 7243SOL    HW223737   4.849   6.032   5.718 -2.2457 -0.8499 -0.3827
 7244SOL     OW23738   1.727   4.635   6.638  0.0268 -0.1358  0.6390
 7244SOL    HW123739   1.655   4.659   6.580  0.8016  2.0879  0.4912
 7244SOL    HW223740   1.803   4.679   6.600  1.0164 -0.5682  2.0364
 7245SOL     OW23741  10.107  10.299   2.516  0.5137 -0.7796 -0.0442
 7245SOL    HW123742  10.116  10.328   2.425  0.8590 -1.2096 -0.1521
 7245SOL    HW223743  10.160  10.362   2.566 -2.0707  1.3153  0.2641
 7246SOL     OW23744   7.874  10.260   2.818  0.3949  0.1407  0.0212
 7246SOL    HW123745   7.921  10.303   2.890 -2.4806  1.3675  1.3268
 7246SOL    HW223746   7.845  10.176   2.856  1.7062 -0.7544 -0.8758
 7247SOL     OW23747   4.626  10.078  10.874 -0.1708  0.2670 -0.0770
 7247SOL    HW123748   4.583   9.993  10.883 -0.9377  0.7160  0.5364
 7247SOL    HW223749   4.554  10.140  10.861  0.3621  0.8788 -0.1379
 7248SOL     OW23750   6.865   1.867   1.746  0.2196 -1.0156  0.7941
 7248SOL    HW123751   6.904   1.782   1.765  1.4301 -0.2912  1.8240
 7248SOL    HW223752   6.853   1.869   1.651  0.0842 -2.3493  0.7724
 7249SOL     OW23753   7.372   2.769   9.796  0.3696  0.0043  0.1730
 7249SOL    HW123754   7.282   2.783   9.824  0.1556  0.5997 -0.7486
 7249SOL    HW223755   7.378   2.815   9.712  1.5061 -0.1051  0.1802
 7250SOL     OW23756   4.550  10.754   5.770  1.0051 -0.0180  0.3324
 7250SOL    HW123757   4.636  10.765   5.810 -0.2877 -0.4815  3.5826
 7250SOL    HW223758   4.513  10.677   5.814 -0.1996 -1.3407 -2.7156
 7251SOL     OW23759   8.148  11.161   8.708  0.4097  0.1241 -0.7027
 7251SOL    HW123760   8.076  11.119   8.756 -0.2294  1.6263 -0.2705
 7251SOL    HW223761   8.121  11.157   8.616 -0.1370  0.4712 -0.5666
 7252SOL     OW23762   8.628   7.069   7.361  1.1448  0.6733 -0.1125
 7252SOL    HW123763   8.545   7.061   7.408  0.0107 -1.2046 -2.2339
 7252SOL    HW223764   8.694   7.039   7.423 -0.2788 -1.7731  0.3275
 7253SOL     OW23765   6.781   4.494   8.874 -0.2167  0.1010  0.6966
 7253SOL    HW123766   6.817   4.543   8.800  1.1465 -0.0723  1.2153
 7253SOL    HW223767   6.856   4.478   8.931 -1.1183 -0.3558  1.7948
 7254SOL     OW23768   1.030   4.649  10.558  0.1297 -0.1937  0.0116
 7254SOL    HW123769   1.109   4.670  10.607 -0.0053 -0.5423  0.3866
 7254SOL    HW223770   1.059   4.637  10.468  0.8486 -2.3441  0.4730
 7255SOL     OW23771   9.068   4.517   3.227  0.5130 -0.5797  0.2334
 7255SOL    HW123772   9.090   4.428   3.202  0.3567 -0.4319 -0.4575
 7255SOL    HW223773   9.029   4.555   3.148 -1.1599 -0.4848  1.0430
 7256SOL     OW23774   4.519   1.120   0.338  0.5410 -0.2815  0.1682
 7256SOL    HW123775   4.503   1.039   0.386  2.3630 -0.4331  0.5988
 7256SOL    HW223776   4.574   1.172   0.397  2.1554 -0.1196 -1.3854
 7257SOL     OW23777   0.906  10.314   1.126  0.3967  0.4944  0.1256
 7257SOL    HW123778   0.857  10.395   1.114  0.9252  0.9201  0.7655
 7257SOL    HW223779   0.855  10.248   1.078 -2.1941  0.3763  2.7587
 7258SOL     OW23780   2.279   4.267   7.441 -0.2837 -0.0589 -0.4920
 7258SOL    HW123781   2.308   4.208   7.511  2.7373  2.2025  0.3620
 7258SOL    HW223782   2.306   4.223   7.360 -0.0451 -0.8226 -0.0062
 7259SOL     OW23783   6.259   1.639   4.871  0.4509  1.2467  0.3358
 7259SOL    HW123784   6.229   1.577   4.938  3.1949  2.2504  2.7174
 7259SOL    HW223785   6.318   1.587   4.816 -1.0613  0.6573 -0.8111
 7260SOL     OW23786   3.728   8.963  10.202 -0.3457  0.3607  0.1051
 7260SOL    HW123787   3.692   9.048  10.227  0.0533 -0.2656  3.2967
 7260SOL    HW223788   3.703   8.904  10.274  3.3512 -1.0905  0.4454
 7261SOL     OW23789   0.608  10.973   3.528 -0.1955 -0.2232 -0.0649
 7261SOL    HW123790   0.566  11.055   3.501 -0.1975  0.7273  2.5690
 7261SOL    HW223791   0.699  10.997   3.544 -0.2411 -0.6613  0.9330
 7262SOL     OW23792  10.297   2.465   2.665  0.4128 -0.5114 -0.3418
 7262SOL    HW123793  10.250   2.505   2.739  0.5688 -2.5772  0.9460
 7262SOL    HW223794  10.251   2.382   2.650  1.8960 -1.2486 -0.9520
 7263SOL     OW23795   7.117   8.235   4.499  0.1594  0.3245  0.1909
 7263SOL    HW123796   7.065   8.157   4.520 -0.9945  0.9056 -0.4659
 7263SOL    HW223797   7.140   8.224   4.407  1.4335 -0.0409  0.5286
 7264SOL     OW23798   4.612   1.234   3.957 -0.1258 -0.2232  0.1365
 7264SOL    HW123799   4.591   1.161   4.015 -0.2553 -0.3980 -0.1297
 7264SOL    HW223800   4.532   1.286   3.953  0.4496  0.8336  1.6196
 7265SOL     OW23801   5.773   3.693   5.968  0.1177 -1.3460 -0.7388
 7265SOL    HW123802   5.767   3.786   5.946  0.6790 -1.0116  0.4432
 7265SOL    HW223803   5.707   3.681   6.036 -1.4191 -2.2997 -2.3268
 7266SOL     OW23804   5.699   1.681   9.457  0.0715 -0.0321 -0.4778
 7266SOL    HW123805   5.612   1.676   9.415 -0.5482 -0.9843  0.8472
 7266SOL    HW223806   5.687   1.638   9.542  1.9981 -0.7323 -0.5099
 7267SOL     OW23807   5.677   0.812   7.816  0.0509 -0.8579  0.1149
 7267SOL    HW123808   5.705   0.787   7.728 -1.8092 -2.0476 -0.1858
 7267SOL    HW223809   5.689   0.907   7.818 -2.0534 -0.4099 -2.3216
 7268SOL     OW23810   5.381   8.086   4.155  0.2206  0.9861 -0.2650
 7268SOL    HW123811   5.391   8.061   4.063 -0.0648 -1.0057  0.1899
 7268SOL    HW223812   5.464   8.127   4.178  1.3501 -0.8967 -0.7444
 7269SOL     OW23813   7.348   0.541   9.984  0.0763 -0.4917  0.2452
 7269SOL    HW123814   7.262   0.530   9.945 -1.8529  0.5161  3.8211
 7269SOL    HW223815   7.378   0.626   9.952 -1.1746  0.0618  0.4984
 7270SOL     OW23816   4.145   9.281   1.551  0.6820  0.3523  0.0616
 7270SOL    HW123817   4.177   9.196   1.520 -1.5014  0.4935 -3.0126
 7270SOL    HW223818   4.052   9.265   1.571  0.4450  1.8308  0.2160
 7271SOL     OW23819   4.489   8.645   5.648 -0.9120 -0.4424 -1.0431
 7271SOL    HW123820   4.560   8.583   5.631 -1.8013 -1.5506 -0.8090
 7271SOL    HW223821   4.475   8.639   5.743 -1.8966 -0.8910 -1.2082
 7272SOL     OW23822   1.916  10.048   6.500 -0.1624 -0.0682 -0.4020
 7272SOL    HW123823   1.971  10.111   6.454  0.4913  0.3946  0.9874
 7272SOL    HW223824   1.975   9.977   6.524 -0.4862 -0.2731 -0.2044
 7273SOL     OW23825   4.189   5.750   9.797  0.0996 -0.5186  0.1979
 7273SOL    HW123826   4.180   5.729   9.890 -1.2751 -2.4165 -0.3243
 7273SOL    HW223827   4.161   5.842   9.791 -0.5318 -0.5957  1.5416
 7274SOL     OW23828   5.090   4.429   7.441 -0.4427  0.7772  0.4694
 7274SOL    HW123829   5.098   4.520   7.471  1.1335  1.6397 -2.2026
 7274SOL    HW223830   5.179   4.395   7.443 -0.8811 -0.4101  0.5632
 7275SOL     OW23831   2.840   6.435   4.737 -0.0283 -0.0167 -0.5211
 7275SOL    HW123832   2.927   6.409   4.768 -0.2513 -1.0316 -0.7239
 7275SOL    HW223833   2.857   6.477   4.652  0.1632 -1.4865 -1.2471
 7276SOL     OW23834   6.281   4.605   3.531  0.0355 -0.2984  0.2906
 7276SOL    HW123835   6.281   4.512   3.551 -2.2319 -0.4026 -0.0079
 7276SOL    HW223836   6.277   4.610   3.435  0.9235  0.1372  0.2600
 7277SOL     OW23837   2.779   7.135  10.342  0.7629 -0.5264 -0.2282
 7277SOL    HW123838   2.873   7.150  10.338  0.8525 -1.2228 -0.7354
 7277SOL    HW223839   2.743   7.191  10.273  0.8955 -0.9606 -0.6541
 7278SOL     OW23840   2.309  10.161   1.401 -0.0612 -0.4779 -0.1944
 7278SOL    HW123841   2.269  10.076   1.420 -0.3755 -0.4548 -0.7222
 7278SOL    HW223842   2.384  10.166   1.460  1.7318 -2.4141 -2.1143
 7279SOL     OW23843   3.760   9.175   1.921  0.0987 -0.1999  0.4153
 7279SOL    HW123844   3.789   9.088   1.948 -3.0607 -1.5596 -0.0052
 7279SOL    HW223845   3.675   9.186   1.965 -0.8748  1.4540 -1.6900
 7280SOL     OW23846   0.617   5.097   0.049  0.2038  0.1405  0.6168
 7280SOL    HW123847   0.651   5.008   0.059 -1.1572 -0.3346  1.3634
 7280SOL    HW223848   0.629   5.117  -0.044 -0.0204 -1.0624  0.3060
 7281SOL     OW23849   7.333   7.347   1.477  0.5525 -0.4142 -0.4078
 7281SOL    HW123850   7.390   7.334   1.402  0.8565 -0.6707 -0.1331
 7281SOL    HW223851   7.249   7.310   1.451  0.7299 -0.7374 -0.5269
 7282SOL     OW23852   6.491   4.132   6.608  0.1541  0.0484  0.2274
 7282SOL    HW123853   6.438   4.207   6.633  0.0285  0.2993 -0.7302
 7282SOL    HW223854   6.508   4.085   6.690 -2.5075 -0.6875  0.4522
 7283SOL     OW23855   1.233   7.664   4.149 -0.2483  0.9564 -0.4073
 7283SOL    HW123856   1.302   7.608   4.185  2.2329  1.9975 -3.1836
 7283SOL    HW223857   1.242   7.747   4.195  1.7718  1.7268 -2.0506
 7284SOL     OW23858   2.436   8.111   7.703  0.6669  0.1383 -0.0797
 7284SOL    HW123859   2.380   8.182   7.673  0.0383  0.9494  2.6979
 7284SOL    HW223860   2.376   8.042   7.730  1.0290  0.3301  1.3022
 7285SOL     OW23861   8.437   3.959   7.748 -0.0397 -0.1732 -0.1977
 7285SOL    HW123862   8.358   3.918   7.784 -0.4523  2.0116  1.5861
 7285SOL    HW223863   8.503   3.890   7.752 -1.3453 -1.4638  0.1547
 7286SOL     OW23864   2.230   5.965   8.721  0.0211 -0.5376  0.9038
 7286SOL    HW123865   2.162   5.899   8.732 -2.4857  1.8256  0.7461
 7286SOL    HW223866   2.278   5.936   8.643  0.2532 -3.0601  1.8801
 7287SOL     OW23867   0.626  10.054   2.872  0.1597 -0.3421 -0.8566
 7287SOL    HW123868   0.626  10.031   2.779  0.4985 -1.7239 -0.5331
 7287SOL    HW223869   0.712  10.028   2.904  0.3764  0.9315 -0.3268
 7288SOL     OW23870   6.775   8.038   3.449 -0.3331 -0.0857 -0.6737
 7288SOL    HW123871   6.750   8.108   3.510 -0.9271 -0.5164 -0.4156
 7288SOL    HW223872   6.709   7.970   3.462  0.8402 -1.1686 -0.1464
 7289SOL     OW23873   3.396   8.847   0.088  0.3714  0.3962  0.0420
 7289SOL    HW123874   3.378   8.918   0.150 -0.4078 -0.2983  0.6312
 7289SOL    HW223875   3.467   8.797   0.128 -0.0244  0.0405  0.3116
 7290SOL     OW23876  10.151   8.556   2.578  0.3735  0.2774 -0.4050
 7290SOL    HW123877  10.174   8.550   2.485  0.8916 -0.6225 -0.2273
 7290SOL    HW223878  10.235   8.567   2.623  0.3225 -1.3116  0.1135
 7291SOL     OW23879   9.656   9.391  10.748  0.1723 -0.1316  0.4950
 7291SOL    HW123880   9.599   9.315  10.737 -0.4173  0.3627  0.0907
 7291SOL    HW223881   9.604   9.453  10.799  0.9804 -0.3350  1.6167
 7292SOL     OW23882   1.703   8.532   6.037 -0.3574 -0.3066 -0.4524
 7292SOL    HW123883   1.725   8.521   6.130 -1.8271  0.0995 -0.0168
 7292SOL    HW223884   1.781   8.503   5.990  1.3116  1.6252  0.9386
 7293SOL     OW23885   1.866   8.382   3.494 -0.2761  0.2214  0.1360
 7293SOL    HW123886   1.827   8.468   3.488 -0.5438  0.2032  1.3536
 7293SOL    HW223887   1.912   8.382   3.578 -0.4405 -0.8809  0.2478
 7294SOL     OW23888   9.698   2.105   3.448  0.1660 -0.5101  0.2254
 7294SOL    HW123889   9.652   2.031   3.488  0.9822 -2.0309 -1.4882
 7294SOL    HW223890   9.778   2.067   3.413  1.2711  1.4820  0.4735
 7295SOL     OW23891   9.175   7.531   6.647 -0.1893 -0.2106 -0.2482
 7295SOL    HW123892   9.079   7.533   6.644 -0.2912 -1.3755  1.0683
 7295SOL    HW223893   9.201   7.622   6.640 -1.3779  0.1097 -0.8461
 7296SOL     OW23894   0.865   6.213   7.875 -0.6244 -0.4451  0.3866
 7296SOL    HW123895   0.798   6.146   7.886 -0.4032 -0.4439  2.0784
 7296SOL    HW223896   0.836   6.286   7.931  0.4769 -0.2188  0.7072
 7297SOL     OW23897   8.210   0.401   2.372  0.0634 -0.0052  0.0879
 7297SOL    HW123898   8.303   0.398   2.352  0.0296 -1.2426  0.0802
 7297SOL    HW223899   8.206   0.420   2.466  0.3147  0.3645  0.0235
 7298SOL     OW23900   4.499   0.238   4.528  0.1962 -0.2210 -0.4175
 7298SOL    HW123901   4.472   0.148   4.513  0.7367 -0.1767 -1.8743
 7298SOL    HW223902   4.419   0.290   4.514  0.4259 -0.2882 -2.2759
 7299SOL     OW23903   1.411   2.683  10.497  0.6291  0.3278  0.7478
 7299SOL    HW123904   1.459   2.716  10.421  0.4508  0.2468  0.5967
 7299SOL    HW223905   1.348   2.621  10.459  0.3659  0.4790  0.9345
 7300SOL     OW23906   3.533   1.807   7.634 -0.1371  0.8813 -0.1167
 7300SOL    HW123907   3.511   1.825   7.543 -0.5097  2.1637  0.2110
 7300SOL    HW223908   3.566   1.891   7.668  1.9632 -0.0792  0.3741
 7301SOL     OW23909   7.784   5.271   3.084  0.0807  0.2879  0.0921
 7301SOL    HW123910   7.738   5.229   3.011  1.2708 -0.7889 -0.0659
 7301SOL    HW223911   7.779   5.207   3.155  1.2047  0.2140  0.1111
 7302SOL     OW23912   1.116   9.838   3.630 -0.3047  0.2760 -0.1803
 7302SOL    HW123913   1.090   9.910   3.687  2.5146  0.9660  0.3932
 7302SOL    HW223914   1.212   9.844   3.626 -0.2184 -1.3995 -2.8552
 7303SOL     OW23915   2.814   8.825   3.316 -0.1429 -0.5826  0.2391
 7303SOL    HW123916   2.850   8.910   3.339 -0.1239  0.3324 -2.7362
 7303SOL    HW223917   2.891   8.771   3.296 -0.2096 -0.4458 -0.4255
 7304SOL     OW23918   0.386   8.265   1.655  0.0068  0.1873 -0.1232
 7304SOL    HW123919   0.462   8.226   1.697  0.2667 -0.0982 -0.8432
 7304SOL    HW223920   0.420   8.340   1.607 -0.3822  0.8885  0.6611
 7305SOL     OW23921   7.468   7.762   3.535 -0.0184 -0.2645  0.3637
 7305SOL    HW123922   7.448   7.668   3.537  2.0584 -0.7554  0.1860
 7305SOL    HW223923   7.523   7.776   3.612 -2.1260  1.3316  1.6877
 7306SOL     OW23924  10.624   3.598   4.984  0.4438  0.6152 -0.1327
 7306SOL    HW123925  10.640   3.551   4.903  1.0850  0.0384  0.3208
 7306SOL    HW223926  10.708   3.638   5.006  0.5330 -0.0176  0.7320
 7307SOL     OW23927   8.091   7.281   8.511  0.4075 -0.6902  0.3192
 7307SOL    HW123928   8.011   7.229   8.501 -0.3395  0.2154  1.3086
 7307SOL    HW223929   8.076   7.332   8.590  3.6116 -3.4118  2.9855
 7308SOL     OW23930  10.237   9.977   5.211  0.4569 -0.3880  0.0078
 7308SOL    HW123931  10.201   9.889   5.224  0.4621 -0.2588  1.0213
 7308SOL    HW223932  10.169  10.036   5.244  1.2557 -0.1091  1.2526
 7309SOL     OW23933   3.532   4.256   3.276 -0.6706  0.2230 -0.3318
 7309SOL    HW123934   3.519   4.301   3.359 -1.6329 -1.0620  0.2415
 7309SOL    HW223935   3.452   4.272   3.226 -1.7992 -2.1699  0.5541
 7310SOL     OW23936   5.929   0.672   2.298  0.0453  0.0570  0.6589
 7310SOL    HW123937   5.899   0.582   2.293  2.1024 -0.6491 -0.0198
 7310SOL    HW223938   5.958   0.683   2.388 -1.2605  0.4355  1.0524
 7311SOL     OW23939  11.218   1.906   2.021  0.7676 -0.3247  1.0126
 7311SOL    HW123940  11.269   1.826   2.035  1.1382 -0.1471  0.6654
 7311SOL    HW223941  11.159   1.884   1.949 -0.1490 -0.7616  1.8587
 7312SOL     OW23942   2.430   1.639   2.872 -0.0776 -0.2624 -0.2978
 7312SOL    HW123943   2.476   1.722   2.884  1.6203 -1.0914 -0.7654
 7312SOL    HW223944   2.344   1.664   2.837  0.5313  1.2811 -0.7818
 7313SOL     OW23945   4.449   5.546   6.040 -0.1936  0.0638  0.1829
 7313SOL    HW123946   4.437   5.618   5.979 -1.6558 -1.4707 -1.4452
 7313SOL    HW223947   4.421   5.582   6.125  0.3792  1.7684 -0.3129
 7314SOL     OW23948  11.272   6.595   8.490 -0.1235  0.6433  0.1106
 7314SOL    HW123949  11.265   6.589   8.585  1.5815 -1.9405  0.1922
 7314SOL    HW223950  11.204   6.656   8.464 -1.9006 -0.0236  2.8191
 7315SOL     OW23951   4.337   7.136  11.278  0.7280  0.0743 -0.3540
 7315SOL    HW123952   4.319   7.225  11.248  0.0371  0.2012  0.4054
 7315SOL    HW223953   4.387   7.096  11.207 -2.1031 -0.1486 -2.3850
 7316SOL     OW23954  10.605   0.239  10.718  0.3057  0.2109 -0.0492
 7316SOL    HW123955  10.674   0.172  10.721 -0.7066 -0.8810 -0.1848
 7316SOL    HW223956  10.525   0.189  10.706 -0.4975  1.4710 -0.0660
 7317SOL     OW23957   2.644   4.650  11.163  0.6219 -0.0360  0.6891
 7317SOL    HW123958   2.556   4.628  11.194  0.7918  0.2180  1.3620
 7317SOL    HW223959   2.702   4.594  11.213  0.7729 -1.3155 -0.8358
 7318SOL     OW23960   4.459   1.206   3.153  0.4585  0.4807  0.1277
 7318SOL    HW123961   4.534   1.171   3.107  0.3445  0.9917 -0.4605
 7318SOL    HW223962   4.490   1.289   3.191  1.0474 -0.6989  2.4221
 7319SOL     OW23963   8.320   2.207   4.637  0.1909 -0.5666  0.3111
 7319SOL    HW123964   8.302   2.113   4.634  0.0115 -0.5532  0.7931
 7319SOL    HW223965   8.390   2.221   4.573 -1.2698 -0.6860 -1.4066
 7320SOL     OW23966   0.993  10.064   1.291 -0.8109  0.6259 -0.4721
 7320SOL    HW123967   1.059  10.031   1.229 -0.8684 -0.3396 -0.0464
 7320SOL    HW223968   0.960  10.144   1.250  0.3325  0.9163 -0.8919
 7321SOL     OW23969   8.178  10.202   9.119  0.1789  0.1555 -0.2341
 7321SOL    HW123970   8.113  10.237   9.057  0.4956  0.8351 -0.1976
 7321SOL    HW223971   8.219  10.129   9.072 -1.0429 -0.7013 -0.0126
 7322SOL     OW23972   5.043   4.179   5.616 -0.0355  0.2407  0.1692
 7322SOL    HW123973   5.115   4.239   5.598  0.6257 -0.2834  0.9470
 7322SOL    HW223974   5.033   4.182   5.711  1.0523 -1.9835  0.4209
 7323SOL     OW23975   6.005   0.134   7.621 -0.3223  0.3375 -0.0787
 7323SOL    HW123976   6.024   0.184   7.541 -1.3769  1.4964  0.3561
 7323SOL    HW223977   5.957   0.057   7.590  1.7106 -0.7461 -0.8058
 7324SOL     OW23978   5.212   8.259   2.138 -0.2373 -0.5071 -0.3236
 7324SOL    HW123979   5.235   8.321   2.207 -2.7411  0.0604  0.0927
 7324SOL    HW223980   5.246   8.175   2.168 -0.8023 -0.1643  1.3800
 7325SOL     OW23981   2.582   6.051   3.129  0.1379  0.3393 -0.2237
 7325SOL    HW123982   2.574   5.964   3.167 -2.3002  0.5662 -0.0165
 7325SOL    HW223983   2.669   6.081   3.153  0.7919 -1.7726  0.2360
 7326SOL     OW23984   4.743   8.944   0.493 -0.4596 -0.3385  0.3616
 7326SOL    HW123985   4.783   8.891   0.424 -0.8591 -0.1730 -0.0015
 7326SOL    HW223986   4.810   9.008   0.517 -0.6835  0.2936 -0.6303
 7327SOL     OW23987   8.002   3.176   3.322 -0.2371 -0.6423  0.0768
 7327SOL    HW123988   8.024   3.091   3.361 -1.3979 -0.9944  0.0274
 7327SOL    HW223989   8.079   3.200   3.271  1.1594 -0.3957  2.1500
 7328SOL     OW23990   4.413   3.286   5.845  0.0944 -0.1756 -0.3817
 7328SOL    HW123991   4.452   3.237   5.773  1.3188  0.1581  0.0242
 7328SOL    HW223992   4.415   3.377   5.816  0.7450 -0.0201  0.1276
 7329SOL     OW23993   8.327   2.696   6.438  0.1614  0.3259 -0.8586
 7329SOL    HW123994   8.249   2.709   6.384  1.2727  0.4054 -2.5514
 7329SOL    HW223995   8.307   2.619   6.491 -0.7167 -0.2478 -1.9662
 7330SOL     OW23996   7.222   7.844  11.254 -0.2903 -0.0614  0.2545
 7330SOL    HW123997   7.286   7.812  11.190  1.3396  1.1229  1.2122
 7330SOL    HW223998   7.182   7.765  11.290 -0.4983 -0.7748 -1.4508
 7331SOL     OW23999   7.481  10.952   0.360 -0.1951 -0.3161  0.1531
 7331SOL    HW124000   7.475  10.970   0.454 -3.2036  0.6934 -0.1282
 7331SOL    HW224001   7.412  10.888   0.344 -0.3127  0.1874 -1.5066
 7332SOL     OW24002   2.796   5.806   2.917  0.3963  0.0325 -0.0928
 7332SOL    HW124003   2.757   5.818   3.004  1.7437  2.2515  0.2756
 7332SOL    HW224004   2.846   5.725   2.925 -3.2033 -2.4853 -0.3456
 7333SOL     OW24005   9.942   0.504   2.601  0.7245 -0.5192 -0.0307
 7333SOL    HW124006   9.863   0.471   2.559  1.1080 -0.3011 -0.9397
 7333SOL    HW224007   9.970   0.577   2.546  0.1113  1.1205  1.7035
 7334SOL     OW24008   8.796   7.371   4.458 -0.3826  0.6874  0.4031
 7334SOL    HW124009   8.731   7.325   4.512 -0.9041  0.4498 -0.4204
 7334SOL    HW224010   8.745   7.439   4.413 -0.1298  0.2521 -0.5412
 7335SOL     OW24011   8.985   3.894   5.974  0.7825 -0.7872 -0.1575
 7335SOL    HW124012   8.989   3.799   5.969  0.8611 -0.7423 -0.9519
 7335SOL    HW224013   9.064   3.924   5.929  0.4900 -0.3313 -0.3715
 7336SOL     OW24014   1.583   1.962   7.006  0.0652  0.1459 -0.4072
 7336SOL    HW124015   1.601   1.869   7.023 -0.4967  0.3345  1.3930
 7336SOL    HW224016   1.640   1.984   6.933  0.5751 -1.4919 -0.5494
 7337SOL     OW24017   3.530   1.856  10.486  0.2832  0.2043  0.7431
 7337SOL    HW124018   3.596   1.808  10.536  0.8700  2.3955  2.2325
 7337SOL    HW224019   3.450   1.806  10.498  1.4892 -2.2208 -0.6484
 7338SOL     OW24020   5.960   9.806   5.576 -0.1883 -0.1494  0.0953
 7338SOL    HW124021   5.910   9.880   5.543  0.0942 -0.1475 -0.3393
 7338SOL    HW224022   5.987   9.759   5.497 -0.1691 -0.5850  0.3588
 7339SOL     OW24023  10.763   9.705   2.189  0.1641 -0.0486  0.2460
 7339SOL    HW124024  10.700   9.701   2.117  0.1327  0.8986  0.1997
 7339SOL    HW224025  10.823   9.775   2.164  1.7958 -1.5119 -0.1397
 7340SOL     OW24026   0.272   3.652   4.618 -0.5503 -0.4940  0.3043
 7340SOL    HW124027   0.203   3.595   4.652 -0.9673 -1.3793 -1.8573
 7340SOL    HW224028   0.318   3.598   4.554 -0.4395  1.3230 -1.2365
 7341SOL     OW24029   3.926   8.802   9.198  0.0502  0.2252  0.0978
 7341SOL    HW124030   3.875   8.730   9.162  0.4241  0.2908 -0.5772
 7341SOL    HW224031   3.961   8.768   9.281 -0.1039 -0.2239 -0.0187
 7342SOL     OW24032   4.236   4.512   8.603  0.3193 -0.1378 -0.0839
 7342SOL    HW124033   4.241   4.422   8.635  2.1989 -0.2502 -0.5910
 7342SOL    HW224034   4.162   4.550   8.650 -0.6832 -2.0058 -0.0492
 7343SOL     OW24035   0.182   4.887  10.366 -0.3835 -0.1943 -0.0563
 7343SOL    HW124036   0.164   4.796  10.343 -0.8927  0.1545 -1.1592
 7343SOL    HW224037   0.165   4.935  10.285  1.3511  0.7158  0.0822
 7344SOL     OW24038   9.559   7.446   1.312  0.7052 -0.2717 -0.7344
 7344SOL    HW124039   9.561   7.467   1.406  2.9826 -1.0750 -0.5510
 7344SOL    HW224040   9.544   7.530   1.269  1.1788  0.3602  0.2959
 7345SOL     OW24041  10.997   7.867   1.108 -0.0908  0.0504 -0.0443
 7345SOL    HW124042  10.961   7.831   1.026 -0.2169 -0.2677  0.1498
 7345SOL    HW224043  11.070   7.921   1.080  0.4424 -0.7821 -0.3088
 7346SOL     OW24044   2.412  10.506   4.759  0.1691 -0.4320 -0.3992
 7346SOL    HW124045   2.346  10.529   4.694  0.9336 -0.2720 -1.1323
 7346SOL    HW224046   2.424  10.587   4.810  0.1447 -0.3212 -0.5679
 7347SOL     OW24047   7.842   5.139   2.086 -0.2646 -0.4300 -0.7087
 7347SOL    HW124048   7.763   5.145   2.141 -1.4171 -6.1040 -1.0842
 7347SOL    HW224049   7.914   5.139   2.149 -0.9888 -0.3425  0.1558
 7348SOL     OW24050   2.452   0.345  11.266 -0.0213  0.4970  0.0089
 7348SOL    HW124051   2.477   0.411  11.201  0.2734  1.3604  0.9707
 7348SOL    HW224052   2.534   0.300  11.287  0.1632  1.2012  0.8406
 7349SOL     OW24053   2.046   9.901  11.272  0.4448 -0.2312  0.4618
 7349SOL    HW124054   2.009   9.825  11.317  0.3972  0.6500  1.9911
 7349SOL    HW224055   2.029   9.885  11.179 -2.7953 -0.4057  0.9748
 7350SOL     OW24056   2.207   2.344   2.681  0.3994  0.5240  0.1432
 7350SOL    HW124057   2.116   2.359   2.655  0.5994 -0.3139 -1.1257
 7350SOL    HW224058   2.257   2.362   2.602  1.3102  0.5176  0.7057
 7351SOL     OW24059  10.002   1.064   0.845  0.1317 -0.3610 -0.7463
 7351SOL    HW124060  10.003   1.123   0.769  0.4840  0.8445  0.1538
 7351SOL    HW224061   9.944   1.107   0.908 -0.1258 -1.3215 -0.3059
 7352SOL     OW24062   2.820   3.474   5.539  0.8529 -0.2176  0.3071
 7352SOL    HW124063   2.813   3.504   5.449 -0.7393 -1.4953 -0.0443
 7352SOL    HW224064   2.793   3.549   5.592 -2.0833 -0.5759 -0.4998
 7353SOL     OW24065   8.927   6.885   0.765 -0.0056 -0.0536 -0.0933
 7353SOL    HW124066   9.007   6.832   0.772 -1.6735 -2.7113  0.3146
 7353SOL    HW224067   8.924   6.911   0.673 -0.3336 -2.9020 -0.9948
 7354SOL     OW24068   0.058  10.898  10.955 -0.5339 -0.6015  0.2178
 7354SOL    HW124069   0.136  10.846  10.935 -0.6488 -0.6668 -0.0679
 7354SOL    HW224070   0.077  10.939  11.039  0.7553  1.2074 -0.8951
 7355SOL     OW24071   9.451   6.472   9.832  0.2465  0.1658  0.4244
 7355SOL    HW124072   9.451   6.478   9.927 -0.8616  0.5999  0.4083
 7355SOL    HW224073   9.509   6.542   9.804 -2.3687  2.6025  0.6940
 7356SOL     OW24074   8.195   5.656   5.696  0.2044 -0.0137 -0.1136
 7356SOL    HW124075   8.124   5.597   5.721 -0.5472  0.7641 -0.3328
 7356SOL    HW224076   8.152   5.721   5.639  1.4940 -0.7484 -2.0344
 7357SOL     OW24077   8.700   4.769   0.354  0.5851  0.2261  0.3251
 7357SOL    HW124078   8.672   4.744   0.442 -2.2137 -0.8066 -0.7348
 7357SOL    HW224079   8.769   4.706   0.332 -1.7047 -2.4668  0.2451
 7358SOL     OW24080   7.968   1.588   5.025  0.5057 -0.4073  0.5027
 7358SOL    HW124081   7.945   1.640   5.102  1.8859  0.5813  0.2991
 7358SOL    HW224082   7.897   1.604   4.963  0.7773  1.0999  0.5374
 7359SOL     OW24083   0.438   4.577   3.903  0.1317  0.2481  0.4091
 7359SOL    HW124084   0.418   4.576   3.809  1.9178  0.6488 -0.0140
 7359SOL    HW224085   0.409   4.662   3.933  1.9121  1.1922 -0.3874
 7360SOL     OW24086   8.318   8.718   6.015  0.3158  0.0660 -0.1381
 7360SOL    HW124087   8.330   8.709   5.920  0.9689  0.7002 -0.1292
 7360SOL    HW224088   8.406   8.723   6.050  0.0707  0.6762  0.4151
 7361SOL     OW24089  10.060   6.127   9.448 -0.2400 -0.1579  0.4733
 7361SOL    HW124090  10.097   6.174   9.523  0.3814  0.9264 -0.4647
 7361SOL    HW224091   9.966   6.143   9.452 -0.3041 -0.7186  1.4111
 7362SOL     OW24092   7.666   0.499  10.702 -0.3281  0.1787 -0.9143
 7362SOL    HW124093   7.590   0.476  10.755  0.2618 -0.7754 -0.4768
 7362SOL    HW224094   7.708   0.571  10.750 -0.1891 -0.2101 -0.4513
 7363SOL     OW24095   5.606  10.218   6.109 -0.2339 -0.1885  0.3204
 7363SOL    HW124096   5.575  10.128   6.108 -2.4850  0.4865  1.8192
 7363SOL    HW224097   5.696  10.212   6.143 -0.3470 -1.8557  0.3937
 7364SOL     OW24098   4.948   8.973   3.925  0.4441 -0.2498 -0.4676
 7364SOL    HW124099   5.011   9.015   3.867 -1.6783  0.3346 -2.5172
 7364SOL    HW224100   4.975   8.881   3.928  1.6095  0.0567 -0.9290
 7365SOL     OW24101   9.857   7.294   8.919  0.5605  0.1325  0.3297
 7365SOL    HW124102   9.815   7.366   8.872 -1.9383 -1.5379 -0.1897
 7365SOL    HW224103   9.892   7.238   8.850 -2.3826 -1.8991  0.3434
 7366SOL     OW24104   2.236   0.581   8.641  0.6329  0.1194  0.1164
 7366SOL    HW124105   2.170   0.651   8.638  0.1002 -0.0940  3.1402
 7366SOL    HW224106   2.247   0.555   8.550 -0.1873  3.1570 -0.9931
 7367SOL     OW24107   8.190   1.220   3.693 -0.2779  0.0334 -0.2487
 7367SOL    HW124108   8.225   1.209   3.605  0.9871  1.0197  0.0901
 7367SOL    HW224109   8.213   1.139   3.738  0.9748  0.3488 -0.2611
 7368SOL     OW24110   4.082   1.609   1.494 -0.1908 -0.5798 -0.0047
 7368SOL    HW124111   3.991   1.635   1.480 -0.0354  0.3081  0.5718
 7368SOL    HW224112   4.132   1.659   1.431  0.3115  2.0725  2.3025
 7369SOL     OW24113   9.340   1.444   3.560 -0.0365 -0.4388  0.1328
 7369SOL    HW124114   9.351   1.352   3.582 -0.3809 -1.1381 -2.2548
 7369SOL    HW224115   9.348   1.447   3.464  0.7917  2.1419  0.1846
 7370SOL     OW24116  11.123   9.248   2.198 -0.5108 -0.1492 -0.5060
 7370SOL    HW124117  11.218   9.259   2.195 -0.5016 -0.2357 -0.5626
 7370SOL    HW224118  11.097   9.248   2.106 -0.8535  2.2315 -0.4616
 7371SOL     OW24119   5.223   7.918   8.654  0.1473 -0.2771  0.4584
 7371SOL    HW124120   5.287   7.920   8.725 -1.1777  1.3095  1.6934
 7371SOL    HW224121   5.222   7.827   8.625  0.6478 -1.0031  2.5742
 7372SOL     OW24122   7.685   3.633   1.328  0.0140 -0.3095 -0.0772
 7372SOL    HW124123   7.754   3.680   1.375 -1.2132  2.1095 -0.5565
 7372SOL    HW224124   7.719   3.544   1.318  1.0325 -0.5691  3.9270
 7373SOL     OW24125   4.456  10.389   3.748  0.5910 -0.8628 -0.3042
 7373SOL    HW124126   4.383  10.338   3.713 -2.2502  2.6935 -0.1592
 7373SOL    HW224127   4.520  10.389   3.677 -1.0837 -1.2942 -1.9241
 7374SOL     OW24128   9.815  10.767   7.390  0.4608 -0.0807 -0.6227
 7374SOL    HW124129   9.725  10.782   7.362 -0.1111 -2.3854 -0.1687
 7374SOL    HW224130   9.867  10.826   7.334 -1.4401  3.8995  1.3419
 7375SOL     OW24131   1.242   2.683   1.929 -0.2133  0.3210 -0.0319
 7375SOL    HW124132   1.232   2.720   2.017  0.5950  0.0332  0.1941
 7375SOL    HW224133   1.269   2.592   1.945 -2.9937 -0.7008 -0.5535
 7376SOL     OW24134   0.571   4.711   1.784  0.3638  0.0777 -0.6070
 7376SOL    HW124135   0.616   4.628   1.769 -1.0460 -0.9828  0.6957
 7376SOL    HW224136   0.493   4.687   1.835  0.3051  2.2969  0.4661
 7377SOL     OW24137   6.234   9.860   1.926  1.0983 -0.1071  0.0116
 7377SOL    HW124138   6.240   9.815   1.842 -1.2658 -2.3297  0.8989
 7377SOL    HW224139   6.145   9.896   1.928  0.6167 -1.2252  1.9900
 7378SOL     OW24140   6.630  10.737   7.122 -0.6928  0.1646  0.8624
 7378SOL    HW124141   6.634  10.699   7.034 -0.5871  1.9269  0.0544
 7378SOL    HW224142   6.644  10.663   7.181  0.2378 -0.9043 -0.6294
 7379SOL     OW24143   1.526  10.202   5.229 -0.8837  0.0422 -0.3574
 7379SOL    HW124144   1.466  10.263   5.187 -0.9520  0.3317  0.1503
 7379SOL    HW224145   1.526  10.125   5.172 -1.4405  0.1898 -0.5634
 7380SOL     OW24146   2.010   3.000   3.497 -0.2904  1.1913 -0.2884
 7380SOL    HW124147   2.096   2.984   3.536 -0.3759  0.7900 -0.2648
 7380SOL    HW224148   2.015   3.090   3.465 -0.5514  1.9042  1.5579
 7381SOL     OW24149   8.344   1.080   5.130  0.1926 -0.2737 -0.5478
 7381SOL    HW124150   8.361   0.992   5.164 -1.0888 -1.4712 -2.7924
 7381SOL    HW224151   8.315   1.129   5.206  1.3997 -1.6245  0.8661
 7382SOL     OW24152   7.177   6.005  10.428  0.3545 -0.2551  0.2402
 7382SOL    HW124153   7.173   5.910  10.426  0.1471 -0.3117  1.7960
 7382SOL    HW224154   7.253   6.027  10.374 -0.9458 -1.1270 -2.1006
 7383SOL     OW24155   3.566   9.773   6.147 -1.3742 -0.5401  0.2690
 7383SOL    HW124156   3.499   9.796   6.212 -3.5604  0.1692 -2.0504
 7383SOL    HW224157   3.566   9.847   6.086  0.9127 -0.9738 -0.3418
 7384SOL     OW24158  10.178   6.077   7.557 -0.3989  0.1007  0.4349
 7384SOL    HW124159  10.095   6.122   7.571 -0.7214 -0.4195  0.2160
 7384SOL    HW224160  10.154   5.991   7.524  0.0782 -1.1295  3.0448
 7385SOL     OW24161   2.611   5.560   0.132  0.0377  0.3651 -0.9602
 7385SOL    HW124162   2.523   5.562   0.170 -0.1392  1.3525 -1.3928
 7385SOL    HW224163   2.660   5.499   0.187 -0.2830  1.5351  0.6866
 7386SOL     OW24164   9.192   6.293   7.737  0.3802  0.5959 -0.2680
 7386SOL    HW124165   9.148   6.222   7.691 -0.3680  0.5290  0.5167
 7386SOL    HW224166   9.169   6.372   7.688  0.8049  0.3556 -0.8554
 7387SOL     OW24167   9.417   5.467   9.858  0.9669 -0.5913 -0.4162
 7387SOL    HW124168   9.333   5.511   9.868  0.7567 -0.5286 -2.1999
 7387SOL    HW224169   9.478   5.536   9.833  1.1373 -0.9225 -0.9349
 7388SOL     OW24170   7.154   9.544   5.942  0.7741 -0.2871  0.2853
 7388SOL    HW124171   7.241   9.576   5.966  1.4421 -0.9269 -1.1621
 7388SOL    HW224172   7.152   9.548   5.846 -1.8478  2.3404  0.3094
 7389SOL     OW24173   1.765   0.936   6.419  0.2011  0.0332 -0.3902
 7389SOL    HW124174   1.774   0.955   6.512  1.2013  0.9403 -0.6462
 7389SOL    HW224175   1.833   0.871   6.401  1.1169  1.0516 -0.7755
 7390SOL     OW24176   6.891  11.172   8.547  0.3947 -0.3978  0.6096
 7390SOL    HW124177   6.912  11.256   8.588  0.7720 -0.3586  0.3317
 7390SOL    HW224178   6.839  11.195   8.470 -0.7025 -0.4933  1.2941
 7391SOL     OW24179  10.475   6.544   6.747 -0.0359  0.6979  0.8341
 7391SOL    HW124180  10.450   6.618   6.691  0.1989  0.5119  0.4765
 7391SOL    HW224181  10.418   6.472   6.719  1.5861 -0.0542 -0.7593
 7392SOL     OW24182   4.359   8.244   2.559  0.4168  0.2558  0.5566
 7392SOL    HW124183   4.333   8.285   2.476  0.4761  0.8755  0.8366
 7392SOL    HW224184   4.455   8.248   2.559  0.4094  3.5498  2.2145
 7393SOL     OW24185   7.230   8.016   5.457  0.6943  0.5538  0.0503
 7393SOL    HW124186   7.279   7.991   5.535 -0.3685 -0.7503  0.3345
 7393SOL    HW224187   7.239   7.941   5.399  2.6865  2.0431 -1.7640
 7394SOL     OW24188  10.361   6.682   1.105 -0.4742 -0.6149  0.2733
 7394SOL    HW124189  10.297   6.700   1.037  0.1640  1.3157  0.1202
 7394SOL    HW224190  10.338   6.742   1.176  0.8707 -0.1617  0.3685
 7395SOL     OW24191   8.170   4.274   3.860 -0.1837 -0.4418 -0.5737
 7395SOL    HW124192   8.141   4.256   3.771 -1.9801 -0.5457 -0.0010
 7395SOL    HW224193   8.211   4.360   3.855  1.5640 -1.2733 -1.8488
 7396SOL     OW24194   8.458   3.310   3.811 -0.0949 -0.1603 -0.3923
 7396SOL    HW124195   8.390   3.303   3.877  0.2413  0.6863  0.0558
 7396SOL    HW224196   8.437   3.391   3.763  1.3216  0.8706  0.6303
 7397SOL     OW24197   6.865   1.357   4.525  0.2663  0.5047 -0.7010
 7397SOL    HW124198   6.890   1.381   4.435  3.0703 -0.0567 -0.1854
 7397SOL    HW224199   6.899   1.429   4.578  0.2368 -0.0262  0.0442
 7398SOL     OW24200   7.359   2.633   1.726 -0.1431 -0.2587  0.8591
 7398SOL    HW124201   7.313   2.680   1.657  0.4696 -1.1964 -0.2206
 7398SOL    HW224202   7.437   2.597   1.683 -0.3353 -1.8301  1.7491
 7399SOL     OW24203  10.712  10.098   6.787 -0.3683 -0.0407 -0.1301
 7399SOL    HW124204  10.771  10.089   6.862  0.8544  0.5881 -0.9792
 7399SOL    HW224205  10.644  10.159   6.817  0.4052  0.6225  0.2918
 7400SOL     OW24206  10.790   3.504   1.046  0.0703 -0.5634 -0.2157
 7400SOL    HW124207  10.736   3.425   1.054 -0.2473 -0.2883  0.3520
 7400SOL    HW224208  10.750   3.567   1.105 -0.7330  0.6215 -1.9541
 7401SOL     OW24209   0.957   9.659  10.820  0.4526 -0.3246 -0.4486
 7401SOL    HW124210   0.981   9.685  10.732  2.0713  0.0155  0.0536
 7401SOL    HW224211   1.034   9.612  10.853 -0.6356 -1.6783  0.3131
 7402SOL     OW24212   0.479   1.784   3.835 -0.5580 -0.6875 -0.6036
 7402SOL    HW124213   0.464   1.857   3.896  0.9810  0.0321 -1.0308
 7402SOL    HW224214   0.420   1.802   3.762 -0.1653  0.1831 -0.7224
 7403SOL     OW24215   7.732   7.578   7.574 -0.4491 -0.5340 -0.2943
 7403SOL    HW124216   7.704   7.637   7.504  0.8146  0.3959 -0.0339
 7403SOL    HW224217   7.819   7.608   7.598  0.1392 -2.3579  0.0153
 7404SOL     OW24218   8.805  10.175   4.045 -0.6116 -0.2307  0.0814
 7404SOL    HW124219   8.817  10.209   4.134 -1.3963 -0.5538  0.3254
 7404SOL    HW224220   8.744  10.236   4.004 -2.0536 -1.2779  0.5326
 7405SOL     OW24221   1.657  10.170   2.856  0.1051 -0.6885 -0.7781
 7405SOL    HW124222   1.661  10.137   2.766 -1.0009 -2.1482 -0.3234
 7405SOL    HW224223   1.729  10.126   2.901  0.5355 -0.1056 -0.8756
 7406SOL     OW24224  10.496  10.364   9.015  0.3164  0.6515  0.4278
 7406SOL    HW124225  10.433  10.320   8.959 -1.1435  0.3992  2.1911
 7406SOL    HW224226  10.554  10.409   8.954  1.6517 -3.2195 -1.5133
 7407SOL     OW24227   8.099   3.109   7.098  0.4363 -0.7146  0.1983
 7407SOL    HW124228   8.104   3.138   7.189 -2.5128 -1.8555  0.8373
 7407SOL    HW224229   8.031   3.164   7.059  0.1525 -1.6701 -0.7117
 7408SOL     OW24230  10.042   6.480   7.235  0.0743  0.0081 -0.8779
 7408SOL    HW124231  10.110   6.420   7.266 -1.1792 -2.0509 -1.9187
 7408SOL    HW224232  10.015   6.529   7.313  1.8267 -0.0337 -0.2021
 7409SOL     OW24233  10.079   5.877  10.296  0.1016 -0.0660  0.7631
 7409SOL    HW124234  10.171   5.903  10.292 -0.0549  0.3657 -1.7877
 7409SOL    HW224235  10.031   5.959  10.287 -0.4756 -0.5436 -0.7556
 7410SOL     OW24236   4.345   6.963   2.987 -0.0318  0.5013  0.3674
 7410SOL    HW124237   4.282   6.944   3.057  1.5082 -0.1175  1.6503
 7410SOL    HW224238   4.316   7.047   2.952 -0.9188  0.7817  1.6730
 7411SOL     OW24239   8.313   1.077   8.202 -0.0852  0.2258 -0.7846
 7411SOL    HW124240   8.246   1.103   8.139  1.6874  1.7590 -2.1327
 7411SOL    HW224241   8.307   1.142   8.272  0.9471  1.2761 -1.6439
 7412SOL     OW24242   9.298   3.122   8.424  0.4442 -0.2442  0.2666
 7412SOL    HW124243   9.229   3.161   8.371  0.8380 -2.8449 -2.4068
 7412SOL    HW224244   9.332   3.195   8.476 -1.4656  2.0147 -1.4305
 7413SOL     OW24245   9.992   7.508   4.778 -0.2760  0.4599 -0.2919
 7413SOL    HW124246  10.016   7.548   4.694 -0.1043  0.8607 -0.0588
 7413SOL    HW224247   9.975   7.583   4.835 -1.5316  0.1967 -0.2853
 7414SOL     OW24248   3.265   7.819   5.300 -0.4038  0.3393  0.4053
 7414SOL    HW124249   3.345   7.823   5.352  0.4729 -2.1637 -0.5910
 7414SOL    HW224250   3.274   7.889   5.235  0.2545  1.0323  1.2253
 7415SOL     OW24251  11.167   1.011   4.784  0.6739 -0.0253  0.4960
 7415SOL    HW124252  11.208   1.004   4.870  0.5042 -1.0010  0.5116
 7415SOL    HW224253  11.180   1.102   4.758  0.6672  0.2991  1.5835
 7416SOL     OW24254   9.491   2.740   0.274  0.1806  0.3803 -0.2617
 7416SOL    HW124255   9.483   2.753   0.369  0.7329  1.7163 -0.3663
 7416SOL    HW224256   9.560   2.675   0.265 -0.7772 -0.7500  0.2642
 7417SOL     OW24257   3.500   4.640   1.114  0.3736 -0.0543  0.1323
 7417SOL    HW124258   3.594   4.650   1.125  0.8118 -0.7731 -2.3812
 7417SOL    HW224259   3.462   4.715   1.161  2.0818 -0.3700  2.1288
 7418SOL     OW24260   3.411   5.637   3.008  0.3236  0.0315  0.5376
 7418SOL    HW124261   3.429   5.581   2.933  0.0726 -1.1934  1.3698
 7418SOL    HW224262   3.475   5.708   3.000 -1.2953  1.3427 -2.1952
 7419SOL     OW24263  10.751   9.284   9.520  0.0214  0.8256 -0.1690
 7419SOL    HW124264  10.830   9.230   9.522 -1.2553 -1.1062  1.7634
 7419SOL    HW224265  10.776   9.365   9.564  0.8845  0.1692  0.5765
 7420SOL     OW24266   3.733   4.179   2.148 -0.5133  0.2904  0.0154
 7420SOL    HW124267   3.703   4.113   2.086 -0.1738  0.6848 -0.5855
 7420SOL    HW224268   3.654   4.205   2.196 -1.2505  1.5305 -1.7366
 7421SOL     OW24269   4.085   9.167   8.644 -0.5430 -0.0256 -0.0748
 7421SOL    HW124270   4.172   9.128   8.635 -0.8950 -0.9382  0.3252
 7421SOL    HW224271   4.089   9.218   8.724  0.8861  3.4726 -2.1659
 7422SOL     OW24272   2.988   4.080   4.032  0.5502  0.0685 -0.4188
 7422SOL    HW124273   3.001   4.028   4.111 -0.1125 -0.9987 -0.9725
 7422SOL    HW224274   2.960   4.166   4.063  3.0658  0.6080  0.5783
 7423SOL     OW24275   7.115   8.788   7.958 -0.0442 -0.0666 -0.4083
 7423SOL    HW124276   7.132   8.717   7.895 -0.1983  1.0972 -1.8245
 7423SOL    HW224277   7.195   8.840   7.958 -0.7344  1.0359 -1.1459
 7424SOL     OW24278   1.223   0.781  10.831 -0.2489  0.4775 -1.0212
 7424SOL    HW124279   1.318   0.774  10.821  0.0653  0.4344  1.3866
 7424SOL    HW224280   1.201   0.718  10.900 -2.0164  0.5646 -1.4576
 7425SOL     OW24281   1.618   7.686   5.975  0.1939  0.5917  0.8239
 7425SOL    HW124282   1.643   7.653   6.061 -0.9293  3.1351  2.2474
 7425SOL    HW224283   1.671   7.635   5.913  3.0948  0.4955  3.1551
 7426SOL     OW24284  10.198   7.140   2.484 -0.2438  0.1384  0.5333
 7426SOL    HW124285  10.190   7.233   2.505 -0.2373  0.0067  1.1286
 7426SOL    HW224286  10.152   7.130   2.401 -0.1120  0.7008  0.3885
 7427SOL     OW24287   4.733   3.788   9.880 -0.1552  0.3916  0.4551
 7427SOL    HW124288   4.753   3.860   9.820 -1.7990  0.1035 -0.4734
 7427SOL    HW224289   4.816   3.741   9.889  0.4021  1.1115 -0.6834
 7428SOL     OW24290  11.031   1.620   3.617  0.8827 -0.2133 -0.0427
 7428SOL    HW124291  11.023   1.669   3.535 -1.2483  0.1015  0.3011
 7428SOL    HW224292  11.036   1.529   3.589  3.4960  0.0189 -0.6189
 7429SOL     OW24293   5.869   1.140   2.094  0.0245 -0.6270  0.2720
 7429SOL    HW124294   5.831   1.184   2.170  1.2469  0.0823  0.5009
 7429SOL    HW224295   5.866   1.047   2.115  1.7529 -0.3744  1.9121
 7430SOL     OW24296   4.353   6.135   0.169 -0.0949 -0.2184 -0.9240
 7430SOL    HW124297   4.336   6.229   0.179  0.5149 -0.2857  1.4006
 7430SOL    HW224298   4.278   6.092   0.211  1.6172 -0.6158  2.0377
 7431SOL     OW24299   7.618   8.539   2.663 -0.3204  0.0044  0.2429
 7431SOL    HW124300   7.591   8.490   2.586  0.4592 -0.3217  0.1617
 7431SOL    HW224301   7.589   8.485   2.737 -0.8250  0.1821  0.1772
 7432SOL     OW24302  10.814   6.108   0.551 -0.1383  0.2290 -0.6504
 7432SOL    HW124303  10.853   6.181   0.503  0.3480  0.5536  0.2065
 7432SOL    HW224304  10.857   6.030   0.515 -0.5005  0.3799 -1.4191
 7433SOL     OW24305   8.354   0.981   7.387 -0.5125  0.1906 -0.6738
 7433SOL    HW124306   8.387   0.902   7.430  0.1576  1.6182  1.6200
 7433SOL    HW224307   8.262   0.986   7.412 -0.6567 -0.0470 -1.1421
 7434SOL     OW24308   0.408   5.129   2.104  0.2525  0.3234 -0.1469
 7434SOL    HW124309   0.333   5.187   2.118  1.1823  1.6521 -0.4985
 7434SOL    HW224310   0.484   5.187   2.106  1.4310 -1.1655  1.6250
 7435SOL     OW24311   0.300   6.944   0.519 -0.3778 -0.1737 -0.3715
 7435SOL    HW124312   0.206   6.934   0.503 -0.2968 -1.0579 -0.3174
 7435SOL    HW224313   0.330   7.000   0.447 -0.5557 -1.7200 -1.7203
 7436SOL     OW24314   5.650   3.417   2.101  0.1263 -0.4187 -0.5819
 7436SOL    HW124315   5.662   3.404   2.007  0.1310  0.7698 -0.7647
 7436SOL    HW224316   5.723   3.474   2.127  1.2178 -2.2252  0.5332
 7437SOL     OW24317   8.492   0.138   5.815 -0.1098  0.4408 -0.0051
 7437SOL    HW124318   8.543   0.210   5.779 -0.0806 -0.2901 -1.5079
 7437SOL    HW224319   8.557   0.079   5.853 -0.0384  0.6733  0.2325
 7438SOL     OW24320   2.651  10.500   7.817  0.2428  0.0395  0.2786
 7438SOL    HW124321   2.649  10.404   7.818 -1.3336  0.0580  1.3547
 7438SOL    HW224322   2.731  10.522   7.865  0.7157 -0.7153 -0.1258
 7439SOL     OW24323  11.199   5.795   6.832  0.1803  0.1219 -0.1721
 7439SOL    HW124324  11.233   5.874   6.873 -0.0948  1.1762 -1.8792
 7439SOL    HW224325  11.245   5.790   6.748 -0.1584 -1.2781 -0.3119
 7440SOL     OW24326   0.770   3.118   7.429 -0.2908  0.0102 -0.2985
 7440SOL    HW124327   0.857   3.080   7.441 -0.6865 -0.9404 -0.3729
 7440SOL    HW224328   0.724   3.056   7.373 -0.2135  1.7473 -2.4182
 7441SOL     OW24329   7.899   1.396   5.362 -0.0021  0.4332  0.3263
 7441SOL    HW124330   7.894   1.424   5.271 -0.9597  0.9395  0.5207
 7441SOL    HW224331   7.976   1.441   5.397 -1.0599  2.2839  0.4194
 7442SOL     OW24332   1.797   0.090   7.292 -0.5248  0.3390 -0.2496
 7442SOL    HW124333   1.744   0.034   7.234  1.1951  0.5989 -2.1608
 7442SOL    HW224334   1.885   0.053   7.287 -0.0539  1.1965  1.1759
 7443SOL     OW24335  10.541   1.602   2.095  0.3860  0.0030  0.6419
 7443SOL    HW124336  10.586   1.531   2.141  0.1725 -0.4202  0.2097
 7443SOL    HW224337  10.469   1.627   2.154  0.3962 -0.2132  0.7474
 7444SOL     OW24338   1.989  10.567   1.841 -1.0690  0.2277  0.0826
 7444SOL    HW124339   1.917  10.567   1.904 -1.1035  0.3678  0.0431
 7444SOL    HW224340   2.066  10.544   1.892 -1.2369 -0.5230  0.0196
 7445SOL     OW24341   3.649  10.083   0.987 -0.2608  0.3206 -0.6247
 7445SOL    HW124342   3.719  10.018   0.976  1.6965  2.2643 -0.3669
 7445SOL    HW224343   3.602  10.083   0.904  1.4905  0.5338 -1.6559
 7446SOL     OW24344  10.122   6.822   5.913 -0.1242 -0.5387  0.2085
 7446SOL    HW124345  10.062   6.754   5.883 -2.5911  1.5893  0.0398
 7446SOL    HW224346  10.117   6.818   6.008 -1.6492  0.4867  0.2015
 7447SOL     OW24347   5.352  10.976   8.625  0.3775 -0.6106 -0.1712
 7447SOL    HW124348   5.386  11.055   8.667 -0.9428 -0.1859  0.1749
 7447SOL    HW224349   5.316  10.924   8.697 -1.9541  0.1447 -0.6734
 7448SOL     OW24350   4.392   1.309   1.657  0.6419  0.2844 -0.8342
 7448SOL    HW124351   4.436   1.229   1.687  0.9094  0.7323  0.0155
 7448SOL    HW224352   4.448   1.343   1.587  1.4867  0.6566 -0.0048
 7449SOL     OW24353   0.526   1.022   8.299 -0.1456 -0.5430  0.1882
 7449SOL    HW124354   0.480   1.097   8.259 -0.9906 -1.8210 -1.3544
 7449SOL    HW224355   0.467   0.991   8.367 -0.0291 -0.1323  0.4800
 7450SOL     OW24356   6.986   9.338   4.016  0.4869  0.0271  0.3272
 7450SOL    HW124357   7.037   9.380   4.085 -0.4192 -1.3325  1.8766
 7450SOL    HW224358   7.041   9.266   3.985 -0.1306 -0.9598  1.4606
 7451SOL     OW24359  11.041   6.803   1.563 -0.4229 -0.0952  0.3375
 7451SOL    HW124360  10.957   6.768   1.594 -1.3547  0.1253 -1.7539
 7451SOL    HW224361  11.016   6.874   1.503  1.2405 -0.4646 -0.8421
 7452SOL     OW24362  10.585   1.236   0.425 -0.0611  0.7600 -0.1018
 7452SOL    HW124363  10.541   1.284   0.495 -1.4342  1.0169 -1.1056
 7452SOL    HW224364  10.609   1.303   0.361 -1.8766  0.1861 -1.4568
 7453SOL     OW24365   3.953   6.285   1.412 -0.3330  0.1821 -0.0366
 7453SOL    HW124366   3.925   6.377   1.404 -1.3077 -0.0919  0.0907
 7453SOL    HW224367   3.874   6.235   1.392 -0.9825 -0.6254  3.8838
 7454SOL     OW24368   2.787  10.288   9.437 -0.4259  0.1403  0.3931
 7454SOL    HW124369   2.769  10.343   9.360 -0.6092  0.1137  0.4170
 7454SOL    HW224370   2.840  10.344   9.494 -1.4930  0.6668  0.8922
 7455SOL     OW24371   9.052   9.880   5.447  0.5614  0.5874 -0.4337
 7455SOL    HW124372   9.007   9.795   5.445 -0.7560  1.1879  1.4591
 7455SOL    HW224373   9.073   9.897   5.355  0.1179 -1.3893 -0.9572
 7456SOL     OW24374   2.262   7.214   0.738  0.3174 -0.2615  0.6096
 7456SOL    HW124375   2.275   7.227   0.832  0.0262  1.3040  0.4580
 7456SOL    HW224376   2.318   7.140   0.717  1.7687  0.4675  1.7008
 7457SOL     OW24377   9.066   8.619   0.230 -0.1179 -0.1857  0.5191
 7457SOL    HW124378   9.024   8.644   0.147  1.2406  0.5249  0.0022
 7457SOL    HW224379   9.041   8.528   0.242  0.9780 -0.8417 -1.5801
 7458SOL     OW24380   7.816   9.907   9.576  0.9430  0.3075  0.0969
 7458SOL    HW124381   7.898   9.954   9.589  0.8193  0.0265  2.2575
 7458SOL    HW224382   7.753   9.950   9.634 -0.0192 -0.4980 -0.3076
 7459SOL     OW24383   7.689   7.830   7.426 -0.0410  0.4188 -0.6775
 7459SOL    HW124384   7.723   7.769   7.360  0.0429 -0.7292  0.4036
 7459SOL    HW224385   7.736   7.912   7.408  2.0154 -0.6348 -0.3438
 7460SOL     OW24386   3.698   3.077   1.071  0.3610 -1.0157 -0.6325
 7460SOL    HW124387   3.720   3.020   0.997 -0.1774 -0.6171 -1.1111
 7460SOL    HW224388   3.627   3.132   1.038 -0.8231 -1.7324  0.6067
 7461SOL     OW24389   8.854   0.538   5.009 -0.0868  0.1689 -0.1869
 7461SOL    HW124390   8.940   0.501   4.988 -0.0682 -0.3174  0.7012
 7461SOL    HW224391   8.864   0.632   4.995  0.4276  0.0597 -0.6107
 7462SOL     OW24392   9.601   7.023   6.847 -0.3270  0.4583 -0.1750
 7462SOL    HW124393   9.522   6.972   6.826 -0.0019 -0.1507  0.0624
 7462SOL    HW224394   9.589   7.105   6.800 -0.2267 -0.3701 -1.7381
 7463SOL     OW24395   9.096   0.312   9.452 -0.0877 -0.2398  0.2214
 7463SOL    HW124396   9.136   0.376   9.510  0.4464 -1.5203  1.3135
 7463SOL    HW224397   9.060   0.246   9.510 -0.8291 -0.8245 -0.8684
 7464SOL     OW24398   7.509   2.980   9.613 -0.1989 -0.5612  1.4039
 7464SOL    HW124399   7.470   3.066   9.596  2.8795  0.7106  0.1300
 7464SOL    HW224400   7.571   2.995   9.684 -0.0112 -1.8663  1.5370
 7465SOL     OW24401   4.971   6.221   5.265 -0.5949 -0.9054 -0.3744
 7465SOL    HW124402   4.902   6.264   5.317  0.2477 -0.2874  0.2576
 7465SOL    HW224403   5.014   6.163   5.327  0.4910 -0.0859 -0.3396
 7466SOL     OW24404   8.306  10.467   5.347  1.1237 -0.2267 -0.6231
 7466SOL    HW124405   8.381  10.467   5.407  1.0538 -0.5223 -0.5326
 7466SOL    HW224406   8.296  10.376   5.321  1.8774  0.0690 -2.0039
 7467SOL     OW24407   1.790   0.600   7.313  0.0398 -0.2444  0.4113
 7467SOL    HW124408   1.767   0.510   7.337  0.3449  0.0818  2.1198
 7467SOL    HW224409   1.826   0.594   7.225 -1.2647 -1.5793 -0.0673
 7468SOL     OW24410   2.155   9.838   2.301 -0.0719 -0.0061 -0.1300
 7468SOL    HW124411   2.212   9.846   2.377  0.3468  0.6469 -0.5079
 7468SOL    HW224412   2.067   9.848   2.336  0.2137  2.8792 -0.0550
 7469SOL     OW24413   2.363   9.140  10.902  0.1377 -0.6907  0.2685
 7469SOL    HW124414   2.376   9.196  10.978 -0.7511 -0.6925  0.4292
 7469SOL    HW224415   2.357   9.051  10.938 -1.5065 -0.5824  0.3600
 7470SOL     OW24416   9.536   4.919   4.563  0.6119  0.0943  0.0473
 7470SOL    HW124417   9.534   5.006   4.524  0.8384  0.2694  0.4298
 7470SOL    HW224418   9.524   4.934   4.657 -0.3250 -0.3499  0.0199
 7471SOL     OW24419   6.101   5.931   3.728  0.6589  0.0001  0.3926
 7471SOL    HW124420   6.170   5.865   3.737  0.8234  0.2894  1.3828
 7471SOL    HW224421   6.146   6.009   3.698  0.4235 -0.3852 -1.0457
 7472SOL     OW24422   9.194   6.932   2.549 -0.3511 -0.2092  0.6673
 7472SOL    HW124423   9.287   6.931   2.572  0.2611  1.0669 -1.4663
 7472SOL    HW224424   9.181   6.851   2.499 -0.3418 -0.2852  0.7877
 7473SOL     OW24425   8.464   7.311   2.991 -0.0929 -0.1917 -0.2278
 7473SOL    HW124426   8.393   7.360   2.951  0.4814 -0.4220 -1.5922
 7473SOL    HW224427   8.424   7.229   3.020 -0.6909  0.3286  0.4430
 7474SOL     OW24428   7.065   9.391   1.930  0.3080  0.5474 -0.3235
 7474SOL    HW124429   7.094   9.417   2.017  0.2012 -2.2318  0.6630
 7474SOL    HW224430   6.973   9.416   1.927 -0.0588 -0.5214  0.9460
 7475SOL     OW24431   4.369   7.422   8.238 -0.0969 -0.3636  0.0996
 7475SOL    HW124432   4.458   7.443   8.209  0.5902 -1.1533  1.4952
 7475SOL    HW224433   4.359   7.468   8.321 -1.6533  1.0844 -0.8413
 7476SOL     OW24434   4.842   9.373   1.974 -0.0445 -0.0787 -0.3381
 7476SOL    HW124435   4.893   9.400   2.050  0.1842  1.2879 -0.9423
 7476SOL    HW224436   4.765   9.429   1.975 -0.7201 -0.9806 -0.3771
 7477SOL     OW24437   4.950   9.867   4.302 -0.4527 -0.5562 -1.1581
 7477SOL    HW124438   4.905   9.951   4.309 -1.7778 -1.2904 -0.6210
 7477SOL    HW224439   5.042   9.888   4.322 -0.6852  0.8236 -1.4339
 7478SOL     OW24440   1.326   2.309   6.413 -0.2594  0.0807  0.3370
 7478SOL    HW124441   1.395   2.372   6.395 -0.7486  0.0339 -2.1296
 7478SOL    HW224442   1.283   2.341   6.492 -0.5754  2.9274 -0.8989
 7479SOL     OW24443   9.944   8.346   2.582 -0.2451  0.0540 -0.1108
 7479SOL    HW124444  10.023   8.399   2.572  1.1327 -1.4705  1.8859
 7479SOL    HW224445   9.965   8.264   2.537 -2.1757  0.8569 -2.7572
 7480SOL     OW24446   7.698   9.128   8.884  0.0437  0.1147 -0.1864
 7480SOL    HW124447   7.624   9.183   8.910 -0.3496 -0.7996  0.7053
 7480SOL    HW224448   7.763   9.142   8.954  0.0666 -0.3101 -0.1247
 7481SOL     OW24449   9.017   1.009   1.500  0.6815  0.0707 -0.1740
 7481SOL    HW124450   9.024   1.085   1.558  0.4913 -0.4856  0.5908
 7481SOL    HW224451   8.952   1.034   1.434  0.2259  0.3647  0.3858
 7482SOL     OW24452  10.466   4.270   2.565  0.1285  0.1861  0.4799
 7482SOL    HW124453  10.508   4.343   2.609 -0.9150  2.8482 -2.5573
 7482SOL    HW224454  10.422   4.222   2.635  0.8685  2.4228  2.6335
 7483SOL     OW24455  11.133   6.158   5.368 -0.1937  0.9296 -0.4627
 7483SOL    HW124456  11.069   6.097   5.406 -0.2963  0.0937 -1.9336
 7483SOL    HW224457  11.096   6.181   5.283  0.0060  2.8270 -0.0830
 7484SOL     OW24458   9.154  11.075   6.423 -0.1669 -0.5769  0.0906
 7484SOL    HW124459   9.131  10.982   6.428  0.2653 -0.7390 -0.6929
 7484SOL    HW224460   9.221  11.079   6.354 -1.9670  0.6639 -1.6791
 7485SOL     OW24461   7.358   4.449   6.665  0.4366 -0.3494 -0.3463
 7485SOL    HW124462   7.434   4.473   6.611  1.7184 -0.2756  1.3962
 7485SOL    HW224463   7.322   4.532   6.694 -1.2421 -0.3240 -2.2885
 7486SOL     OW24464   0.531   2.312   3.958  0.0068 -0.0540 -1.1673
 7486SOL    HW124465   0.564   2.340   4.044 -0.2213  0.1455 -1.1433
 7486SOL    HW224466   0.475   2.384   3.929  0.2950 -0.0041 -1.6067
 7487SOL     OW24467   5.107  10.213   0.967 -1.0429  0.0088  0.3735
 7487SOL    HW124468   5.012  10.213   0.961 -1.0274  0.9423  0.0594
 7487SOL    HW224469   5.127  10.276   1.037 -0.5350  3.1786 -2.3945
 7488SOL     OW24470   5.793   7.958   1.578  0.5181 -0.0070 -0.1867
 7488SOL    HW124471   5.865   7.910   1.619  0.7651  0.0149 -0.5920
 7488SOL    HW224472   5.719   7.898   1.583  0.9468 -0.6376 -1.1284
 7489SOL     OW24473   4.787   2.033   5.313  0.0367 -0.6098 -0.4937
 7489SOL    HW124474   4.742   2.106   5.270  2.7744 -0.4741 -3.4898
 7489SOL    HW224475   4.784   1.962   5.250  1.3618 -1.5544  0.4406
 7490SOL     OW24476   0.475   6.946   6.779  0.0293  0.2653  0.1525
 7490SOL    HW124477   0.565   6.947   6.747  0.3041 -2.4053  0.6405
 7490SOL    HW224478   0.484   6.938   6.874 -0.7989  4.1631  0.7532
 7491SOL     OW24479  11.068  10.055   6.747  0.3606  0.0725  0.0962
 7491SOL    HW124480  11.150  10.096   6.775  0.5405 -0.6091  0.5675
 7491SOL    HW224481  11.054   9.983   6.809 -0.0482 -0.4722 -0.6184
 7492SOL     OW24482   9.918   6.691   4.607  0.3055 -0.0362 -0.2677
 7492SOL    HW124483   9.944   6.783   4.615 -0.6681  0.3591 -1.3026
 7492SOL    HW224484   9.827   6.689   4.635 -0.2512 -0.3149 -1.9521
 7493SOL     OW24485  10.402   5.861   4.586  0.0157  0.7217  0.6805
 7493SOL    HW124486  10.431   5.948   4.559  0.0258  1.6062  3.2533
 7493SOL    HW224487  10.350   5.876   4.665 -1.5694 -1.4632  0.1664
 7494SOL     OW24488   0.825   5.924   8.966  0.3621  0.0069  0.1141
 7494SOL    HW124489   0.767   5.921   9.042  1.6819  0.8927  1.2114
 7494SOL    HW224490   0.771   5.963   8.896  0.3383  3.5188  1.8707
 7495SOL     OW24491   2.303  11.270   4.974  0.4409 -0.4285  0.3044
 7495SOL    HW124492   2.274  11.337   5.036  2.2825  0.8427 -0.1435
 7495SOL    HW224493   2.272  11.301   4.889  0.8247 -0.4159  0.1658
 7496SOL     OW24494   9.719  11.284   2.443 -0.5427  0.2306 -0.1489
 7496SOL    HW124495   9.748  11.267   2.353 -0.1111  3.9057 -0.8846
 7496SOL    HW224496   9.799  11.309   2.489 -1.1589  1.1435  0.4597
 7497SOL     OW24497  10.658   4.976   4.948  0.1777 -0.3095  0.1856
 7497SOL    HW124498  10.675   5.046   4.885  1.3656  0.4047  1.2410
 7497SOL    HW224499  10.660   4.896   4.896 -2.4891  0.4480 -1.2965
 7498SOL     OW24500   8.049  10.862   5.408 -0.0901 -0.5347  0.1904
 7498SOL    HW124501   8.050  10.891   5.316  1.4532 -2.4526 -0.4738
 7498SOL    HW224502   7.991  10.924   5.452 -0.5986  0.6602 -2.0049
 7499SOL     OW24503   7.193   2.655   1.473  0.0632  0.0187 -0.0563
 7499SOL    HW124504   7.243   2.651   1.392 -1.8887 -1.2125 -1.2865
 7499SOL    HW224505   7.181   2.563   1.498 -2.2422  0.1966 -0.2993
 7500SOL     OW24506   1.793   4.248   0.367  0.1066 -0.1892  0.1340
 7500SOL    HW124507   1.762   4.180   0.426  0.2733 -1.7687 -1.5388
 7500SOL    HW224508   1.743   4.236   0.287  1.1771  0.7107 -0.7041
 7501SOL     OW24509   8.521   5.890   5.992 -0.3754  0.1542 -0.2118
 7501SOL    HW124510   8.505   5.887   6.086  1.4696 -2.5345  0.1313
 7501SOL    HW224511   8.597   5.948   5.983 -2.3500  2.9109 -0.5081
 7502SOL     OW24512   1.398   3.068   9.604  0.3071 -0.0825  0.6028
 7502SOL    HW124513   1.440   2.990   9.566  1.8218  1.4818 -1.1008
 7502SOL    HW224514   1.394   3.131   9.532 -4.1395  0.3013  0.9314
 7503SOL     OW24515   8.096   1.076   7.815  0.4989  0.1791 -0.2290
 7503SOL    HW124516   8.096   1.168   7.789  1.5453 -0.1842 -1.6130
 7503SOL    HW224517   8.019   1.038   7.772  0.9543  0.0830 -0.9863
 7504SOL     OW24518   2.695   7.399   4.968  0.4805  0.2944 -0.4749
 7504SOL    HW124519   2.690   7.331   5.035  0.2240  1.1258  0.3747
 7504SOL    HW224520   2.649   7.474   5.006  2.0372  1.4538 -0.7679
 7505SOL     OW24521  10.804   0.370   3.539  0.5461  0.7399 -0.3984
 7505SOL    HW124522  10.863   0.295   3.531  1.0540  1.2602 -2.1541
 7505SOL    HW224523  10.807   0.394   3.632 -0.2613 -1.8676  0.3769
 7506SOL     OW24524   0.380   0.175   3.007  0.1488  0.1098 -0.3913
 7506SOL    HW124525   0.430   0.173   2.926  0.3050 -0.4164 -0.2840
 7506SOL    HW224526   0.436   0.132   3.071  1.0840  2.6311  0.6187
 7507SOL     OW24527   6.294   7.886   1.959 -0.2276  0.0560  0.1745
 7507SOL    HW124528   6.213   7.834   1.957  0.0855 -0.5238  1.7679
 7507SOL    HW224529   6.364   7.821   1.949  0.0855  0.6994 -2.9493
 7508SOL     OW24530   1.134   1.575   7.378  0.2048 -0.4639  0.0377
 7508SOL    HW124531   1.122   1.500   7.319 -0.2883 -0.4528  0.1155
 7508SOL    HW224532   1.076   1.642   7.343  1.1239  0.1119 -0.4034
 7509SOL     OW24533   6.417   2.353   6.443  0.5018  0.1166 -0.2238
 7509SOL    HW124534   6.415   2.305   6.526 -0.6818  0.7108  0.1078
 7509SOL    HW224535   6.326   2.353   6.413  0.5853  1.6092 -0.5315
 7510SOL     OW24536   8.682  11.228   5.878  0.3974 -0.2982  0.1023
 7510SOL    HW124537   8.647  11.147   5.916 -2.8540  1.1868  0.6508
 7510SOL    HW224538   8.717  11.277   5.953 -0.3450  0.0209  0.2479
 7511SOL     OW24539  10.378  10.800   2.233 -0.6843 -0.3968  0.2218
 7511SOL    HW124540  10.454  10.854   2.253  2.2926 -4.3407  0.7679
 7511SOL    HW224541  10.363  10.748   2.312 -2.1347 -1.7108 -0.8462
 7512SOL     OW24542   4.657   1.274   8.192 -0.2372 -0.0651  0.0220
 7512SOL    HW124543   4.568   1.243   8.176 -1.3523  1.4180  2.6760
 7512SOL    HW224544   4.685   1.311   8.108 -2.1930 -0.3864 -0.8294
 7513SOL     OW24545  10.595   7.090   2.912 -0.0194  0.6638 -0.3820
 7513SOL    HW124546  10.638   7.020   2.864 -1.8650  0.4267 -1.7957
 7513SOL    HW224547  10.501   7.078   2.894 -0.6343  1.7133  1.7794
 7514SOL     OW24548   1.609   6.535  10.767 -0.7049 -0.8749 -0.2509
 7514SOL    HW124549   1.536   6.558  10.709  0.4027 -0.0627 -1.3704
 7514SOL    HW224550   1.574   6.547  10.855 -2.1744 -1.3295 -0.7419
 7515SOL     OW24551   5.337   1.613   3.867 -0.3299 -0.3773 -0.2385
 7515SOL    HW124552   5.413   1.584   3.818  0.3243  1.7197 -0.5839
 7515SOL    HW224553   5.268   1.624   3.801  0.3643  1.8180 -0.6925
 7516SOL     OW24554   3.224   4.652   6.248  0.3852 -0.3437  0.7269
 7516SOL    HW124555   3.174   4.734   6.246 -0.6955 -0.9794 -0.8413
 7516SOL    HW224556   3.285   4.663   6.321  0.5476  1.9995  0.3300
 7517SOL     OW24557   7.804   2.469   3.853 -0.1957  0.3781  0.1957
 7517SOL    HW124558   7.833   2.464   3.944  3.5400  0.7015 -0.8263
 7517SOL    HW224559   7.819   2.560   3.828  1.5185 -0.2890 -1.4493
 7518SOL     OW24560   2.601   9.638   0.172 -0.7191  0.6183 -0.1728
 7518SOL    HW124561   2.517   9.611   0.209 -0.1921 -1.0388 -0.0868
 7518SOL    HW224562   2.580   9.669   0.084 -1.5174  1.0594  0.1596
 7519SOL     OW24563   5.616   2.365   3.398 -0.3177 -0.4653 -0.4047
 7519SOL    HW124564   5.615   2.289   3.340 -1.4123  1.2145 -2.7789
 7519SOL    HW224565   5.529   2.404   3.387 -0.0744  0.6905  1.3934
 7520SOL     OW24566   7.017   6.327   4.769  0.7166 -0.0463 -0.8229
 7520SOL    HW124567   7.090   6.328   4.830  0.4148 -0.4222 -0.4496
 7520SOL    HW224568   6.981   6.415   4.773  2.9086  1.0707 -3.1835
 7521SOL     OW24569   3.274   9.735  10.337 -0.2499 -0.5349 -0.4793
 7521SOL    HW124570   3.260   9.686  10.256  0.0456 -0.2691 -0.6999
 7521SOL    HW224571   3.369   9.729  10.352 -0.1259  0.3874 -0.7999
 7522SOL     OW24572   0.948   1.121   5.380 -0.6803  0.2289 -0.2971
 7522SOL    HW124573   0.975   1.187   5.444  0.3005  0.7699 -1.2505
 7522SOL    HW224574   1.003   1.137   5.304 -1.4225 -0.7867 -1.0716
 7523SOL     OW24575   7.433   7.208   9.552  0.3336 -0.2271 -0.2844
 7523SOL    HW124576   7.448   7.137   9.614  0.8038  0.2949  0.2162
 7523SOL    HW224577   7.348   7.189   9.512 -0.6582  0.1556  1.5273
 7524SOL     OW24578   2.519   9.805   3.395 -0.5404 -0.1587 -0.0953
 7524SOL    HW124579   2.451   9.769   3.453 -1.8073  1.1354 -0.6935
 7524SOL    HW224580   2.470   9.848   3.325  0.9142  0.7599 -0.5923
 7525SOL     OW24581   8.847   1.876   0.140 -0.2964 -0.2107 -0.4130
 7525SOL    HW124582   8.779   1.852   0.204  0.5974  0.5720  0.8636
 7525SOL    HW224583   8.851   1.971   0.144 -0.4528 -0.1303 -1.9046
 7526SOL     OW24584   7.100   8.087   3.841 -0.2405  0.1181  0.4009
 7526SOL    HW124585   7.186   8.045   3.843 -0.2711 -0.0194 -0.7538
 7526SOL    HW224586   7.062   8.067   3.927 -0.0300 -1.7714  0.1059
 7527SOL     OW24587   2.473   5.223   4.475 -1.5708 -0.5612  0.2800
 7527SOL    HW124588   2.565   5.248   4.464 -1.6283 -0.6716 -0.4868
 7527SOL    HW224589   2.429   5.260   4.399 -2.1055 -0.8042  0.4713
 7528SOL     OW24590   6.514   4.709   7.703  0.0688  0.0560 -0.2278
 7528SOL    HW124591   6.476   4.622   7.713 -1.4420  0.5764 -1.1688
 7528SOL    HW224592   6.506   4.750   7.789  1.4004 -0.9317  0.4013
 7529SOL     OW24593   8.310   9.243   3.383 -0.4217 -0.3325  0.2199
 7529SOL    HW124594   8.285   9.330   3.412  0.0947 -0.2656  0.4880
 7529SOL    HW224595   8.252   9.224   3.310 -0.6788  0.1507  0.2944
 7530SOL     OW24596   6.271   2.054   2.333 -0.2684 -0.2922 -0.6566
 7530SOL    HW124597   6.364   2.033   2.347 -0.0404  0.1394 -1.4223
 7530SOL    HW224598   6.227   1.970   2.337  0.1360 -0.4882 -0.1466
 7531SOL     OW24599   3.746   8.556   0.994 -0.3397 -0.4843  0.2775
 7531SOL    HW124600   3.838   8.542   0.973  0.3757  1.4535  1.8297
 7531SOL    HW224601   3.737   8.651   1.001 -2.1590 -0.6894  1.3935
 7532SOL     OW24602   7.848   0.678   2.108  0.4697  0.2583  0.6265
 7532SOL    HW124603   7.835   0.638   2.022 -0.3347  1.5267  0.1304
 7532SOL    HW224604   7.760   0.704   2.136  0.3461 -2.2786  2.9648
 7533SOL     OW24605   4.358   4.560  11.082 -0.0537 -0.2049 -0.7092
 7533SOL    HW124606   4.367   4.502  11.158 -0.3655 -0.4045 -0.8226
 7533SOL    HW224607   4.292   4.517  11.027  1.2240 -0.8385 -1.8106
 7534SOL     OW24608   0.491   8.893   2.651  0.3404 -0.3105 -0.3807
 7534SOL    HW124609   0.574   8.928   2.617  0.0687 -0.9781 -1.7620
 7534SOL    HW224610   0.423   8.943   2.606 -0.0258 -0.0147  0.4804
 7535SOL     OW24611   8.969  10.636   5.958  0.3466 -0.1344  0.1492
 7535SOL    HW124612   8.937  10.695   5.890  1.2130 -0.8644 -0.9227
 7535SOL    HW224613   8.994  10.556   5.911 -1.2200 -1.5537  1.6164
 7536SOL     OW24614   8.041   8.716   7.199 -0.3726  0.0192 -0.9097
 7536SOL    HW124615   8.103   8.644   7.198 -0.6955 -0.2567 -1.2806
 7536SOL    HW224616   8.093   8.793   7.222 -0.1810 -0.4769  0.4048
 7537SOL     OW24617   3.313   1.077   7.750  0.6744  0.1383 -0.5497
 7537SOL    HW124618   3.356   1.082   7.835  0.8707 -0.6939 -0.5910
 7537SOL    HW224619   3.359   1.140   7.696  2.5515 -1.4355 -0.8856
 7538SOL     OW24620  11.249   6.099   4.897 -0.0498 -0.4248  0.4370
 7538SOL    HW124621  11.333   6.054   4.883  2.2517  3.6194 -0.4798
 7538SOL    HW224622  11.253   6.129   4.987  0.4796  1.4176 -0.1590
 7539SOL     OW24623   4.699   2.491   9.777  0.0815  0.2335 -0.3680
 7539SOL    HW124624   4.784   2.459   9.746 -0.0791  0.0567 -0.6244
 7539SOL    HW224625   4.640   2.417   9.763 -0.2208  0.5297 -0.6443
 7540SOL     OW24626   7.502   6.038   4.384  0.9555  0.1372  0.3530
 7540SOL    HW124627   7.515   6.102   4.314 -2.7892 -0.4434 -1.1251
 7540SOL    HW224628   7.462   5.963   4.341  0.5503 -1.1740  2.8099
 7541SOL     OW24629   7.843   4.709   6.158 -0.5098 -0.2347  0.0028
 7541SOL    HW124630   7.775   4.657   6.115 -1.8621  1.4857 -0.0249
 7541SOL    HW224631   7.821   4.800   6.138  1.9601  0.3969 -0.2197
 7542SOL     OW24632   7.090   7.819   3.608 -0.3320  0.3927  0.0201
 7542SOL    HW124633   7.073   7.826   3.514  1.4612  1.9916 -0.2423
 7542SOL    HW224634   7.018   7.765   3.641 -1.4145  0.3988 -2.1366
 7543SOL     OW24635   5.850   2.435   5.542  0.4019 -0.6268  0.0847
 7543SOL    HW124636   5.798   2.368   5.586 -4.2614  0.6703 -2.6843
 7543SOL    HW224637   5.896   2.389   5.472  0.1377 -1.4179  0.4283
 7544SOL     OW24638   5.325   5.557  10.914  0.6361 -0.4714 -0.0189
 7544SOL    HW124639   5.307   5.651  10.922  1.7528 -0.3213  0.9498
 7544SOL    HW224640   5.337   5.543  10.820 -0.1486  0.2286 -0.2327
 7545SOL     OW24641  10.078   1.689   4.460 -0.5990  0.5709 -0.3431
 7545SOL    HW124642  10.170   1.703   4.481 -0.1167  0.2679 -2.0711
 7545SOL    HW224643  10.079   1.639   4.379 -2.2999  0.1685 -0.1563
 7546SOL     OW24644   6.428   4.628   9.093 -0.5600 -0.0809  0.2666
 7546SOL    HW124645   6.437   4.596   9.004 -1.5494 -1.2884  0.5654
 7546SOL    HW224646   6.336   4.654   9.100 -0.2936  0.7914  0.6917
 7547SOL     OW24647   8.835   6.832   4.292 -1.0157  0.2080 -0.2113
 7547SOL    HW124648   8.745   6.803   4.308 -1.6069  2.0516  0.0439
 7547SOL    HW224649   8.829   6.928   4.286  0.9292  0.3739 -0.2264
 7548SOL     OW24650   2.949  10.030   4.761 -0.3123  0.3504  0.2557
 7548SOL    HW124651   2.866  10.077   4.764  0.0857  1.0439  0.7381
 7548SOL    HW224652   2.940   9.970   4.687 -2.8782 -2.7474  2.7984
 7549SOL     OW24653   8.431  10.356   9.685  0.3016  0.9071  0.3351
 7549SOL    HW124654   8.462  10.286   9.743 -0.8485  0.1615  0.0835
 7549SOL    HW224655   8.420  10.432   9.742 -0.0088  0.4185  0.9415
 7550SOL     OW24656   0.470   4.934   2.598  0.3362  0.4763 -0.8700
 7550SOL    HW124657   0.545   4.990   2.621  0.8634 -0.6642  0.3146
 7550SOL    HW224658   0.401   4.961   2.658 -0.3763  1.8108 -2.2368
 7551SOL     OW24659   7.653   6.534   2.598 -0.3941  0.3909  0.4248
 7551SOL    HW124660   7.591   6.495   2.659 -1.2741 -0.0029 -0.6792
 7551SOL    HW224661   7.738   6.529   2.642 -1.1258  0.8696  1.9330
 7552SOL     OW24662   6.532   7.864   0.763 -0.5998  0.0307 -0.6610
 7552SOL    HW124663   6.626   7.877   0.776 -0.4210  1.3876 -2.8271
 7552SOL    HW224664   6.492   7.912   0.835  0.3657  0.9851 -0.7264
 7553SOL     OW24665   6.340   9.395   2.304  0.4907  0.8775 -0.1559
 7553SOL    HW124666   6.257   9.349   2.289  1.1882 -1.0952  1.4374
 7553SOL    HW224667   6.323   9.449   2.381  1.0322 -0.7972  1.2266
 7554SOL     OW24668   9.843   4.733  11.089  0.4207  0.8430  0.2926
 7554SOL    HW124669   9.777   4.708  11.024  0.8044  2.4059 -0.7523
 7554SOL    HW224670   9.923   4.686  11.061  0.2482  0.4629  0.4322
 7555SOL     OW24671   2.833   9.887  10.496 -0.1816 -0.0263  0.2649
 7555SOL    HW124672   2.791   9.808  10.462  0.0610 -0.0162 -0.0612
 7555SOL    HW224673   2.891   9.856  10.565  0.0680 -0.1624 -0.0009
 7556SOL     OW24674  10.887  11.254   8.964 -0.1775  0.0672 -0.0924
 7556SOL    HW124675  10.798  11.282   8.986 -0.0469  0.8103 -0.4698
 7556SOL    HW224676  10.941  11.287   9.035 -0.0361  0.7244 -0.4936
 7557SOL     OW24677   2.965   5.841   5.316  0.0199  0.6525 -0.7596
 7557SOL    HW124678   2.896   5.906   5.303  2.2489  3.6589  1.2393
 7557SOL    HW224679   2.997   5.823   5.228 -0.3786  2.6873 -1.3832
 7558SOL     OW24680   8.081   7.147   0.659  0.1522 -0.1723 -0.7755
 7558SOL    HW124681   8.098   7.242   0.660 -1.0649  0.0856 -1.7572
 7558SOL    HW224682   8.065   7.124   0.750 -0.8333  0.8465 -0.6655
 7559SOL     OW24683   7.729   5.804   7.372 -0.0829 -0.4611 -0.0695
 7559SOL    HW124684   7.634   5.801   7.367 -0.0082 -0.3626 -2.4641
 7559SOL    HW224685   7.754   5.883   7.325  1.1780 -0.3225  0.7873
 7560SOL     OW24686   9.469  10.150   9.734  0.2562 -0.3628  0.6481
 7560SOL    HW124687   9.509  10.084   9.676 -0.5814 -0.5821  0.3049
 7560SOL    HW224688   9.544  10.191   9.779  0.7826 -1.7634  1.1103
 7561SOL     OW24689   2.080   7.366   3.280  0.2111  0.3484  0.2512
 7561SOL    HW124690   2.041   7.442   3.236  0.2359  0.0926 -0.2154
 7561SOL    HW224691   2.152   7.403   3.331 -0.4150  0.7807  0.8463
 7562SOL     OW24692   9.003   9.421   8.623 -0.0865 -0.0294  0.0389
 7562SOL    HW124693   8.997   9.326   8.631 -0.9100 -0.0279 -0.4201
 7562SOL    HW224694   8.918   9.453   8.652 -0.3097  0.4672 -1.1109
 7563SOL     OW24695   6.418   6.536   5.088 -0.1227 -0.4662  0.7235
 7563SOL    HW124696   6.436   6.561   5.178 -0.4637 -1.2646  1.0169
 7563SOL    HW224697   6.347   6.472   5.094 -0.2890 -0.3752 -0.1249
 7564SOL     OW24698   5.730   8.526   1.150  0.4233 -0.4456  0.3894
 7564SOL    HW124699   5.658   8.499   1.206  0.6973  0.5258  1.2480
 7564SOL    HW224700   5.695   8.599   1.098  0.3856 -0.8687 -0.1885
 7565SOL     OW24701   3.692   1.917   5.238 -0.2155  0.5917 -0.3821
 7565SOL    HW124702   3.603   1.883   5.231 -0.7981  2.2697 -1.5593
 7565SOL    HW224703   3.724   1.881   5.321 -1.0606 -2.0775 -1.0980
 7566SOL     OW24704   0.720   5.556   5.381  0.0887  0.3102  0.2536
 7566SOL    HW124705   0.701   5.528   5.470  0.2234  1.9489  0.8206
 7566SOL    HW224706   0.815   5.573   5.380  0.1473  0.0042 -0.2997
 7567SOL     OW24707   6.079   9.115   0.479  0.2876  0.3132 -0.1440
 7567SOL    HW124708   6.085   9.085   0.389  0.2408  2.0092 -0.7546
 7567SOL    HW224709   6.143   9.186   0.486 -1.9153  2.4200  0.1654
 7568SOL     OW24710   1.671   6.127   9.428 -0.1807 -0.0627  0.5826
 7568SOL    HW124711   1.717   6.209   9.439 -1.7894  1.0984 -0.7934
 7568SOL    HW224712   1.699   6.095   9.342 -3.7119  2.0488 -1.5988
 7569SOL     OW24713   0.014   5.135   3.690  0.0780 -0.2629  0.2737
 7569SOL    HW124714  -0.057   5.159   3.630  2.6376  1.4590 -2.3564
 7569SOL    HW224715   0.036   5.045   3.665 -1.1354 -0.8439  1.1683
 7570SOL     OW24716   4.325   5.905   7.037  0.4990 -0.7840  0.0602
 7570SOL    HW124717   4.336   5.989   7.080  0.9660 -1.2480  0.8605
 7570SOL    HW224718   4.231   5.901   7.016  0.9612  1.4311 -3.1524
 7571SOL     OW24719  10.730   6.075   5.662  0.8126  0.2583 -0.3342
 7571SOL    HW124720  10.813   6.122   5.667  0.9916  0.1276 -1.6356
 7571SOL    HW224721  10.752   5.984   5.684  1.1354  0.1168 -1.1901
 7572SOL     OW24722   5.823   1.330   3.396 -0.4916  0.3205 -0.0883
 7572SOL    HW124723   5.859   1.374   3.474 -0.7763 -0.4239  0.4763
 7572SOL    HW224724   5.866   1.373   3.322  0.7843  0.1563  0.5307
 7573SOL     OW24725   3.522   2.215  10.373 -0.5141  0.4034  0.0811
 7573SOL    HW124726   3.509   2.197  10.466 -1.6114 -1.0578 -0.3109
 7573SOL    HW224727   3.579   2.291  10.370  0.7517 -0.4155  1.9451
 7574SOL     OW24728  11.065  10.049   3.447 -0.2285 -0.0288  0.2907
 7574SOL    HW124729  11.019   9.979   3.400  0.8651 -0.6294  0.0865
 7574SOL    HW224730  11.080  10.117   3.381 -2.2555  0.9233  0.7326
 7575SOL     OW24731   3.410   6.762   5.820 -0.1170  0.6021 -0.0951
 7575SOL    HW124732   3.327   6.797   5.788 -0.1754  0.0185 -0.5857
 7575SOL    HW224733   3.393   6.669   5.834  0.3505  0.5526  0.1547
 7576SOL     OW24734   5.036   9.642   9.084  0.0540 -0.8692  0.0730
 7576SOL    HW124735   5.000   9.727   9.059 -0.2714 -1.4151 -1.4358
 7576SOL    HW224736   5.130   9.657   9.090  0.1668 -0.6699 -1.5522
 7577SOL     OW24737   0.947   9.134   7.822 -0.0647  0.0963  0.2730
 7577SOL    HW124738   0.868   9.132   7.767  0.6012  0.8330 -0.7451
 7577SOL    HW224739   0.937   9.059   7.880 -1.9079  0.6467  0.7298
 7578SOL     OW24740   8.912   1.248   4.908  0.1582  0.0432  0.5278
 7578SOL    HW124741   8.894   1.258   5.002  0.8179 -1.3318  0.8258
 7578SOL    HW224742   8.842   1.298   4.865 -1.3871 -0.9629  1.7284
 7579SOL     OW24743  10.176   4.421   0.680 -0.8841 -0.2274 -0.1896
 7579SOL    HW124744  10.224   4.340   0.692 -0.5167 -0.1148 -0.8222
 7579SOL    HW224745  10.087   4.402   0.711 -0.4060 -0.3946  1.1139
 7580SOL     OW24746   2.094  11.266   7.557  0.1081  0.5744  0.3263
 7580SOL    HW124747   2.045  11.203   7.504 -0.5190  1.4584 -0.1590
 7580SOL    HW224748   2.081  11.350   7.513  1.0900  1.0210  0.8569
 7581SOL     OW24749   9.359   0.866   1.407  0.1376  0.1946  0.1123
 7581SOL    HW124750   9.342   0.940   1.349  0.4538 -1.0892 -1.6974
 7581SOL    HW224751   9.438   0.892   1.455  0.3030  1.0010 -0.5621
 7582SOL     OW24752   2.053   3.042   4.270  0.0969  0.3319  0.1708
 7582SOL    HW124753   2.067   2.949   4.284  0.2783  0.3816  0.3177
 7582SOL    HW224754   2.079   3.083   4.352  3.1555  0.8268 -0.9179
 7583SOL     OW24755   4.052   5.584   4.263 -0.1142  0.2970 -0.4616
 7583SOL    HW124756   4.033   5.678   4.266 -0.4385  0.2309 -0.4137
 7583SOL    HW224757   4.024   5.557   4.175  1.8940  0.6479 -1.2714
 7584SOL     OW24758  10.700   8.503   8.383  0.0274  0.6218  0.3214
 7584SOL    HW124759  10.670   8.416   8.357  0.5907 -0.1815  2.1735
 7584SOL    HW224760  10.655   8.563   8.324 -0.2971 -0.9226 -1.0729
 7585SOL     OW24761   6.734   2.995   2.197  0.3577  0.0124 -0.1126
 7585SOL    HW124762   6.687   2.943   2.131 -1.0984  1.5675 -0.3779
 7585SOL    HW224763   6.682   2.985   2.277 -0.6374  1.8878 -0.4524
 7586SOL     OW24764   3.688   4.779   0.629  0.7843  0.4477  0.0651
 7586SOL    HW124765   3.643   4.724   0.693 -0.6021  0.1330 -1.1117
 7586SOL    HW224766   3.721   4.717   0.564  1.6064  0.8075  0.1358
 7587SOL     OW24767  11.127   8.427   6.365  0.9740  0.0947  0.5635
 7587SOL    HW124768  11.161   8.517   6.362  1.0761  0.1514  2.2798
 7587SOL    HW224769  11.032   8.438   6.371  0.7831 -0.0020 -1.5891
 7588SOL     OW24770   7.863   7.187   2.406  0.0031  0.4310  0.0315
 7588SOL    HW124771   7.827   7.275   2.399 -1.6205 -0.1527  0.5011
 7588SOL    HW224772   7.956   7.200   2.424 -0.2234  2.0402  0.1793
 7589SOL     OW24773   1.475   7.111   8.573  0.6329  0.5672  0.1554
 7589SOL    HW124774   1.424   7.053   8.629 -1.4644  1.9564 -0.2023
 7589SOL    HW224775   1.560   7.117   8.616  0.6965 -2.0987  0.6096
 7590SOL     OW24776   2.682   4.976   5.857 -0.2642 -0.1048 -0.0770
 7590SOL    HW124777   2.760   4.957   5.909  0.7962 -0.5763 -1.7789
 7590SOL    HW224778   2.643   5.052   5.901  1.5184  0.5838  0.4227
 7591SOL     OW24779   8.702   4.138   9.491  0.5821  0.4184  0.0795
 7591SOL    HW124780   8.738   4.179   9.569 -0.1212  1.8472 -0.3131
 7591SOL    HW224781   8.611   4.119   9.512 -0.0959  2.3484 -0.9042
 7592SOL     OW24782   5.347   5.050   2.232  0.1728 -0.4878  0.1745
 7592SOL    HW124783   5.381   4.978   2.180  0.5114  1.2425 -2.1363
 7592SOL    HW224784   5.331   5.011   2.318  1.1919 -3.0680 -0.6947
 7593SOL     OW24785   6.464   9.853   8.987 -0.3238 -0.0224 -0.0724
 7593SOL    HW124786   6.515   9.802   8.924  0.1261  0.5693 -0.2000
 7593SOL    HW224787   6.457   9.797   9.064  2.5850  0.7435  0.8622
 7594SOL     OW24788   1.918  10.415   8.937 -0.6794 -0.1180  0.3619
 7594SOL    HW124789   1.872  10.499   8.926 -1.7861 -1.0408 -3.3541
 7594SOL    HW224790   1.972  10.407   8.859  1.2225 -1.9049  1.7541
 7595SOL     OW24791   7.323   8.352   2.899 -0.4748 -0.2963  0.5308
 7595SOL    HW124792   7.357   8.265   2.921 -0.4290  0.0542  1.9338
 7595SOL    HW224793   7.254   8.335   2.835 -1.8331 -1.5712  2.2273
 7596SOL     OW24794   4.237   6.705   4.233 -0.0327  0.1400 -0.1797
 7596SOL    HW124795   4.228   6.615   4.200 -0.3069  0.3548 -0.7096
 7596SOL    HW224796   4.323   6.734   4.202  1.6052 -1.0750  2.8327
 7597SOL     OW24797   4.672  10.698   6.666  0.1451  0.1406 -0.0409
 7597SOL    HW124798   4.639  10.615   6.634  0.1042  0.9872 -2.4145
 7597SOL    HW224799   4.766  10.696   6.645  0.0410  0.8823 -0.6182
 7598SOL     OW24800   9.269   2.822   4.263  0.0581  1.0735  0.3993
 7598SOL    HW124801   9.282   2.752   4.327 -0.9474  1.9021  1.5820
 7598SOL    HW224802   9.352   2.870   4.263  0.4809  0.3556  0.1699
 7599SOL     OW24803   5.484   4.803   1.253 -0.2467 -0.0502 -0.3596
 7599SOL    HW124804   5.406   4.853   1.231  0.2630 -0.0033 -2.2125
 7599SOL    HW224805   5.529   4.790   1.170  0.3498 -2.4059  0.2384
 7600SOL     OW24806   5.227   9.582  10.687 -0.6500  0.3714 -0.1558
 7600SOL    HW124807   5.204   9.550  10.774 -2.6546 -1.9150 -1.3727
 7600SOL    HW224808   5.151   9.633  10.659 -0.9951 -0.7261 -1.3319
 7601SOL     OW24809   3.530   5.878   1.517  0.3366 -0.4401 -0.3299
 7601SOL    HW124810   3.541   5.942   1.447  0.0645  0.4018  0.3858
 7601SOL    HW224811   3.463   5.818   1.484 -0.0353  0.1460 -0.6570
 7602SOL     OW24812   1.398   5.066   2.993 -0.0008 -0.2086  0.2815
 7602SOL    HW124813   1.366   5.005   2.927  3.3422 -2.4109  0.4790
 7602SOL    HW224814   1.337   5.055   3.067  0.0790 -2.8330  0.0416
 7603SOL     OW24815  10.919   4.246   7.194  0.1605  0.0217  0.6741
 7603SOL    HW124816  10.895   4.333   7.228 -3.4150 -0.8812  0.8633
 7603SOL    HW224817  10.944   4.262   7.103 -0.7587  1.2343  0.6120
 7604SOL     OW24818   1.575   3.673  10.216 -0.2083 -0.3183 -1.3717
 7604SOL    HW124819   1.519   3.705  10.287  0.5322  1.5693 -1.5785
 7604SOL    HW224820   1.658   3.651  10.258  0.5417  1.6639 -1.7111
 7605SOL     OW24821   9.099   6.026   5.948 -0.3001  0.2574 -0.4421
 7605SOL    HW124822   9.049   6.024   5.866 -2.3793  2.5879  0.6495
 7605SOL    HW224823   9.065   6.102   5.995  1.3681 -0.5475  2.2710
 7606SOL     OW24824   6.943   1.390   1.556  0.2751 -0.0421 -0.6457
 7606SOL    HW124825   6.923   1.439   1.476 -1.7345  0.8031  0.3203
 7606SOL    HW224826   6.864   1.338   1.573 -0.6421  2.0722  2.3787
 7607SOL     OW24827   7.520   6.118   3.695  0.1559 -0.0747  0.2224
 7607SOL    HW124828   7.549   6.183   3.759  1.1929 -2.3577  2.2317
 7607SOL    HW224829   7.429   6.102   3.717 -0.7914  2.1666 -1.6966
 7608SOL     OW24830   1.968   4.900   7.037  0.0228  0.6797  0.6674
 7608SOL    HW124831   1.879   4.886   7.003  0.5124  0.5428 -0.5970
 7608SOL    HW224832   2.015   4.820   7.015  0.6625  1.0389  0.7025
 7609SOL     OW24833  10.999   3.710  10.709  0.3257  0.0082 -0.0304
 7609SOL    HW124834  10.953   3.705  10.793 -1.0788 -0.0692 -0.7717
 7609SOL    HW224835  10.996   3.803  10.686  1.7831  0.2180  0.5640
 7610SOL     OW24836   6.618   4.798   7.004  0.0351  0.2474  0.0658
 7610SOL    HW124837   6.594   4.836   7.089 -1.0690 -0.6274  0.1575
 7610SOL    HW224838   6.671   4.866   6.962 -0.2035  1.0698  1.0536
 7611SOL     OW24839   2.532   6.751   3.105 -0.0131 -0.3669 -0.2690
 7611SOL    HW124840   2.442   6.776   3.127 -0.2169  4.3185 -4.5641
 7611SOL    HW224841   2.524   6.694   3.029  0.3491  2.3553 -2.5290
 7612SOL     OW24842   9.527   8.927   8.321 -0.0410 -0.5028  0.2238
 7612SOL    HW124843   9.457   8.959   8.264 -0.6551 -2.9290 -0.4804
 7612SOL    HW224844   9.607   8.935   8.269 -0.5621 -2.4619 -0.9941
 7613SOL     OW24845   3.667   8.925   0.763  0.1073  0.6441  0.4057
 7613SOL    HW124846   3.743   8.878   0.727  1.0362 -0.7052  3.7654
 7613SOL    HW224847   3.663   9.006   0.712  1.1451 -1.0870 -2.7172
 7614SOL     OW24848   4.621   2.379   4.475 -0.3464 -0.7581  0.0217
 7614SOL    HW124849   4.654   2.466   4.498 -1.5138 -0.6284  1.3204
 7614SOL    HW224850   4.680   2.318   4.519 -0.7124 -0.5699  0.7850
 7615SOL     OW24851   9.114   1.272   4.739 -0.1450 -0.1350 -0.1756
 7615SOL    HW124852   9.036   1.266   4.794 -0.2756 -0.3454 -0.3829
 7615SOL    HW224853   9.134   1.181   4.717  1.3450 -0.2928  1.5437
 7616SOL     OW24854   1.560   4.712   6.187 -0.2378  1.0710  0.3670
 7616SOL    HW124855   1.655   4.717   6.174  0.1545  1.2974  2.9002
 7616SOL    HW224856   1.549   4.705   6.281 -2.5424 -4.0915  0.0318
 7617SOL     OW24857   8.207   3.581   1.322 -0.2459 -0.8048 -0.0460
 7617SOL    HW124858   8.280   3.589   1.383  0.2532  0.6907 -0.7888
 7617SOL    HW224859   8.129   3.594   1.376  0.1933  0.6880  0.2780
 7618SOL     OW24860   5.167  10.474   9.550 -0.0194 -1.1118  0.5885
 7618SOL    HW124861   5.145  10.383   9.572 -0.0252 -1.4590 -0.7750
 7618SOL    HW224862   5.118  10.493   9.471  4.1399 -1.8673 -2.5234
 7619SOL     OW24863   6.482   3.489   7.354 -0.0549 -0.2250 -0.0469
 7619SOL    HW124864   6.497   3.437   7.275 -0.7070 -3.0534  1.5560
 7619SOL    HW224865   6.570   3.516   7.381  0.5939 -2.2724  0.1183
 7620SOL     OW24866  10.979   2.468   5.602  0.3875 -0.0349  0.1304
 7620SOL    HW124867  11.060   2.465   5.551 -0.1750  0.5503 -0.8224
 7620SOL    HW224868  10.964   2.561   5.618 -0.7174 -0.0542 -0.7143
 7621SOL     OW24869   8.180   9.461   0.802 -0.4374 -0.3792  0.4371
 7621SOL    HW124870   8.173   9.473   0.707  4.9814  0.2177 -0.2314
 7621SOL    HW224871   8.195   9.367   0.813  0.6606 -0.2261  0.4041
 7622SOL     OW24872   5.054   8.319   6.772 -0.6726  0.0725  0.4139
 7622SOL    HW124873   5.093   8.379   6.835 -0.0014 -0.6844  0.7366
 7622SOL    HW224874   4.975   8.364   6.741  0.2141  1.4458  0.0712
 7623SOL     OW24875   2.374   7.654   1.939  0.0321  0.7710 -0.4515
 7623SOL    HW124876   2.464   7.621   1.946 -0.7461 -1.2023  1.2930
 7623SOL    HW224877   2.346   7.631   1.851  0.6361 -0.2623 -0.3828
 7624SOL     OW24878   2.425   8.305   9.149  0.1897  0.4727  0.0178
 7624SOL    HW124879   2.506   8.320   9.199 -0.6481 -1.4903  2.1302
 7624SOL    HW224880   2.441   8.224   9.101 -0.2095  0.5706 -0.2831
 7625SOL     OW24881   8.603  10.101   4.924 -0.2896 -0.0033 -0.2576
 7625SOL    HW124882   8.549  10.109   4.845 -0.6126  0.8757  0.0374
 7625SOL    HW224883   8.579  10.177   4.977  0.9354  0.1805  0.0649
 7626SOL     OW24884   4.915   6.505   2.704  0.0755  0.8456 -0.3889
 7626SOL    HW124885   4.931   6.413   2.687  1.0813  1.4919 -3.6670
 7626SOL    HW224886   4.929   6.515   2.798  0.1688 -2.2564  0.0209
 7627SOL     OW24887   9.795   9.152  10.416 -0.0073 -0.3012  0.3993
 7627SOL    HW124888   9.731   9.205  10.369  0.1314  0.6719  1.2594
 7627SOL    HW224889   9.880   9.189  10.393  0.1523 -0.6903  0.3495
 7628SOL     OW24890   7.666   7.418  10.190  0.2634 -0.2944 -0.2194
 7628SOL    HW124891   7.759   7.415  10.167  0.2664  0.0530 -0.2639
 7628SOL    HW224892   7.664   7.468  10.272  0.0914 -0.0611 -0.3646
 7629SOL     OW24893   0.423   8.159   1.189  0.5943  0.7030  0.1348
 7629SOL    HW124894   0.499   8.179   1.245  0.0803 -0.7332  1.4279
 7629SOL    HW224895   0.354   8.217   1.221  0.7063  0.9081  0.0072
 7630SOL     OW24896   0.726   2.487   0.342  0.4872 -0.2118 -0.1644
 7630SOL    HW124897   0.765   2.506   0.427 -1.1460  1.6942  0.2230
 7630SOL    HW224898   0.798   2.499   0.280  1.9199 -2.4221  0.9278
 7631SOL     OW24899   3.992   4.288   2.579  0.5297  0.3640 -0.0699
 7631SOL    HW124900   3.929   4.221   2.604 -1.1274  2.5051  1.9858
 7631SOL    HW224901   4.075   4.256   2.614  0.0838 -1.2108 -0.3467
 7632SOL     OW24902   6.562   0.600  10.547 -0.1493 -0.3994 -0.0377
 7632SOL    HW124903   6.637   0.549  10.577  0.4019  0.2790 -0.2164
 7632SOL    HW224904   6.599   0.686  10.527 -0.7433 -0.4051 -1.2787
 7633SOL     OW24905  10.284   6.996   9.037 -0.7703  0.8510 -0.2356
 7633SOL    HW124906  10.356   7.053   9.064 -1.0443  1.6080 -1.0305
 7633SOL    HW224907  10.307   6.910   9.071  1.4682  0.6332 -2.0884
 7634SOL     OW24908   2.043   1.975   4.015  0.7683 -0.2151 -0.3587
 7634SOL    HW124909   1.987   1.933   3.949  0.6630  0.0259 -0.4243
 7634SOL    HW224910   1.987   2.042   4.054  1.0676  0.1557 -0.5581
 7635SOL     OW24911   0.785   3.435   6.997 -0.3206 -0.5846 -0.3361
 7635SOL    HW124912   0.836   3.368   7.042 -0.7207 -1.6254 -1.3778
 7635SOL    HW224913   0.801   3.419   6.904 -0.2920  0.8845 -0.6216
 7636SOL     OW24914   4.060   2.618   6.628 -0.4417  0.5338 -0.4649
 7636SOL    HW124915   4.039   2.539   6.578 -1.7464  1.7424 -1.9165
 7636SOL    HW224916   4.135   2.656   6.582  1.9035 -1.0778  1.7172
 7637SOL     OW24917   2.675   6.560   2.118 -0.0275  0.0541  0.3502
 7637SOL    HW124918   2.645   6.543   2.207 -0.6170  0.1818  0.1817
 7637SOL    HW224919   2.610   6.517   2.063  0.9331 -0.9646 -0.0059
 7638SOL     OW24920   7.149  10.882   3.158  0.0464  0.1969 -0.6165
 7638SOL    HW124921   7.071  10.846   3.201 -0.7834  1.6786 -0.8270
 7638SOL    HW224922   7.142  10.853   3.067  0.7462 -1.2357 -0.2411
 7639SOL     OW24923  10.336  11.156   0.353 -0.0107  0.6830 -0.5479
 7639SOL    HW124924  10.417  11.139   0.304  0.3417 -0.5154  0.4074
 7639SOL    HW224925  10.296  11.070   0.365 -0.6662  1.0867  0.2683
 7640SOL     OW24926   5.826   3.105   9.649 -0.0447 -0.7808 -1.3938
 7640SOL    HW124927   5.823   3.025   9.596 -1.3878 -1.8144  0.1235
 7640SOL    HW224928   5.745   3.102   9.700  1.1049  0.2044  0.5998
 7641SOL     OW24929   0.272   6.122   2.669  0.3068 -0.4068 -0.2565
 7641SOL    HW124930   0.177   6.118   2.676  0.2143  0.1314 -1.0776
 7641SOL    HW224931   0.292   6.215   2.657  0.7944 -0.6581 -1.6765
 7642SOL     OW24932  10.249   7.779   7.997 -0.3462  0.2287  0.1254
 7642SOL    HW124933  10.291   7.765   7.913 -0.4327  1.4262 -0.1346
 7642SOL    HW224934  10.217   7.869   7.994  0.1854  0.5081  1.6616
 7643SOL     OW24935   7.390  10.350   8.810  0.0978 -0.3141  0.5844
 7643SOL    HW124936   7.334  10.355   8.732 -1.6949 -1.6486  1.7003
 7643SOL    HW224937   7.479  10.341   8.775 -0.2265  2.4786 -1.2651
 7644SOL     OW24938   6.067  10.899   2.777 -0.7481 -0.0708 -0.2305
 7644SOL    HW124939   6.025  10.984   2.790 -1.7624 -0.2760 -1.8083
 7644SOL    HW224940   6.130  10.914   2.706 -0.8512 -0.5933 -0.4403
 7645SOL     OW24941   8.060   4.442   7.745  0.6308  0.2225 -0.0134
 7645SOL    HW124942   8.033   4.363   7.699 -1.3152 -0.3456  1.8905
 7645SOL    HW224943   8.103   4.409   7.825  0.7528  1.0962  0.2900
 7646SOL     OW24944   2.252   3.503   8.316 -0.1677  0.4483  0.1005
 7646SOL    HW124945   2.300   3.500   8.234 -1.1204 -1.5210 -0.4418
 7646SOL    HW224946   2.197   3.581   8.309  1.4848  1.6308 -0.0825
 7647SOL     OW24947   1.100   9.455   7.166  0.5669  0.6883  0.2408
 7647SOL    HW124948   1.185   9.439   7.206  0.5673 -1.1629 -0.4200
 7647SOL    HW224949   1.084   9.379   7.111 -2.4489 -0.0677  1.9157
 7648SOL     OW24950   4.361   6.248   9.043 -0.0562  0.1779  0.3260
 7648SOL    HW124951   4.272   6.282   9.053 -0.1208  0.1446 -0.1500
 7648SOL    HW224952   4.405   6.312   8.987  0.1015 -0.0290  0.2152
 7649SOL     OW24953   3.831   0.162   5.119 -0.0841  0.5055  0.1179
 7649SOL    HW124954   3.749   0.201   5.089 -1.1227 -2.0749 -0.6641
 7649SOL    HW224955   3.863   0.221   5.187 -1.0094  3.1534 -1.5912
 7650SOL     OW24956   0.930   1.161   8.608 -0.4875  0.1531  0.3579
 7650SOL    HW124957   0.899   1.153   8.698  0.3669  1.1752  0.7730
 7650SOL    HW224958   0.888   1.240   8.575 -0.4143  0.0550  0.0263
 7651SOL     OW24959   6.085   4.438   8.398  0.0756 -0.3728 -0.2173
 7651SOL    HW124960   6.130   4.509   8.443  0.7569 -2.0804  1.9642
 7651SOL    HW224961   5.999   4.474   8.376 -0.0368  0.7880  1.8806
 7652SOL     OW24962   8.015  11.190   4.096 -0.1458 -0.2502 -0.1286
 7652SOL    HW124963   7.991  11.115   4.150  1.3926 -0.8767 -0.2900
 7652SOL    HW224964   8.040  11.258   4.159 -3.9177  1.1274  0.1710
 7653SOL     OW24965   0.507   5.590   7.974 -0.0292  0.3037  0.4622
 7653SOL    HW124966   0.474   5.541   8.049 -1.4980 -2.5305 -1.7938
 7653SOL    HW224967   0.435   5.648   7.949 -0.3588 -0.2701  0.0581
 7654SOL     OW24968   5.221   0.286   4.903  0.2253  0.1022 -0.0333
 7654SOL    HW124969   5.267   0.340   4.968  0.5067  1.4339 -1.2940
 7654SOL    HW224970   5.139   0.333   4.887 -0.8150 -1.3157  0.8594
 7655SOL     OW24971   9.821   3.567   2.377  0.6373  0.3865 -0.3302
 7655SOL    HW124972   9.770   3.546   2.299  1.2796  1.5200 -1.0795
 7655SOL    HW224973   9.762   3.545   2.450  0.5115 -1.9220 -1.0546
 7656SOL     OW24974   2.695   5.897   7.981  0.4571 -0.5824 -0.0141
 7656SOL    HW124975   2.626   5.886   7.916 -0.5209 -0.7828  1.0337
 7656SOL    HW224976   2.776   5.897   7.930 -0.3788  1.7820 -1.5379
 7657SOL     OW24977   9.964   8.051   8.875  0.1328 -0.0709  0.2810
 7657SOL    HW124978   9.899   8.053   8.945  0.7700  0.2796  0.8685
 7657SOL    HW224979  10.048   8.051   8.920  0.5526  0.1311 -0.4864
 7658SOL     OW24980   4.474   8.918   1.403 -0.3972  0.1022 -0.3479
 7658SOL    HW124981   4.396   8.969   1.427  0.9640  2.6873 -1.0758
 7658SOL    HW224982   4.468   8.909   1.308 -0.4273 -0.8143 -0.2676
 7659SOL     OW24983   7.474   3.819   4.570 -0.4785  0.2555 -0.0104
 7659SOL    HW124984   7.424   3.886   4.615 -1.1465  0.3381 -0.8601
 7659SOL    HW224985   7.517   3.865   4.498  0.3840  0.0769  0.3727
 7660SOL     OW24986   4.801  11.207   0.332  0.2732 -0.0265 -0.3792
 7660SOL    HW124987   4.863  11.177   0.266  1.7189  1.1955  0.3739
 7660SOL    HW224988   4.841  11.285   0.370  0.8824 -2.0660  3.7692
 7661SOL     OW24989   3.989   3.587   7.693  0.0641 -0.1262  0.4542
 7661SOL    HW124990   3.963   3.576   7.602 -1.4791  0.4737  0.7890
 7661SOL    HW224991   3.934   3.659   7.725 -0.1679 -0.9965  2.1289
 7662SOL     OW24992   0.356   6.951  10.504  0.2190 -0.3825  0.4036
 7662SOL    HW124993   0.410   6.882  10.464  0.3724 -1.4655  2.3981
 7662SOL    HW224994   0.337   6.919  10.592 -0.7002  1.6146  0.9752
 7663SOL     OW24995  11.245   6.320   0.462  0.7467 -0.2367 -0.2484
 7663SOL    HW124996  11.203   6.402   0.435 -0.8093 -1.1536 -0.7691
 7663SOL    HW224997  11.205   6.253   0.405  1.6027 -1.4292  0.5025
 7664SOL     OW24998  10.014   7.725  10.667  0.1690 -0.2434 -0.5129
 7664SOL    HW124999  10.057   7.793  10.616  0.2500 -0.0569 -0.2005
 7664SOL    HW225000  10.014   7.759  10.757 -0.0671 -0.5185 -0.4081
 7665SOL     OW25001   7.043   5.683   3.151 -0.1473  0.3954 -0.4271
 7665SOL    HW125002   7.084   5.750   3.205 -1.6658  1.9721 -1.1156
 7665SOL    HW225003   7.089   5.689   3.067  0.7732 -0.5594 -0.0095
 7666SOL     OW25004   2.563   7.794   9.859 -0.1518  0.3834  0.3629
 7666SOL    HW125005   2.562   7.875   9.808 -1.0027  0.3142  0.2601
 7666SOL    HW225006   2.647   7.753   9.837 -0.4151  0.4492 -0.8316
 7667SOL     OW25007   5.606   0.516   7.411 -0.2757 -0.5415  0.2628
 7667SOL    HW125008   5.606   0.519   7.315  0.1769 -1.1752  0.2352
 7667SOL    HW225009   5.543   0.583   7.437  1.2711  1.2936 -0.4234
 7668SOL     OW25010   9.936  11.135   6.671 -0.1547 -0.3869  0.2389
 7668SOL    HW125011   9.915  11.041   6.674 -3.1066  0.0964 -1.3883
 7668SOL    HW225012   9.916  11.166   6.759 -0.6625 -1.0393  0.3685
 7669SOL     OW25013   5.974   0.681   2.559 -0.0112 -1.1779 -0.4163
 7669SOL    HW125014   6.006   0.720   2.640 -0.7658 -0.7710 -0.3122
 7669SOL    HW225015   5.970   0.587   2.578  1.1978 -1.2582 -0.4635
 7670SOL     OW25016   2.128   9.442   9.286  0.1688 -0.0356 -0.2985
 7670SOL    HW125017   2.083   9.357   9.286  1.6385 -0.8501  0.6825
 7670SOL    HW225018   2.083   9.493   9.218 -1.0192 -1.4434 -0.6095
 7671SOL     OW25019  10.570   1.989   6.712 -0.0704 -0.3966 -0.3525
 7671SOL    HW125020  10.524   2.058   6.665  0.0155  0.9658  1.4270
 7671SOL    HW225021  10.509   1.963   6.782 -0.3639 -2.6181 -1.3424
 7672SOL     OW25022   6.739   2.169   6.104  0.4544 -0.1864  0.3514
 7672SOL    HW125023   6.690   2.247   6.126  0.5274  0.5236 -1.7792
 7672SOL    HW225024   6.693   2.131   6.029  2.7399  0.2008 -1.3730
 7673SOL     OW25025   4.725   7.455  10.401  0.1976 -0.3773  0.2979
 7673SOL    HW125026   4.775   7.390  10.449 -1.1645 -0.5349  1.5672
 7673SOL    HW225027   4.729   7.426  10.310  1.2219 -1.1291  0.5628
 7674SOL     OW25028   5.533   5.222   0.657  0.5656 -0.5247 -0.6699
 7674SOL    HW125029   5.445   5.196   0.684  0.3609 -0.7307 -1.4861
 7674SOL    HW225030   5.588   5.147   0.681  0.3110 -0.8971 -1.2108
 7675SOL     OW25031   4.640   9.317   3.753  0.3289 -0.6225 -0.1980
 7675SOL    HW125032   4.547   9.300   3.737 -0.0838  0.9186  0.4336
 7675SOL    HW225033   4.673   9.234   3.789 -1.0375 -0.8719  0.5568
 7676SOL     OW25034   7.671   6.511   4.685  0.4673  0.7484  0.7903
 7676SOL    HW125035   7.758   6.533   4.653  0.3745 -0.2632 -0.2418
 7676SOL    HW225036   7.637   6.448   4.621 -0.7856  0.6720  1.4912
 7677SOL     OW25037  10.861   3.356   8.756 -0.0733 -0.0943  0.0137
 7677SOL    HW125038  10.865   3.278   8.700 -4.5392 -0.6915  0.2356
 7677SOL    HW225039  10.871   3.429   8.695 -2.7424 -0.7820 -1.4017
 7678SOL     OW25040   4.141   9.883   3.317 -0.6413 -0.3733  0.1017
 7678SOL    HW125041   4.140   9.815   3.384 -0.4132 -0.6405 -0.1612
 7678SOL    HW225042   4.074   9.857   3.254 -1.8403  0.6159  0.9339
 7679SOL     OW25043  10.590   5.635   4.621  0.5757 -0.6045  0.6117
 7679SOL    HW125044  10.529   5.706   4.643  0.7807 -0.5618  1.0509
 7679SOL    HW225045  10.669   5.655   4.671  0.7418 -0.9825  0.5033
 7680SOL     OW25046   2.717   8.404  10.668  0.5546 -0.8619  0.1695
 7680SOL    HW125047   2.716   8.366  10.580  0.0258 -0.4490 -0.0092
 7680SOL    HW225048   2.675   8.490  10.658  2.1203 -0.0288  0.4813
 7681SOL     OW25049   3.368   4.593   3.124 -0.2866 -0.2547 -0.5055
 7681SOL    HW125050   3.405   4.528   3.064  1.2565 -0.4213  0.5781
 7681SOL    HW225051   3.422   4.671   3.112 -2.2225  0.9730 -1.9192
 7682SOL     OW25052   1.045   7.163   0.641  0.7010  0.1450 -0.3196
 7682SOL    HW125053   1.012   7.090   0.588  1.2135  0.2819 -0.8434
 7682SOL    HW225054   0.987   7.236   0.621 -0.8450 -0.5125  1.4578
 7683SOL     OW25055   2.825   6.311   0.401 -0.1877 -0.0226 -0.2405
 7683SOL    HW125056   2.863   6.231   0.364 -1.3511  0.1669 -1.9614
 7683SOL    HW225057   2.854   6.380   0.341 -1.0420  0.4982 -0.0634
 7684SOL     OW25058  10.226   7.827   8.945 -0.3394 -0.3602 -0.9349
 7684SOL    HW125059  10.176   7.875   8.880 -0.9244  1.3368  0.6693
 7684SOL    HW225060  10.216   7.735   8.921 -1.9732  0.1134 -2.2166
 7685SOL     OW25061   3.094   9.415   8.157  0.6510  0.1901  0.1972
 7685SOL    HW125062   3.111   9.338   8.211  1.0200  0.5152  0.5516
 7685SOL    HW225063   3.097   9.488   8.218  0.9641  0.5542 -0.2490
 7686SOL     OW25064   8.194   2.788   2.159 -0.2209 -0.0565 -0.9525
 7686SOL    HW125065   8.289   2.783   2.153 -0.0686  1.4836 -0.3035
 7686SOL    HW225066   8.168   2.843   2.085 -0.5773 -0.1303 -0.8851
 7687SOL     OW25067   5.352   6.685   3.244  0.2887  0.2559 -0.2785
 7687SOL    HW125068   5.439   6.678   3.206  1.3991 -1.1367  2.2557
 7687SOL    HW225069   5.294   6.648   3.178  1.8387 -0.4362 -1.3178
 7688SOL     OW25070   1.577   3.726   0.289 -0.2795 -0.1417  0.0308
 7688SOL    HW125071   1.534   3.659   0.343 -0.6802 -1.4328 -1.7709
 7688SOL    HW225072   1.670   3.707   0.296 -0.2270  0.4989  1.2375
 7689SOL     OW25073   7.505  10.984   4.381 -0.1898  0.1693 -0.3348
 7689SOL    HW125074   7.596  11.011   4.395 -0.5820  1.0429  0.6791
 7689SOL    HW225075   7.499  10.966   4.287  0.6372  1.7112 -0.7209
 7690SOL     OW25076   4.575   8.065   6.250  0.2986  0.1348  0.3492
 7690SOL    HW125077   4.637   7.991   6.251 -0.3654 -0.4491 -0.2475
 7690SOL    HW225078   4.502   8.034   6.196 -1.1704  0.2789  2.1774
 7691SOL     OW25079   1.960   9.495   6.986 -0.5673  0.2681 -1.2204
 7691SOL    HW125080   1.905   9.558   6.940  0.6012  1.5716 -0.8832
 7691SOL    HW225081   1.956   9.521   7.078 -0.7948 -0.7194 -0.9345
 7692SOL     OW25082   2.607   1.690   5.914 -0.2008 -0.2425 -0.0599
 7692SOL    HW125083   2.558   1.770   5.930  0.0264  0.0015 -0.5450
 7692SOL    HW225084   2.579   1.630   5.982 -0.0808  0.3825  0.5519
 7693SOL     OW25085   1.471   8.659   9.487  0.2587  0.3409 -0.4523
 7693SOL    HW125086   1.438   8.719   9.554  1.8465 -0.2526  0.9556
 7693SOL    HW225087   1.411   8.585   9.489  1.5617 -0.8038  2.1834
 7694SOL     OW25088   9.354   4.448   8.554  0.1093 -0.2805 -0.1008
 7694SOL    HW125089   9.296   4.455   8.630  0.1088 -1.1018 -0.0117
 7694SOL    HW225090   9.423   4.512   8.570 -1.3854  1.6068 -0.7872
 7695SOL     OW25091   4.429   3.399   3.307  0.2176 -0.1696 -0.0943
 7695SOL    HW125092   4.512   3.447   3.313 -0.4393  0.9404  0.3651
 7695SOL    HW225093   4.382   3.441   3.235 -1.0255  0.9443  1.3340
 7696SOL     OW25094   2.493   7.159   1.969 -0.7420 -0.0941 -0.1699
 7696SOL    HW125095   2.435   7.164   1.893 -1.9478  1.4366  0.8027
 7696SOL    HW225096   2.562   7.223   1.951 -0.8077 -0.0140 -0.1340
 7697SOL     OW25097   1.216   9.221   3.146  0.4681  0.6902  0.7018
 7697SOL    HW125098   1.148   9.284   3.168  0.1756  1.6560 -2.4278
 7697SOL    HW225099   1.294   9.275   3.131  0.8309  0.0496  0.2340
 7698SOL     OW25100   2.433   1.516   9.093  0.0381  1.0222  0.5046
 7698SOL    HW125101   2.429   1.443   9.031 -1.2499  1.3785  0.1452
 7698SOL    HW225102   2.513   1.563   9.070  1.2156 -0.5736  1.1102
 7699SOL     OW25103   5.405   7.810   6.616 -0.0085  0.0963  0.4249
 7699SOL    HW125104   5.415   7.725   6.573  0.5108 -0.5799  1.8376
 7699SOL    HW225105   5.458   7.804   6.695  0.7003  2.0399  0.1567
 7700SOL     OW25106  10.502   0.844   4.835  0.1028 -0.3584  0.2509
 7700SOL    HW125107  10.516   0.763   4.885  0.9629 -1.8762 -2.2569
 7700SOL    HW225108  10.585   0.858   4.789  0.5159  2.8775  1.7165
 7701SOL     OW25109   0.193   7.811   7.508 -0.1224 -0.0924 -0.0555
 7701SOL    HW125110   0.254   7.885   7.510 -1.1253  0.7568  0.0638
 7701SOL    HW225111   0.107   7.852   7.497 -0.4961 -1.3767 -2.5703
 7702SOL     OW25112   1.795   7.486   1.438  0.1207 -0.1118  0.1844
 7702SOL    HW125113   1.733   7.421   1.405 -1.7994  0.7803  1.8152
 7702SOL    HW225114   1.858   7.435   1.489 -0.3306 -0.8574  0.0164
 7703SOL     OW25115   4.417   2.456   1.048 -0.1837 -0.7011 -0.4887
 7703SOL    HW125116   4.485   2.522   1.056 -0.7882 -0.2384  1.3375
 7703SOL    HW225117   4.345   2.500   1.003 -0.7480  0.0762  1.0995
 7704SOL     OW25118   0.105   8.544  10.646 -0.0262 -0.6553  0.4440
 7704SOL    HW125119   0.095   8.525  10.739  1.3309 -0.2821  0.6839
 7704SOL    HW225120   0.135   8.634  10.642  0.4259 -0.8290 -0.3329
 7705SOL     OW25121   2.302   1.593  10.152 -0.2995  0.6103 -0.4987
 7705SOL    HW125122   2.343   1.606  10.238 -1.2449 -1.1033  0.2448
 7705SOL    HW225123   2.247   1.670  10.140 -2.4297 -0.4024  1.8179
 7706SOL     OW25124   7.801   5.784   4.075  0.1999  0.4200  0.0623
 7706SOL    HW125125   7.775   5.723   4.144 -1.1804  1.3795  0.4361
 7706SOL    HW225126   7.790   5.734   3.993 -2.5761  0.6002  0.2121
 7707SOL     OW25127   8.223   6.198   1.938  0.7730 -0.0904 -0.1345
 7707SOL    HW125128   8.174   6.129   1.895 -0.2789  1.0238 -0.7675
 7707SOL    HW225129   8.164   6.273   1.939  2.5139  1.3659 -1.1221
 7708SOL     OW25130   2.585   3.672   3.695  0.0922  0.0796  0.2009
 7708SOL    HW125131   2.613   3.590   3.655 -0.0867 -0.1644  0.5742
 7708SOL    HW225132   2.547   3.723   3.623 -0.4304 -0.4476  0.0968
 7709SOL     OW25133  10.380   5.856   7.601  0.2561  0.0613  0.0016
 7709SOL    HW125134  10.403   5.787   7.539  0.5526  0.3070 -0.1669
 7709SOL    HW225135  10.284   5.859   7.600  0.2636  0.6637 -1.1187
 7710SOL     OW25136   9.905   6.377   2.579 -0.3245 -0.4120 -0.3729
 7710SOL    HW125137   9.826   6.337   2.543  0.7166 -1.5749 -1.4668
 7710SOL    HW225138   9.950   6.305   2.623  1.0187 -0.2386 -1.3851
 7711SOL     OW25139   7.308  10.486   4.602  0.5907 -0.3141  0.2839
 7711SOL    HW125140   7.314  10.469   4.508  0.8585  0.5707  0.1302
 7711SOL    HW225141   7.286  10.401   4.640 -1.3732 -0.3447 -0.7644
 7712SOL     OW25142   7.933   4.887   4.328  0.4329  0.6646 -0.2977
 7712SOL    HW125143   7.984   4.865   4.406 -0.1069 -1.6350 -0.4948
 7712SOL    HW225144   7.847   4.848   4.346 -0.2873  1.7660 -1.2636
 7713SOL     OW25145   3.625   7.085   5.744 -0.3108 -0.2041 -0.1396
 7713SOL    HW125146   3.677   7.009   5.719 -0.4717  0.2524 -2.0006
 7713SOL    HW225147   3.588   7.062   5.829  0.7980 -1.6042 -0.0055
 7714SOL     OW25148   3.565   1.402   4.865 -0.5500  1.3383  0.3546
 7714SOL    HW125149   3.613   1.423   4.945  0.5753 -2.4063  0.8987
 7714SOL    HW225150   3.494   1.345   4.894  1.6762 -2.7461 -1.2853
 7715SOL     OW25151   3.396  11.072   6.562  0.0163 -0.1189 -0.7522
 7715SOL    HW125152   3.321  11.029   6.604 -0.7474  2.1633  0.4092
 7715SOL    HW225153   3.472  11.024   6.594 -0.6382  0.7243  2.4313
 7716SOL     OW25154   2.016   8.317  10.289  0.1025  0.2745 -0.5118
 7716SOL    HW125155   2.084   8.263  10.249 -1.3578  0.4500 -3.4548
 7716SOL    HW225156   1.990   8.268  10.368  0.6934 -1.9504 -1.6139
 7717SOL     OW25157   9.845  11.011   9.801 -0.0430 -0.0724 -0.2117
 7717SOL    HW125158   9.879  11.034   9.887 -0.7224 -0.3711  0.1460
 7717SOL    HW225159   9.766  11.066   9.791 -0.9560 -1.2842  0.1104
 7718SOL     OW25160  11.208  11.170  11.280  0.1110  0.1843  0.2380
 7718SOL    HW125161  11.138  11.174  11.344 -0.4904 -0.5474 -0.3569
 7718SOL    HW225162  11.170  11.125  11.205  0.6014  1.5570 -0.8914
 7719SOL     OW25163   9.413   9.925   3.020  0.5484 -0.3066 -0.1390
 7719SOL    HW125164   9.369   9.963   3.096  1.9046  1.3411 -0.1246
 7719SOL    HW225165   9.342   9.910   2.957 -0.2328  0.9639  0.3917
 7720SOL     OW25166   7.522   8.419  11.028 -0.3265  1.2157  0.4342
 7720SOL    HW125167   7.476   8.355  11.082  0.0369  0.8184  0.2834
 7720SOL    HW225168   7.530   8.376  10.942 -0.4278  1.6233  0.2199
 7721SOL     OW25169   3.732   1.019   1.045 -0.2400  0.7903  0.3432
 7721SOL    HW125170   3.794   1.080   1.086  0.9060 -0.3493  0.3745
 7721SOL    HW225171   3.693   1.069   0.974 -2.0579  2.7408  2.5589
 7722SOL     OW25172   4.642   9.406   2.848  0.1746  0.2363  0.2585
 7722SOL    HW125173   4.547   9.407   2.851  0.1947  1.9889  1.7696
 7722SOL    HW225174   4.667   9.497   2.832  1.6036  0.1012  1.4953
 7723SOL     OW25175  10.291   2.370   7.230 -0.4625  0.0509  0.0777
 7723SOL    HW125176  10.381   2.380   7.200 -1.2110  0.8492 -2.0200
 7723SOL    HW225177  10.250   2.313   7.165 -2.3046  2.3386 -0.8669
 7724SOL     OW25178   4.021   2.039   4.342 -0.2684 -0.2054 -0.0366
 7724SOL    HW125179   4.015   1.953   4.300  1.6815 -0.0450 -0.7730
 7724SOL    HW225180   4.098   2.033   4.398  1.6861  1.8700 -2.2752
 7725SOL     OW25181   6.760   8.239   6.222  0.6796 -0.5513 -0.8685
 7725SOL    HW125182   6.821   8.166   6.234 -0.3596 -1.3866 -0.4686
 7725SOL    HW225183   6.702   8.210   6.151 -0.5551 -0.7011  0.1718
 7726SOL     OW25184   6.159   9.350   6.840 -0.9209 -0.0691  0.8832
 7726SOL    HW125185   6.090   9.355   6.773 -0.2358 -1.8843 -0.0208
 7726SOL    HW225186   6.209   9.272   6.816  1.3881  1.1278  1.5670
 7727SOL     OW25187   0.145   1.090  10.078 -0.2847 -0.7785  0.0144
 7727SOL    HW125188   0.176   1.011  10.121 -0.5943 -0.9099 -0.0017
 7727SOL    HW225189   0.107   1.142  10.149 -0.4376 -0.8192 -0.0382
 7728SOL     OW25190   2.529   6.161   3.748 -0.2638  0.0265  0.0238
 7728SOL    HW125191   2.573   6.195   3.826  0.1420  0.1525 -0.2550
 7728SOL    HW225192   2.436   6.170   3.767 -0.2050 -1.3341  1.1125
 7729SOL     OW25193   0.046   0.497   7.392  0.7574 -0.1748  0.0122
 7729SOL    HW125194  -0.027   0.487   7.330  0.5676  2.1189 -0.1898
 7729SOL    HW225195   0.105   0.559   7.350  1.1430  0.6279  1.6621
 7730SOL     OW25196   8.596   7.472   9.411  0.1688  0.7232  0.1945
 7730SOL    HW125197   8.502   7.459   9.407  0.0223  1.8721 -2.5451
 7730SOL    HW225198   8.611   7.553   9.363  2.7046 -0.6751 -1.6535
 7731SOL     OW25199   5.246   8.219   3.707 -0.4708 -0.2342 -0.5225
 7731SOL    HW125200   5.232   8.313   3.701  0.2755 -0.1161 -0.5009
 7731SOL    HW225201   5.281   8.194   3.622  0.7143 -0.2368 -0.0489
 7732SOL     OW25202  11.217  10.925   9.516 -0.1005  0.0701 -0.2619
 7732SOL    HW125203  11.140  10.934   9.460  0.6236 -1.4660 -1.5819
 7732SOL    HW225204  11.182  10.908   9.603 -1.3535 -2.6120 -1.1742
 7733SOL     OW25205   6.388   7.721   4.227 -0.1170  0.8627  0.2713
 7733SOL    HW125206   6.305   7.680   4.250 -0.2590  1.1315  0.2320
 7733SOL    HW225207   6.454   7.660   4.259 -0.3292  0.5631  0.1482
 7734SOL     OW25208   3.626   8.038  10.576  0.1278 -0.0956 -0.6272
 7734SOL    HW125209   3.614   8.037  10.481 -1.0125  0.7631 -0.5175
 7734SOL    HW225210   3.682   7.962  10.595  2.0886  0.8714 -2.1832
 7735SOL     OW25211   9.954   2.627   1.035 -0.2643  0.6855  0.5000
 7735SOL    HW125212   9.866   2.623   1.072 -0.0497 -1.3994  0.9561
 7735SOL    HW225213  10.012   2.614   1.110  0.2994 -0.5787 -0.1251
 7736SOL     OW25214  10.713   2.972   5.672  0.2588 -0.0920  0.1112
 7736SOL    HW125215  10.705   2.911   5.599 -1.7655 -0.9254  0.9438
 7736SOL    HW225216  10.745   2.918   5.745  1.1436  0.4682  0.1393
 7737SOL     OW25217   5.311   9.381   3.773 -0.1801 -0.3478  0.2491
 7737SOL    HW125218   5.247   9.369   3.702 -0.5620 -2.4851  0.8743
 7737SOL    HW225219   5.261   9.424   3.843 -0.6197 -0.8905  0.2782
 7738SOL     OW25220   4.657   8.517   4.877  0.6038 -0.3487 -0.2101
 7738SOL    HW125221   4.649   8.456   4.950  2.3738 -1.0534 -0.5413
 7738SOL    HW225222   4.572   8.560   4.872  0.7032  0.4732  2.8929
 7739SOL     OW25223   3.853   6.487   8.716  0.0141 -0.5770 -0.2859
 7739SOL    HW125224   3.840   6.449   8.629 -0.7140 -0.0209 -0.4250
 7739SOL    HW225225   3.926   6.548   8.705 -0.5688  0.0595 -0.6943
 7740SOL     OW25226  10.944   0.718   4.521 -0.4791 -0.4421 -0.2726
 7740SOL    HW125227  11.011   0.773   4.482 -0.4995  0.0797  0.3999
 7740SOL    HW225228  10.992   0.650   4.568 -0.4558 -1.0480 -1.1526
 7741SOL     OW25229   4.731   1.918   4.636 -0.2314 -0.2432  0.6963
 7741SOL    HW125230   4.798   1.864   4.593  0.2826  1.8365 -1.3148
 7741SOL    HW225231   4.702   1.865   4.710 -0.2117 -3.5390 -1.4451
 7742SOL     OW25232   5.414   1.403   9.520  0.0816 -0.0890  0.3550
 7742SOL    HW125233   5.487   1.371   9.572  0.0119 -0.7667  0.0516
 7742SOL    HW225234   5.339   1.401   9.579  0.4931  1.6577  1.0033
 7743SOL     OW25235   5.607   8.156   0.116  0.3761  0.4816 -0.3002
 7743SOL    HW125236   5.628   8.249   0.120 -0.4523  0.6783 -0.3166
 7743SOL    HW225237   5.643   8.120   0.197 -0.4869  1.0836  0.3766
 7744SOL     OW25238   6.969   9.609   8.138  0.2848  0.6877  0.1337
 7744SOL    HW125239   6.997   9.559   8.215  1.4648 -0.3759 -0.9281
 7744SOL    HW225240   6.874   9.596   8.134  0.3629 -0.2076  0.7620
 7745SOL     OW25241   9.003   9.489   4.469 -0.0498 -0.1142  0.2055
 7745SOL    HW125242   9.096   9.468   4.456 -0.2671 -0.2826 -1.2803
 7745SOL    HW225243   8.962   9.465   4.386 -1.1613  1.4940  0.2474
 7746SOL     OW25244   2.088   9.942   9.800 -0.2499  0.1921 -0.2946
 7746SOL    HW125245   2.055   9.861   9.841  1.0590 -0.7898 -1.1102
 7746SOL    HW225246   2.142   9.983   9.868  0.5317 -0.5490 -0.4580
 7747SOL     OW25247   5.195   5.282   5.791  0.0159  0.0006 -0.5897
 7747SOL    HW125248   5.129   5.232   5.742  1.7376 -3.5712  0.3593
 7747SOL    HW225249   5.242   5.331   5.724 -2.8659  1.9819 -1.3868
 7748SOL     OW25250   0.390   5.301  10.975  0.1105 -0.0064  0.7856
 7748SOL    HW125251   0.481   5.294  11.004 -0.2023  1.5906  2.2923
 7748SOL    HW225252   0.394   5.283  10.881  2.0083  0.1731  0.7923
 7749SOL     OW25253   5.018   3.951   6.477 -0.9667 -0.2210 -0.1860
 7749SOL    HW125254   5.003   4.037   6.438  1.0184 -1.0178 -3.0183
 7749SOL    HW225255   5.056   3.971   6.563  0.5104  1.7984 -1.2216
 7750SOL     OW25256   4.060   5.800   2.524  0.3156  0.8009 -0.2127
 7750SOL    HW125257   4.113   5.857   2.580  0.3697  2.8988 -2.2618
 7750SOL    HW225258   4.100   5.806   2.438 -1.2886 -0.2523 -1.0786
 7751SOL     OW25259   7.579   5.909   4.596  0.2681 -0.4194 -0.5520
 7751SOL    HW125260   7.582   5.963   4.517  3.1283  0.0876 -0.2014
 7751SOL    HW225261   7.500   5.937   4.642  1.3340  3.1537 -0.6467
 7752SOL     OW25262   4.673   9.434   7.193 -0.0433 -0.1142  0.2295
 7752SOL    HW125263   4.761   9.467   7.176  0.0104  1.6437  3.1877
 7752SOL    HW225264   4.637   9.416   7.106  2.7746  0.2697 -1.1338
 7753SOL     OW25265   7.657   9.020   0.438  0.2890  0.1305  0.5241
 7753SOL    HW125266   7.640   9.003   0.346  0.7099  1.5667  0.1472
 7753SOL    HW225267   7.622   8.944   0.484  0.0173 -0.5734 -0.8091
 7754SOL     OW25268  10.523   8.737   8.311 -0.3713 -0.2041 -0.1463
 7754SOL    HW125269  10.441   8.778   8.284 -0.5432 -0.5483 -0.1517
 7754SOL    HW225270  10.568   8.804   8.362  0.2413  0.6797 -1.7779
 7755SOL     OW25271   7.230  10.025   3.228 -0.0844 -0.3556 -0.1821
 7755SOL    HW125272   7.140  10.014   3.198 -0.9434  1.2117  1.5641
 7755SOL    HW225273   7.265   9.936   3.235 -2.8268 -1.3757  2.7444
 7756SOL     OW25274   8.270   4.643  10.108 -0.4563  0.1170 -0.3112
 7756SOL    HW125275   8.314   4.689  10.180 -2.3844 -2.2013  2.5891
 7756SOL    HW225276   8.309   4.556  10.108 -0.9759 -0.1365 -1.6911
 7757SOL     OW25277  10.894   1.568   4.886  0.7139  0.1329  0.5377
 7757SOL    HW125278  10.859   1.554   4.974  0.3668 -2.0611  0.0980
 7757SOL    HW225279  10.895   1.663   4.876 -2.0310  0.3909  1.8052
 7758SOL     OW25280   4.266   4.113  11.091  0.4250 -0.3157 -0.1196
 7758SOL    HW125281   4.226   4.190  11.051  3.2146  0.7628 -1.0399
 7758SOL    HW225282   4.266   4.132  11.185  1.0339  0.8072 -0.3337
 7759SOL     OW25283   3.916   8.364   3.425 -0.5674 -0.3067 -0.0715
 7759SOL    HW125284   3.984   8.306   3.390 -0.8964 -1.0564  0.5172
 7759SOL    HW225285   3.937   8.450   3.387  1.3580 -0.2666  0.9348
 7760SOL     OW25286   1.326   5.588   0.423 -0.0958  0.1792 -0.1323
 7760SOL    HW125287   1.342   5.652   0.353  0.7930  0.4366  0.2974
 7760SOL    HW225288   1.413   5.557   0.448 -0.3672  0.3631  1.1135
 7761SOL     OW25289   0.973  10.632  10.143  0.4284  0.1224  0.1364
 7761SOL    HW125290   1.015  10.629  10.057 -0.3096  2.4697 -0.3935
 7761SOL    HW225291   0.883  10.604  10.126  0.0970  1.2355 -0.0286
 7762SOL     OW25292   9.447   2.570   0.664 -0.0155  0.3968 -0.6594
 7762SOL    HW125293   9.365   2.546   0.707 -1.2419  0.9975 -2.5176
 7762SOL    HW225294   9.506   2.496   0.679 -0.6055  0.3040  1.3798
 7763SOL     OW25295   2.172  10.908   2.315  0.0698 -0.2908  0.5615
 7763SOL    HW125296   2.230  10.973   2.354  1.2479 -1.6991  1.2118
 7763SOL    HW225297   2.228  10.833   2.297 -0.8358 -0.4477 -2.0421
 7764SOL     OW25298   2.881   6.529   5.813  0.2954  0.4230  0.1541
 7764SOL    HW125299   2.793   6.538   5.850  0.4587 -0.1411  0.7037
 7764SOL    HW225300   2.899   6.614   5.772 -0.3227  0.6944  0.4359
 7765SOL     OW25301   1.597   9.245   9.283  0.2382 -0.0201  0.3987
 7765SOL    HW125302   1.518   9.263   9.231 -0.0192  0.2791  0.8890
 7765SOL    HW225303   1.637   9.331   9.294 -0.9179  0.2890  2.6399
 7766SOL     OW25304   9.321   7.628   5.574  0.0282  0.2109 -0.1349
 7766SOL    HW125305   9.245   7.625   5.515 -0.2972 -0.8229  0.3199
 7766SOL    HW225306   9.382   7.563   5.537 -1.0206 -1.9822  1.7532
 7767SOL     OW25307   0.035  10.805   2.425  0.3955  0.4221 -0.5139
 7767SOL    HW125308  -0.004  10.763   2.502 -1.8430  0.4300 -1.5547
 7767SOL    HW225309  -0.013  10.888   2.415  0.9347  0.6283 -1.6749
 7768SOL     OW25310   1.606   1.429   6.779 -0.6280  0.3422  0.0467
 7768SOL    HW125311   1.621   1.414   6.686 -2.0022  0.3317 -0.1888
 7768SOL    HW225312   1.654   1.509   6.798  0.2780 -0.0620 -0.4908
 7769SOL     OW25313   2.731  10.419   4.826 -0.7304  0.6275 -0.3656
 7769SOL    HW125314   2.662  10.485   4.818 -1.1117  0.1656 -1.0252
 7769SOL    HW225315   2.719  10.381   4.913 -0.5326  1.3937  0.0001
 7770SOL     OW25316   8.497   9.992   3.795  0.0344 -0.5813  0.5800
 7770SOL    HW125317   8.522   9.935   3.723  1.1960 -1.1251  1.3797
 7770SOL    HW225318   8.427  10.048   3.759  1.6662  0.2809 -1.4574
 7771SOL     OW25319   8.640   5.789   0.583 -0.3137 -0.4691 -0.0494
 7771SOL    HW125320   8.695   5.864   0.559  0.8621 -1.7270 -1.4501
 7771SOL    HW225321   8.559   5.802   0.533  0.6694 -1.1243 -1.8964
 7772SOL     OW25322   9.696   7.880  10.054 -0.1222 -0.6677 -0.3085
 7772SOL    HW125323   9.685   7.832   9.971 -1.5679 -1.5329  0.3404
 7772SOL    HW225324   9.621   7.940  10.056 -1.4524 -2.2611  1.3717
 7773SOL     OW25325  10.289   2.647   4.290 -0.2645  0.4283  0.2755
 7773SOL    HW125326  10.311   2.563   4.250  0.8708  1.4021 -1.2589
 7773SOL    HW225327  10.273   2.706   4.216 -0.0327  1.8117  1.2778
 7774SOL     OW25328   6.362   9.791   5.962  0.1460  0.0805 -0.3627
 7774SOL    HW125329   6.373   9.885   5.946 -1.6141  0.8277  2.1241
 7774SOL    HW225330   6.272   9.773   5.934  0.6501 -1.0232 -1.3236
 7775SOL     OW25331   8.151  10.679   9.333 -0.7472  0.8029 -0.5627
 7775SOL    HW125332   8.231  10.632   9.310 -1.1392  0.6904 -1.7635
 7775SOL    HW225333   8.157  10.761   9.284 -1.4726  0.6855 -0.8692
 7776SOL     OW25334   1.102   1.117   9.479  0.4058  0.2738 -0.5310
 7776SOL    HW125335   1.025   1.079   9.521  0.7316  1.0083  0.7727
 7776SOL    HW225336   1.127   1.053   9.412 -1.2247 -0.0536 -0.8614
 7777SOL     OW25337   6.159  10.476   7.117 -0.5322 -0.2399  0.1257
 7777SOL    HW125338   6.216  10.509   7.048  0.6252 -0.5613  0.8996
 7777SOL    HW225339   6.101  10.550   7.138  1.7708  1.2686  1.5733
 7778SOL     OW25340   2.731   0.258   2.806 -0.3867  0.3149  0.7022
 7778SOL    HW125341   2.680   0.203   2.865 -2.2427 -0.5735 -1.5235
 7778SOL    HW225342   2.706   0.347   2.828 -0.1970  0.0745  1.9318
 7779SOL     OW25343   2.941   2.677   6.338  0.3324 -0.0580  0.0384
 7779SOL    HW125344   2.993   2.692   6.259  1.2536 -0.2544  0.5920
 7779SOL    HW225345   2.934   2.763   6.379  1.6415 -0.3051  0.8119
 7780SOL     OW25346   6.825   0.223  10.984  0.5698 -0.7555  0.0943
 7780SOL    HW125347   6.857   0.285  10.919 -2.4652 -0.0599 -0.8797
 7780SOL    HW225348   6.835   0.268  11.068 -1.1594  0.9592 -0.5506
 7781SOL     OW25349   6.313  10.343   7.894  0.0213 -0.0818  0.0570
 7781SOL    HW125350   6.294  10.400   7.820 -1.8780 -0.6088  0.0636
 7781SOL    HW225351   6.232  10.293   7.906  1.2997 -2.1652  0.5865
 7782SOL     OW25352   9.541   5.420   4.310  0.1763  0.1720 -0.0726
 7782SOL    HW125353   9.543   5.345   4.250 -1.3041 -0.3456  0.4649
 7782SOL    HW225354   9.574   5.385   4.393 -0.7826  0.0127  0.2565
 7783SOL     OW25355   5.919   7.957   9.297 -0.3258 -0.7244 -0.0186
 7783SOL    HW125356   5.973   7.879   9.290  0.7345 -0.1298  1.0872
 7783SOL    HW225357   5.947   8.013   9.224 -0.0899 -0.7857  0.0269
 7784SOL     OW25358   7.883  10.066  10.610  0.2123 -0.1702  0.7212
 7784SOL    HW125359   7.813  10.121  10.644  0.5737  0.3861  0.5788
 7784SOL    HW225360   7.907  10.105  10.526  1.7381  0.5918  1.4565
 7785SOL     OW25361   4.032  10.933   1.742  0.0634 -0.1522 -0.0628
 7785SOL    HW125362   4.122  10.923   1.773 -0.0715  2.4356  1.4350
 7785SOL    HW225363   4.040  10.988   1.664 -0.2170  0.9227  0.6305
 7786SOL     OW25364  10.633   8.362   1.889  0.0304 -0.0443 -0.5250
 7786SOL    HW125365  10.617   8.431   1.953  1.9366  0.3378 -0.3822
 7786SOL    HW225366  10.570   8.294   1.909  0.7636 -0.0582  1.9732
 7787SOL     OW25367   9.448   0.842   6.159  0.0072 -0.3848 -0.4115
 7787SOL    HW125368   9.419   0.895   6.085 -0.0934 -0.3393 -0.3385
 7787SOL    HW225369   9.540   0.822   6.139  0.0216 -0.2504 -0.4764
 7788SOL     OW25370   8.760  10.646   5.251 -0.0411 -0.4380  0.0209
 7788SOL    HW125371   8.768  10.566   5.303  0.8306 -0.4769 -0.1559
 7788SOL    HW225372   8.765  10.615   5.160 -0.4570 -0.2615 -0.0607
 7789SOL     OW25373   9.373  10.969  10.025 -0.2597  0.5259 -0.1042
 7789SOL    HW125374   9.461  11.000  10.046  0.1239 -1.2904  1.2269
 7789SOL    HW225375   9.381  10.873  10.025 -2.1943  0.3341 -0.0966
 7790SOL     OW25376   0.799  10.730   5.099 -0.1359 -0.3071  0.4222
 7790SOL    HW125377   0.820  10.823   5.108  0.6779 -0.2691 -1.5023
 7790SOL    HW225378   0.764  10.706   5.185  1.4254  1.2954  1.5861
 7791SOL     OW25379   8.873   5.099   7.686  0.1171 -0.0572  0.3853
 7791SOL    HW125380   8.928   5.090   7.609 -1.1362 -1.5904 -0.3879
 7791SOL    HW225381   8.793   5.141   7.655 -1.5146 -3.0255  0.1436
 7792SOL     OW25382   4.249  11.089   1.905 -0.1500 -0.4406 -0.1384
 7792SOL    HW125383   4.177  11.053   1.956 -1.0638  0.9670 -0.3730
 7792SOL    HW225384   4.328  11.049   1.943 -0.9171 -0.6229  1.3376
 7793SOL     OW25385   7.078   5.176   8.418  0.2144 -0.6716 -0.0643
 7793SOL    HW125386   7.134   5.224   8.357 -0.2884  0.6164  0.4500
 7793SOL    HW225387   6.990   5.189   8.384  0.1634 -2.4256 -0.6918
 7794SOL     OW25388  10.771  10.871   0.528  0.3289 -0.0344  0.1151
 7794SOL    HW125389  10.828  10.937   0.566  0.1132 -0.3314  0.9776
 7794SOL    HW225390  10.802  10.861   0.438  0.4317  1.1480  0.0098
 7795SOL     OW25391  10.787   7.647   4.440  0.7278  0.0910  0.4230
 7795SOL    HW125392  10.818   7.657   4.530 -1.0032 -0.5277  1.1171
 7795SOL    HW225393  10.738   7.728   4.422 -0.8862 -0.7479  0.8842
 7796SOL     OW25394  11.080   5.246   3.548  0.1766  0.0913  0.1986
 7796SOL    HW125395  11.031   5.164   3.534  0.4576 -0.3552  1.6000
 7796SOL    HW225396  11.111   5.271   3.461 -0.4605 -0.9528 -0.3503
 7797SOL     OW25397   3.628   1.661   5.734  0.1709 -0.2327 -0.3353
 7797SOL    HW125398   3.639   1.755   5.745 -0.2078 -0.1983 -0.2476
 7797SOL    HW225399   3.640   1.625   5.822  1.8654 -0.4296 -0.6060
 7798SOL     OW25400   7.544   7.664  11.245  0.3638 -0.3694  0.5485
 7798SOL    HW125401   7.454   7.632  11.257  0.2891 -0.4757 -0.2292
 7798SOL    HW225402   7.563   7.647  11.153  1.1799 -0.3284  0.7027
 7799SOL     OW25403  11.202   9.757   5.023  0.5040  0.1377 -0.1749
 7799SOL    HW125404  11.282   9.789   4.981  0.9231 -0.1358  0.3961
 7799SOL    HW225405  11.195   9.666   4.994  0.9945 -0.1643  0.6067
 7800SOL     OW25406  10.721   3.096   7.184  0.8786 -0.6419  0.1629
 7800SOL    HW125407  10.773   3.175   7.172 -1.8594  1.4108  0.7916
 7800SOL    HW225408  10.781   3.024   7.165  3.9630  1.4849  1.1223
 7801SOL     OW25409   0.241   7.834   1.474  0.1350 -0.0643  0.1517
 7801SOL    HW125410   0.250   7.844   1.380  1.9262 -0.0139  0.2918
 7801SOL    HW225411   0.247   7.923   1.509  1.0524 -0.2092  0.3979
 7802SOL     OW25412   5.428   5.934   8.368  0.4267 -0.1221  0.0433
 7802SOL    HW125413   5.377   6.014   8.379  1.7566  0.9213 -0.9556
 7802SOL    HW225414   5.451   5.907   8.457  0.5213  0.9980  0.3682
 7803SOL     OW25415   2.096   8.948   3.134 -0.2410 -0.2808 -0.0256
 7803SOL    HW125416   2.084   8.860   3.170  2.5750  0.5914  3.6450
 7803SOL    HW225417   2.178   8.943   3.086 -0.6569  0.1341 -0.8038
 7804SOL     OW25418   9.688   3.108   9.065 -0.4613 -0.2332 -0.8516
 7804SOL    HW125419   9.754   3.043   9.042 -1.0310 -0.3625 -2.2781
 7804SOL    HW225420   9.613   3.056   9.095  0.7788 -0.0333  3.0780
 7805SOL     OW25421   1.859   9.580  11.028  0.7297  0.6184 -0.2943
 7805SOL    HW125422   1.907   9.579  10.945  1.2176 -2.2440 -0.0619
 7805SOL    HW225423   1.861   9.490  11.059 -1.4660  1.1460  1.7127
 7806SOL     OW25424   4.423  10.363   5.146  0.4416  0.9650  0.3496
 7806SOL    HW125425   4.396  10.379   5.055  0.0669 -0.2379  0.2353
 7806SOL    HW225426   4.518  10.369   5.144  0.4873  0.1910 -0.2893
 7807SOL     OW25427   4.335   3.650  11.246  0.0036 -0.4397  0.4710
 7807SOL    HW125428   4.351   3.613  11.333 -0.0879 -2.0094 -0.1450
 7807SOL    HW225429   4.423   3.661  11.209 -0.0116 -1.7575 -0.0040
 7808SOL     OW25430   6.020   2.687   2.487  0.9221  0.2486  0.0439
 7808SOL    HW125431   6.036   2.764   2.543 -0.1493  0.6460 -0.1697
 7808SOL    HW225432   6.027   2.613   2.547  1.1194  0.5701  0.4312
 7809SOL     OW25433   1.713   3.983   2.029  0.0163  0.0898 -0.2802
 7809SOL    HW125434   1.705   4.027   1.945  1.5400  0.5478 -0.2195
 7809SOL    HW225435   1.778   3.915   2.014  1.1609  0.9026  0.7749
 7810SOL     OW25436   4.099   9.167  10.253 -0.5969  0.3984 -0.1826
 7810SOL    HW125437   4.075   9.183  10.345 -1.7873  1.6318 -0.6815
 7810SOL    HW225438   4.132   9.252  10.222 -1.2468  0.2970 -1.1975
 7811SOL     OW25439   3.674   3.779   9.514 -0.5630 -0.2884  0.6964
 7811SOL    HW125440   3.654   3.686   9.500 -1.4491 -0.2084  1.3246
 7811SOL    HW225441   3.640   3.822   9.436  1.0535 -0.6142 -0.2315
 7812SOL     OW25442   8.852   7.421   7.773 -0.3391 -0.5126 -0.0827
 7812SOL    HW125443   8.814   7.357   7.713 -0.6057 -1.2958  0.8974
 7812SOL    HW225444   8.777   7.459   7.818 -0.2315  1.0141 -1.1422
 7813SOL     OW25445   6.046   2.716   3.781 -0.3807  0.4557 -0.0669
 7813SOL    HW125446   6.136   2.735   3.808 -0.6244  0.5055  0.7443
 7813SOL    HW225447   6.038   2.621   3.790 -0.1756  0.3536 -0.9022
 7814SOL     OW25448   3.065  10.137   9.683 -0.5463 -0.6289 -0.2173
 7814SOL    HW125449   3.160  10.146   9.682 -0.5898  0.2467 -2.0750
 7814SOL    HW225450   3.049  10.043   9.685  0.4657 -0.9568 -2.9308
 7815SOL     OW25451   8.890  10.497   8.320 -0.2354  0.4878 -0.7283
 7815SOL    HW125452   8.844  10.577   8.346 -1.1830 -0.2817  0.0570
 7815SOL    HW225453   8.982  10.524   8.311 -0.0234  1.1147  2.2448
 7816SOL     OW25454   6.984   9.205   3.532 -0.0687  0.0926  0.5138
 7816SOL    HW125455   6.899   9.225   3.493  0.2631 -1.3049 -1.0402
 7816SOL    HW225456   6.994   9.270   3.602 -1.8568  1.0561 -0.0552
 7817SOL     OW25457   6.336   9.267   8.263 -0.3219 -0.3585 -0.5514
 7817SOL    HW125458   6.312   9.191   8.315 -1.9633 -1.1780 -2.3504
 7817SOL    HW225459   6.263   9.327   8.272 -0.3355 -0.2361 -1.3588
 7818SOL     OW25460   9.559   5.421   5.848 -0.2206 -0.1570  0.3012
 7818SOL    HW125461   9.476   5.391   5.885 -0.0837  0.8938  1.5223
 7818SOL    HW225462   9.622   5.352   5.870 -0.8156 -1.1436 -0.9641
 7819SOL     OW25463   9.931   4.057   7.583  0.4185  0.3434  0.4705
 7819SOL    HW125464   9.844   4.097   7.579  0.5631  0.6879  0.7581
 7819SOL    HW225465   9.915   3.966   7.607  0.1389  0.4059  0.5179
 7820SOL     OW25466   3.212   3.882   7.552 -0.3883 -0.2574  0.0129
 7820SOL    HW125467   3.171   3.849   7.632 -1.7394 -0.8589 -0.8800
 7820SOL    HW225468   3.238   3.971   7.573 -3.4417  0.6965  0.3135
 7821SOL     OW25469   5.710  10.279   0.376 -0.4946 -0.0121 -0.1324
 7821SOL    HW125470   5.778  10.301   0.313  0.2382  0.6450  0.8561
 7821SOL    HW225471   5.700  10.358   0.429 -0.6215 -0.7622  0.9918
 7822SOL     OW25472   3.200   5.685  10.341  0.0476  0.2387  0.1599
 7822SOL    HW125473   3.144   5.744  10.393 -0.0489 -0.3405  0.7303
 7822SOL    HW225474   3.222   5.736  10.263  1.5846  1.7861  1.5151
 7823SOL     OW25475   1.356  10.817   7.480 -0.2566 -1.1436  0.7110
 7823SOL    HW125476   1.434  10.860   7.515  0.3923  1.3426 -3.1102
 7823SOL    HW225477   1.283  10.859   7.525  0.5180  1.1604 -0.0520
 7824SOL     OW25478   4.718   4.576   9.442  0.0497  0.4046  0.7660
 7824SOL    HW125479   4.804   4.593   9.480  0.9270  0.5724 -1.1919
 7824SOL    HW225480   4.661   4.643   9.481  1.0956  1.0866  1.1594
 7825SOL     OW25481   6.134   1.006   5.188  0.4932  0.1927  0.2227
 7825SOL    HW125482   6.149   1.084   5.241 -2.6251  1.1989 -0.1722
 7825SOL    HW225483   6.084   0.947   5.245  1.5296 -0.9150  0.0274
 7826SOL     OW25484   3.212   0.511   3.101  0.4616  0.0531 -0.6556
 7826SOL    HW125485   3.265   0.590   3.108  1.1844 -0.3365 -1.4786
 7826SOL    HW225486   3.265   0.442   3.142 -1.6428  0.5531  3.4122
 7827SOL     OW25487   9.651   6.567   3.058  0.1806  0.3677  0.6085
 7827SOL    HW125488   9.726   6.514   3.084  1.5415  1.6663 -0.4651
 7827SOL    HW225489   9.629   6.537   2.970  0.0738  0.6476  0.5383
 7828SOL     OW25490   6.118   8.498  11.080  0.1381  0.0912 -0.2158
 7828SOL    HW125491   6.064   8.424  11.052 -1.3511  0.8919  0.3993
 7828SOL    HW225492   6.064   8.575  11.063  1.3542  0.9936 -0.1502
 7829SOL     OW25493   6.890   5.981   3.083  0.7304 -0.2641  0.3182
 7829SOL    HW125494   6.961   5.998   3.145  1.3082 -0.3960 -0.2969
 7829SOL    HW225495   6.911   6.036   3.007  0.7091 -1.0334 -0.2577
 7830SOL     OW25496   9.112   3.039  10.924  0.0664  0.1286 -0.5464
 7830SOL    HW125497   9.068   2.957  10.902 -0.3253 -0.5553  2.3759
 7830SOL    HW225498   9.204   3.024  10.903  0.1438 -1.4402  0.6881
 7831SOL     OW25499   7.888  10.745   7.793 -0.0902  0.4399 -0.0664
 7831SOL    HW125500   7.835  10.676   7.754  0.2439 -0.3161  0.7799
 7831SOL    HW225501   7.908  10.713   7.881  2.7132  0.1567 -0.7061
 7832SOL     OW25502  10.897   3.723   5.008  0.0776 -0.8484  0.0873
 7832SOL    HW125503  10.856   3.810   5.012  0.8836 -0.4998  1.2526
 7832SOL    HW225504  10.941   3.722   4.922 -0.6519 -0.4453 -0.3015
 7833SOL     OW25505   2.485   5.666   6.833 -0.0851  0.2291 -1.0476
 7833SOL    HW125506   2.507   5.755   6.806 -2.1967  0.9061 -0.7422
 7833SOL    HW225507   2.505   5.663   6.926 -2.1813  1.2366 -0.4892
 7834SOL     OW25508   3.177   8.679  10.542 -0.4570  0.5276 -0.7228
 7834SOL    HW125509   3.085   8.657  10.525 -0.9615  0.7302  1.5193
 7834SOL    HW225510   3.225   8.598  10.523 -1.6038 -0.8188  1.7397
 7835SOL     OW25511   3.056   1.912   9.805  0.0120 -0.4176  0.0920
 7835SOL    HW125512   3.151   1.900   9.805 -0.0442 -1.1884  1.5944
 7835SOL    HW225513   3.029   1.888   9.894 -1.3178  2.0752  0.4664
 7836SOL     OW25514   0.748   3.359   8.636 -0.2251 -0.7351  0.6617
 7836SOL    HW125515   0.701   3.276   8.633 -1.1396 -0.2620  1.3140
 7836SOL    HW225516   0.830   3.339   8.682 -0.1377 -1.4064  0.2214
 7837SOL     OW25517   8.267   0.428   3.306 -0.5543 -0.4155 -0.2145
 7837SOL    HW125518   8.317   0.399   3.382  0.5141  0.7614 -0.4373
 7837SOL    HW225519   8.197   0.482   3.343 -0.5422 -0.5412 -0.0073
 7838SOL     OW25520   6.962   1.236  10.404 -0.3082  0.5870 -0.0942
 7838SOL    HW125521   6.874   1.234  10.443 -1.8552 -2.3524 -3.2112
 7838SOL    HW225522   7.019   1.198  10.471 -1.6495  1.0523  1.3966
 7839SOL     OW25523   3.990   7.724   4.239 -0.3417  0.5137 -0.3409
 7839SOL    HW125524   4.021   7.815   4.231  1.4865 -0.1629 -1.5110
 7839SOL    HW225525   3.946   7.722   4.324 -0.8369  2.6006 -0.4775
 7840SOL     OW25526   5.694   7.371   6.444  0.0058  0.3072  0.1282
 7840SOL    HW125527   5.679   7.455   6.399  0.9024  1.8197  2.4759
 7840SOL    HW225528   5.606   7.342   6.469 -0.2456  1.0195  0.0961
 7841SOL     OW25529   5.039   7.740   0.997 -0.5145  0.3525 -0.2055
 7841SOL    HW125530   5.051   7.661   1.050  0.6546 -1.0397 -2.3576
 7841SOL    HW225531   5.017   7.808   1.059 -0.7285 -1.4940  1.8564
 7842SOL     OW25532   5.870  10.369   2.116 -0.6882 -0.3124 -0.0250
 7842SOL    HW125533   5.864  10.277   2.089  0.6179 -0.4120 -0.0237
 7842SOL    HW225534   5.856  10.418   2.035 -4.1773 -0.3756  0.3939
 7843SOL     OW25535   3.420   4.636   9.453  0.2817  0.0858  0.1786
 7843SOL    HW125536   3.397   4.590   9.372  0.5623 -1.9606  1.2239
 7843SOL    HW225537   3.367   4.716   9.450 -3.7415 -2.3013  0.4161
 7844SOL     OW25538  10.445   6.906   4.491  0.4327  0.0106  0.0366
 7844SOL    HW125539  10.531   6.947   4.480  0.4115  0.0828  0.1444
 7844SOL    HW225540  10.406   6.910   4.404  0.5461 -0.0389 -0.0170
 7845SOL     OW25541   6.698  10.812   5.723 -0.0202  0.0156  0.4884
 7845SOL    HW125542   6.761  10.752   5.684 -0.4565  0.2031 -0.5258
 7845SOL    HW225543   6.731  10.826   5.812  1.1847 -0.1429  0.0871
 7846SOL     OW25544   5.093  10.026   2.443  0.0386  0.0544 -0.4547
 7846SOL    HW125545   5.086  10.113   2.481 -0.6685 -1.2668  2.7943
 7846SOL    HW225546   5.042  10.031   2.361  0.5637  2.7821 -0.6909
 7847SOL     OW25547   0.597   4.822   6.336  0.1380  0.5676 -0.2467
 7847SOL    HW125548   0.662   4.796   6.272  1.4733 -1.9804  1.9425
 7847SOL    HW225549   0.639   4.892   6.386 -0.2578  1.3924 -1.0360
 7848SOL     OW25550   9.419   1.516   4.329 -0.4741  0.6305 -0.3132
 7848SOL    HW125551   9.439   1.512   4.423  1.2772 -2.0920 -0.6691
 7848SOL    HW225552   9.362   1.441   4.314 -0.4801  0.8460 -1.4598
 7849SOL     OW25553   2.916   6.936   2.198 -0.0823  0.0432  0.0853
 7849SOL    HW125554   2.900   6.948   2.104 -0.5039 -1.0621 -0.0004
 7849SOL    HW225555   2.833   6.902   2.232 -0.1604  1.0776  0.9997
 7850SOL     OW25556  10.453   6.225   3.790 -0.4989 -0.1555 -0.5459
 7850SOL    HW125557  10.496   6.288   3.847 -1.5825  0.1754 -0.0728
 7850SOL    HW225558  10.520   6.200   3.727  1.2731 -1.8473  1.8767
 7851SOL     OW25559   0.461   5.449   8.584  0.4621  0.4240 -0.3013
 7851SOL    HW125560   0.447   5.394   8.661 -0.1962  1.4298  0.3213
 7851SOL    HW225561   0.544   5.418   8.547  0.3908 -0.5875  0.3621
 7852SOL     OW25562   5.889   8.496   8.084  0.2528  0.1752  0.4974
 7852SOL    HW125563   5.948   8.469   8.154 -0.6571  1.0689  1.6620
 7852SOL    HW225564   5.832   8.562   8.125 -0.3618  0.6627 -1.0683
 7853SOL     OW25565   8.612   7.620   0.472 -0.4893 -0.0628 -0.5403
 7853SOL    HW125566   8.669   7.552   0.507  1.0668  1.5615  0.2284
 7853SOL    HW225567   8.671   7.692   0.451 -2.2804  1.8136  0.5736
 7854SOL     OW25568   2.987   0.738   2.171 -0.3980  0.1074  0.0201
 7854SOL    HW125569   2.897   0.758   2.196 -1.3090 -0.3492 -2.5248
 7854SOL    HW225570   2.987   0.644   2.154  0.8258 -0.0726  0.8757
 7855SOL     OW25571   3.943   8.751  11.281  0.9408 -0.3129 -0.4768
 7855SOL    HW125572   3.857   8.790  11.265  1.0967  1.1147  1.7191
 7855SOL    HW225573   3.947   8.739  11.376  3.7024  1.0989 -0.3102
 7856SOL     OW25574   5.465   0.979   7.591  0.2069 -0.3550 -0.0363
 7856SOL    HW125575   5.509   1.042   7.533 -0.1291 -0.3352 -0.2693
 7856SOL    HW225576   5.450   1.028   7.672  1.2858 -0.5795  0.3277
 7857SOL     OW25577   7.446   2.329   4.273 -0.3072  0.3686  0.2355
 7857SOL    HW125578   7.525   2.347   4.324 -0.1168  0.4441 -0.0763
 7857SOL    HW225579   7.476   2.333   4.182 -0.1843 -1.8673  0.1246
 7858SOL     OW25580   1.456   4.099  10.560 -0.0503  0.5709 -0.1793
 7858SOL    HW125581   1.414   4.059  10.637  0.3395  0.2562 -0.1253
 7858SOL    HW225582   1.448   4.032  10.492 -0.1198  0.7266 -0.3215
 7859SOL     OW25583   5.001   4.167   0.996  0.2378 -0.3527 -0.4151
 7859SOL    HW125584   5.072   4.231   1.004  0.2015 -0.4403  0.7936
 7859SOL    HW225585   5.039   4.096   0.944  0.6222  0.1662 -0.8577
 7860SOL     OW25586   3.063   1.294   7.641 -0.5868 -0.8169 -0.6619
 7860SOL    HW125587   3.133   1.230   7.653 -1.1712 -1.2112  1.0503
 7860SOL    HW225588   3.107   1.374   7.616  0.5123 -1.0431  0.4435
 7861SOL     OW25589   6.585   2.622   2.321 -0.1747  0.2325  0.2401
 7861SOL    HW125590   6.571   2.710   2.287 -0.0321  0.2985  0.3514
 7861SOL    HW225591   6.656   2.586   2.266 -0.1185  0.2480  0.3025
 7862SOL     OW25592   5.222   1.007   3.381  0.3808  0.3041  0.7214
 7862SOL    HW125593   5.215   0.960   3.464 -0.0946 -1.6461 -0.3476
 7862SOL    HW225594   5.138   1.052   3.372  1.2199  2.3202  2.2403
 7863SOL     OW25595   5.969   5.413   6.071 -0.0765 -0.0572 -0.8107
 7863SOL    HW125596   6.019   5.493   6.053  0.0889  0.8924  3.0494
 7863SOL    HW225597   6.036   5.346   6.085 -0.2054 -0.8119 -3.3186
 7864SOL     OW25598   9.163   0.790  11.270 -0.1283  0.0439  0.3825
 7864SOL    HW125599   9.146   0.772  11.362  0.4863  0.2218  0.5341
 7864SOL    HW225600   9.257   0.805  11.265  0.2742 -2.2900 -0.6339
 7865SOL     OW25601   6.628   1.274   3.150  0.1789 -0.2746  0.1539
 7865SOL    HW125602   6.645   1.283   3.243 -1.1144  0.5286  0.3335
 7865SOL    HW225603   6.642   1.181   3.131 -0.0384 -0.5361  1.2520
 7866SOL     OW25604   5.703   5.147   8.615 -0.2109  0.2670 -0.3255
 7866SOL    HW125605   5.614   5.135   8.648 -0.7019  0.8886 -1.3538
 7866SOL    HW225606   5.691   5.193   8.532  1.0919  0.5480 -0.3731
 7867SOL     OW25607   6.211   3.988   0.551 -0.4805  0.0702  0.0825
 7867SOL    HW125608   6.166   4.059   0.596  0.8332  2.2264 -1.7543
 7867SOL    HW225609   6.142   3.943   0.501 -1.2821  0.2027  1.0441
 7868SOL     OW25610   3.277   7.827   3.259 -0.5285  0.2042 -0.4235
 7868SOL    HW125611   3.302   7.919   3.260 -2.0940  0.8515 -3.9608
 7868SOL    HW225612   3.350   7.782   3.217  0.3949 -0.3275  1.6292
 7869SOL     OW25613   8.946   6.635   6.551  0.0541  0.7131  0.1261
 7869SOL    HW125614   8.980   6.662   6.466  0.4879 -1.1380 -0.3414
 7869SOL    HW225615   9.022   6.602   6.599 -0.5297 -0.3703  0.3482
 7870SOL     OW25616   4.890   7.366  11.164 -0.0033 -0.4768  0.5399
 7870SOL    HW125617   4.979   7.342  11.189  0.4852  0.3024 -0.3697
 7870SOL    HW225618   4.836   7.292  11.192  1.2895 -2.2243 -1.3322
 7871SOL     OW25619  11.205   6.615   9.920  0.1102  0.2107 -0.2750
 7871SOL    HW125620  11.121   6.643   9.956  0.8808 -0.2361  2.0070
 7871SOL    HW225621  11.244   6.695   9.884  0.2460  1.1834  1.9129
 7872SOL     OW25622  10.621   8.911   9.790  0.0853  0.3645  0.3346
 7872SOL    HW125623  10.632   8.821   9.821  2.7862  1.2285  2.2038
 7872SOL    HW225624  10.596   8.902   9.698 -1.3795 -2.2694  0.8969
 7873SOL     OW25625   8.180   5.082   7.411  0.0286 -0.7463  0.3850
 7873SOL    HW125626   8.246   5.056   7.476 -0.1743  0.1591  0.9738
 7873SOL    HW225627   8.112   5.015   7.419  1.4365 -2.4675 -1.1820
 7874SOL     OW25628   8.153   8.502   6.627 -0.2115  0.1593 -0.1768
 7874SOL    HW125629   8.152   8.568   6.558  2.2425  0.3488 -0.1029
 7874SOL    HW225630   8.215   8.536   6.692 -1.8114 -0.4170  1.7415
 7875SOL     OW25631   2.871   5.581   2.523  0.6070  0.3329  0.1347
 7875SOL    HW125632   2.850   5.674   2.524  1.8992  0.6611 -0.6910
 7875SOL    HW225633   2.966   5.578   2.517  0.5175 -1.0352 -1.1743
 7876SOL     OW25634   2.483   3.243   0.712 -0.7089 -0.1428 -0.5864
 7876SOL    HW125635   2.458   3.240   0.619 -0.9980  0.9272 -0.5559
 7876SOL    HW225636   2.428   3.176   0.753 -1.8649  0.5606 -0.9234
 7877SOL     OW25637  10.656  10.515   5.617  0.1375 -0.4392 -0.2417
 7877SOL    HW125638  10.706  10.561   5.684  0.9053 -1.5727 -0.0082
 7877SOL    HW225639  10.583  10.474   5.664 -0.7870  0.8352 -0.5121
 7878SOL     OW25640   4.878   2.654   0.505  0.1509 -0.1577 -0.1847
 7878SOL    HW125641   4.901   2.695   0.588 -0.4824  0.2438 -0.1922
 7878SOL    HW225642   4.804   2.597   0.526 -1.1516  1.2421 -0.7388
 7879SOL     OW25643   0.552   6.544   2.351  0.7667 -0.1989 -1.0479
 7879SOL    HW125644   0.576   6.488   2.424  0.1329  0.0261 -0.6688
 7879SOL    HW225645   0.636   6.581   2.321  1.4052 -2.3724 -2.1839
 7880SOL     OW25646  11.076   3.104   1.356  0.0355  0.3313  0.1528
 7880SOL    HW125647  11.077   3.076   1.447  1.4241 -0.6994 -0.1519
 7880SOL    HW225648  11.018   3.180   1.355  0.6783  0.8936  2.0439
 7881SOL     OW25649   1.594   0.897   1.921 -0.2269  0.4797 -0.1781
 7881SOL    HW125650   1.531   0.938   1.861  0.9725  1.9405 -0.4898
 7881SOL    HW225651   1.666   0.959   1.926  1.3268 -1.2540 -0.0280
 7882SOL     OW25652   5.110   0.371   1.475 -0.9053  0.2943 -0.3825
 7882SOL    HW125653   5.090   0.315   1.550  0.6077 -0.5422 -0.5536
 7882SOL    HW225654   5.035   0.361   1.417 -1.2653 -0.5159  0.1978
 7883SOL     OW25655   2.531   6.326   8.459  0.2850  0.2284 -0.5274
 7883SOL    HW125656   2.471   6.377   8.403  3.0390  1.6816 -2.4019
 7883SOL    HW225657   2.573   6.392   8.514  1.3348 -0.4933 -0.4458
 7884SOL     OW25658   5.606   6.766   9.005 -0.8301  0.0626 -0.7507
 7884SOL    HW125659   5.640   6.810   9.084 -1.8781 -0.3962 -0.0320
 7884SOL    HW225660   5.572   6.838   8.951  0.4085  0.4402 -1.0807
 7885SOL     OW25661   2.257   4.254   4.257  0.0249 -1.2993  1.2280
 7885SOL    HW125662   2.258   4.281   4.166 -0.0570 -1.3904  1.2005
 7885SOL    HW225663   2.349   4.233   4.277 -0.1210 -2.3402  0.8534
 7886SOL     OW25664   3.333   9.965   2.564  0.3544 -0.9534  0.3929
 7886SOL    HW125665   3.343   9.983   2.471  0.9748 -1.2678  0.3871
 7886SOL    HW225666   3.261  10.021   2.593  0.2217 -0.7873 -0.2548
 7887SOL     OW25667   7.943   4.197   1.893  0.0695 -0.8670  0.2479
 7887SOL    HW125668   7.881   4.205   1.965 -0.4884 -2.4004 -0.0315
 7887SOL    HW225669   8.013   4.142   1.927  0.9896  0.3347  0.3545
 7888SOL     OW25670   9.928   6.437   7.992  0.4867 -0.0183 -0.1650
 7888SOL    HW125671  10.014   6.470   8.019  1.2082 -0.8708 -1.2987
 7888SOL    HW225672   9.897   6.387   8.067  1.9277 -1.3937 -0.4349
 7889SOL     OW25673   2.757   2.788  10.867 -0.3230  1.0417  0.3105
 7889SOL    HW125674   2.787   2.878  10.879  0.5341  0.8477 -0.2856
 7889SOL    HW225675   2.835   2.734  10.880 -0.9996  0.2925  1.5582
 7890SOL     OW25676   9.669   1.786   4.576 -0.9120 -0.4082 -0.2186
 7890SOL    HW125677   9.740   1.812   4.635  0.1978 -2.5023 -0.5148
 7890SOL    HW225678   9.614   1.864   4.568  1.4590  1.3959 -0.1290
 7891SOL     OW25679   6.549   3.974   0.244  0.1877 -0.5032 -0.3126
 7891SOL    HW125680   6.630   4.014   0.213  0.1202  0.9947  1.2621
 7891SOL    HW225681   6.517   3.922   0.170  0.2616  2.4006 -2.5608
 7892SOL     OW25682   9.593  11.080  11.048  0.2108 -0.3950  0.6183
 7892SOL    HW125683   9.655  11.114  10.984  0.7280 -0.1630  1.2380
 7892SOL    HW225684   9.509  11.119  11.023  0.2202 -1.0274 -0.4671
 7893SOL     OW25685   6.407   0.101   0.698  0.5899 -0.1666  0.4640
 7893SOL    HW125686   6.442   0.160   0.631  1.6905 -0.5960  0.6390
 7893SOL    HW225687   6.479   0.092   0.761  0.3379 -1.4685  0.5805
 7894SOL     OW25688   1.094   1.206   1.311  0.3169 -0.9422  0.3117
 7894SOL    HW125689   1.169   1.255   1.346  1.3699 -1.3598 -1.2490
 7894SOL    HW225690   1.116   1.192   1.219 -2.0903 -0.3525 -0.4200
 7895SOL     OW25691   9.319   1.471   9.151  0.2023 -0.2331 -0.3318
 7895SOL    HW125692   9.277   1.548   9.114 -0.6474  1.0460  2.9869
 7895SOL    HW225693   9.412   1.493   9.152  0.0792  0.3049 -0.3259
 7896SOL     OW25694   4.208   4.898   6.084 -0.1051 -0.0910  0.0160
 7896SOL    HW125695   4.241   4.940   6.163 -0.3075 -1.2306  0.7344
 7896SOL    HW225696   4.285   4.885   6.030  0.1166  0.2014  0.2587
 7897SOL     OW25697   8.419  10.633  10.875 -0.6020 -0.4320 -0.3270
 7897SOL    HW125698   8.375  10.671  10.799  1.6767  0.7594 -1.1386
 7897SOL    HW225699   8.507  10.670  10.873 -0.0764 -1.3427  2.2129
 7898SOL     OW25700   2.531   2.076   0.677 -0.2665 -0.2762 -0.2381
 7898SOL    HW125701   2.549   1.990   0.715 -0.1825 -0.2112 -0.1291
 7898SOL    HW225702   2.511   2.132   0.752  0.5820  0.0230 -0.2270
 7899SOL     OW25703   6.923   8.228   5.097 -0.1767 -0.2313 -0.0621
 7899SOL    HW125704   6.835   8.200   5.122  0.1004 -0.6740  0.4239
 7899SOL    HW225705   6.982   8.176   5.152  0.3430  1.5791  1.1592
 7900SOL     OW25706   5.481   5.182   1.022 -0.2348 -0.5686 -0.3578
 7900SOL    HW125707   5.502   5.195   1.114  2.7850  1.4954 -1.1848
 7900SOL    HW225708   5.556   5.133   0.987 -1.9564 -2.5554 -1.5189
 7901SOL     OW25709   0.527   1.542   4.817  0.2715  0.0254 -0.2169
 7901SOL    HW125710   0.479   1.469   4.776 -0.6602  0.7618 -0.4813
 7901SOL    HW225711   0.545   1.601   4.744  0.7114  0.2274  0.0562
 7902SOL     OW25712   7.670   0.281   0.812 -0.0308 -0.2008 -0.2629
 7902SOL    HW125713   7.589   0.330   0.826 -0.1525 -0.0519 -1.4462
 7902SOL    HW225714   7.736   0.330   0.860  0.0196  1.6177 -2.0683
 7903SOL     OW25715   2.853  10.237   3.377 -0.0995 -0.2084 -0.0115
 7903SOL    HW125716   2.823  10.145   3.379 -1.4410  0.2048  0.3400
 7903SOL    HW225717   2.941  10.234   3.413 -0.2060 -1.3455  0.2102
 7904SOL     OW25718   6.162   1.482   5.919 -0.0899 -0.0256  0.0789
 7904SOL    HW125719   6.091   1.453   5.862 -1.2079  1.1573  0.8266
 7904SOL    HW225720   6.237   1.493   5.861  0.3382 -3.8735 -0.3540
 7905SOL     OW25721   2.844   5.160   8.837  0.7088  0.3386  0.2761
 7905SOL    HW125722   2.887   5.082   8.802  0.6671  0.6751 -0.5506
 7905SOL    HW225723   2.821   5.137   8.927  0.8867 -0.5247  0.1041
 7906SOL     OW25724   6.787   2.344   0.093  0.1858 -0.1604 -0.1926
 7906SOL    HW125725   6.862   2.284   0.092  1.5934  1.4950  0.3474
 7906SOL    HW225726   6.792   2.385   0.179  1.7898  3.6548 -1.8890
 7907SOL     OW25727   8.775   6.058  10.073  0.2224 -0.4050 -0.1928
 7907SOL    HW125728   8.841   6.121  10.044  2.5172 -1.0811  3.0386
 7907SOL    HW225729   8.698   6.111  10.093 -0.4269  0.3959 -4.1080
 7908SOL     OW25730   7.306   6.244   0.885  0.1574 -0.3268 -0.4228
 7908SOL    HW125731   7.382   6.259   0.829  0.6208  4.3752  1.0552
 7908SOL    HW225732   7.234   6.229   0.824  1.7921 -2.9840 -1.8942
 7909SOL     OW25733   0.626   4.292   9.594  0.4062 -0.3373 -0.3638
 7909SOL    HW125734   0.695   4.347   9.558 -0.5839  1.0060 -0.2703
 7909SOL    HW225735   0.672   4.216   9.630  1.8458  0.6018 -0.1581
 7910SOL     OW25736   2.161   1.532   2.569  0.4382  0.2513 -0.2004
 7910SOL    HW125737   2.202   1.477   2.636  0.5074  0.3468 -0.1646
 7910SOL    HW225738   2.080   1.563   2.610 -0.6644 -1.5086 -0.9531
 7911SOL     OW25739   9.085   0.370   2.569  0.4508 -0.2985 -0.0626
 7911SOL    HW125740   8.997   0.406   2.583  0.5508 -0.1868  0.2946
 7911SOL    HW225741   9.143   0.444   2.586  0.6142 -0.3830 -0.2613
 7912SOL     OW25742   1.884   9.029   8.277 -0.8866 -0.3356 -0.2906
 7912SOL    HW125743   1.910   9.083   8.352 -0.8107 -2.4816  1.3034
 7912SOL    HW225744   1.903   9.084   8.201  1.0954  1.1115  1.1502
 7913SOL     OW25745  10.906   7.307   0.876  0.1102  0.1541  0.5005
 7913SOL    HW125746  10.839   7.292   0.809 -0.3748  1.4191  0.6608
 7913SOL    HW225747  10.986   7.269   0.840  0.0170  1.3651 -1.1145
 7914SOL     OW25748   2.336   5.400   2.099  0.3050  0.2050 -0.7078
 7914SOL    HW125749   2.303   5.364   2.181  1.4212  0.2183 -0.2363
 7914SOL    HW225750   2.264   5.388   2.036 -0.5222  0.1075  0.2378
 7915SOL     OW25751   9.657   7.445   3.417  0.5902  0.2711 -0.1159
 7915SOL    HW125752   9.626   7.463   3.328  0.9513 -0.0994 -0.3158
 7915SOL    HW225753   9.581   7.466   3.473 -0.5769 -2.0370 -0.7077
 7916SOL     OW25754   7.954   9.677   9.923  0.1889 -0.1697  0.3533
 7916SOL    HW125755   7.867   9.664   9.885  1.4659 -2.2807 -2.2373
 7916SOL    HW225756   7.989   9.753   9.878  0.1801 -0.1630  0.3582
 7917SOL     OW25757   4.058   2.217   4.634 -0.5124 -0.2180 -0.4663
 7917SOL    HW125758   4.087   2.294   4.682  1.0712 -1.2996  0.3944
 7917SOL    HW225759   4.138   2.165   4.621 -1.5857 -1.8815 -0.7240
 7918SOL     OW25760   5.377   1.372   0.878 -0.2589  0.3021  0.5925
 7918SOL    HW125761   5.300   1.350   0.931 -0.6993  1.1790  0.3409
 7918SOL    HW225762   5.446   1.387   0.941  0.0568 -1.6730  0.7858
 7919SOL     OW25763   5.719   3.372   5.649 -0.2169  0.0480 -0.2886
 7919SOL    HW125764   5.643   3.330   5.689 -0.6672 -0.1220 -1.2913
 7919SOL    HW225765   5.697   3.466   5.649 -0.2767  0.0339 -0.2616
 7920SOL     OW25766   3.061   3.080   5.943  0.1639 -0.5847 -0.2906
 7920SOL    HW125767   3.122   3.009   5.962 -0.3531 -0.8762  0.3580
 7920SOL    HW225768   3.110   3.160   5.963  0.8183 -0.7362 -1.2241
 7921SOL     OW25769   8.727  10.172   3.685  0.8501 -0.4318  0.0644
 7921SOL    HW125770   8.675  10.251   3.699 -0.7666 -1.0866 -1.7342
 7921SOL    HW225771   8.666  10.100   3.702  1.6217 -1.2522 -0.5454
 7922SOL     OW25772  10.173   0.016   8.974 -0.8474  0.1621 -0.0562
 7922SOL    HW125773  10.110  -0.047   9.010 -1.9596  0.5158 -1.3061
 7922SOL    HW225774  10.232  -0.037   8.919 -1.6464  0.1570 -0.9304
 7923SOL     OW25775   3.274   4.951   3.960  0.0150  0.2333 -0.2397
 7923SOL    HW125776   3.255   4.891   3.888  2.0507 -0.2994 -0.4056
 7923SOL    HW225777   3.329   4.901   4.020 -0.7670  1.0024  1.1869
 7924SOL     OW25778  10.771   5.059   0.679  0.0403  0.1260  0.0414
 7924SOL    HW125779  10.865   5.077   0.691  0.2541  1.5697 -2.8359
 7924SOL    HW225780  10.764   5.029   0.589 -2.3115  0.3112  0.1125
 7925SOL     OW25781   0.128  10.030   6.600 -0.1387 -0.2853 -1.0922
 7925SOL    HW125782   0.187   9.978   6.654 -0.1351  0.6286 -0.1860
 7925SOL    HW225783   0.076   9.965   6.551  1.3412 -1.1051 -1.6476
 7926SOL     OW25784  10.690   5.257   2.780 -0.1265  0.2623 -0.2195
 7926SOL    HW125785  10.610   5.309   2.772 -0.5365 -0.0870  1.2480
 7926SOL    HW225786  10.669   5.174   2.738  0.3765  1.0560 -2.1623
 7927SOL     OW25787   1.069   6.649   0.538 -0.3771  0.1107  0.3196
 7927SOL    HW125788   1.156   6.647   0.579 -0.8522 -3.6308  1.5667
 7927SOL    HW225789   1.012   6.686   0.606  0.1410  2.6728 -0.5393
 7928SOL     OW25790   7.193   2.270   9.982 -0.0763 -0.1998  0.2030
 7928SOL    HW125791   7.243   2.318  10.048  2.1878 -0.7819 -0.9715
 7928SOL    HW225792   7.161   2.192  10.028  1.9325 -0.8762  0.5684
 7929SOL     OW25793   6.380   7.222   9.145 -0.5810  0.2299 -0.0761
 7929SOL    HW125794   6.472   7.212   9.119 -0.4149 -0.8742  0.8672
 7929SOL    HW225795   6.381   7.211   9.240 -1.7940 -0.6186 -0.1426
 7930SOL     OW25796   6.332   3.340   4.770  0.5033 -0.1194  0.9891
 7930SOL    HW125797   6.264   3.402   4.796  0.4714  1.2952 -1.9833
 7930SOL    HW225798   6.293   3.254   4.782 -1.0551  0.5914  1.2767
 7931SOL     OW25799   0.444   6.182   9.489  0.3559 -0.2773  0.1601
 7931SOL    HW125800   0.363   6.168   9.539 -0.7296  1.6593 -0.9126
 7931SOL    HW225801   0.501   6.231   9.549  1.6917 -3.4162  1.6790
 7932SOL     OW25802   3.678   9.527   3.702 -0.1824 -0.8171  0.2125
 7932SOL    HW125803   3.621   9.479   3.761 -0.5535 -0.8952 -0.2052
 7932SOL    HW225804   3.635   9.522   3.617  0.5139 -0.9982 -0.1416
 7933SOL     OW25805   4.419   5.245   8.702  0.1023  0.0876 -0.5850
 7933SOL    HW125806   4.460   5.204   8.626 -0.5571 -4.5494  1.2024
 7933SOL    HW225807   4.332   5.204   8.707  0.3058 -0.2167  2.8436
 7934SOL     OW25808   4.081   3.221   1.264  0.2041 -0.0116 -0.7748
 7934SOL    HW125809   3.997   3.220   1.217 -0.2127 -3.5330 -0.2369
 7934SOL    HW225810   4.080   3.303   1.312 -2.5411  0.4931 -1.4772
 7935SOL     OW25811   1.649  10.998  10.607  0.3005 -0.1977 -0.2093
 7935SOL    HW125812   1.562  10.963  10.628 -0.7326  0.0052 -3.5237
 7935SOL    HW225813   1.710  10.930  10.634 -0.6438  0.1724  3.3876
 7936SOL     OW25814   6.268  11.183   2.277 -0.2151 -0.5661  0.1023
 7936SOL    HW125815   6.227  11.247   2.219  0.8353 -0.3294 -0.4014
 7936SOL    HW225816   6.287  11.231   2.357 -0.1625 -0.4553  0.0231
 7937SOL     OW25817   8.670   8.893   4.982  0.7225  0.2815 -0.3038
 7937SOL    HW125818   8.749   8.947   4.984  0.4916  0.7076 -1.6240
 7937SOL    HW225819   8.600   8.953   5.007  0.5060  0.5592 -1.4958
 7938SOL     OW25820   6.470   7.675   0.937 -0.0447 -0.4786  0.5576
 7938SOL    HW125821   6.529   7.718   0.875 -0.3465 -0.9691 -0.0871
 7938SOL    HW225822   6.494   7.711   1.022 -0.7585  1.5295 -0.0228
 7939SOL     OW25823  10.371   4.073   6.888 -0.4727  0.2419  0.6957
 7939SOL    HW125824  10.413   3.993   6.920  0.6943  0.5191 -0.0827
 7939SOL    HW225825  10.380   4.135   6.960 -0.1583  0.0890  0.7905
 7940SOL     OW25826   6.039  10.453   5.444 -0.0289 -0.6525 -0.1897
 7940SOL    HW125827   6.089  10.532   5.422  1.0191 -1.3297 -0.3011
 7940SOL    HW225828   6.095  10.405   5.504 -0.2624 -1.7392 -0.8221
 7941SOL     OW25829  10.681   6.968   4.713 -0.2495  0.5144 -0.3696
 7941SOL    HW125830  10.635   6.948   4.795 -0.1607  0.5665 -0.3067
 7941SOL    HW225831  10.643   7.051   4.684 -0.8812  0.0751 -0.8258
 7942SOL     OW25832   8.131   8.419   7.104  0.1188  0.1556 -0.4124
 7942SOL    HW125833   8.227   8.419   7.104  0.1644 -1.8191  0.0012
 7942SOL    HW225834   8.107   8.423   7.012  0.5957  0.5122 -0.5283
 7943SOL     OW25835   9.135  10.042   8.947  0.1829 -0.0609  0.3615
 7943SOL    HW125836   9.131  10.034   9.042  0.7500  1.9629  0.6035
 7943SOL    HW225837   9.051  10.081   8.923 -0.1374 -0.9620 -0.0574
 7944SOL     OW25838  10.069   7.964   7.650  0.0274 -0.5658  0.5967
 7944SOL    HW125839  10.080   8.002   7.563 -1.5136 -0.8432  0.2496
 7944SOL    HW225840  10.018   7.884   7.636  1.3179 -1.6274  1.5680
 7945SOL     OW25841   9.258   3.509   3.330  0.4068  1.2254 -0.0167
 7945SOL    HW125842   9.248   3.461   3.412 -1.0883 -2.8786 -2.2800
 7945SOL    HW225843   9.184   3.570   3.328  1.1556  2.3057  2.0801
 7946SOL     OW25844  10.854   1.279   2.793 -0.4390 -0.1534 -0.4819
 7946SOL    HW125845  10.929   1.248   2.742  0.4220  3.0666 -1.4198
 7946SOL    HW225846  10.893   1.314   2.873 -1.1212  0.1760 -0.2907
 7947SOL     OW25847   8.852   5.806  10.782  0.8295  0.1212 -1.5013
 7947SOL    HW125848   8.876   5.714  10.767  0.3473  0.0404 -1.7803
 7947SOL    HW225849   8.913   5.856  10.728 -0.1231 -0.1165 -2.8369
 7948SOL     OW25850   9.505   4.083  10.722  0.4130  0.0552 -0.4956
 7948SOL    HW125851   9.450   4.149  10.765  0.3011  0.4200 -1.1763
 7948SOL    HW225852   9.445   4.011  10.703 -0.1085  0.8835 -2.1930
 7949SOL     OW25853   7.597   2.268   0.123  1.0074  0.4591  0.4154
 7949SOL    HW125854   7.601   2.286   0.029  0.4817 -1.8974 -0.1141
 7949SOL    HW225855   7.688   2.274   0.153  1.7224 -2.2340 -1.0029
 7950SOL     OW25856  10.874   8.270   2.113 -0.1308  0.0636 -0.2176
 7950SOL    HW125857  10.910   8.243   2.029 -0.4061  0.6556 -0.5343
 7950SOL    HW225858  10.786   8.232   2.114 -0.4079  0.6739 -0.5345
 7951SOL     OW25859   2.656   9.895   0.594 -0.5652  0.6091  0.7855
 7951SOL    HW125860   2.657   9.811   0.548  0.1689  0.1356  1.6192
 7951SOL    HW225861   2.670   9.960   0.525  0.9359 -0.1052  0.3593
 7952SOL     OW25862   3.131   0.184   0.109 -0.4932  0.2107  0.1126
 7952SOL    HW125863   3.124   0.273   0.075 -1.4739 -0.1333 -0.6537
 7952SOL    HW225864   3.223   0.174   0.132 -0.2379  1.1990 -0.4145
 7953SOL     OW25865   2.791   6.827   8.089  0.5121 -0.0605  0.0052
 7953SOL    HW125866   2.865   6.887   8.079 -0.9355  2.0833  1.3597
 7953SOL    HW225867   2.810   6.755   8.029  1.6600  2.4185 -2.8684
 7954SOL     OW25868  10.804   4.563   2.228 -0.2592 -0.0942 -0.0430
 7954SOL    HW125869  10.853   4.625   2.282 -0.6064 -2.2733  3.0512
 7954SOL    HW225870  10.865   4.537   2.159  1.4995  0.3133  1.2928
 7955SOL     OW25871   6.424   2.695   8.322  0.7165 -0.0666 -0.0190
 7955SOL    HW125872   6.499   2.669   8.376 -0.9696 -4.1588  0.7978
 7955SOL    HW225873   6.389   2.773   8.365  4.4384  2.1209 -0.5615
 7956SOL     OW25874   5.424   8.748   0.901  0.7964 -0.4727  0.5384
 7956SOL    HW125875   5.443   8.734   0.808 -1.6464 -0.2723 -0.0391
 7956SOL    HW225876   5.400   8.662   0.934 -2.3413  0.0665 -0.0768
 7957SOL     OW25877   8.968   2.236   5.281 -0.0680 -0.2581  0.5655
 7957SOL    HW125878   8.965   2.154   5.233  0.2881  0.5096 -0.8202
 7957SOL    HW225879   8.901   2.290   5.240 -0.7274 -0.0456  1.8641
 7958SOL     OW25880  10.104   5.257   7.252  0.5950  0.8368 -0.1710
 7958SOL    HW125881  10.013   5.285   7.266  0.7166  0.1522  2.5029
 7958SOL    HW225882  10.132   5.222   7.337  3.5041  1.3790 -0.7972
 7959SOL     OW25883   3.634   9.653   1.846 -0.0028  0.2286  0.2713
 7959SOL    HW125884   3.562   9.646   1.908 -0.7516  1.3351 -0.4626
 7959SOL    HW225885   3.643   9.564   1.811 -0.1865 -0.1971  1.2438
 7960SOL     OW25886   7.546   1.553   5.095 -0.6981  0.0027 -0.7619
 7960SOL    HW125887   7.578   1.465   5.115  1.3954  0.6583 -0.9472
 7960SOL    HW225888   7.502   1.544   5.011  0.1366 -0.7574 -1.1330
 7961SOL     OW25889   4.349   4.907   8.633 -0.0712  0.2779  0.5243
 7961SOL    HW125890   4.403   4.832   8.606  3.1044  2.6129 -0.2695
 7961SOL    HW225891   4.327   4.889   8.725  0.6621 -1.5613  0.3861
 7962SOL     OW25892   8.217   2.876   8.760 -0.7737 -0.2761  1.2153
 7962SOL    HW125893   8.209   2.971   8.771 -1.9664 -0.3076  0.7280
 7962SOL    HW225894   8.127   2.845   8.749 -0.5221 -1.6390  2.6696
 7963SOL     OW25895   9.732   1.259   1.271  0.0953  0.0472 -0.4582
 7963SOL    HW125896   9.769   1.339   1.309  2.4650 -0.5859 -1.2527
 7963SOL    HW225897   9.638   1.275   1.270  0.3441  2.1019  1.0076
 7964SOL     OW25898  10.683   3.521   7.763 -0.2713 -0.4157 -0.4435
 7964SOL    HW125899  10.700   3.496   7.672 -0.6378 -0.1630 -0.5837
 7964SOL    HW225900  10.607   3.579   7.758 -1.7843 -2.2306  0.2443
 7965SOL     OW25901   4.934   0.133   1.330  0.7051 -0.5569  0.2621
 7965SOL    HW125902   4.989   0.057   1.311  0.3696 -0.9007  0.6290
 7965SOL    HW225903   4.845   0.104   1.309  0.4083 -0.7170  1.6240
 7966SOL     OW25904   6.875   7.254   4.857  0.2917  0.0660  0.5742
 7966SOL    HW125905   6.920   7.330   4.819  2.5353 -1.6905 -0.5025
 7966SOL    HW225906   6.810   7.292   4.916  1.0902  2.8176 -0.1717
 7967SOL     OW25907  10.414   6.530   7.736  0.1637  0.3763  0.1586
 7967SOL    HW125908  10.404   6.538   7.831 -0.6878  0.1613  0.1006
 7967SOL    HW225909  10.462   6.449   7.723  1.2856  0.9833  0.4415
 7968SOL     OW25910   9.210   3.963   5.830 -0.2389  0.1984 -0.8178
 7968SOL    HW125911   9.208   4.015   5.750 -1.9417  0.3227 -0.7278
 7968SOL    HW225912   9.237   3.876   5.800  1.1037  0.7132 -1.1966
 7969SOL     OW25913   0.175   5.737  10.177  0.2426  0.2251 -0.1489
 7969SOL    HW125914   0.221   5.705  10.100  1.2723  1.6455 -0.1523
 7969SOL    HW225915   0.209   5.684  10.249  2.3592  1.6225 -0.0560
 7970SOL     OW25916   9.220   5.719   8.924 -0.1486  0.0289 -0.1234
 7970SOL    HW125917   9.181   5.755   9.004  1.2902  1.4807 -0.0310
 7970SOL    HW225918   9.149   5.722   8.860 -1.1771 -0.6641  0.9258
 7971SOL     OW25919   9.227   1.239   5.567  0.2078 -0.6989 -0.2711
 7971SOL    HW125920   9.308   1.245   5.618 -0.8272 -2.0010  1.6322
 7971SOL    HW225921   9.247   1.174   5.499 -0.0788 -3.5198  2.1172
 7972SOL     OW25922  10.090   4.455   7.650  0.3725  0.0597  0.1043
 7972SOL    HW125923  10.144   4.397   7.703 -0.7796 -0.5477  0.6709
 7972SOL    HW225924  10.024   4.488   7.712  0.3001  1.0589 -0.4794
 7973SOL     OW25925   0.646   3.772   5.930 -0.1975 -0.1094  0.2006
 7973SOL    HW125926   0.706   3.793   5.859 -0.4440 -1.4395 -0.4134
 7973SOL    HW225927   0.563   3.813   5.905 -0.5017 -1.2286 -0.6818
 7974SOL     OW25928   1.122   4.866   6.322  0.6698 -0.3523 -0.3341
 7974SOL    HW125929   1.081   4.901   6.242  1.2888  3.3337  0.7658
 7974SOL    HW225930   1.212   4.899   6.318  1.0929 -1.2245  1.2882
 7975SOL     OW25931   0.352   1.087   1.471  0.1829 -0.1813  0.3459
 7975SOL    HW125932   0.440   1.050   1.483  0.6724  1.4530  2.4052
 7975SOL    HW225933   0.300   1.048   1.542 -0.0990  0.6886  0.6285
 7976SOL     OW25934   2.983   2.123   3.998 -0.0113 -0.4479  0.2801
 7976SOL    HW125935   2.919   2.052   3.994  0.1097 -0.5180 -0.9740
 7976SOL    HW225936   2.963   2.178   3.922  0.5951  0.2515  0.6112
 7977SOL     OW25937   4.388   8.336  10.309 -0.6204  0.1134 -0.4071
 7977SOL    HW125938   4.388   8.373  10.397 -1.9365 -0.0402 -0.3228
 7977SOL    HW225939   4.441   8.396  10.258 -0.4123  0.5834  0.3365
 7978SOL     OW25940   3.927   0.111   2.632  0.4376 -0.1778 -0.7589
 7978SOL    HW125941   3.864   0.160   2.580  2.0561  4.2971  0.9629
 7978SOL    HW225942   3.879   0.086   2.711 -0.4287 -1.4704 -1.6685
 7979SOL     OW25943   4.654   0.002   3.304 -0.1132 -0.2703  0.0493
 7979SOL    HW125944   4.589   0.033   3.241 -0.2057  0.6827  0.6067
 7979SOL    HW225945   4.733  -0.011   3.253 -0.0764  0.8738 -0.2033
 7980SOL     OW25946  10.874   5.895   0.351 -0.1305 -0.0674  0.1867
 7980SOL    HW125947  10.832   5.914   0.266 -1.6007  0.5378  1.0108
 7980SOL    HW225948  10.843   5.807   0.373 -0.8009  0.2812  0.6772
 7981SOL     OW25949   7.286   1.265   6.310 -0.0791 -0.1970 -0.1651
 7981SOL    HW125950   7.201   1.292   6.275  0.0715  1.5124  0.6744
 7981SOL    HW225951   7.313   1.338   6.366  2.7315  0.0573 -1.6984
 7982SOL     OW25952   4.051   8.159   2.284 -0.5657  0.2392 -0.0599
 7982SOL    HW125953   4.146   8.167   2.297 -0.3138  1.0630 -2.0649
 7982SOL    HW225954   4.017   8.135   2.370  1.7872 -3.0577  0.1637
 7983SOL     OW25955   8.905   8.682   7.199  0.3281 -0.0436 -0.3638
 7983SOL    HW125956   8.928   8.625   7.125 -1.2037  0.9682 -1.6748
 7983SOL    HW225957   8.898   8.769   7.162  0.9244  0.7517  1.2833
 7984SOL     OW25958  10.748   5.017   6.991  0.5265  0.4271 -0.1575
 7984SOL    HW125959  10.675   4.994   7.049  2.3100  1.0218  2.5203
 7984SOL    HW225960  10.716   4.997   6.903 -2.3919 -0.4724  0.9817
 7985SOL     OW25961   6.204  10.865   0.561 -0.3224  0.0538 -0.3284
 7985SOL    HW125962   6.112  10.864   0.588 -0.3399  1.5816 -0.2714
 7985SOL    HW225963   6.227  10.958   0.554  1.5674 -0.2766  0.7919
 7986SOL     OW25964   9.411  11.112   1.008 -0.6945  0.2150 -0.2724
 7986SOL    HW125965   9.356  11.155   0.942 -0.2637  0.9133 -0.1838
 7986SOL    HW225966   9.349  11.068   1.066 -1.0538 -1.3199 -1.7400
 7987SOL     OW25967   3.623  11.076   2.226  0.0724  0.4246  0.2287
 7987SOL    HW125968   3.562  11.056   2.297 -0.7979  0.2115 -0.5624
 7987SOL    HW225969   3.635  11.171   2.231 -2.2365  0.8433 -1.0849
 7988SOL     OW25970   1.442   3.257   4.623  0.5692  0.6986 -0.3670
 7988SOL    HW125971   1.493   3.333   4.651 -0.3104  0.7754  1.0912
 7988SOL    HW225972   1.508   3.189   4.607  1.2527  1.3190 -0.2565
 7989SOL     OW25973   0.482   5.707   5.244  0.3759  0.6336 -0.9873
 7989SOL    HW125974   0.453   5.633   5.191 -0.2936 -0.1070  0.3456
 7989SOL    HW225975   0.554   5.673   5.297  1.3376  1.4833 -1.7056
 7990SOL     OW25976  10.624   7.580   0.247 -0.3223 -0.6118 -0.4340
 7990SOL    HW125977  10.553   7.559   0.187 -0.5374 -1.4568  0.1006
 7990SOL    HW225978  10.698   7.528   0.216 -0.0261 -0.0031 -0.7779
 7991SOL     OW25979   3.956   9.582   1.737  0.6077 -0.0410  0.1204
 7991SOL    HW125980   3.990   9.500   1.773 -0.3253  0.2312  1.7426
 7991SOL    HW225981   3.967   9.645   1.809 -1.4963  0.4951  0.0294
 7992SOL     OW25982   3.729   7.527   8.349 -0.1331  1.1039  0.1417
 7992SOL    HW125983   3.759   7.600   8.296  0.5157  0.2094 -0.7727
 7992SOL    HW225984   3.642   7.552   8.377 -0.5553  1.5768 -1.4587
 7993SOL     OW25985  10.553  11.251   7.405  0.2235  0.1857 -0.3042
 7993SOL    HW125986  10.587  11.164   7.424 -0.6345  0.2870  1.9226
 7993SOL    HW225987  10.611  11.311   7.453 -2.0261  0.4514  2.2970
 7994SOL     OW25988   8.967   1.778   9.556 -0.2901  0.4676  0.2310
 7994SOL    HW125989   8.871   1.785   9.552 -0.5509  0.1541  3.4640
 7994SOL    HW225990   8.998   1.839   9.489 -2.7547  2.3356  0.6478
 7995SOL     OW25991   6.385   3.799   4.451  0.2809 -0.3928  0.0613
 7995SOL    HW125992   6.387   3.708   4.422  0.6979 -1.0797  2.0594
 7995SOL    HW225993   6.476   3.818   4.476  0.4451  0.9866 -1.4281
 7996SOL     OW25994   7.815   0.794   8.230 -0.4519 -0.0408  0.0172
 7996SOL    HW125995   7.764   0.874   8.232 -0.1313  0.1457  1.9550
 7996SOL    HW225996   7.771   0.735   8.292  0.9118 -0.3424  0.7373
 7997SOL     OW25997   6.818   1.739   3.606 -0.3226  0.5324  0.4329
 7997SOL    HW125998   6.886   1.804   3.621 -0.7861  0.7389  1.7538
 7997SOL    HW225999   6.812   1.691   3.688 -1.8367  0.5777  0.3730
 7998SOL     OW26000   8.492   5.000  10.108 -0.2268  0.2270 -0.0135
 7998SOL    HW126001   8.567   4.995  10.168  0.5878 -1.7493 -1.0869
 7998SOL    HW226002   8.448   4.915  10.119 -0.7832  0.3377 -1.2938
 7999SOL     OW26003   7.493   8.424   7.094  0.0806  0.2332  0.2971
 7999SOL    HW126004   7.481   8.515   7.066  0.1110  0.6178  1.4796
 7999SOL    HW226005   7.412   8.404   7.142  0.2569 -0.2232  0.4035
 8000SOL     OW26006   0.957   3.229   8.354  0.1274 -0.2295  0.0361
 8000SOL    HW126007   0.910   3.312   8.341  2.0046  0.7874 -0.7230
 8000SOL    HW226008   1.006   3.216   8.273  1.9173 -0.6802  1.1255
 8001SOL     OW26009   6.758   3.888   1.561  0.1873 -0.3984  0.2552
 8001SOL    HW126010   6.848   3.903   1.532  0.6313 -1.8318  0.7793
 8001SOL    HW226011   6.728   3.974   1.592  1.0954  0.2618 -0.6394
 8002SOL     OW26012   2.831   5.282   4.828  0.1582 -0.3370  0.0219
 8002SOL    HW126013   2.873   5.200   4.801 -1.4286 -1.7270  1.5773
 8002SOL    HW226014   2.782   5.310   4.751  0.5916 -0.9106 -0.4783
 8003SOL     OW26015   3.924  10.472   5.866 -0.8377  0.1519 -0.0909
 8003SOL    HW126016   3.884  10.539   5.811  1.1633  0.4145 -1.3226
 8003SOL    HW226017   3.953  10.520   5.944  1.9366  1.1715 -1.6087
 8004SOL     OW26018   9.541   1.356   5.809 -0.0504 -0.1248  0.0480
 8004SOL    HW126019   9.617   1.301   5.793  1.4447  2.0018 -0.4852
 8004SOL    HW226020   9.563   1.407   5.887 -0.3639  1.4177 -0.8357
 8005SOL     OW26021   2.495   4.875  10.200  0.2961  0.2043  0.0344
 8005SOL    HW126022   2.573   4.824  10.221  0.1778  0.1673  0.3948
 8005SOL    HW226023   2.429   4.844  10.262  0.2033  0.7433  0.2107
 8006SOL     OW26024   7.592   0.426   5.244  0.5063  0.1312  0.2957
 8006SOL    HW126025   7.674   0.405   5.289  1.5774 -0.4683 -1.8059
 8006SOL    HW226026   7.598   0.380   5.160 -2.2528 -0.3876  0.2857
 8007SOL     OW26027  10.649   0.875  10.407  0.7699 -0.5777  0.0488
 8007SOL    HW126028  10.630   0.946  10.346  0.3514  0.6705  1.5584
 8007SOL    HW226029  10.603   0.799  10.372 -0.1892  0.3312 -0.7174
 8008SOL     OW26030   3.372   5.791   0.100 -0.0784 -0.2096  0.6478
 8008SOL    HW126031   3.461   5.757   0.110  0.4200  0.9261  0.1514
 8008SOL    HW226032   3.351   5.776   0.008 -1.6092 -3.2647  1.3359
 8009SOL     OW26033   2.513   1.956   3.475 -0.5941  0.8608  0.0434
 8009SOL    HW126034   2.457   2.028   3.502 -0.1534  0.9004  0.9088
 8009SOL    HW226035   2.465   1.912   3.405 -0.8224  2.0468 -0.5577
 8010SOL     OW26036   8.509   6.537   9.192  0.0482  0.0807  0.1338
 8010SOL    HW126037   8.431   6.592   9.193  0.6832  1.0061 -0.6012
 8010SOL    HW226038   8.580   6.594   9.221  0.4755 -0.7396  0.7544
 8011SOL     OW26039   9.444  10.086  11.207  0.5379 -0.6006 -0.2913
 8011SOL    HW126040   9.478  10.162  11.254  0.4040 -0.5847 -0.2184
 8011SOL    HW226041   9.399  10.122  11.131 -2.3202 -0.3426  1.3754
 8012SOL     OW26042   3.288   4.062  10.808 -0.8462 -0.7276  0.0294
 8012SOL    HW126043   3.240   4.073  10.726  0.0523 -1.7128 -0.6554
 8012SOL    HW226044   3.260   3.977  10.841  0.0010 -1.0681 -0.0994
 8013SOL     OW26045   0.970   3.767   7.069 -0.1878  0.0197 -0.1389
 8013SOL    HW126046   0.883   3.747   7.034  0.1224 -0.7314 -0.4898
 8013SOL    HW226047   1.024   3.693   7.042  0.3280 -0.0101  0.9432
 8014SOL     OW26048  10.375   9.540   3.959  0.1447  0.2082  0.2855
 8014SOL    HW126049  10.352   9.632   3.973 -1.9788 -0.5426  2.4834
 8014SOL    HW226050  10.450   9.525   4.017  1.9456  1.0122 -1.7303
 8015SOL     OW26051   0.376   7.979   2.637 -0.0794 -0.2066 -0.8270
 8015SOL    HW126052   0.423   8.048   2.591 -1.3265  0.3406 -1.3373
 8015SOL    HW226053   0.412   7.897   2.603  1.5718  0.1586 -0.0491
 8016SOL     OW26054   2.569   6.133   0.725  0.3120 -0.6824 -0.5861
 8016SOL    HW126055   2.485   6.178   0.715  0.0782 -0.7527  0.9259
 8016SOL    HW226056   2.605   6.131   0.636 -0.8315  0.2132 -1.0993
 8017SOL     OW26057   5.621  10.523   3.565 -0.0947 -0.6328 -0.0165
 8017SOL    HW126058   5.589  10.474   3.489 -1.1305 -0.4432  0.2803
 8017SOL    HW226059   5.544  10.535   3.620  0.7020 -1.0599  1.2407
 8018SOL     OW26060   0.378  10.041   0.755  0.7215  0.0725  0.0561
 8018SOL    HW126061   0.343  10.128   0.736  0.9746  0.0638 -0.4735
 8018SOL    HW226062   0.390  10.040   0.850 -0.6325  0.0960  0.2544
 8019SOL     OW26063   3.625   8.077   9.620 -0.7693 -0.1697  0.5973
 8019SOL    HW126064   3.652   8.005   9.676 -2.5301 -1.8329 -0.5748
 8019SOL    HW226065   3.694   8.085   9.555 -0.5883 -0.8418  0.7064
 8020SOL     OW26066   1.282   0.600   4.511  0.3324 -0.3285  0.2528
 8020SOL    HW126067   1.252   0.641   4.592 -0.0624  1.5150 -0.7576
 8020SOL    HW226068   1.208   0.546   4.483  0.8274 -1.7726  1.5603
 8021SOL     OW26069  11.083  10.277   7.859 -0.2026  0.1771  0.3707
 8021SOL    HW126070  11.169  10.237   7.851 -0.0948  0.5105 -0.1653
 8021SOL    HW226071  11.089  10.357   7.807 -1.2279 -0.4442 -0.7637
 8022SOL     OW26072   1.585   2.053   8.994 -1.1802  0.0334  0.0214
 8022SOL    HW126073   1.539   2.084   9.072 -1.3483  0.7873 -0.3615
 8022SOL    HW226074   1.601   2.133   8.944 -0.6764 -0.3924 -0.5024
 8023SOL     OW26075   5.524   5.142   7.237  0.0534  1.0419  0.4363
 8023SOL    HW126076   5.597   5.120   7.295  1.1241  0.0956 -1.1965
 8023SOL    HW226077   5.535   5.236   7.221 -0.6342  1.4730  2.1890
 8024SOL     OW26078   9.316   8.762   7.519  0.5696  0.0263  0.0199
 8024SOL    HW126079   9.283   8.852   7.516 -1.2315 -0.5749  0.3162
 8024SOL    HW226080   9.335   8.747   7.612 -0.2648 -0.2591  0.1532
 8025SOL     OW26081   9.059   1.956   9.360 -0.3241 -1.0560 -0.4782
 8025SOL    HW126082   9.051   1.986   9.270 -0.5162  1.6770  0.3539
 8025SOL    HW226083   9.144   1.989   9.389 -1.0107 -0.3354  0.8289
 8026SOL     OW26084   7.408   9.022   4.607 -0.2601  1.1881  0.4827
 8026SOL    HW126085   7.348   8.959   4.565 -1.1967  1.9887  0.5875
 8026SOL    HW226086   7.449   8.972   4.677 -1.4911  0.8512  0.9908
 8027SOL     OW26087   5.001   2.230  10.341  0.7484  0.1505 -0.5753
 8027SOL    HW126088   4.986   2.137  10.354  1.2789  0.0820 -0.4177
 8027SOL    HW226089   5.048   2.236  10.258 -1.8304  0.5228 -2.1305
 8028SOL     OW26090   0.752   9.786   8.631  0.0284 -0.1747  0.1945
 8028SOL    HW126091   0.802   9.828   8.701 -1.7511 -0.5178  1.7195
 8028SOL    HW226092   0.818   9.735   8.583  1.1549 -0.7032  2.1943
 8029SOL     OW26093   8.591   4.801   7.850 -0.0737 -0.1273  0.3537
 8029SOL    HW126094   8.585   4.743   7.927 -0.3864  0.5153  0.8221
 8029SOL    HW226095   8.684   4.825   7.846 -0.0447 -0.2123  0.4913
 8030SOL     OW26096   1.185   2.270   4.576  0.0147 -0.0805 -0.1904
 8030SOL    HW126097   1.190   2.174   4.567 -2.4132 -0.3043  0.1029
 8030SOL    HW226098   1.205   2.303   4.488  2.5024 -0.7048  0.0661
 8031SOL     OW26099   4.087   1.598   3.543 -0.4660  0.2271 -0.3988
 8031SOL    HW126100   4.014   1.576   3.601  0.3893 -0.9771  0.2549
 8031SOL    HW226101   4.140   1.519   3.540  0.7792  1.0549 -0.9288
 8032SOL     OW26102   1.421   1.651   9.971 -0.1208 -0.3802 -0.0761
 8032SOL    HW126103   1.341   1.605   9.996 -0.1109 -0.0953  0.4760
 8032SOL    HW226104   1.483   1.580   9.950 -0.3700 -0.6056 -0.0568
 8033SOL     OW26105  11.197   9.576   9.062 -0.7276 -0.5355 -0.0855
 8033SOL    HW126106  11.165   9.488   9.083 -0.6994  0.2111  3.8114
 8033SOL    HW226107  11.149   9.634   9.120  0.9159  1.7843 -0.8677
 8034SOL     OW26108   5.288   8.599   2.633  0.2221  0.3831  0.0970
 8034SOL    HW126109   5.288   8.680   2.581 -3.1329  1.9485  2.1607
 8034SOL    HW226110   5.212   8.550   2.601 -0.4995  0.2777  1.8782
 8035SOL     OW26111   5.807   3.651   3.397 -0.7020  0.0635 -0.7819
 8035SOL    HW126112   5.856   3.571   3.376 -0.2844 -0.0617  0.5604
 8035SOL    HW226113   5.863   3.722   3.364 -1.6295 -0.1721 -3.0788
 8036SOL     OW26114  10.913  10.471  11.163  1.0873  0.0300 -0.4924
 8036SOL    HW126115  10.945  10.546  11.213  0.0687 -0.0914  0.3874
 8036SOL    HW226116  10.961  10.396  11.200 -1.1710 -0.3780  1.9164
 8037SOL     OW26117   9.156   0.124   6.739  0.6136 -1.0086  0.2593
 8037SOL    HW126118   9.179   0.104   6.648  0.2165 -0.5575  0.0544
 8037SOL    HW226119   9.142   0.219   6.739  2.1178 -0.7628  1.1286
 8038SOL     OW26120  10.358   0.975   7.080 -0.2516  0.0775 -0.3083
 8038SOL    HW126121  10.396   0.980   7.168  1.1862 -1.0070 -0.8293
 8038SOL    HW226122  10.434   0.967   7.022 -1.0640  2.4076 -1.8395
 8039SOL     OW26123   2.370   5.493   3.727 -0.1546 -0.0617 -0.3345
 8039SOL    HW126124   2.410   5.542   3.799  2.1229 -2.5461  0.2805
 8039SOL    HW226125   2.430   5.507   3.653  0.0211 -1.1063 -0.4023
 8040SOL     OW26126   5.747   9.625   7.593 -0.1854 -0.0449  0.3951
 8040SOL    HW126127   5.704   9.603   7.511 -1.0488  1.8694  0.2744
 8040SOL    HW226128   5.715   9.559   7.655 -0.7962 -0.5416 -0.4294
 8041SOL     OW26129   5.451   3.947  10.637  0.7839  0.0738  0.6973
 8041SOL    HW126130   5.543   3.973  10.633  1.1908 -1.4035  0.1744
 8041SOL    HW226131   5.420   3.953  10.547  1.0661 -1.7959  0.4393
 8042SOL     OW26132   2.247   3.167   9.299  0.1477 -0.3536  0.3157
 8042SOL    HW126133   2.242   3.250   9.252 -1.3673  0.3320  1.6060
 8042SOL    HW226134   2.279   3.190   9.386  1.1653 -1.3551  0.2317
 8043SOL     OW26135   4.097   3.016  10.282  1.0975  0.2429 -0.1364
 8043SOL    HW126136   4.163   2.948  10.270  0.0412 -0.9113  0.3756
 8043SOL    HW226137   4.105   3.040  10.375 -0.0677 -0.8644  0.2734
 8044SOL     OW26138   2.236   7.503   7.232  0.6938  0.3604 -0.5124
 8044SOL    HW126139   2.157   7.496   7.286  1.6240  1.7427  1.1354
 8044SOL    HW226140   2.294   7.436   7.268  0.9172  0.5497 -0.5242
 8045SOL     OW26141   6.648   1.110   6.679 -0.4031  0.1555 -0.3642
 8045SOL    HW126142   6.686   1.173   6.618 -0.1472 -0.1099 -0.4824
 8045SOL    HW226143   6.555   1.105   6.654 -0.0488 -0.8776 -1.5464
 8046SOL     OW26144   2.389   5.180   1.868  0.3917  0.1849 -0.3352
 8046SOL    HW126145   2.415   5.257   1.918 -1.1001  0.2405  0.3847
 8046SOL    HW226146   2.437   5.108   1.909  1.2155  0.5988 -0.5430
 8047SOL     OW26147  10.848   3.471   6.817  0.0971  0.1086 -0.5245
 8047SOL    HW126148  10.924   3.452   6.873 -0.5068 -1.2560 -0.1176
 8047SOL    HW226149  10.778   3.492   6.879 -0.7207 -1.9323 -0.6886
 8048SOL     OW26150  10.399   1.974   2.631  0.0949  0.0116  0.3920
 8048SOL    HW126151  10.485   2.015   2.619  0.2202  0.0277  1.2678
 8048SOL    HW226152  10.418   1.888   2.667 -0.2494 -0.0791  0.3583
 8049SOL     OW26153   2.969   1.009   2.107 -1.0914  0.1711 -0.4440
 8049SOL    HW126154   2.992   0.917   2.113  0.4938  0.2931 -2.9897
 8049SOL    HW226155   2.927   1.018   2.021 -4.0669  1.3579  0.9868
 8050SOL     OW26156   0.263   1.400  11.059 -0.6618  0.2312 -0.4720
 8050SOL    HW126157   0.280   1.329  11.121  0.9967  0.6159 -0.4403
 8050SOL    HW226158   0.334   1.393  10.995  0.7139  3.0135  0.5863
 8051SOL     OW26159   6.638   0.763   4.160 -0.1610 -0.1806  0.5522
 8051SOL    HW126160   6.733   0.775   4.153 -0.2605  0.7886  0.7606
 8051SOL    HW226161   6.628   0.685   4.215  0.5108  0.9535  2.3533
 8052SOL     OW26162   2.248   4.206   9.908 -0.2789  0.5266 -0.2738
 8052SOL    HW126163   2.296   4.232   9.830  0.8618 -0.2530  0.1357
 8052SOL    HW226164   2.191   4.134   9.879  0.3887  0.0111 -0.3404
 8053SOL     OW26165   8.418   2.376   3.403  0.1193 -0.1699  0.2901
 8053SOL    HW126166   8.414   2.338   3.491  2.1462 -1.4475 -0.1097
 8053SOL    HW226167   8.354   2.326   3.352  0.3570 -0.7782  0.5826
 8054SOL     OW26168   2.425   4.138  11.000  0.8695  0.0126 -0.3263
 8054SOL    HW126169   2.520   4.136  11.000  1.0171  2.4654  1.8941
 8054SOL    HW226170   2.400   4.093  11.081  0.4902  3.6642  1.7648
 8055SOL     OW26171   8.005   8.639   5.872 -0.3350 -0.2219  0.2056
 8055SOL    HW126172   7.944   8.706   5.904 -0.8356 -0.1572 -0.8285
 8055SOL    HW226173   7.964   8.605   5.793  0.3520 -1.1225  0.2174
 8056SOL     OW26174   3.514   0.558   2.331  0.6501 -0.3748 -0.1009
 8056SOL    HW126175   3.499   0.652   2.331 -0.8637 -0.5849 -0.5493
 8056SOL    HW226176   3.468   0.526   2.253  1.1655 -1.4792  0.0269
 8057SOL     OW26177   6.388   5.919   2.518 -0.1393 -0.0754 -0.2397
 8057SOL    HW126178   6.343   5.844   2.556 -1.9193  0.6305 -0.8415
 8057SOL    HW226179   6.406   5.894   2.428 -0.1232 -0.0261 -0.2501
 8058SOL     OW26180   7.278   7.101   4.927  0.5698  0.4447  0.1521
 8058SOL    HW126181   7.297   7.172   4.866  1.3474  1.1424  1.1719
 8058SOL    HW226182   7.270   7.144   5.012 -1.5525 -0.3644  0.4149
 8059SOL     OW26183   5.280   5.986   9.727 -0.2241  0.2139 -0.1690
 8059SOL    HW126184   5.268   6.015   9.818  1.6819  0.1620  0.1372
 8059SOL    HW226185   5.201   5.936   9.708 -1.0308  0.9003  1.1855
 8060SOL     OW26186   7.993   0.151  10.163  0.2528 -0.1576 -0.1891
 8060SOL    HW126187   7.958   0.202  10.236  2.3638 -0.4808  1.1315
 8060SOL    HW226188   8.040   0.215  10.109 -1.5532  0.1362 -1.5178
 8061SOL     OW26189   7.119   9.519   4.574 -0.6107  0.3635 -0.0911
 8061SOL    HW126190   7.128   9.565   4.657  2.4947 -2.6204  1.5255
 8061SOL    HW226191   7.025   9.502   4.565 -1.1884  2.0576  2.0440
 8062SOL     OW26192   4.767   1.808   6.679 -0.2440  0.2778 -0.7548
 8062SOL    HW126193   4.760   1.717   6.650  1.9209 -0.4783  0.8130
 8062SOL    HW226194   4.861   1.825   6.682 -0.6060  2.5819 -0.9650
 8063SOL     OW26195  10.643   9.688   3.504  0.2086 -0.5456  0.0808
 8063SOL    HW126196  10.600   9.679   3.589  1.4140  0.9191  0.8760
 8063SOL    HW226197  10.709   9.755   3.517  1.0491 -0.9550 -1.7890
 8064SOL     OW26198   6.994   4.961   8.984 -0.5852  0.0952 -0.7149
 8064SOL    HW126199   6.987   5.035   8.924 -0.9044 -0.6424 -1.6266
 8064SOL    HW226200   7.077   4.973   9.028 -0.4212  0.7541 -1.1889
 8065SOL     OW26201  11.213   4.379   1.496  0.0911  0.1184  0.0182
 8065SOL    HW126202  11.273   4.396   1.568  0.8416  0.5326 -0.6877
 8065SOL    HW226203  11.132   4.424   1.520  0.3343  0.2519  0.5931
 8066SOL     OW26204   5.318   3.483   7.507 -0.2837 -0.4186  0.2122
 8066SOL    HW126205   5.269   3.506   7.428 -0.5526  1.7940  0.9601
 8066SOL    HW226206   5.404   3.458   7.475 -0.6888 -0.5310 -0.8444
 8067SOL     OW26207   0.697   6.427   6.675  0.0436  0.0431  0.2152
 8067SOL    HW126208   0.749   6.422   6.755 -0.0700  1.0312  0.3660
 8067SOL    HW226209   0.741   6.494   6.622 -1.2127  1.0973  0.4681
 8068SOL     OW26210   1.768  11.265  10.587 -1.0396 -0.1876  0.3238
 8068SOL    HW126211   1.733  11.176  10.599 -0.2100 -0.8202 -1.5856
 8068SOL    HW226212   1.820  11.280  10.666  1.2402 -2.6595 -0.5213
 8069SOL     OW26213  11.181   2.469   8.984 -0.5663 -0.5200  0.0663
 8069SOL    HW126214  11.220   2.550   9.016 -0.4516 -0.4770 -0.1831
 8069SOL    HW226215  11.167   2.416   9.063 -2.3426  0.4655  0.4761
 8070SOL     OW26216   2.994   2.353   9.743 -0.1597 -0.1046  0.0235
 8070SOL    HW126217   3.053   2.280   9.724  1.3648  0.8836  0.7658
 8070SOL    HW226218   3.017   2.381   9.831 -1.3054  0.7351  0.0794
 8071SOL     OW26219   0.492   9.240   8.927 -0.3395  0.5477  0.6367
 8071SOL    HW126220   0.480   9.296   8.850  0.0290  0.6563  0.6570
 8071SOL    HW226221   0.532   9.160   8.893 -2.5822 -0.5222  0.2985
 8072SOL     OW26222   2.922   1.818   6.677  0.4266 -0.4166 -0.1605
 8072SOL    HW126223   2.900   1.891   6.736 -0.0636  0.0076 -0.8556
 8072SOL    HW226224   2.955   1.750   6.736  1.7391  0.6613  0.4305
 8073SOL     OW26225   0.365   6.817   7.991  0.1890  0.3225 -0.2944
 8073SOL    HW126226   0.296   6.878   7.964 -0.0459 -0.1108 -0.6855
 8073SOL    HW226227   0.385   6.768   7.911 -0.4770 -0.9496  0.2930
 8074SOL     OW26228   4.319  10.285   1.133 -0.1080 -0.0765 -0.1538
 8074SOL    HW126229   4.285  10.338   1.060 -1.8161 -1.0134 -0.1008
 8074SOL    HW226230   4.292  10.196   1.112 -1.6145 -0.2369  2.1208
 8075SOL     OW26231   4.220   2.457   3.222  0.4250 -0.8091  0.8168
 8075SOL    HW126232   4.165   2.535   3.231  2.0068  0.4411  0.0842
 8075SOL    HW226233   4.262   2.447   3.308 -2.0903 -2.7713  1.9522
 8076SOL     OW26234   1.020   0.089   1.081  0.5701  0.1938 -0.2252
 8076SOL    HW126235   0.995   0.050   1.165  1.5881 -0.2772 -0.1227
 8076SOL    HW226236   1.064   0.018   1.035 -0.0332  0.4353 -1.1884
 8077SOL     OW26237   3.964   6.733  10.690 -0.6612 -0.2539  0.7483
 8077SOL    HW126238   3.997   6.821  10.673 -1.0375  0.0024  1.3128
 8077SOL    HW226239   4.020   6.699  10.760  0.4080 -1.0221 -0.4525
 8078SOL     OW26240   7.488   9.778   5.252  0.4052  0.0260  0.0888
 8078SOL    HW126241   7.558   9.735   5.302 -0.6509 -1.2821  0.4927
 8078SOL    HW226242   7.500   9.748   5.162  2.1742  2.2103 -0.5056
 8079SOL     OW26243   0.734   6.996   4.688  0.2977  0.2285 -0.4263
 8079SOL    HW126244   0.798   7.002   4.759  0.3669  0.5196 -0.5111
 8079SOL    HW226245   0.675   7.070   4.702 -0.8452 -0.7872  0.4394
 8080SOL     OW26246   5.652   5.281   2.802 -0.0252  0.2104  0.2098
 8080SOL    HW126247   5.738   5.320   2.786 -0.7956  1.4566 -1.1043
 8080SOL    HW226248   5.610   5.340   2.864 -0.2403  0.0425  0.2234
 8081SOL     OW26249   6.109   4.422   1.322 -0.1080 -0.3571 -0.2645
 8081SOL    HW126250   6.094   4.359   1.252 -1.0649 -1.4210  0.8569
 8081SOL    HW226251   6.071   4.381   1.400  1.4157  0.5319  1.0118
 8082SOL     OW26252   2.948  11.255   9.284 -0.7335 -0.1832  0.2243
 8082SOL    HW126253   3.007  11.215   9.348  1.0129  1.3359 -0.3368
 8082SOL    HW226254   2.900  11.320   9.335 -0.5146 -0.0926  0.3185
 8083SOL     OW26255  10.503  10.755   0.514 -0.4792  0.3499  0.0327
 8083SOL    HW126256  10.589  10.792   0.492 -0.5143  0.1509 -0.4556
 8083SOL    HW226257  10.514  10.722   0.604 -0.3271  1.1462  0.3139
 8084SOL     OW26258   1.206   9.684   6.860  0.1847 -0.2686 -0.5554
 8084SOL    HW126259   1.141   9.733   6.809 -0.0165 -1.7820 -1.8487
 8084SOL    HW226260   1.273   9.658   6.796  0.0162 -2.0844 -0.0693
 8085SOL     OW26261   7.126   6.395  10.815 -0.4006  0.3795  0.2985
 8085SOL    HW126262   7.073   6.397  10.735 -1.3459  2.3617  0.9170
 8085SOL    HW226263   7.076   6.341  10.876  0.6954 -1.8080 -0.6043
 8086SOL     OW26264  11.270   8.529   2.876  0.6720  0.1151  0.5693
 8086SOL    HW126265  11.321   8.609   2.891 -0.7209  0.9895  0.7497
 8086SOL    HW226266  11.196   8.535   2.936 -0.8652 -0.0433 -1.2227
 8087SOL     OW26267   0.794   8.467   2.586 -0.1791  0.7550 -0.7082
 8087SOL    HW126268   0.733   8.538   2.608  0.9237  1.5950 -0.2364
 8087SOL    HW226269   0.845   8.454   2.666 -0.0978 -0.3128 -0.9212
 8088SOL     OW26270   5.834   8.423   3.561  0.4344 -0.2960 -0.3636
 8088SOL    HW126271   5.846   8.517   3.549 -2.1443  0.1657  0.2245
 8088SOL    HW226272   5.921   8.392   3.588  1.5595  1.7317 -1.3715
 8089SOL     OW26273   6.165   7.862   3.145  0.3666 -0.3521  0.0447
 8089SOL    HW126274   6.165   7.957   3.134 -1.6757 -0.2035  0.8554
 8089SOL    HW226275   6.230   7.830   3.083 -0.0553  1.4751 -1.4142
 8090SOL     OW26276   2.751   3.955   3.558 -0.0480  0.4456  0.1906
 8090SOL    HW126277   2.839   3.989   3.575 -0.1855  0.6939  0.4150
 8090SOL    HW226278   2.719   3.930   3.645 -0.8017  1.8226  0.3333
 8091SOL     OW26279   5.888   1.357   9.051  0.4585 -0.4203  0.8320
 8091SOL    HW126280   5.795   1.363   9.032  0.1549 -1.9435  1.6018
 8091SOL    HW226281   5.912   1.268   9.022  2.0296  0.4441 -0.7225
 8092SOL     OW26282   2.095   6.380   7.500 -0.4215 -0.0226  0.4386
 8092SOL    HW126283   2.109   6.288   7.521 -0.7092 -0.4195 -1.0055
 8092SOL    HW226284   2.052   6.417   7.578  1.8750 -0.4955  2.0257
 8093SOL     OW26285  10.660   1.802   6.206 -0.0724 -0.2356  0.3735
 8093SOL    HW126286  10.672   1.729   6.266  2.9644 -0.0133  0.1768
 8093SOL    HW226287  10.728   1.865   6.230  1.5451 -0.2819 -3.4287
 8094SOL     OW26288   5.798   4.331   6.229 -0.2824  0.0805  0.2419
 8094SOL    HW126289   5.878   4.335   6.281 -0.9834 -2.0214  1.6198
 8094SOL    HW226290   5.829   4.319   6.139  0.9764 -0.6445  0.7422
 8095SOL     OW26291   6.762   3.465   4.141 -0.7999 -0.5465 -0.2922
 8095SOL    HW126292   6.715   3.413   4.207 -0.6130  0.1110  0.3712
 8095SOL    HW226293   6.844   3.417   4.127 -1.6012 -1.6645 -1.4089
 8096SOL     OW26294   8.253   3.790   6.381 -0.1030 -0.3556 -0.3366
 8096SOL    HW126295   8.195   3.736   6.434  1.1983 -0.5438  0.9388
 8096SOL    HW226296   8.206   3.873   6.372  0.4739  0.4569  2.9247
 8097SOL     OW26297   6.097   8.425   9.097  0.8913 -0.8868  0.3826
 8097SOL    HW126298   6.110   8.509   9.052  1.3015 -1.0947  0.1054
 8097SOL    HW226299   6.158   8.365   9.054 -0.9391 -1.9168 -0.9381
 8098SOL     OW26300   4.095   8.147   0.278  0.2461 -0.3834  0.3225
 8098SOL    HW126301   4.043   8.124   0.355 -0.5977  2.1830  0.6115
 8098SOL    HW226302   4.099   8.243   0.280  1.6872 -0.3375 -1.8863
 8099SOL     OW26303   8.848   3.440   0.330  0.5700  0.2859 -0.6796
 8099SOL    HW126304   8.882   3.516   0.283  0.0708 -0.5598 -2.5284
 8099SOL    HW226305   8.754   3.441   0.311  0.5395 -0.6938 -0.6077
 8100SOL     OW26306   8.739   0.609   3.654  0.7669  0.5433  0.0696
 8100SOL    HW126307   8.800   0.652   3.594  1.6010  0.0505  0.5544
 8100SOL    HW226308   8.679   0.679   3.681  1.2124  1.0682 -0.2819
 8101SOL     OW26309   8.808   5.178   4.872 -0.2016  0.7112  0.0948
 8101SOL    HW126310   8.727   5.192   4.822  0.7017  0.1651 -1.6071
 8101SOL    HW226311   8.798   5.234   4.949 -1.6351  1.6909 -0.7418
 8102SOL     OW26312  11.248  10.538   4.317  0.4963 -0.1942 -0.3561
 8102SOL    HW126313  11.307  10.498   4.381 -0.3888 -0.3943  0.3542
 8102SOL    HW226314  11.305  10.593   4.263  1.2054  0.3528  0.9070
 8103SOL     OW26315   9.139   7.984   6.333  0.3506  0.2651 -0.3548
 8103SOL    HW126316   9.064   7.934   6.366  1.3985 -1.4759 -0.5012
 8103SOL    HW226317   9.147   8.057   6.394 -0.4289 -0.4647  0.6665
 8104SOL     OW26318   0.458   1.764   8.617  0.6378 -0.0868  0.3060
 8104SOL    HW126319   0.381   1.718   8.650 -0.1665  1.5453  0.8091
 8104SOL    HW226320   0.491   1.812   8.693  2.3075 -0.9008  0.1486
 8105SOL     OW26321   3.998   1.749   5.190  0.0802 -0.0133 -0.7496
 8105SOL    HW126322   4.042   1.815   5.243  0.8238 -1.0796  0.0148
 8105SOL    HW226323   3.973   1.794   5.110 -1.1297  1.6788  0.4996
 8106SOL     OW26324   9.521   3.887   6.047 -0.2667 -0.0769 -0.4596
 8106SOL    HW126325   9.544   3.964   5.996 -1.8204  1.0971  0.5393
 8106SOL    HW226326   9.572   3.894   6.128 -1.6997  0.8962  0.4068
 8107SOL     OW26327   8.146   6.201   5.417  0.3567  0.4944  0.2999
 8107SOL    HW126328   8.090   6.243   5.482 -1.1315 -1.7425  0.5584
 8107SOL    HW226329   8.086   6.151   5.362  2.0612 -2.4274  0.8989
 8108SOL     OW26330   7.979  10.219   8.857 -0.3983 -0.0419 -0.0992
 8108SOL    HW126331   8.048  10.246   8.797  0.1032  1.2833  1.0262
 8108SOL    HW226332   7.965  10.126   8.837  0.0505  0.2508 -1.9321
 8109SOL     OW26333   5.863   8.339  10.432  0.2192 -0.3446  0.2161
 8109SOL    HW126334   5.944   8.291  10.449  2.2485  2.5058 -0.6505
 8109SOL    HW226335   5.798   8.270  10.413  1.9128 -2.8251  2.6179
 8110SOL     OW26336   1.342   4.070   2.519  0.0518  0.1211 -0.9410
 8110SOL    HW126337   1.291   4.148   2.501  1.2271  1.4044  0.9267
 8110SOL    HW226338   1.292   3.998   2.480 -0.6679  1.8403 -3.4187
 8111SOL     OW26339   6.896  10.530   6.388 -0.1887 -0.3025 -0.1276
 8111SOL    HW126340   6.896  10.620   6.356  1.3623 -0.4046 -0.5196
 8111SOL    HW226341   6.831  10.529   6.458  0.4512  1.3814  0.5363
 8112SOL     OW26342   0.775   3.214   3.214  0.2067 -0.0695  0.5167
 8112SOL    HW126343   0.779   3.142   3.276  1.5658  0.1589  0.7207
 8112SOL    HW226344   0.866   3.241   3.201 -0.0856  0.2852 -1.1205
 8113SOL     OW26345   2.145   4.547   3.857  0.4942 -0.4360  0.0595
 8113SOL    HW126346   2.094   4.604   3.799  1.7709  1.3738  0.6090
 8113SOL    HW226347   2.228   4.535   3.811  0.3383 -1.6396  0.0859
 8114SOL     OW26348   6.887   6.955   9.015 -0.6353 -0.3708  0.3363
 8114SOL    HW126349   6.897   6.993   8.928  1.5918 -0.2504  0.5824
 8114SOL    HW226350   6.974   6.963   9.055 -1.8367  0.5568  2.9920
 8115SOL     OW26351   0.640   2.342   5.708  0.3738  0.4695  0.0253
 8115SOL    HW126352   0.585   2.335   5.630  2.1301 -0.8219 -1.1925
 8115SOL    HW226353   0.584   2.384   5.773 -1.6511  0.2548 -1.4625
 8116SOL     OW26354  10.944   0.535   6.393  0.7042 -0.0690 -0.5012
 8116SOL    HW126355  10.876   0.545   6.460  0.6152  0.5105 -0.6755
 8116SOL    HW226356  11.026   0.555   6.439  0.6172  0.5848 -0.6266
 8117SOL     OW26357   2.115  10.026   3.749  0.3124 -0.5249  0.2215
 8117SOL    HW126358   2.047   9.990   3.805  0.6567 -0.9916  0.3546
 8117SOL    HW226359   2.112   9.972   3.670 -0.9468  0.8653 -0.7186
 8118SOL     OW26360   2.434  10.598   6.117 -0.2805  0.3517  0.3535
 8118SOL    HW126361   2.386  10.516   6.110  0.9848 -0.4140  0.1950
 8118SOL    HW226362   2.395  10.643   6.191 -0.4102 -0.8180  1.0205
 8119SOL     OW26363   1.655   6.413   6.050  0.0588 -0.0516 -0.6843
 8119SOL    HW126364   1.685   6.324   6.032  4.3105  1.1059 -0.3042
 8119SOL    HW226365   1.620   6.409   6.139 -0.1223 -1.4021 -0.8021
 8120SOL     OW26366   4.233  10.695   3.563  0.4714  0.4096 -0.4786
 8120SOL    HW126367   4.209  10.746   3.640 -0.9696 -0.9869  0.0552
 8120SOL    HW226368   4.328  10.695   3.563  0.5956 -1.2655  2.5440
 8121SOL     OW26369   1.957  10.923   0.083  0.3457 -0.5703 -0.4822
 8121SOL    HW126370   2.041  10.888   0.112 -0.0233 -0.7989  0.3296
 8121SOL    HW226371   1.912  10.848   0.043 -0.7898 -1.3166  2.0047
 8122SOL     OW26372   8.597   9.299   2.940  0.1641 -0.9032 -0.1816
 8122SOL    HW126373   8.538   9.367   2.974  0.6658 -0.8830  0.6790
 8122SOL    HW226374   8.571   9.220   2.988 -2.7822 -2.2545 -3.6056
 8123SOL     OW26375   5.910   4.094   0.431  0.6731 -0.1827 -0.6626
 8123SOL    HW126376   5.870   4.110   0.346  0.2986 -0.4071 -0.5275
 8123SOL    HW226377   5.958   4.175   0.451 -0.5481  0.4838 -0.3517
 8124SOL     OW26378   2.781   8.803   2.771 -0.4481 -0.0813 -0.3773
 8124SOL    HW126379   2.815   8.777   2.856  0.2091 -0.9125 -0.8856
 8124SOL    HW226380   2.828   8.750   2.708  0.8414  2.2008 -1.4769
 8125SOL     OW26381  10.158   8.360   5.641  0.0837 -0.4927  0.0239
 8125SOL    HW126382  10.113   8.278   5.664 -1.6260  0.8801  1.8382
 8125SOL    HW226383  10.208   8.383   5.720  1.6902 -0.4597 -0.9579
 8126SOL     OW26384   1.820   6.882   0.535 -0.2063  0.0218 -0.2793
 8126SOL    HW126385   1.776   6.870   0.619  1.0856 -0.3103  0.3664
 8126SOL    HW226386   1.820   6.977   0.521  1.9377  0.3362  1.4301
 8127SOL     OW26387  10.933   2.603   0.534 -0.2738  0.4210 -0.0779
 8127SOL    HW126388  11.027   2.606   0.516 -0.4475  3.0024 -1.0496
 8127SOL    HW226389  10.894   2.575   0.451 -0.3950 -0.0508  0.1387
 8128SOL     OW26390   0.515  10.615   9.810 -0.6745  0.2603 -0.2553
 8128SOL    HW126391   0.478  10.692   9.854  0.0735 -0.5888  1.9758
 8128SOL    HW226392   0.462  10.542   9.843 -0.8149 -0.3056 -1.6854
 8129SOL     OW26393   4.364   0.507  10.511 -0.4260  0.1996  0.3651
 8129SOL    HW126394   4.434   0.572  10.517 -0.7967  0.8322 -1.4770
 8129SOL    HW226395   4.286   0.551  10.545 -0.6380  0.6731 -0.7163
 8130SOL     OW26396   5.337   1.564   2.282  0.1730  0.0627  0.5361
 8130SOL    HW126397   5.278   1.510   2.335 -0.2415  1.5099  1.6010
 8130SOL    HW226398   5.375   1.627   2.343 -0.1206  1.6335 -0.8086
 8131SOL     OW26399   2.024   5.994   5.123  0.4153 -0.4032  0.7666
 8131SOL    HW126400   1.988   6.073   5.082  0.2344 -0.1245  1.4383
 8131SOL    HW226401   2.096   6.026   5.177  1.8975 -1.0013 -0.8061
 8132SOL     OW26402   8.970  10.633   9.513 -0.6830  0.5106 -0.1699
 8132SOL    HW126403   8.969  10.728   9.525  3.5775  0.4555  2.7225
 8132SOL    HW226404   8.917  10.599   9.586  0.3928  0.6874  0.7193
 8133SOL     OW26405   5.152   2.677   2.006 -0.3840  0.5770  0.0280
 8133SOL    HW126406   5.139   2.614   1.935  0.1903  0.9987 -0.4630
 8133SOL    HW226407   5.191   2.753   1.964  3.0336 -0.3023  1.2173
 8134SOL     OW26408   1.969   8.108   8.163  0.3829 -0.5510  0.3154
 8134SOL    HW126409   1.879   8.114   8.130  0.2467 -0.5102  0.6889
 8134SOL    HW226410   1.989   8.015   8.161 -0.6416 -0.8967  2.7643
 8135SOL     OW26411   2.870   6.746   4.873 -0.0112 -0.4583 -0.2983
 8135SOL    HW126412   2.922   6.678   4.915  0.6526  1.1478  1.6624
 8135SOL    HW226413   2.917   6.767   4.793  1.0726 -0.6717  0.2646
 8136SOL     OW26414   9.126  11.239   2.330  0.2011 -0.1466 -0.4224
 8136SOL    HW126415   9.132  11.298   2.405  4.4055  0.0951 -0.7272
 8136SOL    HW226416   9.135  11.151   2.367 -2.2953 -0.4287 -0.3310
 8137SOL     OW26417   2.219   6.098   5.346 -0.0096 -1.0097  0.2801
 8137SOL    HW126418   2.297   6.146   5.374 -0.3960  0.2836 -0.7680
 8137SOL    HW226419   2.151   6.124   5.409  0.1760 -1.4833  0.6881
 8138SOL     OW26420   0.935   4.949   5.577  0.2284 -0.6756 -0.4193
 8138SOL    HW126421   1.019   4.995   5.579  0.3640 -0.9417  0.5369
 8138SOL    HW226422   0.892   4.981   5.498  1.2115 -0.5102 -0.8997
 8139SOL     OW26423   4.762   7.332   9.841 -0.4369 -0.1938  0.5320
 8139SOL    HW126424   4.852   7.364   9.847  0.0011 -0.5079 -2.4225
 8139SOL    HW226425   4.758   7.259   9.902  2.2685 -1.9817 -1.1713
 8140SOL     OW26426   9.210  10.479   2.954 -0.0032 -0.2172  0.1214
 8140SOL    HW126427   9.231  10.435   3.036  1.2153 -1.5987 -0.8822
 8140SOL    HW226428   9.283  10.539   2.940 -0.5672  0.5415  0.3888
 8141SOL     OW26429  11.283  10.407   9.937 -0.5340 -0.0875  0.1321
 8141SOL    HW126430  11.352  10.446   9.990  1.0567 -1.7793 -0.6091
 8141SOL    HW226431  11.276  10.464   9.860  0.5291 -0.2919 -0.1214
 8142SOL     OW26432   5.221   5.253   1.584 -0.3880 -0.6505 -0.7763
 8142SOL    HW126433   5.234   5.309   1.661 -0.7771 -2.5583  0.7615
 8142SOL    HW226434   5.292   5.278   1.524  0.3998  0.3767  0.5193
 8143SOL     OW26435   1.797   3.627   6.265  0.4131 -0.8056 -0.1734
 8143SOL    HW126436   1.727   3.685   6.295  0.7720 -0.3330 -0.2375
 8143SOL    HW226437   1.786   3.624   6.170 -1.2677 -3.0017  0.0250
 8144SOL     OW26438   1.003   7.337   9.033  0.1502  0.1922 -0.2270
 8144SOL    HW126439   0.940   7.308   9.098  0.5890  1.0173  0.6049
 8144SOL    HW226440   1.083   7.289   9.054  0.3553  0.6210  0.0023
 8145SOL     OW26441   3.708  10.509  10.734 -0.0711 -0.6078  0.2789
 8145SOL    HW126442   3.638  10.564  10.769  0.5195 -1.2608  2.6557
 8145SOL    HW226443   3.786  10.565  10.736  0.0146 -0.7257  0.2543
 8146SOL     OW26444   7.944   6.942   9.973 -0.1803 -0.2316  0.1961
 8146SOL    HW126445   7.957   6.855   9.936  0.4369  0.0530 -0.2892
 8146SOL    HW226446   8.011   6.996   9.931 -2.2339  1.1112 -1.6027
 8147SOL     OW26447   1.371   9.124   7.636 -0.2810  0.0099 -0.5899
 8147SOL    HW126448   1.437   9.102   7.701 -1.4804  1.0031  1.0391
 8147SOL    HW226449   1.370   9.219   7.633 -0.1902 -0.0015 -2.1752
 8148SOL     OW26450   5.848   2.860   9.468  0.2518 -0.2013  0.9816
 8148SOL    HW126451   5.788   2.786   9.470 -1.4381  1.1441  2.2205
 8148SOL    HW226452   5.912   2.837   9.400  0.1940 -3.0627  1.7625
 8149SOL     OW26453   2.245   5.410   3.975  0.0718  0.2315 -0.1579
 8149SOL    HW126454   2.194   5.484   4.008  0.1134  0.7863 -1.3011
 8149SOL    HW226455   2.281   5.369   4.053  0.0488  1.4172  0.4967
 8150SOL     OW26456   0.934  10.480   9.527  0.4853  0.2582 -0.5524
 8150SOL    HW126457   0.943  10.483   9.622  0.9537  2.3141 -0.6247
 8150SOL    HW226458   0.907  10.568   9.502 -0.5985 -0.5050 -2.2523
 8151SOL     OW26459   9.522   4.584   0.864 -0.1811 -0.3321 -0.3870
 8151SOL    HW126460   9.541   4.678   0.868  2.4846 -0.7879 -0.3681
 8151SOL    HW226461   9.426   4.579   0.862 -0.4590  2.3116  1.1979
 8152SOL     OW26462   9.131   6.743   0.914  0.1027  0.3390  0.4270
 8152SOL    HW126463   9.053   6.693   0.941 -0.1498  0.1848 -0.5684
 8152SOL    HW226464   9.180   6.755   0.995 -0.1257 -1.0176  0.7995
 8153SOL     OW26465   2.321   6.669   6.306 -0.7714  0.1053  0.4007
 8153SOL    HW126466   2.258   6.600   6.326  0.0820 -1.0712 -0.8095
 8153SOL    HW226467   2.402   6.640   6.348  0.5355 -1.4578 -2.8264
 8154SOL     OW26468   3.942   4.671   4.409  0.0303  0.7783 -0.2277
 8154SOL    HW126469   3.894   4.683   4.328 -0.3252 -0.0753 -0.1610
 8154SOL    HW226470   3.935   4.577   4.427 -2.6146  1.3294  2.4448
 8155SOL     OW26471   0.222   0.765   2.722 -0.0206 -1.0374  0.2057
 8155SOL    HW126472   0.304   0.729   2.754 -0.4043 -2.7919 -0.6488
 8155SOL    HW226473   0.243   0.804   2.637 -0.6458 -5.3018 -2.2144
 8156SOL     OW26474   6.018   9.277   3.075  0.0144 -0.1710 -0.1470
 8156SOL    HW126475   5.951   9.342   3.056 -1.6096 -1.7000  0.0714
 8156SOL    HW226476   6.008   9.212   3.005  1.4402 -0.3212 -0.2372
 8157SOL     OW26477   9.986   9.881   8.723  0.9935  0.1787  0.0385
 8157SOL    HW126478   9.974   9.792   8.754  0.8577  0.7488  1.7838
 8157SOL    HW226479  10.011   9.873   8.631 -2.4833 -1.5082 -0.9120
 8158SOL     OW26480   0.874   5.914   1.759 -0.4860 -0.8461  0.1349
 8158SOL    HW126481   0.887   5.972   1.684  0.9029  0.3407  1.2251
 8158SOL    HW226482   0.861   5.828   1.721  0.2706 -0.2949 -1.4791
 8159SOL     OW26483   7.246   9.385   2.220  0.0494 -0.2796  0.0499
 8159SOL    HW126484   7.160   9.345   2.235  0.1886 -1.1012 -1.1478
 8159SOL    HW226485   7.309   9.321   2.251  0.2604  0.6392  1.6336
 8160SOL     OW26486   2.520  10.609   9.685 -0.0735  0.3802 -0.5957
 8160SOL    HW126487   2.498  10.614   9.592 -3.3664  0.9710  0.1030
 8160SOL    HW226488   2.522  10.700   9.715  1.1515  0.2097 -0.0875
 8161SOL     OW26489   6.203   2.299   2.206  0.4986 -0.1900 -0.0012
 8161SOL    HW126490   6.222   2.207   2.224  1.1289 -0.1027 -0.2029
 8161SOL    HW226491   6.288   2.342   2.206  0.2687  0.2799 -0.5565
 8162SOL     OW26492   8.125  10.653   8.173 -1.1588  0.6911 -0.8529
 8162SOL    HW126493   8.212  10.649   8.134 -1.2765  0.4068 -1.0954
 8162SOL    HW226494   8.082  10.572   8.144 -0.7651 -0.2512  1.0373
 8163SOL     OW26495   7.772   3.391   1.299 -0.4540 -0.4460  0.8419
 8163SOL    HW126496   7.855   3.354   1.326 -1.1082 -1.8420  0.9927
 8163SOL    HW226497   7.706   3.326   1.324 -1.4740  0.0567 -0.4036
 8164SOL     OW26498  11.273   6.888   6.101  0.8157  0.0019  0.0140
 8164SOL    HW126499  11.319   6.827   6.159  0.3157  0.2794  0.7135
 8164SOL    HW226500  11.190   6.906   6.146  0.8538  1.0073 -0.2922
 8165SOL     OW26501   1.714   4.022   6.991 -0.6260 -0.2325 -0.6415
 8165SOL    HW126502   1.676   4.011   6.903  0.0373 -0.0725 -0.9527
 8165SOL    HW226503   1.786   3.958   6.994 -0.9270 -0.5528 -0.0444
 8166SOL     OW26504   1.815   5.138   7.222  0.6475  0.0651 -0.4245
 8166SOL    HW126505   1.808   5.112   7.314  2.3522  3.3867  0.7737
 8166SOL    HW226506   1.891   5.089   7.189 -0.3610 -1.6443 -0.3599
 8167SOL     OW26507   5.875   1.470  10.334  0.3197 -0.5999 -0.1377
 8167SOL    HW126508   5.860   1.556  10.294 -1.6301 -0.4798  0.7771
 8167SOL    HW226509   5.898   1.413  10.261  0.4552  0.4201 -0.9108
 8168SOL     OW26510   6.782   4.438   9.482  0.5963 -0.1104  0.3009
 8168SOL    HW126511   6.706   4.414   9.537  0.2612  1.9372  0.8032
 8168SOL    HW226512   6.857   4.405   9.531  0.2050  0.4657  1.3390
 8169SOL     OW26513   5.956   8.999   8.150 -0.4833  0.5833 -0.2535
 8169SOL    HW126514   5.974   9.064   8.082 -1.9083 -0.9671 -2.2235
 8169SOL    HW226515   5.870   9.022   8.183 -0.9730 -0.2280 -0.9229
 8170SOL     OW26516   2.649   1.816   3.099  0.6274 -0.1030  0.0962
 8170SOL    HW126517   2.722   1.782   3.047  2.0204  3.0890 -0.2557
 8170SOL    HW226518   2.664   1.781   3.187  1.0604 -1.5810 -0.5297
 8171SOL     OW26519   7.478   6.205   7.231  0.2924  0.5212 -0.0542
 8171SOL    HW126520   7.516   6.207   7.143 -2.2445 -0.1603 -1.2590
 8171SOL    HW226521   7.497   6.117   7.263  0.6387  0.5381 -0.2066
 8172SOL     OW26522  10.264   0.393   7.717  0.0311 -0.0066 -0.1179
 8172SOL    HW126523  10.231   0.356   7.635  0.6283 -1.5037  0.3032
 8172SOL    HW226524  10.250   0.325   7.782  0.6943  0.7041  0.7913
 8173SOL     OW26525  10.855   0.421   7.148  0.3940 -0.0409 -0.8666
 8173SOL    HW126526  10.798   0.469   7.208  1.2020  0.5479 -0.5510
 8173SOL    HW226527  10.823   0.443   7.061  0.8683  1.2291 -0.7350
 8174SOL     OW26528   7.132  11.285  10.052  0.6986 -0.4360  0.5828
 8174SOL    HW126529   7.082  11.236   9.987  0.5021  0.8354 -0.2689
 8174SOL    HW226530   7.134  11.375  10.018  2.6869 -0.2376  1.1095
 8175SOL     OW26531   5.213   8.427   4.826  0.5906 -0.0529 -0.3167
 8175SOL    HW126532   5.205   8.447   4.920  0.0323  0.3075 -0.4360
 8175SOL    HW226533   5.226   8.512   4.784 -1.4270  0.0814 -0.7877
 8176SOL     OW26534   3.484   9.427   5.495 -0.1397  0.1812 -0.2168
 8176SOL    HW126535   3.575   9.455   5.499 -0.2975  0.5800  1.2098
 8176SOL    HW226536   3.462   9.403   5.585 -1.6391  0.7182 -0.4046
 8177SOL     OW26537   2.988   9.045   3.373 -0.6530 -0.5118 -0.1891
 8177SOL    HW126538   3.030   9.109   3.317 -1.0018  0.2372  0.3889
 8177SOL    HW226539   3.058   8.985   3.400 -0.6439 -1.4823 -2.1873
 8178SOL     OW26540   0.628   6.203  10.952  0.2808  0.2663  0.1771
 8178SOL    HW126541   0.647   6.296  10.939  0.0189  0.3104  0.1050
 8178SOL    HW226542   0.652   6.162  10.870 -1.0865  0.5004 -0.3692
 8179SOL     OW26543   9.141  10.162   9.976 -0.6499 -0.5883 -0.2099
 8179SOL    HW126544   9.174  10.223  10.043 -2.2298  0.9147 -0.7384
 8179SOL    HW226545   9.100  10.218   9.910  1.3993 -1.9677 -2.8437
 8180SOL     OW26546   0.580   5.072   4.424  0.3979 -0.1902 -0.2684
 8180SOL    HW126547   0.604   4.988   4.386 -1.2484 -1.1683  0.7150
 8180SOL    HW226548   0.533   5.117   4.354 -0.0344 -0.7372 -0.3423
 8181SOL     OW26549   4.000   0.270   6.682 -0.1278  0.4595  0.1420
 8181SOL    HW126550   3.929   0.312   6.633  0.9946  1.7889 -0.4219
 8181SOL    HW226551   3.986   0.296   6.773 -1.3924 -0.8249  0.3499
 8182SOL     OW26552   8.742   7.952   0.794  0.2568  0.2599  0.0157
 8182SOL    HW126553   8.773   7.957   0.884  0.5126  0.1659 -0.0664
 8182SOL    HW226554   8.762   7.863   0.766  1.9741  0.8529 -0.7775
 8183SOL     OW26555   9.373   8.062   6.989  0.3517 -0.0091  0.0293
 8183SOL    HW126556   9.418   8.004   7.050  0.6328 -1.5878 -1.6162
 8183SOL    HW226557   9.433   8.136   6.977  0.2261  0.4237  1.7104
 8184SOL     OW26558   5.524   5.437   3.497 -0.1678 -0.3205 -0.0747
 8184SOL    HW126559   5.489   5.526   3.499 -0.2741 -0.3721  0.4535
 8184SOL    HW226560   5.447   5.381   3.485  0.0367 -0.2701 -1.8572
 8185SOL     OW26561   2.555   6.370   8.881 -0.0008  0.2874  0.0031
 8185SOL    HW126562   2.638   6.327   8.904 -0.7344 -1.5025 -0.4955
 8185SOL    HW226563   2.522   6.320   8.806 -0.2855  2.6239 -1.5195
 8186SOL     OW26564   7.663   4.319   1.212 -0.1614  1.0792 -0.0766
 8186SOL    HW126565   7.721   4.253   1.175  0.6689  2.7874 -2.0580
 8186SOL    HW226566   7.579   4.303   1.169 -0.8279 -0.4694  1.6836
 8187SOL     OW26567   6.001   4.874   5.306 -0.3517  0.1023  0.0554
 8187SOL    HW126568   6.038   4.951   5.348 -0.2660 -1.5095  3.2027
 8187SOL    HW226569   6.059   4.802   5.331 -1.8991 -1.4209 -0.5201
 8188SOL     OW26570  10.664   8.271   7.344 -0.0903  0.0355  0.6926
 8188SOL    HW126571  10.637   8.363   7.340 -1.0809 -0.1414  2.3805
 8188SOL    HW226572  10.721   8.259   7.267 -1.5443  1.5130 -0.6873
 8189SOL     OW26573   6.164   9.623   6.895  0.1356 -0.1432 -0.0775
 8189SOL    HW126574   6.160   9.528   6.885  0.1513 -0.3206  1.3527
 8189SOL    HW226575   6.251   9.640   6.931  0.1695  0.4290 -0.4173
 8190SOL     OW26576   2.810   5.480   2.826  0.1904  0.4153 -0.4056
 8190SOL    HW126577   2.896   5.521   2.813  2.1057 -3.1788 -0.5234
 8190SOL    HW226578   2.761   5.502   2.747  2.1550  0.1025 -1.8018
 8191SOL     OW26579   9.893   0.350  10.693 -0.0327 -0.1583 -0.0237
 8191SOL    HW126580   9.881   0.257  10.676  0.0135 -0.3651  1.0147
 8191SOL    HW226581   9.920   0.354  10.785 -2.0750  1.0220  0.5774
 8192SOL     OW26582   9.168   1.894   3.975 -0.2404 -0.5551 -1.1109
 8192SOL    HW126583   9.185   1.966   3.915 -0.8381  1.1376  0.6485
 8192SOL    HW226584   9.073   1.889   3.981 -0.2573  0.6769  1.1092
 8193SOL     OW26585  10.660   5.230   6.402 -0.2486 -0.3046 -0.3241
 8193SOL    HW126586  10.602   5.258   6.332  0.7887  0.4955 -0.8951
 8193SOL    HW226587  10.603   5.216   6.478 -1.5591 -2.2691 -1.5712
 8194SOL     OW26588   1.159   1.669  10.767  0.7310 -0.0173 -0.2872
 8194SOL    HW126589   1.190   1.594  10.816  0.9621 -0.1299 -0.6040
 8194SOL    HW226590   1.094   1.634  10.707  0.8324  0.0393 -0.4295
 8195SOL     OW26591   6.769   4.030   4.205  0.9699 -0.1065  0.4642
 8195SOL    HW126592   6.715   3.980   4.143  0.8991 -0.6843  0.9808
 8195SOL    HW226593   6.718   4.030   4.286  1.2159  0.3519  0.6205
 8196SOL     OW26594   4.240   5.060   5.459  0.1793  0.3254 -0.0955
 8196SOL    HW126595   4.148   5.052   5.486 -0.0000  2.2688  0.0006
 8196SOL    HW226596   4.249   4.997   5.387 -0.6866 -1.2892  1.1481
 8197SOL     OW26597   3.387   6.814   1.747  0.5502 -0.5430 -0.2768
 8197SOL    HW126598   3.432   6.898   1.736  1.5481 -0.9313  0.7225
 8197SOL    HW226599   3.445   6.750   1.706  1.2624 -1.1360  1.5828
 8198SOL     OW26600   5.251   2.880   3.649  0.0071  0.0942 -0.4276
 8198SOL    HW126601   5.225   2.956   3.702  0.3159 -0.4089  0.4741
 8198SOL    HW226602   5.346   2.888   3.640  0.0084 -0.0480 -0.5440
 8199SOL     OW26603   3.078   0.559   6.330 -0.2087 -0.2544  0.1933
 8199SOL    HW126604   3.104   0.475   6.367  0.6670 -0.6249 -1.1779
 8199SOL    HW226605   3.093   0.622   6.400 -1.1278 -1.2479  1.3362
 8200SOL     OW26606   2.022  10.962   1.422  0.2689 -0.4228 -0.4015
 8200SOL    HW126607   2.085  10.943   1.492 -0.1606  2.3744  0.8887
 8200SOL    HW226608   2.065  10.931   1.342  0.9026 -3.4571  0.9722
 8201SOL     OW26609   3.517   1.021   2.396 -0.1436 -0.0172  0.1169
 8201SOL    HW126610   3.599   1.050   2.354 -0.6296 -1.1679 -1.7568
 8201SOL    HW226611   3.544   0.989   2.482  1.1083  1.2057  0.2227
 8202SOL     OW26612   9.333   6.146   8.004  0.1325 -0.8210  0.5328
 8202SOL    HW126613   9.277   6.191   7.941  0.3751 -1.6346 -0.2760
 8202SOL    HW226614   9.385   6.216   8.044 -0.4276 -0.2354  0.2497
 8203SOL     OW26615   5.466   4.812   3.579 -0.2586  0.6663  0.3102
 8203SOL    HW126616   5.401   4.877   3.605  0.6189  1.7045  0.0364
 8203SOL    HW226617   5.482   4.760   3.658 -1.0325  0.7343  0.5169
 8204SOL     OW26618   3.454  10.332   4.886  0.4204  0.4004  0.8240
 8204SOL    HW126619   3.426  10.418   4.918  0.2275 -0.8247  4.4446
 8204SOL    HW226620   3.372  10.289   4.860  0.3896  0.8727  0.1007
 8205SOL     OW26621  10.567   6.329   7.467  0.2736 -0.1282 -0.0343
 8205SOL    HW126622  10.509   6.256   7.445  1.4998 -1.4947  1.0801
 8205SOL    HW226623  10.625   6.337   7.391  0.2312 -0.3906 -0.0944
 8206SOL     OW26624   5.931   1.326   8.667  1.0786 -0.6658  0.2192
 8206SOL    HW126625   5.903   1.404   8.714 -0.9028 -1.9469  1.2928
 8206SOL    HW226626   5.956   1.357   8.580 -2.0844  0.8881 -0.2461
 8207SOL     OW26627   7.516   7.569   9.581 -0.2068  0.3747 -0.3388
 8207SOL    HW126628   7.510   7.583   9.487 -1.8150  0.1730 -0.2907
 8207SOL    HW226629   7.543   7.653   9.617 -1.4876  1.0034 -0.8151
 8208SOL     OW26630   6.629   4.261   5.390 -0.0350 -0.5413 -0.3814
 8208SOL    HW126631   6.616   4.341   5.442 -3.0458 -0.5821 -0.8689
 8208SOL    HW226632   6.644   4.292   5.301 -1.3566 -0.4495 -0.5993
 8209SOL     OW26633   7.262   9.558   7.735 -0.2266 -0.7076 -0.1152
 8209SOL    HW126634   7.225   9.545   7.647  0.3941  1.8250 -0.8379
 8209SOL    HW226635   7.213   9.497   7.791  0.2795 -3.3902 -2.3699
 8210SOL     OW26636   2.971   9.612   7.981  0.2060 -0.3232 -0.0039
 8210SOL    HW126637   3.009   9.528   8.008 -0.9594 -0.0462  2.9615
 8210SOL    HW226638   3.046   9.665   7.956  1.1454 -1.6566 -0.1273
 8211SOL     OW26639   9.748  10.997   4.416  0.6215  0.9184 -0.2044
 8211SOL    HW126640   9.677  10.978   4.477  0.7587  2.9285  0.6381
 8211SOL    HW226641   9.705  11.035   4.340  0.6051 -0.0859 -0.7163
 8212SOL     OW26642   2.661   0.526   0.261 -0.7727  0.2621 -0.0871
 8212SOL    HW126643   2.641   0.563   0.346 -0.6247 -1.3541  0.7025
 8212SOL    HW226644   2.580   0.483   0.233 -0.9818  1.2349 -1.0257
 8213SOL     OW26645   0.285   8.967   7.573 -0.4621 -0.0103 -0.7141
 8213SOL    HW126646   0.291   8.872   7.562  0.8179 -0.0284 -0.0276
 8213SOL    HW226647   0.226   8.978   7.647 -0.9129 -0.2439 -1.0289
 8214SOL     OW26648   6.344   3.230   1.670 -0.0497 -0.8184 -0.2485
 8214SOL    HW126649   6.324   3.312   1.626  2.0819 -0.4701 -0.7011
 8214SOL    HW226650   6.407   3.186   1.612  1.5894 -1.1080  1.6206
 8215SOL     OW26651   2.146   5.595   6.205 -0.1722  0.0944 -0.5396
 8215SOL    HW126652   2.062   5.579   6.248  0.4006 -1.0355  0.2024
 8215SOL    HW226653   2.173   5.681   6.237 -0.5966  0.0382 -0.0247
 8216SOL     OW26654   3.699   9.409   9.690  0.1254 -0.3313  0.0971
 8216SOL    HW126655   3.661   9.354   9.758 -0.7522  2.1547  1.7679
 8216SOL    HW226656   3.628   9.467   9.663  1.0271  0.1007 -1.4820
 8217SOL     OW26657   1.798   1.899   4.547 -0.0188  0.2657  0.1100
 8217SOL    HW126658   1.751   1.908   4.464 -1.4636 -0.2004  0.8391
 8217SOL    HW226659   1.748   1.952   4.609  0.1596 -0.5908  1.0111
 8218SOL     OW26660  10.688   7.033   4.335  0.6039 -0.0269 -0.5639
 8218SOL    HW126661  10.751   6.983   4.387  2.2855  0.6630 -1.8270
 8218SOL    HW226662  10.742   7.097   4.288 -0.6535 -1.1127 -3.7458
 8219SOL     OW26663   3.810  10.044   5.504 -0.1023  0.0623  0.3464
 8219SOL    HW126664   3.824  10.058   5.411  0.1234 -1.3223  0.1445
 8219SOL    HW226665   3.768  10.124   5.535  0.3606  0.7744 -0.8140
 8220SOL     OW26666   2.381   3.055   4.190 -0.0499  0.2367  0.3824
 8220SOL    HW126667   2.341   2.973   4.217 -0.0522  0.3258  0.6524
 8220SOL    HW226668   2.449   3.071   4.256 -0.3170  0.6551  0.5575
 8221SOL     OW26669   2.522   9.020   6.045 -0.1160 -0.1899 -0.1618
 8221SOL    HW126670   2.433   9.034   6.014 -0.4769 -0.1615  0.8619
 8221SOL    HW226671   2.537   8.926   6.035 -0.5907 -0.3418  0.4932
 8222SOL     OW26672   0.756   7.902   1.941  1.0426 -0.2331  0.7494
 8222SOL    HW126673   0.722   7.935   1.858 -1.2926 -1.0199  1.3257
 8222SOL    HW226674   0.703   7.824   1.960  1.3120  0.0716  3.0950
 8223SOL     OW26675  10.769   4.002   2.511  0.1849  0.1155  0.3469
 8223SOL    HW126676  10.696   3.959   2.555 -0.8208 -0.2389 -1.5616
 8223SOL    HW226677  10.727   4.070   2.458  0.9984 -1.1204 -2.0233
 8224SOL     OW26678   3.085   9.237   4.203 -0.5131  0.0448  0.0697
 8224SOL    HW126679   3.128   9.154   4.224  0.5042  0.4286 -0.4247
 8224SOL    HW226680   3.157   9.295   4.176 -1.1242  1.2753  0.9935
 8225SOL     OW26681   2.934   9.388   1.461 -0.7394 -0.2542  0.1061
 8225SOL    HW126682   2.911   9.380   1.368 -0.3413 -1.2193  0.0786
 8225SOL    HW226683   3.027   9.411   1.460 -0.0143 -2.8788  0.2540
 8226SOL     OW26684   3.120   1.605   5.950  0.1653  0.3850  0.2883
 8226SOL    HW126685   3.078   1.691   5.948 -0.9128 -0.0833  1.2525
 8226SOL    HW226686   3.144   1.587   5.859  1.6575  2.2783  0.2722
 8227SOL     OW26687   2.792   9.717   1.280  0.0534  0.6045 -0.0115
 8227SOL    HW126688   2.739   9.638   1.282  1.1772 -0.2560 -1.6164
 8227SOL    HW226689   2.872   9.693   1.327  0.4231  0.7422 -0.5568
 8228SOL     OW26690   2.582  10.768   4.477 -0.2740 -0.5115  0.9179
 8228SOL    HW126691   2.661  10.746   4.428 -2.5876 -3.6957 -1.8547
 8228SOL    HW226692   2.572  10.863   4.465  2.4852 -0.1854  0.4848
 8229SOL     OW26693   1.303   8.588   9.116 -0.1945 -0.3800  0.0895
 8229SOL    HW126694   1.292   8.662   9.177  3.1678 -0.0048  0.4086
 8229SOL    HW226695   1.328   8.628   9.033  2.5694 -1.0862  0.5003
 8230SOL     OW26696   9.073  11.070   1.525  0.1167  0.1578  0.3531
 8230SOL    HW126697   9.102  10.995   1.473 -0.3381  0.5852 -0.5197
 8230SOL    HW226698   9.154  11.105   1.563  0.4901  0.0246 -0.3123
 8231SOL     OW26699   2.798   1.050   2.574  0.2078 -0.2692  0.2741
 8231SOL    HW126700   2.767   1.135   2.605 -2.8249 -0.9329 -0.6136
 8231SOL    HW226701   2.861   1.071   2.505  1.4054  1.1993  1.7530
 8232SOL     OW26702   6.217   0.646   6.029 -0.8246 -0.2717 -0.2255
 8232SOL    HW126703   6.123   0.629   6.021 -1.3715  2.8573 -2.1316
 8232SOL    HW226704   6.246   0.662   5.939  0.8635  1.7121  0.5906
 8233SOL     OW26705   6.237   4.176   7.952  0.2399  0.0764 -0.2363
 8233SOL    HW126706   6.212   4.265   7.976 -0.7292 -0.0699 -0.6237
 8233SOL    HW226707   6.272   4.138   8.032 -1.0239  0.2432  0.4298
 8234SOL     OW26708   4.198   9.111   4.966  0.4982 -0.0761 -0.0608
 8234SOL    HW126709   4.257   9.041   4.993  1.8032  1.4452  1.3056
 8234SOL    HW226710   4.169   9.151   5.048 -3.7300 -1.6313 -0.5431
 8235SOL     OW26711   9.075   3.491   1.231 -0.5456  0.4539  0.4912
 8235SOL    HW126712   9.099   3.457   1.145 -0.8550 -0.3689  0.7192
 8235SOL    HW226713   9.081   3.415   1.289  0.0742  1.0918  1.2840
 8236SOL     OW26714   5.688   0.920  11.172 -0.0238  0.1501 -0.1120
 8236SOL    HW126715   5.593   0.921  11.182 -0.4846 -3.5608 -2.1320
 8236SOL    HW226716   5.721   0.891  11.257 -0.8081  0.2426  0.2285
 8237SOL     OW26717   9.810   5.848   2.835  0.2866 -0.3620 -0.0136
 8237SOL    HW126718   9.823   5.911   2.906 -0.4293 -0.9106  0.6192
 8237SOL    HW226719   9.866   5.880   2.764 -1.5081  2.1105 -0.4513
 8238SOL     OW26720   5.646   9.122   2.160  0.3615  0.6301  0.1787
 8238SOL    HW126721   5.688   9.155   2.080  0.9120 -0.8255 -0.1786
 8238SOL    HW226722   5.658   9.191   2.225 -0.6499  2.1267 -1.1438
 8239SOL     OW26723   0.890   0.119   6.959  0.4082 -0.1302 -0.6185
 8239SOL    HW126724   0.863   0.053   7.023  2.0648 -1.0022 -0.7810
 8239SOL    HW226725   0.979   0.142   6.984  0.0741  1.6457 -0.9250
 8240SOL     OW26726   2.274   9.698  10.794 -0.6726 -0.0748  0.4738
 8240SOL    HW126727   2.353   9.656  10.829  0.0911  0.4553 -0.5629
 8240SOL    HW226728   2.288   9.792  10.809 -1.2673 -0.0050  0.6008
 8241SOL     OW26729   4.962   4.854   2.511 -0.3297 -0.2239  0.6715
 8241SOL    HW126730   4.937   4.945   2.529 -0.4792  0.3435 -2.0015
 8241SOL    HW226731   4.882   4.813   2.477  0.3879 -0.5613 -0.6880
 8242SOL     OW26732   2.866   0.826   6.214  0.1870  0.1883  0.2889
 8242SOL    HW126733   2.939   0.775   6.179 -0.6841 -0.6538 -0.3706
 8242SOL    HW226734   2.861   0.803   6.306 -0.4936 -1.3284 -0.1022
 8243SOL     OW26735   5.173   5.305   3.129  0.1191 -0.1576 -0.1152
 8243SOL    HW126736   5.151   5.224   3.174  0.7552  0.1398  0.7571
 8243SOL    HW226737   5.198   5.278   3.041  1.2807 -1.0395  0.4578
 8244SOL     OW26738   4.800   1.409   9.935 -0.6364  0.1598  0.5401
 8244SOL    HW126739   4.808   1.367   9.850  1.6887 -1.1907  1.3410
 8244SOL    HW226740   4.773   1.339   9.994  2.3222 -0.1331  1.7112
 8245SOL     OW26741   9.585   5.442   4.952  0.0291 -0.4369  0.2861
 8245SOL    HW126742   9.533   5.378   5.001  1.6689 -1.0781  1.2770
 8245SOL    HW226743   9.537   5.524   4.962 -0.6983 -0.9636  1.3183
 8246SOL     OW26744   5.269   1.707  10.511 -0.4867  0.1134 -0.1003
 8246SOL    HW126745   5.309   1.766  10.447  0.2015 -0.0185  0.1975
 8246SOL    HW226746   5.324   1.716  10.589 -1.2462  0.1852  0.4338
 8247SOL     OW26747   8.753   9.229   7.076  0.3889 -0.8375 -0.1063
 8247SOL    HW126748   8.759   9.279   6.995  1.3308  0.1062  0.5197
 8247SOL    HW226749   8.661   9.236   7.102  0.4872  0.4787 -0.0903
 8248SOL     OW26750   5.365   8.416   2.369  0.4838  0.6132 -0.1230
 8248SOL    HW126751   5.375   8.508   2.344  0.8367  0.9884  1.3148
 8248SOL    HW226752   5.440   8.398   2.426  1.0591 -0.9136 -1.2638
 8249SOL     OW26753   3.836  10.731   4.155  0.3490  0.0694 -1.1200
 8249SOL    HW126754   3.894  10.804   4.132  0.4753  0.0245 -0.9498
 8249SOL    HW226755   3.793  10.707   4.073 -0.0892  0.6808 -1.0754
 8250SOL     OW26756   8.372   3.106   0.082  0.2517  0.2182 -0.3505
 8250SOL    HW126757   8.448   3.049   0.068  0.1827 -0.6588  2.3013
 8250SOL    HW226758   8.299   3.046   0.095 -0.2457  0.9583  0.3675
 8251SOL     OW26759   1.163   6.151   0.634 -0.1611  0.0177 -0.1075
 8251SOL    HW126760   1.147   6.093   0.708  0.3768 -1.6339 -1.2406
 8251SOL    HW226761   1.115   6.231   0.656  0.6504 -0.0841  2.3968
 8252SOL     OW26762   4.388   7.067   6.046 -0.6926  1.3168  0.6143
 8252SOL    HW126763   4.443   7.142   6.071 -2.0861  2.4720  0.3406
 8252SOL    HW226764   4.417   6.997   6.104  1.2259  1.8001  0.3178
 8253SOL     OW26765   7.495   4.737   7.485 -1.1438 -0.0585 -0.3258
 8253SOL    HW126766   7.468   4.818   7.441 -1.3774 -0.3074 -0.6408
 8253SOL    HW226767   7.449   4.739   7.569  1.3523  1.7593  1.1671
 8254SOL     OW26768   0.944   1.722   7.230  0.1304  0.3709  0.6153
 8254SOL    HW126769   0.883   1.712   7.157  1.5601 -0.9597 -0.4682
 8254SOL    HW226770   0.895   1.772   7.295 -2.1401 -0.7018 -0.1468
 8255SOL     OW26771   1.397   3.163  10.070 -0.0284  0.0170  0.3895
 8255SOL    HW126772   1.330   3.095  10.072 -0.7805  0.7590  1.5171
 8255SOL    HW226773   1.440   3.152   9.985 -3.3676  1.2039 -1.6801
 8256SOL     OW26774   9.828   9.666   4.272 -0.3554  0.0553  0.6500
 8256SOL    HW126775   9.819   9.621   4.188 -2.2102 -1.5398  1.6166
 8256SOL    HW226776   9.858   9.599   4.333  0.3689  1.0343  1.3947
 8257SOL     OW26777   2.182   0.405   3.635 -0.0264 -0.2720  0.0302
 8257SOL    HW126778   2.108   0.460   3.609  1.5028  1.2572 -1.3690
 8257SOL    HW226779   2.184   0.335   3.570 -0.4932 -0.5475  0.3140
 8258SOL     OW26780   9.819   9.704  11.272 -0.4261  0.1927  0.3011
 8258SOL    HW126781   9.795   9.762  11.200  0.1354 -0.7314 -0.6637
 8258SOL    HW226782   9.894   9.746  11.313 -0.6513  0.6512  0.2462
 8259SOL     OW26783  10.486   1.177   6.157  0.1439  0.4481  0.3978
 8259SOL    HW126784  10.534   1.094   6.160 -0.7139 -0.0386  1.5574
 8259SOL    HW226785  10.402   1.153   6.118  0.4886  1.1228 -0.8126
 8260SOL     OW26786  11.207   5.963   6.431 -0.6914  0.5678  0.0097
 8260SOL    HW126787  11.187   5.869   6.434  4.0743 -0.7753 -1.3529
 8260SOL    HW226788  11.202   5.985   6.338  1.3956  0.6419 -0.1458
 8261SOL     OW26789   3.608   5.045   6.139 -0.4482  0.6864 -0.4305
 8261SOL    HW126790   3.686   4.992   6.125 -0.7132  1.0543 -4.3161
 8261SOL    HW226791   3.628   5.129   6.098 -2.2158  1.4533  0.1485
 8262SOL     OW26792   0.994   6.261   5.145 -1.0759  0.1107  0.2702
 8262SOL    HW126793   1.000   6.238   5.052 -1.6230 -0.9710  0.4908
 8262SOL    HW226794   0.996   6.357   5.146  2.8471  0.2027 -0.5940
 8263SOL     OW26795   6.109   3.948  10.242 -0.0953  0.2779  0.1761
 8263SOL    HW126796   6.203   3.951  10.228  0.0466  1.5489  1.2394
 8263SOL    HW226797   6.099   3.940  10.337 -1.0618 -0.7181  0.0173
 8264SOL     OW26798   4.909   7.640  11.002 -0.4294 -0.1678  0.2256
 8264SOL    HW126799   4.932   7.555  11.038 -1.1182  0.0264  1.1638
 8264SOL    HW226800   4.869   7.687  11.075  0.4809  1.1843 -0.1081
 8265SOL     OW26801  10.858   7.201   8.310 -0.2455  0.0805  0.8037
 8265SOL    HW126802  10.797   7.236   8.374  0.2277  3.2151 -0.2734
 8265SOL    HW226803  10.940   7.191   8.357 -0.2599  1.0059  1.0375
 8266SOL     OW26804  10.712   7.454   6.725 -0.3266  0.2391  0.6235
 8266SOL    HW126805  10.720   7.523   6.659  0.0672 -0.2955  0.0944
 8266SOL    HW226806  10.625   7.465   6.761 -2.4335 -2.1094 -3.1028
 8267SOL     OW26807   9.870   0.781   7.053  0.2243  0.0167 -0.1597
 8267SOL    HW126808   9.893   0.816   6.967  0.2024 -0.1192 -0.2207
 8267SOL    HW226809   9.909   0.694   7.055  1.2021  0.4538  0.4122
 8268SOL     OW26810  10.450   4.613   4.204  0.0837 -0.1901  0.4928
 8268SOL    HW126811  10.524   4.650   4.156  0.6813  1.6184  2.6426
 8268SOL    HW226812  10.441   4.524   4.170  1.6063  0.3899 -1.6058
 8269SOL     OW26813   3.498   3.746   5.135 -0.6422 -0.2983  0.2309
 8269SOL    HW126814   3.490   3.685   5.062 -1.8355  0.0474  0.0523
 8269SOL    HW226815   3.540   3.823   5.097 -1.5966  0.0247 -0.1866
 8270SOL     OW26816   2.141   3.944   4.849  0.0597  0.3396  0.3136
 8270SOL    HW126817   2.144   4.002   4.925  3.3052  1.0031 -0.1656
 8270SOL    HW226818   2.166   3.858   4.883 -2.1659 -0.2833  0.5529
 8271SOL     OW26819   1.455   8.239   0.445 -0.0234  0.4039  0.4086
 8271SOL    HW126820   1.507   8.296   0.388 -1.0641 -0.6767 -1.7386
 8271SOL    HW226821   1.364   8.257   0.420 -0.3859 -1.8682 -0.1000
 8272SOL     OW26822  10.407   9.432   3.537 -0.0686 -0.0425  0.1032
 8272SOL    HW126823  10.487   9.453   3.585 -0.7130 -0.6854  1.5136
 8272SOL    HW226824  10.339   9.428   3.604 -1.0486 -0.7807 -0.8931
 8273SOL     OW26825   3.079   5.818   5.055  0.3905 -0.2020 -0.1774
 8273SOL    HW126826   3.018   5.843   4.986 -1.6654 -0.7270  1.3347
 8273SOL    HW226827   3.157   5.788   5.009  0.0752  1.7730 -2.1779
 8274SOL     OW26828   4.220   1.026   3.000 -0.0088 -0.5363  0.6858
 8274SOL    HW126829   4.223   1.018   2.905 -0.5431  0.3592  0.5759
 8274SOL    HW226830   4.196   1.118   3.015  0.8774 -0.4519  1.6968
 8275SOL     OW26831   5.676   7.563   0.477 -0.1593 -0.7025 -0.1273
 8275SOL    HW126832   5.642   7.626   0.414 -1.3341 -1.2129 -0.0182
 8275SOL    HW226833   5.612   7.492   0.479  0.5491 -1.3588  0.6214
 8276SOL     OW26834   6.910   3.632   5.558 -0.4523 -0.0974 -0.3755
 8276SOL    HW126835   6.824   3.654   5.522 -1.8902 -0.0605  2.7807
 8276SOL    HW226836   6.947   3.571   5.493 -2.2655  0.8288 -2.4337
 8277SOL     OW26837   4.100   1.264   6.758  0.3566  0.0531  1.0396
 8277SOL    HW126838   4.097   1.321   6.835 -3.9818  0.2625  0.9267
 8277SOL    HW226839   4.110   1.176   6.794 -1.1099  0.1944  1.8692
 8278SOL     OW26840   9.236   5.114   5.332 -0.2344  0.7794 -0.5657
 8278SOL    HW126841   9.255   5.064   5.411 -2.3985 -1.9896 -1.6269
 8278SOL    HW226842   9.153   5.158   5.351  0.8842  2.8972 -0.2080
 8279SOL     OW26843   4.824   1.546   4.347 -0.1969  0.4439  0.6320
 8279SOL    HW126844   4.751   1.536   4.287 -0.9775  0.7784  1.5001
 8279SOL    HW226845   4.900   1.513   4.299 -1.3546 -2.7547  0.7064
 8280SOL     OW26846   2.164   0.087   4.138  0.1105  0.3776 -0.9965
 8280SOL    HW126847   2.226   0.143   4.183  0.5836  0.2709 -1.5003
 8280SOL    HW226848   2.173   0.111   4.045  1.8879 -1.9780 -1.5161
 8281SOL     OW26849   8.070   8.617   9.451 -0.0841  0.2900 -0.0672
 8281SOL    HW126850   8.120   8.664   9.384 -0.9074  1.3582  0.0270
 8281SOL    HW226851   8.089   8.525   9.436  6.5966  0.4512  3.4685
 8282SOL     OW26852  10.948   9.724   5.329  0.2766  0.1403 -0.0660
 8282SOL    HW126853  10.929   9.636   5.298 -2.3072  0.3966  0.5096
 8282SOL    HW226854  10.926   9.781   5.255  1.2674  0.3443 -0.2095
 8283SOL     OW26855   3.839   2.352   1.840 -0.1277  0.3910  0.3750
 8283SOL    HW126856   3.759   2.397   1.813 -0.2845 -0.0704  0.0674
 8283SOL    HW226857   3.824   2.329   1.931 -0.9462 -0.9701 -0.0717
 8284SOL     OW26858   6.661  10.013   4.052 -0.3443  0.5661  0.0010
 8284SOL    HW126859   6.666   9.917   4.052 -0.4709  0.5586  0.1981
 8284SOL    HW226860   6.586  10.033   4.109 -0.3645  0.7799 -0.1000
 8285SOL     OW26861   3.910   1.569   7.961 -0.7987  0.4626  0.0552
 8285SOL    HW126862   3.953   1.496   8.005  0.3483  0.8590 -0.3925
 8285SOL    HW226863   3.823   1.573   8.002 -0.3211 -0.1568  1.1660
 8286SOL     OW26864   7.064   2.258   7.325 -0.3981 -0.3227 -0.1859
 8286SOL    HW126865   7.085   2.238   7.416 -0.4334 -2.6262 -0.6301
 8286SOL    HW226866   7.089   2.350   7.314 -1.9387  0.5361  2.5708
 8287SOL     OW26867   2.500   9.096   7.076  0.1973 -0.3430  0.3148
 8287SOL    HW126868   2.525   9.007   7.101 -0.0007 -0.3927  0.3340
 8287SOL    HW226869   2.584   9.140   7.059  0.2963 -0.5254  0.3263
 8288SOL     OW26870   1.743   1.092   1.209  0.1862 -0.0429  0.8243
 8288SOL    HW126871   1.726   1.007   1.168 -0.6496 -0.1747  1.4222
 8288SOL    HW226872   1.765   1.071   1.300  1.3698  0.2899  0.6288
 8289SOL     OW26873   4.622  10.047   5.798  0.5634  0.0200  0.2371
 8289SOL    HW126874   4.612  10.142   5.794  0.1082  0.0505  1.5806
 8289SOL    HW226875   4.650  10.030   5.887  0.0861 -1.1542  0.1776
 8290SOL     OW26876   3.640   9.395   1.114  0.1575  0.2523  0.1178
 8290SOL    HW126877   3.689   9.477   1.109 -1.7795  1.5706  1.5180
 8290SOL    HW226878   3.673   9.353   1.194  0.6179  0.0222 -0.1909
 8291SOL     OW26879   6.314   1.327   6.880 -0.6790  0.0666 -0.2162
 8291SOL    HW126880   6.315   1.251   6.822 -1.3985  0.9211 -1.3952
 8291SOL    HW226881   6.407   1.351   6.890 -0.0212 -2.9120  2.9662
 8292SOL     OW26882   9.687   2.024   6.073 -0.4868  0.3538 -0.1486
 8292SOL    HW126883   9.617   2.080   6.106 -0.7308  0.2522 -0.4922
 8292SOL    HW226884   9.668   2.013   5.980  0.3408  0.8429 -0.3818
 8293SOL     OW26885   8.290   9.064   4.665  0.0417 -0.0168 -0.7609
 8293SOL    HW126886   8.366   9.093   4.715  0.0637 -2.3365  0.6930
 8293SOL    HW226887   8.245   9.145   4.640  0.3243  1.3124  2.5435
 8294SOL     OW26888   3.485   9.504   6.011 -0.0285 -0.2028  0.2549
 8294SOL    HW126889   3.508   9.593   6.038  2.1658 -1.3023  2.4102
 8294SOL    HW226890   3.399   9.489   6.050 -0.7772  1.1905 -0.7792
 8295SOL     OW26891  10.798   2.978   1.723  0.4994 -0.1828 -0.1146
 8295SOL    HW126892  10.815   3.001   1.814  1.2198 -0.5006 -0.1613
 8295SOL    HW226893  10.884   2.958   1.687  0.6533  2.5694 -1.6214
 8296SOL     OW26894   8.093  10.258   0.312  0.1043 -0.5279  0.0098
 8296SOL    HW126895   8.122  10.168   0.296  2.4217  0.3284 -1.0694
 8296SOL    HW226896   8.055  10.286   0.228 -0.8295 -0.5397  0.4132
 8297SOL     OW26897   5.027   5.718   4.756  0.1872 -0.4046 -0.1275
 8297SOL    HW126898   5.009   5.665   4.834  1.0092  1.1859  1.2195
 8297SOL    HW226899   4.954   5.780   4.753 -0.0651 -0.7335 -0.8897
 8298SOL     OW26900   3.031   4.704   6.868 -0.3558 -0.6259 -0.1751
 8298SOL    HW126901   3.039   4.796   6.896  0.0336 -1.0833  1.3180
 8298SOL    HW226902   3.024   4.709   6.773 -0.8034  0.9849 -0.0987
 8299SOL     OW26903   0.925   0.664   3.891  0.0625 -0.1807  0.3489
 8299SOL    HW126904   0.884   0.726   3.830  0.8889 -1.6058 -1.7795
 8299SOL    HW226905   0.999   0.712   3.928  0.8940  0.0695 -1.5205
 8300SOL     OW26906   5.925   5.713   8.933  0.2304  0.2332  0.1909
 8300SOL    HW126907   5.905   5.658   9.009 -0.1979  0.4664  0.2486
 8300SOL    HW226908   6.019   5.725   8.937  0.3383 -0.5086  0.1706
 8301SOL     OW26909   5.037   3.231  11.254 -0.4587  0.0183  0.2210
 8301SOL    HW126910   4.947   3.200  11.255 -0.5769  0.3550  1.0606
 8301SOL    HW226911   5.040   3.294  11.182 -1.5520  1.8099  1.6245
 8302SOL     OW26912   8.215   5.736   1.902 -0.9905  0.2705  0.1571
 8302SOL    HW126913   8.239   5.810   1.846  0.7395  0.6239  1.2673
 8302SOL    HW226914   8.259   5.661   1.862  0.7925  0.6322  1.2817
 8303SOL     OW26915   5.807   0.431   4.192  0.3325  0.4678 -0.2496
 8303SOL    HW126916   5.875   0.493   4.168  0.2390  0.9784  0.7304
 8303SOL    HW226917   5.854   0.353   4.220  0.7423  1.7984  3.2353
 8304SOL     OW26918   9.736   4.376  10.844 -0.8462 -0.1485  0.4161
 8304SOL    HW126919   9.712   4.308  10.907  2.1464 -1.9220 -0.1479
 8304SOL    HW226920   9.690   4.353  10.764 -0.4264 -1.1218  0.4397
 8305SOL     OW26921   4.284   4.974  10.624  0.0591  0.1373 -0.0752
 8305SOL    HW126922   4.366   5.009  10.659 -0.7664  0.3971  1.7176
 8305SOL    HW226923   4.311   4.914  10.554  1.7150  0.8809 -0.1130
 8306SOL     OW26924   1.520   8.101  10.905 -0.0463  0.0722 -0.0814
 8306SOL    HW126925   1.445   8.116  10.847  0.7661  0.5749 -1.0300
 8306SOL    HW226926   1.495   8.140  10.988 -0.4195  1.1857 -0.7072
 8307SOL     OW26927   7.702   4.722   3.800  0.0276 -0.0311 -0.3710
 8307SOL    HW126928   7.638   4.705   3.731 -1.0025  1.4447  0.1849
 8307SOL    HW226929   7.786   4.697   3.760 -0.5746  0.4959 -2.0583
 8308SOL     OW26930   2.438   4.286   1.620 -0.5158 -0.3426 -0.3924
 8308SOL    HW126931   2.517   4.258   1.574 -0.1268 -0.7439  0.5123
 8308SOL    HW226932   2.367   4.270   1.557  0.3612  2.7000 -2.3477
 8309SOL     OW26933   5.456   2.686   2.394 -0.4299 -0.6591  0.3732
 8309SOL    HW126934   5.543   2.678   2.433 -2.1706 -2.4796  4.3956
 8309SOL    HW226935   5.422   2.768   2.428 -0.4530 -0.0694 -1.0001
 8310SOL     OW26936   6.927   3.895   9.611  0.1311 -0.4410  0.1391
 8310SOL    HW126937   6.966   3.825   9.665 -0.7104 -1.1018 -0.0927
 8310SOL    HW226938   6.869   3.942   9.671 -1.1978 -1.4896 -0.2577
 8311SOL     OW26939   6.029   9.262  10.681 -0.3179 -0.1030 -0.5956
 8311SOL    HW126940   6.105   9.314  10.654 -0.7317  1.7076  1.4908
 8311SOL    HW226941   5.980   9.248  10.600  2.1970 -1.3535 -2.0028
 8312SOL     OW26942  11.150   0.628   0.259  0.0526  0.6968  0.0997
 8312SOL    HW126943  11.058   0.617   0.231  0.3764  2.3195 -1.8424
 8312SOL    HW226944  11.193   0.548   0.229 -0.8119 -0.3612  1.5766
 8313SOL     OW26945  10.027   4.460   8.618 -0.6831 -1.1062  0.9689
 8313SOL    HW126946  10.088   4.528   8.588 -0.9247 -1.5228 -0.5406
 8313SOL    HW226947  10.010   4.482   8.709 -0.1674  0.4351  0.7210
 8314SOL     OW26948  10.637   4.541   2.601  0.1817  0.4825  0.1940
 8314SOL    HW126949  10.685   4.495   2.671 -0.8806 -0.1053  0.5527
 8314SOL    HW226950  10.545   4.534   2.626 -0.1137  1.5406 -0.5218
 8315SOL     OW26951  10.807   0.324   2.954 -0.0999 -0.0767  0.4134
 8315SOL    HW126952  10.718   0.326   2.989 -0.5821 -1.5111 -0.6542
 8315SOL    HW226953  10.855   0.267   3.015 -0.0133  0.3176  0.7221
 8316SOL     OW26954   0.564   0.382   2.398 -0.0886 -0.1086 -0.2812
 8316SOL    HW126955   0.584   0.297   2.436 -1.3590 -0.3526 -0.1081
 8316SOL    HW226956   0.477   0.403   2.431  0.7046  1.8479  0.7021
 8317SOL     OW26957   6.289   0.410   7.654 -0.6281  0.7739 -0.4955
 8317SOL    HW126958   6.217   0.460   7.693 -2.3255 -1.9563  0.1548
 8317SOL    HW226959   6.277   0.321   7.688  3.0081  0.1288 -0.4856
 8318SOL     OW26960   3.721   0.420  10.960 -0.3644  0.7340  0.3146
 8318SOL    HW126961   3.650   0.482  10.950  0.3719  1.5182 -0.1943
 8318SOL    HW226962   3.748   0.399  10.870 -0.4223 -0.1100  0.4820
 8319SOL     OW26963   4.794   4.118   9.272  0.7674  0.3013  0.2367
 8319SOL    HW126964   4.700   4.133   9.284  0.9622  0.7735  1.3608
 8319SOL    HW226965   4.820   4.181   9.204  0.0499 -0.7500 -1.0572
 8320SOL     OW26966   2.797   1.715  10.681  0.3125  0.0163 -0.4374
 8320SOL    HW126967   2.891   1.712  10.697  0.2503 -1.3712 -0.1876
 8320SOL    HW226968   2.762   1.769  10.753  0.7758 -0.6262  0.2826
 8321SOL     OW26969   2.063   1.798   7.429 -0.0113  0.6927  0.0886
 8321SOL    HW126970   2.089   1.840   7.347 -0.0983  1.7987  0.6123
 8321SOL    HW226971   2.117   1.719   7.434 -0.7809  0.0412 -1.5522
 8322SOL     OW26972   5.333   4.084   1.051 -0.2619 -0.1217  0.6057
 8322SOL    HW126973   5.286   4.075   1.135  0.4028  0.1980  1.0218
 8322SOL    HW226974   5.318   4.175   1.025 -2.5440 -0.8592 -0.9047
 8323SOL     OW26975   4.447   4.910   1.513 -0.6141  0.7493 -0.0164
 8323SOL    HW126976   4.527   4.943   1.473 -0.0733  0.0953  0.5057
 8323SOL    HW226977   4.464   4.910   1.607 -0.4537 -1.2809  0.0037
 8324SOL     OW26978   6.742   8.848   5.502 -0.1659 -0.2028  0.1015
 8324SOL    HW126979   6.796   8.821   5.428 -1.2619  0.1626 -0.8713
 8324SOL    HW226980   6.652   8.833   5.473 -0.6228 -3.0383  2.5474
 8325SOL     OW26981   3.453   2.834   8.072  0.2734  0.4288  0.0911
 8325SOL    HW126982   3.481   2.877   7.991  0.2822  2.3174  1.0402
 8325SOL    HW226983   3.439   2.743   8.048  1.5485  0.6734 -1.7382
 8326SOL     OW26984   7.739   9.152   4.761  0.3943  0.8173  0.0039
 8326SOL    HW126985   7.830   9.131   4.779  0.1298  0.1207  0.5616
 8326SOL    HW226986   7.715   9.093   4.689  0.4526  1.1742 -0.3113
 8327SOL     OW26987   9.110   1.087   6.479 -0.7327 -0.5115 -0.6117
 8327SOL    HW126988   9.162   1.019   6.523 -0.0063  0.6137  0.3495
 8327SOL    HW226989   9.132   1.078   6.387  0.9214 -0.3021 -0.2721
 8328SOL     OW26990   5.293  10.961   5.955 -0.5264 -0.4592  0.4628
 8328SOL    HW126991   5.277  10.927   5.867 -0.1356 -2.3413  1.0719
 8328SOL    HW226992   5.205  10.983   5.988 -0.5830  1.3258 -0.7509
 8329SOL     OW26993   1.937   9.925   8.862 -0.4424 -0.0296 -0.1029
 8329SOL    HW126994   1.886  10.001   8.889 -0.4090  0.3215 -1.0181
 8329SOL    HW226995   1.949   9.935   8.768 -0.3642 -1.1226 -0.2299
 8330SOL     OW26996   2.312   0.904   8.815 -0.6376 -0.2981  0.1822
 8330SOL    HW126997   2.408   0.906   8.808 -0.6568 -1.1118 -0.5413
 8330SOL    HW226998   2.291   0.976   8.873  0.4026  0.0552  0.1495
 8331SOL     OW26999   2.772   4.610   1.590  0.0363  0.1264  0.0505
 8331SOL    HW127000   2.704   4.543   1.592  0.1890 -0.0152  1.0827
 8331SOL    HW227001   2.726   4.691   1.566 -0.5577  0.0814  0.9694
 8332SOL     OW27002  10.707   2.649   9.392  0.0692  0.4792  0.3081
 8332SOL    HW127003  10.664   2.711   9.334  0.0579 -0.3154 -0.5520
 8332SOL    HW227004  10.784   2.620   9.344  0.1833 -0.0189  0.7786
 8333SOL     OW27005  10.803   7.291  11.017  0.0795 -0.0795  0.6226
 8333SOL    HW127006  10.835   7.211  11.058  0.5051 -0.2218  0.0340
 8333SOL    HW227007  10.878   7.324  10.966 -0.0302  0.7913  1.0019
 8334SOL     OW27008   1.408  10.058   7.056  0.1448 -0.4318  0.2507
 8334SOL    HW127009   1.363  10.044   7.139  0.4958  1.3695  0.7907
 8334SOL    HW227010   1.337  10.072   6.993 -0.1375  1.6280  0.9518
 8335SOL     OW27011   4.526   0.487   8.497  0.2874 -0.2263  0.0347
 8335SOL    HW127012   4.576   0.439   8.431  0.7404 -1.8326  1.5001
 8335SOL    HW227013   4.591   0.539   8.543 -0.0749  1.1401 -0.9303
 8336SOL     OW27014   2.148   3.840   1.352 -0.3099 -0.3931 -1.1530
 8336SOL    HW127015   2.231   3.826   1.307 -0.3414 -1.7881 -0.8235
 8336SOL    HW227016   2.085   3.787   1.303 -1.1205  0.9792 -1.6520
 8337SOL     OW27017   5.724  10.265  10.431 -0.2897  0.8528 -0.3586
 8337SOL    HW127018   5.658  10.334  10.427  0.1755  1.2398 -1.5846
 8337SOL    HW227019   5.767  10.268  10.346  1.6701  0.9751  0.5920
 8338SOL     OW27020   1.163   1.791   7.560  0.3422 -0.2980  0.0860
 8338SOL    HW127021   1.177   1.716   7.503 -0.6979  0.0479 -0.6668
 8338SOL    HW227022   1.246   1.839   7.558  0.8851 -1.2185  0.2694
 8339SOL     OW27023   8.360   6.821   2.498 -0.7428  0.2338  0.1672
 8339SOL    HW127024   8.265   6.809   2.504 -0.8585  1.7579  3.1162
 8339SOL    HW227025   8.396   6.741   2.537 -0.7211 -0.6042 -1.4699
 8340SOL     OW27026  10.480   9.256  10.409 -0.5236  0.2596 -0.0321
 8340SOL    HW127027  10.523   9.176  10.437  1.1780  0.7186 -1.1813
 8340SOL    HW227028  10.507   9.268  10.318 -0.0278  2.5558  0.3484
 8341SOL     OW27029  10.187   3.437   8.315  0.9676  0.1218  0.2551
 8341SOL    HW127030  10.276   3.461   8.341  0.1746  1.9690  1.4351
 8341SOL    HW227031  10.162   3.369   8.377  1.7184 -0.7824 -0.4082
 8342SOL     OW27032   0.245   8.845   1.190  0.4365  0.1755  0.1812
 8342SOL    HW127033   0.213   8.888   1.270  2.4343  0.5799  0.8053
 8342SOL    HW227034   0.241   8.914   1.123 -1.5068 -0.2394 -0.1977
 8343SOL     OW27035   5.590   2.139   1.712 -0.3197  0.2395 -0.8939
 8343SOL    HW127036   5.522   2.191   1.756  0.8640  2.1869 -1.2667
 8343SOL    HW227037   5.566   2.048   1.732 -3.6882  0.7335 -1.9359
 8344SOL     OW27038   4.101   2.056   2.478  0.3898 -0.0414  0.8997
 8344SOL    HW127039   4.150   2.001   2.417 -0.4893  0.4115 -0.2360
 8344SOL    HW227040   4.115   2.015   2.563  0.5243 -1.4774  0.2106
 8345SOL     OW27041   4.492   5.785   3.597  0.5326 -0.7167 -0.4784
 8345SOL    HW127042   4.490   5.863   3.652  1.3407  0.3144 -1.8348
 8345SOL    HW227043   4.571   5.795   3.543  0.6804 -2.4978 -0.6762
 8346SOL     OW27044   9.692   9.315   9.770  0.1859  0.0238 -0.0112
 8346SOL    HW127045   9.698   9.340   9.678  1.7201 -0.3143 -0.0312
 8346SOL    HW227046   9.643   9.232   9.769 -0.1880  0.2469 -0.4749
 8347SOL     OW27047   2.345   2.949   7.852 -0.0145  0.0591  0.1315
 8347SOL    HW127048   2.286   2.945   7.928  1.7175  1.8942  1.6887
 8347SOL    HW227049   2.421   2.896   7.878 -0.8791 -2.3425 -1.8778
 8348SOL     OW27050   2.962   3.257   5.074 -0.3632  0.5977  0.1037
 8348SOL    HW127051   2.974   3.238   4.981 -2.8392  1.0001 -0.3793
 8348SOL    HW227052   3.017   3.193   5.120  1.7505  1.0894 -1.6118
 8349SOL     OW27053   5.825   9.251   8.208 -0.6973 -0.2605  0.6155
 8349SOL    HW127054   5.744   9.300   8.196 -1.8116 -1.7773  1.5531
 8349SOL    HW227055   5.890   9.317   8.233 -1.9124  0.8339  0.9772
 8350SOL     OW27056   0.066   9.688   8.503  0.1438 -0.2929  0.1516
 8350SOL    HW127057  -0.001   9.685   8.571 -2.1819  1.1819 -1.9201
 8350SOL    HW227058   0.075   9.597   8.475  0.2456 -0.7396  1.5353
 8351SOL     OW27059   3.734   8.767   9.768  0.0434 -0.3298 -0.1774
 8351SOL    HW127060   3.754   8.790   9.858 -1.5981 -1.0204  0.4067
 8351SOL    HW227061   3.725   8.851   9.723  1.3202  0.0125  0.1673
 8352SOL     OW27062   0.510   1.675   1.339  1.3396  0.3021 -0.2448
 8352SOL    HW127063   0.460   1.686   1.258 -1.0309  2.6485  1.3603
 8352SOL    HW227064   0.506   1.761   1.380  2.3540 -0.8473  2.4248
 8353SOL     OW27065   0.169   2.388   6.151 -0.3924 -1.0816  0.3412
 8353SOL    HW127066   0.172   2.446   6.075  1.2627 -1.0494  0.3879
 8353SOL    HW227067   0.155   2.301   6.113  0.1120 -1.0247  0.0050
 8354SOL     OW27068   9.737  10.668   4.998 -0.0585  0.7918  1.3604
 8354SOL    HW127069   9.757  10.705   4.913  0.4642 -0.1874  1.0375
 8354SOL    HW227070   9.821  10.637   5.032 -0.3440  0.6743  1.9855
 8355SOL     OW27071   3.687  11.218   8.634 -0.4135 -0.1926  0.1181
 8355SOL    HW127072   3.731  11.188   8.555 -0.8347 -0.5695  0.0210
 8355SOL    HW227073   3.690  11.143   8.693  0.8645  0.4369  0.8840
 8356SOL     OW27074   4.084   9.727   1.494 -0.3461  0.0235 -0.4063
 8356SOL    HW127075   4.107   9.775   1.573 -2.1030  0.6227 -0.2211
 8356SOL    HW227076   4.132   9.644   1.501 -2.3198 -1.0463  2.5649
 8357SOL     OW27077   8.935   8.370  10.854  0.0565  0.0982  0.0758
 8357SOL    HW127078   8.973   8.282  10.863  0.3151  0.2377  0.3806
 8357SOL    HW227079   8.841   8.355  10.845  0.1969 -0.2665 -0.9046
 8358SOL     OW27080   8.973   9.433   2.449 -0.0390  0.6619  0.5203
 8358SOL    HW127081   8.986   9.374   2.524 -0.4157  1.2821  1.0826
 8358SOL    HW227082   9.062   9.452   2.419  0.1308  0.6034  0.9700
 8359SOL     OW27083   7.330   1.951   7.166  0.0225  0.2273  1.0950
 8359SOL    HW127084   7.418   1.988   7.165 -0.1755  0.6872  0.1330
 8359SOL    HW227085   7.281   2.003   7.103 -0.8066 -0.3632  1.2359
 8360SOL     OW27086   3.006   9.615   5.498 -0.2261 -0.0153 -0.3787
 8360SOL    HW127087   2.974   9.595   5.587 -4.0831 -0.2925 -1.6316
 8360SOL    HW227088   2.986   9.707   5.485  2.1612  0.5569 -0.3631
 8361SOL     OW27089   2.904  10.105   5.069 -0.6842 -0.0015 -0.7260
 8361SOL    HW127090   2.852  10.029   5.041 -1.5264 -0.1807  1.2070
 8361SOL    HW227091   2.903  10.101   5.164 -0.0342  1.9896 -0.5997
 8362SOL     OW27092  10.980   3.118   3.874 -0.7929  0.7190 -0.2390
 8362SOL    HW127093  10.970   3.023   3.874 -0.3114  0.6113  1.7120
 8362SOL    HW227094  10.979   3.143   3.782 -1.5799 -1.0981 -0.7631
 8363SOL     OW27095   9.171   0.111   6.144 -0.2294 -0.2235  0.3944
 8363SOL    HW127096   9.143   0.141   6.057 -0.9957  1.8290  1.2738
 8363SOL    HW227097   9.212   0.188   6.183 -0.5572 -0.8917  2.1254
 8364SOL     OW27098   5.583   8.644   2.362 -0.0734 -0.2934  0.2930
 8364SOL    HW127099   5.627   8.588   2.426 -0.7039 -0.9075  0.1943
 8364SOL    HW227100   5.534   8.708   2.415  0.3614 -0.0480  0.4065
 8365SOL     OW27101   2.818   1.559   0.956 -0.1574  0.2228  0.5930
 8365SOL    HW127102   2.724   1.544   0.946  0.2311 -2.7233  0.3999
 8365SOL    HW227103   2.838   1.525   1.043  1.1272 -2.1474 -0.5250
 8366SOL     OW27104   0.615   5.528   4.714 -0.4766  0.4619  0.5119
 8366SOL    HW127105   0.618   5.594   4.784  1.6627 -0.3278  1.2492
 8366SOL    HW227106   0.694   5.544   4.663 -0.5598 -0.7727 -0.0253
 8367SOL     OW27107   2.694   7.922   7.670 -0.0801  0.6635 -0.0032
 8367SOL    HW127108   2.611   7.944   7.629 -0.7325 -0.9038  0.4235
 8367SOL    HW227109   2.683   7.945   7.762 -0.6027 -0.9065  0.3532
 8368SOL     OW27110   9.152   2.793   3.751  0.0764 -0.0840  0.0356
 8368SOL    HW127111   9.099   2.733   3.698 -0.7931  0.6681  0.0415
 8368SOL    HW227112   9.120   2.880   3.729  0.0041  0.2708  1.4563
 8369SOL     OW27113   4.158   5.183   2.807 -0.0358 -0.1795 -0.4891
 8369SOL    HW127114   4.205   5.129   2.870 -0.7695  0.1093  0.3171
 8369SOL    HW227115   4.117   5.121   2.747 -0.5278 -0.5128  0.1804
 8370SOL     OW27116   4.627   5.341   3.172  0.6358 -0.3995  0.2832
 8370SOL    HW127117   4.685   5.379   3.106  0.4738  1.8415  1.3617
 8370SOL    HW227118   4.548   5.394   3.169 -0.9457 -2.6269 -0.2766
 8371SOL     OW27119   0.096   5.197   1.229 -0.6756 -0.5308 -0.3518
 8371SOL    HW127120   0.053   5.112   1.222  1.4996 -1.7391  0.2639
 8371SOL    HW227121   0.095   5.216   1.323 -0.9279  0.0376 -0.4638
 8372SOL     OW27122   9.237   2.025   0.054  0.2180 -0.5818  0.5232
 8372SOL    HW127123   9.322   2.025   0.008  0.2126  0.3558  0.4795
 8372SOL    HW227124   9.260   2.020   0.146  0.3530  0.0958  0.5341
 8373SOL     OW27125   4.304   6.436   4.092  0.3787 -0.4181 -0.1768
 8373SOL    HW127126   4.379   6.376   4.082 -0.7073 -2.1277  1.2602
 8373SOL    HW227127   4.228   6.381   4.071 -0.5351  1.1504 -1.1229
 8374SOL     OW27128   2.179   7.218   1.135 -0.3847  0.6154  0.1372
 8374SOL    HW127129   2.148   7.308   1.129 -2.6828 -0.1993 -2.1125
 8374SOL    HW227130   2.269   7.222   1.104 -0.1986  2.2150  0.7836
 8375SOL     OW27131   9.769  10.632  10.756 -0.3069 -0.0012  0.1209
 8375SOL    HW127132   9.857  10.594  10.757 -0.3480 -0.0786  0.8036
 8375SOL    HW227133   9.777  10.710  10.811 -0.7624 -0.2155  0.4859
 8376SOL     OW27134   8.756   2.145   4.422  0.4520  0.5794 -0.6261
 8376SOL    HW127135   8.720   2.095   4.348  1.4284  2.5905 -2.5909
 8376SOL    HW227136   8.680   2.162   4.479 -0.5131 -0.3196 -1.6065
 8377SOL     OW27137   5.186   7.003  10.266 -0.1982  0.3669 -0.3430
 8377SOL    HW127138   5.208   6.966  10.181 -2.0269  0.8720 -1.0873
 8377SOL    HW227139   5.136   7.082  10.246 -1.3110  0.1026  1.1571
 8378SOL     OW27140  10.055   1.942   4.270  0.0231 -0.2348 -0.0691
 8378SOL    HW127141  10.033   1.865   4.323  1.7161 -0.2542  0.6479
 8378SOL    HW227142  10.151   1.943   4.268  0.0087  1.0533 -1.2702
 8379SOL     OW27143   6.122  10.646   5.878  0.3579 -0.5183  1.0000
 8379SOL    HW127144   6.096  10.669   5.789  0.2047 -1.1210  0.8820
 8379SOL    HW227145   6.152  10.728   5.917  0.5549 -0.2762  0.3461
 8380SOL     OW27146   9.157   9.748   8.960 -0.7416 -0.1330  0.0026
 8380SOL    HW127147   9.070   9.737   8.920 -0.9673  0.4240  0.3296
 8380SOL    HW227148   9.176   9.841   8.950 -0.1478 -0.2627 -0.1184
 8381SOL     OW27149   5.290   4.945   1.104  0.6199 -0.1124 -0.2553
 8381SOL    HW127150   5.368   4.937   1.049  1.0194  1.0675  0.1224
 8381SOL    HW227151   5.249   5.027   1.077 -1.2470 -1.3342 -1.3632
 8382SOL     OW27152  10.239   9.637   2.851 -0.3106  0.2868 -0.1988
 8382SOL    HW127153  10.262   9.545   2.840 -0.7523  0.1979 -0.3875
 8382SOL    HW227154  10.212   9.666   2.764 -0.3885  0.5319 -0.0937
 8383SOL     OW27155   6.809  10.755   0.405  0.2126 -0.5312 -0.1585
 8383SOL    HW127156   6.851  10.771   0.321  0.4765 -0.9940 -0.1157
 8383SOL    HW227157   6.774  10.840   0.431  0.4031 -0.3217 -0.5854
 8384SOL     OW27158   9.392   9.371   0.594  0.2454 -0.3845  0.0787
 8384SOL    HW127159   9.469   9.369   0.652  1.3278  0.3650 -1.2807
 8384SOL    HW227160   9.425   9.343   0.509 -1.7737 -3.7138  0.2195
 8385SOL     OW27161   8.510   6.391   5.329  0.7393  0.2911  0.8125
 8385SOL    HW127162   8.439   6.360   5.273  1.8346 -0.5275 -0.1653
 8385SOL    HW227163   8.503   6.487   5.325  0.1342  0.2256  0.1456
 8386SOL     OW27164   5.542   3.278   3.027 -0.0615  0.1727 -0.8304
 8386SOL    HW127165   5.582   3.341   3.087  0.7763 -0.3777 -0.7899
 8386SOL    HW227166   5.510   3.331   2.954  0.9802  0.6146 -0.9837
 8387SOL     OW27167   4.159   0.107   0.905 -0.3374  0.3760  0.0469
 8387SOL    HW127168   4.190   0.198   0.902 -0.2888  0.3289 -1.6773
 8387SOL    HW227169   4.239   0.055   0.904 -0.3766  0.2997 -1.5788
 8388SOL     OW27170   1.183   0.352   1.602 -0.3360 -0.2480 -0.2113
 8388SOL    HW127171   1.088   0.357   1.606 -0.3697  0.1680 -1.2201
 8388SOL    HW227172   1.212   0.359   1.693 -1.2481 -0.0313  0.0686
 8389SOL     OW27173   7.709   8.912   9.192 -0.3756  0.0161 -0.3304
 8389SOL    HW127174   7.743   8.906   9.102  3.0766 -0.5821  0.8578
 8389SOL    HW227175   7.783   8.946   9.242 -1.2832 -2.1769  2.7415
 8390SOL     OW27176   1.998   4.629   8.621 -0.3461  0.1967  0.2736
 8390SOL    HW127177   1.956   4.652   8.538  0.0663 -0.0895 -0.0159
 8390SOL    HW227178   2.073   4.689   8.627 -0.9183  0.8610  0.8992
 8391SOL     OW27179   5.111   9.713   5.757  0.1523  0.0823 -0.0817
 8391SOL    HW127180   5.203   9.693   5.775 -0.4100 -0.4105  2.6959
 8391SOL    HW227181   5.104   9.808   5.766 -0.0567 -0.0965  2.7840
 8392SOL     OW27182   4.330  11.135   5.076  0.7493  0.5538  0.3186
 8392SOL    HW127183   4.319  11.162   5.167 -1.1354  0.0276  0.2828
 8392SOL    HW227184   4.314  11.214   5.024  0.7548  0.6092  0.4015
 8393SOL     OW27185   2.066   9.461   9.958  0.4370  0.0537  0.6064
 8393SOL    HW127186   2.147   9.425   9.992 -0.5183  0.1709  3.2092
 8393SOL    HW227187   1.999   9.432  10.020 -1.0044  2.7431  0.4466
 8394SOL     OW27188  10.847   1.987   4.623  0.1197 -0.1757 -0.2746
 8394SOL    HW127189  10.810   2.059   4.674  2.9258  0.6893  0.6768
 8394SOL    HW227190  10.871   1.921   4.688 -0.8131 -1.2644 -0.9925
 8395SOL     OW27191   1.307   8.033   4.649  1.2896  0.2249  0.6132
 8395SOL    HW127192   1.242   8.008   4.715  1.6848  0.8872  1.2549
 8395SOL    HW227193   1.299   7.965   4.582  1.1181 -0.6520  1.4969
 8396SOL     OW27194   9.553  10.221  10.336 -0.3842 -0.2854 -0.2906
 8396SOL    HW127195   9.486  10.289  10.349  1.6547  1.9268 -0.4758
 8396SOL    HW227196   9.535  10.185  10.250 -1.3455  0.2430 -0.3229
 8397SOL     OW27197   2.127   8.692   2.144 -0.1791 -0.3197 -0.1364
 8397SOL    HW127198   2.110   8.782   2.171  1.0241  0.0031 -0.4107
 8397SOL    HW227199   2.129   8.643   2.226  1.0928  0.2553  0.2061
 8398SOL     OW27200   9.511  10.521   3.581 -0.4338  0.4448  0.4243
 8398SOL    HW127201   9.562  10.528   3.662  0.3241 -0.2774  0.0195
 8398SOL    HW227202   9.455  10.445   3.594 -1.9260  1.5909  1.1191
 8399SOL     OW27203   4.124  11.245  10.921 -0.1419  0.5762 -0.0856
 8399SOL    HW127204   4.140  11.156  10.953 -0.4213  0.4056 -0.4182
 8399SOL    HW227205   4.203  11.294  10.946  2.1920 -0.8211 -3.8606
 8400SOL     OW27206   7.327   1.892   2.863  0.2166 -0.1932 -0.2520
 8400SOL    HW127207   7.370   1.963   2.911  0.8627 -2.1274  2.1761
 8400SOL    HW227208   7.235   1.919   2.857  0.3799  0.6712  0.9453
 8401SOL     OW27209   4.886   4.919   0.929  0.7695  0.0800  0.7539
 8401SOL    HW127210   4.876   4.938   0.836 -1.6540  2.4802  1.3778
 8401SOL    HW227211   4.904   4.825   0.933 -2.5448 -0.8622 -2.0181
 8402SOL     OW27212   8.911   6.728   8.762 -0.2566  1.1889  0.2343
 8402SOL    HW127213   8.973   6.707   8.832 -2.5152 -2.5665  1.3947
 8402SOL    HW227214   8.850   6.789   8.803  0.5437  1.9869  0.2704
 8403SOL     OW27215   3.227   8.107   3.802  0.3343  0.6599 -0.3340
 8403SOL    HW127216   3.245   8.084   3.711 -0.0192  1.9105 -0.7313
 8403SOL    HW227217   3.207   8.023   3.844  0.7641  0.0370 -1.3311
 8404SOL     OW27218   7.693   1.268   3.081  0.2645  0.5500  0.1958
 8404SOL    HW127219   7.783   1.301   3.088 -0.5569  3.2148 -0.7658
 8404SOL    HW227220   7.703   1.172   3.084  3.1690  0.7271 -0.5263
 8405SOL     OW27221   9.579   4.590   5.944 -0.5358  0.1935  0.8173
 8405SOL    HW127222   9.498   4.586   5.994 -0.9629 -0.3571  0.1029
 8405SOL    HW227223   9.593   4.501   5.913  1.2033 -0.0750  2.2383
 8406SOL     OW27224  10.810   4.765   7.111  0.5142 -0.4533 -0.3656
 8406SOL    HW127225  10.807   4.781   7.206 -0.2025 -0.5794 -0.3639
 8406SOL    HW227226  10.778   4.846   7.072 -1.5986 -1.2390 -0.4059
 8407SOL     OW27227   6.118   1.506   5.072 -0.1342  0.1762  0.0034
 8407SOL    HW127228   6.176   1.503   5.147  0.2480  1.7059 -0.1894
 8407SOL    HW227229   6.062   1.428   5.080  0.4638 -0.1224  1.3868
 8408SOL     OW27230  10.513   2.256   8.114 -0.8407  0.5203 -0.4444
 8408SOL    HW127231  10.478   2.257   8.203 -0.0675 -1.8549 -0.0428
 8408SOL    HW227232  10.599   2.213   8.123 -0.9234 -0.1294 -2.3661
 8409SOL     OW27233   5.664   3.090   1.335 -0.1337 -0.1312  0.0905
 8409SOL    HW127234   5.635   3.141   1.411  1.0571 -1.2314  1.3532
 8409SOL    HW227235   5.749   3.128   1.312 -0.0904 -0.3666 -0.1389
 8410SOL     OW27236   3.694   6.885   9.271 -0.0342  0.0668 -0.6605
 8410SOL    HW127237   3.757   6.815   9.283  0.3197  0.4108 -0.4649
 8410SOL    HW227238   3.691   6.900   9.177 -0.5052 -0.5631 -0.7486
 8411SOL     OW27239   9.856   4.010   7.250 -0.3996 -0.0994 -0.3654
 8411SOL    HW127240   9.820   4.077   7.193  1.3987  0.2384 -1.1774
 8411SOL    HW227241   9.945   3.995   7.218  0.3629 -0.5949  1.7481
 8412SOL     OW27242   2.127  10.887   1.173 -0.1376 -0.3966  0.3667
 8412SOL    HW127243   2.187  10.813   1.171 -0.0778 -0.3305 -1.8539
 8412SOL    HW227244   2.178  10.961   1.140 -0.7915  0.1761  0.5977
 8413SOL     OW27245   3.811   8.407   1.986  0.5821 -0.8859 -0.0678
 8413SOL    HW127246   3.787   8.467   1.916 -1.2331 -1.2970  0.1582
 8413SOL    HW227247   3.897   8.437   2.015 -0.0896  1.3670 -0.2096
 8414SOL     OW27248   1.328   8.894   6.106  0.4794  0.3660  0.4577
 8414SOL    HW127249   1.321   8.989   6.099  1.8787  0.4179 -0.5618
 8414SOL    HW227250   1.243   8.861   6.077  0.1211  1.2748  0.4444
 8415SOL     OW27251   7.803   8.084   8.963  0.2648  0.2900 -0.7524
 8415SOL    HW127252   7.896   8.064   8.974  0.3026  0.8236 -0.0815
 8415SOL    HW227253   7.783   8.147   9.032 -0.6372  0.0532 -0.7806
 8416SOL     OW27254   9.180   8.392   1.505  0.0130  0.2966 -0.1795
 8416SOL    HW127255   9.207   8.481   1.526  0.0883  0.1562  0.3277
 8416SOL    HW227256   9.134   8.362   1.583  1.9511 -0.9214  0.5559
 8417SOL     OW27257   8.998   7.179   1.187  0.3327 -0.1182  0.2752
 8417SOL    HW127258   8.912   7.220   1.177 -0.0276 -0.6371  1.1260
 8417SOL    HW227259   8.998   7.106   1.125 -0.5322 -1.1910  1.5006
 8418SOL     OW27260  10.112   2.043   7.822  0.2561 -0.4399  0.8958
 8418SOL    HW127261  10.175   1.984   7.781  1.2633  1.3660 -0.2856
 8418SOL    HW227262  10.027   2.004   7.803  0.7351 -0.2595 -2.1045
 8419SOL     OW27263  11.254   6.844  10.120  0.3257 -0.2144  0.0161
 8419SOL    HW127264  11.289   6.906  10.184  0.2130 -0.5490  0.4057
 8419SOL    HW227265  11.181   6.891  10.079  0.2916 -0.0623  0.2501
 8420SOL     OW27266  10.061   4.867   7.239 -0.4286  0.2801 -0.7984
 8420SOL    HW127267   9.990   4.886   7.177  0.1535 -0.5668 -1.7594
 8420SOL    HW227268  10.017   4.855   7.323 -1.1375  2.5797 -0.7644
 8421SOL     OW27269   8.138  10.317   8.418  0.1373  0.1053 -0.5491
 8421SOL    HW127270   8.103  10.228   8.414 -0.8499  0.4590 -0.0816
 8421SOL    HW227271   8.061  10.373   8.409  0.6563  0.9145 -0.0197
 8422SOL     OW27272  10.529   9.676  10.064 -0.2386 -0.7243  0.2214
 8422SOL    HW127273  10.581   9.746  10.026  0.7768 -1.7336 -0.3235
 8422SOL    HW227274  10.447   9.677  10.015 -0.2449  0.0821  0.2370
 8423SOL     OW27275   1.568   3.496   8.977  0.3481 -0.0957  0.3411
 8423SOL    HW127276   1.514   3.572   8.953 -0.5511 -1.1539 -1.1627
 8423SOL    HW227277   1.633   3.490   8.907  1.5954  0.3351  1.4136
 8424SOL     OW27278   7.436   1.463  11.252 -0.0473 -0.0083  0.2536
 8424SOL    HW127279   7.343   1.462  11.275 -0.0592  0.7282  0.2678
 8424SOL    HW227280   7.449   1.547  11.208  0.4882 -0.3646 -0.2808
 8425SOL     OW27281   4.873   3.172   7.134 -0.0250  0.6084 -0.3999
 8425SOL    HW127282   4.805   3.116   7.097  0.0955  0.6754 -0.7305
 8425SOL    HW227283   4.892   3.235   7.065 -0.7020  1.5361  0.2356
 8426SOL     OW27284   8.736   6.123   3.250 -0.3669  0.2040 -0.0843
 8426SOL    HW127285   8.673   6.134   3.179 -0.4254 -0.0839 -0.0763
 8426SOL    HW227286   8.818   6.100   3.206 -0.6040 -0.8151 -0.0120
 8427SOL     OW27287  10.054   2.677   7.992  0.6511 -0.1617 -0.1234
 8427SOL    HW127288  10.001   2.636   7.923  2.0638 -1.7158 -0.3436
 8427SOL    HW227289  10.144   2.656   7.969  1.1863 -0.5549  2.0720
 8428SOL     OW27290   1.723   9.831  11.085 -0.0389 -0.3330  0.3294
 8428SOL    HW127291   1.803   9.786  11.058 -0.0620 -0.0096 -0.2836
 8428SOL    HW227292   1.686   9.774  11.152  1.5759  0.3238  1.8731
 8429SOL     OW27293   5.701   9.391   2.463 -0.1713  0.3824  0.1152
 8429SOL    HW127294   5.675   9.430   2.547  0.4508 -1.0057  0.9785
 8429SOL    HW227295   5.619   9.361   2.425 -0.3527  0.0753  0.7258
 8430SOL     OW27296   7.664   5.580   6.828 -0.0656 -0.1328  0.0160
 8430SOL    HW127297   7.576   5.556   6.798  0.2103  1.2012 -2.0928
 8430SOL    HW227298   7.722   5.516   6.787 -0.0209 -1.0489  1.4524
 8431SOL     OW27299   5.599   3.339   7.889 -1.2619  0.0887 -0.4279
 8431SOL    HW127300   5.645   3.358   7.971 -2.4935 -0.7189  0.4792
 8431SOL    HW227301   5.534   3.273   7.913 -1.7619 -0.0326 -2.0297
 8432SOL     OW27302   7.995   8.202   1.046  0.2163 -0.2143  0.1062
 8432SOL    HW127303   8.079   8.182   1.087  0.3188  0.5970  0.3194
 8432SOL    HW227304   7.938   8.130   1.071  0.7758 -0.6359  0.1861
 8433SOL     OW27305   7.542   2.233   5.003 -0.0870 -0.4615 -0.2412
 8433SOL    HW127306   7.516   2.237   4.911  1.4553 -0.7838 -0.7366
 8433SOL    HW227307   7.560   2.141   5.018 -0.8491 -0.4836  0.5495
 8434SOL     OW27308  11.144   5.250   8.940 -0.2022 -0.3589 -0.1359
 8434SOL    HW127309  11.141   5.247   8.845  0.8266  2.4935 -0.3664
 8434SOL    HW227310  11.219   5.196   8.964 -0.2580 -0.8161 -0.9733
 8435SOL     OW27311  10.311   9.941   8.204 -0.3438 -0.2917  0.0297
 8435SOL    HW127312  10.344   9.898   8.126 -0.3078 -1.5689  0.7140
 8435SOL    HW227313  10.381   9.932   8.269 -0.3463  0.7983  0.2085
 8436SOL     OW27314   3.969   7.552   3.964  0.3318 -0.1502  0.3610
 8436SOL    HW127315   4.036   7.542   4.032  0.3177  1.8958  0.7422
 8436SOL    HW227316   3.944   7.644   3.969 -1.3979 -0.5155 -0.8372
 8437SOL     OW27317   5.841   2.706  11.245 -0.4879  0.4658  0.3797
 8437SOL    HW127318   5.910   2.770  11.225  0.7882 -1.0027 -0.1966
 8437SOL    HW227319   5.764   2.759  11.265  0.1642  2.1700 -1.2619
 8438SOL     OW27320   0.750   1.371   8.122  0.6471 -0.5548 -0.7952
 8438SOL    HW127321   0.749   1.465   8.137 -1.5078 -0.7029  0.5764
 8438SOL    HW227322   0.786   1.334   8.203 -0.1917 -0.9429 -0.5796
 8439SOL     OW27323   1.851   8.764   7.763  0.6846  0.2718 -0.0334
 8439SOL    HW127324   1.760   8.792   7.756  0.5613 -0.4049 -1.7670
 8439SOL    HW227325   1.846   8.671   7.785  1.0612  0.9643  3.5896
 8440SOL     OW27326   9.371   4.763   4.414  0.2255 -0.0637  0.0789
 8440SOL    HW127327   9.391   4.670   4.421  1.2382 -0.2995 -3.6924
 8440SOL    HW227328   9.451   4.807   4.445  1.9702 -0.7309 -3.0031
 8441SOL     OW27329   6.152   9.679   9.481 -0.1357 -0.1151 -0.6917
 8441SOL    HW127330   6.219   9.689   9.548 -2.0805  0.3103  1.3187
 8441SOL    HW227331   6.122   9.768   9.463 -1.3988 -0.3997 -0.1599
 8442SOL     OW27332   8.256   7.590   2.509 -0.2574 -0.3989  0.5167
 8442SOL    HW127333   8.299   7.514   2.468 -1.8242 -1.5238  0.8479
 8442SOL    HW227334   8.218   7.638   2.436  0.4625 -0.1150  0.3278
 8443SOL     OW27335   0.276   1.661   4.657  0.4397 -0.7429 -0.0980
 8443SOL    HW127336   0.285   1.670   4.562  0.7814 -1.7968 -0.1815
 8443SOL    HW227337   0.304   1.571   4.675  0.5823 -0.4881  1.0259
 8444SOL     OW27338   6.080   7.294   1.946 -0.0381 -0.0943 -0.3419
 8444SOL    HW127339   6.096   7.201   1.962  0.0436 -0.6043 -2.9869
 8444SOL    HW227340   5.984   7.301   1.945 -0.0691 -0.4507 -1.4546
 8445SOL     OW27341   4.582   7.024  10.609  0.7413  0.5131 -0.6474
 8445SOL    HW127342   4.636   7.004  10.686 -0.2927  1.0166  0.2539
 8445SOL    HW227343   4.536   6.942  10.590 -1.2199  1.0764  1.1668
 8446SOL     OW27344   5.994  10.917   7.186 -0.0301 -0.3825 -0.1713
 8446SOL    HW127345   5.919  10.860   7.169 -0.7861  0.3337  0.6657
 8446SOL    HW227346   5.959  11.005   7.177  0.5062 -0.0290  0.9775
 8447SOL     OW27347   8.119   0.653   7.248  0.0080 -0.3186 -0.3365
 8447SOL    HW127348   8.194   0.630   7.303 -1.9120 -1.5491  1.9634
 8447SOL    HW227349   8.048   0.670   7.310 -1.6276  0.9212 -2.4063
 8448SOL     OW27350   8.850  10.750   9.161 -0.0521  0.0850 -0.4504
 8448SOL    HW127351   8.868  10.711   9.076  0.9011 -0.4865 -0.0063
 8448SOL    HW227352   8.778  10.698   9.197  1.5728 -1.7177  0.3737
 8449SOL     OW27353   3.368   5.631  11.144  0.0089  0.0246 -0.1858
 8449SOL    HW127354   3.377   5.707  11.087 -1.3588 -0.2847 -0.8461
 8449SOL    HW227355   3.306   5.574  11.099  0.3516 -1.0998  0.7101
 8450SOL     OW27356   3.984   2.991   5.576  0.4500  0.0478 -0.8733
 8450SOL    HW127357   4.057   2.933   5.555  0.9117  1.0541 -2.1724
 8450SOL    HW227358   3.944   2.952   5.653  4.0005  0.8585  1.6492
 8451SOL     OW27359   0.409  10.494   4.796 -0.0928 -0.3190  0.3884
 8451SOL    HW127360   0.453  10.521   4.716  2.1692  0.6775  1.8751
 8451SOL    HW227361   0.449  10.547   4.865 -2.6967 -0.3664  2.0834
 8452SOL     OW27362   2.656  11.027   4.650  0.1734 -0.3843  0.0811
 8452SOL    HW127363   2.729  10.997   4.704 -0.5206 -1.0450  0.6821
 8452SOL    HW227364   2.632  11.112   4.687  0.7246 -0.0955 -0.2154
 8453SOL     OW27365   6.489  10.374   1.037  0.0417  0.1929  0.5281
 8453SOL    HW127366   6.528  10.439   1.096  1.1146 -0.7182  0.8693
 8453SOL    HW227367   6.462  10.303   1.095  1.1189 -0.7218 -0.0338
 8454SOL     OW27368  10.018   2.153   6.566 -0.2570 -0.6296  0.1401
 8454SOL    HW127369  10.051   2.076   6.521  0.7233  0.6387 -1.4469
 8454SOL    HW227370   9.936   2.174   6.522  0.8242  0.7570 -1.3835
 8455SOL     OW27371   5.312   4.732   5.494  0.2425  0.0591  0.2099
 8455SOL    HW127372   5.277   4.741   5.583 -0.8228  1.5667 -0.3209
 8455SOL    HW227373   5.275   4.806   5.446  0.7489 -0.7535 -1.5152
 8456SOL     OW27374  10.531   6.850   8.531  0.0213 -0.6136  0.1628
 8456SOL    HW127375  10.480   6.869   8.453 -0.5790  0.7466  0.8627
 8456SOL    HW227376  10.466   6.826   8.597  0.4234 -0.5600  0.5835
 8457SOL     OW27377  10.657   4.914   8.022  0.3231  0.4239 -0.3609
 8457SOL    HW127378  10.646   4.989   7.964  0.2624  0.5258 -0.2197
 8457SOL    HW227379  10.603   4.935   8.098  0.9101  0.5877  0.0194
 8458SOL     OW27380  10.040   6.732   7.363  0.1734  0.4119  0.0593
 8458SOL    HW127381  10.098   6.699   7.431 -0.0459  0.7155  0.3999
 8458SOL    HW227382   9.981   6.792   7.409 -1.2685 -0.8731 -0.0286
 8459SOL     OW27383   4.061   8.756   2.095 -0.7035 -0.3497 -0.4594
 8459SOL    HW127384   4.047   8.850   2.107 -2.2330 -0.4948 -0.8732
 8459SOL    HW227385   4.074   8.723   2.184 -1.0518  0.1394 -0.2146
 8460SOL     OW27386   4.689   8.063   3.381 -0.2860 -0.1548  0.1548
 8460SOL    HW127387   4.732   8.014   3.450  0.5788  0.0190 -0.2475
 8460SOL    HW227388   4.657   7.997   3.320 -2.8319 -0.4439  1.6714
 8461SOL     OW27389  10.181   4.962   7.920  0.2073 -0.1442  0.2197
 8461SOL    HW127390  10.085   4.969   7.919  0.2106  0.3344 -1.7641
 8461SOL    HW227391  10.211   5.050   7.942  0.1714  0.0345 -0.4105
 8462SOL     OW27392   3.263   8.566   2.716 -0.3640  0.8240  0.0506
 8462SOL    HW127393   3.318   8.609   2.651 -2.2680  0.5142 -1.9022
 8462SOL    HW227394   3.175   8.567   2.677 -0.9642 -2.6521  0.9309
 8463SOL     OW27395  11.133  11.152   8.783  0.6081  0.2028  0.3759
 8463SOL    HW127396  11.200  11.203   8.827  2.7767 -2.9083  0.9760
 8463SOL    HW227397  11.067  11.135   8.850 -0.3495  2.3551  0.0666
 8464SOL     OW27398   9.021   5.591   7.908 -0.0242 -0.0895 -0.5090
 8464SOL    HW127399   9.036   5.618   7.817  2.0791  0.9308  0.0695
 8464SOL    HW227400   9.087   5.639   7.958  0.8219 -2.8284  1.2027
 8465SOL     OW27401   0.105  10.896   1.207  0.4306  0.0133  0.2196
 8465SOL    HW127402   0.189  10.870   1.245  0.0747  0.4790  1.3742
 8465SOL    HW227403   0.069  10.959   1.269 -0.5586  0.1812 -0.4957
 8466SOL     OW27404   5.509  10.350   4.544 -0.3732 -0.2105  0.4624
 8466SOL    HW127405   5.590  10.315   4.507 -0.1552 -0.1229  0.8544
 8466SOL    HW227406   5.483  10.420   4.484 -0.0169 -0.0610  0.4841
 8467SOL     OW27407   5.943   2.353   4.612 -0.3305 -0.2728 -0.8003
 8467SOL    HW127408   5.904   2.266   4.608  0.9215 -0.9375  0.4023
 8467SOL    HW227409   5.975   2.360   4.702  0.5871  0.9929 -1.2006
 8468SOL     OW27410   4.151   7.207   7.564 -0.2390  0.1446  0.0278
 8468SOL    HW127411   4.149   7.145   7.637  0.8230 -1.4031 -1.1748
 8468SOL    HW227412   4.099   7.282   7.594 -2.3686 -1.6767  1.2418
 8469SOL     OW27413   9.435   7.323   7.645 -0.5757  0.3108  0.0684
 8469SOL    HW127414   9.345   7.291   7.630 -0.5005 -0.0709  0.4032
 8469SOL    HW227415   9.486   7.283   7.574 -0.5154 -0.1743  0.3810
 8470SOL     OW27416   6.994   1.369   2.986  0.2793 -0.0467  0.3029
 8470SOL    HW127417   6.962   1.441   3.039  0.4439 -1.0932  1.8794
 8470SOL    HW227418   7.077   1.399   2.951 -1.3498  1.9765 -2.2651
 8471SOL     OW27419   9.216  10.332   7.000  0.8661 -0.0208  0.2839
 8471SOL    HW127420   9.121  10.339   6.999  0.8377 -0.3660  0.5993
 8471SOL    HW227421   9.245  10.405   7.055  0.9191  1.5154 -1.6640
 8472SOL     OW27422  10.640   1.050   9.901  0.0385 -0.2129 -0.9470
 8472SOL    HW127423  10.629   0.957   9.920  0.9364  0.3978  4.1082
 8472SOL    HW227424  10.730   1.057   9.868 -0.0496 -1.1068 -1.4108
 8473SOL     OW27425   1.632   2.166   8.686  0.6900  0.1207 -0.0333
 8473SOL    HW127426   1.624   2.232   8.755  1.2062  0.8273 -0.6334
 8473SOL    HW227427   1.712   2.190   8.639 -0.1874  0.2470 -1.5030
 8474SOL     OW27428   3.767  10.677   6.452 -0.0499  0.9338  0.0431
 8474SOL    HW127429   3.806  10.612   6.511 -0.2974  0.9624  0.2363
 8474SOL    HW227430   3.840  10.705   6.397 -0.5299 -2.0915 -2.4634
 8475SOL     OW27431   3.751   6.585   9.586  0.6564  0.1327  0.3082
 8475SOL    HW127432   3.838   6.618   9.609  1.6508 -3.5528  2.6209
 8475SOL    HW227433   3.697   6.607   9.662 -0.2581  1.5561 -0.7115
 8476SOL     OW27434   2.193   4.107  10.843  0.8269  0.6096  0.0274
 8476SOL    HW127435   2.223   4.061  10.764 -0.3807 -0.2401  0.0347
 8476SOL    HW227436   2.273   4.121  10.894  1.4536  0.0006 -0.7479
 8477SOL     OW27437   1.779   9.857   4.829 -0.2009  0.2920 -0.1762
 8477SOL    HW127438   1.808   9.944   4.803  0.5990 -0.0780 -0.5544
 8477SOL    HW227439   1.853   9.800   4.809  1.4514  0.2122  4.7468
 8478SOL     OW27440   5.797   4.725   7.819 -0.0511  0.1278  0.2895
 8478SOL    HW127441   5.716   4.674   7.821  0.2996 -0.5180 -0.8617
 8478SOL    HW227442   5.829   4.724   7.909 -0.9239 -0.2540  0.6015
 8479SOL     OW27443   5.363   9.298   5.926 -0.4984  0.0968 -0.0755
 8479SOL    HW127444   5.432   9.233   5.940  0.8060  1.5552  0.5936
 8479SOL    HW227445   5.282   9.246   5.919  0.6354 -1.6709 -0.9016
 8480SOL     OW27446  10.939   4.797   0.818 -0.0246  0.5806  0.1717
 8480SOL    HW127447  10.846   4.782   0.829  0.3030 -0.6547  1.7225
 8480SOL    HW227448  10.955   4.883   0.856 -0.4744  0.6417  0.2225
 8481SOL     OW27449   4.523  11.001   7.970  0.0215 -0.5532 -0.3337
 8481SOL    HW127450   4.610  10.962   7.982 -1.1175 -3.3999 -0.4151
 8481SOL    HW227451   4.499  11.033   8.057  1.8529  2.0855 -0.7010
 8482SOL     OW27452   5.849   4.888   6.316  0.0623  1.0414  0.1147
 8482SOL    HW127453   5.843   4.978   6.285  0.9116  2.2632  3.1106
 8482SOL    HW227454   5.848   4.896   6.412  3.2330 -1.8095  0.5843
 8483SOL     OW27455   6.162   9.513   2.558  0.0687  0.4356  0.4987
 8483SOL    HW127456   6.229   9.575   2.530  1.9151 -1.1882  1.1512
 8483SOL    HW227457   6.209   9.445   2.605 -1.8056 -1.6636 -0.4485
 8484SOL     OW27458  11.223   5.237   4.815  0.3836  0.5034  0.4788
 8484SOL    HW127459  11.226   5.166   4.879 -2.2316 -0.6075 -0.4934
 8484SOL    HW227460  11.314   5.247   4.786  0.9015 -2.1902  0.9524
 8485SOL     OW27461   5.613  10.647   0.282 -0.1084 -0.2769  0.3590
 8485SOL    HW127462   5.542  10.616   0.226 -0.2380  1.4439 -0.5000
 8485SOL    HW227463   5.572  10.713   0.338  0.5373 -0.2549  0.8203
 8486SOL     OW27464   7.827   3.771   3.515 -0.3492  0.0429 -0.1261
 8486SOL    HW127465   7.862   3.826   3.585  1.2799 -1.9901  0.7855
 8486SOL    HW227466   7.877   3.689   3.522  0.8123  0.1414 -4.4498
 8487SOL     OW27467   5.328   7.675   1.612  0.1371 -0.5626 -0.3509
 8487SOL    HW127468   5.292   7.649   1.697  1.7243  0.0439  0.5716
 8487SOL    HW227469   5.349   7.593   1.568 -3.1530 -0.9860 -1.3708
 8488SOL     OW27470   1.332   9.259   4.960 -0.0420  0.6888  0.1010
 8488SOL    HW127471   1.375   9.344   4.957  0.0581  0.6683  0.8055
 8488SOL    HW227472   1.391   9.200   4.915  1.4770  0.3234  2.3928
 8489SOL     OW27473   6.010  11.255   4.442  0.6060 -0.2931  0.7262
 8489SOL    HW127474   6.070  11.279   4.512  0.5203 -0.9270  1.0249
 8489SOL    HW227475   5.944  11.200   4.485 -0.6155  0.9992  0.5547
 8490SOL     OW27476   9.622   4.792   0.145  0.4894  0.5258  0.3250
 8490SOL    HW127477   9.583   4.807   0.059  0.0377  1.7448  0.7242
 8490SOL    HW227478   9.547   4.784   0.204  0.7990 -0.0957  0.6464
 8491SOL     OW27479   9.650  10.254   1.766  0.2275 -0.1509 -0.0625
 8491SOL    HW127480   9.584  10.190   1.794  0.7721 -1.6958 -2.1127
 8491SOL    HW227481   9.732  10.206   1.765  0.6816  0.5825 -1.4973
 8492SOL     OW27482   5.923   0.148   5.670  0.0360 -0.0254 -0.1010
 8492SOL    HW127483   5.828   0.159   5.658 -0.0807 -0.6174  0.2356
 8492SOL    HW227484   5.935   0.053   5.680  0.7217  0.0021 -0.5958
 8493SOL     OW27485   9.171   8.231   2.993  1.1076  0.1228 -0.2784
 8493SOL    HW127486   9.226   8.300   3.031  0.3865  0.1094  0.8341
 8493SOL    HW227487   9.082   8.254   3.019  0.7528 -0.7177 -0.7001
 8494SOL     OW27488   2.645   5.435   0.940 -0.5762  0.6037 -0.1964
 8494SOL    HW127489   2.596   5.392   1.010 -1.5891 -1.4484 -2.0445
 8494SOL    HW227490   2.655   5.525   0.969  2.3719 -0.8283  4.3511
 8495SOL     OW27491   4.269   3.028   8.725  0.0715  0.6116 -0.0255
 8495SOL    HW127492   4.275   3.022   8.820  1.8026 -1.1805 -0.1753
 8495SOL    HW227493   4.319   3.106   8.702 -2.3294  2.4561  0.6042
 8496SOL     OW27494   2.371   0.534   7.991  0.4223 -0.4071  0.3144
 8496SOL    HW127495   2.344   0.610   8.042  0.9938 -0.6287  0.9672
 8496SOL    HW227496   2.302   0.523   7.925 -1.5967 -1.5120  2.4755
 8497SOL     OW27497   1.417   4.840   3.569  0.0517  0.0686 -0.5870
 8497SOL    HW127498   1.337   4.797   3.539 -0.8433  0.8031  0.6328
 8497SOL    HW227499   1.440   4.793   3.650 -0.6662  1.4941  0.4964
 8498SOL     OW27500   9.867   0.775   0.050  0.3948 -0.4777  0.1042
 8498SOL    HW127501   9.845   0.861   0.086  0.9751  0.4876 -1.6834
 8498SOL    HW227502   9.862   0.715   0.124 -1.3608  0.8531  1.1370
 8499SOL     OW27503   0.629   2.738   4.025  0.4175  0.4893 -0.1198
 8499SOL    HW127504   0.643   2.832   4.024 -1.6170  0.8488  0.6621
 8499SOL    HW227505   0.539   2.727   4.056  0.7948 -1.7374  0.3697
 8500SOL     OW27506   6.396   9.050  11.100  0.6401 -0.4094 -0.0105
 8500SOL    HW127507   6.369   8.994  11.172 -2.0338  0.1701 -0.4502
 8500SOL    HW227508   6.353   9.013  11.023  0.8134  0.8251 -0.7431
 8501SOL     OW27509   9.703   3.907  11.159 -0.4139  1.0021 -0.9846
 8501SOL    HW127510   9.632   3.846  11.136 -0.7148  1.9777 -2.7800
 8501SOL    HW227511   9.766   3.853  11.208 -1.3631 -0.3874 -1.2451
 8502SOL     OW27512  10.138   3.989   3.524  0.4986  0.3996  0.6007
 8502SOL    HW127513  10.114   4.061   3.583  1.7363  1.6955 -0.3887
 8502SOL    HW227514  10.055   3.946   3.503 -0.2401  1.3513  1.4683
 8503SOL     OW27515   4.705  10.505   2.019  0.2604  0.9935  0.0846
 8503SOL    HW127516   4.734  10.586   1.976 -1.6130  3.0590  2.4396
 8503SOL    HW227517   4.729  10.517   2.111 -3.3321  0.6112  1.2014
 8504SOL     OW27518   3.415   1.110   0.572  0.2427 -0.2367 -0.7077
 8504SOL    HW127519   3.333   1.062   0.580  0.8723 -1.0915  1.5809
 8504SOL    HW227520   3.391   1.202   0.577 -0.5980 -0.4692 -0.3965
 8505SOL     OW27521   0.056   4.793   2.726  0.7676 -0.1910  0.7779
 8505SOL    HW127522   0.121   4.776   2.794  2.0002 -0.1831 -0.3631
 8505SOL    HW227523  -0.005   4.719   2.731  0.2147  0.3370  2.5550
 8506SOL     OW27524   6.657   0.746   3.467  0.1108 -0.1133  0.5203
 8506SOL    HW127525   6.733   0.772   3.519  0.0426  1.3022 -0.0326
 8506SOL    HW227526   6.588   0.808   3.492 -0.8109 -1.2250  0.8387
 8507SOL     OW27527   6.639   8.036   2.232 -0.0483  0.0077  0.4213
 8507SOL    HW127528   6.550   8.008   2.214  0.3510 -1.0195 -0.0616
 8507SOL    HW227529   6.630   8.111   2.291 -1.1625 -1.0878  1.6840
 8508SOL     OW27530   9.375  10.972   3.577  0.8056  0.1839 -0.1411
 8508SOL    HW127531   9.365  10.922   3.496  1.2682  1.3623 -0.9515
 8508SOL    HW227532   9.382  11.063   3.549  4.5650  0.3909  0.8742
 8509SOL     OW27533   9.720   9.283   1.092  0.5276 -0.2006 -0.2332
 8509SOL    HW127534   9.788   9.314   1.032 -0.7283  1.4947 -0.8503
 8509SOL    HW227535   9.760   9.288   1.179  0.7452  2.2911 -0.4166
 8510SOL     OW27536   6.286   0.068  10.836 -0.4050 -0.3834  0.2528
 8510SOL    HW127537   6.225   0.048  10.906  0.0917 -0.1432  0.7573
 8510SOL    HW227538   6.277   0.163  10.823 -1.5919 -0.6367 -1.0453
 8511SOL     OW27539   8.372   7.006  10.867 -0.5310  0.4327 -0.1323
 8511SOL    HW127540   8.344   6.951  10.940  0.4153  0.6516  0.4014
 8511SOL    HW227541   8.303   6.994  10.801 -1.4140  0.2764  0.8008
 8512SOL     OW27542   7.058   1.687   1.772  0.0105 -0.4962 -0.5468
 8512SOL    HW127543   7.108   1.607   1.787  0.3901 -0.3579 -1.0309
 8512SOL    HW227544   7.052   1.728   1.859  1.9807  0.1906 -0.6862
 8513SOL     OW27545   6.441  10.767   0.141  0.0552  0.1529  0.4014
 8513SOL    HW127546   6.364  10.772   0.198 -1.1031 -0.0108 -1.0801
 8513SOL    HW227547   6.475  10.679   0.154 -1.0909 -0.4085 -0.2348
 8514SOL     OW27548   7.111   0.556   9.876 -0.2030 -0.0164  0.4507
 8514SOL    HW127549   7.136   0.565   9.784 -2.7465 -0.2242 -0.3319
 8514SOL    HW227550   7.033   0.611   9.885 -1.3614 -1.7820  1.8728
 8515SOL     OW27551   8.375   7.295   5.356  0.1779 -0.6925 -0.4857
 8515SOL    HW127552   8.374   7.383   5.320  0.4642 -1.1594 -1.6908
 8515SOL    HW227553   8.357   7.238   5.281  0.0142 -1.6623  0.2622
 8516SOL     OW27554   0.807   4.755   6.158 -0.4404  0.4306 -0.3934
 8516SOL    HW127555   0.872   4.820   6.133 -1.8233  0.8294 -3.5140
 8516SOL    HW227556   0.806   4.693   6.084  0.2488 -2.7943  2.0569
 8517SOL     OW27557   9.352   9.781   4.468  0.1635 -0.6852 -0.3907
 8517SOL    HW127558   9.272   9.797   4.519 -0.6445 -1.0762 -1.4981
 8517SOL    HW227559   9.423   9.791   4.532 -0.5364  2.5039  0.0477
 8518SOL     OW27560   4.644   3.027   1.812  0.3639  0.7785  0.3607
 8518SOL    HW127561   4.585   3.017   1.737  2.1142 -0.1908 -0.9967
 8518SOL    HW227562   4.716   2.967   1.793  1.7814  1.8902  1.9209
 8519SOL     OW27563   5.117   7.058   5.110 -0.1913 -0.5712 -0.1911
 8519SOL    HW127564   5.064   7.134   5.088 -1.6386 -1.2899  0.6409
 8519SOL    HW227565   5.100   7.043   5.203  1.3050 -0.9784  0.0376
 8520SOL     OW27566   0.891   7.043   5.740 -0.6436 -0.1030  0.3940
 8520SOL    HW127567   0.849   7.080   5.662 -3.2735 -2.4143  0.5796
 8520SOL    HW227568   0.891   7.114   5.803 -3.4868  0.3453  0.0339
 8521SOL     OW27569  10.785   6.683   0.562  0.6313  0.3424 -0.3784
 8521SOL    HW127570  10.743   6.610   0.518 -1.6779  0.4335  1.4985
 8521SOL    HW227571  10.825   6.645   0.640 -2.9711  1.2415  2.1609
 8522SOL     OW27572   6.258  10.179   6.418 -0.3706 -0.8917 -0.1900
 8522SOL    HW127573   6.305  10.180   6.335  2.3291 -0.7607  1.2510
 8522SOL    HW227574   6.275  10.264   6.456 -1.8316 -0.8392  0.4236
 8523SOL     OW27575   2.202   1.272   1.138 -0.3191 -0.3781  0.3884
 8523SOL    HW127576   2.115   1.233   1.141 -0.7489  0.5756  0.5591
 8523SOL    HW227577   2.245   1.227   1.065 -0.3674 -2.0160  1.3127
 8524SOL     OW27578   9.122   0.108   2.968  0.5142 -0.1036  0.3777
 8524SOL    HW127579   9.075   0.134   2.889  2.0345 -0.9828 -0.8817
 8524SOL    HW227580   9.164   0.188   2.999  2.5516 -0.2694 -1.6305
 8525SOL     OW27581   3.887   4.823   5.104 -0.0715 -0.0919  0.2849
 8525SOL    HW127582   3.871   4.863   5.190 -0.4306  1.1744 -0.3536
 8525SOL    HW227583   3.914   4.733   5.125 -0.5570  0.0567  1.7039
 8526SOL     OW27584   9.355  10.110   3.913 -0.1428  0.5443  0.5073
 8526SOL    HW127585   9.262  10.121   3.935  0.1171  0.4574  1.7383
 8526SOL    HW227586   9.397  10.091   3.997  1.5057  3.7572  0.5780
 8527SOL     OW27587   8.023  10.921   1.327  0.2184  0.0962  0.1329
 8527SOL    HW127588   7.960  10.867   1.374 -2.0413  0.5959 -2.0989
 8527SOL    HW227589   8.095  10.932   1.388 -1.3366 -1.4510  2.4211
 8528SOL     OW27590   5.614   5.274   9.485 -0.4019 -0.7373 -0.7313
 8528SOL    HW127591   5.664   5.231   9.555 -0.8154 -2.2539 -1.3298
 8528SOL    HW227592   5.649   5.237   9.404 -0.8697 -0.0161 -1.2765
 8529SOL     OW27593   0.462   5.526   0.052  0.0247 -0.0579  0.0922
 8529SOL    HW127594   0.400   5.488  -0.010  1.2252 -0.8608 -0.6701
 8529SOL    HW227595   0.524   5.575  -0.002 -0.9291  2.2676  0.9894
 8530SOL     OW27596   9.635   5.515   7.948  0.0227  0.1044 -0.4069
 8530SOL    HW127597   9.639   5.448   7.879 -0.0855 -0.2693 -0.0562
 8530SOL    HW227598   9.704   5.577   7.925 -0.5403  0.4210 -1.2953
 8531SOL     OW27599  10.797   6.423   1.607  0.0307 -0.1945  0.2668
 8531SOL    HW127600  10.776   6.499   1.662 -1.7578 -0.8971  0.6359
 8531SOL    HW227601  10.889   6.406   1.624 -0.5116 -0.6603  3.4751
 8532SOL     OW27602   0.995   5.924  11.120 -0.2083 -0.9794  0.8674
 8532SOL    HW127603   0.915   5.976  11.111  0.2675 -0.1089  1.5715
 8532SOL    HW227604   1.026   5.943  11.208  1.2277 -0.6856  0.3115
 8533SOL     OW27605   0.753   2.572   5.385 -0.1019 -0.6245 -0.2035
 8533SOL    HW127606   0.777   2.491   5.341 -1.1445 -0.6210 -0.8026
 8533SOL    HW227607   0.660   2.561   5.407  0.5881 -1.0826  2.9829
 8534SOL     OW27608   1.828   9.675   9.384  0.5110  0.0297  0.4981
 8534SOL    HW127609   1.780   9.604   9.426 -0.3798  0.0469 -0.4374
 8534SOL    HW227610   1.901   9.693   9.443  0.7214 -1.6147  0.7992
 8535SOL     OW27611   0.709   7.000  10.716  0.0546 -0.9107 -0.4380
 8535SOL    HW127612   0.744   6.943  10.648 -0.5172 -0.8517 -0.7896
 8535SOL    HW227613   0.626   7.033  10.680 -0.7031 -1.5661  0.6162
 8536SOL     OW27614   2.909  11.045   4.033  0.3891 -0.1566 -0.4499
 8536SOL    HW127615   2.981  10.999   4.075 -0.1963  1.0851  2.0800
 8536SOL    HW227616   2.868  10.978   3.977  2.0778 -1.5050 -0.1551
 8537SOL     OW27617   9.887   7.866   0.581  0.1637  0.1259 -0.1385
 8537SOL    HW127618   9.863   7.918   0.658  1.6294 -0.2348  0.6079
 8537SOL    HW227619   9.964   7.816   0.610  0.2525 -0.6177 -1.5999
 8538SOL     OW27620   8.400   8.274   1.029  0.0422  0.7049 -0.2721
 8538SOL    HW127621   8.416   8.340   1.097  3.4633  0.4298 -0.6009
 8538SOL    HW227622   8.442   8.310   0.951 -1.4346 -0.2000 -1.5410
 8539SOL     OW27623   7.188   2.745   1.113 -0.0679  0.0922 -0.0296
 8539SOL    HW127624   7.134   2.812   1.073 -1.0701 -0.1493  0.8677
 8539SOL    HW227625   7.127   2.694   1.168  0.8895 -0.7728  0.2739
 8540SOL     OW27626   3.908   4.614   3.033  0.1436  0.4376 -0.2691
 8540SOL    HW127627   3.936   4.551   2.967  3.5212 -0.2383  1.5816
 8540SOL    HW227628   3.943   4.579   3.115 -1.1002  2.8699  1.4027
 8541SOL     OW27629   0.381   3.499   4.423  0.5135  0.1504 -0.0804
 8541SOL    HW127630   0.422   3.491   4.337 -1.5591 -1.1482 -1.0545
 8541SOL    HW227631   0.451   3.481   4.485  1.4925 -1.8018 -1.6231
 8542SOL     OW27632   0.883   6.306   8.876 -0.0536  0.0329  0.1758
 8542SOL    HW127633   0.954   6.367   8.898 -0.0459 -0.8745  3.0586
 8542SOL    HW227634   0.811   6.330   8.934 -0.4263 -1.9840  0.6127
 8543SOL     OW27635   1.844   5.452   3.528 -0.8664 -0.5034  0.1919
 8543SOL    HW127636   1.770   5.421   3.476 -0.9152  0.1153 -0.1150
 8543SOL    HW227637   1.859   5.382   3.592 -0.1421 -1.7906 -1.3024
 8544SOL     OW27638   3.132   9.661   4.873 -0.3129  0.1516 -0.3125
 8544SOL    HW127639   3.160   9.710   4.796 -0.9735 -1.2633 -1.4979
 8544SOL    HW227640   3.185   9.697   4.944  1.2711  0.5950 -1.6477
 8545SOL     OW27641   0.233   6.126   8.748  0.2300 -0.4527 -0.0637
 8545SOL    HW127642   0.290   6.075   8.692  1.5373  0.2716  0.5576
 8545SOL    HW227643   0.277   6.128   8.833 -0.0308  1.2268  0.0767
 8546SOL     OW27644   7.917   5.226   7.481 -0.3097 -0.2644  0.1060
 8546SOL    HW127645   7.974   5.172   7.426 -0.0928 -0.5891  0.6408
 8546SOL    HW227646   7.922   5.185   7.567  1.4065  1.7108  1.0352
 8547SOL     OW27647   8.999   3.201   4.292 -0.5255 -0.0877  0.3062
 8547SOL    HW127648   9.028   3.163   4.375 -0.8575 -0.5357  0.2205
 8547SOL    HW227649   9.079   3.237   4.253 -0.6036  1.5379  1.5289
 8548SOL     OW27650   6.702   6.743   4.798 -0.1894  0.0171 -0.2057
 8548SOL    HW127651   6.708   6.794   4.879  0.1203 -0.9469  0.4030
 8548SOL    HW227652   6.608   6.723   4.790 -0.4260  1.3218 -0.8755
 8549SOL     OW27653  10.446   7.259  10.608 -0.4433 -0.0806  0.6362
 8549SOL    HW127654  10.383   7.289  10.543  1.1696  2.3967  0.0421
 8549SOL    HW227655  10.488   7.183  10.569 -0.5591  0.4651 -0.5921
 8550SOL     OW27656   5.353   4.798   2.060 -0.8646 -0.9922 -0.9646
 8550SOL    HW127657   5.417   4.839   2.002  0.3628 -1.4592  0.0278
 8550SOL    HW227658   5.282   4.772   2.002 -0.4699  0.1130 -1.9969
 8551SOL     OW27659   8.495   6.955   1.976 -0.0875  0.3549 -0.0782
 8551SOL    HW127660   8.532   6.926   2.059 -0.3242  0.4504  0.0622
 8551SOL    HW227661   8.571   6.971   1.920  0.1432  1.5886  0.5474
 8552SOL     OW27662   2.026   7.116   6.474  0.2925 -0.1682 -0.4844
 8552SOL    HW127663   2.017   7.205   6.440 -2.1629 -0.7909 -1.6988
 8552SOL    HW227664   2.110   7.116   6.521  1.1433  2.2951 -1.8449
 8553SOL     OW27665   4.284   4.987   9.567  0.0584 -0.2196 -0.0106
 8553SOL    HW127666   4.319   4.946   9.646  0.3354  0.2333  0.0999
 8553SOL    HW227667   4.224   5.054   9.599  0.6758  0.4136 -0.1787
 8554SOL     OW27668   3.729   7.699   2.221  0.4633 -0.3357  0.1653
 8554SOL    HW127669   3.764   7.767   2.279  0.3255 -1.0076  1.0612
 8554SOL    HW227670   3.779   7.709   2.140  0.3229  0.9449  0.2083
 8555SOL     OW27671   7.003   0.143   1.825 -0.3426  0.3170  0.2910
 8555SOL    HW127672   7.088   0.121   1.786 -1.4085 -1.8149 -1.0165
 8555SOL    HW227673   6.962   0.202   1.762  0.0136  1.1057  0.7795
 8556SOL     OW27674   4.401   3.230  10.313 -0.1288  0.5091 -0.3167
 8556SOL    HW127675   4.373   3.220  10.222 -1.0025 -0.1778  0.0138
 8556SOL    HW227676   4.496   3.219  10.310 -0.1231  0.6821 -1.1652
 8557SOL     OW27677   2.000   5.018  10.095 -0.1808 -0.4943 -0.6287
 8557SOL    HW127678   2.005   4.924  10.111 -0.7087 -0.1495  2.1277
 8557SOL    HW227679   2.089   5.050  10.111 -0.6689 -0.1746  1.8689
 8558SOL     OW27680   9.792   5.190   1.155 -0.7421  0.1992 -0.5622
 8558SOL    HW127681   9.734   5.213   1.083  0.1033  0.8901 -1.0392
 8558SOL    HW227682   9.823   5.102   1.135 -1.0305  0.1288 -0.6944
 8559SOL     OW27683  10.704   8.109   3.201  0.5706 -0.0636  0.3524
 8559SOL    HW127684  10.629   8.097   3.260  0.3020  1.8847  0.4895
 8559SOL    HW227685  10.731   8.200   3.216  0.8453  0.3220 -2.1496
 8560SOL     OW27686   4.976  10.323   8.614 -0.6665  0.3473  0.0227
 8560SOL    HW127687   4.916  10.309   8.687 -0.0691 -0.4599  0.3717
 8560SOL    HW227688   4.995  10.236   8.581 -1.5823  0.7402 -1.6542
 8561SOL     OW27689   1.675  10.425   9.368 -0.7694 -0.3779  0.0017
 8561SOL    HW127690   1.748  10.377   9.330 -0.6069  0.4158 -0.7221
 8561SOL    HW227691   1.618  10.445   9.295 -1.2784 -0.2445  0.4290
 8562SOL     OW27692   4.422   6.157   9.541  0.0829 -0.0610 -0.5034
 8562SOL    HW127693   4.332   6.146   9.510  0.1991 -0.1688 -0.8065
 8562SOL    HW227694   4.468   6.196   9.466  0.5175 -0.9127 -0.6901
 8563SOL     OW27695  11.246   6.938   7.440 -0.5109 -0.0427 -0.2423
 8563SOL    HW127696  11.311   6.874   7.411  2.5186  2.2195  1.0713
 8563SOL    HW227697  11.214   6.978   7.359  1.5078  0.3585 -0.8976
 8564SOL     OW27698   0.735   7.895   9.983  0.5022 -1.4217 -0.1443
 8564SOL    HW127699   0.644   7.891  10.010  0.8290  1.7013  1.8986
 8564SOL    HW227700   0.734   7.878   9.889 -2.1006 -1.8027 -0.0992
 8565SOL     OW27701   8.887   7.291   1.458 -0.0520 -0.0762 -0.1184
 8565SOL    HW127702   8.795   7.265   1.451 -0.7421  2.5316 -2.4031
 8565SOL    HW227703   8.918   7.295   1.368  1.2270  2.4326  0.3404
 8566SOL     OW27704   0.438   0.260   7.929  0.3354  0.0990 -1.2390
 8566SOL    HW127705   0.421   0.217   7.846  1.8596  1.8431 -2.5366
 8566SOL    HW227706   0.387   0.342   7.924  1.1856  0.6614 -0.8912
 8567SOL     OW27707   4.018  10.826   2.848  0.5678 -0.0036  0.0071
 8567SOL    HW127708   4.110  10.847   2.863  0.2168  0.1378  2.2187
 8567SOL    HW227709   4.016  10.730   2.845  1.1115 -0.0416 -2.8938
 8568SOL     OW27710   5.975  10.411   9.279  0.5542 -0.3382  0.1310
 8568SOL    HW127711   6.002  10.487   9.330  1.0665 -1.0837  0.9888
 8568SOL    HW227712   5.949  10.346   9.345 -2.2113 -0.1077 -0.5814
 8569SOL     OW27713   1.700   6.345   1.911 -0.1189 -0.1897  0.0696
 8569SOL    HW127714   1.636   6.395   1.963 -0.0785 -0.2447  0.1710
 8569SOL    HW227715   1.785   6.377   1.940 -0.0521 -1.0507  0.8874
 8570SOL     OW27716   7.643   0.761   1.192 -0.5903 -0.0799 -0.3534
 8570SOL    HW127717   7.682   0.704   1.257  1.5296 -0.4450 -1.8638
 8570SOL    HW227718   7.686   0.846   1.206 -0.5415 -0.0126 -0.8966
 8571SOL     OW27719   1.285   0.277  11.274  0.5637  0.4762  0.1414
 8571SOL    HW127720   1.255   0.340  11.340  1.9083 -0.2194  1.4741
 8571SOL    HW227721   1.319   0.204  11.325  1.4784 -0.1702 -1.3504
 8572SOL     OW27722   6.301   2.801   3.830 -0.2678 -0.0279  0.1652
 8572SOL    HW127723   6.372   2.766   3.885 -1.4845 -1.7259  0.7481
 8572SOL    HW227724   6.340   2.812   3.744  0.4126 -2.2520  0.1222
 8573SOL     OW27725   2.764   5.956   8.888  0.7018 -0.4141 -0.0811
 8573SOL    HW127726   2.822   5.977   8.815 -0.6352 -2.8053 -1.9834
 8573SOL    HW227727   2.762   5.860   8.890  1.8552 -0.5792  4.1456
 8574SOL     OW27728   1.559   5.849   4.517 -0.7089 -0.3311 -0.6558
 8574SOL    HW127729   1.575   5.914   4.448  1.4569 -0.4051 -0.3151
 8574SOL    HW227730   1.481   5.880   4.563 -0.2736  1.5237 -1.1031
 8575SOL     OW27731   4.879   1.778   3.777 -0.4419 -0.2846  0.4075
 8575SOL    HW127732   4.897   1.871   3.760 -0.4146 -0.5415 -1.1296
 8575SOL    HW227733   4.960   1.734   3.751 -0.3050 -0.7226  1.5287
 8576SOL     OW27734   5.645   0.285   2.786 -0.5106  0.1831  0.0042
 8576SOL    HW127735   5.676   0.320   2.870  1.4411  1.0916 -1.0131
 8576SOL    HW227736   5.555   0.260   2.802  0.4426 -1.8727  3.0010
 8577SOL     OW27737   1.579   0.112   4.476  0.5108 -0.0002  0.3296
 8577SOL    HW127738   1.578   0.160   4.559 -1.7994  1.4325 -0.4288
 8577SOL    HW227739   1.598   0.178   4.410  0.5116 -0.7658 -0.4542
 8578SOL     OW27740   2.819   1.411   7.162  0.0746  0.2216  0.0186
 8578SOL    HW127741   2.729   1.441   7.175  0.8188  1.6576  2.4444
 8578SOL    HW227742   2.852   1.462   7.088 -1.3118 -0.9850 -1.5082
 8579SOL     OW27743   0.859   4.926   3.997 -0.0617 -0.0497  0.2379
 8579SOL    HW127744   0.904   5.007   3.972 -1.9650  1.8101  2.3324
 8579SOL    HW227745   0.791   4.915   3.930  2.0116 -1.6953 -1.7376
 8580SOL     OW27746   5.651   8.866   8.371 -0.1834 -0.4603 -1.0271
 8580SOL    HW127747   5.575   8.925   8.363  0.5895  0.6669 -0.3769
 8580SOL    HW227748   5.694   8.894   8.451 -0.4223 -2.7297 -0.0457
 8581SOL     OW27749   8.388  11.094   9.567 -0.6504 -0.2275 -0.0278
 8581SOL    HW127750   8.320  11.069   9.630 -0.7528 -0.9522 -0.4187
 8581SOL    HW227751   8.459  11.129   9.621 -1.4250  0.7907  0.3706
 8582SOL     OW27752   1.720   9.054   2.239 -0.0298  0.4886 -0.1412
 8582SOL    HW127753   1.702   9.043   2.332  1.3235  0.4766  0.1449
 8582SOL    HW227754   1.734   8.965   2.206  1.5108  0.5985  0.1174
 8583SOL     OW27755  11.127  10.953   0.852 -1.0260  0.4751 -0.1288
 8583SOL    HW127756  11.213  10.959   0.893 -1.4056 -0.7842  0.9203
 8583SOL    HW227757  11.097  11.044   0.846  0.0252  0.8591  0.2527
 8584SOL     OW27758   3.382   0.667   5.925 -0.3555  0.6719 -0.1384
 8584SOL    HW127759   3.414   0.580   5.950  1.0311  1.4035  0.7265
 8584SOL    HW227760   3.307   0.682   5.981  1.2720  1.2839  2.0274
 8585SOL     OW27761  10.498   1.199   1.030  0.7348  0.8675 -0.5132
 8585SOL    HW127762  10.484   1.122   0.974 -1.2446 -3.3204  4.8586
 8585SOL    HW227763  10.593   1.207   1.037  1.1055 -2.6142  0.2497
 8586SOL     OW27764   3.174   5.330   4.764 -0.6062  0.3447 -0.0302
 8586SOL    HW127765   3.097   5.367   4.720 -0.1036 -0.1201 -1.3678
 8586SOL    HW227766   3.243   5.334   4.698  0.1062 -0.6727  0.6189
 8587SOL     OW27767  10.839   8.644   2.763 -0.1818  0.3866 -0.7311
 8587SOL    HW127768  10.790   8.681   2.689  1.7026  0.0781 -2.2335
 8587SOL    HW227769  10.931   8.649   2.735  0.3726 -3.3555 -0.1421
 8588SOL     OW27770  10.213   5.769   5.786 -0.3568 -0.2960 -0.4852
 8588SOL    HW127771  10.158   5.824   5.730 -1.4684  0.6073  1.4078
 8588SOL    HW227772  10.152   5.721   5.842  0.7197  0.1882  1.1949
 8589SOL     OW27773   3.322   1.095   1.161 -0.3941 -0.0647  0.4679
 8589SOL    HW127774   3.322   0.999   1.156  0.0417 -0.1451  1.5483
 8589SOL    HW227775   3.371   1.114   1.241 -0.8795  1.0524  0.5166
 8590SOL     OW27776   8.617   0.120   9.855 -0.1556 -0.2659  0.5619
 8590SOL    HW127777   8.613   0.044   9.797  0.3924 -1.5330  2.1041
 8590SOL    HW227778   8.686   0.174   9.819 -2.8147  1.4015 -2.6277
 8591SOL     OW27779   1.368   2.789   7.158  0.2375  0.1326  0.5243
 8591SOL    HW127780   1.430   2.717   7.148 -0.0547 -0.1239  0.5736
 8591SOL    HW227781   1.288   2.748   7.191  0.5981  0.7000  2.2228
 8592SOL     OW27782   7.053  10.862  10.076 -0.7526 -0.6288 -0.3521
 8592SOL    HW127783   7.130  10.814  10.109 -1.9145 -1.7885  0.7955
 8592SOL    HW227784   7.021  10.910  10.153 -1.1299 -0.0801 -0.8483
 8593SOL     OW27785   8.981   5.147   9.151  0.4974 -0.5454  0.2666
 8593SOL    HW127786   8.948   5.163   9.063 -1.9467  0.7176  1.2986
 8593SOL    HW227787   8.911   5.097   9.194  0.2419  1.3961  2.2988
 8594SOL     OW27788   9.827   8.132   5.622  0.0143 -0.5207  0.3836
 8594SOL    HW127789   9.734   8.112   5.608  0.1025  0.4025 -2.1432
 8594SOL    HW227790   9.871   8.091   5.547  1.5131 -0.0215  0.9541
 8595SOL     OW27791   6.038   3.625   1.359  0.3769 -0.5333 -0.6269
 8595SOL    HW127792   5.954   3.581   1.375 -0.2332  0.3624 -1.2514
 8595SOL    HW227793   6.078   3.576   1.287 -0.7137  0.4065 -1.9374
 8596SOL     OW27794   7.296   1.329   0.870 -0.1691 -0.1341 -0.4536
 8596SOL    HW127795   7.348   1.326   0.951  0.5039  1.9951 -0.7690
 8596SOL    HW227796   7.356   1.297   0.802  0.4801  1.4842 -0.6713
 8597SOL     OW27797   8.721   7.774   9.824  0.2544  0.0379 -0.2478
 8597SOL    HW127798   8.661   7.719   9.775 -0.9640  0.9040  0.2132
 8597SOL    HW227799   8.725   7.735   9.911  1.1706 -0.5956 -0.5639
 8598SOL     OW27800   5.594   4.697  11.084 -0.0912  0.2445 -0.7885
 8598SOL    HW127801   5.582   4.712  10.991  0.9444 -0.5193 -1.0610
 8598SOL    HW227802   5.675   4.647  11.091  0.0110  0.5430  0.5472
 8599SOL     OW27803   2.817   7.451   4.339  0.0533 -0.0104  0.4529
 8599SOL    HW127804   2.910   7.441   4.361  0.0863  0.1467  0.3878
 8599SOL    HW227805   2.813   7.434   4.245 -0.4291 -3.0243  0.9051
 8600SOL     OW27806   6.098   9.478   4.142 -0.0015 -0.1847  0.3490
 8600SOL    HW127807   6.029   9.464   4.077  0.5560 -1.3190 -0.0207
 8600SOL    HW227808   6.178   9.490   4.090  0.0374  1.6101  0.7477
 8601SOL     OW27809   1.741   8.482   5.073  1.0558  0.3839  0.1807
 8601SOL    HW127810   1.708   8.405   5.118 -0.2628  1.4020  1.0427
 8601SOL    HW227811   1.730   8.553   5.136 -2.1723  2.1369 -2.0671
 8602SOL     OW27812   8.561   9.965  10.862  0.0341 -0.0709 -0.1124
 8602SOL    HW127813   8.579   9.983  10.955  1.8973  2.0729 -0.7995
 8602SOL    HW227814   8.480   9.914  10.863 -0.0360 -0.0679  2.6841
 8603SOL     OW27815  10.799   7.758   4.743 -0.2126  0.3017  0.5901
 8603SOL    HW127816  10.833   7.846   4.728  0.5977  0.0778  1.0604
 8603SOL    HW227817  10.737   7.768   4.815 -2.3497  0.9745 -1.2353
 8604SOL     OW27818   8.897   7.586   8.030  0.1896  0.4648  0.1318
 8604SOL    HW127819   8.921   7.494   8.021  1.7111  0.6409  1.9000
 8604SOL    HW227820   8.802   7.586   8.029  0.1225 -0.8235 -2.3247
 8605SOL     OW27821   9.051   2.661   7.351  0.1247 -0.5378  0.3901
 8605SOL    HW127822   9.138   2.698   7.366  1.4695 -2.7926 -1.3194
 8605SOL    HW227823   9.045   2.588   7.413 -0.5667 -0.3876  0.5052
 8606SOL     OW27824   1.667   9.316   5.119 -0.5302  0.0376  0.5035
 8606SOL    HW127825   1.610   9.385   5.083 -0.5784 -0.1009  0.3095
 8606SOL    HW227826   1.646   9.239   5.067 -0.6905 -0.2004  0.9141
 8607SOL     OW27827  10.768   8.370   5.152  0.3793  0.3304  0.4026
 8607SOL    HW127828  10.833   8.436   5.176 -2.5313  2.8742  1.9246
 8607SOL    HW227829  10.748   8.325   5.235  0.1667 -0.4038 -0.0381
 8608SOL     OW27830  10.730   6.700   8.645  0.2743 -0.5521 -0.3868
 8608SOL    HW127831  10.680   6.775   8.613  1.2745  0.1105 -0.4252
 8608SOL    HW227832  10.719   6.634   8.576  2.5126  0.8954 -2.3074
 8609SOL     OW27833   4.399   0.105   7.190  0.1059 -0.3733  0.6665
 8609SOL    HW127834   4.340   0.058   7.131  0.7626  0.5668 -0.7911
 8609SOL    HW227835   4.389   0.061   7.274 -0.4094 -2.1591 -0.2822
 8610SOL     OW27836   0.413   8.432   3.307  0.1791 -0.3287  0.2299
 8610SOL    HW127837   0.490   8.434   3.251  0.2491 -2.8405  0.1094
 8610SOL    HW227838   0.340   8.452   3.249  0.5650  0.4755  0.0072
 8611SOL     OW27839   8.229   5.008   8.973 -0.2823 -0.1764 -0.6779
 8611SOL    HW127840   8.174   4.978   8.900  0.7933 -0.9694 -1.1859
 8611SOL    HW227841   8.232   4.932   9.032 -0.5860  0.2300 -0.1330
 8612SOL     OW27842   5.148   0.164   4.019  0.6965  0.3858  0.0862
 8612SOL    HW127843   5.198   0.100   4.070  0.7543  0.3811  0.0238
 8612SOL    HW227844   5.093   0.110   3.961 -0.9219  0.3262  1.5800
 8613SOL     OW27845   8.126   3.543   6.457  0.4421  0.1964  0.1567
 8613SOL    HW127846   8.217   3.522   6.435  0.4192 -1.8032  1.7649
 8613SOL    HW227847   8.076   3.465   6.432 -0.7660  1.0251 -0.1158
 8614SOL     OW27848   8.286   7.479   7.984 -0.1572  0.6450 -0.0451
 8614SOL    HW127849   8.304   7.547   7.919 -0.2421 -0.8546 -1.7407
 8614SOL    HW227850   8.193   7.490   8.005 -1.1588 -0.9982 -2.9992
 8615SOL     OW27851   6.209   1.544   3.426 -0.0599 -0.3390 -0.6785
 8615SOL    HW127852   6.255   1.623   3.397 -1.2274  0.4450 -0.4336
 8615SOL    HW227853   6.157   1.518   3.350 -1.0256  0.1471 -0.1893
 8616SOL     OW27854   2.403   4.454   0.391 -0.7308 -0.1888  0.1878
 8616SOL    HW127855   2.494   4.473   0.367 -0.4209 -0.9821  0.7127
 8616SOL    HW227856   2.388   4.503   0.472 -1.1246  0.8069 -0.4622
 8617SOL     OW27857   7.470   5.493   9.041 -0.3921  0.5077  0.0175
 8617SOL    HW127858   7.441   5.567   8.988  0.5613  1.0870  0.2913
 8617SOL    HW227859   7.390   5.441   9.055 -1.1324  1.6521  0.1207
 8618SOL     OW27860   3.981   7.245  10.147  0.2940 -0.5529  0.0569
 8618SOL    HW127861   4.029   7.245  10.230  0.2924  0.6446  0.0709
 8618SOL    HW227862   4.049   7.251  10.080  0.1967  1.0517  0.0738
 8619SOL     OW27863   7.270   1.882   9.569  0.3259 -0.7789 -0.2125
 8619SOL    HW127864   7.189   1.860   9.615  0.3050 -0.0229  0.1148
 8619SOL    HW227865   7.283   1.975   9.586 -1.1266  0.2862 -3.9739
 8620SOL     OW27866   2.765   9.209   2.006 -0.4203 -0.4633  0.9575
 8620SOL    HW127867   2.708   9.238   2.076  1.0138  0.8997  1.6283
 8620SOL    HW227868   2.736   9.258   1.929 -1.5875 -1.4895  0.7173
 8621SOL     OW27869   4.689   4.241   9.923  0.7299 -0.6702 -0.1864
 8621SOL    HW127870   4.703   4.269  10.013 -2.1444  1.2288 -0.2243
 8621SOL    HW227871   4.695   4.321   9.871  0.0915 -1.3662 -1.3930
 8622SOL     OW27872   3.102   8.427   6.983 -0.5636  0.3755  0.5045
 8622SOL    HW127873   3.107   8.405   6.890 -2.2041  1.1824  0.1817
 8622SOL    HW227874   3.012   8.459   6.995 -0.3526  0.3765  2.3484
 8623SOL     OW27875   8.588   5.926   0.172 -0.6110  0.5091  0.2192
 8623SOL    HW127876   8.675   5.925   0.213 -1.4451  1.6701  2.1735
 8623SOL    HW227877   8.606   5.937   0.079  1.3481  0.1270  0.5013
 8624SOL     OW27878   4.996   3.293   2.541 -0.4194 -0.2340 -0.6888
 8624SOL    HW127879   5.058   3.234   2.584 -0.9858 -0.2356  0.1428
 8624SOL    HW227880   5.001   3.374   2.592  0.1105  0.3389 -1.6217
 8625SOL     OW27881   1.611  10.063   9.159  0.3939 -0.5578 -0.6119
 8625SOL    HW127882   1.638  10.018   9.239  0.0607 -0.3863 -0.4004
 8625SOL    HW227883   1.554  10.134   9.189 -1.5691 -1.8248 -1.1026
 8626SOL     OW27884   9.927   8.683   3.701  0.5783 -0.8737 -0.0370
 8626SOL    HW127885   9.998   8.624   3.727  1.6006  0.5589  0.5353
 8626SOL    HW227886   9.922   8.748   3.771  1.1888  1.1616 -1.7540
 8627SOL     OW27887   4.737   2.552   9.472  0.5001 -0.0026  0.0561
 8627SOL    HW127888   4.644   2.533   9.477  0.3221  0.3357 -1.4701
 8627SOL    HW227889   4.756   2.601   9.552 -0.9711  1.2865 -0.3362
 8628SOL     OW27890  10.623   2.089   1.053  0.3376 -0.5053 -0.2055
 8628SOL    HW127891  10.621   2.043   1.137  0.8142  2.0059  1.2997
 8628SOL    HW227892  10.624   2.019   0.987  1.8056 -2.6242  1.8873
 8629SOL     OW27893   6.469   5.096   8.142 -0.2986 -0.0207 -0.0430
 8629SOL    HW127894   6.471   5.184   8.105 -1.6260 -0.1121 -0.3798
 8629SOL    HW227895   6.443   5.109   8.233  3.0844  0.2156  1.0073
 8630SOL     OW27896   6.303   6.609  10.168  0.5746  0.0789 -0.7828
 8630SOL    HW127897   6.240   6.595  10.239 -1.6800 -0.4502 -2.7281
 8630SOL    HW227898   6.302   6.704  10.154  0.8376  0.1592 -0.2871
 8631SOL     OW27899   7.599   7.098   8.958  0.3070 -0.2168 -0.6864
 8631SOL    HW127900   7.587   7.091   9.052  0.9677  2.3870 -0.3127
 8631SOL    HW227901   7.675   7.044   8.938 -0.7875 -2.0609 -0.0375
 8632SOL     OW27902   6.499   8.723   2.234  0.5574  0.2654  0.1849
 8632SOL    HW127903   6.585   8.730   2.276  0.1623  1.2520  0.8565
 8632SOL    HW227904   6.485   8.629   2.225  2.1070  0.0871 -0.7856
 8633SOL     OW27905   0.264   9.509   9.641 -0.0842 -0.2417 -0.0759
 8633SOL    HW127906   0.184   9.469   9.675  0.1462  0.5410  1.5150
 8633SOL    HW227907   0.253   9.508   9.546 -0.7084 -2.7038 -0.0391
 8634SOL     OW27908   9.394   4.449   5.178  0.6297  0.3975 -0.1726
 8634SOL    HW127909   9.429   4.418   5.095  2.7380  0.0009  0.8165
 8634SOL    HW227910   9.322   4.388   5.197 -0.5701  1.1167 -2.1558
 8635SOL     OW27911   4.868   0.169   0.404  0.1073  0.1580  0.9677
 8635SOL    HW127912   4.947   0.210   0.370 -0.7534  2.4976  1.5670
 8635SOL    HW227913   4.868   0.192   0.497 -0.9027 -0.4597  1.1329
 8636SOL     OW27914   1.043   2.878   6.570 -0.4943 -0.7491 -0.2355
 8636SOL    HW127915   1.004   2.899   6.486 -1.4930 -0.7183  0.2159
 8636SOL    HW227916   1.037   2.782   6.576 -1.9774 -0.6500  0.4865
 8637SOL     OW27917   0.789   5.952   9.750 -0.2615 -0.2529  0.2112
 8637SOL    HW127918   0.696   5.963   9.731 -1.3301 -1.3931  3.8738
 8637SOL    HW227919   0.825   6.041   9.745 -2.3637  0.7930  1.9007
 8638SOL     OW27920   6.742   1.376   6.326 -0.5658  0.2117  0.2865
 8638SOL    HW127921   6.741   1.357   6.419  0.1681  1.8957  0.6754
 8638SOL    HW227922   6.781   1.298   6.286  0.9928  0.2590  1.6155
 8639SOL     OW27923   1.980   7.308   9.724 -0.6148  0.0261 -0.7941
 8639SOL    HW127924   2.007   7.349   9.806 -0.8096 -0.5008 -0.4618
 8639SOL    HW227925   1.947   7.222   9.750 -1.6381  0.2537 -1.3155
 8640SOL     OW27926   0.497   0.521   8.844 -0.6130 -0.1931 -0.0977
 8640SOL    HW127927   0.448   0.444   8.817  1.8454 -2.1653  0.6609
 8640SOL    HW227928   0.525   0.562   8.762  0.6073 -1.9324 -0.6196
 8641SOL     OW27929   8.371   2.343   5.361  0.4879  0.1674 -0.3497
 8641SOL    HW127930   8.464   2.321   5.367  0.9227  1.7783 -0.4593
 8641SOL    HW227931   8.336   2.322   5.447  0.7456 -1.2374 -0.5617
 8642SOL     OW27932   5.844   8.111  10.781  0.1554 -0.7485 -0.5727
 8642SOL    HW127933   5.822   8.026  10.819 -2.6708 -0.2424 -0.8027
 8642SOL    HW227934   5.793   8.115  10.700  2.1630  0.2088 -1.8609
 8643SOL     OW27935   2.827   5.230   9.840  0.0999 -0.5677  0.3574
 8643SOL    HW127936   2.802   5.148   9.797  0.7990 -0.0621 -1.0462
 8643SOL    HW227937   2.791   5.298   9.784  0.8063  0.1109  0.7247
 8644SOL     OW27938   3.500   6.026   1.265 -0.3993  0.8108  0.5775
 8644SOL    HW127939   3.472   6.045   1.176 -0.0451  1.3899  0.5878
 8644SOL    HW227940   3.432   5.969   1.300  1.1336 -2.3725 -1.2122
 8645SOL     OW27941   0.140   9.967   1.543 -0.2819 -0.2359  0.2646
 8645SOL    HW127942   0.220   9.970   1.491 -0.7013  2.8970 -0.4568
 8645SOL    HW227943   0.070   9.990   1.481 -1.2479  0.3654  1.5146
 8646SOL     OW27944   4.476   1.823   9.032  0.3608  0.5491 -0.3299
 8646SOL    HW127945   4.536   1.822   9.106  2.0458  0.0531 -1.6501
 8646SOL    HW227946   4.393   1.855   9.069  1.3718  1.1236  1.5709
 8647SOL     OW27947   4.092  10.646   4.792  0.1237  0.0827 -0.6193
 8647SOL    HW127948   4.004  10.647   4.753  0.0127  1.3507 -0.3740
 8647SOL    HW227949   4.083  10.591   4.870 -0.1962 -0.6197 -1.1385
 8648SOL     OW27950   8.826   3.844   9.598 -0.4800  0.0945  0.3164
 8648SOL    HW127951   8.799   3.922   9.647  2.3610  1.8526 -0.7050
 8648SOL    HW227952   8.871   3.790   9.662  0.7806  1.0881  0.3165
 8649SOL     OW27953   2.896   8.070   6.590 -0.5446  0.0783 -0.6805
 8649SOL    HW127954   2.834   7.999   6.607 -1.0839  0.6177 -0.3495
 8649SOL    HW227955   2.856   8.120   6.519  0.8425 -1.1391 -2.4115
 8650SOL     OW27956   7.364   8.785   2.107  0.2544  0.0603  0.2913
 8650SOL    HW127957   7.422   8.709   2.120  0.1140 -0.3278 -1.2009
 8650SOL    HW227958   7.423   8.855   2.080  0.3833  0.5050  1.6709
 8651SOL     OW27959   7.225   7.121   0.874 -0.0991  0.4336 -0.2861
 8651SOL    HW127960   7.149   7.162   0.834 -1.0725  0.3207  1.3620
 8651SOL    HW227961   7.225   7.154   0.965 -1.1017 -3.3364  1.2555
 8652SOL     OW27962   8.363   1.910   7.337 -0.5180 -0.0756 -0.1138
 8652SOL    HW127963   8.347   1.893   7.429 -0.1613  1.8091  0.3466
 8652SOL    HW227964   8.458   1.908   7.327 -0.4862  0.8814 -0.1567
 8653SOL     OW27965  10.487   9.807   0.231  0.7245 -0.1838 -0.3183
 8653SOL    HW127966  10.569   9.818   0.279  0.6359  1.8101 -0.5321
 8653SOL    HW227967  10.512   9.813   0.139  0.5439 -1.3538 -0.4595
 8654SOL     OW27968   1.648   5.710   5.994 -1.1055  0.0371 -0.2629
 8654SOL    HW127969   1.640   5.765   5.916 -4.2966 -0.4987 -0.4415
 8654SOL    HW227970   1.649   5.621   5.961  0.5413 -0.1629  0.2249
 8655SOL     OW27971  10.078  10.802   6.407  0.0595  0.4678  0.3751
 8655SOL    HW127972  10.045  10.865   6.471  0.6988  1.7665 -0.5310
 8655SOL    HW227973  10.009  10.796   6.340  0.3310  0.8069  0.0626
 8656SOL     OW27974   7.289   1.422   9.889  0.7691 -0.1745  0.0299
 8656SOL    HW127975   7.270   1.328   9.881 -1.1967  0.3171 -3.2593
 8656SOL    HW227976   7.209   1.459   9.925  1.5571  0.2723  1.3589
 8657SOL     OW27977  10.136   2.938   1.193 -0.3398 -0.1651  0.1516
 8657SOL    HW127978  10.044   2.909   1.198 -0.2416 -0.2684  1.5687
 8657SOL    HW227979  10.148   2.992   1.271  0.6562  0.3133 -0.3274
 8658SOL     OW27980   8.125   0.401   4.966 -0.0876 -0.2390  0.1357
 8658SOL    HW127981   8.137   0.353   4.884 -2.3309  0.3496 -0.5891
 8658SOL    HW227982   8.103   0.490   4.939 -1.5183 -0.1859  1.3339
 8659SOL     OW27983   3.912   5.910   9.301  0.1040 -0.3535  0.5542
 8659SOL    HW127984   3.892   5.835   9.245 -3.8928  0.6165  0.3699
 8659SOL    HW227985   3.962   5.874   9.374  1.6045 -2.4347 -1.3806
 8660SOL     OW27986   4.260   0.185   6.638  0.3672  0.2173 -0.6692
 8660SOL    HW127987   4.274   0.229   6.554 -0.3841 -0.4687 -1.1712
 8660SOL    HW227988   4.165   0.171   6.641  0.1738  1.6148  1.0036
 8661SOL     OW27989  10.831   2.286   8.930  0.1876  0.1168 -0.1832
 8661SOL    HW127990  10.829   2.304   9.024  0.1193  0.6726 -0.2868
 8661SOL    HW227991  10.740   2.288   8.903  0.2286  0.2572 -0.3145
 8662SOL     OW27992   6.867   5.711   9.410 -0.7330 -0.6733 -0.0842
 8662SOL    HW127993   6.898   5.700   9.320 -0.8786  0.0055 -0.2278
 8662SOL    HW227994   6.856   5.806   9.419  2.1664 -0.3613  1.6089
 8663SOL     OW27995  10.891   0.577   9.665 -0.1465  0.0890 -0.1241
 8663SOL    HW127996  10.890   0.485   9.692  0.6945 -0.2183 -1.1044
 8663SOL    HW227997  10.983   0.598   9.651 -0.4336  0.6571 -1.2970
 8664SOL     OW27998   7.182   6.837   2.190  0.0364 -0.0271 -0.0406
 8664SOL    HW127999   7.200   6.775   2.119  1.1539  1.7129 -1.3465
 8664SOL    HW228000   7.093   6.868   2.174 -0.7756 -1.6711  0.9818
 8665SOL     OW28001   7.249   9.407   5.543 -0.1363  0.3732  0.8588
 8665SOL    HW128002   7.241   9.406   5.638 -1.5610  0.4472  0.7574
 8665SOL    HW228003   7.266   9.498   5.521 -0.9299  0.5569  0.9750
 8666SOL     OW28004   3.927   3.816   5.337  0.0290  0.8949 -0.1805
 8666SOL    HW128005   3.852   3.802   5.395 -0.6825  1.2915 -0.9808
 8666SOL    HW228006   3.917   3.906   5.307 -0.8511  0.0628 -2.6004
 8667SOL     OW28007   3.206   6.066   4.469  0.4409  0.5539  0.0639
 8667SOL    HW128008   3.153   6.054   4.548  1.3177  1.6876  0.8525
 8667SOL    HW228009   3.207   6.160   4.454 -1.6596  0.2747 -2.7098
 8668SOL     OW28010   2.422   9.128   6.371  0.0256 -0.0840 -0.3050
 8668SOL    HW128011   2.485   9.061   6.344 -0.5918 -0.8422  0.0959
 8668SOL    HW228012   2.476   9.199   6.407  0.6478 -0.7725  0.1522
 8669SOL     OW28013   9.053   4.794  10.466  0.1205 -0.1510 -0.0218
 8669SOL    HW128014   9.016   4.713  10.430 -1.3476  0.2987  0.4190
 8669SOL    HW228015   9.126   4.764  10.521  0.7602 -1.0226 -1.2838
 8670SOL     OW28016  10.028  10.534   1.588  0.5540 -0.1444 -0.3246
 8670SOL    HW128017  10.007  10.453   1.543  1.8595 -0.4464 -0.4420
 8670SOL    HW228018   9.955  10.592   1.569  1.0184 -0.2816 -2.8021
 8671SOL     OW28019  10.997   9.906   4.936 -0.5127  0.2040  0.5601
 8671SOL    HW128020  11.076   9.853   4.947  0.7448  1.0397 -2.9813
 8671SOL    HW228021  10.994   9.961   5.015  1.8763 -0.5606  1.2623
 8672SOL     OW28022   2.011  10.267   9.837 -0.4577  0.9118  0.3816
 8672SOL    HW128023   2.022  10.267   9.742 -1.9289  1.6144  0.1733
 8672SOL    HW228024   1.948  10.197   9.853  0.2731  0.3691  0.9260
 8673SOL     OW28025   1.632   4.453   0.808 -0.0651 -0.0638  0.1735
 8673SOL    HW128026   1.667   4.540   0.826  1.1551 -0.7465  1.3501
 8673SOL    HW228027   1.652   4.438   0.716 -0.0112  0.7801  0.0376
 8674SOL     OW28028   2.879   5.602   8.457 -0.7483 -0.2279  0.8407
 8674SOL    HW128029   2.805   5.657   8.483 -0.9561 -0.2429  0.2878
 8674SOL    HW228030   2.852   5.513   8.479 -1.2996 -0.3440 -0.2418
 8675SOL     OW28031   3.812   5.716   8.191  0.2460  0.0180 -0.0321
 8675SOL    HW128032   3.828   5.750   8.279  0.1087  2.6633 -0.9389
 8675SOL    HW228033   3.717   5.719   8.181  0.3671  1.5412 -0.9008
 8676SOL     OW28034   3.289   4.230   7.177 -0.6449 -0.6313  0.5288
 8676SOL    HW128035   3.315   4.174   7.250  1.6299 -1.8668 -1.0891
 8676SOL    HW228036   3.322   4.317   7.200  1.1102 -1.2477  0.5234
 8677SOL     OW28037   9.821   3.892   7.739  0.1422  0.3194 -0.2869
 8677SOL    HW128038   9.850   3.904   7.830  1.5825  2.0460 -0.8934
 8677SOL    HW228039   9.739   3.845   7.746  0.6772 -0.4381  1.8623
 8678SOL     OW28040   7.928   9.979   2.412  0.6322 -0.7345 -0.2441
 8678SOL    HW128041   7.959  10.028   2.489  1.7866 -0.8305 -0.6325
 8678SOL    HW228042   8.003   9.925   2.386 -0.5782 -2.7444  0.1636
 8679SOL     OW28043   7.523   5.631   4.957  0.0952  0.1876  0.1626
 8679SOL    HW128044   7.542   5.689   5.031 -0.6258  0.2132  0.3370
 8679SOL    HW228045   7.430   5.645   4.939  0.6134  1.5163 -1.9096
 8680SOL     OW28046   2.805   4.837   5.411 -0.3782 -0.3150  0.1147
 8680SOL    HW128047   2.853   4.808   5.333 -2.1993  0.1713 -1.2422
 8680SOL    HW228048   2.869   4.829   5.482  2.7236  3.0151 -1.9823
 8681SOL     OW28049   3.918   4.419   2.064  0.0433 -0.6112  0.8848
 8681SOL    HW128050   3.846   4.368   2.103  1.7834 -2.3886  1.9956
 8681SOL    HW228051   3.969   4.449   2.139  0.8577 -0.0160  0.1120
 8682SOL     OW28052   2.130   3.289   4.763  0.1223 -0.0643 -0.0120
 8682SOL    HW128053   2.195   3.236   4.810  1.3980  1.3450 -0.1154
 8682SOL    HW228054   2.169   3.376   4.758 -1.3249  0.5652 -1.0425
 8683SOL     OW28055   0.303   0.871   2.465 -0.5168  0.8653 -0.3316
 8683SOL    HW128056   0.388   0.911   2.444  0.7893 -2.2039 -1.5827
 8683SOL    HW228057   0.257   0.868   2.381 -1.3484  1.3624  0.0996
 8684SOL     OW28058  11.110  10.754   2.136 -0.7632  0.1877  0.3813
 8684SOL    HW128059  11.204  10.765   2.129 -0.8117  0.8209  0.6278
 8684SOL    HW228060  11.076  10.772   2.048 -0.6828  0.3111  0.3754
 8685SOL     OW28061  10.689  10.489   0.057 -0.5340  0.2713  0.3562
 8685SOL    HW128062  10.604  10.501   0.014 -0.8242 -1.3772  0.3898
 8685SOL    HW228063  10.753  10.497  -0.014 -0.8128  0.2120  0.0946
 8686SOL     OW28064   0.873   7.767   3.291  0.1590  0.1375 -0.1846
 8686SOL    HW128065   0.825   7.739   3.213 -2.3681 -1.4144  1.7411
 8686SOL    HW228066   0.843   7.856   3.307  0.5728  0.4086 -0.8870
 8687SOL     OW28067   7.410   5.550   6.716  0.1074  0.0134 -0.1799
 8687SOL    HW128068   7.335   5.492   6.703 -0.0841  0.1879  0.1295
 8687SOL    HW228069   7.372   5.636   6.731  0.3690  0.0980  0.0105
 8688SOL     OW28070   3.300   3.970   6.996 -0.0717  0.0828  0.2876
 8688SOL    HW128071   3.344   3.960   6.912  0.6225  1.3836  0.4706
 8688SOL    HW228072   3.336   4.051   7.033 -2.6129  1.2673  0.4369
 8689SOL     OW28073   4.134   6.460   1.005 -0.3204 -0.0987  0.5595
 8689SOL    HW128074   4.085   6.412   0.938  0.5490 -0.3221  0.0636
 8689SOL    HW228075   4.137   6.400   1.079 -0.2992 -0.3179  0.3841
 8690SOL     OW28076   4.311   9.165  11.074 -0.3712  0.2770 -0.4732
 8690SOL    HW128077   4.274   9.140  10.989 -0.0203  1.4728 -0.9992
 8690SOL    HW228078   4.357   9.086  11.104 -1.9209 -0.7125 -0.5737
 8691SOL     OW28079   0.966   6.224   5.395  0.0728  0.3375  0.6918
 8691SOL    HW128080   0.922   6.303   5.425 -2.2829 -0.2602 -0.9350
 8691SOL    HW228081   0.977   6.236   5.301 -0.6745 -1.3778  0.3325
 8692SOL     OW28082   2.626   6.887   4.206 -0.9830  0.8500 -0.4988
 8692SOL    HW128083   2.675   6.965   4.179  0.2143  0.5336  0.6647
 8692SOL    HW228084   2.542   6.921   4.237 -0.3938  1.7112  0.1915
 8693SOL     OW28085  10.970   7.168   8.570  0.3207  0.1214 -0.3346
 8693SOL    HW128086  10.893   7.125   8.607  0.8213 -0.5442 -0.0369
 8693SOL    HW228087  11.034   7.097   8.560  0.6779  0.5504 -1.1643
 8694SOL     OW28088  10.439   0.563   6.010 -0.4075 -0.8992 -0.0493
 8694SOL    HW128089  10.434   0.576   6.105 -0.8264  1.2770 -0.3195
 8694SOL    HW228090  10.527   0.529   5.996  0.2318  0.2015  1.0086
 8695SOL     OW28091   8.638   1.940   3.431  0.1539  0.1774  0.0563
 8695SOL    HW128092   8.593   2.001   3.373 -0.9633 -1.1229 -0.4999
 8695SOL    HW228093   8.572   1.873   3.452  1.2702 -0.7326  0.7986
 8696SOL     OW28094   0.648   7.936   1.658 -0.3000  0.7563 -0.3611
 8696SOL    HW128095   0.654   7.917   1.564  1.0829  0.6098 -0.2627
 8696SOL    HW228096   0.633   7.850   1.698 -0.3708  0.7448 -0.4123
 8697SOL     OW28097   2.141  10.179   3.080  0.5076  0.3383  0.1696
 8697SOL    HW128098   2.160  10.237   3.154  2.2849 -1.9350  1.6278
 8697SOL    HW228099   2.227  10.156   3.045  0.1386 -3.3610  1.3147
 8698SOL     OW28100   1.470   1.936   7.425  0.7297  0.1624  0.0347
 8698SOL    HW128101   1.466   1.940   7.521  0.5431  2.5207 -0.0309
 8698SOL    HW228102   1.548   1.986   7.402 -0.2128  1.1620 -1.0962
 8699SOL     OW28103   1.222  10.314   4.706  0.4785 -0.3453 -0.2293
 8699SOL    HW128104   1.174  10.324   4.625 -0.3059  1.1436  0.3983
 8699SOL    HW228105   1.260  10.226   4.700 -1.0615 -0.9681 -1.3855
 8700SOL     OW28106   2.216   1.595   0.216  0.0654 -0.6269 -0.2710
 8700SOL    HW128107   2.256   1.596   0.303  2.1619 -0.9323 -1.1604
 8700SOL    HW228108   2.251   1.673   0.173  2.7864 -2.8001 -2.3197
 8701SOL     OW28109   0.148   5.198   5.622  0.1367 -0.1938 -0.0536
 8701SOL    HW128110   0.087   5.124   5.626  0.0145 -0.0465  1.1626
 8701SOL    HW228111   0.143   5.228   5.531 -0.9758 -0.7013 -0.1768
 8702SOL     OW28112   2.174   0.191   3.871  0.2973 -0.3668  0.1918
 8702SOL    HW128113   2.204   0.195   3.780  0.9433  2.1384  0.4222
 8702SOL    HW228114   2.161   0.283   3.895 -1.1643 -1.0410  2.2283
 8703SOL     OW28115   9.008   6.040   4.314 -0.4272  0.2983 -0.1538
 8703SOL    HW128116   8.966   6.111   4.363 -0.9444  0.1276 -0.3450
 8703SOL    HW228117   9.091   6.025   4.359 -1.7066 -1.1656  1.8816
 8704SOL     OW28118   8.410   4.150   7.537  0.1809 -0.2729 -0.1104
 8704SOL    HW128119   8.469   4.221   7.564 -0.9118  0.6898 -0.1336
 8704SOL    HW228120   8.407   4.092   7.613 -0.8114  1.0244  0.8986
 8705SOL     OW28121   1.446   9.685   4.454  0.3215  1.0811 -0.1072
 8705SOL    HW128122   1.469   9.624   4.524 -1.9660  0.2246 -0.0302
 8705SOL    HW228123   1.466   9.771   4.490 -1.7963  0.7538  2.1079
 8706SOL     OW28124   4.762   1.854   2.204 -0.1563 -0.4780  0.0182
 8706SOL    HW128125   4.740   1.947   2.190 -1.3418 -0.9280 -1.4538
 8706SOL    HW228126   4.858   1.852   2.201 -0.1207  0.6503 -0.4240
 8707SOL     OW28127   0.113   4.066   6.522 -0.2082 -0.1692  0.8868
 8707SOL    HW128128   0.056   3.990   6.513  0.2738 -0.3310 -1.6545
 8707SOL    HW228129   0.055   4.139   6.540 -1.0994 -0.5557 -0.3202
 8708SOL     OW28130   7.816   4.810   9.654  0.1210 -0.5339 -0.5071
 8708SOL    HW128131   7.766   4.772   9.726  0.5039 -1.3316 -0.6420
 8708SOL    HW228132   7.907   4.789   9.674  0.1339 -2.3479 -2.0443
 8709SOL     OW28133   5.211   2.430   5.828 -0.4826 -0.3661 -1.1973
 8709SOL    HW128134   5.137   2.464   5.877 -0.7634 -0.6255 -1.4358
 8709SOL    HW228135   5.239   2.502   5.772 -0.0021  0.0114 -0.4761
 8710SOL     OW28136   3.901   3.766   4.161 -0.3114 -0.0148 -0.3353
 8710SOL    HW128137   3.936   3.768   4.072 -1.8802  0.3094 -0.9748
 8710SOL    HW228138   3.859   3.851   4.173  1.0043  0.4862  1.2349
 8711SOL     OW28139   0.684   7.732   4.279  0.4883  0.4592 -0.1153
 8711SOL    HW128140   0.652   7.642   4.288 -0.9170  0.9640  0.3291
 8711SOL    HW228141   0.659   7.774   4.362  1.2092  1.2327 -0.2813
 8712SOL     OW28142  10.346   8.773   9.437 -0.2658  0.0144  0.6295
 8712SOL    HW128143  10.424   8.752   9.489 -1.3569 -0.2622  2.2074
 8712SOL    HW228144  10.355   8.867   9.418 -0.7576  0.5852  2.9762
 8713SOL     OW28145  10.436   5.974   6.666  0.3255  0.3305  0.6179
 8713SOL    HW128146  10.374   5.918   6.711  0.8812 -0.3404  0.5572
 8713SOL    HW228147  10.402   5.981   6.577 -1.1236  2.1765  1.2537
 8714SOL     OW28148   2.302   3.669   3.165  0.5561 -0.5000  0.5506
 8714SOL    HW128149   2.343   3.674   3.078 -1.2046 -0.1009 -0.3073
 8714SOL    HW228150   2.211   3.646   3.147  0.2018 -0.6155  2.3251
 8715SOL     OW28151   5.289   1.877   1.819  0.4642  0.0920  0.2194
 8715SOL    HW128152   5.206   1.924   1.820  0.3228 -0.0345 -1.5764
 8715SOL    HW228153   5.353   1.940   1.851  0.0561  1.0622 -0.7997
 8716SOL     OW28154   5.539   3.603   3.407  0.0505  0.1251  0.4242
 8716SOL    HW128155   5.501   3.687   3.433  2.2215  1.2337  0.2696
 8716SOL    HW228156   5.633   3.617   3.411  0.4820 -2.0057 -0.6349
 8717SOL     OW28157   5.758  10.488   5.369 -0.0545  0.8081 -0.4759
 8717SOL    HW128158   5.853  10.491   5.358  0.0130  0.4272 -0.0437
 8717SOL    HW228159   5.725  10.458   5.285  0.1487  1.6561 -0.8696
 8718SOL     OW28160   7.879   9.216   4.474  0.1436 -0.1998  0.1415
 8718SOL    HW128161   7.783   9.223   4.480 -0.3265 -2.0345 -3.2613
 8718SOL    HW228162   7.903   9.159   4.547 -2.1130 -3.8695 -1.7301
 8719SOL     OW28163   8.823   9.327   9.693  0.2491  0.4324  0.3832
 8719SOL    HW128164   8.746   9.382   9.703 -0.1276  0.0838 -0.4768
 8719SOL    HW228165   8.834   9.285   9.778 -1.5351 -0.8123  0.0416
 8720SOL     OW28166  10.043   4.920   3.705 -0.1717  0.1355  0.2685
 8720SOL    HW128167  10.084   4.836   3.687  1.0521  0.8185 -0.2981
 8720SOL    HW228168  10.006   4.911   3.793 -0.1652 -1.0249  0.1587
 8721SOL     OW28169   9.335   9.564   2.628 -0.2347 -0.2785 -0.1370
 8721SOL    HW128170   9.317   9.500   2.560 -1.4453  1.3043 -1.4038
 8721SOL    HW228171   9.373   9.639   2.582 -1.3611  0.9498  0.8225
 8722SOL     OW28172   8.089   6.722   4.425  0.2126  0.8874 -0.0061
 8722SOL    HW128173   8.020   6.678   4.474 -0.4841  2.3953  0.4331
 8722SOL    HW228174   8.051   6.741   4.340  1.0951 -0.8465 -0.8422
 8723SOL     OW28175   9.729  10.306   8.333  0.2854 -0.3856  0.0118
 8723SOL    HW128176   9.821  10.307   8.306  0.0633  1.9205 -0.8911
 8723SOL    HW228177   9.689  10.241   8.276  1.3318 -1.4159  0.4088
 8724SOL     OW28178   4.694   7.692   0.646  0.1326 -0.1182 -0.0919
 8724SOL    HW128179   4.782   7.679   0.681 -0.3947 -0.2978  1.2278
 8724SOL    HW228180   4.705   7.690   0.551  0.8030 -6.1106 -0.2253
 8725SOL     OW28181   4.120   5.384   0.705 -0.5037  0.0233  0.3171
 8725SOL    HW128182   4.092   5.468   0.741 -0.5132 -0.1069  0.6240
 8725SOL    HW228183   4.103   5.390   0.611  1.4466  1.1450 -0.0025
 8726SOL     OW28184   3.052   2.305   7.696 -0.4145 -0.1912  0.3933
 8726SOL    HW128185   3.147   2.309   7.683 -0.4774 -1.0163 -0.4470
 8726SOL    HW228186   3.023   2.235   7.637 -1.4041 -0.7006  1.4540
 8727SOL     OW28187   0.359   1.083   5.988  0.1029  0.2179 -0.5467
 8727SOL    HW128188   0.392   1.148   5.926  1.2185  1.0691  0.8713
 8727SOL    HW228189   0.437   1.050   6.032 -0.6976  0.1214  0.8619
 8728SOL     OW28190   8.695   3.424   3.032  0.2060 -0.0787  0.1610
 8728SOL    HW128191   8.695   3.511   2.992  0.2231  0.1184  0.5945
 8728SOL    HW228192   8.765   3.377   2.985 -1.2216 -0.5710 -1.5986
 8729SOL     OW28193   8.417  10.574   1.104  0.3190 -0.2703 -0.4898
 8729SOL    HW128194   8.447  10.526   1.027  0.8724 -0.4812 -0.1465
 8729SOL    HW228195   8.492  10.574   1.163  0.3719  1.1414 -0.5332
 8730SOL     OW28196   2.770   8.019   3.430 -0.4168 -0.5556 -0.0126
 8730SOL    HW128197   2.764   7.993   3.522  0.4834  0.1068  0.2462
 8730SOL    HW228198   2.734   8.108   3.428  1.1030  0.0934  0.0260
 8731SOL     OW28199   2.969   1.182  10.574 -0.2592 -0.0211 -0.2569
 8731SOL    HW128200   2.902   1.237  10.534 -0.0386  1.7470  1.6249
 8731SOL    HW228201   3.041   1.242  10.595  1.4017 -1.6249 -1.0193
 8732SOL     OW28202   3.212   9.525  10.201  0.0931 -0.2852 -0.2504
 8732SOL    HW128203   3.247   9.444  10.237  0.0560 -0.9571 -1.6612
 8732SOL    HW228204   3.195   9.506  10.109  0.5566  1.4741 -0.7476
 8733SOL     OW28205   6.989   0.038   4.911 -0.4840 -0.0830  0.5507
 8733SOL    HW128206   7.027   0.057   4.825 -0.6447  0.5964  0.6253
 8733SOL    HW228207   6.894   0.046   4.898 -0.5147 -0.0759  0.7730
 8734SOL     OW28208  10.983   6.029   1.257  0.0425  0.1909 -0.0198
 8734SOL    HW128209  11.031   6.083   1.194  0.5593  0.9988  1.0405
 8734SOL    HW228210  10.952   6.090   1.323  0.8271 -0.8256  1.3378
 8735SOL     OW28211   6.174  10.082   7.051 -0.0333  0.4190  0.2118
 8735SOL    HW128212   6.116  10.027   6.998  0.8016  0.0362 -0.3275
 8735SOL    HW228213   6.204  10.151   6.992  0.3674  0.3895  0.3749
 8736SOL     OW28214   4.697   7.485   8.055 -0.6818  0.2395  0.4848
 8736SOL    HW128215   4.777   7.474   8.106 -1.7809  0.5554  2.3921
 8736SOL    HW228216   4.678   7.579   8.060  0.1162  0.6304 -2.1113
 8737SOL     OW28217   3.559   6.911   6.740 -0.0803 -0.3881  0.0910
 8737SOL    HW128218   3.599   6.846   6.798 -2.3329  1.4767  4.1995
 8737SOL    HW228219   3.616   6.987   6.745  0.0383 -0.4135 -0.7336
 8738SOL     OW28220  10.110   1.805   4.791  0.0638 -0.1816 -0.2081
 8738SOL    HW128221  10.143   1.731   4.841  0.5657 -0.1002 -0.4187
 8738SOL    HW228222  10.166   1.878   4.817 -0.5663  0.1837  0.1693
 8739SOL     OW28223   6.675  11.142   8.026 -0.2421 -0.0998  0.1243
 8739SOL    HW128224   6.751  11.200   8.023  0.6471 -1.2632 -2.4304
 8739SOL    HW228225   6.652  11.128   7.934 -1.6005 -2.2736  0.7270
 8740SOL     OW28226  11.190   9.239   2.868 -0.2550  0.2260  0.1412
 8740SOL    HW128227  11.244   9.261   2.944  0.6867  0.8411 -0.6883
 8740SOL    HW228228  11.155   9.152   2.887 -0.1866  0.4508  1.3552
 8741SOL     OW28229   8.323  10.276   0.452 -0.0356 -0.3643 -0.3131
 8741SOL    HW128230   8.237  10.272   0.411  0.5731 -4.1808 -1.6341
 8741SOL    HW228231   8.384  10.269   0.378  1.2062 -2.6346  0.8365
 8742SOL     OW28232   7.018   6.309  11.072  0.1790 -0.4976 -0.0120
 8742SOL    HW128233   7.107   6.274  11.077  0.9076  0.9360 -1.7379
 8742SOL    HW228234   6.978   6.284  11.155  3.0159  1.0086  1.9868
 8743SOL     OW28235   3.973  10.305   4.970  0.4510 -0.6385 -0.1337
 8743SOL    HW128236   3.980  10.220   4.925  0.3445 -0.7434  0.0462
 8743SOL    HW228237   3.882  10.331   4.958  0.9875  0.5092 -2.0765
 8744SOL     OW28238   5.129   5.841   3.410  0.3000 -0.7741 -0.6680
 8744SOL    HW128239   5.164   5.929   3.395 -1.0286 -0.6139 -3.4309
 8744SOL    HW228240   5.182   5.806   3.481  0.9332  2.2094  0.4646
 8745SOL     OW28241   3.204   9.468   6.813 -0.1469 -0.1680 -0.1569
 8745SOL    HW128242   3.254   9.437   6.888 -1.8114 -3.9636 -0.3939
 8745SOL    HW228243   3.200   9.393   6.754 -1.4993  1.7168 -2.6940
 8746SOL     OW28244   2.480   5.466   2.853  0.8566  0.3672 -0.0400
 8746SOL    HW128245   2.496   5.559   2.868  3.0167 -0.1050  1.1820
 8746SOL    HW228246   2.568   5.427   2.851  0.0180 -1.6387 -0.5432
 8747SOL     OW28247   9.746   4.970   5.256  0.1341  0.3865  0.6680
 8747SOL    HW128248   9.735   5.046   5.314 -0.3467  0.4958  0.4421
 8747SOL    HW228249   9.839   4.947   5.263  0.2455  0.8887  0.8699
 8748SOL     OW28250   0.729   4.897   9.564 -0.6444  0.0144 -0.1463
 8748SOL    HW128251   0.790   4.904   9.491  1.3412 -1.5657  1.2407
 8748SOL    HW228252   0.776   4.934   9.639 -1.1576 -1.6381  1.0605
 8749SOL     OW28253   3.819   3.969  10.946 -0.3197  0.2477  0.2976
 8749SOL    HW128254   3.791   3.879  10.964 -2.4609  0.5522 -1.1302
 8749SOL    HW228255   3.750   4.005  10.891  0.9243  2.5126  0.0928
 8750SOL     OW28256   2.815   9.223   3.006  0.9662 -0.0700  0.5190
 8750SOL    HW128257   2.745   9.264   3.056  2.5435  3.0639  0.3932
 8750SOL    HW228258   2.772   9.190   2.927 -0.9151 -1.6504  2.0971
 8751SOL     OW28259   2.654   9.150   8.445 -0.2819  0.5385  0.0940
 8751SOL    HW128260   2.600   9.200   8.505 -0.9099  0.8581 -0.7159
 8751SOL    HW228261   2.734   9.202   8.435 -0.0373  0.3250  0.8872
 8752SOL     OW28262   9.537   6.336   3.922 -0.4604  0.1633 -0.1461
 8752SOL    HW128263   9.454   6.382   3.904 -0.9392 -0.1712  1.0841
 8752SOL    HW228264   9.514   6.273   3.990  0.5412 -0.8247 -0.7130
 8753SOL     OW28265   5.300   4.985   8.084 -0.7473 -0.0964 -0.0208
 8753SOL    HW128266   5.217   5.030   8.100  0.4303  2.6215 -0.8304
 8753SOL    HW228267   5.355   5.009   8.159 -1.0120 -2.9997  1.2265
 8754SOL     OW28268   6.969   6.356   0.673 -0.4714  0.9309  0.1221
 8754SOL    HW128269   6.895   6.305   0.709  0.4606 -0.6765 -0.1272
 8754SOL    HW228270   6.976   6.431   0.731 -1.7711  0.6748  0.6614
 8755SOL     OW28271   0.756   2.647   9.882 -0.5215  0.3905  0.2841
 8755SOL    HW128272   0.820   2.577   9.873 -0.7166  0.3401 -0.9988
 8755SOL    HW228273   0.699   2.619   9.954  1.2949  0.7924  1.9560
 8756SOL     OW28274   1.672  10.869   2.025 -0.6163  0.2355 -0.1492
 8756SOL    HW128275   1.741  10.894   1.963  0.4479  0.0593  0.9366
 8756SOL    HW228276   1.697  10.909   2.108 -1.7064 -0.0232  0.3343
 8757SOL     OW28277  11.165   1.197   9.915 -0.6728 -0.9364  0.7764
 8757SOL    HW128278  11.209   1.140   9.978  1.1413 -0.0908  0.3428
 8757SOL    HW228279  11.126   1.265   9.968  2.0549  0.5845  1.0358
 8758SOL     OW28280   3.624   9.332   6.218 -0.0307  0.0186  0.4096
 8758SOL    HW128281   3.587   9.390   6.151 -0.8865 -0.0663  0.7942
 8758SOL    HW228282   3.593   9.245   6.196 -0.6779  0.0489  1.1502
 8759SOL     OW28283   2.623  11.192   1.960 -0.3100 -0.2676 -0.1203
 8759SOL    HW128284   2.567  11.259   1.921 -1.2856 -0.9998 -0.0057
 8759SOL    HW228285   2.562  11.126   1.994  0.6110 -0.9424  0.2641
 8760SOL     OW28286   2.080   8.442   9.945  0.4913  0.7340 -0.2821
 8760SOL    HW128287   2.034   8.514   9.902 -0.7586 -0.0650 -0.3369
 8760SOL    HW228288   2.065   8.457  10.039 -1.2368 -0.3135 -0.3267
 8761SOL     OW28289   0.014   6.244   2.311 -0.5358  0.5304 -0.4730
 8761SOL    HW128290  -0.078   6.232   2.337 -0.6515  0.3780 -0.9295
 8761SOL    HW228291   0.054   6.158   2.325 -0.3365  0.7326  0.2069
 8762SOL     OW28292   0.181   6.356   8.480 -0.1794 -0.0177 -0.8944
 8762SOL    HW128293   0.120   6.429   8.474  0.5802  0.5842 -1.5336
 8762SOL    HW228294   0.146   6.291   8.419 -0.5611  0.0374 -0.7359
 8763SOL     OW28295   8.984   9.134   1.645 -0.3314 -0.2974 -0.4028
 8763SOL    HW128296   9.053   9.076   1.612 -0.8852 -0.2491 -1.6965
 8763SOL    HW228297   9.030   9.196   1.702  0.7754  0.0128 -1.5845
 8764SOL     OW28298   3.087   4.989   0.222  0.5705 -0.3797 -0.6417
 8764SOL    HW128299   3.098   4.903   0.263  2.1226 -0.6670 -1.5817
 8764SOL    HW228300   3.176   5.022   0.210  0.0788  0.5645 -1.9419
 8765SOL     OW28301   2.664   2.199   9.137  0.0591 -0.5695 -0.0755
 8765SOL    HW128302   2.636   2.108   9.146  1.0263 -0.7372  1.9654
 8765SOL    HW228303   2.591   2.250   9.172  1.5522 -0.9606  4.3536
 8766SOL     OW28304   9.668   7.239   8.387 -0.6994  0.5799  0.8315
 8766SOL    HW128305   9.725   7.310   8.359 -1.2219  1.2438  1.4237
 8766SOL    HW228306   9.582   7.260   8.350 -0.5713 -0.4377 -0.0935
 8767SOL     OW28307  10.501  10.342   8.273  0.2906  0.3601  0.1777
 8767SOL    HW128308  10.468  10.341   8.363  1.5070  0.8651  0.6537
 8767SOL    HW228309  10.442  10.401   8.226 -0.1458  0.3711  0.7298
 8768SOL     OW28310   0.629   7.978   8.409  0.0110  0.0702 -0.0625
 8768SOL    HW128311   0.641   7.908   8.473  0.8243  0.9221  0.7491
 8768SOL    HW228312   0.717   8.012   8.394 -0.2400  0.2724 -1.2080
 8769SOL     OW28313   9.431   3.840   7.890  0.2980 -0.4588 -0.0201
 8769SOL    HW128314   9.369   3.804   7.953 -2.9228 -1.0931 -3.2719
 8769SOL    HW228315   9.387   3.915   7.852  3.0517  1.2695 -0.0743
 8770SOL     OW28316   2.678  10.171   7.466 -0.8966  0.1116 -0.4693
 8770SOL    HW128317   2.584  10.188   7.466 -0.7066  1.3468  0.2137
 8770SOL    HW228318   2.687  10.083   7.431 -2.2276  0.3859 -1.5830
 8771SOL     OW28319   8.104   0.903   5.953  0.1279 -0.5141  0.8404
 8771SOL    HW128320   8.094   0.997   5.968 -0.9485 -0.2686 -1.1060
 8771SOL    HW228321   8.024   0.877   5.907  1.3457 -1.9161 -0.6110
 8772SOL     OW28322   8.383   3.511  11.268 -0.1073 -0.4617  0.1248
 8772SOL    HW128323   8.351   3.599  11.246 -0.3905 -0.1774  1.5799
 8772SOL    HW228324   8.446   3.491  11.198 -0.5471  0.6030 -0.6151
 8773SOL     OW28325  10.634   1.163   3.799 -0.0872 -0.2676 -0.5316
 8773SOL    HW128326  10.635   1.219   3.722 -1.1414  0.9156  0.2692
 8773SOL    HW228327  10.636   1.224   3.873 -3.2076 -1.1308  0.3976
 8774SOL     OW28328   4.574   7.988   2.907  0.2106 -0.1992  0.0839
 8774SOL    HW128329   4.509   7.996   2.978  2.5578 -0.1622  2.3608
 8774SOL    HW228330   4.622   8.071   2.909  0.3898 -0.2211 -1.5737
 8775SOL     OW28331   3.105   5.760   2.558  0.1342 -0.2678 -0.5293
 8775SOL    HW128332   3.068   5.846   2.580  0.3356 -0.1132 -0.7902
 8775SOL    HW228333   3.165   5.778   2.485 -0.8980 -0.8534 -1.5560
 8776SOL     OW28334   6.748   8.850   8.623  0.1663  0.0393  0.6057
 8776SOL    HW128335   6.776   8.784   8.686  0.9576 -1.5455 -1.2834
 8776SOL    HW228336   6.654   8.836   8.613  0.3785 -1.0848 -0.0219
 8777SOL     OW28337   8.536   5.857   2.482  0.1474  0.1898  0.1148
 8777SOL    HW128338   8.590   5.778   2.487  0.5502  0.2844 -1.8319
 8777SOL    HW228339   8.506   5.871   2.571  1.9591 -0.8384  0.9410
 8778SOL     OW28340   1.587   4.769   2.839 -0.3186  0.5812  0.3335
 8778SOL    HW128341   1.494   4.746   2.840 -0.7958  2.2691  1.5351
 8778SOL    HW228342   1.617   4.749   2.927 -0.1864  2.1893  0.6957
 8779SOL     OW28343   7.023   6.825   3.377  0.4082  0.4513 -0.4432
 8779SOL    HW128344   6.963   6.760   3.340 -0.3430 -0.0150  1.4389
 8779SOL    HW228345   7.108   6.781   3.380 -0.0420 -0.4043  0.5644
 8780SOL     OW28346   3.243   3.432   4.334 -0.4057  0.1033 -0.0623
 8780SOL    HW128347   3.233   3.481   4.252  0.0216 -3.1981 -2.2555
 8780SOL    HW228348   3.155   3.433   4.373 -0.4453  2.3525 -0.0821
 8781SOL     OW28349   8.252   7.129   0.364  0.2112 -0.1695  0.3704
 8781SOL    HW128350   8.248   7.140   0.459 -1.2928  1.5947  0.1498
 8781SOL    HW228351   8.315   7.058   0.351  2.0106  0.8976  2.5789
 8782SOL     OW28352   0.003   8.395   4.970 -0.4263  0.3529  0.1950
 8782SOL    HW128353   0.041   8.362   4.889 -2.2840 -2.0095  0.1775
 8782SOL    HW228354  -0.051   8.469   4.943  2.1129  2.2677 -0.0667
 8783SOL     OW28355   4.174   1.372  10.042 -0.2529  0.2734 -0.5163
 8783SOL    HW128356   4.100   1.422  10.007 -3.0051 -1.7936  1.8183
 8783SOL    HW228357   4.251   1.424  10.020 -2.4632  3.2068 -2.0485
 8784SOL     OW28358  10.641   9.662   5.178 -0.2674 -0.3471  0.1249
 8784SOL    HW128359  10.605   9.573   5.181  0.5106 -0.6638  0.3039
 8784SOL    HW228360  10.605   9.705   5.256 -0.8256 -0.4285 -0.0835
 8785SOL     OW28361   1.070   9.112   1.719 -0.1542  0.1298  0.2790
 8785SOL    HW128362   1.143   9.144   1.772  1.6069 -2.5357 -0.3146
 8785SOL    HW228363   1.065   9.173   1.645 -0.3173  1.8473  1.6483
 8786SOL     OW28364   6.056   7.998   7.336 -0.1096 -0.0300  0.0877
 8786SOL    HW128365   6.049   8.040   7.250 -1.1750 -2.4666 -1.1221
 8786SOL    HW228366   6.005   8.054   7.394  0.5163  1.6030 -0.8612
 8787SOL     OW28367   9.954   2.163   8.513 -0.0635  0.2785 -0.1535
 8787SOL    HW128368   9.970   2.257   8.514 -1.4837  0.5542 -0.9296
 8787SOL    HW228369   9.891   2.148   8.583  1.0540 -0.3057  0.7670
 8788SOL     OW28370   5.986   1.980   2.986 -1.0174 -0.0670  0.0524
 8788SOL    HW128371   5.923   2.051   2.995 -2.2628 -1.1201  0.0526
 8788SOL    HW228372   5.986   1.936   3.072  1.9522  1.6165  1.0518
 8789SOL     OW28373   7.380   3.194   6.198  0.5397 -0.3867 -0.0885
 8789SOL    HW128374   7.413   3.283   6.182  0.3869 -0.5192 -1.2308
 8789SOL    HW228375   7.449   3.151   6.248  0.3478  0.5598  1.0326
 8790SOL     OW28376   3.620   7.777   9.973 -0.1166 -0.0018 -0.2614
 8790SOL    HW128377   3.559   7.712   9.939  1.4849 -2.0456  0.5664
 8790SOL    HW228378   3.564   7.848  10.005 -2.1341 -2.0053  0.9545
 8791SOL     OW28379   5.836   2.872   8.765  0.4725  0.0346  0.8266
 8791SOL    HW128380   5.830   2.795   8.821 -0.6876 -1.1971 -0.9005
 8791SOL    HW228381   5.930   2.883   8.750  0.6552 -1.0099  1.1301
 8792SOL     OW28382   9.220   6.527   9.677 -0.6042  0.5546 -0.5570
 8792SOL    HW128383   9.313   6.543   9.657 -0.7349  0.3730 -1.3166
 8792SOL    HW228384   9.207   6.570   9.762  0.6765 -1.1607  0.5683
 8793SOL     OW28385   3.252   1.942   6.260  0.1553  0.0919  0.7225
 8793SOL    HW128386   3.192   1.868   6.276 -0.0941  0.2526  0.5346
 8793SOL    HW228387   3.225   2.008   6.324 -1.1984  0.9479 -0.6731
 8794SOL     OW28388   5.180  11.188   8.836 -0.5331 -0.3398  0.2647
 8794SOL    HW128389   5.247  11.198   8.769 -1.2262  0.1848 -0.3588
 8794SOL    HW228390   5.136  11.273   8.839 -1.4619 -0.8160  0.3423
 8795SOL     OW28391  10.798  10.310   2.282 -0.2479 -0.9010  0.1991
 8795SOL    HW128392  10.836  10.379   2.228 -0.1205  0.1069  1.5442
 8795SOL    HW228393  10.847  10.231   2.258  0.2190 -0.3452 -0.7010
 8796SOL     OW28394  10.923   5.047   7.358 -0.1798 -0.6578  0.2512
 8796SOL    HW128395  10.919   4.959   7.320 -0.1754 -0.0691 -1.1486
 8796SOL    HW228396  10.840   5.088   7.333 -0.1107 -0.1954  0.7513
 8797SOL     OW28397   9.132   8.317   7.009 -0.5002 -0.1743 -0.7780
 8797SOL    HW128398   9.097   8.258   6.942 -0.8816 -1.2579  0.3543
 8797SOL    HW228399   9.104   8.404   6.980 -1.8206 -0.7546 -1.3323
 8798SOL     OW28400   0.701   9.934   6.434 -0.0670 -0.2014  0.5162
 8798SOL    HW128401   0.732  10.018   6.468 -1.1755  0.9000 -1.0213
 8798SOL    HW228402   0.757   9.916   6.359 -1.3870  0.4731 -0.6739
 8799SOL     OW28403   7.140   5.713   4.178 -0.1852 -0.0546 -0.5808
 8799SOL    HW128404   7.126   5.623   4.148 -0.6923 -0.4033  0.6629
 8799SOL    HW228405   7.054   5.754   4.170  0.4905  1.0663 -3.3746
 8800SOL     OW28406   4.928   3.465   8.924  0.0709 -0.0160 -0.2478
 8800SOL    HW128407   4.883   3.455   9.008  1.1504 -0.6426  0.2787
 8800SOL    HW228408   4.871   3.422   8.860 -0.1399 -0.6798  0.3786
 8801SOL     OW28409   9.217   0.386   0.648  0.0744 -0.7520 -0.4038
 8801SOL    HW128410   9.179   0.303   0.677 -2.0544  0.5926  1.0127
 8801SOL    HW228411   9.156   0.417   0.581  0.5154 -0.0579 -0.4841
 8802SOL     OW28412   5.662  10.701  10.236 -0.1282 -0.6859  0.1311
 8802SOL    HW128413   5.707  10.659  10.310 -0.5838 -2.6199 -0.6425
 8802SOL    HW228414   5.615  10.630  10.193 -0.8626  0.6293 -1.3218
 8803SOL     OW28415   2.829   6.674   3.828  0.1750  0.0103  0.3353
 8803SOL    HW128416   2.829   6.640   3.738  0.4787  1.1002 -0.0882
 8803SOL    HW228417   2.815   6.768   3.818  0.2949  0.1525  1.4318
 8804SOL     OW28418   8.090   2.295   9.928 -0.5117 -0.1221  0.7235
 8804SOL    HW128419   8.184   2.313   9.939  0.7081 -4.6294 -0.1436
 8804SOL    HW228420   8.076   2.297   9.833 -0.1295 -3.3475  0.4850
 8805SOL     OW28421  10.275   5.092   2.238  0.0532  0.0166  0.2928
 8805SOL    HW128422  10.197   5.119   2.190  0.6630  1.2866 -0.0364
 8805SOL    HW228423  10.347   5.137   2.194  0.8553 -0.3139  1.2288
 8806SOL     OW28424   9.601  10.184   0.688 -0.3551 -0.1146 -0.9000
 8806SOL    HW128425   9.528  10.193   0.627 -1.0936  1.2678  0.1327
 8806SOL    HW228426   9.620  10.273   0.716 -1.5538 -0.8179  2.5778
 8807SOL     OW28427   4.062   6.428  11.126 -0.2261  0.1507  0.1430
 8807SOL    HW128428   3.976   6.429  11.167  0.3207 -0.5687  1.3613
 8807SOL    HW228429   4.084   6.335  11.118 -0.2683  0.2534 -1.7471
 8808SOL     OW28430   0.036   9.879   8.340  0.1334  0.2488  0.3457
 8808SOL    HW128431   0.121   9.915   8.316  1.0729 -1.5101  0.8112
 8808SOL    HW228432   0.056   9.815   8.409 -1.2528 -1.7730 -1.0006
 8809SOL     OW28433   4.450   4.331   0.324 -0.0276  0.6352 -0.4003
 8809SOL    HW128434   4.435   4.370   0.410  1.4624  0.9939 -0.2688
 8809SOL    HW228435   4.459   4.237   0.341 -2.2379  0.3560 -0.5313
 8810SOL     OW28436   4.033   5.656   0.704 -0.8001 -0.1191  0.2086
 8810SOL    HW128437   4.048   5.744   0.671  1.8333 -0.4818  0.2402
 8810SOL    HW228438   4.013   5.668   0.797 -0.3555  0.4536  0.2337
 8811SOL     OW28439   4.890   6.198  10.047 -0.4309 -0.0433 -0.1524
 8811SOL    HW128440   4.921   6.271   9.994 -1.5820  1.5425  1.2807
 8811SOL    HW228441   4.861   6.133   9.983  0.9689  0.5561 -1.4643
 8812SOL     OW28442   0.360   1.982   2.949 -0.5557  0.6873  0.3894
 8812SOL    HW128443   0.368   2.070   2.913  0.7102  0.0065 -1.1364
 8812SOL    HW228444   0.346   1.926   2.872  0.7619 -0.6638  1.0745
 8813SOL     OW28445  11.259   1.403   7.477 -0.4607  0.2508  0.0519
 8813SOL    HW128446  11.318   1.343   7.523  0.9313  0.4059 -1.4187
 8813SOL    HW228447  11.200   1.345   7.428  1.3778 -0.0377 -1.9863
 8814SOL     OW28448  10.894   2.651   8.984 -0.3016  0.1141  0.2775
 8814SOL    HW128449  10.799   2.645   8.989 -0.3201 -1.7473 -1.1254
 8814SOL    HW228450  10.915   2.621   8.895  1.6703 -1.1304  1.0962
 8815SOL     OW28451   6.891   8.595   6.111 -0.4087  0.0309  0.8922
 8815SOL    HW128452   6.839   8.547   6.176 -2.4419  0.5473 -0.2434
 8815SOL    HW228453   6.978   8.603   6.150 -0.9894 -1.4691  2.6195
 8816SOL     OW28454   9.060   2.531   2.221  0.0441  0.1294 -0.2499
 8816SOL    HW128455   9.065   2.556   2.313 -2.1829 -1.5219  0.3992
 8816SOL    HW228456   8.971   2.553   2.194  0.0216 -1.1823 -1.4180
 8817SOL     OW28457   9.077   3.088   5.834  0.0295  0.9912 -0.5204
 8817SOL    HW128458   9.130   3.100   5.913  0.5135 -2.7194 -0.1171
 8817SOL    HW228459   8.992   3.059   5.866  0.4687 -1.3319 -1.2484
 8818SOL     OW28460   6.493   4.070  11.154 -0.1350  0.1489  0.1726
 8818SOL    HW128461   6.416   4.110  11.112  0.2711  0.4379 -0.3013
 8818SOL    HW228462   6.564   4.131  11.137  0.2225 -0.1634  0.5346
 8819SOL     OW28463   3.355  10.511   1.207  0.0694 -0.2387 -0.1158
 8819SOL    HW128464   3.264  10.489   1.187 -0.3521  0.4259  0.9920
 8819SOL    HW228465   3.370  10.594   1.162  0.5724 -1.0249 -1.4313
 8820SOL     OW28466  10.647   5.539   5.417 -0.1260  0.2289 -0.1570
 8820SOL    HW128467  10.697   5.486   5.479 -1.7703  0.0864  1.1031
 8820SOL    HW228468  10.706   5.612   5.396  0.5955  0.1296  1.3492
 8821SOL     OW28469   8.005   2.341   6.552  0.0013 -0.2539 -0.3893
 8821SOL    HW128470   7.936   2.352   6.617 -0.8984 -0.1459 -1.3288
 8821SOL    HW228471   7.964   2.367   6.470  0.9087 -1.0090 -1.1036
 8822SOL     OW28472   1.042   7.027   2.512 -0.1247 -0.9719 -0.1764
 8822SOL    HW128473   1.097   7.025   2.434 -0.1943 -0.2509 -0.2574
 8822SOL    HW228474   1.102   7.045   2.584 -0.2845  0.1676 -0.3116
 8823SOL     OW28475   4.461   1.107  10.736 -0.6916 -0.2091 -0.7447
 8823SOL    HW128476   4.397   1.169  10.771 -0.3030  0.6643 -1.5387
 8823SOL    HW228477   4.471   1.132  10.644  0.9940 -0.1383 -0.5769
 8824SOL     OW28478   2.591   5.235   6.860  0.1338  0.0267  0.0130
 8824SOL    HW128479   2.558   5.316   6.822 -0.1535  0.6693  1.5366
 8824SOL    HW228480   2.518   5.202   6.913  0.2878 -1.1764 -0.4914
 8825SOL     OW28481  11.257   2.610   7.426  0.2347 -0.0237  0.1922
 8825SOL    HW128482  11.294   2.536   7.377 -0.7695 -0.4051 -0.0342
 8825SOL    HW228483  11.163   2.591   7.429 -0.0390  1.2364  0.1524
 8826SOL     OW28484   9.142  10.283   8.382 -0.1390  0.4005 -0.2989
 8826SOL    HW128485   9.185  10.288   8.296  2.6608  1.8279  1.0337
 8826SOL    HW228486   9.160  10.194   8.413  1.1321  0.6703 -0.1816
 8827SOL     OW28487   0.697   7.208   1.127 -0.4130  0.0691 -0.0436
 8827SOL    HW128488   0.752   7.196   1.050 -1.9173 -2.1818 -0.8620
 8827SOL    HW228489   0.645   7.286   1.106  1.0431  1.0870 -0.0699
 8828SOL     OW28490   9.969   9.992  11.217 -0.0469  1.1814  0.1719
 8828SOL    HW128491  10.060   9.987  11.189 -0.8444  0.2131 -2.6037
 8828SOL    HW228492   9.918   9.978  11.137 -2.6438 -0.9039  1.9746
 8829SOL     OW28493   5.529   0.959   1.538 -0.2461 -0.3038  0.4266
 8829SOL    HW128494   5.578   0.969   1.456 -0.9656 -0.7748 -0.0682
 8829SOL    HW228495   5.588   0.994   1.605  0.6221 -0.5311 -0.2020
 8830SOL     OW28496   8.807   1.000   7.607  0.1804 -0.0925 -0.0998
 8830SOL    HW128497   8.853   0.964   7.531 -0.5930 -0.3424 -0.4565
 8830SOL    HW228498   8.853   1.082   7.626 -0.0487  0.3288 -1.2687
 8831SOL     OW28499   0.776   9.096   3.899 -0.0290  0.2353 -0.4065
 8831SOL    HW128500   0.849   9.137   3.945 -0.9048  1.7190 -0.2761
 8831SOL    HW228501   0.701   9.107   3.958 -0.3295 -1.5861 -0.3624
 8832SOL     OW28502   8.191   1.899  10.086  0.4511  0.7975 -0.1318
 8832SOL    HW128503   8.211   1.842  10.160  0.8393 -0.7689 -1.3551
 8832SOL    HW228504   8.098   1.919  10.095  0.4484  0.4426  0.6730
 8833SOL     OW28505   3.823  10.850   0.552 -0.1494  0.0478 -0.4687
 8833SOL    HW128506   3.777  10.927   0.519 -1.3990 -0.9936 -1.2614
 8833SOL    HW228507   3.908  10.852   0.508 -0.2630  0.8254 -0.6660
 8834SOL     OW28508   6.362   9.039   4.134 -0.4470 -0.1354  0.1987
 8834SOL    HW128509   6.397   9.105   4.193  1.1763  2.9725 -3.7661
 8834SOL    HW228510   6.274   9.071   4.111  0.1731  0.5245 -1.4032
 8835SOL     OW28511   8.022   6.402   1.920 -0.4663 -0.1609  0.2563
 8835SOL    HW128512   7.998   6.468   1.984  1.2681  1.6342 -0.8201
 8835SOL    HW228513   8.004   6.442   1.835 -0.6183 -1.6053 -0.4332
 8836SOL     OW28514   6.726   6.314   2.871  0.6580 -0.1851  0.4340
 8836SOL    HW128515   6.676   6.239   2.839  0.5286  0.2866 -0.5023
 8836SOL    HW228516   6.801   6.321   2.811 -0.4886  1.7441 -0.8843
 8837SOL     OW28517   6.019   6.258   8.645 -0.5375 -0.1646 -0.2381
 8837SOL    HW128518   5.982   6.201   8.578 -1.5282  0.8806 -0.6187
 8837SOL    HW228519   6.014   6.346   8.607  0.5710  0.2409  0.4886
 8838SOL     OW28520   1.670   2.948   7.138 -0.1253  0.3623 -0.1033
 8838SOL    HW128521   1.750   2.989   7.105 -0.0634  1.3679  1.2039
 8838SOL    HW228522   1.689   2.854   7.138  0.6801  0.5185 -0.7474
 8839SOL     OW28523   7.939   5.919   1.512 -0.2408  0.0421 -0.2618
 8839SOL    HW128524   7.900   5.865   1.581 -0.9247  0.1317 -0.5712
 8839SOL    HW228525   7.981   5.856   1.453  4.4256  0.0757  2.5227
 8840SOL     OW28526   6.291   3.584   5.717 -0.2157 -0.4240  0.2061
 8840SOL    HW128527   6.291   3.677   5.694 -1.1834 -0.1737  1.1485
 8840SOL    HW228528   6.208   3.551   5.682 -0.3811 -0.6763  0.8260
 8841SOL     OW28529   6.173   2.485   7.757  0.2102  0.3392  0.1926
 8841SOL    HW128530   6.263   2.461   7.780 -0.2854  0.1013  2.0121
 8841SOL    HW228531   6.146   2.546   7.826 -1.0413  0.3801 -0.3096
 8842SOL     OW28532   9.376   8.098   1.237 -0.4628  0.3909 -0.9289
 8842SOL    HW128533   9.334   8.014   1.252 -0.3952  0.5464  0.2313
 8842SOL    HW228534   9.384   8.137   1.324 -0.2763  1.4948 -1.4130
 8843SOL     OW28535   0.388   6.238   3.004  0.0133  0.2953  0.4703
 8843SOL    HW128536   0.465   6.181   2.996  1.2324  2.0788 -2.3954
 8843SOL    HW228537   0.425   6.323   3.029 -1.3353  0.6811  1.2374
 8844SOL     OW28538  11.205   5.012   5.600  0.1335 -0.3879  0.0868
 8844SOL    HW128539  11.152   5.001   5.521  0.2999  1.7518 -0.3816
 8844SOL    HW228540  11.223   4.923   5.629 -0.9150 -1.2116 -1.6219
 8845SOL     OW28541   1.843   1.061   8.285 -0.0640 -0.3976  0.6183
 8845SOL    HW128542   1.812   1.108   8.208 -0.1885  2.0648  2.0448
 8845SOL    HW228543   1.764   1.031   8.329 -0.1427  0.3008  0.9763
 8846SOL     OW28544   1.794   1.828   6.788 -0.7770 -0.1912  0.4738
 8846SOL    HW128545   1.800   1.739   6.755 -1.5201 -0.4748  1.0903
 8846SOL    HW228546   1.851   1.879   6.730  0.3902 -1.2162  0.6764
 8847SOL     OW28547  10.622   9.191   0.035  0.6438  0.0882  0.5911
 8847SOL    HW128548  10.653   9.269   0.080  0.7873 -0.6884  1.8979
 8847SOL    HW228549  10.634   9.120   0.098 -0.1381 -0.8812 -0.2981
 8848SOL     OW28550   1.538   8.469   3.833  0.0767 -0.1000 -0.6878
 8848SOL    HW128551   1.529   8.514   3.749 -1.2604  0.0840 -0.4736
 8848SOL    HW228552   1.467   8.404   3.832 -0.8398  0.8161  0.8400
 8849SOL     OW28553   3.911   0.449   6.014 -0.2571  0.2247 -0.2363
 8849SOL    HW128554   3.945   0.531   5.979 -1.5580  0.1545 -1.7863
 8849SOL    HW228555   3.909   0.390   5.939 -1.4058 -0.5242  0.3517
 8850SOL     OW28556   5.527   3.684   4.599 -0.7202  0.1195 -0.1548
 8850SOL    HW128557   5.576   3.603   4.613 -2.3842 -0.8041  0.5607
 8850SOL    HW228558   5.444   3.656   4.563 -0.6152  1.6878 -1.7748
 8851SOL     OW28559  10.914   7.819   5.068  0.0322  0.0464  0.0599
 8851SOL    HW128560  10.876   7.882   5.129  0.7715 -0.1664  0.7456
 8851SOL    HW228561  10.991   7.785   5.112  1.3782  0.8782 -1.5354
 8852SOL     OW28562  10.255   0.642   5.357  0.2013 -0.5063 -0.1048
 8852SOL    HW128563  10.174   0.607   5.319  1.0078 -0.2301 -2.2227
 8852SOL    HW228564  10.305   0.564   5.382  0.0132 -0.7301 -0.4198
 8853SOL     OW28565   1.238  10.410   6.528 -0.0968  0.1852  0.0004
 8853SOL    HW128566   1.207  10.499   6.510 -0.5140  0.0694  0.1361
 8853SOL    HW228567   1.311  10.422   6.589  0.8339  0.5364 -1.1260
 8854SOL     OW28568   3.630   3.798   9.060 -0.1361  0.0607  0.1013
 8854SOL    HW128569   3.673   3.827   8.980  1.2033 -0.9208  0.4211
 8854SOL    HW228570   3.701   3.761   9.113 -1.1840 -0.4133  1.2220
 8855SOL     OW28571   0.876   4.873   7.603 -0.3657  0.4610  0.7018
 8855SOL    HW128572   0.833   4.812   7.663  0.0299 -0.8993 -0.3561
 8855SOL    HW228573   0.818   4.949   7.600 -1.9634 -0.7332  0.4282
 8856SOL     OW28574   4.314   7.497  10.717 -0.2490 -0.5690  0.3450
 8856SOL    HW128575   4.381   7.544  10.667 -2.1457  1.2231 -0.6813
 8856SOL    HW228576   4.267   7.565  10.764 -2.5088 -1.4710 -0.4331
 8857SOL     OW28577  10.710   5.141   1.491  0.4403 -0.6309  0.5669
 8857SOL    HW128578  10.634   5.194   1.515  0.2522 -0.6972  0.1289
 8857SOL    HW228579  10.745   5.184   1.413  0.6483 -0.7986  0.5683
 8858SOL     OW28580   7.094   8.932   0.895  0.4138 -0.4734 -0.1878
 8858SOL    HW128581   7.049   8.860   0.938 -0.2085 -0.5763 -0.9897
 8858SOL    HW228582   7.185   8.925   0.924 -0.2619  0.4521  2.4256
 8859SOL     OW28583   5.435   9.339   7.280  0.0574 -1.1135  0.1936
 8859SOL    HW128584   5.366   9.379   7.226  0.8558  1.1021  0.7221
 8859SOL    HW228585   5.486   9.287   7.218 -0.6882 -0.8568 -0.6673
 8860SOL     OW28586   1.051   4.440   2.138 -0.1212 -0.4486 -0.3127
 8860SOL    HW128587   1.045   4.525   2.095  1.9801 -1.1092 -2.0838
 8860SOL    HW228588   1.140   4.437   2.174 -0.3619 -1.6561  0.2477
 8861SOL     OW28589   9.110   5.069   0.544  0.0125 -1.0162  0.0511
 8861SOL    HW128590   9.024   5.034   0.519 -0.5643  1.8895 -2.6931
 8861SOL    HW228591   9.092   5.160   0.568  2.2181 -0.5867  0.2334
 8862SOL     OW28592   2.264   0.709  11.043 -0.1951 -0.5250  0.0331
 8862SOL    HW128593   2.173   0.713  11.073 -0.2187  0.4810 -0.1584
 8862SOL    HW228594   2.299   0.796  11.060  1.4859 -1.5321  2.3758
 8863SOL     OW28595   6.179   1.905   4.147 -0.8049 -0.0369  0.7028
 8863SOL    HW128596   6.131   1.954   4.081 -2.0788 -0.5430  1.2286
 8863SOL    HW228597   6.138   1.819   4.149  1.4286 -1.2163 -0.2494
 8864SOL     OW28598   8.735   3.407   6.381  0.2379  0.3855  0.5596
 8864SOL    HW128599   8.827   3.434   6.373  1.0296 -1.6115  1.9329
 8864SOL    HW228600   8.695   3.432   6.298  2.7676 -1.2323 -1.2967
 8865SOL     OW28601  10.619   5.869   5.200 -0.0248  0.3122  0.0006
 8865SOL    HW128602  10.664   5.934   5.255  2.3006 -0.6864 -0.5753
 8865SOL    HW228603  10.648   5.785   5.234 -0.3742 -0.3510 -1.2840
 8866SOL     OW28604   9.360   8.322   2.790  0.3711 -0.3679 -0.2572
 8866SOL    HW128605   9.383   8.288   2.704  2.5192  0.8310 -0.2398
 8866SOL    HW228606   9.278   8.280   2.812 -0.9292  0.2264 -3.4486
 8867SOL     OW28607   8.024   6.084   7.093 -0.3000 -0.3303  0.3918
 8867SOL    HW128608   8.051   6.008   7.146  1.4784  1.0354  1.5858
 8867SOL    HW228609   7.982   6.046   7.016 -1.7309 -2.4535  2.0831
 8868SOL     OW28610   7.651   1.395   4.430 -0.1066 -0.1194  0.7412
 8868SOL    HW128611   7.616   1.307   4.412  0.6464 -0.9416  2.9703
 8868SOL    HW228612   7.745   1.386   4.415 -0.0878  0.4381  0.5308
 8869SOL     OW28613   3.937   8.294   3.028  0.2885  0.1257 -0.1018
 8869SOL    HW128614   4.006   8.234   3.058  0.2014  0.1362  0.1209
 8869SOL    HW228615   3.867   8.237   2.996  0.1462  0.1027  0.2426
 8870SOL     OW28616   1.380   1.428   5.056  0.1321 -0.5214 -0.1662
 8870SOL    HW128617   1.370   1.487   4.981 -0.9866  0.8416  1.0084
 8870SOL    HW228618   1.438   1.476   5.116 -0.1557 -0.9605  0.4654
 8871SOL     OW28619   1.987   6.098   2.986  0.0091  0.4685  0.7973
 8871SOL    HW128620   1.964   6.165   2.922 -0.9453  0.5199  1.1813
 8871SOL    HW228621   2.057   6.137   3.038  0.4476  0.6157  0.1176
 8872SOL     OW28622   0.380   7.522  11.131 -0.0271 -0.3206 -0.7458
 8872SOL    HW128623   0.427   7.439  11.124  1.8623  0.8389 -3.7451
 8872SOL    HW228624   0.435   7.577  11.186 -1.1802 -0.9245  1.0773
 8873SOL     OW28625   0.815   1.400   5.794 -0.0186 -0.0178  0.3707
 8873SOL    HW128626   0.768   1.382   5.713 -1.0296 -1.2225  1.1735
 8873SOL    HW228627   0.880   1.466   5.771  0.5740 -1.2497 -1.6938
 8874SOL     OW28628   3.561   7.016   3.507 -0.1112 -0.1173  0.4703
 8874SOL    HW128629   3.518   7.093   3.543  1.2790  1.6211 -1.3505
 8874SOL    HW228630   3.599   7.046   3.424  2.5494 -2.0918  0.8214
 8875SOL     OW28631   6.193   5.348   2.011 -0.5729 -0.1265 -0.3183
 8875SOL    HW128632   6.260   5.357   1.943  1.0759 -2.9406  0.7855
 8875SOL    HW228633   6.227   5.398   2.085  0.3563 -1.5097  0.2229
 8876SOL     OW28634   3.944   7.861   6.411  0.4397  0.3445  0.6238
 8876SOL    HW128635   3.973   7.774   6.436 -0.4138  0.3017  1.5072
 8876SOL    HW228636   3.899   7.895   6.488  2.4738  2.3706  1.0212
 8877SOL     OW28637   1.904   4.218   3.756 -0.5023  0.4026 -0.2054
 8877SOL    HW128638   1.828   4.185   3.710  0.4629 -2.2247 -0.0595
 8877SOL    HW228639   1.970   4.231   3.688  0.3759 -1.8619  0.1308
 8878SOL     OW28640   8.101   2.740   6.757 -0.5329 -0.0719  0.0086
 8878SOL    HW128641   8.013   2.706   6.739 -0.4819  0.4314 -1.2968
 8878SOL    HW228642   8.155   2.662   6.768 -0.8361 -0.4115 -0.7974
 8879SOL     OW28643   9.114   6.015   2.489 -0.2931  0.1984  0.3868
 8879SOL    HW128644   9.153   6.003   2.575 -0.2640  3.1163  0.8823
 8879SOL    HW228645   9.022   5.991   2.501 -0.0089 -0.7067  0.8448
 8880SOL     OW28646   2.159   1.806  10.166 -0.1883  0.2157  0.2348
 8880SOL    HW128647   2.187   1.892  10.136  4.2674 -1.3178 -0.7750
 8880SOL    HW228648   2.156   1.813  10.261 -0.8671  1.6809  0.1348
 8881SOL     OW28649   4.242   4.010   5.604  0.0771  0.5031 -0.0228
 8881SOL    HW128650   4.227   3.916   5.596  0.5504  0.5801 -2.5104
 8881SOL    HW228651   4.169   4.042   5.656  0.8482 -1.4382  2.4821
 8882SOL     OW28652   8.343   0.026   7.651 -0.3672 -0.1938  0.1291
 8882SOL    HW128653   8.323   0.119   7.639 -1.2231 -0.1026  1.8792
 8882SOL    HW228654   8.271  -0.007   7.705  0.2794 -1.7295  0.1097
 8883SOL     OW28655   3.477   4.600   8.981 -0.0542  0.2860  0.2981
 8883SOL    HW128656   3.555   4.570   9.027 -1.0770 -2.5095  0.3409
 8883SOL    HW228657   3.444   4.523   8.936 -1.6763  1.8739 -1.4127
 8884SOL     OW28658   5.938   6.893   3.996 -0.5238 -0.3017  0.2045
 8884SOL    HW128659   6.010   6.859   3.943 -2.1726 -2.2575 -0.9345
 8884SOL    HW228660   5.940   6.840   4.076  0.0459  0.5320  0.7679
 8885SOL     OW28661   8.232   2.689   0.652  0.4613 -0.2530 -0.3026
 8885SOL    HW128662   8.318   2.678   0.612  0.9936 -1.7657  1.1427
 8885SOL    HW228663   8.244   2.760   0.716  1.2387 -1.7468  1.3046
 8886SOL     OW28664   8.664   4.628   5.309  0.3540  0.7175  0.2057
 8886SOL    HW128665   8.754   4.598   5.298  0.2504  0.6358 -0.4542
 8886SOL    HW228666   8.660   4.710   5.260  0.1041  0.7939  0.3489
 8887SOL     OW28667   0.465   1.658   2.162 -0.1495 -0.8382 -0.2571
 8887SOL    HW128668   0.384   1.610   2.174 -0.4100  0.2640  3.5215
 8887SOL    HW228669   0.439   1.750   2.170  1.3677 -0.4437  0.4279
 8888SOL     OW28670   9.870  11.055   3.188  0.1034 -0.0154  0.1367
 8888SOL    HW128671   9.836  11.129   3.239  1.1713  1.2090 -0.8588
 8888SOL    HW228672   9.928  11.009   3.249  0.0938  0.4711  0.5252
 8889SOL     OW28673   5.756   4.420   1.388  0.1126  0.3477  0.1806
 8889SOL    HW128674   5.839   4.383   1.418 -0.2065 -0.4663  0.0771
 8889SOL    HW228675   5.729   4.478   1.459  1.1086  1.1619 -0.0856
 8890SOL     OW28676   6.099   4.260   6.988 -0.7376 -0.0378  0.3328
 8890SOL    HW128677   6.064   4.331   7.043 -0.8958  0.4154 -0.3488
 8890SOL    HW228678   6.023   4.216   6.953 -0.6496  0.7545 -0.8988
 8891SOL     OW28679  11.280   9.373   4.664  0.4458 -0.6412 -0.2612
 8891SOL    HW128680  11.218   9.433   4.623 -0.2511  0.4632  2.2094
 8891SOL    HW228681  11.364   9.394   4.623 -0.3017 -0.0211 -1.5120
 8892SOL     OW28682   2.542  10.925   5.011  0.0950  0.1321 -0.0051
 8892SOL    HW128683   2.563  11.011   4.976  0.4336 -0.1003 -0.3709
 8892SOL    HW228684   2.612  10.907   5.074 -1.0433  0.9889  1.5851
 8893SOL     OW28685   0.490  10.933   7.670  0.0639  0.5177 -0.5525
 8893SOL    HW128686   0.579  10.961   7.688 -0.0960  0.6688  0.0363
 8893SOL    HW228687   0.441  10.955   7.750 -0.1083 -1.2089 -0.1382
 8894SOL     OW28688   5.543   9.128  11.145 -0.4492  0.2380 -0.8553
 8894SOL    HW128689   5.576   9.042  11.171 -2.2377 -0.5842 -1.1246
 8894SOL    HW228690   5.492   9.111  11.065  0.4324  1.8155 -1.7912
 8895SOL     OW28691   2.438   2.152   4.412  0.1746  0.4050 -0.5536
 8895SOL    HW128692   2.511   2.138   4.472  0.4755 -0.2401 -1.0548
 8895SOL    HW228693   2.360   2.146   4.468  0.5028  1.7344  0.0968
 8896SOL     OW28694   5.046   6.798   0.618  0.5241 -0.8662 -0.6290
 8896SOL    HW128695   4.996   6.827   0.541 -0.1423  1.5559  0.5955
 8896SOL    HW228696   4.981   6.755   0.673  0.7041 -1.3735 -0.8081
 8897SOL     OW28697   0.181   6.927   5.477 -0.1969 -0.9145  0.4138
 8897SOL    HW128698   0.263   6.881   5.495  0.3454 -0.0235  0.3205
 8897SOL    HW228699   0.156   6.900   5.389  0.1640 -0.9589  0.3251
 8898SOL     OW28700   4.930   4.468   4.019  0.2949 -0.4749  0.7530
 8898SOL    HW128701   4.960   4.380   4.042  2.1292 -0.3027 -0.7378
 8898SOL    HW228702   4.897   4.504   4.102  2.1596 -1.5628  2.0436
 8899SOL     OW28703  10.485   7.912   8.938 -0.4747  0.4686 -0.9374
 8899SOL    HW128704  10.465   7.980   9.002  1.0277  0.5769 -0.5363
 8899SOL    HW228705  10.403   7.866   8.924 -1.4105  2.0644 -0.8522
 8900SOL     OW28706  11.156   7.044   7.228  0.1296  0.1226 -0.3743
 8900SOL    HW128707  11.098   7.114   7.257 -0.6116 -0.6554  0.0506
 8900SOL    HW228708  11.231   7.089   7.189  0.6460  1.2228  1.7166
 8901SOL     OW28709  10.669  10.173   0.709 -0.6372 -0.1916  0.6069
 8901SOL    HW128710  10.607  10.243   0.689  0.9605  1.4378  1.0929
 8901SOL    HW228711  10.733  10.177   0.639  1.0504  0.8232  2.1120
 8902SOL     OW28712  10.229   3.255   8.727  1.1445  0.9062 -0.4588
 8902SOL    HW128713  10.217   3.171   8.772 -1.9227  1.1926 -0.4881
 8902SOL    HW228714  10.306   3.294   8.769  1.6215 -1.1799  0.7412
 8903SOL     OW28715  11.137   8.112   9.437  0.5728 -0.2558 -0.1870
 8903SOL    HW128716  11.189   8.150   9.507 -0.7219 -0.2046  0.7762
 8903SOL    HW228717  11.096   8.187   9.394 -0.2226 -0.3993  0.2996
 8904SOL     OW28718  10.145   2.533   4.844  0.4553 -0.0987 -0.4364
 8904SOL    HW128719  10.160   2.625   4.826  1.9056 -0.0620  0.7950
 8904SOL    HW228720  10.206   2.511   4.915  0.3210 -2.0599 -0.8510
 8905SOL     OW28721   1.648   2.180   9.775 -0.2350  0.6843 -0.5240
 8905SOL    HW128722   1.555   2.161   9.781  0.1105 -0.8204  0.6858
 8905SOL    HW228723   1.652   2.276   9.768 -1.8807  0.6935 -1.9299
 8906SOL     OW28724   7.286   8.996   9.603  0.0970 -0.1528  0.1056
 8906SOL    HW128725   7.219   9.061   9.622 -0.9780 -1.2812  0.2567
 8906SOL    HW228726   7.357   9.047   9.562 -0.7696  1.0814  0.0734
 8907SOL     OW28727   1.663   7.196   6.657  0.5631 -0.2492 -0.0110
 8907SOL    HW128728   1.622   7.120   6.698  1.0977 -1.2447 -1.2720
 8907SOL    HW228729   1.740   7.161   6.612 -0.9692  0.4261 -3.4300
 8908SOL     OW28730   8.283   0.146   1.592  0.0175 -0.8501 -0.7855
 8908SOL    HW128731   8.330   0.135   1.509 -0.6383 -1.4156 -1.0919
 8908SOL    HW228732   8.273   0.057   1.626  2.6957 -0.4908  1.3085
 8909SOL     OW28733   7.982   5.022   2.526 -0.6120 -0.1169  0.1274
 8909SOL    HW128734   8.011   4.930   2.523  0.4089  0.1627  0.9869
 8909SOL    HW228735   7.917   5.024   2.596  0.2581  0.0384  0.9519
 8910SOL     OW28736   0.913   4.742   6.634  0.3449  0.1159  0.2808
 8910SOL    HW128737   0.934   4.827   6.671 -1.1731 -0.1908  2.0122
 8910SOL    HW228738   0.817   4.741   6.629  0.3451 -1.3489 -0.0029
 8911SOL     OW28739  11.088   8.498   9.068  0.4337  0.1997 -0.1315
 8911SOL    HW128740  11.138   8.418   9.048  0.0301 -0.3550  1.0169
 8911SOL    HW228741  11.153   8.560   9.100  0.6057  0.0014 -0.0984
 8912SOL     OW28742   8.690   0.317   2.863 -0.0289 -0.5413 -0.1368
 8912SOL    HW128743   8.598   0.296   2.846  0.0937 -1.8773  0.6794
 8912SOL    HW228744   8.738   0.238   2.838  0.8387 -0.0775  0.0041
 8913SOL     OW28745   9.788   0.693   8.519  0.0163  0.3758  0.3933
 8913SOL    HW128746   9.705   0.693   8.566  1.3110  1.2716  2.8535
 8913SOL    HW228747   9.769   0.738   8.437 -1.5295  2.5036  1.8182
 8914SOL     OW28748   4.043   8.660   1.423 -0.0911 -0.3570 -0.5923
 8914SOL    HW128749   4.058   8.683   1.514 -1.2944  1.0066 -0.7009
 8914SOL    HW228750   4.028   8.744   1.379 -0.3302 -1.0463 -1.8931
 8915SOL     OW28751   8.855   3.699   8.486  0.6704 -0.1465  0.4848
 8915SOL    HW128752   8.815   3.612   8.492 -0.3937  0.1829 -1.2186
 8915SOL    HW228753   8.819   3.746   8.561  1.8540 -1.3337  1.8950
 8916SOL     OW28754   5.716   1.911   9.653  0.3660  0.0336  0.6308
 8916SOL    HW128755   5.667   1.857   9.592  1.9290 -0.1229 -0.5554
 8916SOL    HW228756   5.761   1.849   9.710 -0.1295  0.1632  1.1792
 8917SOL     OW28757   6.214   3.513  11.066 -0.3217 -0.0185  0.1743
 8917SOL    HW128758   6.172   3.426  11.065 -2.1134  0.7621  1.8684
 8917SOL    HW228759   6.306   3.494  11.083  0.2310 -1.8016 -3.6083
 8918SOL     OW28760   9.648   6.731   7.850  0.3291 -0.6902  0.2442
 8918SOL    HW128761   9.676   6.822   7.841  0.9063 -0.9313 -0.4962
 8918SOL    HW228762   9.554   6.733   7.834  0.8018 -0.6452 -3.1210
 8919SOL     OW28763   8.883   8.623  10.578  0.4326 -0.8743 -0.1823
 8919SOL    HW128764   8.819   8.595  10.644  2.1758 -0.9499  1.6006
 8919SOL    HW228765   8.845   8.599  10.494 -1.8188 -0.9512  0.8087
 8920SOL     OW28766   1.166   9.259   9.841 -0.4817  0.3747  0.1988
 8920SOL    HW128767   1.147   9.290   9.929  0.5819 -0.9151  0.9058
 8920SOL    HW228768   1.129   9.171   9.837 -1.4874  0.8127 -1.0338
 8921SOL     OW28769   6.311   5.505  11.221  0.0076  0.1553  0.0941
 8921SOL    HW128770   6.279   5.419  11.250  0.1708 -0.3286 -1.0945
 8921SOL    HW228771   6.383   5.485  11.161 -1.0860  1.0399 -1.5861
 8922SOL     OW28772   9.123   2.308  10.446  0.2939 -0.1605 -0.3365
 8922SOL    HW128773   9.030   2.320  10.430  0.2563 -1.6867 -1.4696
 8922SOL    HW228774   9.131   2.300  10.541 -1.0180 -1.9059 -0.3259
 8923SOL     OW28775   3.938   0.607   9.634  0.8207 -0.1190  0.7083
 8923SOL    HW128776   3.865   0.645   9.584  1.3828 -0.9152 -0.7708
 8923SOL    HW228777   3.913   0.620   9.725 -1.0932 -0.1907  0.2457
 8924SOL     OW28778   6.794   1.858   4.991  0.6852 -0.6273 -0.4246
 8924SOL    HW128779   6.746   1.928   5.037  0.6335 -0.8559 -0.1292
 8924SOL    HW228780   6.817   1.796   5.060  0.6302 -0.9627 -0.7088
 8925SOL     OW28781   7.050   1.211   0.958 -0.0389  0.5398 -0.2654
 8925SOL    HW128782   7.097   1.158   1.022  0.2590 -0.4055 -1.2452
 8925SOL    HW228783   7.118   1.242   0.899 -0.5084  0.0342 -1.0816
 8926SOL     OW28784   9.965   5.128   3.040 -0.0960 -0.4202  0.4130
 8926SOL    HW128785  10.031   5.097   3.102  0.4076 -0.0550  0.0731
 8926SOL    HW228786  10.016   5.160   2.965 -0.7097 -2.1997 -0.8405
 8927SOL     OW28787   9.934   6.739  10.838  0.6485  0.5170 -0.0858
 8927SOL    HW128788   9.881   6.818  10.836  1.3343  0.9703 -0.8774
 8927SOL    HW228789  10.003   6.758  10.901 -0.1895 -0.1270  1.0544
 8928SOL     OW28790   9.045   1.815  11.228 -0.1944 -0.3280  0.0274
 8928SOL    HW128791   9.128   1.841  11.267  0.1800  0.4699 -1.2364
 8928SOL    HW228792   8.983   1.815  11.301  0.4255  1.3684  0.6071
 8929SOL     OW28793   0.523   8.079  10.328  0.2711 -1.1304 -0.1227
 8929SOL    HW128794   0.571   8.001  10.354 -0.5762 -1.6034  0.0460
 8929SOL    HW228795   0.432   8.059  10.347 -0.0601 -0.4453 -0.9384
 8930SOL     OW28796   5.857   2.184   9.877  0.9337  0.3248 -0.6880
 8930SOL    HW128797   5.819   2.240   9.944 -0.2882 -2.5465  1.2140
 8930SOL    HW228798   5.951   2.182   9.898  0.6864  0.1047  0.4569
 8931SOL     OW28799   6.989   8.348   5.449 -0.0405 -0.0018 -0.2967
 8931SOL    HW128800   7.019   8.353   5.358  0.8745 -1.8273 -0.1420
 8931SOL    HW228801   6.992   8.439   5.480 -0.7508  0.7219 -2.1815
 8932SOL     OW28802  10.627  10.888   4.577 -0.2736 -0.4013 -1.0645
 8932SOL    HW128803  10.612  10.978   4.551 -0.4029  1.1285  3.4484
 8932SOL    HW228804  10.540  10.848   4.579 -0.4165 -0.1082 -1.3788
 8933SOL     OW28805   0.321   0.040   7.792  0.2997  1.1099 -0.2770
 8933SOL    HW128806   0.251   0.101   7.817  0.2281  0.3324  1.5971
 8933SOL    HW228807   0.328  -0.020   7.866  1.2726 -0.3608 -1.5066
 8934SOL     OW28808   0.359   1.979   9.060 -0.4132  0.1560  0.1891
 8934SOL    HW128809   0.374   1.985   9.154  0.1181  0.9654  0.0648
 8934SOL    HW228810   0.280   2.032   9.045 -1.3354 -1.1281  0.3539
 8935SOL     OW28811   9.613   1.781   8.915  0.1063  0.1600 -0.3257
 8935SOL    HW128812   9.659   1.852   8.872  3.4994 -1.6240 -0.0081
 8935SOL    HW228813   9.645   1.783   9.005 -2.2820  0.1849  0.5823
 8936SOL     OW28814   6.863   2.694   3.383 -0.1326 -0.1311  0.0273
 8936SOL    HW128815   6.932   2.754   3.411  0.6719 -1.3508  0.7872
 8936SOL    HW228816   6.900   2.607   3.400 -1.2759 -0.8364 -0.9954
 8937SOL     OW28817  11.088  10.967   2.322  0.3235  0.7441  0.6522
 8937SOL    HW128818  11.072  10.891   2.265 -0.1297  1.3443 -0.0432
 8937SOL    HW228819  11.007  11.019   2.315  1.7446  2.9062 -1.4242
 8938SOL     OW28820   0.262   5.746   0.952  0.1861  0.1331 -0.2924
 8938SOL    HW128821   0.298   5.750   0.863 -0.2234 -1.1063 -0.5318
 8938SOL    HW228822   0.184   5.801   0.949  0.1523  0.0661 -0.7128
 8939SOL     OW28823  10.284   5.990   1.414 -0.9499  0.0739  0.0827
 8939SOL    HW128824  10.377   5.985   1.392 -0.9760  0.9483 -0.2603
 8939SOL    HW228825  10.245   6.041   1.343 -1.7415 -0.4958  0.0869
 8940SOL     OW28826   3.681   1.708   3.478  0.2695 -0.2337 -0.1083
 8940SOL    HW128827   3.725   1.778   3.429 -1.8753  0.4331 -1.2263
 8940SOL    HW228828   3.592   1.741   3.491 -0.1425 -1.8126  1.3960
 8941SOL     OW28829   6.137   5.620   6.060  1.0253  0.4273  0.2977
 8941SOL    HW128830   6.220   5.572   6.051 -0.2702 -2.4104  2.1092
 8941SOL    HW228831   6.156   5.688   6.126  2.0731  0.2596  0.1845
 8942SOL     OW28832   7.520   7.811   0.438  0.3795 -0.3722 -0.1647
 8942SOL    HW128833   7.439   7.828   0.391 -1.0810 -2.2434  1.5272
 8942SOL    HW228834   7.580   7.777   0.371 -0.0656  1.3020 -1.4918
 8943SOL     OW28835  10.255   3.387   2.111  0.2267 -0.0998 -0.2426
 8943SOL    HW128836  10.334   3.334   2.124  1.0102  1.5933  3.1331
 8943SOL    HW228837  10.185   3.336   2.150 -0.3995 -1.4047 -2.8489
 8944SOL     OW28838   0.338   3.247   6.339 -1.3943 -0.3254  0.9672
 8944SOL    HW128839   0.329   3.175   6.277 -2.4364  1.7965 -1.5757
 8944SOL    HW228840   0.258   3.299   6.326 -0.7490  1.2324  2.7724
 8945SOL     OW28841   8.494   8.689   9.342 -0.0700 -0.1604  0.4875
 8945SOL    HW128842   8.586   8.665   9.353  0.4022  1.4066  0.1281
 8945SOL    HW228843   8.456   8.615   9.294  1.3291 -0.2499 -0.5638
 8946SOL     OW28844   1.716   7.681   2.950  0.2357 -0.3730  0.7117
 8946SOL    HW128845   1.644   7.621   2.930 -0.9279  0.3903  2.4241
 8946SOL    HW228846   1.690   7.764   2.910  0.8200 -0.4256  0.2012
 8947SOL     OW28847   9.109  10.234   4.563  0.9121 -0.2767 -0.5390
 8947SOL    HW128848   9.203  10.248   4.575  0.3657  2.3590  1.4459
 8947SOL    HW228849   9.083  10.180   4.637  0.7764 -0.7195 -0.9030
 8948SOL     OW28850   8.397  11.012  11.070  0.3723  0.5416 -0.8697
 8948SOL    HW128851   8.488  10.991  11.048 -0.2200 -1.2065 -1.8616
 8948SOL    HW228852   8.367  11.066  10.997  0.0510 -0.5701 -1.5819
 8949SOL     OW28853   8.212   6.968  10.665 -0.5575 -0.3689 -0.0845
 8949SOL    HW128854   8.130   6.968  10.615  0.8875 -0.9612 -2.6488
 8949SOL    HW228855   8.280   6.971  10.598  1.5394 -0.5989  1.9387
 8950SOL     OW28856   0.864   4.089   3.806 -0.3827  0.0043  0.3754
 8950SOL    HW128857   0.843   4.166   3.859 -0.9236 -1.2896  2.1346
 8950SOL    HW228858   0.797   4.087   3.738 -1.0543  0.4595  1.0095
 8951SOL     OW28859   3.106   3.378   0.721 -0.2335  0.6587 -0.2432
 8951SOL    HW128860   3.029   3.415   0.678 -0.0005  0.7249 -0.6089
 8951SOL    HW228861   3.165   3.453   0.733 -0.5084  0.7372  0.6617
 8952SOL     OW28862  10.293   0.442  10.493  0.0826 -0.3210 -0.0608
 8952SOL    HW128863  10.362   0.468  10.433  0.5792 -0.2835  0.5202
 8952SOL    HW228864  10.335   0.379  10.553 -0.1357  0.3900  0.8645
 8953SOL     OW28865   1.898   3.416   6.408 -0.1200  0.3050 -0.0645
 8953SOL    HW128866   1.986   3.426   6.445 -0.8797 -1.4280  2.4961
 8953SOL    HW228867   1.872   3.505   6.384  0.9344  1.4449  2.6372
 8954SOL     OW28868   1.217   4.744   1.953  0.5669  0.2988 -0.2788
 8954SOL    HW128869   1.286   4.678   1.966 -0.1195 -0.4423 -0.3490
 8954SOL    HW228870   1.157   4.731   2.027  0.4110  0.8429 -0.3004
 8955SOL     OW28871   6.959   3.204   6.867  0.4977  0.5019  0.0324
 8955SOL    HW128872   7.005   3.201   6.783  1.0831 -1.3802  0.3622
 8955SOL    HW228873   6.867   3.188   6.845  0.6131  0.2496 -0.2796
 8956SOL     OW28874   0.716   5.847   4.681 -0.2611 -0.0353 -0.7569
 8956SOL    HW128875   0.651   5.813   4.620  0.8117 -3.6287 -0.0999
 8956SOL    HW228876   0.677   5.836   4.768 -0.6512  2.4405 -0.5364
 8957SOL     OW28877   3.322   0.973  11.283  0.2561 -0.2225  0.2656
 8957SOL    HW128878   3.342   0.989  11.376  2.0581 -2.0315  0.2323
 8957SOL    HW228879   3.261   0.899  11.284  2.3547 -2.0489 -0.0160
 8958SOL     OW28880   5.813  10.653   4.476  0.2227 -0.0726  1.0904
 8958SOL    HW128881   5.843  10.631   4.565 -1.3938 -0.7064  1.5192
 8958SOL    HW228882   5.788  10.568   4.439  1.7500  0.0587 -0.3482
 8959SOL     OW28883   1.222   5.904   2.103 -0.2267 -0.2830 -0.1933
 8959SOL    HW128884   1.238   5.831   2.163 -2.6402 -1.6363 -1.0374
 8959SOL    HW228885   1.265   5.877   2.021 -0.8789 -0.6460 -0.4216
 8960SOL     OW28886   4.168   0.713   2.969 -0.3379 -0.4372  0.4379
 8960SOL    HW128887   4.240   0.716   2.906 -0.1167  0.5514  0.7239
 8960SOL    HW228888   4.107   0.780   2.938 -0.1634  0.1465  1.3545
 8961SOL     OW28889   5.268   8.928   1.443  0.5634 -0.4169 -0.8264
 8961SOL    HW128890   5.256   8.950   1.350  0.5979 -0.9783 -0.9645
 8961SOL    HW228891   5.349   8.973   1.468 -0.1190  0.8076 -0.7161
 8962SOL     OW28892   9.989  10.127   7.094  0.7432  0.2841 -0.3379
 8962SOL    HW128893  10.053  10.194   7.072  1.1086  0.7162  1.8117
 8962SOL    HW228894   9.931  10.122   7.018  0.4554  3.3358 -0.4335
 8963SOL     OW28895   2.287  11.065   6.483 -0.4012  0.4997  0.1040
 8963SOL    HW128896   2.195  11.067   6.455 -0.5318  0.9472  0.5566
 8963SOL    HW228897   2.326  11.140   6.439 -0.7671  1.6308  1.6324
 8964SOL     OW28898   0.999  10.594  11.176 -0.2758 -0.8658 -0.3543
 8964SOL    HW128899   1.030  10.677  11.212  2.7719 -2.0936  0.2231
 8964SOL    HW228900   1.008  10.532  11.249 -3.4201 -1.6325 -0.4538
 8965SOL     OW28901   0.745   2.361   4.959 -0.3570 -0.6706  0.2950
 8965SOL    HW128902   0.761   2.347   4.866 -3.7019  0.4614 -0.5830
 8965SOL    HW228903   0.692   2.287   4.987 -0.8726 -0.1259  0.8120
 8966SOL     OW28904   5.081   1.906   6.987  0.3355  0.1684 -0.1255
 8966SOL    HW128905   5.075   1.992   6.946  0.5975 -0.0214 -0.5639
 8966SOL    HW228906   5.031   1.915   7.069 -1.2819  0.1821 -1.0697
 8967SOL     OW28907   3.132   1.486   5.707 -0.8793 -0.1350  0.2290
 8967SOL    HW128908   3.130   1.392   5.724  0.7807 -0.3134 -0.3538
 8967SOL    HW228909   3.189   1.495   5.630 -1.8791  1.2639 -0.3975
 8968SOL     OW28910   9.714   6.936   9.300  0.5627  0.0822 -0.2237
 8968SOL    HW128911   9.806   6.913   9.310  0.6582  1.0144  1.2658
 8968SOL    HW228912   9.702   6.948   9.206  2.4373  1.8318 -0.2840
 8969SOL     OW28913   9.087   9.601  10.120 -0.4288  0.4653 -0.1234
 8969SOL    HW128914   9.144   9.636  10.052 -0.7759 -0.4459 -0.9227
 8969SOL    HW228915   9.131   9.622  10.202  1.6551 -1.1658 -0.7349
 8970SOL     OW28916   7.061   9.843   8.717 -0.0042  0.0593  0.1392
 8970SOL    HW128917   7.068   9.759   8.670  1.2026  0.0370  0.3200
 8970SOL    HW228918   6.971   9.846   8.748 -0.8839  0.0921 -2.2114
 8971SOL     OW28919   8.752   2.041   8.888  0.2036  0.1803  0.1243
 8971SOL    HW128920   8.832   2.071   8.844 -0.9341  1.3017 -1.2931
 8971SOL    HW228921   8.690   2.113   8.875 -1.1955 -0.8879  0.7259
 8972SOL     OW28922  10.803  10.870   2.943  0.8242  0.3253 -0.3295
 8972SOL    HW128923  10.829  10.785   2.977 -0.6303 -0.0942 -0.1778
 8972SOL    HW228924  10.707  10.865   2.938  0.7509  1.7795 -0.7733
 8973SOL     OW28925   1.241   4.355   4.436  0.0765  0.0883 -1.2378
 8973SOL    HW128926   1.303   4.358   4.508  0.0757 -0.2335 -1.2221
 8973SOL    HW228927   1.246   4.442   4.396 -0.1585  0.3706 -0.6577
 8974SOL     OW28928   1.479   5.103   4.949  0.6941 -0.2819  0.1325
 8974SOL    HW128929   1.488   5.181   4.895  2.4786 -1.0251 -0.7340
 8974SOL    HW228930   1.385   5.093   4.962  0.3796  1.3959 -0.6452
 8975SOL     OW28931   5.362   2.943   5.989 -0.3149  0.0402 -0.0171
 8975SOL    HW128932   5.399   2.994   5.917 -2.1022  2.0149  0.3905
 8975SOL    HW228933   5.268   2.941   5.972 -0.9547  1.5317  2.7713
 8976SOL     OW28934   5.113   9.446   4.336 -0.1044 -0.6921  0.0231
 8976SOL    HW128935   5.056   9.492   4.274 -0.1158  0.6395  0.9920
 8976SOL    HW228936   5.055   9.385   4.382 -0.4523 -0.3691  0.0094
 8977SOL     OW28937   7.781   6.165   4.450 -0.1342  0.3512  0.3908
 8977SOL    HW128938   7.778   6.092   4.388  1.6430  2.9738 -3.1796
 8977SOL    HW228939   7.838   6.133   4.521 -1.4395 -2.4736  0.3220
 8978SOL     OW28940   9.334  10.929   6.108  0.6420 -0.4757  0.0304
 8978SOL    HW128941   9.424  10.918   6.140  0.4008  0.4366  1.0991
 8978SOL    HW228942   9.311  11.018   6.134 -0.3501 -0.4710 -0.8153
 8979SOL     OW28943   0.319   8.431   7.804  0.0232  0.2416 -0.3334
 8979SOL    HW128944   0.353   8.363   7.862 -0.6818 -0.7405 -1.0401
 8979SOL    HW228945   0.238   8.394   7.769 -1.1344  1.9983  0.3500
 8980SOL     OW28946   1.849   0.836   2.266 -0.5333 -0.0928  0.0690
 8980SOL    HW128947   1.907   0.878   2.202  1.3807 -0.5186  1.4497
 8980SOL    HW228948   1.906   0.781   2.318 -2.2625 -0.8127  1.2955
 8981SOL     OW28949   2.217   8.876   5.241 -0.0123 -0.3296 -0.0906
 8981SOL    HW128950   2.280   8.918   5.299 -1.3302  0.2487  0.9917
 8981SOL    HW228951   2.256   8.883   5.154  0.3225  2.2986  0.1703
 8982SOL     OW28952   7.035  10.448   5.315 -0.0785 -0.1184 -0.5718
 8982SOL    HW128953   6.965  10.447   5.380  0.1716  1.9252 -0.2012
 8982SOL    HW228954   7.098  10.383   5.346 -1.4313 -1.4127 -0.4883
 8983SOL     OW28955  10.458   4.175   5.095  0.5685  0.3408  0.6576
 8983SOL    HW128956  10.438   4.234   5.168  0.8234  0.3783  0.7015
 8983SOL    HW228957  10.399   4.102   5.106 -0.4906  1.0667 -0.0059
 8984SOL     OW28958   6.080   5.950   4.676 -0.6563  0.3629  0.5182
 8984SOL    HW128959   6.052   5.942   4.767 -2.4187  0.2476  0.0067
 8984SOL    HW228960   6.049   5.869   4.634 -1.0087  0.9793 -0.4493
 8985SOL     OW28961   4.544   9.610   9.251  0.1863  0.5547 -0.2968
 8985SOL    HW128962   4.464   9.662   9.248  0.1725  0.6516  1.0630
 8985SOL    HW228963   4.612   9.669   9.221  0.0253  1.0817  0.3389
 8986SOL     OW28964  10.596   1.986   0.455  0.0075  0.7938 -0.5118
 8986SOL    HW128965  10.546   1.996   0.373 -0.1754 -2.4711 -0.9198
 8986SOL    HW228966  10.529   1.969   0.521  0.2725  1.6790 -0.0067
 8987SOL     OW28967   8.037   9.356   9.789 -0.1578  0.1607 -0.3274
 8987SOL    HW128968   8.090   9.388   9.716  0.0242  0.4827 -0.0561
 8987SOL    HW228969   7.952   9.338   9.750  0.3974 -1.2271 -0.9628
 8988SOL     OW28970   4.987   8.633   4.265 -0.0957 -0.2466  0.3268
 8988SOL    HW128971   5.070   8.664   4.303  0.1465 -0.4364 -0.0406
 8988SOL    HW228972   4.995   8.651   4.172 -1.0551  1.0391  0.4598
 8989SOL     OW28973  11.042   1.512   3.021  0.0118 -0.3134 -0.1349
 8989SOL    HW128974  10.983   1.439   3.039  1.3917 -0.9927  1.9660
 8989SOL    HW228975  10.987   1.590   3.027 -1.2850 -1.0749 -1.4391
 8990SOL     OW28976   9.319   4.332   9.225 -0.1866 -0.5675 -0.2431
 8990SOL    HW128977   9.253   4.270   9.257  0.2563 -1.1552 -0.4553
 8990SOL    HW228978   9.322   4.400   9.291 -2.0475  0.2364 -0.9137
 8991SOL     OW28979   8.741   2.718   8.033  0.0709 -0.5985 -0.0891
 8991SOL    HW128980   8.778   2.659   7.968 -0.2875 -1.1357  0.1874
 8991SOL    HW228981   8.814   2.737   8.092 -0.1061 -1.7717  0.5398
 8992SOL     OW28982   9.161   5.435   4.212 -0.0012  0.1327  0.4112
 8992SOL    HW128983   9.179   5.341   4.203 -1.7413 -0.0161 -5.0308
 8992SOL    HW228984   9.069   5.444   4.188  0.2457  3.3015  0.2170
 8993SOL     OW28985   4.373   4.796   4.786 -0.8006 -0.4044 -0.2991
 8993SOL    HW128986   4.295   4.744   4.771 -2.2158  1.0056  1.7364
 8993SOL    HW228987   4.359   4.838   4.871  3.1486 -1.8363  1.3250
 8994SOL     OW28988   3.078   7.347   9.218  0.0522  0.0959  0.5934
 8994SOL    HW128989   2.994   7.301   9.229 -0.6330  0.1021 -3.3553
 8994SOL    HW228990   3.144   7.278   9.226 -0.5788 -0.5475  0.3865
 8995SOL     OW28991   3.588   3.289   3.618 -0.0682  0.4718 -0.0474
 8995SOL    HW128992   3.639   3.261   3.542 -0.6507  1.6543 -0.9083
 8995SOL    HW228993   3.527   3.217   3.634  2.2680 -1.2843  1.4495
 8996SOL     OW28994   3.022   9.229   9.153  0.2828 -1.2104 -0.4257
 8996SOL    HW128995   2.981   9.215   9.068  0.2217  0.9816 -0.8189
 8996SOL    HW228996   3.075   9.308   9.141  0.3478 -0.9056  1.5376
 8997SOL     OW28997   6.079   6.363  10.547  0.8617 -0.0167 -0.6291
 8997SOL    HW128998   6.124   6.391  10.626  2.2034 -0.7047 -1.1127
 8997SOL    HW228999   6.010   6.429  10.534  1.2795  0.6789  0.5214
 8998SOL     OW29000   7.965   8.502   6.820  0.0727 -0.2540  0.7858
 8998SOL    HW129001   7.957   8.423   6.874 -2.0461 -0.4562  0.2811
 8998SOL    HW229002   8.026   8.477   6.750 -0.8018 -1.5781  0.4553
 8999SOL     OW29003   5.634  11.026  10.786 -0.5963  0.1423 -0.1540
 8999SOL    HW129004   5.570  11.093  10.809 -0.1511  0.3474  0.5304
 8999SOL    HW229005   5.590  10.943  10.805  0.1880  0.3018  2.8469
 9000SOL     OW29006   9.125   2.388   7.514  0.9774 -0.0566 -0.5037
 9000SOL    HW129007   9.131   2.347   7.428  3.6148 -1.7881  0.3714
 9000SOL    HW229008   9.064   2.333   7.562  0.8829 -0.1423 -0.7198
 9001SOL     OW29009   1.123   9.369   2.610 -0.3329  0.0397  0.0233
 9001SOL    HW129010   1.052   9.340   2.553 -1.0864 -0.5489  1.2171
 9001SOL    HW229011   1.192   9.303   2.598  0.7146  1.3951 -2.2713
 9002SOL     OW29012   7.084   6.318   0.133 -0.9587 -0.1068 -0.0980
 9002SOL    HW129013   7.096   6.413   0.128 -1.4447 -0.0290  0.1616
 9002SOL    HW229014   6.997   6.303   0.095 -1.0608 -0.4007  0.2479
 9003SOL     OW29015   7.492   4.618   8.643 -0.3585 -0.0071  0.3388
 9003SOL    HW129016   7.448   4.654   8.720 -2.9879  0.9833 -1.4779
 9003SOL    HW229017   7.489   4.689   8.579 -4.7442 -2.7796 -3.0243
 9004SOL     OW29018   3.277   4.525  11.258  0.3378  0.1870  0.1797
 9004SOL    HW129019   3.259   4.493  11.346  0.4430  1.1415  0.5592
 9004SOL    HW229020   3.371   4.510  11.246  0.5025  0.8475  0.5761
 9005SOL     OW29021   7.106   9.013   7.178 -0.4522 -0.8239 -0.3932
 9005SOL    HW129022   7.134   8.999   7.088 -0.1485  0.0093 -0.4364
 9005SOL    HW229023   7.011   9.006   7.176 -0.3917 -1.6065 -0.6276
 9006SOL     OW29024   9.070   7.573  11.123  0.3097 -0.2168 -0.2818
 9006SOL    HW129025   9.072   7.528  11.208 -3.4006 -1.0947 -0.4928
 9006SOL    HW229026   9.073   7.666  11.145  0.8116 -0.4516  0.6906
 9007SOL     OW29027  10.277   0.530   4.730  0.4829 -0.0627 -0.2587
 9007SOL    HW129028  10.330   0.609   4.735  0.7605 -0.2586 -0.0229
 9007SOL    HW229029  10.261   0.506   4.822  0.1770 -0.1294 -0.3286
 9008SOL     OW29030   7.362   1.784   3.824 -0.0083 -0.3191  0.4170
 9008SOL    HW129031   7.454   1.809   3.814  0.0141 -0.8650 -1.0306
 9008SOL    HW229032   7.359   1.732   3.904  0.9966 -0.5585  0.3089
 9009SOL     OW29033   9.088   8.702  10.945 -0.6209 -0.2599 -0.3623
 9009SOL    HW129034   9.156   8.720  10.881 -0.8656  1.8597 -0.0803
 9009SOL    HW229035   9.126   8.727  11.029 -1.2400 -0.4496 -0.0167
 9010SOL     OW29036   4.214   2.807   7.667 -0.3803 -0.5879  0.1447
 9010SOL    HW129037   4.241   2.841   7.582 -2.0293  1.2481  0.2931
 9010SOL    HW229038   4.294   2.807   7.719 -0.0842  2.3262 -0.1468
 9011SOL     OW29039   9.865   3.519   6.057  0.7452  0.4278 -0.4254
 9011SOL    HW129040   9.812   3.549   6.130  2.2930 -0.6586  1.2117
 9011SOL    HW229041   9.803   3.480   5.996 -0.4627  0.2339  0.8856
 9012SOL     OW29042   0.557  10.325   4.222  0.5758  0.3452 -0.3418
 9012SOL    HW129043   0.526  10.323   4.132  0.7439 -0.5539 -0.3960
 9012SOL    HW229044   0.500  10.387   4.267 -0.3171 -0.1487 -0.7811
 9013SOL     OW29045  10.833   5.958  10.997  0.1782 -0.0247  0.2420
 9013SOL    HW129046  10.866   5.899  10.930 -1.0787 -0.5100  0.0094
 9013SOL    HW229047  10.739   5.939  11.001  0.4444 -1.1596  3.2911
 9014SOL     OW29048   6.202   4.837   7.858  0.0659 -0.0968  0.0723
 9014SOL    HW129049   6.147   4.895   7.911  1.2671 -0.4025  1.7415
 9014SOL    HW229050   6.186   4.865   7.768 -1.5900  0.8606  0.6162
 9015SOL     OW29051  10.845   9.429   4.929  0.0902 -0.3000  0.2447
 9015SOL    HW129052  10.795   9.469   4.857  1.8390  1.5966  0.0159
 9015SOL    HW229053  10.834   9.335   4.914 -0.4482  0.0301 -1.9167
 9016SOL     OW29054   9.595   1.455   8.915 -0.5418  0.7252  0.3275
 9016SOL    HW129055   9.507   1.419   8.910 -0.5428  0.4851  1.6696
 9016SOL    HW229056   9.583   1.550   8.901 -0.9814  0.6735  0.3372
 9017SOL     OW29057   2.365   3.464  10.367 -0.2335  0.1059 -0.6611
 9017SOL    HW129058   2.378   3.454  10.273  0.2151  0.7111 -0.6688
 9017SOL    HW229059   2.281   3.508  10.376 -0.3075 -0.0133 -0.7761
 9018SOL     OW29060   8.086   9.542   3.456 -0.4580  0.3012 -0.3292
 9018SOL    HW129061   8.038   9.461   3.472 -1.0440  0.7832  0.4468
 9018SOL    HW229062   8.169   9.530   3.503 -0.2766 -0.0905 -0.7439
 9019SOL     OW29063   8.602   8.850  10.166 -0.9070  0.3038 -0.1296
 9019SOL    HW129064   8.525   8.793  10.156  1.2894 -2.5682 -2.2451
 9019SOL    HW229065   8.647   8.816  10.242 -1.8586  2.3365  1.4424
 9020SOL     OW29066   4.826   8.297   1.570 -0.3005 -0.3224  0.6315
 9020SOL    HW129067   4.771   8.356   1.520  1.3382  1.3845  0.7465
 9020SOL    HW229068   4.777   8.215   1.573 -3.6255  1.5305  2.1756
 9021SOL     OW29069   4.705   8.896   1.869 -0.4667 -0.8645 -0.1813
 9021SOL    HW129070   4.676   8.981   1.836 -0.7602 -1.0702 -0.4627
 9021SOL    HW229071   4.673   8.893   1.959 -2.5806 -1.6560 -0.9013
 9022SOL     OW29072   9.231   0.843   6.559 -0.1185 -0.2867 -0.2565
 9022SOL    HW129073   9.207   0.807   6.474 -2.6939  1.1519 -0.2495
 9022SOL    HW229074   9.245   0.766   6.615  0.9552 -1.2411 -1.7616
 9023SOL     OW29075   6.493   2.823   1.595  0.0568  0.2850 -0.1107
 9023SOL    HW129076   6.511   2.916   1.603 -1.1084  0.4510  0.8072
 9023SOL    HW229077   6.400   2.814   1.615  0.5453 -1.2823  1.8224
 9024SOL     OW29078   7.545   2.304   1.425  0.2964  0.8151 -0.1854
 9024SOL    HW129079   7.531   2.389   1.467  1.0090  0.5073  0.7080
 9024SOL    HW229080   7.504   2.312   1.339  2.2772  2.8389 -1.0300
 9025SOL     OW29081   3.241   4.853   0.465  0.3601  0.0217  0.3910
 9025SOL    HW129082   3.281   4.918   0.407  1.3222  0.0620  1.0797
 9025SOL    HW229083   3.219   4.780   0.406  1.3387  0.0503 -0.0470
 9026SOL     OW29084  11.053  10.199   0.006 -0.9166 -0.1664 -0.0346
 9026SOL    HW129085  11.094  10.134   0.063  2.2446  0.5285 -1.3364
 9026SOL    HW229086  11.067  10.167  -0.083 -1.8277  0.9257 -0.6079
 9027SOL     OW29087   2.898   1.311   3.053 -0.0585 -0.4498  0.1012
 9027SOL    HW129088   2.992   1.324   3.053 -0.1935  1.1953 -2.5271
 9027SOL    HW229089   2.884   1.234   2.997 -0.2509 -1.8607  1.9788
 9028SOL     OW29090   6.109  10.800   0.980 -0.0745  0.1385 -0.1849
 9028SOL    HW129091   6.030  10.853   0.974  0.7156  1.2961 -0.5604
 9028SOL    HW229092   6.180  10.863   0.988  0.9739 -0.8330 -1.4723
 9029SOL     OW29093   6.654   3.150   7.915  0.5119 -0.0155  0.3467
 9029SOL    HW129094   6.602   3.196   7.849  1.3104  0.8149  0.2859
 9029SOL    HW229095   6.744   3.176   7.898  0.9091 -1.0337  0.7772
 9030SOL     OW29096  10.981   5.135   5.874  0.1295 -0.2846 -0.1829
 9030SOL    HW129097  11.051   5.186   5.915  1.1791 -1.2062 -0.7732
 9030SOL    HW229098  10.904   5.193   5.877  0.6843  0.4298  1.2307
 9031SOL     OW29099   2.557   4.926   9.492 -0.6297 -0.7565 -0.2318
 9031SOL    HW129100   2.537   4.920   9.399 -0.0476  0.8123 -0.4894
 9031SOL    HW229101   2.472   4.939   9.534 -0.6903  0.9996 -0.8213
 9032SOL     OW29102   9.000   1.943   8.724  0.2963  0.0608 -0.3774
 9032SOL    HW129103   9.015   2.037   8.720  0.3678  0.0022 -2.3053
 9032SOL    HW229104   9.082   1.907   8.757  0.8489  0.5573 -1.1762
 9033SOL     OW29105   0.865   7.894   7.489 -0.6377  0.2810  0.0850
 9033SOL    HW129106   0.856   7.848   7.406  0.1310  1.6026 -0.7869
 9033SOL    HW229107   0.958   7.920   7.491 -0.4953 -0.2863  1.6719
 9034SOL     OW29108   0.892   8.422   2.834 -0.5083  0.3935  0.5197
 9034SOL    HW129109   0.820   8.363   2.852 -0.6352  0.3206 -0.2375
 9034SOL    HW229110   0.969   8.366   2.829 -0.8006  0.1106 -1.4342
 9035SOL     OW29111   0.890   7.137  10.198  0.3240  0.5127  0.1642
 9035SOL    HW129112   0.836   7.099  10.267 -1.5519  0.4729 -1.2442
 9035SOL    HW229113   0.861   7.228  10.191  2.6777  1.4653  1.4550
 9036SOL     OW29114  10.959   0.401  10.202  0.6280 -0.5899 -0.2864
 9036SOL    HW129115  10.960   0.306  10.186 -3.2020 -0.8839  0.1972
 9036SOL    HW229116  10.952   0.409  10.297  1.7222  0.2628 -0.2602
 9037SOL     OW29117   2.425   9.481   6.453 -0.2324 -0.0248  0.0257
 9037SOL    HW129118   2.457   9.532   6.379  2.2309 -0.6989  0.5382
 9037SOL    HW229119   2.335   9.511   6.466  0.9452  4.0716  0.1750
 9038SOL     OW29120   4.076   2.305   8.361 -0.3713 -0.0413 -0.0322
 9038SOL    HW129121   3.993   2.323   8.318 -2.0472  0.8857  3.3214
 9038SOL    HW229122   4.122   2.389   8.361 -0.2147 -0.1265 -0.3151
 9039SOL     OW29123   0.460   6.383   6.175  0.7336  0.0297  0.2584
 9039SOL    HW129124   0.366   6.379   6.195  0.0102  3.5050 -1.7077
 9039SOL    HW229125   0.466   6.438   6.097  4.4469  0.0257  0.3639
 9040SOL     OW29126  10.821   1.161   9.466 -0.4772  0.0653  0.0331
 9040SOL    HW129127  10.727   1.178   9.463 -0.4964 -0.1806 -1.7466
 9040SOL    HW229128  10.829   1.079   9.516 -1.3087 -0.5115 -0.7529
 9041SOL     OW29129   1.262   6.707  10.874  0.2806  1.0670 -0.4577
 9041SOL    HW129130   1.288   6.716  10.782  1.9811  1.1601 -0.0121
 9041SOL    HW229131   1.333   6.657  10.914 -0.5018  0.9096  0.7811
 9042SOL     OW29132   7.355   9.716   6.650  0.0971 -0.3378 -0.4194
 9042SOL    HW129133   7.409   9.645   6.615  0.9808 -0.2481  0.6971
 9042SOL    HW229134   7.407   9.753   6.722  0.4559  2.5657 -1.9952
 9043SOL     OW29135   7.377   4.578   5.205 -0.2904  0.2255 -0.8406
 9043SOL    HW129136   7.384   4.482   5.202 -0.2860  0.0918  1.2738
 9043SOL    HW229137   7.394   4.607   5.116  1.4302 -1.6569 -1.2031
 9044SOL     OW29138   6.603   6.253   3.858 -0.0909 -0.0162  0.3057
 9044SOL    HW129139   6.619   6.244   3.764  0.4498  0.6828  0.3235
 9044SOL    HW229140   6.662   6.189   3.898  2.2252  2.0069  0.3250
 9045SOL     OW29141   6.377   7.121  10.200  0.1018 -0.1410  0.2351
 9045SOL    HW129142   6.384   7.187  10.130 -0.9597 -0.0229  0.2204
 9045SOL    HW229143   6.375   7.037  10.154 -2.5632  0.0085 -0.0851
 9046SOL     OW29144   9.531   0.091   7.786 -0.2107 -0.5993  0.0189
 9046SOL    HW129145   9.586   0.168   7.796  0.7114 -1.2598  0.2350
 9046SOL    HW229146   9.581   0.021   7.829 -1.8151 -0.9653  1.3995
 9047SOL     OW29147   4.373   2.989   4.504 -0.3266  0.1945 -0.6334
 9047SOL    HW129148   4.321   2.991   4.424 -1.1594 -0.4410 -0.1246
 9047SOL    HW229149   4.310   2.969   4.573  0.1401  1.9926  0.3769
 9048SOL     OW29150   6.883  10.389  10.159 -0.2423  0.3745  0.3729
 9048SOL    HW129151   6.847  10.428  10.079 -0.3248 -1.6129 -0.6044
 9048SOL    HW229152   6.809  10.342  10.198  0.4542 -0.9303  0.1497
 9049SOL     OW29153   2.824   8.662   0.759  0.5395  0.5342 -0.1423
 9049SOL    HW129154   2.869   8.741   0.729  2.1949 -0.3326 -0.0612
 9049SOL    HW229155   2.802   8.680   0.850 -0.8680  1.6330 -0.6793
 9050SOL     OW29156   0.838   5.066   5.326  0.0557 -0.5938 -0.3420
 9050SOL    HW129157   0.832   5.006   5.251  0.5011  0.3841 -1.1949
 9050SOL    HW229158   0.778   5.138   5.303 -0.9931 -1.0124  0.9766
 9051SOL     OW29159   5.707   0.142   6.716 -0.2799 -0.7418  0.2183
 9051SOL    HW129160   5.783   0.086   6.725 -0.9379 -1.6691  0.1643
 9051SOL    HW229161   5.738   0.216   6.663  0.5500 -1.1492  0.1158
 9052SOL     OW29162   7.557   0.153   0.601 -0.5272 -0.0851  0.0016
 9052SOL    HW129163   7.610   0.158   0.680 -1.3560 -3.4347  0.9339
 9052SOL    HW229164   7.536   0.245   0.580  3.6102  1.2586  0.8236
 9053SOL     OW29165   8.040   3.218   1.370  0.2576 -0.1453  0.4046
 9053SOL    HW129166   8.132   3.206   1.392  0.5563  2.3531  0.7385
 9053SOL    HW229167   7.993   3.189   1.448  0.5254 -3.6032 -0.5574
 9054SOL     OW29168   5.268  10.270   6.636  0.2926 -0.3158  0.0192
 9054SOL    HW129169   5.356  10.236   6.619 -0.9415 -2.3128 -3.3177
 9054SOL    HW229170   5.249  10.325   6.560 -1.5342 -0.3739  0.4093
 9055SOL     OW29171   5.301   6.010   8.607  0.0007 -0.7264 -0.6145
 9055SOL    HW129172   5.303   6.105   8.591  0.1949 -0.6869 -0.3665
 9055SOL    HW229173   5.376   5.994   8.665  0.7201 -1.2215 -1.6361
 9056SOL     OW29174   6.402  10.056   3.120 -0.1007 -0.6448 -0.0685
 9056SOL    HW129175   6.459  10.099   3.057 -0.8674 -0.9154 -0.9588
 9056SOL    HW229176   6.331  10.118   3.135 -1.4616 -1.7118 -1.7157
 9057SOL     OW29177   5.970   4.001   6.384  0.1297  0.0394  0.2297
 9057SOL    HW129178   5.941   4.069   6.323 -0.3585 -0.2067  0.1826
 9057SOL    HW229179   5.921   3.923   6.357  0.6800 -0.3282  0.2898
 9058SOL     OW29180   8.603   1.549   4.904  0.6738 -0.0737  0.4713
 9058SOL    HW129181   8.644   1.490   4.840 -1.2009 -2.6632  1.4860
 9058SOL    HW229182   8.635   1.519   4.989 -3.0732 -2.2777  1.3263
 9059SOL     OW29183   4.504   8.613   7.639  0.4478 -0.3160  0.2409
 9059SOL    HW129184   4.433   8.652   7.587  1.6831  1.7586 -0.0299
 9059SOL    HW229185   4.576   8.601   7.577  0.2830 -2.7143  0.4394
 9060SOL     OW29186   0.777   4.494   6.009  0.1603 -0.2624 -0.2346
 9060SOL    HW129187   0.765   4.439   5.931  1.9515 -0.5216 -0.3773
 9060SOL    HW229188   0.803   4.432   6.077  1.2934  0.2734 -0.1582
 9061SOL     OW29189   8.550   2.680   2.850 -0.6155  0.5123 -0.0433
 9061SOL    HW129190   8.455   2.689   2.860 -0.5348  1.3273  0.0225
 9061SOL    HW229191   8.578   2.630   2.927 -1.2557 -1.6526 -1.1239
 9062SOL     OW29192   2.160   6.907   8.413 -0.0935  0.8451  0.0882
 9062SOL    HW129193   2.234   6.961   8.386  2.7931 -3.3778 -1.4686
 9062SOL    HW229194   2.181   6.879   8.501  0.9542 -1.3158 -0.7755
 9063SOL     OW29195   6.468   0.359   6.654  0.2482 -0.1527 -0.3564
 9063SOL    HW129196   6.417   0.440   6.662 -1.8064 -1.5213  1.2194
 9063SOL    HW229197   6.553   0.389   6.621  0.4925  2.9986  2.5864
 9064SOL     OW29198   9.117   1.512   5.073 -0.0132 -0.2838 -0.6514
 9064SOL    HW129199   9.158   1.598   5.074 -0.6201  0.0605  1.8940
 9064SOL    HW229200   9.109   1.490   4.980  1.2555  1.8412 -1.3315
 9065SOL     OW29201   4.107   8.593   9.070  0.7706  0.7600  0.3588
 9065SOL    HW129202   4.112   8.524   9.135 -1.2699  0.6442  0.4506
 9065SOL    HW229203   4.098   8.674   9.121  0.3803  0.7906  0.2484
 9066SOL     OW29204   4.332   0.840   9.291  0.1176  0.4914 -0.0090
 9066SOL    HW129205   4.335   0.764   9.232 -1.1870  0.3702  0.0549
 9066SOL    HW229206   4.245   0.877   9.278 -0.1877  0.4816  1.8090
 9067SOL     OW29207   9.064   8.041   7.848 -0.9961 -0.0896 -0.2878
 9067SOL    HW129208   9.145   8.089   7.863 -2.2015  1.8986  0.1295
 9067SOL    HW229209   9.087   7.949   7.866  1.1696  0.4007 -0.3281
 9068SOL     OW29210   9.357   8.032   9.440 -0.3198 -0.1254 -0.7254
 9068SOL    HW129211   9.312   7.950   9.417 -0.2073  0.0585 -1.6060
 9068SOL    HW229212   9.377   8.073   9.356 -0.2089  0.7213 -0.2893
 9069SOL     OW29213   2.229   1.929   1.748  0.0871 -0.0148  0.4765
 9069SOL    HW129214   2.229   1.836   1.725 -0.9595  0.4892 -1.8513
 9069SOL    HW229215   2.166   1.936   1.820 -0.2597 -1.0236  0.2889
 9070SOL     OW29216   1.679   6.815   3.942  0.1239 -0.2273 -0.5297
 9070SOL    HW129217   1.666   6.820   3.847 -1.0775 -2.3574 -0.5257
 9070SOL    HW229218   1.750   6.751   3.953  0.3717  0.1362  0.0297
 9071SOL     OW29219   7.457   2.460  10.889  0.0119 -0.0742  0.1513
 9071SOL    HW129220   7.524   2.393  10.903  1.1804  1.0455  0.0805
 9071SOL    HW229221   7.400   2.454  10.966  1.0527 -0.0650  0.9448
 9072SOL     OW29222   8.913  10.559   1.089  0.1906 -0.2966  0.0573
 9072SOL    HW129223   8.829  10.600   1.070  1.2591  3.6044  2.4894
 9072SOL    HW229224   8.897  10.465   1.079 -3.9395  0.3393 -1.1692
 9073SOL     OW29225   6.538   7.246   8.534  0.2001 -0.2188 -0.0487
 9073SOL    HW129226   6.462   7.189   8.545  1.6887 -2.2651  0.2271
 9073SOL    HW229227   6.562   7.237   8.442 -0.6073  1.4636 -0.4722
 9074SOL     OW29228   4.535   8.145   4.319 -0.4432  0.0985  0.2219
 9074SOL    HW129229   4.566   8.222   4.367 -0.2579 -0.2403  0.6669
 9074SOL    HW229230   4.611   8.086   4.319 -0.6035 -0.1087 -0.0563
 9075SOL     OW29231  10.224   4.753  11.119  0.0747  0.4170  0.1424
 9075SOL    HW129232  10.287   4.791  11.059 -0.0246 -0.7975 -0.7533
 9075SOL    HW229233  10.148   4.732  11.065 -0.6256  0.7080  0.9767
 9076SOL     OW29234   2.520   3.387   5.281  0.1768 -0.0241  0.1228
 9076SOL    HW129235   2.507   3.293   5.295  0.6368 -0.0948  0.0654
 9076SOL    HW229236   2.611   3.403   5.305  0.9475 -0.0968 -2.4740
 9077SOL     OW29237   1.284   2.452   9.182 -0.1826 -0.0606 -0.4660
 9077SOL    HW129238   1.367   2.423   9.221  0.3683  1.7644 -0.2086
 9077SOL    HW229239   1.218   2.427   9.247  0.4172  0.4450  0.3509
 9078SOL     OW29240   8.392   3.740   5.083  1.0010  1.2104  0.6980
 9078SOL    HW129241   8.392   3.660   5.031  0.8758  2.1507 -0.8131
 9078SOL    HW229242   8.376   3.711   5.173  1.9552 -0.5348  0.3449
 9079SOL     OW29243   8.900   0.291   6.621 -0.0927 -0.0620  0.1351
 9079SOL    HW129244   8.958   0.239   6.565 -0.6603 -0.1358 -0.3961
 9079SOL    HW229245   8.959   0.349   6.669  0.4020  0.0299 -0.5753
 9080SOL     OW29246  10.506   1.751   5.281 -0.2838 -0.8019 -0.7263
 9080SOL    HW129247  10.530   1.833   5.324  1.4044 -0.8110 -1.5459
 9080SOL    HW229248  10.444   1.710   5.341  0.7456 -0.0801  0.9342
 9081SOL     OW29249   5.972   3.448   6.206  0.3322  0.5431  0.0714
 9081SOL    HW129250   6.067   3.458   6.220  0.6711 -1.2509 -0.7251
 9081SOL    HW229251   5.963   3.435   6.112 -0.2269 -3.1587  0.4910
 9082SOL     OW29252   3.639   2.015   9.933  0.0229 -0.1008 -0.4620
 9082SOL    HW129253   3.567   1.995   9.993 -0.4383  0.4941 -0.8059
 9082SOL    HW229254   3.660   2.106   9.951  0.1977 -0.0583 -0.8818
 9083SOL     OW29255  11.053   6.499   2.215 -0.5934  0.1390  0.1647
 9083SOL    HW129256  10.990   6.549   2.163 -1.1001 -0.0333  0.6000
 9083SOL    HW229257  11.025   6.512   2.306 -0.6478 -0.8176  0.2920
 9084SOL     OW29258   9.376   4.931   4.186  0.0661  0.1658 -0.1200
 9084SOL    HW129259   9.402   4.840   4.177 -1.7960 -0.3622 -0.6909
 9084SOL    HW229260   9.458   4.980   4.189  1.0996 -1.5190  0.2748
 9085SOL     OW29261   8.082   4.843   6.750  0.8551 -0.3053  0.1378
 9085SOL    HW129262   8.040   4.928   6.766  0.7020 -0.0608 -1.4559
 9085SOL    HW229263   8.174   4.864   6.735  0.9560 -0.5105  0.4538
 9086SOL     OW29264   6.847   4.106   7.609  0.0409 -0.7164  0.4170
 9086SOL    HW129265   6.849   4.187   7.661 -1.4533 -0.0527 -0.4775
 9086SOL    HW229266   6.939   4.085   7.593  0.4743  1.8235 -0.8320
 9087SOL     OW29267   4.908   5.148   5.479 -0.0612 -0.1297  0.7449
 9087SOL    HW129268   4.917   5.234   5.437  1.0240 -0.6859 -0.2131
 9087SOL    HW229269   4.971   5.151   5.551  0.5461 -0.3930  0.2314
 9088SOL     OW29270  11.092   4.569   6.041 -0.1355  0.3174  0.0925
 9088SOL    HW129271  11.158   4.560   5.972 -0.5396  0.8924 -0.3711
 9088SOL    HW229272  11.076   4.479   6.070  1.4564  0.2209  0.7939
 9089SOL     OW29273   7.155   2.496   8.797 -0.2762  0.3442  0.1900
 9089SOL    HW129274   7.173   2.473   8.706  0.2147 -0.0629  0.3899
 9089SOL    HW229275   7.070   2.455   8.815 -0.1568  0.0374  0.0566
 9090SOL     OW29276   6.834  10.458   1.098 -0.2540  0.1952  0.4776
 9090SOL    HW129277   6.897  10.387   1.110 -1.8175 -1.1362  1.0769
 9090SOL    HW229278   6.888  10.532   1.069  1.3468 -1.3798 -0.8560
 9091SOL     OW29279   6.088   1.013   0.636 -0.4640 -1.1098  0.9190
 9091SOL    HW129280   6.123   0.932   0.599  1.1908 -0.7650  1.6286
 9091SOL    HW229281   6.015   0.985   0.691 -0.4098 -2.0262  0.5392
 9092SOL     OW29282   2.700   3.238   8.692 -0.1851 -0.0559  0.0575
 9092SOL    HW129283   2.690   3.218   8.599 -0.3935  0.3379 -0.0072
 9092SOL    HW229284   2.724   3.154   8.732 -3.9439 -1.1955  0.2715
 9093SOL     OW29285   3.770  10.663   3.150 -0.1531 -0.2243 -0.0889
 9093SOL    HW129286   3.865  10.656   3.143 -0.1896 -1.1977  0.1528
 9093SOL    HW229287   3.751  10.757   3.145  0.8565  0.0073  0.3190
 9094SOL     OW29288   2.589   6.380   2.327  0.5822  0.2406  0.3338
 9094SOL    HW129289   2.503   6.365   2.289  0.9458 -1.7379  0.1849
 9094SOL    HW229290   2.571   6.409   2.416 -0.2701 -1.2863  0.6940
 9095SOL     OW29291   4.116   5.700   0.362 -0.3814  0.1878  0.0867
 9095SOL    HW129292   4.198   5.728   0.322 -1.3661  1.7359 -0.9801
 9095SOL    HW229293   4.098   5.766   0.429 -0.4412 -0.4886  0.7403
 9096SOL     OW29294   5.179   0.847   4.146 -0.5091 -0.5200  0.0605
 9096SOL    HW129295   5.171   0.859   4.052 -0.6386  0.4689  0.1878
 9096SOL    HW229296   5.142   0.927   4.184 -0.4287 -0.8896  0.9488
 9097SOL     OW29297   9.830   5.352   1.560 -0.4876 -0.4247  0.5691
 9097SOL    HW129298   9.735   5.350   1.543 -0.5881  1.3806  0.7168
 9097SOL    HW229299   9.837   5.373   1.653  0.0731 -1.4728  0.7707
 9098SOL     OW29300   1.315   1.329   7.157 -0.0632  0.0514  0.6523
 9098SOL    HW129301   1.325   1.309   7.064  1.5533 -0.8405  0.9854
 9098SOL    HW229302   1.221   1.321   7.173 -0.2284 -0.9705 -0.6577
 9099SOL     OW29303   6.742   2.157   0.473  1.0472  0.0340 -0.3969
 9099SOL    HW129304   6.758   2.251   0.461  0.2919 -0.0965 -3.1633
 9099SOL    HW229305   6.803   2.114   0.413 -0.1533 -1.1142 -0.8376
 9100SOL     OW29306   3.419  10.747  10.528  0.7569  0.3495  0.6165
 9100SOL    HW129307   3.457  10.766  10.614 -0.7599  0.7823  1.2346
 9100SOL    HW229308   3.485  10.694  10.483  0.5269 -2.1794  3.0279
 9101SOL     OW29309   2.534   4.929   5.639 -0.0692  0.6587 -0.0296
 9101SOL    HW129310   2.540   5.013   5.594  1.8090  0.3634 -0.4277
 9101SOL    HW229311   2.601   4.934   5.708 -1.4881  0.3204  1.4189
 9102SOL     OW29312   7.996   4.325   1.164 -0.2409 -0.2356  0.2835
 9102SOL    HW129313   7.925   4.390   1.164 -0.4150 -0.4203 -0.2040
 9102SOL    HW229314   7.950   4.241   1.161 -0.0067 -0.3628  0.3137
 9103SOL     OW29315   8.644   5.747   8.403 -0.4314 -0.9081 -0.0028
 9103SOL    HW129316   8.718   5.764   8.344 -0.9503  0.1461 -0.3919
 9103SOL    HW229317   8.672   5.782   8.487 -1.1627  1.3114 -0.5993
 9104SOL     OW29318   9.889   5.323   0.228 -0.4383 -0.3513 -0.5119
 9104SOL    HW129319   9.980   5.338   0.252 -0.3635  0.0726 -1.0384
 9104SOL    HW229320   9.890   5.241   0.178 -0.6168 -1.3206  1.0002
 9105SOL     OW29321   1.430   3.643   2.922  0.3788  0.8896 -0.2977
 9105SOL    HW129322   1.454   3.687   3.004  1.3349 -0.7433  0.3474
 9105SOL    HW229323   1.416   3.714   2.860 -0.0570  2.1642  1.1834
 9106SOL     OW29324   3.806   6.766   6.807  0.0127  0.1960  0.2618
 9106SOL    HW129325   3.775   6.700   6.745  1.5572 -1.5387  1.2501
 9106SOL    HW229326   3.856   6.828   6.753 -0.7571  0.1162 -0.5621
 9107SOL     OW29327  11.030  10.818  10.228 -0.1327 -0.6854 -0.1506
 9107SOL    HW129328  10.941  10.841  10.252  0.1925 -1.2481  1.7078
 9107SOL    HW229329  11.034  10.723  10.237  0.6781 -0.6561 -0.1064
 9108SOL     OW29330   5.329   2.781   4.565 -0.0877 -0.0067  0.8494
 9108SOL    HW129331   5.401   2.842   4.548 -0.4671  0.4045  0.7127
 9108SOL    HW229332   5.283   2.818   4.640 -0.5358  0.0722  0.5404
 9109SOL     OW29333   1.550   2.982   1.427  0.0840 -0.6536  0.0510
 9109SOL    HW129334   1.621   3.046   1.419  1.0682 -1.5468  1.2477
 9109SOL    HW229335   1.578   2.924   1.497 -3.5321  1.2012  3.4560
 9110SOL     OW29336   1.722   0.341   3.456  0.2567  0.1298  0.0462
 9110SOL    HW129337   1.651   0.293   3.498 -0.4469  1.3194  0.2638
 9110SOL    HW229338   1.698   0.344   3.363  0.8418 -0.8255 -0.1566
 9111SOL     OW29339  10.053   6.718   4.213  0.0579  0.5024 -0.3045
 9111SOL    HW129340  10.076   6.697   4.123 -0.0496  0.3022 -0.2856
 9111SOL    HW229341   9.957   6.727   4.212  0.2047  2.8182 -0.7079
 9112SOL     OW29342   9.887   6.803   0.787 -0.1083 -0.0796 -0.4413
 9112SOL    HW129343   9.885   6.842   0.700 -1.7639 -0.0880 -0.4318
 9112SOL    HW229344   9.832   6.860   0.840 -0.4522 -0.9917  0.2046
 9113SOL     OW29345  10.782   0.954   7.858  0.9348  0.1016  0.4503
 9113SOL    HW129346  10.842   0.958   7.932  3.3139  1.9748 -1.4085
 9113SOL    HW229347  10.720   1.025   7.873  2.2624  1.3826  0.0218
 9114SOL     OW29348   2.378   3.613   5.198 -0.4073  0.4460 -0.5688
 9114SOL    HW129349   2.431   3.544   5.238  0.8506 -0.0200 -2.8696
 9114SOL    HW229350   2.408   3.617   5.107 -3.5698  0.9231 -1.7389
 9115SOL     OW29351   6.104   6.869   5.646  0.0035  0.3486  0.5002
 9115SOL    HW129352   6.151   6.935   5.698  0.3130 -0.2722  1.0286
 9115SOL    HW229353   6.161   6.793   5.648  0.3981  0.5446 -1.4366
 9116SOL     OW29354   8.703   6.342   4.080  0.2480  0.5076  0.0425
 9116SOL    HW129355   8.684   6.435   4.073  0.1699  0.4581 -0.4440
 9116SOL    HW229356   8.618   6.299   4.069  0.3557  0.3614 -0.2335
 9117SOL     OW29357   5.340   9.578   6.785  0.1824  0.2043 -0.4221
 9117SOL    HW129358   5.336   9.568   6.690 -0.1840  3.3316 -0.8678
 9117SOL    HW229359   5.324   9.672   6.800  1.5459  0.1001  2.6367
 9118SOL     OW29360   9.129   9.951  11.173 -0.3064 -0.2017  0.5065
 9118SOL    HW129361   9.158  10.012  11.105  0.2811 -0.1021  0.8483
 9118SOL    HW229362   9.182   9.873  11.160 -1.6011 -0.9785 -0.4417
 9119SOL     OW29363   4.218   0.905   5.991  0.4745  0.3129 -0.8070
 9119SOL    HW129364   4.233   0.955   6.072 -1.2986  0.2833 -0.4120
 9119SOL    HW229365   4.142   0.947   5.951 -1.5078 -2.3574 -0.1525
 9120SOL     OW29366   6.890   7.256  10.058 -0.5266 -0.2426  0.6803
 9120SOL    HW129367   6.959   7.227  10.118  0.1121  1.3486  0.7663
 9120SOL    HW229368   6.819   7.193  10.071  0.6133 -1.4866  1.1374
 9121SOL     OW29369   8.476   9.963   9.580  0.2916  0.0361 -0.3617
 9121SOL    HW129370   8.456   9.993   9.669 -1.9451  0.1254 -0.8289
 9121SOL    HW229371   8.402   9.994   9.527  0.8338 -1.2697 -1.9792
 9122SOL     OW29372  10.290   3.433   5.972 -0.0587 -0.0380  0.3751
 9122SOL    HW129373  10.234   3.455   6.047  0.5213 -0.7086  1.0293
 9122SOL    HW229374  10.379   3.444   6.005  0.1999 -0.0950 -0.2981
 9123SOL     OW29375  10.732   9.765   6.749  0.2015 -0.6845  0.8326
 9123SOL    HW129376  10.663   9.773   6.815  1.2852  0.8329  1.8507
 9123SOL    HW229377  10.718   9.840   6.691 -1.2066 -2.4136 -1.2202
 9124SOL     OW29378   0.814  11.177   0.299  0.2178  0.0315  0.9443
 9124SOL    HW129379   0.817  11.104   0.361  0.2441 -0.6552  0.1477
 9124SOL    HW229380   0.892  11.228   0.319  2.2253 -2.1216 -0.8090
 9125SOL     OW29381  11.172   4.077   6.955 -0.3556 -0.0040 -0.3334
 9125SOL    HW129382  11.247   4.023   6.930  0.3509  0.9808 -0.4152
 9125SOL    HW229383  11.096   4.028   6.925  0.2474 -1.0435 -0.2244
 9126SOL     OW29384   9.790   3.337   7.315 -0.1774  0.0958 -0.3516
 9126SOL    HW129385   9.800   3.327   7.220  0.8039  0.1579 -0.2590
 9126SOL    HW229386   9.723   3.272   7.339 -0.2882 -0.0581 -1.0538
 9127SOL     OW29387   6.765  10.543   4.708  0.4909 -0.0631  0.4136
 9127SOL    HW129388   6.854  10.569   4.732  0.5791 -1.2930  1.5350
 9127SOL    HW229389   6.739  10.481   4.776 -0.7995 -0.6087 -0.5392
 9128SOL     OW29390   1.658   4.181   0.125 -0.5850  0.3223 -0.2645
 9128SOL    HW129391   1.690   4.184   0.035 -0.1488  1.0616 -0.0931
 9128SOL    HW229392   1.603   4.102   0.129  0.9357 -0.7915 -0.6543
 9129SOL     OW29393  10.727   0.745   8.168  0.3112  0.1688 -0.2828
 9129SOL    HW129394  10.658   0.772   8.107  0.3218 -1.4909 -1.0744
 9129SOL    HW229395  10.683   0.744   8.253  0.3117  2.5511 -0.1995
 9130SOL     OW29396  10.084   4.560  11.257  0.0074 -0.4881 -0.2466
 9130SOL    HW129397  10.147   4.615  11.210  0.6928 -0.2947  0.8531
 9130SOL    HW229398  10.130   4.533  11.337 -1.9786  1.4273  1.7061
 9131SOL     OW29399   5.991   3.997   7.334 -0.2281  0.1367 -0.2715
 9131SOL    HW129400   6.002   3.937   7.409 -0.5440  0.5472  0.1055
 9131SOL    HW229401   6.022   3.946   7.259 -0.6551 -0.5653  0.0195
 9132SOL     OW29402   4.408   1.936  10.760  0.0315 -0.3162  0.8250
 9132SOL    HW129403   4.500   1.913  10.748  0.1886  0.3657  0.6578
 9132SOL    HW229404   4.408   2.032  10.765 -0.8280 -0.2043 -0.6399
 9133SOL     OW29405   9.790   4.140   5.568 -0.5498 -0.5011 -0.7207
 9133SOL    HW129406   9.768   4.198   5.495  0.5807 -0.9976 -1.4724
 9133SOL    HW229407   9.883   4.122   5.558 -0.5594 -1.2685  0.3607
 9134SOL     OW29408   4.116   2.770   5.098  0.3367  0.2505  0.6229
 9134SOL    HW129409   4.147   2.733   5.180 -0.6330  0.8359  1.2742
 9134SOL    HW229410   4.057   2.841   5.124 -2.7086 -1.6868 -0.4863
 9135SOL     OW29411   7.812   1.253   7.136  0.4494 -0.4731 -0.0290
 9135SOL    HW129412   7.720   1.275   7.125  0.4060 -0.9975 -0.7825
 9135SOL    HW229413   7.812   1.171   7.185  0.4968 -0.6908 -0.3882
 9136SOL     OW29414   1.959   0.200   8.157  0.0534  0.0776  0.3158
 9136SOL    HW129415   1.994   0.141   8.224  0.9702  2.4455  2.0598
 9136SOL    HW229416   1.885   0.243   8.200 -0.1805  0.6980 -0.6858
 9137SOL     OW29417   6.948   4.331   8.203  0.4521  0.2377  0.2235
 9137SOL    HW129418   7.017   4.310   8.265  0.1574 -1.1783  0.0971
 9137SOL    HW229419   6.878   4.367   8.256  0.4292 -0.4171  0.6437
 9138SOL     OW29420   5.181   3.564   0.643 -0.3291 -0.0297 -0.4700
 9138SOL    HW129421   5.187   3.524   0.557 -0.2566 -0.6531 -0.1812
 9138SOL    HW229422   5.145   3.651   0.627 -0.5580 -0.2370 -1.0957
 9139SOL     OW29423   2.745   0.979   7.959 -0.0165 -0.6182  0.8105
 9139SOL    HW129424   2.732   0.886   7.942 -1.7231 -0.3111  0.2417
 9139SOL    HW229425   2.826   1.001   7.913 -1.1635 -1.1881 -1.6155
 9140SOL     OW29426   6.713   8.819   9.914 -0.0998 -0.1463 -0.4547
 9140SOL    HW129427   6.645   8.817   9.981 -1.2768  1.5505 -1.5224
 9140SOL    HW229428   6.696   8.743   9.859 -1.5602  0.5742 -1.0514
 9141SOL     OW29429   4.325   1.465   0.737 -0.8437 -0.4158 -0.2045
 9141SOL    HW129430   4.354   1.555   0.745 -1.3228 -0.2012 -0.8188
 9141SOL    HW229431   4.248   1.459   0.793  0.7627 -1.1894  2.0493
 9142SOL     OW29432   9.090   0.871   5.550 -0.1101 -0.1049 -0.4410
 9142SOL    HW129433   9.068   0.836   5.464 -0.6185 -0.5386 -0.1386
 9142SOL    HW229434   9.181   0.843   5.564 -0.6234 -1.7128 -0.0308
 9143SOL     OW29435   1.607   6.799   3.642 -0.2789 -0.4572  0.3223
 9143SOL    HW129436   1.634   6.707   3.633  0.5044 -0.2859  0.8828
 9143SOL    HW229437   1.656   6.845   3.574 -0.1540 -0.3466  0.4877
 9144SOL     OW29438   4.986   9.617   1.870  0.1483 -0.3427 -0.0742
 9144SOL    HW129439   4.975   9.581   1.957 -0.5591  0.8877  0.3771
 9144SOL    HW229440   4.970   9.544   1.811  0.3340 -1.1149  0.8188
 9145SOL     OW29441   7.922   6.885   1.872  0.2532 -0.3279  0.6731
 9145SOL    HW129442   8.006   6.906   1.912  1.5502 -2.6930 -0.6001
 9145SOL    HW229443   7.931   6.910   1.780 -0.7450  0.1052  0.6740
 9146SOL     OW29444   7.623   2.582  10.553  0.3026  0.1926  0.8092
 9146SOL    HW129445   7.542   2.594  10.603 -0.4926  0.8185 -0.5741
 9146SOL    HW229446   7.594   2.575  10.462  1.7011 -0.9607  0.4103
 9147SOL     OW29447   0.398   1.168   9.116  0.2135  0.2583 -0.0466
 9147SOL    HW129448   0.312   1.181   9.156  0.5558 -2.0055  1.5680
 9147SOL    HW229449   0.460   1.207   9.178  0.4777  0.5205 -0.4691
 9148SOL     OW29450   2.023   1.636   2.996  0.7449 -0.4234  0.4523
 9148SOL    HW129451   2.056   1.560   3.043  3.4871  0.1245 -0.4065
 9148SOL    HW229452   1.992   1.601   2.912  0.7031 -0.7433  0.5991
 9149SOL     OW29453   6.387   1.946   6.774  0.5614 -0.3304 -0.1059
 9149SOL    HW129454   6.356   1.999   6.701 -0.1452 -0.0485  0.3867
 9149SOL    HW229455   6.382   2.004   6.850  0.0663 -1.0036  0.3906
 9150SOL     OW29456   9.407   9.069   5.673 -0.3565 -0.1734  0.3420
 9150SOL    HW129457   9.339   9.114   5.623  1.3751  3.1712  0.7619
 9150SOL    HW229458   9.390   9.092   5.764  0.5360 -0.4091  0.5842
 9151SOL     OW29459   2.632   1.591  10.498 -0.0614  0.3249  0.3311
 9151SOL    HW129460   2.682   1.625  10.424  1.4824 -2.0808  0.1229
 9151SOL    HW229461   2.668   1.636  10.574  0.3368  0.7768 -0.1164
 9152SOL     OW29462  10.520   4.791   5.321  0.3646  0.3811  0.2968
 9152SOL    HW129463  10.435   4.810   5.280  0.9632  1.7075 -0.3815
 9152SOL    HW229464  10.503   4.713   5.375 -1.3944  0.8871  0.5483
 9153SOL     OW29465   2.439   1.768   4.669 -0.2428 -1.1312  0.0998
 9153SOL    HW129466   2.484   1.852   4.679 -0.5407 -0.8413 -0.8496
 9153SOL    HW229467   2.507   1.706   4.647 -0.3263 -0.6086 -1.7704
 9154SOL     OW29468  10.430   8.071   2.518  0.5470 -0.0007 -0.0648
 9154SOL    HW129469  10.415   8.160   2.550  0.2571  0.6590 -1.8900
 9154SOL    HW229470  10.487   8.083   2.442  1.7823 -1.5397  0.5667
 9155SOL     OW29471   5.991   3.375   4.290  0.8732 -0.4602  0.0398
 9155SOL    HW129472   5.947   3.317   4.228  1.1030 -1.4033  0.7334
 9155SOL    HW229473   6.082   3.346   4.291  1.2849  0.7571 -0.5532
 9156SOL     OW29474  10.062   6.954   9.473  0.0884  0.0269  0.2381
 9156SOL    HW129475  10.024   7.030   9.518  1.7559  1.7083 -0.9993
 9156SOL    HW229476  10.144   6.937   9.520 -0.3810 -1.2013  0.6475
 9157SOL     OW29477   1.147   8.296   4.255  0.2951 -0.6826  0.5118
 9157SOL    HW129478   1.134   8.221   4.197 -0.0977  0.1121 -0.4488
 9157SOL    HW229479   1.066   8.346   4.248  0.3764 -0.3944  1.4900
 9158SOL     OW29480   6.163   1.432   7.681 -0.1462  0.0084  1.1066
 9158SOL    HW129481   6.084   1.481   7.658 -0.4828 -1.0053  0.0592
 9158SOL    HW229482   6.145   1.395   7.767 -0.0395  1.3572  1.7430
 9159SOL     OW29483   6.261   9.180   8.593 -0.4059  0.1516 -0.5669
 9159SOL    HW129484   6.184   9.184   8.649 -0.3087 -2.2844 -0.1463
 9159SOL    HW229485   6.227   9.151   8.508  0.0223 -1.1358 -0.3225
 9160SOL     OW29486   6.270   4.227   0.969 -0.2658 -0.1274  0.6098
 9160SOL    HW129487   6.262   4.250   0.877 -0.6733  1.8464  1.0902
 9160SOL    HW229488   6.315   4.142   0.969  1.0414  0.4935 -1.3565
 9161SOL     OW29489   8.535   6.568   1.380  0.1065  0.3515  0.4678
 9161SOL    HW129490   8.569   6.648   1.340 -0.6036  0.8550  0.8702
 9161SOL    HW229491   8.607   6.537   1.435  0.4195  0.6444  0.2320
 9162SOL     OW29492   5.443  10.767   2.005 -0.0014 -0.5403 -0.3402
 9162SOL    HW129493   5.429  10.681   2.043  2.5432 -0.4601  1.0195
 9162SOL    HW229494   5.515  10.804   2.057 -2.1507  3.1649  0.3463
 9163SOL     OW29495   4.825   0.556   1.113 -0.2722 -0.1234 -0.6823
 9163SOL    HW129496   4.893   0.623   1.104 -1.0135  0.5970 -1.0437
 9163SOL    HW229497   4.873   0.473   1.114  0.6557  0.4063 -0.2702
 9164SOL     OW29498   5.673  10.314   7.317 -0.2741  0.1857 -0.4766
 9164SOL    HW129499   5.736  10.245   7.298  0.3821  0.5268  0.4108
 9164SOL    HW229500   5.710  10.361   7.392 -2.6295 -0.9403  1.5182
 9165SOL     OW29501   1.129   2.484  10.679  0.1504  1.0730  0.5111
 9165SOL    HW129502   1.049   2.432  10.676  0.5499  0.4636 -0.8474
 9165SOL    HW229503   1.148   2.494  10.772 -0.8823  0.2456  0.8337
 9166SOL     OW29504   6.021   7.791   2.009  0.0520  0.5817  0.0867
 9166SOL    HW129505   6.056   7.758   2.092  0.5493  0.9219  0.0205
 9166SOL    HW229506   5.956   7.726   1.982 -2.7564  2.1755  2.5001
 9167SOL     OW29507   3.172   9.462   1.509 -0.3010 -0.0529  0.3501
 9167SOL    HW129508   3.195   9.552   1.487 -0.5275 -0.3453 -1.1575
 9167SOL    HW229509   3.217   9.445   1.592 -1.4350  1.9150  1.4485
 9168SOL     OW29510   2.061   8.267   8.795 -0.5007  0.1046  0.4001
 9168SOL    HW129511   2.156   8.254   8.802  0.4996  4.9959 -0.5935
 9168SOL    HW229512   2.033   8.284   8.885  0.3207  1.9790  0.3473
 9169SOL     OW29513   1.441   8.347   6.729 -0.0517  0.0333 -0.0283
 9169SOL    HW129514   1.369   8.411   6.730 -2.8856 -2.8943 -0.7678
 9169SOL    HW229515   1.487   8.364   6.646 -0.6651  1.1713 -0.1563
 9170SOL     OW29516   2.459   2.698   0.932  0.1643 -0.2330  0.5166
 9170SOL    HW129517   2.449   2.776   0.986  3.6300  0.3061  0.6420
 9170SOL    HW229518   2.436   2.625   0.990 -0.2625  0.5591  1.3636
 9171SOL     OW29519   2.147  10.975   2.934  0.2672  0.1744 -0.2097
 9171SOL    HW129520   2.071  11.033   2.939  0.3772  0.2235  1.2004
 9171SOL    HW229521   2.201  11.013   2.864 -0.8757  0.2673 -1.0631
 9172SOL     OW29522   7.285   9.542   3.705  0.3096  0.2608 -0.1844
 9172SOL    HW129523   7.337   9.622   3.709 -0.2346  0.7280 -1.7290
 9172SOL    HW229524   7.273   9.517   3.797 -0.5396  2.6366  0.4321
 9173SOL     OW29525   9.877   0.757   2.855  0.2955 -0.0964 -0.4875
 9173SOL    HW129526   9.822   0.678   2.854  0.5435 -0.2725 -0.3514
 9173SOL    HW229527   9.867   0.791   2.944 -0.8587  0.7706 -0.9243
 9174SOL     OW29528   6.330   9.776   3.123 -0.1076 -0.7469  0.4617
 9174SOL    HW129529   6.250   9.747   3.169  0.8710 -0.9585  2.1117
 9174SOL    HW229530   6.305   9.859   3.083 -0.9657 -0.4368  1.5681
 9175SOL     OW29531  10.170   1.449   7.090 -0.9469 -0.2793  0.7822
 9175SOL    HW129532  10.165   1.360   7.126  1.6324 -1.3577 -1.2000
 9175SOL    HW229533  10.227   1.496   7.151  0.0177 -0.8535  0.3364
 9176SOL     OW29534   9.593   2.661   5.630 -0.8363  0.5399 -0.1492
 9176SOL    HW129535   9.546   2.603   5.570 -1.1510 -0.5099  1.0816
 9176SOL    HW229536   9.524   2.704   5.681 -0.5350  0.3050  0.4709
 9177SOL     OW29537   3.976   1.699   1.742 -0.6280  0.1086  0.1629
 9177SOL    HW129538   3.936   1.786   1.740  0.7016  0.7342 -0.7747
 9177SOL    HW229539   4.015   1.689   1.655  0.0468 -1.0467  0.5799
 9178SOL     OW29540   6.353   1.495   5.744  0.1388  0.5060  0.0974
 9178SOL    HW129541   6.382   1.412   5.782  1.1185  1.0617  0.5968
 9178SOL    HW229542   6.383   1.491   5.653 -0.5020 -0.0134 -0.0918
 9179SOL     OW29543   3.004   3.220  10.280  0.7758  0.4691  0.2531
 9179SOL    HW129544   2.927   3.267  10.312  1.3044  2.9512 -1.8291
 9179SOL    HW229545   3.074   3.286  10.278  2.8473 -1.5432  1.4633
 9180SOL     OW29546   6.582   3.614   3.695 -0.4291 -0.0906 -0.0471
 9180SOL    HW129547   6.669   3.634   3.730 -0.7546  0.6003  0.3967
 9180SOL    HW229548   6.527   3.687   3.725 -0.9218  0.0556 -1.2292
 9181SOL     OW29549  10.939   6.863   6.124  0.4819  0.3629 -0.6169
 9181SOL    HW129550  10.947   6.880   6.030  1.4955  0.3182 -0.5461
 9181SOL    HW229551  10.856   6.904   6.148 -0.7469 -1.2175 -1.8821
 9182SOL     OW29552   1.959   7.988   2.654 -0.6888  0.0511  0.3969
 9182SOL    HW129553   2.003   8.032   2.582 -0.1855  2.1615  1.8795
 9182SOL    HW229554   1.919   8.059   2.704 -2.3986 -1.4749  1.3168
 9183SOL     OW29555   2.187  10.822   0.695 -0.1053 -0.0246 -0.5135
 9183SOL    HW129556   2.109  10.864   0.732 -1.0794 -2.3947  0.3584
 9183SOL    HW229557   2.251  10.893   0.686  0.6083  0.9329  6.5198
 9184SOL     OW29558   6.449   1.554   0.384  0.0491  0.2985  0.3570
 9184SOL    HW129559   6.492   1.563   0.469  0.9448 -0.3335 -0.0197
 9184SOL    HW229560   6.376   1.494   0.399 -0.6912  1.3190  0.9828
 9185SOL     OW29561   6.433  10.024  10.829  0.7351 -0.6094 -0.5145
 9185SOL    HW129562   6.465   9.955  10.886  0.4008  0.9596  1.6899
 9185SOL    HW229563   6.512  10.072  10.803  0.8331 -0.9873 -0.9238
 9186SOL     OW29564   9.388  10.364   1.883  0.6249  0.3659  0.8595
 9186SOL    HW129565   9.377  10.315   1.802 -0.9510  1.8181  0.1231
 9186SOL    HW229566   9.479  10.394   1.881  0.6121  0.3618 -0.3752
 9187SOL     OW29567   4.430   5.234   8.322  0.1186  0.0647 -0.1498
 9187SOL    HW129568   4.493   5.279   8.265 -1.6259 -0.5763 -2.7635
 9187SOL    HW229569   4.372   5.187   8.262 -2.3113 -0.1263  2.1425
 9188SOL     OW29570   5.702   6.520   9.064  0.7422 -0.6549 -0.1332
 9188SOL    HW129571   5.665   6.606   9.045  0.6928 -0.8783 -1.0843
 9188SOL    HW229572   5.647   6.485   9.134  0.1583 -0.3148 -0.4172
 9189SOL     OW29573   4.261   3.756   2.950 -0.0713 -0.0672 -0.8126
 9189SOL    HW129574   4.323   3.718   2.888 -0.5629  0.8957 -1.9433
 9189SOL    HW229575   4.291   3.846   2.961 -0.3698 -0.0478 -0.1443
 9190SOL     OW29576   8.085   4.926   1.403 -0.2487 -0.7811  1.1480
 9190SOL    HW129577   8.047   4.843   1.374 -0.9920 -0.2268  0.4972
 9190SOL    HW229578   8.010   4.983   1.419  0.1596  1.3310 -3.0687
 9191SOL     OW29579   2.254   3.659   2.000 -0.1940  0.7969  0.1991
 9191SOL    HW129580   2.277   3.690   1.912  0.9535  2.9909  1.2121
 9191SOL    HW229581   2.243   3.738   2.052  1.6511 -0.4405  2.6693
 9192SOL     OW29582   1.736   4.004   1.489 -0.1631  0.4586 -0.5151
 9192SOL    HW129583   1.829   4.024   1.487 -0.2018  0.7182 -3.2480
 9192SOL    HW229584   1.695   4.074   1.437 -1.7412 -0.3156 -0.3748
 9193SOL     OW29585  10.664   8.538   3.900  0.0672  0.6212  0.2662
 9193SOL    HW129586  10.726   8.496   3.840 -0.1575  0.4189  0.1772
 9193SOL    HW229587  10.715   8.552   3.980 -0.3284 -1.4161  0.9323
 9194SOL     OW29588   4.878   4.461   8.904  0.2986 -0.3537 -0.0771
 9194SOL    HW129589   4.790   4.451   8.941 -0.0935 -1.4792 -1.2465
 9194SOL    HW229590   4.918   4.375   8.912  1.2385  0.0993  0.2533
 9195SOL     OW29591  11.231   2.729   2.131 -0.2571 -0.2034  0.5198
 9195SOL    HW129592  11.289   2.660   2.163 -1.8886 -2.3471 -0.8985
 9195SOL    HW229593  11.181   2.755   2.208 -0.9176 -2.0005  0.7581
 9196SOL     OW29594   5.116  11.250   0.488 -0.1004 -0.1663  0.1657
 9196SOL    HW129595   5.043  11.246   0.549 -2.6219 -1.4180 -2.6823
 9196SOL    HW229596   5.124  11.343   0.465  2.9101  0.8897  4.3416
 9197SOL     OW29597   5.953   3.487   3.224 -0.0155  0.4875 -0.0068
 9197SOL    HW129598   5.979   3.522   3.139  0.6424 -1.1799 -0.5385
 9197SOL    HW229599   6.031   3.442   3.257 -0.7769 -0.4174  0.6402
 9198SOL     OW29600   1.241   0.000   8.253 -0.1561  0.0158 -0.2266
 9198SOL    HW129601   1.242   0.021   8.347 -0.8488  0.3999 -0.2930
 9198SOL    HW229602   1.279   0.078   8.211 -0.7324  0.2503 -0.3250
 9199SOL     OW29603  10.195   4.570   6.992  0.6222 -0.1337  0.1921
 9199SOL    HW129604  10.120   4.541   7.043  0.0808 -0.8638 -0.9630
 9199SOL    HW229605  10.229   4.489   6.952  1.1279  0.3918 -0.4604
 9200SOL     OW29606   3.441   9.444   9.308 -0.0585  0.5231  1.5411
 9200SOL    HW129607   3.385   9.519   9.289 -2.1471 -0.9929  1.3774
 9200SOL    HW229608   3.456   9.403   9.223  4.1615  2.6165  0.9960
 9201SOL     OW29609   9.668   6.424   3.707 -0.4391  0.4806 -0.5053
 9201SOL    HW129610   9.609   6.389   3.774 -2.2524  1.6400 -1.3967
 9201SOL    HW229611   9.680   6.516   3.731  0.7293  0.3465 -0.5467
 9202SOL     OW29612   0.454   6.223   4.769 -0.1049 -0.4736 -0.0434
 9202SOL    HW129613   0.417   6.310   4.753 -0.1066  0.0903  2.5557
 9202SOL    HW229614   0.539   6.239   4.808 -1.0528 -1.4618  2.7157
 9203SOL     OW29615  10.982   2.987   4.402 -0.4283  0.0682  0.6048
 9203SOL    HW129616  10.923   2.920   4.437  0.4536 -0.5839  0.8636
 9203SOL    HW229617  10.994   3.049   4.474 -1.2789  0.5467  0.3516
 9204SOL     OW29618   9.251   9.492   0.175  0.1570  0.0111  1.1490
 9204SOL    HW129619   9.277   9.569   0.225  0.0102  1.8352 -1.4308
 9204SOL    HW229620   9.176   9.520   0.124  2.2865 -0.5560 -2.6374
 9205SOL     OW29621   3.857   9.821   7.908 -0.3897  0.3933  0.7577
 9205SOL    HW129622   3.763   9.824   7.894 -0.5825 -0.8939  1.5567
 9205SOL    HW229623   3.880   9.910   7.934 -1.3337  0.7827  0.3102
 9206SOL     OW29624   3.951   2.975   3.457 -0.2864 -0.4663  0.1787
 9206SOL    HW129625   4.037   3.014   3.471  0.5347 -2.3227  0.6907
 9206SOL    HW229626   3.907   2.982   3.541 -0.5348  0.2280 -0.0049
 9207SOL     OW29627  10.929   2.653  10.384 -0.1971  0.2973  0.5049
 9207SOL    HW129628  10.938   2.558  10.392  0.2871  0.3943  1.1671
 9207SOL    HW229629  10.871   2.666  10.309 -0.1861 -0.5189  0.3553
 9208SOL     OW29630   0.119   1.045   1.283 -0.1827 -0.3229 -0.2329
 9208SOL    HW129631   0.181   1.072   1.351 -1.2014 -1.7523  1.3620
 9208SOL    HW229632   0.173   1.005   1.215  0.7656 -0.2059  0.4326
 9209SOL     OW29633   2.498   6.395   0.970  0.6969  0.7739 -0.0252
 9209SOL    HW129634   2.463   6.379   0.882  1.2414  0.1096 -0.1312
 9209SOL    HW229635   2.462   6.480   0.995 -0.8698  0.1964 -0.1765
 9210SOL     OW29636   1.431   9.456  10.156  0.6311 -0.3033  0.5556
 9210SOL    HW129637   1.453   9.470  10.064 -0.1369  0.2101  0.4435
 9210SOL    HW229638   1.419   9.544  10.192 -1.0642 -0.5314  0.6363
 9211SOL     OW29639  10.888   8.657   5.517 -0.0644 -0.0268  0.1060
 9211SOL    HW129640  10.874   8.629   5.427  1.7990 -1.0323  0.0730
 9211SOL    HW229641  10.881   8.577   5.569  1.6865 -0.0065  0.4608
 9212SOL     OW29642   9.926   4.710   9.145  0.3935 -0.1999  0.0319
 9212SOL    HW129643   9.978   4.637   9.180  2.0886  1.0712  0.2636
 9212SOL    HW229644   9.858   4.724   9.211 -1.7545 -3.3019 -1.2874
 9213SOL     OW29645   9.769   6.217   9.487 -0.8122 -0.2554 -0.4437
 9213SOL    HW129646   9.760   6.129   9.450 -1.0547  0.3410 -1.8385
 9213SOL    HW229647   9.728   6.210   9.573  0.9190 -2.0088  0.3335
 9214SOL     OW29648   6.203   0.223   3.609 -0.0486 -0.0817 -0.3168
 9214SOL    HW129649   6.239   0.196   3.693 -1.0517 -2.9885 -0.7171
 9214SOL    HW229650   6.261   0.294   3.580  1.3641 -0.1927  2.0016
 9215SOL     OW29651   6.277   6.924   1.379 -0.0635 -0.0324  0.0755
 9215SOL    HW129652   6.192   6.955   1.348 -0.0617  0.5993  0.6755
 9215SOL    HW229653   6.336   6.998   1.366  1.1439 -1.4240 -3.1759
 9216SOL     OW29654  10.905   1.367   4.698  0.7666  0.8253 -0.1983
 9216SOL    HW129655  10.907   1.447   4.751  0.8678  1.7101 -1.4807
 9216SOL    HW229656  10.995   1.358   4.666  0.7959  0.0844  0.0871
 9217SOL     OW29657   3.107   1.239   4.384  0.1275  0.3087  0.2752
 9217SOL    HW129658   3.190   1.244   4.337 -0.0182 -0.1356 -0.0392
 9217SOL    HW229659   3.108   1.152   4.425 -1.3931 -0.9394 -2.0836
 9218SOL     OW29660   9.866   2.106   3.815  1.0088 -0.0909  0.9649
 9218SOL    HW129661   9.934   2.089   3.749 -0.4874 -1.3920 -0.3026
 9218SOL    HW229662   9.882   2.040   3.882  0.8649 -0.5438  0.5581
 9219SOL     OW29663   5.086   2.680  11.191  0.6697  0.0810  0.0229
 9219SOL    HW129664   5.078   2.593  11.153  2.2202 -1.6568  3.2300
 9219SOL    HW229665   5.001   2.697  11.231 -0.5496  1.3786 -2.8468
 9220SOL     OW29666   1.703   8.544   9.402  0.2401  0.4344 -0.0828
 9220SOL    HW129667   1.665   8.515   9.319 -1.6580  0.7035  0.6396
 9220SOL    HW229668   1.629   8.577   9.452  1.0650 -1.0242  2.2975
 9221SOL     OW29669   7.068   1.323   6.175 -0.2427 -0.4244 -0.1140
 9221SOL    HW129670   7.048   1.306   6.083 -0.2247  2.1846 -0.6728
 9221SOL    HW229671   6.989   1.297   6.222 -0.2141 -1.8710 -0.8280
 9222SOL     OW29672   4.233   2.345  10.438  0.3536 -0.1518 -0.1816
 9222SOL    HW129673   4.316   2.298  10.447  0.3107  0.0739  1.8010
 9222SOL    HW229674   4.241   2.420  10.498 -1.1742  0.0347 -0.1706
 9223SOL     OW29675   1.507   1.191   7.720 -0.2118 -0.1983 -0.2382
 9223SOL    HW129676   1.518   1.106   7.678 -1.7439 -0.1876 -0.7339
 9223SOL    HW229677   1.484   1.250   7.648  1.8959  0.9145 -0.0702
 9224SOL     OW29678   1.571  10.168   2.264  0.1070 -0.2767 -0.0665
 9224SOL    HW129679   1.532  10.241   2.216  0.6849 -0.5403 -0.9588
 9224SOL    HW229680   1.584  10.101   2.198  0.6678 -0.7528  0.5210
 9225SOL     OW29681   0.997   4.637   3.440  0.1550 -0.1868  0.2665
 9225SOL    HW129682   0.984   4.640   3.346 -0.2903 -1.6387  0.2490
 9225SOL    HW229683   0.929   4.694   3.476  0.8138  0.9722 -0.3111
 9226SOL     OW29684  10.120   0.609   9.788 -0.5486  0.5271 -0.4028
 9226SOL    HW129685  10.211   0.639   9.795 -0.8669  1.4980 -0.3933
 9226SOL    HW229686  10.103   0.609   9.693 -0.8963  1.4313 -0.3427
 9227SOL     OW29687   3.840   1.864   3.283  0.4519 -0.1536 -0.1852
 9227SOL    HW129688   3.924   1.856   3.329 -0.4905  1.3084  1.9690
 9227SOL    HW229689   3.832   1.958   3.264 -1.4121  0.0436  1.2544
 9228SOL     OW29690   1.156   5.566   3.903  0.0244  0.5399  0.2998
 9228SOL    HW129691   1.097   5.599   3.835  0.4549 -1.1366 -0.9445
 9228SOL    HW229692   1.099   5.545   3.976 -0.4572  2.3038  0.4768
 9229SOL     OW29693   5.517   6.081  10.037 -0.3299  0.0196 -0.9862
 9229SOL    HW129694   5.586   6.018  10.017 -0.6142 -0.6703  0.1446
 9229SOL    HW229695   5.483   6.054  10.122 -1.5635  0.7343 -1.2253
 9230SOL     OW29696   0.518   1.423   7.310  0.1003  0.2165 -0.0231
 9230SOL    HW129697   0.438   1.434   7.362 -0.4879  0.8776 -1.0278
 9230SOL    HW229698   0.506   1.340   7.265 -1.3112  1.5201 -2.2524
 9231SOL     OW29699   9.025   9.270   2.653 -0.3869  0.0712  0.1651
 9231SOL    HW129700   9.106   9.224   2.674  1.7730  2.4231 -2.3278
 9231SOL    HW229701   8.968   9.202   2.617  0.2231 -1.7286  2.4160
 9232SOL     OW29702   4.523   7.385   2.657 -0.3222 -0.0195  0.2104
 9232SOL    HW129703   4.534   7.418   2.568  1.3917 -0.4242  0.2332
 9232SOL    HW229704   4.595   7.426   2.707  0.1337 -1.5517  0.8686
 9233SOL     OW29705   9.042   8.704   4.223 -0.4806  0.0120 -0.0595
 9233SOL    HW129706   9.093   8.666   4.152  0.1229  2.4686 -1.0041
 9233SOL    HW229707   9.030   8.795   4.199 -2.3828  0.3412  1.8303
 9234SOL     OW29708  10.777   1.420   0.715  0.6457  0.0628 -0.0895
 9234SOL    HW129709  10.782   1.464   0.630  0.2470  0.1874 -0.0532
 9234SOL    HW229710  10.721   1.477   0.768  4.0715  2.2055  1.6127
 9235SOL     OW29711   2.756   3.505   0.409  0.1277 -0.2280  0.7474
 9235SOL    HW129712   2.686   3.447   0.381  0.7191 -0.2171 -0.9124
 9235SOL    HW229713   2.825   3.491   0.344  0.7161  1.5039  0.9507
 9236SOL     OW29714   9.719   6.462   1.105 -0.2185 -0.3898  0.2173
 9236SOL    HW129715   9.636   6.422   1.081  0.3344 -1.2449 -0.3603
 9236SOL    HW229716   9.722   6.456   1.201 -0.3987 -1.2427  0.1798
 9237SOL     OW29717   8.847   3.841   2.649 -0.5666 -0.7908  0.1500
 9237SOL    HW129718   8.898   3.875   2.575  0.8105  0.0312  1.4154
 9237SOL    HW229719   8.826   3.751   2.624  1.0070 -0.9541 -0.7118
 9238SOL     OW29720   3.033   0.974   9.218  0.2843  0.1718  0.1716
 9238SOL    HW129721   3.053   0.897   9.165 -1.1386  0.7827 -1.3875
 9238SOL    HW229722   3.114   1.025   9.219  0.5965 -0.2843 -0.7120
 9239SOL     OW29723   1.654   7.960   2.850 -0.5143  0.9819 -0.1386
 9239SOL    HW129724   1.735   8.011   2.856  0.0504  0.1853 -0.8021
 9239SOL    HW229725   1.591   8.021   2.813 -0.3730  1.7688  0.8539
 9240SOL     OW29726   1.028   5.764   6.105 -0.5864  0.1117  0.4835
 9240SOL    HW129727   0.946   5.779   6.151  0.1505 -0.4431  2.0405
 9240SOL    HW229728   1.023   5.674   6.073  0.1093 -0.5476  2.1405
 9241SOL     OW29729   3.983   4.112   1.996 -0.5438  0.2217  1.1601
 9241SOL    HW129730   3.993   4.186   2.055 -1.8502  0.9767  0.4844
 9241SOL    HW229731   3.901   4.070   2.024 -2.0068  1.4758 -0.9726
 9242SOL     OW29732   6.018   8.848   9.143 -0.3200  0.1680 -0.0918
 9242SOL    HW129733   6.014   8.780   9.076  2.2115  1.3579 -1.5818
 9242SOL    HW229734   5.926   8.861   9.169 -1.1047 -2.1087 -1.4649
 9243SOL     OW29735   6.600   6.901   4.999 -0.0797 -0.4982 -0.5778
 9243SOL    HW129736   6.598   6.974   4.938  2.0585  1.4654  1.4773
 9243SOL    HW229737   6.693   6.881   5.008 -0.4452 -1.7009  0.9074
 9244SOL     OW29738   0.320   2.750   9.216 -0.2993  0.2110 -0.5340
 9244SOL    HW129739   0.341   2.657   9.205  1.1052  0.5092 -0.5698
 9244SOL    HW229740   0.405   2.794   9.215 -0.8633  1.3950  0.5506
 9245SOL     OW29741   1.528   3.471   0.690 -0.0807  1.3879  0.4625
 9245SOL    HW129742   1.481   3.498   0.612  1.8446 -0.7013 -1.5706
 9245SOL    HW229743   1.598   3.536   0.700  1.2048  0.3218 -1.1409
 9246SOL     OW29744   6.466  10.983   9.384 -0.0080  0.1581 -0.2446
 9246SOL    HW129745   6.430  11.072   9.383  1.0849  0.6223 -1.9394
 9246SOL    HW229746   6.529  10.983   9.456  0.0629  0.7914 -0.3051
 9247SOL     OW29747   2.395   7.894   0.697  0.0440  0.2070  0.4192
 9247SOL    HW129748   2.378   7.800   0.684 -1.3129  0.5778 -0.6912
 9247SOL    HW229749   2.489   7.900   0.711 -0.0226 -1.4826  2.0166
 9248SOL     OW29750   7.633  11.126  10.099  0.2956  0.4165 -0.2640
 9248SOL    HW129751   7.606  11.053  10.043 -1.5443 -1.6020  2.9865
 9248SOL    HW229752   7.568  11.194  10.083  0.1734  0.1325 -1.0149
 9249SOL     OW29753   5.897  11.230   6.002  0.2126  0.1379  0.1350
 9249SOL    HW129754   5.821  11.253   5.948 -0.3016 -1.8204 -0.0543
 9249SOL    HW229755   5.971  11.274   5.961 -0.8734  2.7582  0.7740
 9250SOL     OW29756   0.209   5.582  10.388 -0.1149 -0.0041 -0.2382
 9250SOL    HW129757   0.165   5.631  10.457  0.5058 -0.1460  0.2737
 9250SOL    HW229758   0.281   5.537  10.434 -0.1965 -0.7516 -0.8323
 9251SOL     OW29759   9.143   4.196   0.141 -0.0995  0.3587  0.1990
 9251SOL    HW129760   9.106   4.118   0.182 -0.3759  0.7002  0.6095
 9251SOL    HW229761   9.233   4.172   0.121  0.2285  0.3675  1.5507
 9252SOL     OW29762   0.679   4.464   1.771  0.2902  0.1013  0.2579
 9252SOL    HW129763   0.612   4.396   1.770 -0.9757  1.2913  1.2135
 9252SOL    HW229764   0.750   4.429   1.716  1.2380 -3.5246  3.4150
 9253SOL     OW29765   8.344  10.738   5.455 -0.0173 -0.3815  0.2834
 9253SOL    HW129766   8.418  10.678   5.466 -0.1689 -0.9843 -1.6685
 9253SOL    HW229767   8.376  10.822   5.488  0.0906 -1.5279  3.4150
 9254SOL     OW29768   9.752  10.681   8.003  0.0941  0.9247 -0.7440
 9254SOL    HW129769   9.786  10.592   7.987 -0.0404  0.7692 -0.1897
 9254SOL    HW229770   9.815  10.719   8.064 -0.2719  0.9278 -0.3619
 9255SOL     OW29771  10.531   4.352   7.106  0.4632 -0.7436 -0.4002
 9255SOL    HW129772  10.558   4.323   7.193  0.0718  1.5840  0.5696
 9255SOL    HW229773  10.436   4.359   7.112  0.5267  0.4361 -0.6774
 9256SOL     OW29774   0.648   1.808   6.773 -0.2901  0.2401 -0.8863
 9256SOL    HW129775   0.645   1.848   6.686 -1.4414  0.8966 -0.5550
 9256SOL    HW229776   0.557   1.802   6.801  0.1115  0.9613  0.6988
 9257SOL     OW29777   2.612   0.861  11.227 -0.3445  0.0740 -0.2139
 9257SOL    HW129778   2.592   0.842  11.136  0.4892 -1.2729 -0.1579
 9257SOL    HW229779   2.593   0.954  11.238 -1.0879  0.1010 -1.5729
 9258SOL     OW29780   2.542   8.947   4.132 -0.0508 -0.0430 -0.2974
 9258SOL    HW129781   2.482   9.019   4.150  2.0124  1.5356  0.6487
 9258SOL    HW229782   2.564   8.956   4.040 -0.8137 -0.3118 -0.5169
 9259SOL     OW29783  10.479   1.989   6.146  0.1883  0.4543  0.0827
 9259SOL    HW129784  10.555   1.935   6.169  0.3035  0.9061  0.7958
 9259SOL    HW229785  10.426   1.932   6.090  0.8925  0.0227 -0.1673
 9260SOL     OW29786   7.291   4.583   0.244 -0.4406  0.7036 -0.0113
 9260SOL    HW129787   7.258   4.636   0.317  0.2777  0.7385  0.2972
 9260SOL    HW229788   7.386   4.587   0.253 -0.3715 -0.6301  0.0228
 9261SOL     OW29789   3.075   9.929   0.599  0.0348 -0.1860  0.0402
 9261SOL    HW129790   3.036   9.885   0.674  0.9709 -0.3397  0.4571
 9261SOL    HW229791   3.159   9.961   0.632  1.5456 -2.2833 -1.5359
 9262SOL     OW29792   4.657   0.556  10.603 -0.6129  0.3297  0.2764
 9262SOL    HW129793   4.682   0.641  10.639 -0.1484  0.3986 -0.1928
 9262SOL    HW229794   4.724   0.538  10.537 -1.8860  0.5928 -1.1423
 9263SOL     OW29795   3.008   6.606   7.012  0.7321  0.3599 -0.7479
 9263SOL    HW129796   3.003   6.660   6.933  1.3425 -1.9424 -2.4745
 9263SOL    HW229797   2.918   6.599   7.042  0.2903  0.2123 -2.0338
 9264SOL     OW29798   9.498   9.409   4.672  0.1281 -0.2824 -0.0358
 9264SOL    HW129799   9.580   9.459   4.665 -1.7105  2.9029 -0.4055
 9264SOL    HW229800   9.491   9.363   4.589  1.4857 -0.5773 -0.0182
 9265SOL     OW29801   4.343   5.344   3.258  0.1036 -0.2279  0.3236
 9265SOL    HW129802   4.283   5.401   3.308  0.3585 -0.4567  0.8911
 9265SOL    HW229803   4.347   5.263   3.309  0.7243 -0.2939  0.1678
 9266SOL     OW29804   0.388   2.052   3.778  0.0320  0.3417  0.1540
 9266SOL    HW129805   0.294   2.050   3.796  0.2572 -0.2504  1.3405
 9266SOL    HW229806   0.427   2.095   3.854  0.9332 -1.3834  0.7184
 9267SOL     OW29807   6.478   1.025   9.410 -0.0289  0.4012 -0.0764
 9267SOL    HW129808   6.528   0.962   9.461  0.3560 -0.3931 -1.3949
 9267SOL    HW229809   6.407   0.974   9.372 -2.1632  1.5779  2.0667
 9268SOL     OW29810   0.558   7.386  10.740 -0.1840 -0.5275  0.7247
 9268SOL    HW129811   0.604   7.370  10.823 -1.6446  0.6501  1.8068
 9268SOL    HW229812   0.496   7.456  10.759 -2.1432 -1.7346 -0.7725
 9269SOL     OW29813   4.232   4.824   2.217 -0.7793  0.0909  0.1320
 9269SOL    HW129814   4.194   4.802   2.132 -0.7304 -1.4994  0.4865
 9269SOL    HW229815   4.165   4.875   2.261 -1.5212 -0.5742 -0.2047
 9270SOL     OW29816   5.715   0.185   7.180 -0.2236  0.2275  0.4553
 9270SOL    HW129817   5.669   0.177   7.263 -0.2509  0.7426  0.4928
 9270SOL    HW229818   5.806   0.203   7.204 -0.1876  0.1515  0.3770
 9271SOL     OW29819   0.809   9.801   1.777 -0.7054  0.1045  0.3052
 9271SOL    HW129820   0.722   9.837   1.760 -1.0343  0.2296  2.0224
 9271SOL    HW229821   0.853   9.800   1.692 -2.7495 -0.9542 -0.7910
 9272SOL     OW29822   4.740   7.606   4.234  0.2009 -0.0405 -0.2306
 9272SOL    HW129823   4.646   7.618   4.225 -0.0481  1.8635  3.3091
 9272SOL    HW229824   4.749   7.544   4.307  1.5817  2.1609  1.5812
 9273SOL     OW29825  10.230  10.040   1.657 -0.7309 -0.1035 -0.3234
 9273SOL    HW129826  10.273   9.990   1.588 -1.2500 -1.8300  0.5306
 9273SOL    HW229827  10.173  10.101   1.611  1.0105  0.7516 -1.4311
 9274SOL     OW29828   9.322   8.999   8.155  0.5910  0.1532 -0.2966
 9274SOL    HW129829   9.279   9.013   8.240 -1.4876  0.2961 -1.3190
 9274SOL    HW229830   9.280   9.062   8.096  1.6039 -0.3285 -1.5753
 9275SOL     OW29831   7.715   3.715   4.377  0.4590 -0.2772 -0.3824
 9275SOL    HW129832   7.803   3.687   4.401 -0.1659 -1.2028  0.8813
 9275SOL    HW229833   7.657   3.656   4.424 -0.9135  2.4941  1.6826
 9276SOL     OW29834   0.340   6.363   4.249 -0.4462 -0.5970  0.2949
 9276SOL    HW129835   0.378   6.355   4.336  1.3440  3.9790  0.2229
 9276SOL    HW229836   0.384   6.295   4.198  2.4873 -0.0647  1.8823
 9277SOL     OW29837   5.438   5.395   0.445 -0.6638  0.1770 -0.3128
 9277SOL    HW129838   5.383   5.320   0.420 -2.2526  1.0589  0.3361
 9277SOL    HW229839   5.481   5.367   0.526  0.5103 -0.8163 -1.2427
 9278SOL     OW29840   6.978   7.458   4.007  0.5284 -0.5249  0.0151
 9278SOL    HW129841   6.890   7.457   3.971  1.1237  0.5872 -1.6040
 9278SOL    HW229842   6.972   7.406   4.088 -1.5832 -0.4411 -0.0354
 9279SOL     OW29843  10.444   7.680   8.157 -1.0161  0.3990 -0.2098
 9279SOL    HW129844  10.400   7.698   8.240 -0.4126 -1.9770  0.6906
 9279SOL    HW229845  10.386   7.717   8.090 -0.7028  3.8921  1.2608
 9280SOL     OW29846  10.406   2.482   6.810  0.0996 -0.2990  0.6070
 9280SOL    HW129847  10.352   2.519   6.880  0.3965 -1.6527  1.5975
 9280SOL    HW229848  10.490   2.527   6.817  0.6543 -1.4971  2.1785
 9281SOL     OW29849   3.953   1.529   2.582 -0.2911  0.1691  0.1265
 9281SOL    HW129850   4.043   1.551   2.607  0.3647  0.3529 -2.1557
 9281SOL    HW229851   3.928   1.598   2.520 -1.8588 -0.1312  0.3808
 9282SOL     OW29852   6.290   2.971   7.070 -0.4574  0.0311  0.1828
 9282SOL    HW129853   6.222   3.037   7.077 -0.9049 -0.3575 -0.3822
 9282SOL    HW229854   6.370   3.020   7.050 -1.0090  0.3353 -1.4949
 9283SOL     OW29855  10.142   8.106   3.691 -0.6238 -0.2592  1.4783
 9283SOL    HW129856  10.084   8.047   3.739  0.2460 -2.4964 -0.0780
 9283SOL    HW229857  10.100   8.116   3.605 -0.0191  0.2040  1.2275
 9284SOL     OW29858   5.548   3.245   5.216  0.7296 -0.4078 -0.5347
 9284SOL    HW129859   5.465   3.233   5.262  1.7230 -0.5427  1.2924
 9284SOL    HW229860   5.579   3.331   5.244 -0.4343  1.3418 -4.0184
 9285SOL     OW29861   7.715   5.560   3.901  0.1696 -0.3742 -0.4337
 9285SOL    HW129862   7.725   5.476   3.945  1.5178 -0.5101 -0.9621
 9285SOL    HW229863   7.711   5.538   3.808  0.3945  0.1279 -0.5667
 9286SOL     OW29864   1.184   8.427   5.340  0.3681  0.0953  0.6891
 9286SOL    HW129865   1.204   8.520   5.342  0.1824  0.2103 -1.0145
 9286SOL    HW229866   1.089   8.423   5.329  0.3097 -0.3120  1.3041
 9287SOL     OW29867   0.297   1.359   9.587  0.4596 -0.4215  0.6423
 9287SOL    HW129868   0.229   1.349   9.654 -1.5475  2.7795 -0.6895
 9287SOL    HW229869   0.336   1.445   9.605  0.9052 -0.1601 -1.3562
 9288SOL     OW29870   0.554   6.021   0.791  0.1879  0.1960 -0.0999
 9288SOL    HW129871   0.477   5.965   0.781 -0.5969  1.4417 -1.5321
 9288SOL    HW229872   0.603   5.981   0.862 -0.2054 -2.4491 -1.1629
 9289SOL     OW29873   6.061   2.174   1.400 -1.4567  0.0110  0.4934
 9289SOL    HW129874   5.966   2.164   1.403 -1.9264 -1.0356 -5.5397
 9289SOL    HW229875   6.075   2.266   1.377 -0.9218  0.2774  1.8136
 9290SOL     OW29876   8.665   3.469   4.956 -0.8888  0.2556 -0.0760
 9290SOL    HW129877   8.577   3.489   4.923 -0.2604  0.7202 -1.5516
 9290SOL    HW229878   8.659   3.481   5.051 -1.9142  2.2511 -0.3414
 9291SOL     OW29879   1.400   5.412   4.739 -0.1303  0.3802  0.3964
 9291SOL    HW129880   1.386   5.506   4.748  0.4612  0.8425 -2.4695
 9291SOL    HW229881   1.359   5.389   4.655  0.0004 -1.8602  0.8730
 9292SOL     OW29882   5.212   9.989   1.108 -0.0969  0.1537 -0.4205
 9292SOL    HW129883   5.217   9.894   1.106  1.0723  0.1974 -1.9991
 9292SOL    HW229884   5.176  10.013   1.022 -0.0510  1.1501 -0.1819
 9293SOL     OW29885   4.044   9.762   9.653 -0.0319  0.2208  0.1909
 9293SOL    HW129886   4.019   9.718   9.734  1.8566 -0.0364  0.6732
 9293SOL    HW229887   4.047   9.693   9.588 -3.1675  0.6681 -0.5674
 9294SOL     OW29888   9.765   8.390   4.897  0.0418  0.6897 -0.5224
 9294SOL    HW129889   9.686   8.377   4.949  0.8051 -0.8367  0.3254
 9294SOL    HW229890   9.836   8.387   4.960  0.9471 -0.5627 -1.5440
 9295SOL     OW29891   6.419   1.669   8.737 -0.1720  0.4944 -0.4676
 9295SOL    HW129892   6.373   1.630   8.811 -1.3022  1.2710 -0.7259
 9295SOL    HW229893   6.509   1.641   8.747  0.4431  3.0005  2.9410
 9296SOL     OW29894   3.038   4.132   5.443 -0.3719  0.2423  0.0830
 9296SOL    HW129895   2.970   4.169   5.386  0.0087 -0.0499 -0.5762
 9296SOL    HW229896   2.990   4.084   5.510 -0.8062 -0.6064 -0.8187
 9297SOL     OW29897   9.933   9.083   0.007  0.7399  0.1204 -0.0423
 9297SOL    HW129898   9.986   9.027   0.064 -2.6202 -0.9564  2.2782
 9297SOL    HW229899   9.924   9.033  -0.074  1.8249 -0.4172  0.1474
 9298SOL     OW29900   9.384   9.430   9.136 -0.0389 -0.4986 -0.4277
 9298SOL    HW129901   9.439   9.458   9.209  1.3031 -3.8631  0.0115
 9298SOL    HW229902   9.411   9.486   9.063  0.8206  0.8419  0.8630
 9299SOL     OW29903  11.219   4.045   0.558 -0.0877 -0.1610 -0.7873
 9299SOL    HW129904  11.200   4.139   0.564 -1.4562 -0.4735  0.1538
 9299SOL    HW229905  11.185   4.019   0.473  1.1314  0.3593 -1.4535
 9300SOL     OW29906  10.884   2.320   7.528  0.2923  0.0230 -0.0334
 9300SOL    HW129907  10.890   2.231   7.493  1.7606  0.0938 -0.0402
 9300SOL    HW229908  10.813   2.316   7.592  1.5322 -1.6692  1.3385
 9301SOL     OW29909   3.281   7.695  10.085 -0.7417 -0.1472  0.0080
 9301SOL    HW129910   3.319   7.781  10.066 -0.7301  0.4818  2.5412
 9301SOL    HW229911   3.192   7.713  10.114 -0.8895 -1.0447  0.1588
 9302SOL     OW29912  10.141   7.374   2.173 -0.0562  0.3469  0.1015
 9302SOL    HW129913  10.124   7.390   2.266  1.7900  1.3895  0.2825
 9302SOL    HW229914  10.172   7.283   2.171 -4.1489 -1.3051 -0.1254
 9303SOL     OW29915   5.454   0.963   0.627  0.0815 -0.1140 -0.4546
 9303SOL    HW129916   5.406   0.933   0.550  0.7303 -0.5281 -0.7055
 9303SOL    HW229917   5.430   0.901   0.696 -0.2592  0.0731 -0.4050
 9304SOL     OW29918  10.516   8.688   7.104  1.0528 -0.8892 -0.5275
 9304SOL    HW129919  10.578   8.749   7.064 -0.2982  1.2782  0.5375
 9304SOL    HW229920  10.493   8.728   7.187 -2.2142 -1.3020 -1.1181
 9305SOL     OW29921   7.031   7.770   1.976 -0.5618 -0.2128 -0.1501
 9305SOL    HW129922   7.064   7.696   2.027 -1.6159 -0.4844  0.1737
 9305SOL    HW229923   6.969   7.814   2.035  0.8449  1.5935  0.0747
 9306SOL     OW29924  10.350   0.152  10.678  0.1381  0.3279  0.0379
 9306SOL    HW129925  10.323   0.091  10.746 -3.0122  1.4438 -0.0656
 9306SOL    HW229926  10.321   0.112  10.596  1.7081  0.1478 -0.4778
 9307SOL     OW29927   9.370   4.814   0.751 -0.4068  0.4650  0.1387
 9307SOL    HW129928   9.286   4.852   0.725 -0.4456  1.5065  1.6618
 9307SOL    HW229929   9.435   4.874   0.715 -0.3925  0.7462  0.6251
 9308SOL     OW29930   9.741   1.409   1.879  0.0354 -0.5454  0.5468
 9308SOL    HW129931   9.826   1.447   1.857  0.1083 -1.2686 -0.4753
 9308SOL    HW229932   9.690   1.416   1.798 -0.9905  0.1300  1.2142
 9309SOL     OW29933   3.085   7.796   3.687 -0.1756 -0.5011  0.3901
 9309SOL    HW129934   3.158   7.854   3.660  1.3830 -0.5296  4.0253
 9309SOL    HW229935   3.086   7.726   3.622  2.8222 -0.2666  0.0143
 9310SOL     OW29936   6.665  10.421   2.560 -0.0493 -0.4704 -0.4640
 9310SOL    HW129937   6.589  10.434   2.617  1.9902  3.7650  1.7920
 9310SOL    HW229938   6.666  10.499   2.504  1.6444 -1.3469 -1.7396
 9311SOL     OW29939   5.842   1.258   1.021 -0.0339 -0.5286  0.1933
 9311SOL    HW129940   5.827   1.247   0.927  1.6462  1.3451 -0.3933
 9311SOL    HW229941   5.797   1.340   1.043  0.2918 -0.5084  0.8198
 9312SOL     OW29942   5.954   8.555   2.054 -0.3785  0.7001  0.0858
 9312SOL    HW129943   5.926   8.470   2.089 -1.3611  0.2923 -1.6066
 9312SOL    HW229944   6.039   8.570   2.096 -1.4314  0.2708  2.6103
 9313SOL     OW29945   2.775  11.083   1.458 -0.3116  0.2259  0.1768
 9313SOL    HW129946   2.694  11.035   1.474  0.3236 -0.8168  0.3577
 9313SOL    HW229947   2.829  11.067   1.536  0.4258  0.1534 -0.3367
 9314SOL     OW29948   9.644  11.052  10.089 -0.3265 -0.4483 -0.1639
 9314SOL    HW129949   9.622  11.144  10.077  0.9088 -0.1108  0.0362
 9314SOL    HW229950   9.734  11.053  10.123  0.1460 -1.7589 -1.2897
 9315SOL     OW29951   4.346   1.279   8.394 -0.0538  0.4040 -0.0971
 9315SOL    HW129952   4.339   1.286   8.299 -0.7054  0.5749 -0.0466
 9315SOL    HW229953   4.281   1.342   8.427  1.2014  1.4377  0.4802
 9316SOL     OW29954   0.650   2.581   3.807 -0.1549  0.2518 -0.2979
 9316SOL    HW129955   0.644   2.618   3.896 -1.8579 -1.4844  0.3946
 9316SOL    HW229956   0.713   2.509   3.815 -0.7812 -0.3141 -0.2969
 9317SOL     OW29957   3.777   8.531   4.680 -0.3725  0.0697 -0.1715
 9317SOL    HW129958   3.840   8.509   4.749  1.0090 -0.6227 -1.5874
 9317SOL    HW229959   3.692   8.506   4.717  0.2407  0.3114  1.5030
 9318SOL     OW29960   0.841   7.896   0.364 -0.2881 -0.4299  0.2227
 9318SOL    HW129961   0.884   7.810   0.365  0.2395 -0.1693  0.1705
 9318SOL    HW229962   0.873   7.940   0.443  0.2356  0.0982 -0.2710
 9319SOL     OW29963   9.216  11.164   1.233  0.5811 -0.0632 -0.2344
 9319SOL    HW129964   9.197  11.246   1.187  0.5502  0.5077  0.7676
 9319SOL    HW229965   9.141  11.108   1.212 -1.1596  1.3447  1.7405
 9320SOL     OW29966   4.396  10.220   9.973  0.3898  0.1713  0.2928
 9320SOL    HW129967   4.422  10.284   9.906  0.5401  0.2297  0.4060
 9320SOL    HW229968   4.303  10.237   9.987  1.0490  2.5324  2.6363
 9321SOL     OW29969   3.588   7.965   8.907 -0.4565  0.5824 -1.3365
 9321SOL    HW129970   3.517   7.910   8.941  1.4982 -1.1203  0.1893
 9321SOL    HW229971   3.581   7.957   8.812 -1.9333  0.0213 -1.2169
 9322SOL     OW29972   4.020  10.445  10.839 -0.1226 -0.3474 -0.3889
 9322SOL    HW129973   4.053  10.399  10.761 -0.2423 -1.0488 -0.0294
 9322SOL    HW229974   4.019  10.537  10.813 -2.2889 -0.7481 -2.0236
 9323SOL     OW29975   9.774   7.216   3.488  0.8100 -0.4090  0.2410
 9323SOL    HW129976   9.842   7.212   3.555  0.8743 -0.5398  0.1653
 9323SOL    HW229977   9.751   7.309   3.484  1.3839 -0.2773 -0.1389
 9324SOL     OW29978  11.064   6.060   2.315  0.0449  0.3092 -0.1037
 9324SOL    HW129979  11.019   6.108   2.246  1.7078  1.0646 -0.7064
 9324SOL    HW229980  11.032   6.099   2.396  0.5622  1.7245 -0.5568
 9325SOL     OW29981   4.879   5.243   8.194  0.3917 -0.8552 -0.7226
 9325SOL    HW129982   4.796   5.284   8.217  0.5440 -0.8057 -0.2351
 9325SOL    HW229983   4.863   5.149   8.202  0.2466 -0.8655 -1.1171
 9326SOL     OW29984   2.489   4.386   5.028  0.2845 -0.4760  0.4115
 9326SOL    HW129985   2.415   4.372   4.970  1.1133  0.3483 -0.8884
 9326SOL    HW229986   2.487   4.311   5.088 -1.6000 -0.4557  0.4460
 9327SOL     OW29987   3.390   1.861   6.598  0.5554 -0.6103  0.0306
 9327SOL    HW129988   3.321   1.825   6.654  0.6135  1.3693  1.5244
 9327SOL    HW229989   3.424   1.936   6.648  2.4527 -0.3431 -1.5313
 9328SOL     OW29990   4.990   1.010   1.379  0.2998 -0.0940 -0.6615
 9328SOL    HW129991   5.040   0.978   1.454 -1.0664 -0.5338  0.0942
 9328SOL    HW229992   4.975   1.102   1.398  1.1023  0.1201 -1.0531
 9329SOL     OW29993   3.502   1.976   7.398 -0.0971  0.2114 -0.0473
 9329SOL    HW129994   3.506   2.017   7.312  0.9154 -0.6786 -0.4409
 9329SOL    HW229995   3.420   2.009   7.437  0.3417  2.0420 -0.5995
 9330SOL     OW29996   5.243   3.562   3.203 -0.4177 -0.2493  0.2542
 9330SOL    HW129997   5.193   3.539   3.125 -2.1124 -0.9639  1.4704
 9330SOL    HW229998   5.308   3.624   3.173 -0.8955 -0.6501 -1.7507
 9331SOL     OW29999   7.842   5.159  10.508 -0.7712 -0.1873  0.6128
 9331SOL    HW130000   7.870   5.240  10.464 -3.2620  1.3645  1.6005
 9331SOL    HW230001   7.920   5.104  10.510  0.8395  1.8598 -0.8361
 9332SOL     OW30002   9.449   4.386   1.293 -0.4494  0.4219  0.1894
 9332SOL    HW130003   9.356   4.383   1.318 -0.7793  0.7166 -0.9614
 9332SOL    HW230004   9.463   4.305   1.244  0.2846 -0.3260  1.5784
 9333SOL     OW30005   7.952   8.235   6.885 -0.4333  0.4456  0.3394
 9333SOL    HW130006   8.040   8.203   6.867 -0.5245  0.9888 -1.1354
 9333SOL    HW230007   7.899   8.203   6.813 -1.6984 -0.7355  1.7117
 9334SOL     OW30008   1.572  11.013   1.024 -0.4541 -0.3242  0.1142
 9334SOL    HW130009   1.574  11.107   1.009 -0.1689 -0.3811 -0.2103
 9334SOL    HW230010   1.482  10.995   1.052 -0.4592  0.0717  0.3619
 9335SOL     OW30011   1.278   1.115   3.463  0.1328 -0.5798  0.3162
 9335SOL    HW130012   1.273   1.019   3.458 -0.3335 -0.5174 -0.6457
 9335SOL    HW230013   1.285   1.143   3.372 -1.3245  0.3692  0.4598
 9336SOL     OW30014   6.264   1.900  11.090 -0.2890  0.0990 -0.3602
 9336SOL    HW130015   6.186   1.872  11.041 -0.9126  0.0503  0.6378
 9336SOL    HW230016   6.337   1.858  11.044 -0.8567 -0.0098 -1.1990
 9337SOL     OW30017   8.286   0.320   0.355  0.1696 -0.9721  0.2200
 9337SOL    HW130018   8.283   0.401   0.407  1.8155 -0.3068 -0.6584
 9337SOL    HW230019   8.340   0.342   0.279 -0.7741 -2.4178 -0.9302
 9338SOL     OW30020   2.094  10.912   8.242 -0.1969  0.4684 -0.1855
 9338SOL    HW130021   2.094  10.817   8.247  0.2637  0.5415  1.5900
 9338SOL    HW230022   2.110  10.942   8.331  1.1411  2.2035 -0.9478
 9339SOL     OW30023   5.917   9.682   6.796 -0.6079  0.0234 -0.7286
 9339SOL    HW130024   6.010   9.671   6.814 -0.6628  1.3975  0.6484
 9339SOL    HW230025   5.913   9.714   6.706  0.2479  0.0208 -0.7763
 9340SOL     OW30026   6.066   0.824   7.459  0.6718  0.4628  0.0746
 9340SOL    HW130027   6.038   0.762   7.392 -1.8512  1.6842 -0.1544
 9340SOL    HW230028   6.016   0.799   7.537 -0.8355  2.4081 -0.1726
 9341SOL     OW30029   0.208   7.187   4.668  0.2292  0.3349 -0.4129
 9341SOL    HW130030   0.144   7.147   4.609 -1.6794  3.7864 -0.9316
 9341SOL    HW230031   0.190   7.281   4.664  3.9300  1.3115  1.1840
 9342SOL     OW30032   7.104   2.281   2.470 -0.7246  0.2584  0.3259
 9342SOL    HW130033   7.140   2.264   2.557 -0.6723  1.7753  0.6382
 9342SOL    HW230034   7.166   2.343   2.431 -0.4176 -0.8548 -1.0452
 9343SOL     OW30035   0.590   3.888   0.458 -0.5338  0.1350  0.0330
 9343SOL    HW130036   0.664   3.831   0.435 -1.6633 -1.7229  0.7255
 9343SOL    HW230037   0.534   3.888   0.379  0.1589  1.5271 -0.4864
 9344SOL     OW30038  10.841   8.407   0.083  0.0278  0.0411  0.1321
 9344SOL    HW130039  10.899   8.474   0.047 -0.5109  0.8883  0.7844
 9344SOL    HW230040  10.856   8.330   0.028 -0.5069  1.1615 -1.6713
 9345SOL     OW30041   4.006   5.799   7.092  0.5153 -0.2362 -0.4204
 9345SOL    HW130042   3.916   5.767   7.084 -0.3742  1.9140  0.1964
 9345SOL    HW230043   4.022   5.845   7.010  1.2830 -1.0420 -0.7439
 9346SOL     OW30044   8.932   7.200  10.165 -0.3621  0.6440 -0.2168
 9346SOL    HW130045   8.861   7.253  10.201 -0.2041  1.1983 -0.7086
 9346SOL    HW230046   8.916   7.198  10.071  1.1415  2.1548 -0.5649
 9347SOL     OW30047   7.517   9.373   6.944 -0.0615  0.5095  0.7892
 9347SOL    HW130048   7.425   9.349   6.939  0.5545 -1.8588 -1.2737
 9347SOL    HW230049   7.545   9.382   6.853  2.2847 -1.3793  1.2291
 9348SOL     OW30050  10.498   1.276   4.694 -0.3446  0.1819 -0.7814
 9348SOL    HW130051  10.520   1.265   4.602 -0.1768  0.5699 -0.7902
 9348SOL    HW230052  10.582   1.276   4.740 -0.4715 -0.8758 -0.5254
 9349SOL     OW30053   3.245   1.099   9.858  0.4179  0.4236  0.5748
 9349SOL    HW130054   3.161   1.065   9.825  1.0598  1.1814 -2.0425
 9349SOL    HW230055   3.260   1.050   9.939 -0.9919 -2.0307 -0.5454
 9350SOL     OW30056   6.881   2.765   7.481 -0.2364  0.3740  0.3155
 9350SOL    HW130057   6.915   2.711   7.410  0.3081 -1.0440  1.5922
 9350SOL    HW230058   6.795   2.794   7.451 -0.8706 -1.8415 -0.1328
 9351SOL     OW30059   0.089  10.709   3.507  0.6574  0.2170  0.3057
 9351SOL    HW130060   0.131  10.627   3.480 -0.7024 -0.5836  0.5288
 9351SOL    HW230061   0.047  10.688   3.590  0.3445  1.1785  0.4035
 9352SOL     OW30062   6.231   4.345   9.477  0.5487 -0.0090  0.0694
 9352SOL    HW130063   6.214   4.295   9.397  3.1677 -0.4524 -0.2925
 9352SOL    HW230064   6.212   4.284   9.548 -2.2731  0.5396 -0.1140
 9353SOL     OW30065   2.579   4.707   5.928  0.0383  0.3101  0.1130
 9353SOL    HW130066   2.644   4.777   5.924 -1.1718  1.4782 -0.0192
 9353SOL    HW230067   2.495   4.752   5.914 -0.7639 -1.1940 -0.1007
 9354SOL     OW30068   5.221   9.136  10.039  0.5594 -0.3837  0.1044
 9354SOL    HW130069   5.269   9.088  10.107  0.7933 -0.6038 -0.2117
 9354SOL    HW230070   5.138   9.089  10.032  0.3233 -0.0475  0.5996
 9355SOL     OW30071   5.726   4.047   5.019  0.0359  0.2841  0.3704
 9355SOL    HW130072   5.665   4.087   4.957 -1.9898  0.3059  2.2725
 9355SOL    HW230073   5.702   4.084   5.104  0.9321 -1.7369  1.5850
 9356SOL     OW30074  10.447  10.475   3.815 -0.1169 -0.0007  0.7013
 9356SOL    HW130075  10.495  10.498   3.735 -1.4655 -2.0881 -0.8237
 9356SOL    HW230076  10.460  10.550   3.873  0.3877  1.9223 -1.7044
 9357SOL     OW30077   8.508   3.739   6.267 -0.0727  0.3262  0.9677
 9357SOL    HW130078   8.458   3.765   6.344 -0.9411  2.4467 -0.2288
 9357SOL    HW230079   8.460   3.776   6.193  2.2779  0.8748 -0.3838
 9358SOL     OW30080   8.340   9.067   0.399  0.3826 -1.0435 -0.0231
 9358SOL    HW130081   8.351   9.113   0.316  0.6519 -4.0953 -1.8377
 9358SOL    HW230082   8.282   9.124   0.451 -1.3883  0.1199 -3.0284
 9359SOL     OW30083   5.307   3.188   2.740  0.2193  0.0410  0.5875
 9359SOL    HW130084   5.346   3.239   2.811 -0.5675 -1.6577  2.3244
 9359SOL    HW230085   5.343   3.227   2.660  2.6716  0.7883  1.9532
 9360SOL     OW30086   8.692   6.928   1.791  0.7247  0.5950 -0.4418
 9360SOL    HW130087   8.631   6.892   1.727 -0.2852  1.2835  0.1182
 9360SOL    HW230088   8.779   6.910   1.753  0.3123 -2.4766 -0.1235
 9361SOL     OW30089   4.234  10.773   0.023  0.4550  0.1093  0.7836
 9361SOL    HW130090   4.259  10.862  -0.000  1.0469  0.1180  1.4195
 9361SOL    HW230091   4.297  10.717  -0.022 -1.6441 -0.2079 -2.0496
 9362SOL     OW30092  10.493   0.702   9.002 -0.0112 -0.1356  0.0176
 9362SOL    HW130093  10.507   0.624   9.056  0.1748 -0.0561  0.0849
 9362SOL    HW230094  10.491   0.774   9.065  1.0026  0.0508 -0.1495
 9363SOL     OW30095   8.666   1.194   6.275 -0.1106 -0.2783 -0.1180
 9363SOL    HW130096   8.738   1.167   6.332  0.1660  0.1719 -0.2485
 9363SOL    HW230097   8.625   1.267   6.321 -1.4784 -1.5233  0.7103
 9364SOL     OW30098   8.695   8.150   8.657  0.3758  0.1025 -0.6050
 9364SOL    HW130099   8.731   8.081   8.601 -0.7420  0.2694 -1.5560
 9364SOL    HW230100   8.699   8.229   8.603 -1.5893  0.0860 -0.8302
 9365SOL     OW30101   6.657   4.319   0.718  0.2052  0.5766 -0.5667
 9365SOL    HW130102   6.634   4.234   0.679 -1.1881  1.5337 -1.9496
 9365SOL    HW230103   6.706   4.296   0.797 -0.4615 -1.5236 -0.6890
 9366SOL     OW30104   2.197   9.452   2.161  0.3300  0.1885  0.0421
 9366SOL    HW130105   2.108   9.428   2.189  0.4775  0.4695  0.7629
 9366SOL    HW230106   2.218   9.388   2.093 -0.0269 -0.5388  0.5995
 9367SOL     OW30107  10.102   8.193   0.751 -0.1268 -0.3097  0.2768
 9367SOL    HW130108  10.116   8.128   0.820  0.8048 -1.4668 -0.9475
 9367SOL    HW230109  10.148   8.271   0.781  0.9049 -1.0371  0.6461
 9368SOL     OW30110  11.279   7.793   6.254  0.0607  0.4770  0.1917
 9368SOL    HW130111  11.321   7.798   6.168 -2.0262  0.2845 -0.9137
 9368SOL    HW230112  11.280   7.700   6.276  0.7943  0.5524  0.4891
 9369SOL     OW30113   8.907   0.942   2.232  0.0996  0.0949 -0.0432
 9369SOL    HW130114   8.872   1.008   2.172  0.7968 -1.1651 -1.9057
 9369SOL    HW230115   8.830   0.897   2.266 -0.4298  2.0993  1.6575
 9370SOL     OW30116  10.851   3.630   9.579  0.5949  0.2340  0.0042
 9370SOL    HW130117  10.829   3.695   9.513  0.0463 -0.4622 -0.5106
 9370SOL    HW230118  10.947   3.627   9.579  0.6971  2.0315  1.0342
 9371SOL     OW30119   3.206  10.334   9.991  0.6229 -0.5010  0.4416
 9371SOL    HW130120   3.242  10.325   9.903 -0.1649  0.3653  0.0118
 9371SOL    HW230121   3.151  10.413   9.987 -1.0976 -1.5943  1.1285
 9372SOL     OW30122   1.787   5.707   4.236 -0.0158 -0.1863 -0.5617
 9372SOL    HW130123   1.726   5.781   4.248  0.4573  0.0730  0.3788
 9372SOL    HW230124   1.733   5.629   4.246 -0.3559  0.0369 -0.6398
 9373SOL     OW30125   2.708   8.741  10.021  0.2323  0.3611 -0.2244
 9373SOL    HW130126   2.704   8.678  10.092  1.1085  1.1660  0.5719
 9373SOL    HW230127   2.797   8.777  10.025 -0.4868  2.2621 -0.0742
 9374SOL     OW30128   4.322   0.726   0.760  0.1607  0.6087  0.4912
 9374SOL    HW130129   4.293   0.816   0.743 -2.7200  0.2935  2.8187
 9374SOL    HW230130   4.315   0.718   0.855  0.9909 -1.9013  0.3860
 9375SOL     OW30131   6.123   9.322   6.270 -0.4278  0.2367  0.1473
 9375SOL    HW130132   6.031   9.347   6.269 -0.1371  1.2991 -0.7391
 9375SOL    HW230133   6.166   9.390   6.322 -0.0823 -0.0806  0.2870
 9376SOL     OW30134   0.814   7.361   9.249  0.0691 -0.0216  0.5088
 9376SOL    HW130135   0.729   7.321   9.266  0.0922  0.0758  0.8640
 9376SOL    HW230136   0.793   7.446   9.211  0.0173 -0.2652 -0.0153
 9377SOL     OW30137   9.859  10.668   0.749 -0.2527  0.1727  0.3324
 9377SOL    HW130138   9.924  10.647   0.682  0.1426 -1.1023  1.0686
 9377SOL    HW230139   9.775  10.668   0.703  0.0051 -0.7736 -0.1606
 9378SOL     OW30140   8.889   4.802   0.659  0.1086 -0.6815 -0.6411
 9378SOL    HW130141   8.919   4.726   0.609  1.1526 -0.0427 -1.0077
 9378SOL    HW230142   8.960   4.819   0.721 -0.6653 -0.7502  0.2866
 9379SOL     OW30143   6.442   5.480   8.404  0.1885 -0.0575 -0.6658
 9379SOL    HW130144   6.356   5.441   8.419  0.7818 -0.8014  1.0389
 9379SOL    HW230145   6.427   5.574   8.413 -0.7375 -0.0330 -2.0942
 9380SOL     OW30146   1.333   4.171   6.067  0.6845  0.1542  0.8477
 9380SOL    HW130147   1.248   4.129   6.080  1.1201 -0.7472  0.8652
 9380SOL    HW230148   1.358   4.147   5.978  0.8333  0.5910  0.7700
 9381SOL     OW30149   6.250   1.549   6.678  0.2816  0.4694  0.1639
 9381SOL    HW130150   6.163   1.584   6.659  0.8449  1.6591 -0.3374
 9381SOL    HW230151   6.233   1.467   6.725 -1.0937  1.9642  2.4360
 9382SOL     OW30152   5.147  10.961   0.659  0.7335 -0.3176 -0.5098
 9382SOL    HW130153   5.138  10.958   0.564 -0.6760 -0.8691 -0.3781
 9382SOL    HW230154   5.141  11.054   0.681 -0.4518 -0.3016 -0.8415
 9383SOL     OW30155   3.502   7.282   3.585  0.3771  0.0452 -0.0408
 9383SOL    HW130156   3.535   7.372   3.584 -0.5403  0.3904 -0.0400
 9383SOL    HW230157   3.414   7.289   3.623 -0.7194 -0.4862 -2.3447
 9384SOL     OW30158   0.351   2.063  11.126 -0.4300 -0.0722  0.0374
 9384SOL    HW130159   0.403   2.137  11.155  0.5341 -1.2112  1.3155
 9384SOL    HW230160   0.405   2.020  11.060  0.2677 -1.2329  1.3367
 9385SOL     OW30161  10.071   7.786   6.217 -0.2929  0.0743  0.0136
 9385SOL    HW130162  10.096   7.736   6.139 -1.2179 -1.1669  0.4865
 9385SOL    HW230163  10.066   7.876   6.186 -0.5632 -0.3780 -1.3540
 9386SOL     OW30164   1.481   9.741   5.996 -0.3116  0.2536  0.4843
 9386SOL    HW130165   1.469   9.699   6.081  1.3538  0.5635  0.9031
 9386SOL    HW230166   1.429   9.687   5.935 -0.8333 -0.4710  1.5440
 9387SOL     OW30167   2.539   2.777   8.486  0.4870  0.1976 -0.1742
 9387SOL    HW130168   2.607   2.711   8.488  1.4026  0.8708 -3.2193
 9387SOL    HW230169   2.586   2.861   8.484 -0.4004  0.7026 -1.5645
 9388SOL     OW30170  10.285  10.649   6.557  0.2320 -0.1454 -0.2367
 9388SOL    HW130171  10.269  10.668   6.465 -0.1368  1.1478  0.0740
 9388SOL    HW230172  10.227  10.708   6.604  1.6761  0.4690  0.8564
 9389SOL     OW30173  10.658   4.353   3.342  0.5321  0.1198 -0.1354
 9389SOL    HW130174  10.729   4.291   3.360  0.3947 -0.0318 -0.1167
 9389SOL    HW230175  10.605   4.311   3.274  0.1527 -0.0114  0.2336
 9390SOL     OW30176   8.127   4.474   1.878  0.0825  0.5941 -0.0172
 9390SOL    HW130177   8.116   4.475   1.783  1.0243 -2.1008 -0.2363
 9390SOL    HW230178   8.062   4.411   1.909 -0.0482  1.2570  1.1210
 9391SOL     OW30179   1.458   3.157   3.364 -0.5003  0.1051 -0.0968
 9391SOL    HW130180   1.548   3.179   3.385 -0.3936 -0.0005 -0.4330
 9391SOL    HW230181   1.464   3.108   3.282 -0.9601  1.0112 -0.6867
 9392SOL     OW30182   0.130   3.414  10.286 -0.1724  0.2254 -0.3499
 9392SOL    HW130183   0.049   3.389  10.332  0.0514 -0.7155 -0.4405
 9392SOL    HW230184   0.188   3.445  10.356  0.4096 -1.8331  0.1565
 9393SOL     OW30185   9.996   9.463   3.912 -0.6149 -0.2204  0.1005
 9393SOL    HW130186  10.057   9.533   3.887  1.6084 -2.5101 -1.3608
 9393SOL    HW230187  10.020   9.441   4.001 -0.7279  0.2433  0.2525
 9394SOL     OW30188  11.226   7.533   5.306 -0.3365  0.0882 -0.4018
 9394SOL    HW130189  11.164   7.601   5.330 -0.4190  0.3570 -1.3403
 9394SOL    HW230190  11.280   7.520   5.384 -1.4145  0.0125  0.3503
 9395SOL     OW30191  10.432   6.409  10.604  0.0923  0.5699  0.6740
 9395SOL    HW130192  10.472   6.358  10.675 -0.9394 -2.1975 -0.6204
 9395SOL    HW230193  10.346   6.369  10.592 -0.1177  1.5840 -1.5156
 9396SOL     OW30194   2.438   0.241   5.526 -0.3123  0.4931 -0.0545
 9396SOL    HW130195   2.522   0.198   5.543  0.2053  1.5070 -0.0180
 9396SOL    HW230196   2.461   0.326   5.489 -1.3366  0.5905 -0.5039
 9397SOL     OW30197   5.368  11.084   6.370  0.5932 -0.7802  0.2053
 9397SOL    HW130198   5.358  11.142   6.445 -0.6062  1.2990 -1.4583
 9397SOL    HW230199   5.362  11.142   6.294  1.5739 -2.8182 -1.5198
 9398SOL     OW30200   0.867   3.767   9.741 -0.2100  0.7596 -1.2164
 9398SOL    HW130201   0.796   3.726   9.691 -2.3045  1.4974  0.9359
 9398SOL    HW230202   0.822   3.819   9.808  2.3909  1.3775  0.1990
 9399SOL     OW30203  10.997   2.767   1.617 -0.7300 -0.1112 -0.2496
 9399SOL    HW130204  10.949   2.744   1.538 -0.2331 -1.0501 -0.2914
 9399SOL    HW230205  10.971   2.700   1.681 -1.7175  1.0664  0.6404
 9400SOL     OW30206   8.526   0.058   0.226  0.0577 -0.3553 -0.3299
 9400SOL    HW130207   8.545  -0.006   0.157  0.8632 -1.2750  0.7084
 9400SOL    HW230208   8.515   0.005   0.305  1.0729  0.7959  0.6214
 9401SOL     OW30209   0.653   7.748   0.229 -0.1417  0.3814  0.3947
 9401SOL    HW130210   0.715   7.813   0.260  0.0419  0.0720  0.6778
 9401SOL    HW230211   0.568   7.777   0.263 -0.6671  2.3662 -2.2892
 9402SOL     OW30212   2.592   3.818  10.896  0.4148  0.1195  0.2342
 9402SOL    HW130213   2.667   3.819  10.954 -1.3506  0.4148  2.6528
 9402SOL    HW230214   2.516   3.824  10.954 -1.4918  0.0917 -2.0903
 9403SOL     OW30215   6.022   5.115   7.373  0.1028 -0.4038 -0.2039
 9403SOL    HW130216   5.950   5.163   7.413  0.9978 -0.9614  2.2166
 9403SOL    HW230217   6.097   5.129   7.431  1.3907 -1.6458 -1.4502
 9404SOL     OW30218   2.926   0.715   7.294 -0.0608 -0.6099  0.4310
 9404SOL    HW130219   2.901   0.658   7.367 -1.1239  0.0962  0.6541
 9404SOL    HW230220   2.869   0.687   7.222 -0.8641  0.3737  0.6525
 9405SOL     OW30221   5.932   7.104   8.711 -0.1883 -0.5141 -0.4318
 9405SOL    HW130222   5.995   7.167   8.747  0.8212 -1.0565 -1.1912
 9405SOL    HW230223   5.961   7.019   8.746 -1.5715 -0.5834  0.6397
 9406SOL     OW30224   0.692   6.872   4.447  0.5188  0.2723 -0.7838
 9406SOL    HW130225   0.701   6.896   4.539  0.2507  0.5596 -0.8294
 9406SOL    HW230226   0.712   6.952   4.399 -0.9268  0.5794 -0.9168
 9407SOL     OW30227  10.431   7.876   0.863  0.3400 -0.5539 -0.1371
 9407SOL    HW130228  10.387   7.870   0.778 -0.4425  0.5303  0.1675
 9407SOL    HW230229  10.400   7.800   0.912  0.0605 -0.6699 -0.4923
 9408SOL     OW30230  10.865   8.770   7.281  0.5087 -0.0029  0.0073
 9408SOL    HW130231  10.809   8.768   7.203  0.5996 -3.1519 -0.0880
 9408SOL    HW230232  10.955   8.770   7.246  0.5603  0.0712  0.1377
 9409SOL     OW30233  11.213  10.046   4.383  0.2457 -0.4002  0.7753
 9409SOL    HW130234  11.153  10.069   4.312  1.5441  1.5698  0.2278
 9409SOL    HW230235  11.166   9.981   4.435 -2.2017  0.7603  0.1489
 9410SOL     OW30236   9.423   5.171   9.579  0.2191  0.6249  0.2234
 9410SOL    HW130237   9.438   5.176   9.484 -1.6040  3.0581 -0.0514
 9410SOL    HW230238   9.441   5.259   9.611 -4.8397  1.7355  1.0030
 9411SOL     OW30239   3.028   1.157   6.431 -0.0128 -0.1894 -0.1140
 9411SOL    HW130240   2.975   1.095   6.480  0.8640 -0.3369  0.6703
 9411SOL    HW230241   3.100   1.180   6.490 -1.3997  3.2185  0.5058
 9412SOL     OW30242   0.644   5.826  10.006 -0.2702  0.5574 -0.1054
 9412SOL    HW130243   0.619   5.906   9.960 -0.2643 -0.5501 -2.1462
 9412SOL    HW230244   0.713   5.788   9.953  0.5456 -0.2508  1.4539
 9413SOL     OW30245   2.580  10.170   8.378 -0.8830  0.3304  0.5482
 9413SOL    HW130246   2.487  10.163   8.399 -0.7231 -1.0743  0.9227
 9413SOL    HW230247   2.612  10.241   8.435 -1.4368 -0.1772  1.5247
 9414SOL     OW30248   8.183  10.940   4.847 -0.0046 -0.6957  0.4716
 9414SOL    HW130249   8.206  11.025   4.884 -0.8245 -0.1022 -0.3041
 9414SOL    HW230250   8.226  10.939   4.762 -0.8503 -0.5818  0.0252
 9415SOL     OW30251   2.143   7.810   8.514 -0.4082  0.8257 -0.1468
 9415SOL    HW130252   2.120   7.891   8.559 -0.5918 -1.0573  3.5957
 9415SOL    HW230253   2.238   7.804   8.522 -0.3788  0.7352 -0.5410
 9416SOL     OW30254   3.360   4.397   2.839  0.8173 -0.1894  0.5585
 9416SOL    HW130255   3.283   4.449   2.860 -0.7648 -0.6439 -3.2696
 9416SOL    HW230256   3.432   4.460   2.836 -0.0866  0.8856  0.7646
 9417SOL     OW30257   5.556   9.544   4.183  0.8178 -0.2153  0.5714
 9417SOL    HW130258   5.487   9.512   4.126 -0.2495  1.1153  1.0493
 9417SOL    HW230259   5.537   9.505   4.269  0.2199  0.7062  0.8704
 9418SOL     OW30260   2.823   4.338   6.245  0.6356 -0.5328 -0.5554
 9418SOL    HW130261   2.790   4.416   6.290  1.5558 -0.3803 -0.0998
 9418SOL    HW230262   2.781   4.265   6.290  0.2527 -0.3203 -0.5647
 9419SOL     OW30263   9.035   6.152   5.045 -0.0728  1.1775 -0.8646
 9419SOL    HW130264   9.106   6.191   5.096  0.5686 -0.4422 -0.4510
 9419SOL    HW230265   9.074   6.073   5.007 -1.9402 -0.4008  0.2981
 9420SOL     OW30266   1.600   3.615   8.073  0.0748 -0.1692 -0.3356
 9420SOL    HW130267   1.615   3.704   8.041  0.7231  0.3647  1.3580
 9420SOL    HW230268   1.599   3.562   7.994 -1.8862  1.5094 -1.5390
 9421SOL     OW30269  10.664   0.965   6.257 -0.6269 -0.1155  0.1552
 9421SOL    HW130270  10.582   0.929   6.223 -0.2115 -0.7218 -0.2325
 9421SOL    HW230271  10.719   0.888   6.275 -0.0628  0.2879  0.2019
 9422SOL     OW30272   4.371   6.026  10.834 -0.0179 -0.0816  0.0046
 9422SOL    HW130273   4.340   5.940  10.805  1.3896 -0.4406 -0.5071
 9422SOL    HW230274   4.351   6.029  10.927 -2.1335 -0.0233 -0.4028
 9423SOL     OW30275   7.276   6.423   4.842  0.2738  0.2110  0.3258
 9423SOL    HW130276   7.356   6.372   4.838  0.1628  0.1356 -1.9074
 9423SOL    HW230277   7.257   6.431   4.936  1.8081 -1.4194  0.8147
 9424SOL     OW30278   6.327   6.161  10.728 -0.4857  0.5475 -0.5002
 9424SOL    HW130279   6.337   6.101  10.654 -1.5776  1.2789 -1.2727
 9424SOL    HW230280   6.389   6.232  10.709 -0.8811  0.8159 -0.8210
 9425SOL     OW30281   8.760   8.779   7.414 -0.2938 -0.5937 -0.1118
 9425SOL    HW130282   8.746   8.704   7.473  3.4243  0.1561  2.0922
 9425SOL    HW230283   8.819   8.745   7.347 -0.4619 -0.2044 -0.4548
 9426SOL     OW30284   7.893   5.574   1.366  0.3200 -0.0484 -0.5173
 9426SOL    HW130285   7.964   5.510   1.377  0.9123  0.5700 -0.6608
 9426SOL    HW230286   7.816   5.521   1.346  0.8563 -0.7091 -0.8880
 9427SOL     OW30287   4.367   3.786   2.468  0.3179  0.4158 -0.5962
 9427SOL    HW130288   4.358   3.732   2.546  0.1507  1.4007  0.0865
 9427SOL    HW230289   4.432   3.740   2.415  0.9125  0.0484  0.4145
 9428SOL     OW30290   5.441   6.947   6.936  0.2875  0.5016 -0.2307
 9428SOL    HW130291   5.399   6.991   6.862  1.1891  0.1527 -0.9718
 9428SOL    HW230292   5.389   6.972   7.012 -1.1150  0.2708 -1.0764
 9429SOL     OW30293   3.463  10.035   9.322 -0.1850  0.0858 -0.5816
 9429SOL    HW130294   3.557  10.018   9.310 -0.7265 -2.5835 -1.8579
 9429SOL    HW230295   3.445  10.111   9.268  0.9205 -0.5438 -1.8961
 9430SOL     OW30296  11.218   4.531   2.771 -0.4105  1.3370 -0.1616
 9430SOL    HW130297  11.150   4.485   2.821  0.3397  0.7205  0.3188
 9430SOL    HW230298  11.251   4.465   2.710  0.0906  1.4885 -0.0540
 9431SOL     OW30299   5.334   2.678   6.198  0.0553 -0.4564 -0.0590
 9431SOL    HW130300   5.359   2.706   6.110  0.2197 -1.2285 -0.2682
 9431SOL    HW230301   5.247   2.716   6.211  0.2445  0.0862 -0.3510
 9432SOL     OW30302   7.323   4.811   4.691 -0.2824 -0.4583 -0.6119
 9432SOL    HW130303   7.405   4.771   4.662 -0.4966 -0.8505 -0.6878
 9432SOL    HW230304   7.312   4.780   4.781  0.3655  0.7280 -0.1081
 9433SOL     OW30305   9.002   0.239   7.679 -0.4133  0.0134 -0.6339
 9433SOL    HW130306   9.098   0.239   7.679 -0.3970 -0.1529 -1.9499
 9433SOL    HW230307   8.978   0.243   7.587 -1.6827 -0.1928 -0.3298
 9434SOL     OW30308   7.153   8.660   4.333  0.7332  0.8298  0.1724
 9434SOL    HW130309   7.111   8.621   4.410  0.8086 -1.3083 -0.7888
 9434SOL    HW230310   7.203   8.588   4.295  0.0407  1.5894 -2.3214
 9435SOL     OW30311   2.891   8.973   1.258  0.5422 -0.3084 -0.3583
 9435SOL    HW130312   2.815   9.020   1.224  1.7470  1.5174 -0.6207
 9435SOL    HW230313   2.960   8.987   1.193  0.2743 -4.9942 -2.0953
 9436SOL     OW30314   3.637   1.519   2.860 -0.1939  0.3362 -0.2777
 9436SOL    HW130315   3.605   1.456   2.925 -0.3325  0.3242 -0.3572
 9436SOL    HW230316   3.657   1.598   2.910  1.0393 -0.1245 -0.0027
 9437SOL     OW30317   3.423   4.488   0.551  0.1129  0.1366 -0.5038
 9437SOL    HW130318   3.401   4.561   0.609  0.9926  0.3986 -0.4860
 9437SOL    HW230319   3.515   4.470   0.568 -0.1547 -1.1832 -0.3049
 9438SOL     OW30320  11.057   6.698   8.350 -0.0659 -0.0094  0.1402
 9438SOL    HW130321  11.063   6.641   8.274 -1.8969  0.8990 -0.7539
 9438SOL    HW230322  10.996   6.654   8.409 -2.5097  1.4329 -1.0992
 9439SOL     OW30323   9.094   8.846   1.870 -0.6927  0.3275 -0.1222
 9439SOL    HW130324   9.002   8.818   1.868 -1.1293  1.7327 -1.5495
 9439SOL    HW230325   9.143   8.765   1.854 -1.7627 -0.2144 -0.8531
 9440SOL     OW30326   0.904  11.170   3.289  1.0269 -0.5715  0.3707
 9440SOL    HW130327   0.826  11.125   3.256  1.0277 -0.8988  0.8140
 9440SOL    HW230328   0.875  11.210   3.372  0.7981  0.9180 -0.3943
 9441SOL     OW30329   9.572   1.924   7.282 -0.1615  0.2713  0.1052
 9441SOL    HW130330   9.508   1.950   7.216  0.2719  1.5550  0.1601
 9441SOL    HW230331   9.519   1.891   7.355 -0.7030  0.2922 -0.2701
 9442SOL     OW30332   1.840   2.852   1.388 -0.6888  0.1177 -0.1389
 9442SOL    HW130333   1.828   2.931   1.336  2.2359  0.3429 -0.5872
 9442SOL    HW230334   1.933   2.850   1.410 -0.9768 -2.3314  1.3052
 9443SOL     OW30335   9.603  11.235   3.159  0.4500  0.4219 -0.4619
 9443SOL    HW130336   9.579  11.212   3.249 -1.1256  2.1044 -0.3960
 9443SOL    HW230337   9.526  11.211   3.108  0.8048  0.7715 -1.1636
 9444SOL     OW30338   7.796   3.834  10.181 -0.4222  0.1970  0.1796
 9444SOL    HW130339   7.856   3.764  10.208 -0.1890 -0.8104 -2.6057
 9444SOL    HW230340   7.837   3.915  10.212  1.8150 -0.5625 -0.6025
 9445SOL     OW30341   2.869   7.345   5.576  0.4184 -0.5836 -0.6725
 9445SOL    HW130342   2.904   7.367   5.490 -0.6743 -2.2786 -1.6049
 9445SOL    HW230343   2.776   7.327   5.560 -0.6558  2.3238  1.4529
 9446SOL     OW30344   2.008   4.915   0.389 -0.1374  0.5613 -0.4772
 9446SOL    HW130345   1.977   5.004   0.372  1.0655  1.4551  1.6782
 9446SOL    HW230346   2.081   4.903   0.329 -0.8268  0.6659 -1.3729
 9447SOL     OW30347   4.603   6.740   0.147 -0.4449  0.1415 -0.3965
 9447SOL    HW130348   4.571   6.707   0.231 -1.6982 -2.3664 -1.7405
 9447SOL    HW230349   4.569   6.829   0.142 -0.5989  0.2474  1.5937
 9448SOL     OW30350   2.335   3.200   2.957  0.3165  0.1547  0.4209
 9448SOL    HW130351   2.250   3.227   2.923  1.5578  0.5401 -2.8339
 9448SOL    HW230352   2.318   3.120   3.006 -1.9760  0.5364  0.3332
 9449SOL     OW30353   6.763   3.751   7.972 -0.3949 -0.7857 -0.5553
 9449SOL    HW130354   6.805   3.834   7.951 -0.9321 -0.5704 -0.7787
 9449SOL    HW230355   6.673   3.774   7.994 -0.0141 -1.0439  1.4930
 9450SOL     OW30356  10.556   1.049   1.838  0.5067 -1.2233  0.0123
 9450SOL    HW130357  10.500   1.100   1.896  1.4073 -0.9784  0.6933
 9450SOL    HW230358  10.531   1.077   1.750  0.5179 -0.0958  0.3531
 9451SOL     OW30359   2.343   1.795   5.123 -0.3784 -0.0710  0.7292
 9451SOL    HW130360   2.252   1.766   5.112 -0.7148 -0.0778  3.0565
 9451SOL    HW230361   2.395   1.723   5.087 -1.2762 -1.1085  1.4498
 9452SOL     OW30362   3.091   4.268   6.965  0.4932  0.2313 -0.0051
 9452SOL    HW130363   3.102   4.289   7.058  2.8495 -2.0110  0.3590
 9452SOL    HW230364   3.173   4.299   6.924  0.0773 -0.0346 -1.0734
 9453SOL     OW30365   0.358   8.696   1.394  0.1455  1.0527  0.4037
 9453SOL    HW130366   0.275   8.692   1.443 -0.2067  3.3490  0.0952
 9453SOL    HW230367   0.335   8.738   1.312  0.9174 -1.9012 -1.4821
 9454SOL     OW30368  11.176  10.858   0.394  0.1527  0.6638 -0.0841
 9454SOL    HW130369  11.207  10.846   0.484  0.6194  0.7965 -0.2223
 9454SOL    HW230370  11.256  10.860   0.342 -0.1742 -1.6292 -0.7772
 9455SOL     OW30371  11.261   3.550   9.747  0.1186 -0.2125  0.7432
 9455SOL    HW130372  11.310   3.475   9.781  3.0666  0.6841 -1.2118
 9455SOL    HW230373  11.255   3.610   9.821 -0.1604 -1.3435  1.6636
 9456SOL     OW30374   6.745   0.509   9.235 -0.3278  0.1413 -0.4407
 9456SOL    HW130375   6.689   0.505   9.158 -0.6801 -1.4654 -0.1516
 9456SOL    HW230376   6.725   0.428   9.283  1.0292  0.3339  0.5129
 9457SOL     OW30377   9.692   3.760   1.707 -0.4993  0.2303  0.0011
 9457SOL    HW130378   9.600   3.761   1.734 -0.8218 -1.3429 -0.9533
 9457SOL    HW230379   9.729   3.682   1.750  0.6801  1.3715  1.1747
 9458SOL     OW30380   6.196   1.224   5.471  0.1603 -0.1470 -0.1936
 9458SOL    HW130381   6.184   1.307   5.425  0.2325  0.8437  1.4914
 9458SOL    HW230382   6.151   1.236   5.554  3.4098 -0.3132  1.7656
 9459SOL     OW30383   6.317   8.638   9.516  0.0176  0.1711 -0.3664
 9459SOL    HW130384   6.317   8.730   9.490  2.4258  0.1856 -0.5293
 9459SOL    HW230385   6.295   8.590   9.436  1.4919  0.5123 -1.0147
 9460SOL     OW30386   5.378  10.018   4.724  0.3296  0.4749 -0.7756
 9460SOL    HW130387   5.293   9.980   4.747  0.3959  1.0306  0.4628
 9460SOL    HW230388   5.442   9.954   4.755  0.3917  0.6028 -0.6410
 9461SOL     OW30389   6.326   0.735   9.840  0.1279  0.1165  0.6530
 9461SOL    HW130390   6.355   0.644   9.834 -1.7263 -0.5198  0.6421
 9461SOL    HW230391   6.325   0.767   9.750 -1.5871 -0.6898  0.3440
 9462SOL     OW30392   9.894   1.631  10.321 -1.1586  0.5932 -0.0390
 9462SOL    HW130393   9.819   1.574  10.340 -1.0815  0.3608 -0.4043
 9462SOL    HW230394   9.871   1.715  10.360 -0.7042 -0.0410  1.6515
 9463SOL     OW30395   2.321   5.734  10.187 -0.2480  0.0901  0.2243
 9463SOL    HW130396   2.321   5.829  10.189 -0.2543  0.1001 -0.1848
 9463SOL    HW230397   2.246   5.711  10.132  1.1415 -0.1037 -1.6787
 9464SOL     OW30398   1.050   8.947   7.111  0.0897  0.0119 -0.7049
 9464SOL    HW130399   1.047   9.001   7.190  0.8110 -0.3917 -0.4006
 9464SOL    HW230400   0.962   8.956   7.073  0.3961  1.9707 -1.0451
 9465SOL     OW30401  11.093   9.821   4.540  0.3960  0.1507 -0.1790
 9465SOL    HW130402  11.026   9.841   4.606  0.1157 -1.8588  0.2103
 9465SOL    HW230403  11.044   9.797   4.462  0.7261  1.6461 -0.8826
 9466SOL     OW30404   7.713   4.884   6.418 -0.4078  0.4922  0.4881
 9466SOL    HW130405   7.776   4.813   6.404 -0.0577  0.8491  0.2615
 9466SOL    HW230406   7.691   4.878   6.511 -0.5648 -0.0666  0.4203
 9467SOL     OW30407  10.298   1.206   3.109  0.3736  0.1052  0.4640
 9467SOL    HW130408  10.355   1.262   3.055 -0.0456  0.3164  0.2325
 9467SOL    HW230409  10.269   1.263   3.180 -0.7195  0.4347 -0.2332
 9468SOL     OW30410   3.003   9.352   1.913  1.0020 -0.0977  0.5256
 9468SOL    HW130411   2.965   9.279   1.864  1.2281 -3.2001  4.5099
 9468SOL    HW230412   2.928   9.396   1.953  1.1017 -0.8009  1.4901
 9469SOL     OW30413   5.347  11.231   2.171 -0.0017  0.4897 -0.2764
 9469SOL    HW130414   5.394  11.148   2.165 -0.5944 -0.0412  1.5760
 9469SOL    HW230415   5.387  11.275   2.247  1.2797  2.5933 -2.0552
 9470SOL     OW30416   0.814   6.447   3.957  1.2445  0.2509 -0.7443
 9470SOL    HW130417   0.745   6.440   4.023  1.0769  0.8528 -0.8464
 9470SOL    HW230418   0.882   6.388   3.988  0.9156  0.0724 -0.3462
 9471SOL     OW30419   8.656   9.589   7.572  0.2294  0.0263 -0.0708
 9471SOL    HW130420   8.747   9.572   7.550  0.1024 -1.6571  0.5030
 9471SOL    HW230421   8.650   9.572   7.666 -0.9192 -1.3034 -0.3359
 9472SOL     OW30422   9.541   7.585   9.735 -0.2026 -0.5829  0.5452
 9472SOL    HW130423   9.563   7.528   9.662  0.1550 -0.6920  0.7362
 9472SOL    HW230424   9.483   7.532   9.790  0.0526 -0.7309  0.6734
 9473SOL     OW30425   9.660   5.735   2.094  0.1968 -0.3511 -0.6833
 9473SOL    HW130426   9.569   5.764   2.085  0.9785  2.1375 -1.3050
 9473SOL    HW230427   9.710   5.796   2.040  2.4779 -0.3897  1.2289
 9474SOL     OW30428   0.786  10.220  11.182 -0.0854  0.1030  1.4849
 9474SOL    HW130429   0.755  10.260  11.263 -0.6219 -0.4536  1.5532
 9474SOL    HW230430   0.812  10.132  11.206  0.9967  0.3586  1.3040
 9475SOL     OW30431   7.930   8.052  11.059 -0.3356  0.3330 -0.6129
 9475SOL    HW130432   7.963   8.050  10.969 -0.3367  1.2912 -0.6469
 9475SOL    HW230433   7.991   7.997  11.108 -1.6009 -2.0585 -1.5819
 9476SOL     OW30434   0.204   3.545  10.600  0.0249  0.7782  0.1113
 9476SOL    HW130435   0.244   3.468  10.642 -1.0427  0.2277  0.1710
 9476SOL    HW230436   0.110   3.531  10.612 -0.2503  1.2435 -1.3899
 9477SOL     OW30437   8.941   5.537  10.716  0.0589  0.5461 -0.4905
 9477SOL    HW130438   9.025   5.550  10.758 -1.7249  0.3446  3.6346
 9477SOL    HW230439   8.961   5.497  10.632  3.9710 -0.8834  0.9430
 9478SOL     OW30440   5.851   8.146  10.075  0.1444 -0.7084  0.0022
 9478SOL    HW130441   5.899   8.124   9.996 -2.8457  1.4187 -2.6709
 9478SOL    HW230442   5.866   8.239  10.088 -1.0495 -0.5838  0.6625
 9479SOL     OW30443   8.377   5.544   0.476 -0.4027  0.0477  0.7302
 9479SOL    HW130444   8.314   5.521   0.407 -0.1649 -1.2525  0.9186
 9479SOL    HW230445   8.436   5.469   0.480  0.9553  1.0885  0.8073
 9480SOL     OW30446   5.433   9.056   8.413 -0.1368  0.2351 -0.1588
 9480SOL    HW130447   5.342   9.065   8.387 -0.4010  0.4418  0.8076
 9480SOL    HW230448   5.431   9.052   8.509  0.7072 -1.6231 -0.1764
 9481SOL     OW30449   7.007   2.851   0.514  0.2956  0.3946 -0.0433
 9481SOL    HW130450   7.053   2.848   0.597  0.2936  1.1640 -0.0081
 9481SOL    HW230451   7.069   2.816   0.450 -0.1465 -1.3924  0.4613
 9482SOL     OW30452   9.421   5.905   4.905  0.8370 -0.2087  0.3713
 9482SOL    HW130453   9.489   5.953   4.953  1.8536  0.5061 -1.6761
 9482SOL    HW230454   9.365   5.974   4.869 -0.1557 -0.7553  0.8173
 9483SOL     OW30455   8.106   2.198   8.540 -0.4570  0.5325  0.7410
 9483SOL    HW130456   8.040   2.158   8.483 -0.1277  0.7984  0.1719
 9483SOL    HW230457   8.189   2.180   8.497 -0.1979  0.6955  1.1657
 9484SOL     OW30458  10.034   0.501   1.056 -0.1093 -0.6092 -0.0465
 9484SOL    HW130459  10.037   0.539   1.143  0.4603 -2.2550  0.6979
 9484SOL    HW230460  10.126   0.493   1.030 -0.3036  1.3617 -1.5222
 9485SOL     OW30461   5.228   5.286   7.022 -0.4034  0.0216 -0.1375
 9485SOL    HW130462   5.224   5.244   7.108 -2.9939  0.1399 -0.1417
 9485SOL    HW230463   5.320   5.275   6.995  0.5282  0.0731  2.6439
 9486SOL     OW30464   4.125   1.170  10.733 -0.3201  0.7094 -0.1306
 9486SOL    HW130465   4.037   1.209  10.733 -0.6824  0.1589 -2.9870
 9486SOL    HW230466   4.159   1.189  10.645  1.9066 -0.2233  0.4656
 9487SOL     OW30467   0.201   4.319   0.378 -0.3031 -0.3436 -0.2515
 9487SOL    HW130468   0.195   4.265   0.457 -0.9818 -0.0357 -0.0945
 9487SOL    HW230469   0.295   4.317   0.356 -0.3691 -2.0020 -0.5360
 9488SOL     OW30470  10.052   7.268  10.545 -0.7158  0.3236 -0.7626
 9488SOL    HW130471  10.039   7.186  10.593 -0.2467  0.4496 -0.4058
 9488SOL    HW230472  10.054   7.336  10.613 -2.6976  0.8452 -1.1726
 9489SOL     OW30473   8.293  11.053   0.440 -0.0208  0.2035 -0.6714
 9489SOL    HW130474   8.244  10.991   0.385 -0.0603 -1.4244  1.0982
 9489SOL    HW230475   8.297  11.133   0.388 -1.2374 -0.8220 -2.4528
 9490SOL     OW30476   0.080   8.730   8.895  0.1281 -0.2494  0.3852
 9490SOL    HW130477   0.059   8.733   8.988  0.6238 -0.5106  0.5060
 9490SOL    HW230478  -0.002   8.705   8.853 -0.9332  2.7186  0.4610
 9491SOL     OW30479   6.538   5.662   4.284  0.0401  0.3349  0.3397
 9491SOL    HW130480   6.516   5.659   4.377  1.1063  0.1014  0.5932
 9491SOL    HW230481   6.577   5.576   4.266 -0.1192  0.3932 -0.3214
 9492SOL     OW30482   2.594   6.287   6.869 -0.2512  0.0660  0.1075
 9492SOL    HW130483   2.645   6.303   6.948 -0.1602  1.8563 -0.2860
 9492SOL    HW230484   2.504   6.311   6.894 -0.4898 -0.7459  0.0704
 9493SOL     OW30485   4.933   7.496   2.610 -0.1539 -0.1706  0.0488
 9493SOL    HW130486   4.920   7.455   2.525 -1.7701  0.5607 -0.0994
 9493SOL    HW230487   4.853   7.548   2.624 -0.1124 -0.6045  2.2019
 9494SOL     OW30488   0.116   1.989   4.987 -0.3373  0.6214 -0.3468
 9494SOL    HW130489   0.194   2.030   4.948  0.0297 -1.6763 -2.2816
 9494SOL    HW230490   0.043   2.024   4.936  0.1382 -2.3530 -3.4478
 9495SOL     OW30491   6.283  10.149  11.227  0.1017  0.6502 -0.1185
 9495SOL    HW130492   6.370  10.189  11.229  0.0681  0.7127  1.1315
 9495SOL    HW230493   6.238  10.185  11.304 -0.8200  0.1630 -0.4073
 9496SOL     OW30494   5.759   0.095   7.928 -0.1066  0.0463 -0.3092
 9496SOL    HW130495   5.709   0.017   7.901 -1.2075  0.0177  1.6111
 9496SOL    HW230496   5.782   0.138   7.846  0.3106 -2.1549 -1.4206
 9497SOL     OW30497   3.725   7.400   1.306 -0.4492 -0.3835  0.2339
 9497SOL    HW130498   3.819   7.412   1.295 -0.6460  1.0944 -0.0416
 9497SOL    HW230499   3.712   7.305   1.303  1.0950 -0.6381  0.9360
 9498SOL     OW30500   4.893   0.633   8.198  0.0212 -0.4236 -0.0365
 9498SOL    HW130501   4.966   0.604   8.253 -1.6811 -1.5323  1.7575
 9498SOL    HW230502   4.848   0.699   8.251 -1.4816 -1.2901 -0.1914
 9499SOL     OW30503   9.575   2.404   0.080  0.0615  0.2956  0.6161
 9499SOL    HW130504   9.510   2.335   0.089  0.1916  0.0156 -0.4505
 9499SOL    HW230505   9.545   2.456   0.006  1.6902 -0.5945 -0.7530
 9500SOL     OW30506   7.140   6.968   4.310  0.1606  0.0361 -0.2855
 9500SOL    HW130507   7.203   7.004   4.248  0.4032  0.7441  0.3596
 9500SOL    HW230508   7.178   6.985   4.396 -0.2502 -0.7821  0.0698
 9501SOL     OW30509  10.028   5.383   8.998  0.4805  0.4112  0.6593
 9501SOL    HW130510   9.947   5.354   9.040  0.1429  2.1053  1.2895
 9501SOL    HW230511  10.035   5.329   8.919 -2.0315  1.1396 -0.1688
 9502SOL     OW30512   1.683   3.946   7.608 -0.2318 -0.0820  0.0999
 9502SOL    HW130513   1.636   4.029   7.615 -0.0286  0.0243  0.2392
 9502SOL    HW230514   1.614   3.880   7.603 -0.4017  0.1598 -0.9932
 9503SOL     OW30515   8.019   2.706  10.283  0.2803 -0.3419 -0.1371
 9503SOL    HW130516   8.002   2.618  10.317  1.9509 -0.4464  0.5304
 9503SOL    HW230517   8.037   2.693  10.190  1.7889 -0.9188  0.2048
 9504SOL     OW30518   3.694   5.705   4.418  0.1878 -0.1843  0.7177
 9504SOL    HW130519   3.775   5.742   4.454 -0.7980  0.7754  2.0171
 9504SOL    HW230520   3.657   5.774   4.364 -0.7077  0.0826  1.6455
 9505SOL     OW30521   8.207   1.781   4.885  0.5747 -0.7089 -0.0389
 9505SOL    HW130522   8.141   1.732   4.934 -0.2945  0.1231 -0.3379
 9505SOL    HW230523   8.290   1.755   4.924 -0.0839 -0.0388  1.9321
 9506SOL     OW30524   7.171   5.049   1.476 -0.1370 -0.4024  0.0516
 9506SOL    HW130525   7.201   5.081   1.561  0.9883 -2.4258  0.5000
 9506SOL    HW230526   7.222   5.098   1.412 -0.1353  0.3087  0.5895
 9507SOL     OW30527   5.775   3.123   8.104  0.2526 -0.0111  0.5901
 9507SOL    HW130528   5.759   3.209   8.141 -0.3100  0.3565 -0.4699
 9507SOL    HW230529   5.850   3.134   8.046 -0.5780  0.0806 -0.5094
 9508SOL     OW30530   5.108   5.210   8.082  0.3290  0.3329 -0.4473
 9508SOL    HW130531   5.152   5.288   8.050 -0.2435  1.2719  0.9587
 9508SOL    HW230532   5.021   5.241   8.109  1.2991  0.1040  3.6775
 9509SOL     OW30533   8.992   2.794   5.894  0.8504  0.3259  0.2078
 9509SOL    HW130534   8.907   2.836   5.878  0.5746  0.6743  2.2474
 9509SOL    HW230535   9.035   2.793   5.809 -1.5930 -0.7868 -1.1252
 9510SOL     OW30536   2.557   1.772   9.723 -0.2677 -1.0576  0.5379
 9510SOL    HW130537   2.599   1.825   9.792  0.2329  2.7552 -2.3669
 9510SOL    HW230538   2.469   1.807   9.716  0.2735  0.0227 -1.8924
 9511SOL     OW30539   9.257   2.519   7.710  0.1960  0.4676 -0.0107
 9511SOL    HW130540   9.344   2.540   7.678  1.3702 -2.0926  1.2201
 9511SOL    HW230541   9.216   2.470   7.639  0.7847 -0.6118  0.3822
 9512SOL     OW30542   7.256   3.437   9.718  0.0027 -0.1400  0.2053
 9512SOL    HW130543   7.180   3.388   9.687  0.1562 -0.1766 -0.1121
 9512SOL    HW230544   7.319   3.369   9.742  0.0371 -0.1047  0.2152
 9513SOL     OW30545   2.116   8.631   4.605  0.1946  0.2492 -0.5673
 9513SOL    HW130546   2.178   8.689   4.650  0.5946 -1.2935  0.9442
 9513SOL    HW230547   2.149   8.626   4.515  0.6046  1.7068 -0.5259
 9514SOL     OW30548  11.043   1.151   5.891  0.5001 -0.6371 -0.1669
 9514SOL    HW130549  11.061   1.057   5.896  1.5127 -0.3758  2.0800
 9514SOL    HW230550  10.958   1.162   5.933 -0.5678 -0.7164 -2.1742
 9515SOL     OW30551   4.754   0.060   2.036  0.0495  0.0466 -0.4013
 9515SOL    HW130552   4.807   0.127   2.080  0.8729 -2.1881  2.3200
 9515SOL    HW230553   4.813   0.024   1.970  0.5734  0.1771 -0.0188
 9516SOL     OW30554   6.072   2.773   9.295  0.9380  0.0683 -0.2928
 9516SOL    HW130555   6.115   2.709   9.351 -0.3597  0.5221  1.3168
 9516SOL    HW230556   6.143   2.818   9.250  2.0518 -0.3541  0.9739
 9517SOL     OW30557   9.890   0.952   1.662 -0.7745 -0.2944 -0.4454
 9517SOL    HW130558   9.955   0.884   1.644  1.0920  1.7212 -1.8809
 9517SOL    HW230559   9.926   1.001   1.735 -1.1243  0.3318 -0.6873
 9518SOL     OW30560   2.974   1.825  10.077 -0.0813  0.6082 -0.1388
 9518SOL    HW130561   2.956   1.744  10.125  0.0266  0.7159  0.0804
 9518SOL    HW230562   3.004   1.887  10.143  0.6832  0.5635 -0.4344
 9519SOL     OW30563   5.575   8.519   6.705 -0.0402  0.4983  0.6025
 9519SOL    HW130564   5.527   8.549   6.782  0.3632  3.0599 -0.0340
 9519SOL    HW230565   5.651   8.577   6.701 -0.9002  1.6198 -2.6001
 9520SOL     OW30566   5.460   9.436   1.154  0.5476 -0.1376  0.1307
 9520SOL    HW130567   5.426   9.520   1.187 -0.2554 -1.4786  3.0040
 9520SOL    HW230568   5.412   9.421   1.073  0.3542  1.9195 -0.2021
 9521SOL     OW30569   3.603   3.730   4.063  0.3028  0.3047 -0.0171
 9521SOL    HW130570   3.696   3.711   4.073  0.0889 -1.7524 -1.4334
 9521SOL    HW230571   3.572   3.666   3.999 -2.1767  0.6770  0.7180
 9522SOL     OW30572   2.678   8.898   9.193  0.5770  0.0077  0.3196
 9522SOL    HW130573   2.625   8.969   9.229  1.0021  0.8124 -0.5738
 9522SOL    HW230574   2.658   8.822   9.247 -1.9980  0.0912 -0.3909
 9523SOL     OW30575   6.003   4.677   5.840  0.0374 -0.1133 -0.5449
 9523SOL    HW130576   6.053   4.597   5.859  1.1613  0.7339  0.2265
 9523SOL    HW230577   5.929   4.648   5.787 -0.3885 -1.8680  0.9419
 9524SOL     OW30578   7.882   8.824   8.532  0.7698  0.3975 -0.5123
 9524SOL    HW130579   7.972   8.815   8.564 -0.6158 -1.4911  3.6050
 9524SOL    HW230580   7.846   8.897   8.582 -0.8707 -1.1675  0.7456
 9525SOL     OW30581   5.482   1.169   7.391  0.0283 -0.0656  0.1238
 9525SOL    HW130582   5.528   1.246   7.359 -2.2726  0.8606 -1.1371
 9525SOL    HW230583   5.413   1.203   7.447 -1.3852 -1.1245 -0.8902
 9526SOL     OW30584   8.025  10.066   9.638 -0.1639 -0.2884  0.1064
 9526SOL    HW130585   8.094  10.060   9.572 -0.0458  0.5904  0.1497
 9526SOL    HW230586   8.036  10.152   9.677  0.2010 -1.0564  1.7684
 9527SOL     OW30587   4.603   7.808  10.232  0.5745 -0.1875 -0.0117
 9527SOL    HW130588   4.591   7.854  10.149  3.1136 -1.1651 -0.9873
 9527SOL    HW230589   4.621   7.718  10.208  0.6637 -0.6536  1.6647
 9528SOL     OW30590   4.913   0.214   4.166 -0.6339 -0.0132 -0.5383
 9528SOL    HW130591   5.008   0.222   4.177 -0.6025  0.9392 -1.3027
 9528SOL    HW230592   4.893   0.123   4.188  0.5686 -0.4210 -1.0726
 9529SOL     OW30593   1.451   3.345  10.760  0.1313  0.2224 -0.4489
 9529SOL    HW130594   1.413   3.380  10.680 -2.5587 -0.6296  0.3513
 9529SOL    HW230595   1.509   3.274  10.731  3.4284  3.2138 -1.8822
 9530SOL     OW30596   3.585   0.734   0.711 -0.0155 -0.1848 -0.3166
 9530SOL    HW130597   3.518   0.802   0.720 -0.9032 -1.1369  0.6182
 9530SOL    HW230598   3.564   0.670   0.780  3.0630  0.4404  1.4125
 9531SOL     OW30599   9.756   1.579  11.028  0.0539  0.3070  0.3872
 9531SOL    HW130600   9.765   1.494  10.984  0.1690  0.7336 -0.4445
 9531SOL    HW230601   9.756   1.642  10.956 -3.6028  0.8246  0.6436
 9532SOL     OW30602  10.349   0.890   7.846 -0.4476 -0.1900 -0.0157
 9532SOL    HW130603  10.353   0.958   7.779 -1.4256  1.3125  1.3568
 9532SOL    HW230604  10.340   0.808   7.798  1.4943  0.5392 -1.7682
 9533SOL     OW30605  11.041   7.602  11.269 -0.2112 -0.1745 -0.4980
 9533SOL    HW130606  11.059   7.694  11.248 -0.3561 -0.3183 -1.2762
 9533SOL    HW230607  11.022   7.561  11.185 -1.5763 -0.6079 -0.0149
 9534SOL     OW30608   0.647   0.788   2.419 -0.0782 -0.1036 -0.2478
 9534SOL    HW130609   0.594   0.859   2.456 -0.1860 -1.0382  1.4852
 9534SOL    HW230610   0.624   0.711   2.470 -0.4972 -1.6056 -2.5379
 9535SOL     OW30611   5.210   1.532   8.908 -0.1301 -0.1245  0.2243
 9535SOL    HW130612   5.292   1.578   8.890 -0.6495  1.1431  0.9455
 9535SOL    HW230613   5.142   1.590   8.873 -0.9399  0.7065  2.9220
 9536SOL     OW30614   8.360   3.248  10.824 -0.4406 -0.4350  0.0529
 9536SOL    HW130615   8.356   3.277  10.733 -1.3663  1.8240  0.7469
 9536SOL    HW230616   8.438   3.193  10.828  0.6931  0.9410 -1.7040
 9537SOL     OW30617   4.780   0.480   5.403  0.0467 -0.4994 -0.4268
 9537SOL    HW130618   4.781   0.415   5.473  0.9019 -2.0456 -1.8187
 9537SOL    HW230619   4.858   0.533   5.417  0.2044 -0.7904 -0.2153
 9538SOL     OW30620  10.726   4.496   4.352  0.1512  0.2641  0.1668
 9538SOL    HW130621  10.631   4.508   4.342  0.3017  2.7029  0.9563
 9538SOL    HW230622  10.738   4.484   4.446  0.5290 -1.4960 -0.0878
 9539SOL     OW30623   7.203   5.882   5.726 -0.3505  0.0282  0.1050
 9539SOL    HW130624   7.137   5.827   5.685 -0.3484 -0.0617  0.2214
 9539SOL    HW230625   7.197   5.861   5.819 -2.0963  2.0253  0.5251
 9540SOL     OW30626   3.343   0.729   9.828 -1.2217 -0.2005 -0.9999
 9540SOL    HW130627   3.301   0.794   9.884  2.0610 -1.0823  2.9806
 9540SOL    HW230628   3.277   0.659   9.819 -2.0142  0.0716  1.7804
 9541SOL     OW30629   7.398   6.428   4.231 -0.0251  0.1789  0.2684
 9541SOL    HW130630   7.312   6.409   4.195 -1.0555  1.1911  2.0348
 9541SOL    HW230631   7.393   6.519   4.258  2.4493  1.0083 -1.7627
 9542SOL     OW30632  10.255   0.235   8.542 -0.8097  0.8174  0.1547
 9542SOL    HW130633  10.336   0.217   8.589 -0.1171 -2.2772 -1.8603
 9542SOL    HW230634  10.264   0.324   8.509  1.3078  0.8889  0.8400
 9543SOL     OW30635   1.432   4.481  11.089  0.2545 -0.0193 -0.1663
 9543SOL    HW130636   1.492   4.554  11.076 -0.5670  0.7479  0.2608
 9543SOL    HW230637   1.412   4.482  11.182 -0.3366 -0.3325 -0.2815
 9544SOL     OW30638   6.145   5.688  10.804  0.6468 -0.1506 -0.1155
 9544SOL    HW130639   6.190   5.632  10.741 -0.3982 -0.9962 -0.1430
 9544SOL    HW230640   6.085   5.740  10.752  1.8028  1.2283 -0.1199
 9545SOL     OW30641   1.742   9.590   2.068 -0.6259 -0.2087  0.1101
 9545SOL    HW130642   1.741   9.557   2.158 -0.3035  0.1294  0.2407
 9545SOL    HW230643   1.790   9.524   2.019 -0.0545  0.0161  0.3549
 9546SOL     OW30644   8.881   4.970   6.880 -0.3574  0.3514  0.0886
 9546SOL    HW130645   8.915   4.882   6.864 -0.8175 -0.9044  4.6284
 9546SOL    HW230646   8.794   4.970   6.840  0.3419 -0.5081 -1.5435
 9547SOL     OW30647   5.177   4.873   0.598 -0.2579 -0.1105  0.1591
 9547SOL    HW130648   5.170   4.880   0.503  0.9271 -0.7648  0.0058
 9547SOL    HW230649   5.248   4.811   0.613  0.7170  1.2407  1.4685
 9548SOL     OW30650   9.400   6.803   8.864 -0.2765  0.2863  0.6096
 9548SOL    HW130651   9.436   6.845   8.786 -0.6694 -0.5686 -0.0478
 9548SOL    HW230652   9.477   6.773   8.913 -0.0420  0.3905  0.3067
 9549SOL     OW30653  10.563   7.347   1.353  0.2502 -0.1670  0.1757
 9549SOL    HW130654  10.573   7.442   1.355  2.3491 -0.3429  0.2790
 9549SOL    HW230655  10.518   7.326   1.436  1.3663  0.6195  1.0131
 9550SOL     OW30656   8.061   7.836   6.230  0.2308  0.1719 -0.5929
 9550SOL    HW130657   7.995   7.768   6.246 -1.2966  1.4390 -1.3050
 9550SOL    HW230658   8.044   7.866   6.141 -0.8296  3.2298  0.5219
 9551SOL     OW30659   0.042   1.421   1.872 -0.2149 -0.8800 -0.4918
 9551SOL    HW130660   0.018   1.508   1.839 -1.2225 -1.2341 -0.7212
 9551SOL    HW230661   0.001   1.360   1.810  1.5715 -1.5194 -1.0879
 9552SOL     OW30662   7.072   3.932   3.408 -0.3048 -0.1380  0.8328
 9552SOL    HW130663   6.979   3.939   3.429 -0.2546 -1.0551  1.3981
 9552SOL    HW230664   7.101   4.023   3.399 -1.7788  0.2022 -1.7846
 9553SOL     OW30665   6.253   5.461   2.239  0.2576  1.0251  0.1194
 9553SOL    HW130666   6.163   5.456   2.270  0.3649  0.8695  0.4072
 9553SOL    HW230667   6.268   5.554   2.225  0.5617  1.2285  1.6033
 9554SOL     OW30668   8.452  10.087   9.824 -0.2185 -0.2728  0.1682
 9554SOL    HW130669   8.518  10.054   9.885  1.7744  0.3370 -1.5180
 9554SOL    HW230670   8.416  10.165   9.866  0.9935  0.0490  0.6468
 9555SOL     OW30671   1.868   1.577   8.076 -0.2092  0.6243 -0.4694
 9555SOL    HW130672   1.781   1.554   8.045 -0.0906  2.0332 -2.0135
 9555SOL    HW230673   1.882   1.666   8.044  1.5785  0.6312  0.2100
 9556SOL     OW30674   1.803   7.997   5.303  0.2143  0.4300 -0.0636
 9556SOL    HW130675   1.893   8.026   5.289 -0.1527  1.5360 -0.2374
 9556SOL    HW230676   1.770   8.054   5.372 -0.8046  1.0548 -1.0218
 9557SOL     OW30677   0.744   1.809   7.064 -0.2585  0.2574 -0.2345
 9557SOL    HW130678   0.667   1.752   7.058  0.5346 -0.8208 -0.3284
 9557SOL    HW230679   0.741   1.861   6.983 -0.7113 -0.0076 -0.3897
 9558SOL     OW30680   3.028   0.880   9.489  0.3086 -0.2998 -0.1736
 9558SOL    HW130681   2.996   0.791   9.474 -0.6656 -0.2549  1.4568
 9558SOL    HW230682   3.019   0.923   9.404 -1.8516 -0.9713 -0.3502
 9559SOL     OW30683   1.551   5.283   5.727  0.1305  0.1626 -0.1293
 9559SOL    HW130684   1.457   5.301   5.717  0.4615  2.0139 -0.4002
 9559SOL    HW230685   1.571   5.218   5.660 -0.3762  2.1874 -2.4012
 9560SOL     OW30686   6.096   6.714  10.429 -0.3575  0.3960 -0.9010
 9560SOL    HW130687   6.119   6.782  10.493 -1.1176 -0.0684 -0.0999
 9560SOL    HW230688   6.012   6.680  10.460 -0.1312 -0.7141 -1.4459
 9561SOL     OW30689   2.478   5.059   2.526  0.0241  0.4794  0.4266
 9561SOL    HW130690   2.469   5.133   2.467 -3.2048 -0.7879 -0.9188
 9561SOL    HW230691   2.420   5.079   2.600  0.2538 -0.0772  0.7675
 9562SOL     OW30692  10.557   9.843  11.244  0.3894 -0.1866  0.4607
 9562SOL    HW130693  10.640   9.875  11.277 -1.0399  1.3079  2.8915
 9562SOL    HW230694  10.526   9.912  11.185 -0.0968  0.3379  1.3005
 9563SOL     OW30695   4.484   4.956   4.516 -0.3905 -0.1602  0.2036
 9563SOL    HW130696   4.412   5.017   4.503  0.8138  1.7791  1.9639
 9563SOL    HW230697   4.465   4.912   4.599  0.5499  0.6004  0.8485
 9564SOL     OW30698   6.123   5.193   2.838 -0.0316 -0.1743  0.7697
 9564SOL    HW130699   6.188   5.174   2.906 -1.0356  1.1936  2.1880
 9564SOL    HW230700   6.044   5.216   2.887 -1.0417  0.0386 -0.8971
 9565SOL     OW30701   9.145   2.330   3.698  0.7579 -0.8089 -0.3145
 9565SOL    HW130702   9.122   2.421   3.678 -1.1347 -0.8869  1.1494
 9565SOL    HW230703   9.237   2.334   3.725  0.2061  1.0741  1.6611
 9566SOL     OW30704   5.916   4.557   3.443 -0.3128 -0.1000  0.2381
 9566SOL    HW130705   5.900   4.576   3.535  1.6391 -1.2316  0.8646
 9566SOL    HW230706   5.928   4.642   3.402  0.4016  0.3585  1.3688
 9567SOL     OW30707   7.653  10.631   1.250  0.2520 -0.2717  0.5577
 9567SOL    HW130708   7.565  10.632   1.213  0.1237  1.6620  0.7761
 9567SOL    HW230709   7.711  10.624   1.174 -0.0761  0.5123  0.2202
 9568SOL     OW30710   1.827   5.173   2.063  0.0712  0.8225 -0.5744
 9568SOL    HW130711   1.762   5.161   2.132 -0.9445  1.9666 -1.2859
 9568SOL    HW230712   1.776   5.176   1.982  1.2341 -0.5411 -1.4097
 9569SOL     OW30713   4.934   5.915   0.027 -0.3409  0.4053  0.0730
 9569SOL    HW130714   4.952   5.978   0.097 -0.9000 -1.4652  2.0061
 9569SOL    HW230715   4.843   5.930   0.004 -0.1880  0.9468 -0.2090
 9570SOL     OW30716   8.866  10.854  11.285  0.3162 -0.2566 -0.1513
 9570SOL    HW130717   8.899  10.929  11.236  0.8398  0.3914  1.1558
 9570SOL    HW230718   8.928  10.844  11.358 -0.2228 -1.4376  0.1673
 9571SOL     OW30719   1.742   6.477   3.828  0.5446  0.4906 -0.5601
 9571SOL    HW130720   1.793   6.397   3.842  1.3607  0.4980 -3.0879
 9571SOL    HW230721   1.780   6.541   3.888  0.4662 -0.7293  0.8451
 9572SOL     OW30722   3.658   4.038   8.101 -0.1208  0.3340 -0.1973
 9572SOL    HW130723   3.625   4.105   8.161 -0.8820  0.3284 -0.6017
 9572SOL    HW230724   3.750   4.026   8.127 -0.8071 -0.7600  1.9724
 9573SOL     OW30725   9.885   1.172   9.956  0.7383 -0.7577  0.3633
 9573SOL    HW130726   9.885   1.101   9.892  0.5870 -0.2771 -0.1730
 9573SOL    HW230727   9.815   1.149  10.017 -0.0380 -0.5262 -0.4194
 9574SOL     OW30728   8.758   5.427   4.658 -0.0320 -0.9140 -0.3104
 9574SOL    HW130729   8.853   5.412   4.656  0.2041  0.1960  0.8434
 9574SOL    HW230730   8.739   5.466   4.573  1.1580  1.7191  0.4921
 9575SOL     OW30731   8.653  10.962  11.014  0.0838  0.2997  0.3252
 9575SOL    HW130732   8.636  10.875  11.050  1.6636 -0.2797 -0.2526
 9575SOL    HW230733   8.725  10.996  11.067  0.0852  0.8854 -0.0467
 9576SOL     OW30734   3.889   1.235   1.624 -0.9154  0.0223 -0.1894
 9576SOL    HW130735   3.955   1.303   1.614 -1.9460  1.2398  0.9169
 9576SOL    HW230736   3.897   1.182   1.545  0.1868  1.1823 -0.8889
 9577SOL     OW30737   0.010   4.291   3.461  0.4566 -0.5041  0.4658
 9577SOL    HW130738  -0.009   4.323   3.549 -1.3384 -0.7052  0.1729
 9577SOL    HW230739   0.038   4.369   3.413  0.1374 -0.1471  0.8567
 9578SOL     OW30740  10.480   3.848   2.020 -0.4228  0.1993 -0.2501
 9578SOL    HW130741  10.505   3.898   2.097 -0.2379 -1.9897  1.2097
 9578SOL    HW230742  10.556   3.793   2.001 -0.4304  0.7626 -2.0991
 9579SOL     OW30743   0.268   3.145   7.536 -0.8589  0.1493  0.2270
 9579SOL    HW130744   0.222   3.159   7.619 -1.7519  1.6809 -0.4821
 9579SOL    HW230745   0.199   3.140   7.471 -0.1033  0.5973 -0.6319
 9580SOL     OW30746   6.591   8.131   7.111 -0.6626  0.0321 -0.2991
 9580SOL    HW130747   6.632   8.125   7.197  0.6246  0.2978 -0.8663
 9580SOL    HW230748   6.503   8.095   7.123  0.0374 -1.4066  0.7592
 9581SOL     OW30749   6.792  10.219   2.881  0.5310  0.0187 -0.0766
 9581SOL    HW130750   6.799  10.124   2.893  0.6665  0.1723  1.1076
 9581SOL    HW230751   6.791  10.255   2.969 -0.8919  1.0381 -0.4786
 9582SOL     OW30752   6.263   1.064   3.946 -0.7195 -0.3650  0.2200
 9582SOL    HW130753   6.176   1.040   3.977 -0.8852 -2.1387 -1.4916
 9582SOL    HW230754   6.323   1.013   4.001 -0.9024 -1.4356 -0.5538
 9583SOL     OW30755   3.664   7.167   9.161  0.3671 -0.1709 -0.6110
 9583SOL    HW130756   3.593   7.102   9.156 -1.1331  1.4389 -0.9763
 9583SOL    HW230757   3.713   7.154   9.080  0.5901 -1.3713 -0.3087
 9584SOL     OW30758   6.248   4.150   4.375 -0.5610 -0.6951  0.0385
 9584SOL    HW130759   6.244   4.063   4.416 -1.3397 -0.8648 -0.3763
 9584SOL    HW230760   6.263   4.132   4.282  3.0591 -0.2595  0.4030
 9585SOL     OW30761   1.578   2.954   8.311  0.1472  0.3984 -0.0166
 9585SOL    HW130762   1.536   2.876   8.345  0.7217 -0.2410 -0.7383
 9585SOL    HW230763   1.578   2.942   8.216  0.3202  1.2346 -0.1319
 9586SOL     OW30764   7.664   0.149   9.731  0.7809 -0.3129  0.0273
 9586SOL    HW130765   7.591   0.090   9.713 -0.2128  0.9808 -0.3028
 9586SOL    HW230766   7.634   0.234   9.701  2.2191  0.3597  0.4222
 9587SOL     OW30767  10.736   1.136   7.414 -0.6215  0.0022 -0.0177
 9587SOL    HW130768  10.764   1.187   7.491 -1.2466  0.9989 -0.4232
 9587SOL    HW230769  10.690   1.061   7.450  0.2105 -0.2223  0.6001
 9588SOL     OW30770   6.513  10.921   1.148  0.3506  0.4665  0.0828
 9588SOL    HW130771   6.544  10.850   1.092  2.1245  1.2835 -0.0646
 9588SOL    HW230772   6.489  10.879   1.231  1.4764 -0.3011  0.0323
 9589SOL     OW30773   2.894   2.915   7.913 -0.6176  0.0004 -0.3723
 9589SOL    HW130774   2.910   3.009   7.911 -3.8033  0.6738 -3.2006
 9589SOL    HW230775   2.981   2.876   7.919  0.8786  3.0687 -0.0477
 9590SOL     OW30776   8.866   7.806   8.206 -0.0510 -0.2873 -0.3480
 9590SOL    HW130777   8.849   7.754   8.285  1.0129 -0.2668 -0.0949
 9590SOL    HW230778   8.889   7.741   8.140  2.4362 -0.1375  0.2664
 9591SOL     OW30779   4.607   4.951   0.209  0.3193  0.1751 -0.3444
 9591SOL    HW130780   4.640   4.985   0.126  2.5340 -1.4028 -0.1918
 9591SOL    HW230781   4.533   4.896   0.184  0.4889  0.3178 -1.1883
 9592SOL     OW30782   4.296  11.128   0.404 -0.1641  0.1954 -0.1651
 9592SOL    HW130783   4.248  11.076   0.468 -0.6535  0.6534 -0.1536
 9592SOL    HW230784   4.376  11.156   0.450 -0.1393 -0.1284 -0.0117
 9593SOL     OW30785   5.889   6.800   9.863  0.1897 -0.3812 -0.3794
 9593SOL    HW130786   5.834   6.864   9.818  1.8420  0.9704 -0.5898
 9593SOL    HW230787   5.896   6.727   9.802  1.3408  0.8762 -1.8125
 9594SOL     OW30788   2.119   1.128   5.847 -0.0311  0.0251  0.2878
 9594SOL    HW130789   2.052   1.061   5.854  0.7181 -0.8891 -0.9460
 9594SOL    HW230790   2.074   1.203   5.808  0.0875 -1.3103 -2.5947
 9595SOL     OW30791   1.213   6.736  10.140  0.3944 -0.3017 -0.5922
 9595SOL    HW130792   1.240   6.645  10.153 -0.0117 -0.7437 -2.5160
 9595SOL    HW230793   1.284   6.775  10.089  0.1445  0.2099 -0.5584
 9596SOL     OW30794   5.464   6.587  11.273 -0.0646  0.3369  0.7081
 9596SOL    HW130795   5.410   6.563  11.197  1.4428  1.6381 -0.8679
 9596SOL    HW230796   5.440   6.678  11.290  0.1912  0.2964  1.2898
 9597SOL     OW30797   5.315   9.858   8.072 -0.2909  0.3209 -0.2784
 9597SOL    HW130798   5.366   9.818   8.142 -2.8061 -0.2871  1.3373
 9597SOL    HW230799   5.331   9.952   8.081 -0.3631  0.2267  0.9879
 9598SOL     OW30800   5.302   1.003  10.088 -0.2081 -0.3933 -0.2527
 9598SOL    HW130801   5.359   0.937  10.048 -1.1102 -1.7731  0.6392
 9598SOL    HW230802   5.280   1.062  10.017 -0.4127 -1.8183 -1.4305
 9599SOL     OW30803  11.216   1.714   5.857  0.9769  0.3151  0.7328
 9599SOL    HW130804  11.192   1.628   5.894  0.9503 -0.4688 -1.0219
 9599SOL    HW230805  11.310   1.720   5.872  0.9244  0.1488  1.1744
 9600SOL     OW30806   9.712   5.208   5.918 -0.1579 -0.3249 -0.1678
 9600SOL    HW130807   9.758   5.228   5.999 -2.9324 -0.6786  1.6441
 9600SOL    HW230808   9.696   5.113   5.923  0.9134 -0.6484 -1.9274
 9601SOL     OW30809   4.183   5.803   4.038  0.8084  0.6085  0.3794
 9601SOL    HW130810   4.148   5.855   3.966  2.4302  0.7291 -0.3565
 9601SOL    HW230811   4.188   5.714   4.004  1.1469  0.5820  0.4919
 9602SOL     OW30812   0.952   7.555   3.626 -0.4078 -0.6969  0.8471
 9602SOL    HW130813   1.024   7.526   3.571  0.5778  0.5061  1.4538
 9602SOL    HW230814   0.917   7.475   3.664  0.2114 -1.3519  0.0562
 9603SOL     OW30815   8.471   0.008   9.408 -0.0660  0.6947  0.3198
 9603SOL    HW130816   8.527   0.085   9.418  1.1024 -0.2913  1.7510
 9603SOL    HW230817   8.498  -0.051   9.478 -1.0398 -0.9684 -0.6315
 9604SOL     OW30818   7.794   9.246   9.717 -0.0959 -0.0353 -0.5956
 9604SOL    HW130819   7.731   9.189   9.761  1.1146 -0.9889 -0.0318
 9604SOL    HW230820   7.765   9.248   9.626 -2.0141  1.0887 -0.0110
 9605SOL     OW30821   9.687  10.289   6.174  0.0963  0.0608  0.2643
 9605SOL    HW130822   9.641  10.253   6.250  2.4171  0.3919  1.9587
 9605SOL    HW230823   9.733  10.214   6.136 -1.5726 -0.2266 -1.2696
 9606SOL     OW30824  10.699   6.019   3.395 -0.3253 -0.1628  0.0014
 9606SOL    HW130825  10.708   5.968   3.315  1.4838 -0.5768  0.4165
 9606SOL    HW230826  10.670   5.956   3.461 -0.0541 -0.2224  0.0654
 9607SOL     OW30827   5.486   3.123   1.097 -0.2330  0.2502  0.5184
 9607SOL    HW130828   5.440   3.040   1.095 -0.9283  0.6370 -0.8270
 9607SOL    HW230829   5.548   3.115   1.169 -1.3054 -0.8720  1.3421
 9608SOL     OW30830   4.521   1.676   5.835 -0.0515  0.0642  0.3139
 9608SOL    HW130831   4.556   1.623   5.763 -1.1906  0.6829 -0.7341
 9608SOL    HW230832   4.573   1.757   5.832  0.9980 -0.5517  1.2590
 9609SOL     OW30833   3.941   6.547   1.534 -0.0253  0.1529  0.5915
 9609SOL    HW130834   3.869   6.502   1.577 -1.7571  0.8635 -1.3964
 9609SOL    HW230835   3.916   6.639   1.534  0.0898  0.2362 -1.4793
 9610SOL     OW30836   3.412   6.529  11.044 -0.3342 -0.0257 -0.3974
 9610SOL    HW130837   3.459   6.491  10.970  0.0129  1.4565 -0.9779
 9610SOL    HW230838   3.435   6.622  11.042 -4.7169  1.3123 -1.9456
 9611SOL     OW30839   2.352   1.283   1.803  0.3263  0.1944  0.0135
 9611SOL    HW130840   2.259   1.269   1.786  0.0278  0.5516  1.2423
 9611SOL    HW230841   2.370   1.371   1.772 -0.2791  0.9511  1.6790
 9612SOL     OW30842  10.352   6.718   0.606  0.3833 -0.1286 -0.5311
 9612SOL    HW130843  10.274   6.664   0.619  0.1061 -0.1702 -2.1297
 9612SOL    HW230844  10.402   6.672   0.538 -0.1019  1.8293 -2.3021
 9613SOL     OW30845   6.064   1.763   8.632  0.3488  0.1306  0.0720
 9613SOL    HW130846   6.091   1.846   8.672  1.1370 -1.3842  2.8907
 9613SOL    HW230847   6.144   1.727   8.595  0.0861  0.3806 -0.7737
 9614SOL     OW30848   3.430   4.020   5.011  0.1390  0.5100  0.2340
 9614SOL    HW130849   3.394   4.018   4.922  0.1148  0.6530  0.2394
 9614SOL    HW230850   3.523   4.042   4.999  1.1178 -3.1704 -0.0351
 9615SOL     OW30851   6.014   0.722   4.324 -0.5681 -0.2242  0.2937
 9615SOL    HW130852   6.044   0.644   4.372  3.3773  0.7828 -0.1603
 9615SOL    HW230853   6.092   0.751   4.276 -2.3413  3.0759 -0.8577
 9616SOL     OW30854   1.770  10.458  10.636  0.4860 -0.2947  0.5916
 9616SOL    HW130855   1.755  10.535  10.691 -1.7814 -0.2266 -0.0298
 9616SOL    HW230856   1.759  10.384  10.695  3.4242 -0.2440  1.3706
 9617SOL     OW30857   9.894   7.491   0.861  0.6585 -0.6202 -0.2299
 9617SOL    HW130858   9.851   7.559   0.912 -0.0337 -1.8388  0.8824
 9617SOL    HW230859   9.921   7.535   0.780 -0.9037  0.6626 -0.1152
 9618SOL     OW30860   0.701  10.142   0.980  0.0027 -0.5703  0.7426
 9618SOL    HW130861   0.619  10.157   1.026 -0.6461  1.5331 -0.9356
 9618SOL    HW230862   0.738  10.064   1.022 -2.6758 -1.4236  1.7330
 9619SOL     OW30863   2.283   6.040   6.506 -0.1493  0.1794 -0.5197
 9619SOL    HW130864   2.280   6.028   6.411  1.5465 -3.0262 -0.3023
 9619SOL    HW230865   2.250   5.958   6.542  2.4782 -0.0841  1.5956
 9620SOL     OW30866   0.197   4.565   6.573 -0.0516  0.0303  0.2584
 9620SOL    HW130867   0.159   4.650   6.554  0.1545  0.2576  0.8204
 9620SOL    HW230868   0.230   4.573   6.663  0.5451 -0.4327  0.0902
 9621SOL     OW30869   6.104   5.576   4.880  0.7216  0.6822 -0.1683
 9621SOL    HW130870   6.184   5.536   4.914  0.4860  0.8422  0.5880
 9621SOL    HW230871   6.098   5.660   4.926  0.2419  0.7756 -0.3995
 9622SOL     OW30872   1.914   3.236   2.722 -0.0303  0.0889  0.1666
 9622SOL    HW130873   1.874   3.165   2.773 -1.8502  1.5133  0.8367
 9622SOL    HW230874   1.963   3.191   2.654 -1.0507 -1.8228  0.6012
 9623SOL     OW30875   2.789   3.480   6.929 -0.3621  0.3011 -0.1537
 9623SOL    HW130876   2.712   3.426   6.912 -0.6275  0.3481  0.8196
 9623SOL    HW230877   2.786   3.549   6.863 -1.9363  1.1106  0.7179
 9624SOL     OW30878   6.587   4.032   6.856 -0.1333  0.2615  0.6974
 9624SOL    HW130879   6.650   4.024   6.928 -0.1931 -3.5924  0.5495
 9624SOL    HW230880   6.508   3.989   6.890 -0.8810  0.2835 -0.9418
 9625SOL     OW30881   3.730   7.920   7.778  0.1189  0.9452 -0.4067
 9625SOL    HW130882   3.696   7.969   7.703  1.3525  2.4297 -0.0332
 9625SOL    HW230883   3.825   7.932   7.774  0.1489  2.1206  2.0849
 9626SOL     OW30884   5.073   6.233   3.621  0.1113 -0.4166  0.2244
 9626SOL    HW130885   5.035   6.300   3.679 -1.0702  0.1445 -1.1434
 9626SOL    HW230886   5.004   6.167   3.612 -0.0221 -0.1185 -1.1247
 9627SOL     OW30887   5.600   8.582   3.656 -0.0976 -0.0535 -0.3341
 9627SOL    HW130888   5.589   8.495   3.617 -0.7132 -0.3302  0.4271
 9627SOL    HW230889   5.514   8.623   3.647  0.0438  0.2676 -0.2126
 9628SOL     OW30890   7.045   8.927   8.341  0.5807 -0.1858 -0.7941
 9628SOL    HW130891   7.117   8.953   8.284  1.1713 -1.7076 -0.7661
 9628SOL    HW230892   7.087   8.880   8.413 -0.4258 -1.1370 -0.8046
 9629SOL     OW30893  10.141   8.806  10.859  0.6251 -0.0338 -0.3179
 9629SOL    HW130894  10.169   8.830  10.771  2.3118 -2.7805 -0.6409
 9629SOL    HW230895  10.149   8.711  10.862  0.5142 -0.0529  2.7792
 9630SOL     OW30896  10.794   6.141   1.497 -0.0201 -0.2905 -0.2843
 9630SOL    HW130897  10.882   6.135   1.535 -0.4602  0.9993  1.0165
 9630SOL    HW230898  10.775   6.234   1.496 -0.9470 -0.4826 -1.5983
 9631SOL     OW30899   6.652   1.150   5.638 -0.1587 -0.1694 -0.0411
 9631SOL    HW130900   6.671   1.063   5.602 -0.8118  0.3890 -1.8244
 9631SOL    HW230901   6.557   1.160   5.628  0.0359  1.1257 -0.7814
 9632SOL     OW30902   5.605  10.522   2.743 -0.0126  0.0381 -0.2957
 9632SOL    HW130903   5.611  10.605   2.695  1.3717  0.9435  1.3399
 9632SOL    HW230904   5.647  10.540   2.827 -0.5013 -2.0829  0.4574
 9633SOL     OW30905   9.256   0.413   3.270 -0.2460 -0.3822 -0.0955
 9633SOL    HW130906   9.261   0.344   3.337  1.0394 -0.5590 -0.3406
 9633SOL    HW230907   9.238   0.367   3.189  2.9005 -0.7976 -0.6867
 9634SOL     OW30908   6.546  11.059   5.366 -0.1364 -0.1635  0.1331
 9634SOL    HW130909   6.571  11.044   5.275 -1.7741 -0.2441 -0.3235
 9634SOL    HW230910   6.451  11.070   5.364 -0.0743  1.1170  1.6594
 9635SOL     OW30911  11.262   7.869   3.268 -0.7114 -0.2846  0.2187
 9635SOL    HW130912  11.323   7.900   3.335  0.9175 -1.6695 -0.5337
 9635SOL    HW230913  11.249   7.944   3.211  1.3515 -0.2637 -0.3054
 9636SOL     OW30914   4.644   0.807   1.688 -0.1856 -0.6758  0.2467
 9636SOL    HW130915   4.580   0.771   1.626 -1.0619  0.5857  0.3841
 9636SOL    HW230916   4.667   0.892   1.650  0.7568 -0.7432  0.6599
 9637SOL     OW30917   3.847   0.101   8.831  0.1650  0.4353  0.2398
 9637SOL    HW130918   3.797   0.061   8.760 -0.5931 -1.0324  1.5525
 9637SOL    HW230919   3.937   0.070   8.817  0.5369  2.0515 -1.3809
 9638SOL     OW30920   2.111   8.086  11.219  0.0917 -0.2598 -0.0737
 9638SOL    HW130921   2.069   8.172  11.215 -0.8177 -0.7345 -1.2894
 9638SOL    HW230922   2.205   8.104  11.219 -0.0960  0.7300 -0.2417
 9639SOL     OW30923   4.471   3.656   0.192 -0.3470  0.0325 -0.2662
 9639SOL    HW130924   4.556   3.678   0.231  0.0049 -2.0296  0.2488
 9639SOL    HW230925   4.424   3.739   0.188  1.0060  0.9160  1.1327
 9640SOL     OW30926   3.431   8.716   5.418 -0.1531  0.2467 -0.0410
 9640SOL    HW130927   3.423   8.705   5.323  0.0819 -0.6542  0.0368
 9640SOL    HW230928   3.402   8.806   5.434 -0.3714  0.3479 -0.9434
 9641SOL     OW30929   9.697   6.010   1.362 -0.1248  1.0117 -0.1475
 9641SOL    HW130930   9.748   5.948   1.414  1.0022  2.8189  0.9975
 9641SOL    HW230931   9.742   6.012   1.277 -0.2553  0.1835 -0.2467
 9642SOL     OW30932   6.697   3.034   1.690  0.4505  0.1237  0.0867
 9642SOL    HW130933   6.742   2.951   1.708 -0.3757 -0.0524  1.5228
 9642SOL    HW230934   6.750   3.100   1.735  1.0209  0.3645 -0.9239
 9643SOL     OW30935   6.850   9.092   8.273 -0.3014 -0.1390 -0.2913
 9643SOL    HW130936   6.882   9.141   8.198 -2.4175  1.4888 -0.2311
 9643SOL    HW230937   6.922   9.033   8.296  2.4480  2.9249 -0.3265
 9644SOL     OW30938   3.151   6.001   8.386  0.0186  0.5902 -0.5126
 9644SOL    HW130939   3.141   6.078   8.441  0.9095  0.8285 -0.6827
 9644SOL    HW230940   3.139   6.033   8.297  2.4995  0.9692 -0.7699
 9645SOL     OW30941   1.791   3.343   5.244 -0.0316 -0.1249 -0.0053
 9645SOL    HW130942   1.822   3.334   5.334  0.9007 -0.9246 -0.3915
 9645SOL    HW230943   1.848   3.409   5.205 -2.2257  2.4126  0.7395
 9646SOL     OW30944  10.392   6.324   0.642 -0.4587  0.3407 -0.8516
 9646SOL    HW130945  10.482   6.339   0.671 -0.0921  1.1313 -2.2605
 9646SOL    HW230946  10.397   6.327   0.546 -1.8740 -0.2990 -0.9745
 9647SOL     OW30947   9.569   0.830  10.020  0.7542 -0.6697  0.3072
 9647SOL    HW130948   9.511   0.770   9.972 -2.1990  2.4121 -0.3423
 9647SOL    HW230949   9.580   0.789  10.106 -0.7710 -2.3400 -0.2350
 9648SOL     OW30950   4.317   7.525   2.081 -0.0244  0.2521  0.2551
 9648SOL    HW130951   4.370   7.604   2.088  0.1431  0.0820  0.9585
 9648SOL    HW230952   4.236   7.546   2.128 -0.6967  0.5945 -1.0119
 9649SOL     OW30953   2.273   4.826   6.702  0.3669  0.5082  0.0104
 9649SOL    HW130954   2.287   4.778   6.783 -3.7713 -0.3465  0.4345
 9649SOL    HW230955   2.309   4.769   6.634 -1.5782 -1.8181  0.8026
 9650SOL     OW30956  11.150   3.871   9.347 -0.2555 -0.6304  0.1933
 9650SOL    HW130957  11.190   3.957   9.331  0.8126 -1.4844 -2.1081
 9650SOL    HW230958  11.202   3.835   9.419  0.0287  0.1765  0.4147
 9651SOL     OW30959   2.692   4.974   0.488  0.6267 -0.1080 -0.1609
 9651SOL    HW130960   2.649   4.913   0.547  1.0100  0.7575  1.0388
 9651SOL    HW230961   2.670   4.942   0.400 -1.5363 -0.3096  0.3999
 9652SOL     OW30962   3.257   1.913   8.298  0.1863 -0.1197  0.2911
 9652SOL    HW130963   3.214   1.995   8.324 -0.0063 -0.6090  1.5852
 9652SOL    HW230964   3.296   1.880   8.379  1.5094 -0.5782 -0.5141
 9653SOL     OW30965   8.557   4.887   2.060  0.4614  0.2658  0.3079
 9653SOL    HW130966   8.463   4.885   2.039  0.3384  0.4467  0.8314
 9653SOL    HW230967   8.578   4.980   2.066  0.5046  0.2225  0.9268
 9654SOL     OW30968   2.565   8.817   0.489 -0.0641 -0.1886 -0.4258
 9654SOL    HW130969   2.571   8.739   0.543 -0.3170 -0.1658 -0.3605
 9654SOL    HW230970   2.503   8.794   0.420 -1.9962  0.6907  0.9095
 9655SOL     OW30971   7.887   6.416  10.809  0.2871 -0.1522 -0.1623
 9655SOL    HW130972   7.902   6.505  10.842  1.8100  0.3036 -1.9409
 9655SOL    HW230973   7.956   6.403  10.743  0.4680 -2.8792  0.4629
 9656SOL     OW30974   7.218   5.802   9.023  0.2219  0.2172  0.2466
 9656SOL    HW130975   7.309   5.775   9.012 -0.3609 -1.6813 -0.3676
 9656SOL    HW230976   7.222   5.876   9.084  1.9884 -1.1601  1.9302
 9657SOL     OW30977   5.161   5.079   2.705  0.6948 -0.2476 -0.8082
 9657SOL    HW130978   5.159   4.996   2.753  0.9701  0.3994  0.3837
 9657SOL    HW230979   5.254   5.104   2.707  0.3606  1.0644  0.6696
 9658SOL     OW30980   5.060   3.869   5.556  0.7860 -0.7982  0.1787
 9658SOL    HW130981   5.013   3.953   5.561  0.6767 -0.8327 -0.2347
 9658SOL    HW230982   5.128   3.876   5.624  1.3461 -0.0156 -0.4334
 9659SOL     OW30983   7.618   1.320   6.738 -0.4039 -0.2825  0.0440
 9659SOL    HW130984   7.709   1.349   6.737 -0.1644 -1.0170  0.2616
 9659SOL    HW230985   7.623   1.226   6.725 -1.1663 -0.2658 -0.4342
 9660SOL     OW30986   5.678   0.239   5.232 -0.5503 -0.0796  0.1034
 9660SOL    HW130987   5.689   0.220   5.325  0.0127 -1.2748 -0.1842
 9660SOL    HW230988   5.649   0.330   5.229 -0.5704 -0.0239  1.4423
 9661SOL     OW30989   7.989   3.240   4.052 -0.5240  0.2405  0.4819
 9661SOL    HW130990   7.894   3.237   4.064 -0.5829 -0.3420 -0.0655
 9661SOL    HW230991   8.018   3.150   4.064  0.1425  0.6154  1.9019
 9662SOL     OW30992   6.195   8.962   7.838  0.2185  0.4575  0.0446
 9662SOL    HW130993   6.239   8.882   7.865  0.4401 -0.0765 -1.7629
 9662SOL    HW230994   6.215   9.025   7.907 -0.7605 -1.2504  2.0188
 9663SOL     OW30995  10.976   7.916   8.610  0.1175  0.0347 -0.0171
 9663SOL    HW130996  11.004   7.827   8.588  2.3984  0.2149  1.7826
 9663SOL    HW230997  11.047   7.972   8.580  1.4034  0.6355  3.5995
 9664SOL     OW30998   0.891   7.291   2.571  0.5486  0.1606 -0.3467
 9664SOL    HW130999   0.919   7.338   2.493  0.4535 -1.5613 -1.4733
 9664SOL    HW231000   0.967   7.236   2.594 -0.1708 -0.9286 -0.5172
 9665SOL     OW31001   2.437   8.439   3.295  0.1394  0.2991 -0.3019
 9665SOL    HW131002   2.396   8.515   3.337 -1.1126 -1.0004  0.9096
 9665SOL    HW231003   2.510   8.477   3.245 -0.9175  2.3767 -0.3940
 9666SOL     OW31004   1.382   1.822  10.206 -0.2833  0.1207 -0.1415
 9666SOL    HW131005   1.394   1.787  10.117  0.3263 -0.7164  0.2615
 9666SOL    HW231006   1.427   1.906  10.204  1.1628 -0.6265 -0.1707
 9667SOL     OW31007   9.272   4.932   8.871 -0.3469  0.2295 -0.2034
 9667SOL    HW131008   9.233   4.938   8.958 -0.4413  0.8792 -0.2861
 9667SOL    HW231009   9.257   5.018   8.832 -2.2854 -0.7499 -1.7212
 9668SOL     OW31010   9.804   6.312   1.608  0.5973 -0.7969  0.3286
 9668SOL    HW131011   9.875   6.300   1.545 -0.1572 -0.9396 -0.5203
 9668SOL    HW231012   9.777   6.223   1.630  0.8326 -0.7452  0.8274
 9669SOL     OW31013   0.161   8.965   2.671  0.3230  0.0097  0.1758
 9669SOL    HW131014   0.136   9.027   2.740  1.2244 -0.6236  1.1148
 9669SOL    HW231015   0.122   9.000   2.591 -3.3240 -0.8023  1.4363
 9670SOL     OW31016  10.599   2.902   1.908 -0.6658  0.5240  0.2791
 9670SOL    HW131017  10.651   2.894   1.828 -0.3209 -2.5927  0.6863
 9670SOL    HW231018  10.527   2.840   1.897 -1.1739  0.7525  1.9756
 9671SOL     OW31019   3.829  10.065   4.228  0.1471  0.6087 -0.1618
 9671SOL    HW131020   3.743  10.107   4.240 -1.1612 -1.2760 -2.1148
 9671SOL    HW231021   3.868  10.113   4.154 -0.0523  0.3153 -0.4630
 9672SOL     OW31022   6.949   9.606   1.365 -0.1167 -0.4829  0.3120
 9672SOL    HW131023   7.019   9.548   1.392 -1.7885 -1.8345  2.0013
 9672SOL    HW231024   6.918   9.646   1.447 -0.1932  1.4625 -0.6034
 9673SOL     OW31025   3.605   9.218   9.885  0.2513 -0.1677 -0.2939
 9673SOL    HW131026   3.644   9.221   9.973  1.9969 -0.6218 -0.9918
 9673SOL    HW231027   3.533   9.156   9.893  0.1308  0.1027  0.9038
 9674SOL     OW31028   9.535   5.419   2.504 -0.1501 -0.3151  0.3635
 9674SOL    HW131029   9.580   5.493   2.464  0.4933 -0.2359  1.1927
 9674SOL    HW231030   9.545   5.348   2.441 -0.0683  0.0859 -0.0800
 9675SOL     OW31031   9.255   3.036   5.049 -0.3674  1.0126 -0.4572
 9675SOL    HW131032   9.313   2.967   5.017 -2.3808 -1.0709  0.1056
 9675SOL    HW231033   9.204   3.062   4.973 -2.3506 -1.0523  0.0705
 9676SOL     OW31034   1.326   3.410   6.107  0.7176  0.0502 -0.1534
 9676SOL    HW131035   1.303   3.365   6.188 -3.7215 -2.5420 -2.4721
 9676SOL    HW231036   1.312   3.503   6.126  3.9256  0.0937  3.0163
 9677SOL     OW31037   0.010   3.840   8.909 -0.3963 -0.2156  0.2320
 9677SOL    HW131038  -0.072   3.804   8.944 -1.5630  2.1827  0.1263
 9677SOL    HW231039   0.078   3.800   8.964 -1.4496 -3.1258 -0.3798
 9678SOL     OW31040   3.130   5.433   7.114  0.0448 -0.5522 -0.9055
 9678SOL    HW131041   3.167   5.347   7.136 -0.1351 -0.4354 -0.1241
 9678SOL    HW231042   3.059   5.414   7.053  0.4497 -0.8985 -1.2754
 9679SOL     OW31043   5.568   9.163   4.487 -0.0611  0.2157  0.0100
 9679SOL    HW131044   5.651   9.126   4.458 -0.1332  0.5151 -0.5788
 9679SOL    HW231045   5.576   9.167   4.583  0.4700 -0.0639 -0.0198
 9680SOL     OW31046   7.741   2.493  10.029  0.0810  0.1722 -0.1560
 9680SOL    HW131047   7.728   2.575   9.983 -0.0818  0.4584  0.3817
 9680SOL    HW231048   7.654   2.453  10.031  0.3684 -0.5506 -1.3888
 9681SOL     OW31049  10.503   3.898   7.036 -0.5892 -0.3587  0.1016
 9681SOL    HW131050  10.536   3.810   7.022 -0.7998 -0.6212  1.1602
 9681SOL    HW231051  10.476   3.899   7.128 -0.9186  0.6974  0.0054
 9682SOL     OW31052   7.041   0.636   3.761  0.5925 -0.2571  0.4553
 9682SOL    HW131053   7.072   0.645   3.671 -0.1877  1.7994  0.3324
 9682SOL    HW231054   7.020   0.543   3.771  2.7049 -0.9121 -0.7795
 9683SOL     OW31055   8.841   6.275   9.198 -0.3833  0.3539 -0.1486
 9683SOL    HW131056   8.932   6.249   9.207 -1.0769 -1.5409  2.5119
 9683SOL    HW231057   8.827   6.338   9.268 -1.5590 -0.9365  0.8364
 9684SOL     OW31058   8.625   1.152   5.772  0.3545  0.8295 -0.0331
 9684SOL    HW131059   8.533   1.150   5.747 -0.0269  2.1408  1.1100
 9684SOL    HW231060   8.623   1.164   5.867  1.7127 -1.1624  0.2983
 9685SOL     OW31061   4.167  11.078   0.158  0.4662  0.4865 -0.3938
 9685SOL    HW131062   4.217  11.085   0.239  1.4144 -0.9450 -0.8136
 9685SOL    HW231063   4.227  11.035   0.096 -1.6009 -2.4053 -0.5825
 9686SOL     OW31064   1.511   9.194  10.629  0.5850 -0.5707  0.5770
 9686SOL    HW131065   1.565   9.169  10.554 -0.4442  1.3056 -0.8599
 9686SOL    HW231066   1.427   9.151  10.612  0.6175 -0.8770  1.1592
 9687SOL     OW31067   5.423   9.301   1.724 -0.0182 -0.0834 -0.5394
 9687SOL    HW131068   5.455   9.224   1.675  2.5042  0.7575 -0.3339
 9687SOL    HW231069   5.335   9.276   1.752  0.2978 -2.4613 -1.4170
 9688SOL     OW31070   6.043   2.959   8.263  0.1209 -0.4700  0.1248
 9688SOL    HW131071   6.003   3.028   8.315 -0.9132 -0.3771 -0.7714
 9688SOL    HW231072   6.069   3.001   8.181 -1.0192 -1.2374 -0.6588
 9689SOL     OW31073   0.678   9.055   0.233 -0.3732 -0.2328 -0.0713
 9689SOL    HW131074   0.592   9.038   0.193 -1.0078  0.8177  0.7967
 9689SOL    HW231075   0.657   9.089   0.320  0.9154  1.0493 -0.2411
 9690SOL     OW31076   1.309   3.270   2.462 -0.0852 -0.5714  0.0524
 9690SOL    HW131077   1.346   3.221   2.535  0.1218  2.5168  2.2152
 9690SOL    HW231078   1.380   3.273   2.397  1.2865  0.0824  1.5177
 9691SOL     OW31079   5.110   1.704   9.514 -0.2066  0.9004  0.6768
 9691SOL    HW131080   5.045   1.774   9.512 -0.8588  0.3617  1.9788
 9691SOL    HW231081   5.171   1.730   9.584  0.6574  1.0964 -0.1181
 9692SOL     OW31082   4.014  10.981   5.456  0.4672  0.0050 -0.3517
 9692SOL    HW131083   3.919  10.981   5.451  0.3472  0.6052  1.3426
 9692SOL    HW231084   4.039  10.889   5.441 -0.5909 -0.6820  1.7279
 9693SOL     OW31085   1.193   3.146   0.472 -0.6929  0.2425 -0.0723
 9693SOL    HW131086   1.236   3.121   0.555 -0.6909  0.2879 -0.0597
 9693SOL    HW231087   1.103   3.164   0.497 -0.8036 -0.1823 -0.1543
 9694SOL     OW31088   5.361   0.142   1.420  0.2961 -0.2564 -0.6908
 9694SOL    HW131089   5.297   0.081   1.456  0.4294 -0.9171 -1.5447
 9694SOL    HW231090   5.376   0.205   1.490  0.6512 -1.5718  0.4580
 9695SOL     OW31091   8.544  10.491   0.856  0.6185  0.4432 -0.6024
 9695SOL    HW131092   8.481  10.521   0.790 -0.6414 -1.8804 -0.5691
 9695SOL    HW231093   8.612  10.446   0.806  0.2509 -0.3452 -0.3984
 9696SOL     OW31094   5.437  10.008  10.014 -0.3838  0.2951 -0.3127
 9696SOL    HW131095   5.448   9.958  10.095 -0.0246  3.5742  1.8430
 9696SOL    HW231096   5.354   9.977   9.978  0.1479 -2.2746  0.4568
 9697SOL     OW31097  10.456   9.262   9.052 -0.7078 -0.1815  0.1354
 9697SOL    HW131098  10.373   9.258   9.099 -1.3886 -0.9532 -1.0941
 9697SOL    HW231099  10.447   9.337   8.993 -1.2022 -1.2583 -1.1940
 9698SOL     OW31100   9.490   4.196   8.213 -0.0440 -0.1905  0.3133
 9698SOL    HW131101   9.466   4.190   8.121 -2.9825  0.7686  0.9183
 9698SOL    HW231102   9.453   4.279   8.243  1.7969  0.0662  2.1417
 9699SOL     OW31103   2.560   7.320   0.206  0.5388 -0.0493  0.0124
 9699SOL    HW131104   2.600   7.233   0.201 -0.5691 -0.5238 -0.9693
 9699SOL    HW231105   2.475   7.305   0.246  0.6707  0.7190  0.6000
 9700SOL     OW31106   2.051   7.053   4.817 -0.2855  0.2332  0.2240
 9700SOL    HW131107   1.979   7.050   4.881 -0.7368 -2.8487 -0.2482
 9700SOL    HW231108   2.010   7.026   4.734  1.1148 -0.0688 -0.3891
 9701SOL     OW31109   5.017   4.145   5.913  0.3944 -0.0218 -0.6524
 9701SOL    HW131110   5.072   4.082   5.961  1.4082  0.1344 -1.5813
 9701SOL    HW231111   4.948   4.091   5.874  1.4932 -0.6575 -1.7891
 9702SOL     OW31112   3.492   6.770  11.278 -0.3201  0.0403  0.4074
 9702SOL    HW131113   3.476   6.861  11.303 -1.4565 -0.0245 -0.0110
 9702SOL    HW231114   3.486   6.770  11.183  0.3537 -0.3544  0.3627
 9703SOL     OW31115   5.585   1.915   0.106 -0.3211 -0.3004 -0.5346
 9703SOL    HW131116   5.531   1.987   0.140  1.0855  0.7149 -0.3633
 9703SOL    HW231117   5.569   1.915   0.012  0.4410  0.9458 -0.6890
 9704SOL     OW31118  10.574   5.762   3.218  0.0796  0.0731  0.3410
 9704SOL    HW131119  10.569   5.809   3.135  1.9463  0.3053  0.3118
 9704SOL    HW231120  10.523   5.814   3.279 -1.3375 -0.1106 -0.6490
 9705SOL     OW31121   4.320   5.665   5.603  0.6462 -0.3586  0.6958
 9705SOL    HW131122   4.241   5.679   5.655  0.2891 -0.7246  0.2576
 9705SOL    HW231123   4.391   5.692   5.661  0.2666 -0.8350  1.4088
 9706SOL     OW31124  10.504   6.288   6.178 -0.3899 -0.2780 -0.1802
 9706SOL    HW131125  10.556   6.362   6.147 -1.1779 -0.3691 -1.7808
 9706SOL    HW231126  10.415   6.307   6.149 -0.6622 -1.7169 -0.3582
 9707SOL     OW31127   8.338   4.371   0.557  0.4757 -0.6927  0.2608
 9707SOL    HW131128   8.363   4.375   0.649  0.2096 -1.0114  0.3465
 9707SOL    HW231129   8.419   4.348   0.511  0.9059  0.6532  0.2763
 9708SOL     OW31130   1.308   2.359   3.865  0.3444 -0.9914 -0.1347
 9708SOL    HW131131   1.237   2.369   3.802  0.6235  1.2606 -0.1585
 9708SOL    HW231132   1.368   2.297   3.823  0.8403  0.8953 -2.4657
 9709SOL     OW31133   0.630   5.127   5.133 -0.5027 -0.0766 -0.3254
 9709SOL    HW131134   0.676   5.210   5.125 -0.5085 -0.1044 -0.6712
 9709SOL    HW231135   0.554   5.135   5.074  0.6510 -1.1083 -2.0646
 9710SOL     OW31136  10.546   8.797   2.297  0.0894  0.4615  0.0885
 9710SOL    HW131137  10.602   8.829   2.227 -1.1963 -0.2416 -1.3104
 9710SOL    HW231138  10.457   8.803   2.262 -0.5223 -0.6217  1.3681
 9711SOL     OW31139   9.860   2.051   5.218 -0.0309 -0.4335  0.0452
 9711SOL    HW131140   9.845   2.009   5.133 -1.5784  0.4658 -0.1664
 9711SOL    HW231141   9.879   1.978   5.277 -3.7807 -1.6961 -0.0550
 9712SOL     OW31142   1.593   7.968   6.183  0.7283  0.2998  1.1501
 9712SOL    HW131143   1.635   7.965   6.097  1.5816  1.2114  1.5139
 9712SOL    HW231144   1.665   7.985   6.244  0.3184 -1.4203  2.1958
 9713SOL     OW31145   3.758   6.966   4.347  0.1834 -0.1330  0.1824
 9713SOL    HW131146   3.815   6.945   4.273 -1.4836 -1.1479 -0.8984
 9713SOL    HW231147   3.695   7.028   4.312  0.4796  0.8263  1.2955
 9714SOL     OW31148   6.685   0.441   6.542 -0.0506 -0.6414  0.5053
 9714SOL    HW131149   6.633   0.428   6.463 -0.0515 -1.0075  0.5642
 9714SOL    HW231150   6.768   0.479   6.511  0.6316 -2.3472  0.1213
 9715SOL     OW31151   1.966   8.522   4.790  0.6787 -0.1236  0.3105
 9715SOL    HW131152   1.996   8.431   4.792  1.6520  0.1826  1.6564
 9715SOL    HW231153   2.015   8.562   4.717  2.4751 -0.0281  1.4852
 9716SOL     OW31154  10.022   2.813   5.107  0.0397 -0.2812  0.2647
 9716SOL    HW131155  10.096   2.757   5.088  0.2919  0.6721 -1.8877
 9716SOL    HW231156  10.056   2.902   5.098 -0.8123  0.2232  1.6619
 9717SOL     OW31157   6.097  11.245   0.395  0.8324 -0.0640  0.7914
 9717SOL    HW131158   6.014  11.199   0.408  0.3068  1.1766  2.1692
 9717SOL    HW231159   6.071  11.328   0.353  1.6637 -0.6109 -0.8951
 9718SOL     OW31160   4.524   7.087   2.516  0.0647  0.4720  0.0873
 9718SOL    HW131161   4.617   7.109   2.506  0.0377  0.4927 -0.1409
 9718SOL    HW231162   4.523   7.007   2.567  0.1943  0.6614  0.3895
 9719SOL     OW31163  10.327   7.696   8.407 -0.1428 -0.0416 -0.3949
 9719SOL    HW131164  10.285   7.640   8.472 -0.6753  0.8333  0.0272
 9719SOL    HW231165  10.306   7.785   8.434 -0.3314  0.3422 -1.7351
 9720SOL     OW31166   3.771   2.606   8.188 -0.3712 -0.4307 -0.0528
 9720SOL    HW131167   3.711   2.597   8.114 -1.7812 -1.8023  1.1839
 9720SOL    HW231168   3.751   2.692   8.226  0.4657  0.3484 -1.2830
 9721SOL     OW31169   3.255   1.916   3.333 -0.9134 -0.2659  0.2142
 9721SOL    HW131170   3.320   1.938   3.267  0.4338 -1.8424  0.9472
 9721SOL    HW231171   3.277   1.970   3.408 -1.4880  0.3773 -0.0596
 9722SOL     OW31172   2.837   3.562   1.358  1.1984  0.5239 -0.7419
 9722SOL    HW131173   2.793   3.574   1.442 -0.0835 -0.8451 -1.1781
 9722SOL    HW231174   2.912   3.622   1.362  1.1258  0.5598  1.3231
 9723SOL     OW31175   8.047   8.460   1.649 -0.0238 -0.2967  0.4615
 9723SOL    HW131176   7.978   8.453   1.584 -0.9245 -1.0365  1.4564
 9723SOL    HW231177   8.003   8.493   1.728  0.7080 -0.9132  1.1489
 9724SOL     OW31178   8.552   7.694   3.231 -0.0874  0.6906  0.1436
 9724SOL    HW131179   8.623   7.754   3.252  1.1682 -0.1853 -1.4457
 9724SOL    HW231180   8.507   7.734   3.157  0.9521 -0.4198 -1.1346
 9725SOL     OW31181  10.322   5.948   4.845 -0.3916 -0.2581 -0.3661
 9725SOL    HW131182  10.336   5.986   4.931  0.0391 -0.3261 -0.4062
 9725SOL    HW231183  10.230   5.968   4.825 -0.1893  0.7035 -0.3587
 9726SOL     OW31184  11.186   1.378   6.428 -0.0649  0.1983 -0.6642
 9726SOL    HW131185  11.109   1.404   6.378  1.2048  0.0024 -2.8391
 9726SOL    HW231186  11.257   1.432   6.393  1.0108 -0.3845  0.5212
 9727SOL     OW31187   2.600   0.205   8.620 -0.2162 -0.2250 -0.2224
 9727SOL    HW131188   2.588   0.130   8.680  1.5476 -0.1324  0.2972
 9727SOL    HW231189   2.691   0.231   8.633  0.2780 -0.2992 -3.0899
 9728SOL     OW31190   6.402   2.050   8.671 -0.4482  0.1839 -0.1971
 9728SOL    HW131191   6.405   2.140   8.703 -1.7384 -0.1425  0.9405
 9728SOL    HW231192   6.400   1.997   8.751 -0.3233 -0.8251 -0.8497
 9729SOL     OW31193   6.144   4.533   3.052  0.3083 -0.1128 -0.2116
 9729SOL    HW131194   6.227   4.513   3.096  0.6351 -1.7463 -1.4715
 9729SOL    HW231195   6.163   4.612   3.001  0.3901  0.8577  1.2674
 9730SOL     OW31196   9.726  10.935   7.170  0.1941 -0.7162 -0.5871
 9730SOL    HW131197   9.739  10.868   7.103 -0.8070 -0.5271 -0.9812
 9730SOL    HW231198   9.676  11.004   7.126  2.2156  0.8707 -0.5468
 9731SOL     OW31199   9.194  10.683   8.852  0.0867  0.2043  0.0560
 9731SOL    HW131200   9.172  10.612   8.792 -1.8101 -0.1144  1.0265
 9731SOL    HW231201   9.223  10.638   8.932 -1.3061  0.4501  0.7404
 9732SOL     OW31202   4.684   8.563   3.876  0.5570  0.4459 -0.3044
 9732SOL    HW131203   4.697   8.500   3.946  0.6691  0.8251  0.0187
 9732SOL    HW231204   4.670   8.647   3.921 -1.7050  0.3103 -0.6296
 9733SOL     OW31205   8.254   4.385   1.147  0.1040 -0.0912  0.2286
 9733SOL    HW131206   8.258   4.447   1.219 -0.2358 -0.1865  0.3343
 9733SOL    HW231207   8.161   4.359   1.143 -0.6348  2.4014 -2.3126
 9734SOL     OW31208   4.686   3.065   7.001  0.1348  0.2622 -0.2094
 9734SOL    HW131209   4.671   3.093   6.910  0.4984 -3.0438 -1.4363
 9734SOL    HW231210   4.630   2.988   7.011  0.7750  0.0374  2.1114
 9735SOL     OW31211   4.014   2.500   9.849 -0.1112  0.3301 -0.1561
 9735SOL    HW131212   4.042   2.511   9.940  0.4714  0.3489 -0.3357
 9735SOL    HW231213   4.001   2.406   9.839  2.1190  0.0385 -0.7088
 9736SOL     OW31214   8.735  10.976   2.049 -0.1010 -0.2427 -0.8001
 9736SOL    HW131215   8.813  10.939   2.090 -0.7320  0.4058  1.1092
 9736SOL    HW231216   8.726  11.062   2.089 -0.7853  0.4515 -2.3644
 9737SOL     OW31217   8.990   2.840  10.296  0.4646  0.1735 -0.3093
 9737SOL    HW131218   8.932   2.916  10.292  2.2454  1.6358  0.2908
 9737SOL    HW231219   9.071   2.874  10.335  1.0255 -2.2293  0.7961
 9738SOL     OW31220   8.118   9.745   9.196  0.3929 -0.3999 -0.5398
 9738SOL    HW131221   8.066   9.777   9.269 -3.0535  0.6159 -3.1964
 9738SOL    HW231222   8.154   9.824   9.155 -1.7138 -0.4024 -2.6040
 9739SOL     OW31223  11.038   4.305   8.464  0.2117  0.1769 -0.5802
 9739SOL    HW131224  11.132   4.302   8.482  0.4666  0.0730 -1.8314
 9739SOL    HW231225  11.027   4.254   8.383 -0.8476  0.6077 -0.7299
 9740SOL     OW31226   6.333   4.056  10.383  0.3161 -0.3298 -0.4767
 9740SOL    HW131227   6.383   4.076  10.303 -0.2843 -0.7821 -0.9716
 9740SOL    HW231228   6.393   4.003  10.435  0.1271 -1.4522 -1.3671
 9741SOL     OW31229   1.108  10.119   9.228 -0.2467  0.5739  0.3642
 9741SOL    HW131230   1.035  10.143   9.170  1.0146  0.2093 -1.4706
 9741SOL    HW231231   1.186  10.127   9.173  0.8732 -1.4060  1.5463
 9742SOL     OW31232   8.774  10.916   5.150 -0.1239  0.3746  0.1058
 9742SOL    HW131233   8.868  10.916   5.134 -0.1884  2.2960 -0.5433
 9742SOL    HW231234   8.761  10.848   5.215  1.2636 -2.2011 -2.1194
 9743SOL     OW31235   7.378   5.429   4.091  0.0421 -0.8236  0.3157
 9743SOL    HW131236   7.325   5.437   4.012  1.0111  0.5273 -0.2389
 9743SOL    HW231237   7.384   5.335   4.106 -1.6460 -1.0434 -0.1670
 9744SOL     OW31238   8.522  11.203   8.560  0.1746 -0.2431 -0.2890
 9744SOL    HW131239   8.570  11.134   8.607  0.3632 -1.3310 -1.9767
 9744SOL    HW231240   8.432  11.169   8.553  0.0533  0.0883 -0.3571
 9745SOL     OW31241   1.285   7.534   5.279 -0.4440 -0.5373  0.0581
 9745SOL    HW131242   1.244   7.447   5.280 -0.3878 -0.5711  1.1573
 9745SOL    HW231243   1.325   7.542   5.366  2.5011 -0.7817 -1.1842
 9746SOL     OW31244   0.044   9.402   5.450 -0.1842 -0.1607 -0.7665
 9746SOL    HW131245   0.015   9.478   5.400 -0.5415 -0.2170 -0.6543
 9746SOL    HW231246   0.105   9.437   5.515 -1.6698  0.3245  0.4463
 9747SOL     OW31247   7.925   3.535  10.585  0.3205 -0.5002  0.0519
 9747SOL    HW131248   7.894   3.452  10.551 -0.0611 -0.1381 -0.4975
 9747SOL    HW231249   8.014   3.544  10.549  0.1458 -0.4041 -0.3677
 9748SOL     OW31250   1.778   2.166   6.851 -0.6003  0.4714  0.5719
 9748SOL    HW131251   1.714   2.123   6.794  0.1766  2.1042 -1.7063
 9748SOL    HW231252   1.764   2.259   6.837  0.7166  0.9050  1.8593
 9749SOL     OW31253  11.282   1.175   6.580  0.2083  0.4925 -0.8401
 9749SOL    HW131254  11.250   1.260   6.549  3.1495  2.0323 -0.0202
 9749SOL    HW231255  11.239   1.163   6.664 -0.2965  1.1561 -0.9916
 9750SOL     OW31256   6.682   1.278   4.705 -0.0003  0.3764 -0.3512
 9750SOL    HW131257   6.636   1.197   4.685 -2.0251  1.5176 -0.5668
 9750SOL    HW231258   6.721   1.304   4.622 -0.0499  0.0512 -0.4783
 9751SOL     OW31259   6.068   9.390   1.924  0.1711 -0.2275  0.4419
 9751SOL    HW131260   6.112   9.358   2.002  3.9016 -1.3967 -1.8499
 9751SOL    HW231261   6.133   9.446   1.881 -1.7369  0.4509 -1.8119
 9752SOL     OW31262   0.090   7.176   0.574  0.2863 -0.7383  0.2527
 9752SOL    HW131263   0.060   7.242   0.512  1.1974  0.5057  1.0793
 9752SOL    HW231264   0.184   7.194   0.585  0.1310 -0.8130  2.0576
 9753SOL     OW31265   8.087   2.273   3.870 -0.5069  0.0781  0.5350
 9753SOL    HW131266   8.119   2.193   3.911  0.9098 -0.1001 -0.8245
 9753SOL    HW231267   8.127   2.343   3.920 -1.4875 -0.0463  1.5232
 9754SOL     OW31268   4.657   5.842   2.527  0.1455 -0.2896 -0.2451
 9754SOL    HW131269   4.596   5.913   2.508  0.2053  0.0243  0.6835
 9754SOL    HW231270   4.606   5.762   2.511 -0.6297 -0.0364  0.8079
 9755SOL     OW31271  10.541   2.726   5.439 -0.2582  0.3996 -0.2757
 9755SOL    HW131272  10.460   2.706   5.392  1.1327  1.4090 -3.4105
 9755SOL    HW231273  10.540   2.821   5.450 -0.6670  0.1842  2.2117
 9756SOL     OW31274   2.929   6.345   2.942 -0.2465 -0.7184 -0.2761
 9756SOL    HW131275   2.893   6.256   2.935 -0.3833 -0.8078  1.2698
 9756SOL    HW231276   2.930   6.363   3.036 -1.4011  1.3986 -0.6040
 9757SOL     OW31277   3.703   3.876   5.522  0.0364 -0.1296 -0.2084
 9757SOL    HW131278   3.669   3.794   5.559 -0.1355 -0.0523 -0.1938
 9757SOL    HW231279   3.660   3.945   5.573  1.8345 -0.0260  1.3038
 9758SOL     OW31280   1.527   2.095  10.883 -0.0284 -0.3207 -0.0712
 9758SOL    HW131281   1.585   2.117  10.956 -1.0084 -0.6577  0.8454
 9758SOL    HW231282   1.461   2.165  10.882 -1.1631 -1.3358  0.6610
 9759SOL     OW31283   6.810   3.187   0.444  0.0910  0.3196  0.0498
 9759SOL    HW131284   6.801   3.093   0.432 -3.3970  0.1357  2.5737
 9759SOL    HW231285   6.903   3.201   0.460  1.0010 -2.3461 -2.1927
 9760SOL     OW31286   3.384   9.917   7.070 -0.4317  0.2482 -0.2680
 9760SOL    HW131287   3.389   9.992   7.011 -1.6036 -1.2100 -2.3621
 9760SOL    HW231288   3.308   9.934   7.125 -3.0424 -0.9315 -3.2137
 9761SOL     OW31289   1.600   9.910   3.320  0.0865  0.0988  0.5049
 9761SOL    HW131290   1.586  10.005   3.319 -1.2137 -0.0371  1.7786
 9761SOL    HW231291   1.693   9.899   3.303 -0.1895  1.4385 -2.4578
 9762SOL     OW31292   4.282   3.859   0.314 -0.3734 -0.1554 -0.1162
 9762SOL    HW131293   4.210   3.823   0.367 -1.2167  1.9376  0.2454
 9762SOL    HW231294   4.243   3.875   0.228 -0.0491  0.0769 -0.2200
 9763SOL     OW31295   5.934  11.129   8.687 -0.0908  0.4243 -0.3420
 9763SOL    HW131296   5.983  11.154   8.608 -0.0194 -0.7235 -0.6805
 9763SOL    HW231297   5.937  11.207   8.743  0.2302  1.1095 -1.2867
 9764SOL     OW31298   4.792   6.886   2.798  0.1017 -0.1629 -0.0143
 9764SOL    HW131299   4.836   6.907   2.715  0.3457 -0.8196 -0.0577
 9764SOL    HW231300   4.782   6.971   2.842  0.2994  0.1459 -0.5524
 9765SOL     OW31301   8.653   9.502   0.702 -0.2245  1.0713 -0.8465
 9765SOL    HW131302   8.686   9.580   0.744  1.3284 -0.0956  0.2118
 9765SOL    HW231303   8.732   9.451   0.679 -1.1832 -0.5411 -0.7544
 9766SOL     OW31304   6.990   9.609   4.232 -0.0180  0.0784 -0.0346
 9766SOL    HW131305   6.911   9.602   4.286 -0.0345  3.3136  0.5943
 9766SOL    HW231306   7.054   9.652   4.289  0.5470  1.9751 -1.9549
 9767SOL     OW31307  11.035   8.324   9.309 -0.0630 -0.4889  0.3257
 9767SOL    HW131308  11.033   8.420   9.314 -3.1775 -0.5110  3.9242
 9767SOL    HW231309  10.946   8.299   9.285  0.6474 -2.5620 -0.4237
 9768SOL     OW31310   4.301   7.861   7.066  0.0738  0.6840 -0.2791
 9768SOL    HW131311   4.369   7.881   7.002 -0.7332 -0.9432 -1.7442
 9768SOL    HW231312   4.220   7.860   7.015 -0.6385 -0.3591  0.8194
 9769SOL     OW31313   5.444   6.404   1.686 -0.4826  0.6925  0.0713
 9769SOL    HW131314   5.373   6.467   1.677 -1.4667  0.0258  2.4576
 9769SOL    HW231315   5.401   6.323   1.713  1.1713  0.4308  2.1955
 9770SOL     OW31316   7.449   3.780   9.881 -0.8947 -0.0139 -0.3876
 9770SOL    HW131317   7.499   3.707   9.918  0.3411  1.6610  1.4656
 9770SOL    HW231318   7.398   3.814   9.955 -0.5500  1.6836 -0.8952
 9771SOL     OW31319   5.124   9.475   7.528 -0.2004 -0.3461  0.4211
 9771SOL    HW131320   5.142   9.409   7.461  0.3638  0.4207 -0.1953
 9771SOL    HW231321   5.035   9.505   7.509  0.0546  0.0619 -0.1684
 9772SOL     OW31322   7.431   1.191   8.670 -0.6774 -0.0934 -0.1421
 9772SOL    HW131323   7.367   1.262   8.665  0.1440  0.8478  1.7235
 9772SOL    HW231324   7.396   1.132   8.737 -1.7270 -1.9218 -2.1878
 9773SOL     OW31325   8.069   3.000   4.154 -0.2710 -0.2941 -0.5695
 9773SOL    HW131326   8.030   2.991   4.241  0.5056  0.2735 -0.1413
 9773SOL    HW231327   8.156   3.036   4.172 -0.2663  0.2365 -1.6104
 9774SOL     OW31328   3.483   3.556   6.475  0.0461 -0.2300  0.2294
 9774SOL    HW131329   3.398   3.512   6.473 -0.6215  0.9763 -2.8118
 9774SOL    HW231330   3.543   3.494   6.435  0.1969 -0.3221  0.5941
 9775SOL     OW31331   4.186   6.593   6.274  0.0730 -0.2895 -0.5074
 9775SOL    HW131332   4.150   6.656   6.335  0.2300  0.0796 -0.7899
 9775SOL    HW231333   4.196   6.513   6.325  0.5593  0.1191  0.0552
 9776SOL     OW31334   4.324   9.574   4.219 -0.8163  0.4186  0.7866
 9776SOL    HW131335   4.418   9.581   4.231 -0.8257  0.7650  0.6693
 9776SOL    HW231336   4.290   9.659   4.247 -1.0972  0.2750  0.8816
 9777SOL     OW31337   3.009   0.086   5.028 -0.1248 -0.2488 -0.4481
 9777SOL    HW131338   3.095   0.046   5.034 -0.1770 -0.3329 -0.2777
 9777SOL    HW231339   2.955   0.039   5.091 -0.7904 -1.4664 -1.8448
 9778SOL     OW31340  10.252  10.409   0.512  0.5920  0.0398  0.0503
 9778SOL    HW131341  10.208  10.325   0.502 -1.9555  1.1841  0.7973
 9778SOL    HW231342  10.211  10.449   0.589  0.8380  2.4471 -0.9669
 9779SOL     OW31343   7.509   4.854   0.217 -0.0505 -1.0211 -0.6934
 9779SOL    HW131344   7.520   4.920   0.149  0.3258 -2.7765 -2.4373
 9779SOL    HW231345   7.549   4.893   0.295  1.3382  0.2844 -1.9954
 9780SOL     OW31346   9.592   0.274   7.970  0.7524  0.7311 -0.2112
 9780SOL    HW131347   9.648   0.299   7.896  1.1232  0.8759  0.1108
 9780SOL    HW231348   9.652   0.232   8.032  0.0809 -1.2898 -0.8752
 9781SOL     OW31349   4.244  10.118   9.694  0.3185 -0.1637 -0.5155
 9781SOL    HW131350   4.286  10.147   9.613  0.1177  0.9091 -0.2419
 9781SOL    HW231351   4.158  10.086   9.667 -0.3839  1.6539 -0.5617
 9782SOL     OW31352   6.466   6.978   9.537  0.0122 -0.2253 -0.7110
 9782SOL    HW131353   6.555   7.013   9.527  1.4301 -3.7734 -2.0929
 9782SOL    HW231354   6.461   6.907   9.473 -2.9725 -1.7390  1.0019
 9783SOL     OW31355   5.801   5.891   3.309  0.0753 -1.0193 -0.1308
 9783SOL    HW131356   5.732   5.843   3.265  1.5694 -2.2857 -1.1984
 9783SOL    HW231357   5.816   5.844   3.391 -1.4271  0.2488  0.9287
 9784SOL     OW31358   7.352   2.640  11.267  0.7319 -0.0934  0.3088
 9784SOL    HW131359   7.307   2.561  11.236  3.1403 -1.3235 -0.3235
 9784SOL    HW231360   7.339   2.638  11.362 -0.1713 -0.6209  0.1920
 9785SOL     OW31361   6.994  11.267   3.029  0.2508 -0.4829  0.2800
 9785SOL    HW131362   6.945  11.281   2.948 -0.7744 -1.1604  0.7566
 9785SOL    HW231363   7.025  11.354   3.054  0.1097 -0.1848 -0.5431
 9786SOL     OW31364   2.256   6.193   6.103 -0.5491 -0.4385  0.3729
 9786SOL    HW131365   2.285   6.128   6.039 -0.3960  1.7684 -1.9499
 9786SOL    HW231366   2.175   6.228   6.067  0.1513  1.7176  0.7447
 9787SOL     OW31367   0.961  10.657   3.445  0.1692  0.2090 -0.0918
 9787SOL    HW131368   0.966  10.696   3.532  0.0602 -0.7217  0.3426
 9787SOL    HW231369   1.040  10.688   3.401 -1.0986  2.9370 -0.6520
 9788SOL     OW31370  10.667   8.465   9.375  0.8073 -0.3550 -0.4277
 9788SOL    HW131371  10.697   8.380   9.408  1.3416  0.0072  0.0385
 9788SOL    HW231372  10.663   8.520   9.453 -1.7335 -0.5534 -0.3469
 9789SOL     OW31373   2.553  10.339   0.345  0.1575 -0.4605 -0.0392
 9789SOL    HW131374   2.605  10.259   0.352  0.8983 -0.0051 -0.1881
 9789SOL    HW231375   2.463  10.311   0.365  0.3388 -1.3963 -0.4635
 9790SOL     OW31376   4.925   5.215  10.920 -0.1382  0.0878 -0.9850
 9790SOL    HW131377   4.856   5.246  10.980  1.0153  1.3969 -0.2751
 9790SOL    HW231378   4.956   5.133  10.959  2.0823  1.9649  1.5606
 9791SOL     OW31379   8.014   8.656   0.294 -0.3425 -0.3998  0.1106
 9791SOL    HW131380   8.038   8.740   0.255  2.2768 -1.0710  0.0338
 9791SOL    HW231381   8.045   8.590   0.231 -2.3691 -1.4588  0.1493
 9792SOL     OW31382   8.472   8.966  10.590  0.0378 -0.0626 -0.4495
 9792SOL    HW131383   8.396   9.024  10.585  1.5267  1.9819 -0.5424
 9792SOL    HW231384   8.491   8.959  10.684  0.7273  0.8630 -0.5002
 9793SOL     OW31385   6.200   6.779   0.759 -0.7794  0.8131 -0.1698
 9793SOL    HW131386   6.228   6.870   0.752 -2.8880  1.5225 -0.1803
 9793SOL    HW231387   6.122   6.774   0.703 -1.7561 -0.5097  1.2185
 9794SOL     OW31388   2.359   4.049   7.587  0.3072  0.6890 -0.5701
 9794SOL    HW131389   2.447   4.024   7.561 -0.0704  0.5036 -1.7336
 9794SOL    HW231390   2.306   3.971   7.571 -0.2782  1.1686 -1.0591
 9795SOL     OW31391   0.469   7.542   6.260  0.1586 -0.4577 -0.4286
 9795SOL    HW131392   0.564   7.541   6.253  0.0852  1.7871 -3.7193
 9795SOL    HW231393   0.439   7.482   6.192 -0.8220 -0.4843  0.0036
 9796SOL     OW31394   6.516   8.034  10.190 -0.4301  0.0152 -0.2588
 9796SOL    HW131395   6.533   8.111  10.243 -2.8885  0.9435 -0.6704
 9796SOL    HW231396   6.428   8.006  10.215  0.2763 -2.5527 -0.3072
 9797SOL     OW31397   5.524   1.232   5.793 -0.1068  0.8185 -0.2417
 9797SOL    HW131398   5.498   1.320   5.766  0.8370  0.5000 -2.3478
 9797SOL    HW231399   5.607   1.216   5.749  1.2182 -0.0875  2.3659
 9798SOL     OW31400   2.944   7.108  10.770  0.6159 -0.1916  0.3107
 9798SOL    HW131401   2.964   7.016  10.750 -0.3224 -0.4164  0.3391
 9798SOL    HW231402   2.969   7.156  10.691  0.6952 -0.5343  0.1250
 9799SOL     OW31403   9.574   0.052   6.765 -0.2899  0.3565 -0.2884
 9799SOL    HW131404   9.492   0.092   6.794 -0.1545  0.6614 -0.3268
 9799SOL    HW231405   9.553   0.013   6.681 -1.2280 -2.2709  1.0409
 9800SOL     OW31406   7.391   4.022   1.975  0.3324  0.5151  0.3166
 9800SOL    HW131407   7.369   3.964   1.902 -0.9138  3.3514 -1.7898
 9800SOL    HW231408   7.476   4.059   1.952 -1.1349  3.2780 -1.1621
 9801SOL     OW31409   2.643   8.821   7.010 -1.0342 -0.8702  0.1784
 9801SOL    HW131410   2.725   8.811   7.059 -1.5330 -1.5216  0.9071
 9801SOL    HW231411   2.663   8.885   6.942 -0.8253  1.5335  2.3605
 9802SOL     OW31412  10.732   8.841   7.009  0.3577 -0.1309  0.5786
 9802SOL    HW131413  10.716   8.934   6.990 -0.7037 -0.4792 -0.2739
 9802SOL    HW231414  10.770   8.807   6.928  1.3352 -0.3182  1.1002
 9803SOL     OW31415   2.661   9.521   9.845  0.1586  0.4936  0.2684
 9803SOL    HW131416   2.629   9.599   9.800 -1.8337 -0.3746  0.0856
 9803SOL    HW231417   2.617   9.523   9.930  0.2371 -0.3244  0.3312
 9804SOL     OW31418   4.765   8.151   4.646 -0.2478  0.0712 -0.2099
 9804SOL    HW131419   4.826   8.214   4.684 -0.9971  0.6275  0.0957
 9804SOL    HW231420   4.710   8.203   4.587 -0.6027 -0.3684 -0.2736
 9805SOL     OW31421   6.678   9.852   5.510  0.4285  0.1514 -0.0549
 9805SOL    HW131422   6.608   9.917   5.503  1.4454  1.2876 -0.1242
 9805SOL    HW231423   6.702   9.834   5.419  0.5806  0.1647 -0.0165
 9806SOL     OW31424   8.978  11.239   0.087  0.2160  0.6318  0.1458
 9806SOL    HW131425   8.925  11.174   0.134  1.2135  0.2185  0.7382
 9806SOL    HW231426   8.998  11.197   0.003  0.7542  0.2167  0.4773
 9807SOL     OW31427   2.128   4.872   5.387 -0.2491  1.0237 -0.0699
 9807SOL    HW131428   2.199   4.836   5.441 -1.1200  0.1894  0.5585
 9807SOL    HW231429   2.154   4.963   5.371  0.2318  1.1863  1.4427
 9808SOL     OW31430  10.902   7.086  11.201 -0.5687 -0.0332  0.3720
 9808SOL    HW131431  10.854   7.046  11.129  0.2059 -1.1466  0.4374
 9808SOL    HW231432  10.846   7.073  11.277  0.3086 -2.5543  0.7167
 9809SOL     OW31433  11.151  10.656   2.603 -0.0502 -0.6741  0.1689
 9809SOL    HW131434  11.149  10.700   2.688 -1.3212 -0.4028  0.0130
 9809SOL    HW231435  11.191  10.571   2.622  2.1032  0.3413  0.5344
 9810SOL     OW31436   3.140   9.988   6.714 -0.0585 -0.1266 -0.1711
 9810SOL    HW131437   3.167   9.900   6.738 -0.3192 -0.2111 -0.1799
 9810SOL    HW231438   3.061  10.004   6.766  0.4805  0.4418  0.5006
 9811SOL     OW31439   6.057   5.125  10.738 -0.0942  0.3703 -0.1856
 9811SOL    HW131440   5.981   5.105  10.793  0.1689 -0.0371  0.0292
 9811SOL    HW231441   6.116   5.051  10.750  0.2906  0.6319 -0.4427
 9812SOL     OW31442   2.432   2.146  10.036  0.2553 -0.3835 -0.3200
 9812SOL    HW131443   2.492   2.195  10.093 -0.1242  1.1505 -1.1983
 9812SOL    HW231444   2.477   2.142   9.952 -0.5039  0.0839 -0.7619
 9813SOL     OW31445   6.164   6.837   0.179 -0.4790 -0.0467 -0.3274
 9813SOL    HW131446   6.193   6.760   0.129 -0.9352 -0.1751 -0.3989
 9813SOL    HW231447   6.069   6.838   0.169 -0.3628  1.4074 -1.5825
 9814SOL     OW31448   9.158   1.932   0.597  0.6836 -0.2337  0.2675
 9814SOL    HW131449   9.228   1.869   0.580  1.5521  1.0569 -1.2685
 9814SOL    HW231450   9.116   1.945   0.512 -0.7068 -0.1259  0.9432
 9815SOL     OW31451   7.250  10.336  10.998 -0.4864  0.5578  0.1160
 9815SOL    HW131452   7.201  10.339  11.080 -0.2641  1.0855  0.2329
 9815SOL    HW231453   7.342  10.332  11.026 -0.4224  0.5085 -0.1055
 9816SOL     OW31454   9.419   5.728   3.811  0.6344  0.0162 -0.1289
 9816SOL    HW131455   9.469   5.785   3.869  1.2576 -2.8092  2.4185
 9816SOL    HW231456   9.337   5.713   3.857 -1.4815  2.1947 -2.8517
 9817SOL     OW31457   6.029  10.687   4.680 -0.4118 -0.0221  0.4664
 9817SOL    HW131458   5.999  10.634   4.754 -0.1004 -2.0188 -0.7772
 9817SOL    HW231459   6.091  10.631   4.634 -0.8796  1.0278 -1.5148
 9818SOL     OW31460   6.625   9.763   0.357  0.3740  0.0713 -0.2932
 9818SOL    HW131461   6.663   9.677   0.338 -2.6324 -1.7732  1.1606
 9818SOL    HW231462   6.646   9.779   0.449  1.8490  1.4834 -0.8457
 9819SOL     OW31463   0.782   0.806   6.275  0.1787 -0.2441  0.2824
 9819SOL    HW131464   0.689   0.794   6.297  0.2305 -0.9435  0.1452
 9819SOL    HW231465   0.794   0.901   6.275 -0.6287 -0.1302 -0.0784
 9820SOL     OW31466   7.442   4.775   6.335 -0.1542 -0.2153  0.0101
 9820SOL    HW131467   7.370   4.815   6.384 -0.4314  1.6218 -1.7569
 9820SOL    HW231468   7.506   4.845   6.324  0.0637 -0.6630 -1.8650
 9821SOL     OW31469   8.926  10.208   8.588 -0.5179  0.7211 -0.3662
 9821SOL    HW131470   8.855  10.168   8.537 -0.4924 -0.2711  0.3502
 9821SOL    HW231471   8.978  10.255   8.523 -1.8864  1.5633 -0.8813
 9822SOL     OW31472   7.093   3.089   3.719 -0.2720 -0.1297  0.0479
 9822SOL    HW131473   7.051   3.155   3.774  1.8031  0.6928  0.7340
 9822SOL    HW231474   7.125   3.023   3.780  2.6937  1.1479  0.0248
 9823SOL     OW31475   0.178   0.487   5.764 -0.2832  0.2490  0.2274
 9823SOL    HW131476   0.236   0.563   5.773  3.0036 -1.6722 -2.3400
 9823SOL    HW231477   0.139   0.497   5.677  1.9051 -1.8384 -1.1407
 9824SOL     OW31478   9.545   5.845   7.541  0.3701  0.1921 -0.5333
 9824SOL    HW131479   9.497   5.888   7.612 -0.3729  0.8587 -1.4189
 9824SOL    HW231480   9.637   5.859   7.563  0.1875 -0.6523  0.9194
 9825SOL     OW31481   1.537   3.639   6.518 -0.2055 -0.2234  0.0030
 9825SOL    HW131482   1.553   3.550   6.552  0.9174  0.1708  0.5514
 9825SOL    HW231483   1.483   3.681   6.585 -0.1149 -0.2527  0.0945
 9826SOL     OW31484   7.036  10.191   2.094 -0.2146 -0.3044  0.1109
 9826SOL    HW131485   7.005  10.280   2.110  1.8776  0.7329 -1.1952
 9826SOL    HW231486   7.123  10.188   2.136 -1.0561 -2.4489  1.9250
 9827SOL     OW31487   6.416   5.734   8.532 -0.8069  0.6165  0.5245
 9827SOL    HW131488   6.479   5.806   8.527 -0.8036  0.5587 -0.7710
 9827SOL    HW231489   6.335   5.775   8.560 -0.1167  0.6135  2.7190
 9828SOL     OW31490   4.965   0.219  10.694  0.1650  0.6714 -0.3324
 9828SOL    HW131491   4.891   0.267  10.732 -0.6651 -1.3486  0.7369
 9828SOL    HW231492   4.925   0.145  10.649  1.5403 -1.8192  2.2303
 9829SOL     OW31493   1.207   0.395   0.238  0.0855  0.3893  0.1985
 9829SOL    HW131494   1.189   0.444   0.318 -1.5108  0.9022 -0.4495
 9829SOL    HW231495   1.302   0.379   0.241  0.0258  0.1513  2.3099
 9830SOL     OW31496   8.294   1.151   2.032  0.2911  0.3340 -0.1262
 9830SOL    HW131497   8.282   1.083   2.098 -2.2482 -0.4817 -1.3134
 9830SOL    HW231498   8.337   1.106   1.959 -2.3151 -0.4124 -1.3287
 9831SOL     OW31499   0.031  11.196   7.136 -0.2107  0.1027  0.0833
 9831SOL    HW131500   0.107  11.255   7.133 -0.5214  0.4656 -0.8432
 9831SOL    HW231501   0.070  11.109   7.141  0.3307  0.1787 -1.8990
 9832SOL     OW31502   7.433   2.593   5.690  0.3094  0.4718 -0.7797
 9832SOL    HW131503   7.487   2.588   5.770 -3.2111 -2.8264  1.7339
 9832SOL    HW231504   7.404   2.504   5.675 -0.0057  1.1456 -5.3745
 9833SOL     OW31505   4.194  10.621   1.878 -0.1920  0.7703  0.6226
 9833SOL    HW131506   4.265  10.685   1.871 -1.2400  1.8207 -1.1910
 9833SOL    HW231507   4.223  10.546   1.826  0.8296 -0.1053  2.3586
 9834SOL     OW31508   6.832  10.971   8.157 -0.3729 -0.1191  0.2175
 9834SOL    HW131509   6.888  10.962   8.080 -0.2272 -1.1467  0.4281
 9834SOL    HW231510   6.774  11.044   8.136  2.8946  3.0183  1.1372
 9835SOL     OW31511   1.968   8.375   1.917  0.8257 -0.1830 -0.7875
 9835SOL    HW131512   1.999   8.325   1.842  1.6144 -2.0085  0.6887
 9835SOL    HW231513   1.982   8.318   1.992 -0.5622  1.3138  0.6955
 9836SOL     OW31514   3.033   8.574   1.473 -0.2532 -0.1954  0.3444
 9836SOL    HW131515   3.012   8.617   1.556 -0.0804 -0.3797  0.4850
 9836SOL    HW231516   3.128   8.561   1.476 -0.2277 -0.0595  0.0485
 9837SOL     OW31517  10.400   0.133   0.373  0.8116  0.1338 -0.2925
 9837SOL    HW131518  10.473   0.112   0.315 -1.1666  0.2097 -2.9993
 9837SOL    HW231519  10.376   0.049   0.412  1.0913 -0.2687 -0.9608
 9838SOL     OW31520   7.204   7.286   2.727  0.4900 -0.1087  0.8110
 9838SOL    HW131521   7.154   7.208   2.752 -0.2619 -0.9943 -2.8671
 9838SOL    HW231522   7.287   7.278   2.775  0.0830 -2.6965  1.2182
 9839SOL     OW31523   9.519   5.683  10.940 -0.1308  0.4913 -0.5202
 9839SOL    HW131524   9.517   5.770  10.980  3.2257  1.0534 -1.2573
 9839SOL    HW231525   9.476   5.626  11.004  0.5941  2.1620  1.5809
 9840SOL     OW31526   0.778   3.402   6.697  0.1615 -0.6173 -0.7473
 9840SOL    HW131527   0.858   3.455   6.695  0.7351 -1.4691 -0.7467
 9840SOL    HW231528   0.744   3.407   6.608 -0.8422  1.3022 -0.3048
 9841SOL     OW31529  11.165   6.943   2.045  0.0874 -0.1896  0.2669
 9841SOL    HW131530  11.248   6.991   2.033  0.1540 -0.3715 -0.0034
 9841SOL    HW231531  11.107   7.006   2.088 -0.5079  0.8499 -1.9515
 9842SOL     OW31532   7.009   6.886   5.218 -0.3925  0.4689  0.9752
 9842SOL    HW131533   7.035   6.847   5.301 -1.4616  1.0328  1.6032
 9842SOL    HW231534   7.028   6.979   5.229 -0.3464  0.5116  0.5199
 9843SOL     OW31535   7.351   9.921   6.009 -0.7443  0.0313  0.0559
 9843SOL    HW131536   7.305   9.922   5.925  2.2550  1.8872 -1.7461
 9843SOL    HW231537   7.363   9.828   6.029 -1.7595 -0.4578 -1.4324
 9844SOL     OW31538   0.656   0.267   4.645 -0.7167  0.0273 -0.4392
 9844SOL    HW131539   0.593   0.254   4.716  0.0731  1.5250  0.5779
 9844SOL    HW231540   0.622   0.213   4.574 -1.4155 -1.7005  1.1202
 9845SOL     OW31541   4.087   0.453  10.327 -0.5974  0.4085 -0.5937
 9845SOL    HW131542   4.108   0.367  10.364 -1.0877 -1.2036 -3.7472
 9845SOL    HW231543   4.008   0.481  10.373 -1.4566 -1.6811 -0.7124
 9846SOL     OW31544   1.416   9.533   8.279 -0.1566  0.0252  0.9727
 9846SOL    HW131545   1.494   9.522   8.333  0.3012 -2.8056 -0.0724
 9846SOL    HW231546   1.343   9.528   8.340  0.4141 -0.6112  1.6160
 9847SOL     OW31547   4.315   2.195   3.803 -0.2493  0.1150 -0.4249
 9847SOL    HW131548   4.294   2.102   3.791 -1.7518  0.2489  0.7634
 9847SOL    HW231549   4.283   2.215   3.891 -1.9137  2.2613 -1.4216
 9848SOL     OW31550   7.354   8.058   7.664  0.0736  0.0059  0.0131
 9848SOL    HW131551   7.289   8.062   7.594 -1.3959  2.4868  1.3736
 9848SOL    HW231552   7.415   7.989   7.637 -0.4500  0.7889 -3.5920
 9849SOL     OW31553   5.136   0.535   8.517  0.1484 -0.0576 -0.0106
 9849SOL    HW131554   5.159   0.627   8.527 -0.7228  0.2366 -0.6442
 9849SOL    HW231555   5.170   0.493   8.596 -0.0512  0.9203  0.6023
 9850SOL     OW31556   3.598   9.859   7.361  0.3287 -0.0620 -0.3787
 9850SOL    HW131557   3.685   9.893   7.337 -0.6407  1.8259 -1.4825
 9850SOL    HW231558   3.547   9.866   7.281 -1.2714  0.3586  0.6343
 9851SOL     OW31559   2.570   8.591   2.543  0.6337 -0.4093 -0.0950
 9851SOL    HW131560   2.535   8.507   2.512 -0.9135  0.6441 -1.3921
 9851SOL    HW231561   2.656   8.597   2.502 -0.0043 -0.5765 -1.5500
 9852SOL     OW31562   8.739   4.467   6.312 -0.1924  0.1564  0.0955
 9852SOL    HW131563   8.663   4.489   6.259  0.3994 -0.2267 -0.9460
 9852SOL    HW231564   8.814   4.483   6.254  0.5424  0.7338  1.1637
 9853SOL     OW31565   4.594   6.615   8.974  0.0293  0.3590  1.2849
 9853SOL    HW131566   4.652   6.682   8.939  1.3845 -0.1533  2.4111
 9853SOL    HW231567   4.641   6.581   9.051 -0.0314 -2.6741  0.1376
 9854SOL     OW31568   3.305   5.916  10.178  0.3159  0.3264 -0.4164
 9854SOL    HW131569   3.362   5.921  10.101  1.9195 -2.3804  0.4608
 9854SOL    HW231570   3.358   5.951  10.250 -0.5786  1.3410 -0.2264
 9855SOL     OW31571   9.105   0.083   3.642  0.3500  0.0971  0.5854
 9855SOL    HW131572   9.039   0.014   3.629  2.3134 -1.4465 -2.4741
 9855SOL    HW231573   9.187   0.035   3.653  1.5484  1.9534  0.0912
 9856SOL     OW31574   7.908   8.868   2.045  0.1927 -0.3127  1.0085
 9856SOL    HW131575   7.947   8.918   1.974 -1.9639  1.2906  0.8605
 9856SOL    HW231576   7.980   8.816   2.080  1.6555  0.0135 -1.3168
 9857SOL     OW31577   2.363   7.898   2.808 -0.7917  0.0229 -0.1820
 9857SOL    HW131578   2.319   7.825   2.764 -1.2284 -0.2102  0.6240
 9857SOL    HW231579   2.319   7.905   2.893  2.0628 -1.5721  1.5587
 9858SOL     OW31580   8.314   6.654   5.520  0.1177  0.3488 -0.0438
 9858SOL    HW131581   8.291   6.611   5.437  1.3442  0.8750 -0.6984
 9858SOL    HW231582   8.236   6.703   5.544  0.2344  1.4748 -1.7579
 9859SOL     OW31583   4.763   9.835   2.309  0.3528  0.4869 -0.0231
 9859SOL    HW131584   4.688   9.813   2.252 -0.8860  4.1614 -0.0695
 9859SOL    HW231585   4.730   9.821   2.398  0.5430 -0.3194 -0.0654
 9860SOL     OW31586   4.111   7.264   1.718 -0.5393 -0.5835  0.1636
 9860SOL    HW131587   4.150   7.335   1.667 -0.3776 -1.1552 -0.5319
 9860SOL    HW231588   4.115   7.294   1.809  1.7024 -0.7016  0.1521
 9861SOL     OW31589   6.206   0.018   8.040  0.5651  0.9999 -0.3016
 9861SOL    HW131590   6.185   0.103   8.001  1.2562  1.0007 -0.6890
 9861SOL    HW231591   6.299   0.006   8.022  0.3605 -0.0695 -0.7038
 9862SOL     OW31592   8.184  10.880   4.567  0.1159 -0.9089 -0.4062
 9862SOL    HW131593   8.144  10.816   4.508  2.4607 -2.6625 -0.2273
 9862SOL    HW231594   8.267  10.903   4.525 -0.6155  2.0752 -0.4470
 9863SOL     OW31595   2.778   3.261   7.351 -0.6814 -0.2353  0.3535
 9863SOL    HW131596   2.748   3.243   7.440  0.0659 -3.3475  0.0855
 9863SOL    HW231597   2.744   3.188   7.299  2.9578 -1.2100 -0.9394
 9864SOL     OW31598   4.092   1.258   4.809 -0.3115 -0.1233 -0.2547
 9864SOL    HW131599   4.049   1.185   4.764 -0.1778 -0.3620  0.0049
 9864SOL    HW231600   4.167   1.279   4.753 -0.0453 -0.5340 -0.0598
 9865SOL     OW31601   2.012   7.055   4.069  0.8230 -0.4047  0.6524
 9865SOL    HW131602   1.987   7.082   3.980 -4.0648 -3.7152  0.6396
 9865SOL    HW231603   2.102   7.024   4.060  1.2080  1.2209 -2.6120
 9866SOL     OW31604   6.122   3.672  10.243  0.7154 -0.1569  0.5522
 9866SOL    HW131605   6.078   3.757  10.246 -0.5188 -0.7547  3.6545
 9866SOL    HW231606   6.215   3.694  10.253  0.6990  0.9009 -1.2586
 9867SOL     OW31607   6.736   5.531   2.084 -0.0079 -0.0298 -0.4571
 9867SOL    HW131608   6.830   5.516   2.096 -0.3218 -0.5199  1.9961
 9867SOL    HW231609   6.714   5.598   2.149 -1.0019  1.7670 -2.5326
 9868SOL     OW31610   3.999   4.612   8.706 -0.1887 -0.0662  0.1739
 9868SOL    HW131611   3.996   4.565   8.789  0.0943 -0.9831 -0.3211
 9868SOL    HW231612   3.997   4.705   8.731  0.9624 -0.3029  1.2663
 9869SOL     OW31613   3.119   5.313   0.731 -0.0871 -0.6323  0.6270
 9869SOL    HW131614   3.131   5.241   0.793 -1.3641 -2.8720 -1.5211
 9869SOL    HW231615   3.032   5.347   0.750 -0.1060 -0.6943  0.6516
 9870SOL     OW31616   8.741   6.891  11.227 -0.2997  0.1094 -0.0519
 9870SOL    HW131617   8.720   6.888  11.320  1.6399  1.2630  0.4729
 9870SOL    HW231618   8.668   6.846  11.185 -2.6798  1.9357  1.7691
 9871SOL     OW31619   6.542   3.879   1.330 -0.1626  0.1696 -0.6154
 9871SOL    HW131620   6.582   3.961   1.304 -1.0593  1.3584  1.4980
 9871SOL    HW231621   6.587   3.854   1.411 -1.0195 -0.5231 -0.3276
 9872SOL     OW31622   9.624   2.631   4.996  0.1047 -0.3261 -0.0289
 9872SOL    HW131623   9.604   2.538   4.990  0.1642 -0.4039  0.7900
 9872SOL    HW231624   9.691   2.646   4.929 -0.8511 -0.5824 -1.0733
 9873SOL     OW31625   9.187   6.007   9.508 -0.1494  0.4766 -0.3291
 9873SOL    HW131626   9.176   6.012   9.603  0.2207  0.8277 -0.3022
 9873SOL    HW231627   9.282   6.017   9.494 -0.2508  0.8499 -0.7612
 9874SOL     OW31628   0.516   7.211  10.236 -0.6247  0.2716  0.4123
 9874SOL    HW131629   0.571   7.142  10.274 -1.1315 -1.2364 -1.4594
 9874SOL    HW231630   0.572   7.288  10.233  0.4991 -0.5019  0.9944
 9875SOL     OW31631   8.152   3.338   7.597  0.2004  0.7629 -0.3144
 9875SOL    HW131632   8.097   3.275   7.645  2.6470 -1.9165 -0.7654
 9875SOL    HW231633   8.167   3.409   7.659 -1.1548  0.0335  0.9113
 9876SOL     OW31634  10.019   6.148   6.041  0.3716  0.6955 -0.1398
 9876SOL    HW131635   9.984   6.155   6.129 -1.8271  0.0711 -0.9033
 9876SOL    HW231636  10.105   6.107   6.052 -0.1825 -0.0719  1.6382
 9877SOL     OW31637   1.088  10.251   6.659  0.1599 -0.2486 -0.5656
 9877SOL    HW131638   1.062  10.312   6.728  3.3926  1.1422 -0.4099
 9877SOL    HW231639   1.141  10.303   6.600  0.1310 -2.1664 -2.3922
 9878SOL     OW31640  10.044   5.484   2.463 -0.1485 -0.3289 -0.1780
 9878SOL    HW131641   9.968   5.467   2.408 -0.2165  0.7026 -0.4320
 9878SOL    HW231642  10.089   5.557   2.420  2.2181 -2.2975 -1.2517
 9879SOL     OW31643   9.917   1.189   8.928 -0.3205  0.3184  0.1768
 9879SOL    HW131644   9.880   1.255   8.988  1.9100  0.7649  1.1692
 9879SOL    HW231645  10.012   1.199   8.937  0.0843 -1.1293 -1.8210
 9880SOL     OW31646   1.925   3.355   6.143  0.1033  0.1786 -0.6609
 9880SOL    HW131647   1.968   3.426   6.096  0.1368  2.0411  1.9178
 9880SOL    HW231648   1.909   3.391   6.231 -2.5640 -1.9998 -0.0928
 9881SOL     OW31649   9.516   3.352   9.960 -0.2575  0.1804  0.2013
 9881SOL    HW131650   9.566   3.388  10.034 -2.4353  0.9614  1.3978
 9881SOL    HW231651   9.424   3.362   9.987 -1.2210  1.6791 -3.1323
 9882SOL     OW31652   8.518   9.894   0.680  0.1649  0.7605 -0.4124
 9882SOL    HW131653   8.427   9.922   0.670 -0.3679 -1.0288 -0.9485
 9882SOL    HW231654   8.517   9.836   0.757  0.5847 -0.2524 -1.1437
 9883SOL     OW31655  10.946   8.037   5.491  0.3732  0.0822  0.0998
 9883SOL    HW131656  10.867   7.984   5.483  1.8136 -2.8282  3.0520
 9883SOL    HW231657  11.002   8.009   5.418 -0.3074  0.3124 -0.5165
 9884SOL     OW31658   2.957   4.768  11.264  0.2783  0.1612 -0.4578
 9884SOL    HW131659   3.039   4.778  11.216 -0.0889  0.8646 -0.9599
 9884SOL    HW231660   2.948   4.674  11.278 -0.7676 -0.3639 -3.8594
 9885SOL     OW31661   8.804   0.442   7.642  0.4159 -0.2030 -0.2489
 9885SOL    HW131662   8.721   0.408   7.673 -0.5963  0.9853 -1.5285
 9885SOL    HW231663   8.869   0.403   7.700 -1.2597  1.4847  3.0699
 9886SOL     OW31664   4.286  11.011   2.619 -0.0136  0.3834  0.2933
 9886SOL    HW131665   4.234  11.031   2.697  0.7047  0.7944  0.6836
 9886SOL    HW231666   4.377  11.012   2.650  0.1626 -2.6567  0.1455
 9887SOL     OW31667   1.696   2.053   9.341 -0.0744  0.5364  0.4153
 9887SOL    HW131668   1.773   2.024   9.293  0.7370  1.6811  0.9883
 9887SOL    HW231669   1.710   2.019   9.430 -2.4810 -3.2702 -0.4262
 9888SOL     OW31670   4.316   8.037   2.020  0.0058  0.0773  0.2566
 9888SOL    HW131671   4.308   8.085   2.102 -0.9621 -1.1801  0.9204
 9888SOL    HW231672   4.354   8.101   1.959 -2.9713  2.3265  0.5467
 9889SOL     OW31673   3.297  11.255   2.103  0.3693  0.0486 -0.0420
 9889SOL    HW131674   3.261  11.171   2.132  1.4058 -0.2747  0.3448
 9889SOL    HW231675   3.391  11.246   2.113  0.6056  0.7271 -1.4638
 9890SOL     OW31676   3.516   5.208   8.004 -0.4780 -0.1084 -0.0497
 9890SOL    HW131677   3.593   5.251   7.967 -0.6961 -0.1920 -0.6193
 9890SOL    HW231678   3.442   5.249   7.959 -0.7698  0.0037  0.5269
 9891SOL     OW31679   8.745   9.463   2.680  0.2498  0.1202  0.5155
 9891SOL    HW131680   8.675   9.398   2.686  1.8027 -1.8195 -0.8790
 9891SOL    HW231681   8.796   9.435   2.604  1.6294  2.3849  0.5327
 9892SOL     OW31682  10.540   1.706   1.198  0.1888 -0.0031  0.5453
 9892SOL    HW131683  10.465   1.762   1.178  0.5441  0.1869 -0.2775
 9892SOL    HW231684  10.512   1.655   1.274 -0.9522 -0.2600 -0.0240
 9893SOL     OW31685  10.909   8.039   2.338 -0.1322 -0.3814 -0.1049
 9893SOL    HW131686  10.944   7.974   2.399 -0.4519 -0.0793  0.4090
 9893SOL    HW231687  10.945   8.122   2.369 -1.0812 -0.1016  0.2656
 9894SOL     OW31688   1.582   8.382  10.000 -0.4322  0.0205  0.3031
 9894SOL    HW131689   1.502   8.339   9.968 -0.8243  1.0923 -0.2172
 9894SOL    HW231690   1.649   8.313   9.998 -1.1839 -0.7197  0.0941
 9895SOL     OW31691   5.852   1.099   6.731 -0.0185 -0.3643 -0.1826
 9895SOL    HW131692   5.914   1.163   6.765  0.1030  1.0706 -2.8133
 9895SOL    HW231693   5.768   1.122   6.770  0.4741 -0.1611  0.7745
 9896SOL     OW31694   2.999   9.810   8.983  0.6074  0.9590 -0.1089
 9896SOL    HW131695   2.931   9.781   8.922  1.4807 -1.2595 -0.1261
 9896SOL    HW231696   3.077   9.761   8.957  0.7051 -1.1455  3.5150
 9897SOL     OW31697   8.957   6.675   9.569  0.3923  0.2334  0.4071
 9897SOL    HW131698   8.928   6.732   9.640 -0.5942 -0.2060  0.3603
 9897SOL    HW231699   9.046   6.650   9.594  0.1496  0.2892  1.3520
 9898SOL     OW31700   7.828   1.406   8.678 -0.0226 -0.1094  0.5464
 9898SOL    HW131701   7.814   1.339   8.746  1.7329 -1.2451 -0.1564
 9898SOL    HW231702   7.808   1.361   8.596  1.3051  0.1626  0.0499
 9899SOL     OW31703  10.809   7.484   5.958  0.0292  0.1202 -0.3051
 9899SOL    HW131704  10.822   7.406   6.012  0.7092  0.7992  0.5389
 9899SOL    HW231705  10.875   7.476   5.888  0.3386  0.1032 -0.0162
 9900SOL     OW31706   7.477   0.497   1.935 -0.4023  0.7148  0.0814
 9900SOL    HW131707   7.561   0.455   1.954 -1.5440 -0.6134  2.6023
 9900SOL    HW231708   7.476   0.576   1.990 -0.3389  1.4020 -0.8711
 9901SOL     OW31709  10.759   6.223   9.844 -0.9555  0.0671 -0.3397
 9901SOL    HW131710  10.721   6.273   9.916 -0.9190 -1.0112  0.4639
 9901SOL    HW231711  10.713   6.139   9.847  1.1830 -1.1307  0.4118
 9902SOL     OW31712  10.443   5.054   5.100 -0.8695 -0.1187 -0.2588
 9902SOL    HW131713  10.475   5.115   5.167  0.2284 -2.6335  1.6456
 9902SOL    HW231714  10.516   5.047   5.038 -0.8519  0.1820 -0.2759
 9903SOL     OW31715   0.613   4.460   9.245 -0.2834 -0.4494 -0.2398
 9903SOL    HW131716   0.620   4.545   9.288 -0.4314  0.5338 -2.0640
 9903SOL    HW231717   0.519   4.442   9.242 -0.4123  0.3810 -1.7713
 9904SOL     OW31718  11.266   5.178  10.353 -0.5192  0.4671  0.4200
 9904SOL    HW131719  11.187   5.158  10.303 -1.0925  0.2057  1.4083
 9904SOL    HW231720  11.288   5.268  10.328 -2.5897  1.4769  1.9998
 9905SOL     OW31721   2.453  11.091   3.835 -0.3154  0.2817 -0.1175
 9905SOL    HW131722   2.469  11.019   3.895  0.6453 -2.2211 -3.1065
 9905SOL    HW231723   2.529  11.149   3.847  0.4420 -0.7639  0.2641
 9906SOL     OW31724   9.606   3.807   6.683 -0.2945 -0.9922  0.8145
 9906SOL    HW131725   9.602   3.843   6.771 -0.6598 -1.0618  0.8288
 9906SOL    HW231726   9.585   3.714   6.694  1.3550 -1.3901  0.8748
 9907SOL     OW31727   5.927   9.297   7.004  0.4253 -0.7507 -0.0852
 9907SOL    HW131728   6.010   9.332   6.969  0.1881 -0.7743 -0.6808
 9907SOL    HW231729   5.926   9.206   6.976 -0.7862 -0.2179 -1.9459
 9908SOL     OW31730   8.636   0.207   3.392  0.2344  0.2359 -0.3273
 9908SOL    HW131731   8.681   0.134   3.349  0.6649  1.0114 -1.2373
 9908SOL    HW231732   8.667   0.206   3.482 -0.4352 -1.2361 -0.0899
 9909SOL     OW31733   7.038   8.339   4.231  0.1328 -0.2799 -0.0645
 9909SOL    HW131734   6.999   8.289   4.159 -1.7783 -0.7685  1.2467
 9909SOL    HW231735   7.030   8.431   4.203  0.6367 -0.5219 -1.0420
 9910SOL     OW31736   0.816   2.470   1.267 -0.4452 -0.2848  0.6616
 9910SOL    HW131737   0.894   2.499   1.219  0.2412  0.9450  2.4154
 9910SOL    HW231738   0.752   2.540   1.252  0.6901  1.5598  3.6282
 9911SOL     OW31739   0.990   2.940  11.247 -0.4170  0.3852  0.1088
 9911SOL    HW131740   1.075   2.976  11.274  0.0292 -1.3085  1.0910
 9911SOL    HW231741   1.007   2.900  11.162 -0.6506  1.4559 -0.4620
 9912SOL     OW31742   8.541   0.482   8.303 -0.2757 -0.5946  0.4832
 9912SOL    HW131743   8.575   0.551   8.246 -3.0466  0.3522 -0.1892
 9912SOL    HW231744   8.557   0.514   8.392 -0.6066  0.4328  0.1801
 9913SOL     OW31745  11.266  11.053  10.413  0.3010 -0.0473 -0.4414
 9913SOL    HW131746  11.319  10.979  10.383 -0.5020 -0.1815 -1.5808
 9913SOL    HW231747  11.238  11.028  10.501 -0.0669 -1.1763 -0.8556
 9914SOL     OW31748   6.963   0.452   0.260 -0.7825 -0.2831 -0.3748
 9914SOL    HW131749   6.876   0.421   0.233 -0.8910  0.1625 -0.5530
 9914SOL    HW231750   6.945   0.532   0.310 -0.5938 -1.1464  1.1284
 9915SOL     OW31751   3.846   2.689   3.767  0.2945 -0.6319  0.3198
 9915SOL    HW131752   3.755   2.694   3.798  0.0918 -1.7772 -0.0439
 9915SOL    HW231753   3.839   2.661   3.676  0.7423  4.6932 -1.7271
 9916SOL     OW31754   1.769   4.437   0.581 -0.2960  0.2390 -0.7510
 9916SOL    HW131755   1.816   4.521   0.579 -0.2063  0.3249  1.6900
 9916SOL    HW231756   1.779   4.402   0.493  1.1070  2.0220 -1.3707
 9917SOL     OW31757   7.063   0.751   4.368 -0.0846 -0.5799  0.4322
 9917SOL    HW131758   7.157   0.739   4.385  0.2389  2.5285  1.4919
 9917SOL    HW231759   7.026   0.773   4.454 -1.2368  0.8888 -0.3915
 9918SOL     OW31760   7.751   5.334  10.730 -0.0743  0.1634  0.0199
 9918SOL    HW131761   7.779   5.256  10.681 -0.0028  1.4164 -2.0622
 9918SOL    HW231762   7.823   5.353  10.789 -0.0599 -1.2858  0.5114
 9919SOL     OW31763   1.090   0.071   6.599  0.1648  0.2611 -0.0498
 9919SOL    HW131764   1.002   0.100   6.624  0.5083  0.9433  0.4208
 9919SOL    HW231765   1.128   0.147   6.555  0.7216  0.1731  0.2695
 9920SOL     OW31766   3.781   7.119   7.617 -0.0487  0.0041 -0.1064
 9920SOL    HW131767   3.706   7.063   7.597 -0.9132  0.7519  0.9095
 9920SOL    HW231768   3.795   7.170   7.538  1.8883 -2.7853 -1.7326
 9921SOL     OW31769   9.818   1.396   7.892 -0.1525  0.6565 -0.1225
 9921SOL    HW131770   9.883   1.360   7.951 -1.5818  0.3130  1.3018
 9921SOL    HW231771   9.801   1.326   7.828 -0.7659 -0.1275  0.8728
 9922SOL     OW31772   1.516   6.776   9.553  0.3427 -0.0701  0.1938
 9922SOL    HW131773   1.491   6.742   9.467  1.3655 -1.6021  0.4505
 9922SOL    HW231774   1.511   6.871   9.544 -1.8881 -0.2156 -0.8263
 9923SOL     OW31775   9.457   7.053   2.285 -0.0516  0.5037 -0.2191
 9923SOL    HW131776   9.409   7.082   2.207  1.2181  2.8157 -0.1912
 9923SOL    HW231777   9.546   7.038   2.254 -0.1340 -1.3061  0.2704
 9924SOL     OW31778   0.784   1.782   8.801  0.0585 -0.0042  0.6421
 9924SOL    HW131779   0.752   1.864   8.764 -1.3274 -0.3386  1.0264
 9924SOL    HW231780   0.742   1.776   8.887  1.0427 -0.5704  1.1012
 9925SOL     OW31781   3.743  10.414   7.291 -0.5506  0.1103  0.8917
 9925SOL    HW131782   3.798  10.444   7.219 -1.3344 -2.0207 -0.6908
 9925SOL    HW231783   3.722  10.494   7.340  2.0281  1.2882  0.2410
 9926SOL     OW31784   7.490   8.665   6.480 -0.1122 -0.0770 -0.0477
 9926SOL    HW131785   7.561   8.607   6.509 -0.8841 -1.2671 -0.4737
 9926SOL    HW231786   7.530   8.718   6.411 -0.1087 -2.1516 -1.7598
 9927SOL     OW31787   8.587  10.243   7.831 -0.5647 -0.3562 -0.1740
 9927SOL    HW131788   8.506  10.285   7.804 -0.2511 -0.3106 -1.0582
 9927SOL    HW231789   8.584  10.157   7.790 -0.5663 -0.6910  0.5105
 9928SOL     OW31790   9.435   7.960  10.056  0.1484  0.1106  0.3314
 9928SOL    HW131791   9.447   7.978  10.149  2.8073  2.0837 -0.2883
 9928SOL    HW231792   9.392   8.038  10.022 -1.9548 -1.1069  0.0283
 9929SOL     OW31793   1.872   1.023   1.833  0.1727 -0.2506  0.0725
 9929SOL    HW131794   1.899   0.933   1.848 -1.8234 -0.8709  0.3107
 9929SOL    HW231795   1.834   1.022   1.745  2.8375  1.1024 -1.2099
 9930SOL     OW31796   4.270   6.479   8.536 -0.3012  0.1398 -0.1664
 9930SOL    HW131797   4.342   6.417   8.526  0.3781  0.6002  1.4613
 9930SOL    HW231798   4.276   6.508   8.627 -0.9998  2.1005 -0.6952
 9931SOL     OW31799   4.203   7.232   9.123  0.3484 -0.2716  0.1403
 9931SOL    HW131800   4.182   7.240   9.216  0.2924  0.5109  0.0667
 9931SOL    HW231801   4.250   7.313   9.102 -0.6585  0.0960 -0.7879
 9932SOL     OW31802   6.959   5.408   7.120  0.0566 -0.0267  0.2935
 9932SOL    HW131803   6.889   5.410   7.055  0.7577 -0.8047 -0.5101
 9932SOL    HW231804   6.934   5.337   7.179  1.1445 -1.6826 -1.1623
 9933SOL     OW31805   5.576   2.245   4.356 -0.4756  0.4315  0.4709
 9933SOL    HW131806   5.596   2.313   4.420 -1.0961 -0.1411  1.3132
 9933SOL    HW231807   5.505   2.282   4.303 -1.5657  0.0911  1.6139
 9934SOL     OW31808   5.251   7.968   9.988 -0.2616  0.1941  0.0205
 9934SOL    HW131809   5.227   7.946   9.898 -1.1994 -1.3474  0.6229
 9934SOL    HW231810   5.181   8.025  10.018 -1.2907 -1.2824  0.5453
 9935SOL     OW31811   9.813   6.991  10.947 -0.5886  0.4081  0.5323
 9935SOL    HW131812   9.734   6.938  10.937  0.7909 -1.6112 -0.2119
 9935SOL    HW231813   9.787   7.062  11.006 -2.7669 -0.5546  0.8113
 9936SOL     OW31814   6.867   6.041   5.693 -0.2507 -0.2957 -0.2171
 9936SOL    HW131815   6.806   6.094   5.642 -0.5074  0.8393  1.2163
 9936SOL    HW231816   6.952   6.082   5.678 -0.1318 -0.7093 -0.6921
 9937SOL     OW31817   0.840   2.911   5.437  0.0340  0.0147 -0.6989
 9937SOL    HW131818   0.893   2.833   5.456 -0.6730 -0.4248 -0.4821
 9937SOL    HW231819   0.829   2.909   5.342  2.7773  1.6965 -1.1718
 9938SOL     OW31820   4.861   3.326   3.774  0.4796  0.8586  0.0554
 9938SOL    HW131821   4.861   3.412   3.815  0.2706  0.8663  0.0411
 9938SOL    HW231822   4.770   3.312   3.748  0.6404  0.9138 -0.5397
 9939SOL     OW31823   0.911   4.133   2.257 -0.2693 -0.1726  0.0438
 9939SOL    HW131824   0.941   4.157   2.170  1.4272  1.4129  0.9947
 9939SOL    HW231825   0.826   4.091   2.243 -0.2026  0.3605 -2.3145
 9940SOL     OW31826   9.333  10.790   0.480 -0.1763  0.3725  0.2265
 9940SOL    HW131827   9.298  10.869   0.439 -1.2017 -0.1240  0.1145
 9940SOL    HW231828   9.288  10.784   0.563 -1.1414 -0.8320 -0.3608
 9941SOL     OW31829   9.741   3.839   8.769 -0.7339 -0.1101 -0.0684
 9941SOL    HW131830   9.683   3.885   8.708 -0.4859 -0.6974 -0.7591
 9941SOL    HW231831   9.815   3.810   8.716 -0.1358  0.0309  0.6696
 9942SOL     OW31832   2.423  10.656   8.741 -0.8825 -1.3397  0.4099
 9942SOL    HW131833   2.390  10.744   8.763  1.1334 -0.2729 -0.5520
 9942SOL    HW231834   2.394  10.641   8.651 -0.2776 -1.1514  0.1776
 9943SOL     OW31835   0.445   3.067  10.099 -0.2016 -1.3461  0.1962
 9943SOL    HW131836   0.396   3.064  10.181  1.3435 -1.0986  1.1704
 9943SOL    HW231837   0.506   2.993  10.105 -0.2457 -1.4961 -0.8724
 9944SOL     OW31838   9.398   2.300   7.405 -0.7171  0.2452  0.0066
 9944SOL    HW131839   9.468   2.289   7.340 -0.0182  0.4647  0.7036
 9944SOL    HW231840   9.391   2.214   7.447 -1.5731 -0.0673 -0.7304
 9945SOL     OW31841   5.933   2.100   9.599 -0.6789 -0.1719  0.8093
 9945SOL    HW131842   5.922   2.100   9.694 -2.1543 -1.2642  0.6779
 9945SOL    HW231843   5.890   2.019   9.570  1.4022 -0.8444 -0.6179
 9946SOL     OW31844  10.916   8.084   0.188 -0.1318 -0.1124 -0.1021
 9946SOL    HW131845  10.914   8.135   0.269 -2.0621  0.3929 -0.4358
 9946SOL    HW231846  10.825   8.075   0.162  0.2747 -2.2344 -1.0239
 9947SOL     OW31847   5.551   7.933   3.140  0.3174 -0.9130  0.0950
 9947SOL    HW131848   5.581   7.883   3.216  0.6073  1.5957  1.7360
 9947SOL    HW231849   5.631   7.960   3.096  0.2447 -0.2911  0.3359
 9948SOL     OW31850   0.359   4.394   2.886  0.1530 -0.1680 -0.0537
 9948SOL    HW131851   0.342   4.310   2.842  1.5988 -0.6328  0.2048
 9948SOL    HW231852   0.292   4.400   2.953 -1.3053 -0.0671 -1.4577
 9949SOL     OW31853   3.290   1.094   2.581 -0.2165  0.0462  0.2344
 9949SOL    HW131854   3.233   1.022   2.555  0.3065 -1.1732  2.2803
 9949SOL    HW231855   3.339   1.115   2.501 -1.4235 -0.8513 -0.7810
 9950SOL     OW31856   4.073   9.089   3.161  0.2638  0.2871  0.1731
 9950SOL    HW131857   4.156   9.088   3.114 -0.4522 -0.4657 -1.1261
 9950SOL    HW231858   4.012   9.042   3.104 -0.4350 -1.5158  2.2879
 9951SOL     OW31859   3.133   4.240   8.936  0.3884 -0.1296  0.3235
 9951SOL    HW131860   3.217   4.233   8.891  1.5178 -0.8605  2.4165
 9951SOL    HW231861   3.083   4.164   8.907  1.5857 -1.2905  1.2262
 9952SOL     OW31862   8.336  10.461   8.898 -0.0295 -0.2343  0.3288
 9952SOL    HW131863   8.285  10.462   8.979 -1.1216 -0.6922 -0.3309
 9952SOL    HW231864   8.338  10.552   8.870  0.5106 -0.0434  0.9459
 9953SOL     OW31865   6.666   5.972   6.355  0.0753 -0.2672  0.0409
 9953SOL    HW131866   6.587   5.980   6.408 -0.3416  2.0282 -0.8487
 9953SOL    HW231867   6.738   5.980   6.418 -0.3853 -0.9740  0.6724
 9954SOL     OW31868   6.158   8.610   7.242  0.1903  0.9033 -0.0493
 9954SOL    HW131869   6.193   8.618   7.153 -2.8979  0.6284 -1.4023
 9954SOL    HW231870   6.132   8.698   7.266 -1.3706  0.6088 -0.5404
 9955SOL     OW31871   7.086   3.651   5.037  0.1455  0.2430  0.6288
 9955SOL    HW131872   7.062   3.716   5.103 -0.3564  1.9784 -1.1605
 9955SOL    HW231873   7.163   3.687   4.993  2.8893 -2.6626  2.6038
 9956SOL     OW31874   5.889   0.342   4.964  0.2900  0.7015  0.1367
 9956SOL    HW131875   5.889   0.361   4.870 -0.6151  1.2287  0.2286
 9956SOL    HW231876   5.796   0.335   4.986  0.4941  0.7556  1.0323
 9957SOL     OW31877   2.059   4.395   9.813  0.2747 -0.0034 -0.6151
 9957SOL    HW131878   2.117   4.343   9.868  0.4302 -0.2860 -1.0378
 9957SOL    HW231879   2.114   4.465   9.779  0.2503  0.0018 -0.6439
 9958SOL     OW31880   9.559   3.569   8.580  0.2857  0.0518  0.0437
 9958SOL    HW131881   9.527   3.658   8.590 -0.0731  0.0305 -0.8511
 9958SOL    HW231882   9.651   3.574   8.606  0.3678  0.7619 -0.3591
 9959SOL     OW31883   6.038   1.808  10.884  1.0569 -1.1540 -0.0026
 9959SOL    HW131884   6.023   1.832  10.793  0.9051 -0.4436  0.2093
 9959SOL    HW231885   5.955   1.772  10.914 -0.0529  1.8511  0.8699
 9960SOL     OW31886   3.900   2.415   0.667  0.0719  0.6440 -0.1268
 9960SOL    HW131887   3.926   2.488   0.723  0.0364 -0.1481  0.9449
 9960SOL    HW231888   3.805   2.420   0.663 -0.0624 -0.2492  1.2554
 9961SOL     OW31889   4.110   0.122   2.936  0.3273  0.3838  0.5464
 9961SOL    HW131890   4.161   0.135   2.855 -0.9992 -1.0250 -0.5766
 9961SOL    HW231891   4.073   0.209   2.954 -0.1119  0.5317 -0.9105
 9962SOL     OW31892   0.981   1.095   3.504 -0.2165 -0.6199 -0.1308
 9962SOL    HW131893   0.915   1.162   3.521  0.2947  0.2642 -1.4416
 9962SOL    HW231894   1.059   1.125   3.550 -0.6233 -1.5156  1.1782
 9963SOL     OW31895   6.183   8.357   2.902 -0.2686  0.7952  0.0842
 9963SOL    HW131896   6.127   8.285   2.874 -0.1261  0.6029  0.2978
 9963SOL    HW231897   6.170   8.362   2.997  0.2475  0.6049  0.1650
 9964SOL     OW31898   0.678   2.743  11.154 -0.1029 -0.3977 -0.8285
 9964SOL    HW131899   0.771   2.744  11.177 -0.4314 -2.4156  0.9217
 9964SOL    HW231900   0.653   2.835  11.149  1.6084  0.1806  0.3106
 9965SOL     OW31901   5.059   2.877   2.253 -0.2703  0.5146  0.4794
 9965SOL    HW131902   5.027   2.816   2.321  2.2105  0.5058  1.7631
 9965SOL    HW231903   5.094   2.820   2.185 -0.3666  0.5134  0.4311
 9966SOL     OW31904   6.288   5.034   5.921  0.3482  0.8552 -0.3720
 9966SOL    HW131905   6.368   5.071   5.884  0.7723  1.1254  0.7669
 9966SOL    HW231906   6.287   5.065   6.011  0.2578 -1.1478  0.3797
 9967SOL     OW31907   1.752   6.567   1.453 -0.4311 -0.1686  0.2443
 9967SOL    HW131908   1.805   6.515   1.513 -1.0858  0.0227  1.0060
 9967SOL    HW231909   1.705   6.629   1.509 -0.2100  0.7730 -0.5816
 9968SOL     OW31910   7.899   3.988   9.188  0.0276 -0.4193 -0.5519
 9968SOL    HW131911   7.980   4.010   9.142  1.0768 -3.6220 -0.4631
 9968SOL    HW231912   7.833   3.981   9.120 -0.0774  1.5539 -0.7022
 9969SOL     OW31913   5.082   9.828   1.313 -0.2484  0.3995  0.0430
 9969SOL    HW131914   5.127   9.911   1.294  0.0046  0.5106  1.0572
 9969SOL    HW231915   5.060   9.834   1.406 -0.4677 -0.5608  0.0583
 9970SOL     OW31916   5.223  10.670   4.057  0.2664 -0.5581 -0.2576
 9970SOL    HW131917   5.179  10.585   4.061  1.1280 -1.0585 -1.0739
 9970SOL    HW231918   5.164  10.726   4.006 -1.4972  0.1210  2.3350
 9971SOL     OW31919   6.179   3.140   8.758  0.4565  0.1886  0.4713
 9971SOL    HW131920   6.154   3.157   8.849  1.8788 -2.0592  1.3534
 9971SOL    HW231921   6.160   3.047   8.745  1.3538  0.2065 -1.1724
 9972SOL     OW31922   7.967   0.463   8.666  0.1468  0.7737  0.2356
 9972SOL    HW131923   8.040   0.418   8.622  1.0267 -0.5264  2.8498
 9972SOL    HW231924   7.889   0.414   8.639  0.7105 -0.2519  0.4309
 9973SOL     OW31925   4.362   4.370   3.873  0.6727 -0.0435 -0.4253
 9973SOL    HW131926   4.293   4.327   3.923 -1.9502 -1.5930 -4.8338
 9973SOL    HW231927   4.436   4.309   3.875 -0.2893 -1.2495 -0.4250
 9974SOL     OW31928   8.000   8.214   1.745 -0.1106  1.0377 -0.1034
 9974SOL    HW131929   8.032   8.298   1.712  0.5051  0.7969 -0.1343
 9974SOL    HW231930   7.990   8.160   1.668  1.6590  0.3639  0.0870
 9975SOL     OW31931   0.311   7.283  10.058 -0.1298 -0.5537 -0.2564
 9975SOL    HW131932   0.401   7.260  10.082 -0.0647 -0.4954 -0.4476
 9975SOL    HW231933   0.273   7.201  10.025 -0.4284 -0.8019  0.6676
 9976SOL     OW31934  10.392   1.557  10.377 -0.3683  0.3521  0.7500
 9976SOL    HW131935  10.305   1.534  10.347 -0.7157 -1.5606  2.9297
 9976SOL    HW231936  10.448   1.550  10.300 -2.2859  3.1646 -1.0637
 9977SOL     OW31937   2.340   6.351   4.481  0.1885 -0.0400  0.3402
 9977SOL    HW131938   2.249   6.322   4.472 -0.1708  1.4375 -1.4423
 9977SOL    HW231939   2.334   6.435   4.526  0.7254 -0.1906  0.7035
 9978SOL     OW31940   3.574   0.899   2.632 -0.3950 -0.4784 -0.5328
 9978SOL    HW131941   3.654   0.849   2.615  0.1031  0.3952 -0.8200
 9978SOL    HW231942   3.557   0.888   2.725  0.4451 -0.1311 -0.3296
 9979SOL     OW31943   4.534  10.536   5.934  0.5420 -0.7609  0.4093
 9979SOL    HW131944   4.588  10.488   5.998  2.5791 -0.2385 -0.8179
 9979SOL    HW231945   4.451  10.489   5.932  0.9601 -1.6828  2.3096
 9980SOL     OW31946   2.892  10.215   8.006  0.5192 -0.4856  0.2233
 9980SOL    HW131947   2.880  10.310   8.009 -0.7719 -0.6513  1.6344
 9980SOL    HW231948   2.937  10.193   8.088  2.4174 -0.9399 -0.8847
 9981SOL     OW31949   6.446  11.265   0.301 -0.4754  0.5341  0.1971
 9981SOL    HW131950   6.388  11.215   0.243 -1.5536  0.3536  1.3823
 9981SOL    HW231951   6.424  11.357   0.282 -2.1954  0.4583  1.5969
 9982SOL     OW31952  11.275   3.186   2.948 -0.1477  0.0447  0.3580
 9982SOL    HW131953  11.270   3.153   2.859 -0.6251  2.1521 -0.4454
 9982SOL    HW231954  11.350   3.245   2.948 -3.4511  4.8027 -0.4880
 9983SOL     OW31955   5.865   6.621   9.666 -0.2330 -0.0302 -0.0516
 9983SOL    HW131956   5.899   6.600   9.579 -1.4480  1.1727 -0.8624
 9983SOL    HW231957   5.770   6.624   9.655 -0.3316  1.8250  0.8841
 9984SOL     OW31958   4.760  10.549   2.309 -0.1734 -0.2449 -0.0243
 9984SOL    HW131959   4.755  10.571   2.402  0.6707 -3.0156  0.7618
 9984SOL    HW231960   4.853  10.531   2.295 -0.0685  1.3786 -1.7802
 9985SOL     OW31961  10.337   9.056   4.530  0.1683  0.5140  0.0853
 9985SOL    HW131962  10.269   9.123   4.520 -0.2803 -0.0829 -1.2312
 9985SOL    HW231963  10.354   9.027   4.440 -0.1786 -1.6193  0.6554
 9986SOL     OW31964   6.078   3.499   0.350 -0.2583 -0.4469  0.2984
 9986SOL    HW131965   6.122   3.538   0.425 -2.0637 -1.0101  1.7163
 9986SOL    HW231966   6.119   3.540   0.274  0.5891  1.2477  1.6126
 9987SOL     OW31967   9.674   1.179   6.726 -0.4363 -0.2063  0.2990
 9987SOL    HW131968   9.585   1.151   6.706 -0.1974 -0.1932 -0.8253
 9987SOL    HW231969   9.692   1.142   6.812 -1.1546 -1.0805  0.0841
 9988SOL     OW31970   4.405   0.465   1.017 -0.4582 -1.0494 -0.2765
 9988SOL    HW131971   4.312   0.462   1.041  0.0084 -0.9080  1.7323
 9988SOL    HW231972   4.429   0.374   1.005 -0.8525 -1.0866 -0.8425
 9989SOL     OW31973  10.113   7.801   1.134 -1.1146 -0.8841  0.0595
 9989SOL    HW131974  10.206   7.779   1.137 -1.3434 -1.8398  0.3462
 9989SOL    HW231975  10.091   7.824   1.224 -0.3228  3.0717 -0.5746
 9990SOL     OW31976   2.257   0.671   6.217  0.2850 -0.5257  0.2545
 9990SOL    HW131977   2.207   0.692   6.296  0.4424 -1.1092  0.5139
 9990SOL    HW231978   2.278   0.756   6.179 -2.3085 -0.2559 -0.7714
 9991SOL     OW31979  10.330   3.077   2.548  0.1449 -0.4808 -0.4411
 9991SOL    HW131980  10.416   3.042   2.572 -0.5957 -1.0841  1.4790
 9991SOL    HW231981  10.350   3.147   2.486  2.1167  0.1528  0.8128
 9992SOL     OW31982   7.125   3.288   2.145  0.4333  0.6959  0.6445
 9992SOL    HW131983   7.058   3.242   2.196 -0.0924  1.0613  0.3003
 9992SOL    HW231984   7.113   3.254   2.056  1.3935  0.0040  0.7664
 9993SOL     OW31985   9.143   7.094   8.210  0.1995  0.2519  0.9644
 9993SOL    HW131986   9.070   7.153   8.221 -0.1311 -0.2732  1.6306
 9993SOL    HW231987   9.149   7.046   8.292 -1.2030 -2.4922 -0.3925
 9994SOL     OW31988  10.783   4.326   8.779  0.5327 -0.7264 -0.5847
 9994SOL    HW131989  10.748   4.238   8.790 -0.7027 -0.0606  1.0767
 9994SOL    HW231990  10.821   4.348   8.864 -1.3393  1.2223 -0.1621
 9995SOL     OW31991   2.665   1.731   3.359  0.0100 -0.0218 -0.2003
 9995SOL    HW131992   2.698   1.657   3.411  0.3241 -0.7662 -1.4134
 9995SOL    HW231993   2.665   1.805   3.420 -0.7221 -1.1037  1.1731
 9996SOL     OW31994   1.726   3.490   7.784 -0.1639 -0.0267  0.3261
 9996SOL    HW131995   1.637   3.525   7.781  0.5308  1.8342 -1.9160
 9996SOL    HW231996   1.720   3.406   7.739 -1.0127 -0.6164  1.4920
 9997SOL     OW31997   7.420   2.187   4.671 -0.5189  0.9169  0.0647
 9997SOL    HW131998   7.462   2.102   4.666 -0.9682  0.5544  1.6473
 9997SOL    HW231999   7.351   2.184   4.605 -0.4707  0.0893  0.0449
 9998SOL     OW32000  10.461   1.073   5.507  0.1053 -0.4286 -0.0893
 9998SOL    HW132001  10.402   1.100   5.578  0.6026 -1.7396  0.8602
 9998SOL    HW232002  10.404   1.032   5.443 -0.2980  0.3836 -0.2646
 9999SOL     OW32003   7.515   7.783   7.868 -0.0786 -0.0942  0.1646
 9999SOL    HW132004   7.486   7.813   7.782  0.7349  0.9105  0.2211
 9999SOL    HW232005   7.608   7.805   7.871 -0.4172  1.2689  1.8698
10000SOL     OW32006   6.860   7.670   3.655  0.5616  0.6712 -0.5778
10000SOL    HW132007   6.791   7.607   3.637  0.1654  1.0296 -0.3479
10000SOL    HW232008   6.816   7.741   3.702  1.1847  0.6762  0.0171
10001SOL     OW32009   5.184   7.707   7.371  0.0287  0.3675  0.3239
10001SOL    HW132010   5.121   7.672   7.309 -1.1256  1.1813  1.0150
10001SOL    HW232011   5.142   7.696   7.457  1.6915 -1.0062  1.0469
10002SOL     OW32012   5.533   9.503   8.842 -0.2902  0.3016 -0.4275
10002SOL    HW132013   5.481   9.576   8.875 -0.4019  0.7227 -1.4694
10002SOL    HW232014   5.614   9.505   8.893 -0.4995  0.8516 -0.1136
10003SOL     OW32015   3.559  11.163   7.975  0.1936 -0.2125 -0.5378
10003SOL    HW132016   3.639  11.214   7.986  0.1234 -0.1262 -0.4099
10003SOL    HW232017   3.587  11.072   7.976  0.1163 -0.2640  1.2891
10004SOL     OW32018   7.017   5.376   3.468  0.2060 -0.2508 -0.5212
10004SOL    HW132019   7.043   5.317   3.397 -1.3926  1.4586 -2.6724
10004SOL    HW232020   6.922   5.382   3.460  0.3207  3.1133 -0.9529
10005SOL     OW32021  10.127   7.108   3.634  0.0436 -0.0547  0.2710
10005SOL    HW132022  10.056   7.097   3.697 -2.4532  1.0331 -2.1256
10005SOL    HW232023  10.137   7.203   3.626  0.4091 -0.1731 -0.8146
10006SOL     OW32024   9.671   6.840   2.565 -0.9743 -0.3045  0.3419
10006SOL    HW132025   9.593   6.856   2.617 -0.1993  2.8511  0.7387
10006SOL    HW232026   9.732   6.797   2.624 -0.3679  2.5789  2.0290
10007SOL     OW32027   2.858   1.828   2.158 -0.3779  0.3706  0.3250
10007SOL    HW132028   2.821   1.784   2.082 -2.1348  0.7598  0.9177
10007SOL    HW232029   2.952   1.831   2.141 -0.5928 -0.7434 -1.1908
10008SOL     OW32030   2.541   3.823   4.206  0.2236  0.4607  0.1017
10008SOL    HW132031   2.572   3.913   4.198  1.4454 -0.0232 -0.9771
10008SOL    HW232032   2.576   3.779   4.128  0.4794 -1.1853  1.1108
10009SOL     OW32033   7.065   3.472   2.561  0.1540  0.1838 -0.2104
10009SOL    HW132034   7.089   3.385   2.593 -0.1799 -0.0777 -0.6614
10009SOL    HW232035   7.143   3.503   2.515  0.7301  0.6710  1.0546
10010SOL     OW32036   0.258  10.924   6.431  0.4971 -0.2960  0.0850
10010SOL    HW132037   0.233  10.944   6.340  2.2254  2.4273  0.0810
10010SOL    HW232038   0.187  10.962   6.484 -0.4435 -1.7649 -0.0742
10011SOL     OW32039   3.767   0.449   8.032  0.1154  0.7407  0.2456
10011SOL    HW132040   3.799   0.527   7.985 -0.8290 -0.0336 -1.7868
10011SOL    HW232041   3.841   0.389   8.032 -0.2226  0.2820 -1.3926
10012SOL     OW32042   8.773   6.876   7.506 -0.6373 -0.1234  0.3588
10012SOL    HW132043   8.678   6.860   7.503 -0.4506 -1.2635 -0.3085
10012SOL    HW232044   8.811   6.793   7.477  0.6061 -0.0463  1.6717
10013SOL     OW32045   4.234   7.221   7.302 -0.8802  0.3519  1.4075
10013SOL    HW132046   4.243   7.230   7.397 -2.0830 -1.1995  1.7082
10013SOL    HW232047   4.176   7.146   7.290 -0.0361 -0.0616 -0.5749
10014SOL     OW32048   5.828   9.666   4.153  0.6833 -0.1075  0.0934
10014SOL    HW132049   5.742   9.625   4.143 -0.2779  1.8499 -0.1187
10014SOL    HW232050   5.813   9.738   4.213  1.9745  0.8381 -0.6783
10015SOL     OW32051   6.526   8.868   1.063  0.4199 -0.0671  0.2391
10015SOL    HW132052   6.538   8.900   0.973 -1.0551  1.0941  0.4243
10015SOL    HW232053   6.468   8.793   1.053  0.6435 -0.2373  0.1902
10016SOL     OW32054   4.943   6.881   4.508 -0.2690 -0.1941  0.6024
10016SOL    HW132055   4.987   6.918   4.585 -0.4014  0.4374  0.3773
10016SOL    HW232056   4.971   6.937   4.436  0.4862 -1.2555  0.0493
10017SOL     OW32057   1.025   6.927   4.692  0.2118 -1.2592 -0.1666
10017SOL    HW132058   1.019   7.017   4.661 -0.5258 -1.1085  0.4041
10017SOL    HW232059   1.018   6.874   4.612 -1.9880 -0.8859 -0.2881
10018SOL     OW32060   6.794  10.668   1.996 -0.0524  0.1993  0.1106
10018SOL    HW132061   6.839  10.720   1.930  0.1730  0.4241  0.4411
10018SOL    HW232062   6.815  10.577   1.973 -0.0950  0.2704 -0.2116
10019SOL     OW32063   4.697   9.030   2.145  0.2962  0.5842 -0.0797
10019SOL    HW132064   4.778   9.050   2.097  0.6888  2.3317  1.2258
10019SOL    HW232065   4.708   9.074   2.229 -1.1230 -0.9509  0.9608
10020SOL     OW32066   5.319   6.318   3.174 -0.3845 -0.9147  0.5076
10020SOL    HW132067   5.345   6.255   3.106  1.6545 -2.0664  2.2434
10020SOL    HW232068   5.394   6.376   3.183 -0.0346 -1.6080  2.6483
10021SOL     OW32069   6.041   4.083   5.690 -0.6752  0.4595 -0.0981
10021SOL    HW132070   5.955   4.086   5.732 -0.2071 -0.4506  0.9710
10021SOL    HW232071   6.103   4.085   5.763  0.1714 -0.7203 -0.7541
10022SOL     OW32072   8.152   9.558   8.415 -0.3153 -0.2098 -0.0405
10022SOL    HW132073   8.127   9.646   8.442 -0.4442  0.8506 -3.1957
10022SOL    HW232074   8.077   9.503   8.441 -1.4505  1.1145 -0.4182
10023SOL     OW32075   8.568   6.070  10.961  0.0803 -0.4997  0.3953
10023SOL    HW132076   8.587   5.986  10.920 -0.2875  0.4977 -1.9965
10023SOL    HW232077   8.636   6.129  10.929  0.1637  0.2171  1.8011
10024SOL     OW32078   0.674   4.136   0.345  0.4530 -0.0516  0.2477
10024SOL    HW132079   0.593   4.180   0.320  2.0123  1.2848 -3.0742
10024SOL    HW232080   0.646   4.055   0.387 -2.5500  0.8812  0.2447
10025SOL     OW32081   0.189   8.437   1.741  0.2447 -0.4742 -0.1203
10025SOL    HW132082   0.257   8.391   1.692  1.6337 -1.5404  2.6148
10025SOL    HW232083   0.109   8.386   1.724  0.5983 -0.6237 -1.4644
10026SOL     OW32084   0.012   2.032   9.331 -0.5069  0.2474 -0.2057
10026SOL    HW132085   0.051   2.066   9.250  1.0169  1.5124  1.0108
10026SOL    HW232086   0.010   2.106   9.391  0.8896 -1.2130  1.8095
10027SOL     OW32087   8.532   0.698   8.733  0.0185  0.8308  0.1022
10027SOL    HW132088   8.485   0.713   8.651  0.9276  1.0005 -0.4018
10027SOL    HW232089   8.623   0.720   8.713  0.4125  0.0060  0.9076
10028SOL     OW32090  11.026   6.516   8.062  0.6223  0.3382  0.1579
10028SOL    HW132091  10.939   6.526   8.024  0.6805 -1.5724 -0.5714
10028SOL    HW232092  11.064   6.604   8.059 -1.0002  1.0587 -0.1600
10029SOL     OW32093   1.095   1.642   9.437  0.7088  0.9845  0.4101
10029SOL    HW132094   1.118   1.671   9.349  3.3862  0.8903  1.0059
10029SOL    HW232095   1.106   1.547   9.435 -1.0184  0.7518  0.3994
10030SOL     OW32096   2.436   2.489   3.730  0.1437  0.2874  0.2629
10030SOL    HW132097   2.391   2.411   3.697  0.6018 -0.1543  0.6727
10030SOL    HW232098   2.525   2.482   3.695 -0.7483  2.6262 -3.0176
10031SOL     OW32099   0.374   0.851   9.668  0.0398  0.2250 -0.2999
10031SOL    HW132100   0.416   0.767   9.649 -1.3241 -1.2299  2.4584
10031SOL    HW232101   0.330   0.875   9.586  0.4942 -1.7213 -1.1663
10032SOL     OW32102   6.342   8.635   7.465 -0.6588  0.2439 -0.6087
10032SOL    HW132103   6.283   8.661   7.536  0.8783  0.2099  0.7282
10032SOL    HW232104   6.283   8.599   7.398 -2.1714  0.3798  0.5760
10033SOL     OW32105   5.328  10.821   4.579 -0.2253  0.1358  0.1031
10033SOL    HW132106   5.269  10.896   4.578 -0.9081 -0.3851 -1.5986
10033SOL    HW232107   5.305  10.774   4.660  0.8800  2.1970  1.7271
10034SOL     OW32108   1.917   5.257   4.364  0.6517  0.0529  0.0686
10034SOL    HW132109   1.995   5.273   4.417 -0.1703  1.4721  0.9145
10034SOL    HW232110   1.902   5.339   4.317  1.8907 -1.4489 -3.1897
10035SOL     OW32111   3.795   0.423   5.239 -0.1772  0.1274 -0.3420
10035SOL    HW132112   3.812   0.486   5.169 -0.0164  0.6803  0.1842
10035SOL    HW232113   3.703   0.398   5.227  0.5115 -1.8658 -2.3932
10036SOL     OW32114   0.338   3.078   8.003  0.0992 -0.1364  0.0305
10036SOL    HW132115   0.344   3.171   8.022  0.5893  0.0557 -0.9831
10036SOL    HW232116   0.417   3.059   7.951  0.9648 -1.5015  1.7353
10037SOL     OW32117   7.145   5.827   9.496 -0.1841 -0.3891  0.1925
10037SOL    HW132118   7.208   5.787   9.556 -1.3056  0.3198  1.9136
10037SOL    HW232119   7.084   5.757   9.474  0.2431 -0.6571 -0.1438
10038SOL     OW32120   7.201   1.310  10.262  0.0814  0.0982  0.1848
10038SOL    HW132121   7.261   1.265  10.322  0.1658 -0.5326 -0.3635
10038SOL    HW232122   7.120   1.319  10.312  0.2847 -0.0405  0.5426
10039SOL     OW32123   6.424   2.007  10.298 -0.4778  0.1330  0.2312
10039SOL    HW132124   6.335   1.994  10.329 -0.0407 -0.5358  1.2646
10039SOL    HW232125   6.467   2.060  10.366  0.3851 -1.0318  0.6349
10040SOL     OW32126   6.855  10.868   4.508  0.0974 -0.1871 -0.7874
10040SOL    HW132127   6.819  10.954   4.490 -0.0978 -0.0544  0.2018
10040SOL    HW232128   6.810  10.839   4.587 -0.2833 -1.4608 -1.4397
10041SOL     OW32129   8.628   3.030   0.081 -0.4028  0.2170  0.4601
10041SOL    HW132130   8.707   3.058   0.126  0.2374 -0.0692 -0.4693
10041SOL    HW232131   8.616   2.939   0.107  0.8100 -0.4200 -1.0682
10042SOL     OW32132   8.514   3.453   9.372  0.9868  0.3002 -0.3815
10042SOL    HW132133   8.497   3.511   9.298  0.5406 -0.1740 -0.6560
10042SOL    HW232134   8.557   3.509   9.437 -2.1402  1.8092  0.6100
10043SOL     OW32135   0.770   0.860   4.155  0.2369 -0.0738 -0.7852
10043SOL    HW132136   0.720   0.941   4.141  2.5311  1.1570 -2.5211
10043SOL    HW232137   0.856   0.890   4.183  0.2281 -2.1101  1.7500
10044SOL     OW32138  10.060   7.074  10.896  0.4825 -0.2414 -0.1604
10044SOL    HW132139   9.967   7.058  10.911  0.3020  1.1394  0.3767
10044SOL    HW232140  10.080   7.029  10.814  0.1251 -3.2924  1.2872
10045SOL     OW32141  10.384   2.772   3.306  0.0460  0.6696 -0.2462
10045SOL    HW132142  10.346   2.764   3.394  0.5673  0.9194  0.0062
10045SOL    HW232143  10.466   2.722   3.312 -0.1602  0.2684 -0.7386
10046SOL     OW32144  10.450   0.136   9.807  0.7377  0.3441  0.5253
10046SOL    HW132145  10.389   0.087   9.862  1.2361 -0.5622  0.2908
10046SOL    HW232146  10.399   0.158   9.729  1.2570 -2.3376 -0.6785
10047SOL     OW32147   2.733   1.730  10.276 -0.1725  0.7057  0.8587
10047SOL    HW132148   2.659   1.789  10.265 -0.3127  0.4298  0.2738
10047SOL    HW232149   2.735   1.678  10.195 -0.5472 -0.6367  1.6754
10048SOL     OW32150  10.038   5.877   5.651 -0.2736 -0.6171 -0.0576
10048SOL    HW132151  10.006   5.955   5.606  2.5184  0.6565 -0.0684
10048SOL    HW232152   9.978   5.864   5.725 -1.2419  1.0536 -0.5155
10049SOL     OW32153   2.846   2.156   9.588 -0.1824 -0.1522 -0.2948
10049SOL    HW132154   2.788   2.230   9.567 -0.1504 -0.4560 -1.5337
10049SOL    HW232155   2.788   2.080   9.587  0.2277 -0.4764 -1.6879
10050SOL     OW32156   0.362  10.780   2.807 -0.4478  0.1865  0.2345
10050SOL    HW132157   0.367  10.831   2.726 -0.6722 -1.3987 -0.8156
10050SOL    HW232158   0.449  10.742   2.817 -0.6314 -0.2065  0.3489
10051SOL     OW32159   8.889   3.763   5.236  0.4761 -0.3734 -0.2458
10051SOL    HW132160   8.877   3.847   5.280 -1.6246 -1.3665  1.2265
10051SOL    HW232161   8.959   3.779   5.172 -0.0353  2.5236 -0.1892
10052SOL     OW32162   4.992   9.517   2.159  0.3237 -0.0804  0.3203
10052SOL    HW132163   5.047   9.440   2.147 -0.3537 -0.5972  0.4469
10052SOL    HW232164   5.026   9.558   2.239  2.2770  1.1619 -1.0681
10053SOL     OW32165   7.869  10.807   3.100  0.1377 -0.6161 -0.0552
10053SOL    HW132166   7.882  10.882   3.160  1.0718 -0.5361 -0.3400
10053SOL    HW232167   7.815  10.843   3.029  1.9592  0.3008 -1.0609
10054SOL     OW32168   7.293   3.262   2.375 -0.2673 -0.2253 -0.2682
10054SOL    HW132169   7.237   3.305   2.310 -1.4973 -2.0204 -0.4650
10054SOL    HW232170   7.234   3.238   2.446  0.5757 -0.6850  0.2970
10055SOL     OW32171   7.473   5.101   5.276  0.0532  0.0961 -0.4569
10055SOL    HW132172   7.421   5.032   5.317 -0.4129  0.5011 -0.3511
10055SOL    HW232173   7.475   5.077   5.183  0.6959 -0.5595 -0.2837
10056SOL     OW32174   9.053   0.981   5.959  1.0032 -0.3619  0.2810
10056SOL    HW132175   9.046   1.064   5.912 -0.4345 -0.6898 -0.1270
10056SOL    HW232176   8.964   0.947   5.961  1.7203 -2.4070 -0.4705
10057SOL     OW32177   4.795   3.302   8.023  0.1429  0.1278  0.6566
10057SOL    HW132178   4.843   3.360   7.963  3.2174  0.8552  3.4642
10057SOL    HW232179   4.847   3.222   8.025 -0.6777 -0.4044  1.3241
10058SOL     OW32180   8.590   1.733   6.358 -0.3798 -0.8958 -0.2326
10058SOL    HW132181   8.635   1.812   6.328  2.5235 -1.1066  2.9909
10058SOL    HW232182   8.497   1.752   6.344  0.3398  1.7885 -2.3644
10059SOL     OW32183  11.188   7.961   5.132 -0.0991 -0.2241  0.3690
10059SOL    HW132184  11.141   7.998   5.058 -0.2322 -0.9653  0.0845
10059SOL    HW232185  11.221   8.038   5.180 -0.7378  0.2701  0.0224
10060SOL     OW32186   9.991   1.403   1.710  0.0928 -0.3930  0.7216
10060SOL    HW132187  10.036   1.405   1.626 -1.5084  0.6002 -0.1573
10060SOL    HW232188  10.045   1.459   1.767 -0.9621  2.5103 -0.8856
10061SOL     OW32189   2.309   9.817   7.973 -0.1230  0.1103  0.0988
10061SOL    HW132190   2.250   9.752   8.013 -1.9477  2.0064  0.6429
10061SOL    HW232191   2.386   9.817   8.030 -1.6624  1.0187  2.3267
10062SOL     OW32192   8.076   2.572   9.209  0.7919  0.3780  0.4264
10062SOL    HW132193   8.105   2.497   9.157  3.7895  0.0652  2.2963
10062SOL    HW232194   7.981   2.571   9.201  0.9780 -0.9823 -3.0765
10063SOL     OW32195   8.547   1.657   7.913 -0.7441 -0.6336  0.1531
10063SOL    HW132196   8.491   1.734   7.899 -0.7320 -0.6586 -0.0431
10063SOL    HW232197   8.558   1.620   7.825 -0.8122 -0.9026  0.2577
10064SOL     OW32198   0.301   2.887   4.100 -0.0071 -0.1153  0.2841
10064SOL    HW132199   0.308   2.803   4.147 -1.1878 -0.3035  0.1502
10064SOL    HW232200   0.209   2.909   4.105  0.3082  1.2427  0.4010
10065SOL     OW32201   3.373  10.337   7.998 -0.1187 -0.2146  0.2804
10065SOL    HW132202   3.421  10.395   8.058  0.9265  0.1863 -0.9028
10065SOL    HW232203   3.306  10.394   7.959 -0.7840 -0.4695  1.0260
10066SOL     OW32204  11.274   9.054   8.852  0.0534 -0.3780 -0.5919
10066SOL    HW132205  11.202   9.001   8.886  0.9033 -0.7576  0.7180
10066SOL    HW232206  11.306   9.102   8.927  1.9541 -1.1741 -0.8292
10067SOL     OW32207   1.444   6.596  11.031 -0.0319 -0.1001 -0.1388
10067SOL    HW132208   1.381   6.624  11.098  0.4587 -0.2872  0.4085
10067SOL    HW232209   1.519   6.655  11.042 -0.1785  0.2465 -0.9155
10068SOL     OW32210   9.814   7.761   2.267 -0.4705  0.5267  0.1834
10068SOL    HW132211   9.850   7.806   2.191  0.0087 -1.2990 -0.7225
10068SOL    HW232212   9.726   7.798   2.278 -0.1262  1.5999 -0.5521
10069SOL     OW32213  10.251   5.889   7.874  0.7226 -0.5876  0.7459
10069SOL    HW132214  10.260   5.984   7.884 -0.4084 -0.3788 -0.0770
10069SOL    HW232215  10.299   5.869   7.794  0.5700 -0.6349  0.6652
10070SOL     OW32216   2.941   3.811   2.168  0.2502  0.4119  0.7498
10070SOL    HW132217   2.882   3.880   2.199 -1.8081 -0.6359 -0.5941
10070SOL    HW232218   2.884   3.737   2.151  2.1049 -0.9408  0.1086
10071SOL     OW32219   4.838   1.682   9.854 -0.5800  0.1994 -0.3104
10071SOL    HW132220   4.863   1.718   9.939 -1.2867  0.2173 -0.1036
10071SOL    HW232221   4.849   1.587   9.865  1.1526  0.3001 -0.8142
10072SOL     OW32222   8.317   0.008   4.537  0.2857 -0.3122  0.5478
10072SOL    HW132223   8.394   0.006   4.595  2.8039 -0.1169 -2.5429
10072SOL    HW232224   8.335  -0.057   4.470 -1.6991  0.5869 -0.9739
10073SOL     OW32225   2.858   6.445   8.878  0.9158 -0.7538 -0.3015
10073SOL    HW132226   2.922   6.439   8.949 -0.5913 -1.8701  1.0213
10073SOL    HW232227   2.796   6.512   8.906  1.3032  0.1234 -1.4459
10074SOL     OW32228   1.197   2.953   8.368 -0.5489  0.7923 -0.0057
10074SOL    HW132229   1.125   2.924   8.313 -0.3557  0.1874  0.0527
10074SOL    HW232230   1.276   2.928   8.319 -0.3603  2.4926 -0.6184
10075SOL     OW32231  10.260   4.567   4.552 -0.6052  0.0570  0.0852
10075SOL    HW132232  10.301   4.653   4.563  0.8855 -0.5914 -0.1251
10075SOL    HW232233  10.329   4.505   4.576 -2.1935 -1.0759  1.9569
10076SOL     OW32234   0.035   2.833  10.139  0.5765  0.0746  0.5094
10076SOL    HW132235   0.115   2.813  10.187  0.8290 -0.1996 -0.0090
10076SOL    HW232236   0.050   2.922  10.104  1.7130 -0.8722 -1.6209
10077SOL     OW32237   6.496   9.197   4.921  0.1134  0.3750 -0.3104
10077SOL    HW132238   6.570   9.256   4.936 -0.7307  0.9979  1.7761
10077SOL    HW232239   6.535   9.110   4.916  0.9378  0.5496  1.9671
10078SOL     OW32240   6.451   5.932   2.879 -0.1945  0.1053  0.4558
10078SOL    HW132241   6.438   5.850   2.927 -0.9134 -0.1990 -0.2363
10078SOL    HW232242   6.414   5.916   2.792  1.0095  0.6638 -0.2044
10079SOL     OW32243  10.699   4.519  10.902  0.2846  0.1645 -0.0247
10079SOL    HW132244  10.756   4.478  10.836 -1.7427  0.1916 -1.9382
10079SOL    HW232245  10.708   4.613  10.887 -1.6946  0.1581 -1.8022
10080SOL     OW32246   9.496   6.097   6.102 -0.0291 -0.9360  0.3280
10080SOL    HW132247   9.543   6.083   6.184  1.4360 -1.0025 -0.4772
10080SOL    HW232248   9.560   6.140   6.045 -1.7522  1.4559 -0.0078
10081SOL     OW32249   5.761   3.279   4.205  0.0303 -0.0484  0.4501
10081SOL    HW132250   5.731   3.259   4.117  2.0445 -0.4732 -0.1791
10081SOL    HW232251   5.750   3.374   4.214 -1.3831 -0.1729  0.2491
10082SOL     OW32252   6.219  10.100   4.895 -0.0932 -0.0561 -0.3872
10082SOL    HW132253   6.271  10.170   4.854  0.2017  0.8102  1.3739
10082SOL    HW232254   6.243  10.104   4.988 -0.9721 -1.7365 -0.0610
10083SOL     OW32255   9.895   4.816   6.856  0.3723  0.1574 -0.0236
10083SOL    HW132256   9.912   4.819   6.762 -1.6354 -0.9635 -0.4806
10083SOL    HW232257   9.927   4.730   6.884 -2.9179 -1.4687 -0.6680
10084SOL     OW32258   0.761  11.028   7.694  0.1911  0.0721  0.2568
10084SOL    HW132259   0.841  10.999   7.737  0.2137 -2.9022 -1.4765
10084SOL    HW232260   0.790  11.064   7.610 -0.2224 -0.5956 -0.1826
10085SOL     OW32261   5.120   5.589   3.978  0.1475  0.3682 -0.1436
10085SOL    HW132262   5.137   5.624   4.066 -1.0028 -2.5205  1.3875
10085SOL    HW232263   5.040   5.634   3.950  0.4766  1.2631  0.2991
10086SOL     OW32264   6.432   8.306   4.726 -0.6563 -0.1759 -0.2187
10086SOL    HW132265   6.421   8.226   4.779 -0.1941  0.2429  0.5291
10086SOL    HW232266   6.439   8.376   4.790 -3.3101  0.8044 -0.8834
10087SOL     OW32267   9.462   1.942  10.538 -0.5827 -0.2811 -0.4748
10087SOL    HW132268   9.550   1.969  10.565 -1.4208  1.1911  1.0392
10087SOL    HW232269   9.432   2.012  10.480 -1.0839 -0.2939 -0.2380
10088SOL     OW32270   7.606   2.824   6.278  0.3432  0.1672 -0.0489
10088SOL    HW132271   7.618   2.909   6.320  2.1409 -0.0608  0.0160
10088SOL    HW232272   7.556   2.772   6.341  1.1888  0.4839  0.9116
10089SOL     OW32273   8.751   6.173   7.302  0.2421 -0.3524  0.5985
10089SOL    HW132274   8.808   6.225   7.359 -1.5738  0.0594  2.1265
10089SOL    HW232275   8.673   6.155   7.355 -2.3352  1.5016 -2.2176
10090SOL     OW32276   6.615   5.436  10.337 -0.0199 -0.4183 -0.3242
10090SOL    HW132277   6.651   5.403  10.420  0.0136  0.5852  0.0754
10090SOL    HW232278   6.691   5.467  10.288 -0.2887  2.2439  0.7618
10091SOL     OW32279   7.859   4.092   6.815 -0.0729 -0.3030 -0.0585
10091SOL    HW132280   7.896   4.103   6.902 -0.0797  0.7298 -0.1757
10091SOL    HW232281   7.850   4.181   6.781  0.6398 -0.7160 -1.4190
10092SOL     OW32282   8.373   8.087   2.455 -0.0368 -0.0847  0.2832
10092SOL    HW132283   8.321   8.038   2.391 -0.6194  2.5414 -1.4036
10092SOL    HW232284   8.463   8.073   2.428 -0.2110  0.0704 -0.3958
10093SOL     OW32285   2.258  10.705   6.282  0.9333  0.1177  0.0249
10093SOL    HW132286   2.280  10.702   6.375 -0.8284  1.5568  0.5340
10093SOL    HW232287   2.222  10.792   6.268 -1.0950 -0.8622 -1.4604
10094SOL     OW32288   9.315   7.303   0.937 -0.2892  0.4570  0.3177
10094SOL    HW132289   9.307   7.378   0.877  0.4723  0.5690  0.3375
10094SOL    HW232290   9.227   7.288   0.970 -0.8151  0.1289 -1.1633
10095SOL     OW32291   9.164   5.509   1.564  0.0227  0.3131 -0.2849
10095SOL    HW132292   9.200   5.423   1.544 -0.8231 -0.4866  1.3792
10095SOL    HW232293   9.193   5.527   1.653 -0.9583  1.1047 -0.0987
10096SOL     OW32294   7.686   6.633   2.342 -0.2656 -0.2919  0.3181
10096SOL    HW132295   7.615   6.697   2.337 -0.6280 -0.6855  0.3925
10096SOL    HW232296   7.674   6.591   2.427 -0.2133 -0.6711  0.1371
10097SOL     OW32297   7.367   4.778   9.407  0.0302  0.3108 -0.3659
10097SOL    HW132298   7.449   4.747   9.368 -0.1585  0.3085 -0.7666
10097SOL    HW232299   7.305   4.779   9.334 -0.1313  1.0256 -0.2241
10098SOL     OW32300   3.264   2.168  10.884 -0.8279  0.4173 -0.0358
10098SOL    HW132301   3.210   2.164  10.963  1.8263  1.4176  1.9758
10098SOL    HW232302   3.323   2.242  10.899 -0.6274  1.0796 -3.3019
10099SOL     OW32303   3.109  10.271  11.187 -0.3044  0.3423  0.9544
10099SOL    HW132304   3.062  10.354  11.183 -1.0168 -0.0066  1.9523
10099SOL    HW232305   3.072  10.219  11.115  0.6377  1.1160 -0.1291
10100SOL     OW32306  10.320  10.367   0.920 -0.7789 -0.1882  0.5029
10100SOL    HW132307  10.362  10.400   0.999 -1.6642  1.6809  0.2433
10100SOL    HW232308  10.258  10.435   0.896 -1.6450 -1.4237 -0.9384
10101SOL     OW32309   6.889   4.471   1.679  0.0882  0.5473 -0.4645
10101SOL    HW132310   6.809   4.479   1.732  0.2802  0.3544 -0.1398
10101SOL    HW232311   6.859   4.432   1.597  0.1139 -1.3564  0.3783
10102SOL     OW32312   6.180  10.140   8.203 -0.3891 -0.5090  0.7275
10102SOL    HW132313   6.273  10.161   8.207 -0.2779 -0.9519  0.5412
10102SOL    HW232314   6.174  10.069   8.139 -0.9575  0.0638  0.1350
10103SOL     OW32315  10.332   9.406   1.910 -0.0951  0.3995  0.1617
10103SOL    HW132316  10.308   9.491   1.874  2.0001  0.4819 -1.1910
10103SOL    HW232317  10.306   9.343   1.843  0.9086  0.2571 -0.1119
10104SOL     OW32318   4.101   0.024   8.762  0.2577  0.9283  0.4847
10104SOL    HW132319   4.093   0.104   8.709  0.1345  0.2290 -0.5861
10104SOL    HW232320   4.120  -0.045   8.698 -0.8145 -0.1076  1.2451
10105SOL     OW32321  10.977   0.549   1.271 -0.2925  1.1014 -1.0366
10105SOL    HW132322  11.014   0.500   1.197 -1.9052  1.9887 -2.5088
10105SOL    HW232323  10.971   0.484   1.341 -0.3480 -0.2648 -2.2358
10106SOL     OW32324   5.008   6.507   4.056 -0.7022  0.3646 -0.0722
10106SOL    HW132325   4.953   6.462   4.120  2.0385 -0.9773  1.5324
10106SOL    HW232326   5.034   6.589   4.099  0.6570 -0.2600  0.3532
10107SOL     OW32327   3.719   0.292   4.692 -0.5252  0.1806  0.4344
10107SOL    HW132328   3.701   0.337   4.609 -2.0050 -0.3941  0.4079
10107SOL    HW232329   3.768   0.214   4.666  0.5593  0.8770  0.3084
10108SOL     OW32330  10.226  10.926   8.772  0.5745  0.4152 -0.4155
10108SOL    HW132331  10.281  10.852   8.798  0.9109  1.3328  1.6433
10108SOL    HW232332  10.137  10.898   8.794  0.6759  0.5363  0.1559
10109SOL     OW32333   6.254   3.629   1.523  0.3270  0.2312  0.1775
10109SOL    HW132334   6.311   3.572   1.472 -0.4605 -2.1625  1.7982
10109SOL    HW232335   6.172   3.630   1.474  0.6776  0.9677 -0.4314
10110SOL     OW32336   0.706   8.892  10.032 -0.4894  0.1702 -0.4418
10110SOL    HW132337   0.741   8.806  10.056 -1.0047  0.3473  1.0149
10110SOL    HW232338   0.774   8.954  10.057 -0.1031  0.2002 -1.5265
10111SOL     OW32339   8.848   4.609   3.065  0.0175 -0.1480  0.1211
10111SOL    HW132340   8.831   4.628   2.973 -0.0469  0.6447  0.2913
10111SOL    HW232341   8.792   4.534   3.085  2.0405 -2.1405 -1.1995
10112SOL     OW32342   3.258  11.249   5.513 -0.2023  0.1723  0.2627
10112SOL    HW132343   3.201  11.184   5.471  0.4136  0.6997 -1.4833
10112SOL    HW232344   3.277  11.212   5.600  1.1049 -2.6210 -1.0633
10113SOL     OW32345   9.448   4.779   0.341  0.0712 -0.2246 -0.7343
10113SOL    HW132346   9.379   4.827   0.295  0.2662  0.4026 -0.3852
10113SOL    HW232347   9.436   4.801   0.433 -1.9679 -3.5389 -0.0363
10114SOL     OW32348   8.524   8.908   2.656 -0.0608 -0.2996  0.3527
10114SOL    HW132349   8.496   8.928   2.745  1.8386 -1.4929  1.2772
10114SOL    HW232350   8.549   8.993   2.619  0.1014  0.0685  1.3049
10115SOL     OW32351  10.633   1.153   5.729  0.2760  0.2680 -0.4785
10115SOL    HW132352  10.686   1.073   5.727  1.7707  1.1912  0.0585
10115SOL    HW232353  10.588   1.154   5.645 -0.0894 -1.3160 -0.3435
10116SOL     OW32354   1.631   8.218   3.392  0.0509  0.0989  0.2949
10116SOL    HW132355   1.706   8.271   3.418 -1.8674  2.2669  1.7355
10116SOL    HW232356   1.667   8.156   3.328  3.1195  0.7217  1.2513
10117SOL     OW32357   3.241   3.366   9.731  0.2662 -0.3033 -0.3325
10117SOL    HW132358   3.325   3.330   9.758  0.3010  0.0174 -0.0097
10117SOL    HW232359   3.263   3.426   9.660  0.2694 -0.4689 -0.4749
10118SOL     OW32360   9.629   7.351   1.803 -0.7273  0.2365 -0.7250
10118SOL    HW132361   9.722   7.368   1.820 -0.3695 -2.8035  0.9889
10118SOL    HW232362   9.608   7.276   1.859 -4.3434  1.0619 -0.7821
10119SOL     OW32363   6.564   1.257   1.012 -0.2049 -0.8755  0.4009
10119SOL    HW132364   6.582   1.189   0.947  3.3634  1.7153 -1.6910
10119SOL    HW232365   6.505   1.318   0.966  0.1892 -0.3644  0.5671
10120SOL     OW32366   9.664   9.656   9.024 -0.6134  0.0531  0.0415
10120SOL    HW132367   9.623   9.736   8.991 -0.6233  0.2392  0.4974
10120SOL    HW232368   9.610   9.631   9.099  0.2439  0.4428  0.8037
10121SOL     OW32369   4.975   5.586   9.632  0.1021 -0.0387 -0.7044
10121SOL    HW132370   4.884   5.558   9.629  0.1422 -0.5395  1.3066
10121SOL    HW232371   5.015   5.544   9.556 -0.7980 -2.0101 -0.1667
10122SOL     OW32372   0.281   9.737  10.207  0.1187 -0.1513  0.1192
10122SOL    HW132373   0.205   9.678  10.212  1.2622 -1.5852  2.1946
10122SOL    HW232374   0.250   9.811  10.156 -2.2089 -1.3751 -0.3978
10123SOL     OW32375   5.706   0.496  10.821  0.4762 -0.6397 -0.1833
10123SOL    HW132376   5.757   0.570  10.852 -0.5090 -0.2272  0.4810
10123SOL    HW232377   5.633   0.535  10.774  1.0892 -1.2312 -1.7053
10124SOL     OW32378   8.743   8.503   9.851 -0.7001  0.4170  0.3550
10124SOL    HW132379   8.727   8.531   9.941 -2.5856  2.3064 -0.4836
10124SOL    HW232380   8.799   8.572   9.814 -1.1282  0.4160 -0.3092
10125SOL     OW32381   8.004  10.371  10.670  0.1779  0.0004  0.3822
10125SOL    HW132382   7.975  10.455  10.636  0.2546  0.0867  0.5279
10125SOL    HW232383   7.924  10.322  10.688  0.1409 -0.4752 -0.9774
10126SOL     OW32384   4.565   8.330   4.524  0.1722 -0.1671 -0.2658
10126SOL    HW132385   4.557   8.420   4.554 -1.1395 -0.0682 -0.8167
10126SOL    HW232386   4.485   8.287   4.555  1.5256 -1.6206  1.4503
10127SOL     OW32387   2.030   6.582   5.797  0.3875  0.1136 -0.7895
10127SOL    HW132388   1.958   6.620   5.745 -0.0059  0.2177 -0.1833
10127SOL    HW232389   2.102   6.644   5.786 -0.1634  0.9119 -0.0335
10128SOL     OW32390   7.020  10.098   6.980  0.2488 -0.0395  0.0955
10128SOL    HW132391   7.020  10.194   6.980  1.1271  0.0042 -1.8946
10128SOL    HW232392   7.070  10.075   7.058  1.7268  1.1889 -0.4265
10129SOL     OW32393   0.617  10.934   9.275  0.1568 -0.1846  0.1505
10129SOL    HW132394   0.607  10.896   9.362  0.5267 -0.6339  0.0034
10129SOL    HW232395   0.592  10.863   9.215  0.4462 -0.0669 -0.1161
10130SOL     OW32396   1.421   3.747  10.503  0.4151  0.7083 -0.2395
10130SOL    HW132397   1.335   3.787  10.487  1.0004  1.2871 -2.2303
10130SOL    HW232398   1.430   3.746  10.599 -2.0208  0.1112  0.0472
10131SOL     OW32399  11.043   4.595   1.575  0.3082 -0.3517  0.3439
10131SOL    HW132400  11.069   4.684   1.600  0.4497 -0.2776 -0.0683
10131SOL    HW232401  10.948   4.596   1.579  0.1846  0.4215 -1.6588
10132SOL     OW32402   2.700   2.246   8.020 -0.2350  0.3640 -0.0500
10132SOL    HW132403   2.637   2.298   7.970 -1.4536 -1.0574 -0.0489
10132SOL    HW232404   2.782   2.256   7.971 -0.9158  0.6655 -1.1883
10133SOL     OW32405   7.338   1.897  10.989 -0.8851 -0.5826 -0.1585
10133SOL    HW132406   7.285   1.817  10.998 -0.0227 -1.2880 -1.2120
10133SOL    HW232407   7.394   1.896  11.067  0.8857 -2.3844 -1.3574
10134SOL     OW32408   5.580   7.771   3.372 -0.6971  0.1410  0.4220
10134SOL    HW132409   5.584   7.676   3.383  0.9512 -0.1575 -1.9899
10134SOL    HW232410   5.609   7.806   3.457 -1.5501 -1.4580  1.4230
10135SOL     OW32411   9.498   8.802  10.920  0.1297 -0.3195  0.0851
10135SOL    HW132412   9.499   8.857  10.999 -3.4066 -0.2513  0.2766
10135SOL    HW232413   9.477   8.715  10.953 -0.9687 -0.3702 -0.7145
10136SOL     OW32414  11.097   3.801   3.012  0.7190 -0.1467  0.0730
10136SOL    HW132415  11.024   3.741   2.994  0.9952 -0.8386  1.1500
10136SOL    HW232416  11.067   3.886   2.980 -0.5363 -0.4293  0.4314
10137SOL     OW32417   0.663   0.129   0.025 -0.0333 -0.3508 -0.1570
10137SOL    HW132418   0.568   0.124   0.010 -0.4299 -1.4304  2.3478
10137SOL    HW232419   0.690   0.210  -0.020 -2.4776  1.0365  0.6952
10138SOL     OW32420   4.977   4.682   7.664  0.5463  0.4924  0.6170
10138SOL    HW132421   5.001   4.691   7.572  0.6113 -0.8267  0.4939
10138SOL    HW232422   4.882   4.695   7.666  0.4512 -0.1023  0.2613
10139SOL     OW32423   5.808   0.720   5.154  0.3267  0.3583 -0.7264
10139SOL    HW132424   5.894   0.687   5.131 -0.1083 -0.2678 -1.4809
10139SOL    HW232425   5.812   0.814   5.136  0.2071  0.0064 -2.7826
10140SOL     OW32426   9.415   3.552  10.138  0.2987  0.3603  0.5211
10140SOL    HW132427   9.450   3.594  10.060  0.7615  0.1817  0.6263
10140SOL    HW232428   9.397   3.624  10.198 -1.2011  0.6027 -0.1843
10141SOL     OW32429   5.740   8.534  10.075 -0.1688 -0.0734 -0.6187
10141SOL    HW132430   5.725   8.526  10.170  1.3280 -0.0325 -0.3555
10141SOL    HW232431   5.653   8.554  10.039 -0.5980  0.9106  0.8468
10142SOL     OW32432   6.402   8.275  10.013  0.1419 -0.5745 -0.0995
10142SOL    HW132433   6.460   8.201   9.996  0.1058 -0.7122  0.3603
10142SOL    HW232434   6.314   8.239  10.002  0.1285 -0.5524 -0.0647
10143SOL     OW32435   9.232  10.548   6.498 -0.4412 -0.3091 -0.0662
10143SOL    HW132436   9.151  10.578   6.540  0.5474  2.0450  0.3242
10143SOL    HW232437   9.270  10.486   6.560 -1.4956 -0.7903  0.1240
10144SOL     OW32438   8.429   5.428  10.359  0.4935 -0.5775 -0.6630
10144SOL    HW132439   8.426   5.462  10.269 -3.6462 -0.4838 -0.6615
10144SOL    HW232440   8.440   5.334  10.349 -0.4439 -0.6251 -1.3171
10145SOL     OW32441  11.260   9.348   3.114 -0.2795  0.1912 -0.0301
10145SOL    HW132442  11.282   9.404   3.188  0.3447 -0.0308 -0.0419
10145SOL    HW232443  11.170   9.320   3.130  0.3014 -0.9979  1.3866
10146SOL     OW32444   1.538   0.458   5.196  0.0972  0.1261  0.5712
10146SOL    HW132445   1.475   0.476   5.266 -0.1573 -2.0941  0.9622
10146SOL    HW232446   1.623   0.481   5.235 -0.0170 -1.3187  1.7357
10147SOL     OW32447   0.506   9.851   1.534 -0.5351 -0.0407 -0.3590
10147SOL    HW132448   0.528   9.895   1.616  2.2316  0.2817 -1.1667
10147SOL    HW232449   0.430   9.899   1.501 -1.1207  0.4169  1.5284
10148SOL     OW32450   5.450   4.250   9.575 -0.2716 -0.7688 -0.3038
10148SOL    HW132451   5.540   4.280   9.569 -0.6798  0.2773 -1.4718
10148SOL    HW232452   5.447   4.170   9.523 -0.7614  1.0735 -3.2947
10149SOL     OW32453   5.300   2.478   8.760 -0.0192  0.3361  0.7241
10149SOL    HW132454   5.235   2.504   8.694 -0.6941 -1.1134  0.7881
10149SOL    HW232455   5.307   2.554   8.818  0.2712  1.4855 -0.7456
10150SOL     OW32456   1.025   3.054   7.425  0.2217 -0.0367 -0.0688
10150SOL    HW132457   1.112   3.015   7.424  0.0035 -0.6422  1.4613
10150SOL    HW232458   1.036   3.135   7.476 -0.2449 -0.4901  0.7652
10151SOL     OW32459  10.854   9.442   1.949  0.8364 -0.8021 -0.3331
10151SOL    HW132460  10.813   9.445   2.036  2.1925  2.1320  0.3283
10151SOL    HW232461  10.781   9.426   1.889 -0.5936 -0.1198  1.1423
10152SOL     OW32462   1.607   6.305   5.321  0.4655  0.0232 -0.0789
10152SOL    HW132463   1.590   6.398   5.309 -0.7582 -0.4661 -3.3289
10152SOL    HW232464   1.698   6.293   5.293  0.0852  0.0763 -1.4455
10153SOL     OW32465   7.961   2.021   0.091 -0.0248 -0.0820 -0.3202
10153SOL    HW132466   8.021   1.982   0.155 -2.5340 -1.5590  1.3368
10153SOL    HW232467   7.972   1.967   0.012  1.4318  0.2882 -0.4094
10154SOL     OW32468   2.630   3.060   1.936  0.0654 -0.0934  0.2396
10154SOL    HW132469   2.538   3.065   1.961  0.0102 -0.7355  0.1801
10154SOL    HW232470   2.672   3.015   2.009  0.4801  0.8926  0.6276
10155SOL     OW32471   8.677   8.236   9.911  0.2132 -0.7311  0.3658
10155SOL    HW132472   8.676   8.157   9.857  1.7584 -0.3369 -0.2875
10155SOL    HW232473   8.707   8.306   9.852 -1.2559  0.4048  0.8915
10156SOL     OW32474   8.387   3.664   4.219  0.3756  0.0775  0.2388
10156SOL    HW132475   8.326   3.642   4.289 -1.6046 -1.0559 -1.6962
10156SOL    HW232476   8.346   3.738   4.174  1.3208  0.4201 -0.0835
10157SOL     OW32477   4.642   3.021   3.346 -0.2501 -0.0727  0.5605
10157SOL    HW132478   4.618   3.004   3.437  1.2091  1.0599  1.1821
10157SOL    HW232479   4.562   3.059   3.307 -1.2504 -1.6219  1.0150
10158SOL     OW32480   6.377  11.020   7.818 -0.5347  0.0554  0.2381
10158SOL    HW132481   6.387  10.982   7.906 -1.0697 -0.7882 -0.0563
10158SOL    HW232482   6.458  10.997   7.773 -1.4338 -2.0703 -0.4114
10159SOL     OW32483  10.930  10.606   3.030 -0.4128 -0.3609  0.4067
10159SOL    HW132484  10.977  10.523   3.026 -1.1709 -0.8166  0.7298
10159SOL    HW232485  10.963  10.650   3.109 -2.0592 -1.6569  1.9058
10160SOL     OW32486  10.409  10.058   7.456 -0.1005  0.0229  0.1570
10160SOL    HW132487  10.443  10.013   7.533  2.8648  2.0773  0.2007
10160SOL    HW232488  10.462  10.026   7.384 -1.3551 -0.2153 -0.6923
10161SOL     OW32489   8.806   0.611  10.676 -0.1435 -0.5927  0.7604
10161SOL    HW132490   8.798   0.535  10.619  1.2193 -1.3155  1.4845
10161SOL    HW232491   8.832   0.576  10.761 -1.4320  0.5261  1.6571
10162SOL     OW32492   8.214   0.058   4.248  0.3350  0.4841 -0.0217
10162SOL    HW132493   8.160   0.137   4.244  1.5386  1.2981 -1.1128
10162SOL    HW232494   8.237   0.049   4.340 -2.2600 -0.3437  0.6201
10163SOL     OW32495   6.547   5.127   3.879 -0.0229 -0.2525  0.2075
10163SOL    HW132496   6.561   5.049   3.826 -1.3159  0.0395 -0.6099
10163SOL    HW232497   6.462   5.112   3.922  0.1854  0.2761  0.8283
10164SOL     OW32498   2.657   3.335   6.284  0.6195  0.5159  0.2049
10164SOL    HW132499   2.721   3.264   6.278 -0.4016 -0.3239 -1.6503
10164SOL    HW232500   2.573   3.290   6.290  0.1058  1.6027  1.5959
10165SOL     OW32501   9.276   1.177   3.280 -0.2444  0.1525 -0.6706
10165SOL    HW132502   9.198   1.145   3.235 -0.7780  0.6617 -0.1193
10165SOL    HW232503   9.313   1.099   3.322  0.6418 -0.4815 -2.4887
10166SOL     OW32504   8.816   8.701  10.052 -0.0351  0.2396  0.5057
10166SOL    HW132505   8.757   8.722  10.125  2.0908 -0.4272  2.5138
10166SOL    HW232506   8.833   8.785  10.010 -1.8288  0.5356  0.2912
10167SOL     OW32507  10.929   2.549   9.955  0.7500 -0.2513  0.8433
10167SOL    HW132508  10.890   2.473   9.912  1.3709 -0.4152  0.5709
10167SOL    HW232509  10.863   2.576  10.019 -0.3066  0.1613 -0.3733
10168SOL     OW32510   3.760   6.692   3.813  0.4206 -0.0201  0.4406
10168SOL    HW132511   3.668   6.669   3.827  0.4843 -2.6001 -2.2756
10168SOL    HW232512   3.760   6.738   3.729  1.5350  0.8361  0.8912
10169SOL     OW32513   3.745  10.745  10.171 -0.2587  0.0456 -0.2302
10169SOL    HW132514   3.737  10.654  10.141 -1.1912 -0.6049  1.8176
10169SOL    HW232515   3.836  10.754  10.197  0.1902  0.1703 -1.7346
10170SOL     OW32516   7.932   1.736   3.798  0.5127 -0.0640 -0.3550
10170SOL    HW132517   7.894   1.694   3.875  1.1467 -1.4921 -0.7915
10170SOL    HW232518   7.860   1.743   3.736 -0.0421  1.2467  0.3942
10171SOL     OW32519   9.449   3.405  10.616 -0.1130  0.9984 -0.0294
10171SOL    HW132520   9.507   3.360  10.555 -0.7403  0.5696 -0.3166
10171SOL    HW232521   9.369   3.422  10.566 -0.2025  1.6637  0.3341
10172SOL     OW32522   3.153   2.768   7.432  0.4994 -0.9495  0.0984
10172SOL    HW132523   3.099   2.784   7.510 -0.2030 -2.2821 -0.0903
10172SOL    HW232524   3.104   2.808   7.360 -0.5084 -2.5357 -0.1414
10173SOL     OW32525   6.476   2.032  10.775  0.0366  0.5386  0.4209
10173SOL    HW132526   6.446   2.117  10.742 -1.1083  1.5106  3.5144
10173SOL    HW232527   6.561   2.051  10.816  1.0776 -0.4500 -1.1997
10174SOL     OW32528   9.713   5.181   5.443  0.3201  0.5860 -0.3742
10174SOL    HW132529   9.703   5.111   5.508 -0.6256 -0.1505 -1.2911
10174SOL    HW232530   9.735   5.258   5.495 -0.4391  0.0174  0.8330
10175SOL     OW32531   3.204   9.752   2.038 -0.3209 -0.4408  0.1917
10175SOL    HW132532   3.140   9.822   2.052 -0.3142 -0.6653  1.4138
10175SOL    HW232533   3.166   9.698   1.969 -2.2368 -1.4468  1.9332
10176SOL     OW32534   4.855   0.001  11.252  0.2134  0.6854  1.0151
10176SOL    HW132535   4.872  -0.052  11.330 -1.4014 -0.2677  0.7508
10176SOL    HW232536   4.791  -0.049  11.202  2.2677  0.4999 -1.7142
10177SOL     OW32537   5.587   1.450   0.509  0.1694  0.1688  0.1365
10177SOL    HW132538   5.572   1.373   0.564 -1.7949  0.1110 -0.3911
10177SOL    HW232539   5.505   1.498   0.513  0.8508  1.4649 -0.7572
10178SOL     OW32540   4.877   3.100   3.403 -0.4514 -0.2395 -0.5488
10178SOL    HW132541   4.911   3.015   3.432  0.8690 -1.0171 -3.8737
10178SOL    HW232542   4.792   3.080   3.365  0.0574 -0.2171 -1.7475
10179SOL     OW32543   7.009   0.868   8.469 -0.6537 -0.3681  0.0746
10179SOL    HW132544   7.030   0.919   8.391 -3.6964  0.3383 -0.4188
10179SOL    HW232545   7.092   0.829   8.495  0.9376  1.2850 -2.1068
10180SOL     OW32546   6.659   0.253   8.579  0.0483 -0.4246  0.1465
10180SOL    HW132547   6.624   0.267   8.491  2.5863  1.7866 -0.6355
10180SOL    HW232548   6.587   0.278   8.637 -0.8654  0.5638 -1.3389
10181SOL     OW32549   6.086   8.676   0.686 -0.2757  0.1327  0.2040
10181SOL    HW132550   6.015   8.740   0.679 -1.7174 -1.5616 -2.3868
10181SOL    HW232551   6.105   8.671   0.780 -3.1819  1.0841  0.9403
10182SOL     OW32552  10.781   4.372   1.752  0.2340  0.1012 -0.3406
10182SOL    HW132553  10.855   4.410   1.799 -1.2493  1.7778  0.7707
10182SOL    HW232554  10.715   4.356   1.819 -1.9238  2.4727 -1.7025
10183SOL     OW32555   2.456   3.646   4.573 -0.0115  0.4987 -0.1129
10183SOL    HW132556   2.449   3.738   4.598  0.2364  0.6632 -0.6348
10183SOL    HW232557   2.521   3.645   4.503  1.3206 -0.3123  1.0799
10184SOL     OW32558  11.168   4.059  10.732 -0.0670 -0.0613  0.2829
10184SOL    HW132559  11.209   4.007  10.801 -0.6093 -0.2857  0.4411
10184SOL    HW232560  11.129   4.134  10.778  1.1023  0.7405  0.0032
10185SOL     OW32561   7.205   5.131   3.495 -0.1281  0.2227  0.2023
10185SOL    HW132562   7.180   5.195   3.561 -2.4345  1.5896 -1.8618
10185SOL    HW232563   7.274   5.174   3.444 -0.3990  0.3446 -0.0642
10186SOL     OW32564   4.404   6.481   1.357  0.1977 -0.8673  0.7808
10186SOL    HW132565   4.357   6.541   1.414  0.3398 -0.4002  0.4130
10186SOL    HW232566   4.337   6.421   1.325  0.2965 -1.8462  2.3135
10187SOL     OW32567   0.103   6.823   3.617 -0.0007  0.3998  0.5184
10187SOL    HW132568   0.172   6.771   3.657 -0.3849 -0.5212  0.0138
10187SOL    HW232569   0.044   6.759   3.578 -2.0475  1.0906  2.3365
10188SOL     OW32570   3.235   7.528   6.252  0.0569  0.1289  0.2764
10188SOL    HW132571   3.299   7.478   6.202 -0.8144 -0.2333 -0.5128
10188SOL    HW232572   3.150   7.496   6.221 -0.5656  2.5079 -0.7235
10189SOL     OW32573   7.952   9.334   5.018 -0.1838 -0.0214 -0.3889
10189SOL    HW132574   7.981   9.345   4.928 -1.3551 -0.1177 -0.7933
10189SOL    HW232575   7.860   9.358   5.017 -0.2452 -0.1408  0.7605
10190SOL     OW32576   2.292  10.096   8.205  0.3521 -0.3407  0.0161
10190SOL    HW132577   2.358  10.076   8.139  0.2830 -1.7870  0.3561
10190SOL    HW232578   2.212  10.057   8.172  0.8025 -3.3201  1.9812
10191SOL     OW32579   6.497   4.013   8.622  0.4498 -0.2056 -0.0508
10191SOL    HW132580   6.421   4.067   8.644  2.2318  3.1417 -1.3690
10191SOL    HW232581   6.476   3.976   8.536 -1.0582 -2.3479  1.1435
10192SOL     OW32582   6.154   9.934   4.363  0.0998  0.0477  0.6945
10192SOL    HW132583   6.175   9.842   4.374 -0.6018 -0.2066  0.0202
10192SOL    HW232584   6.073   9.947   4.411 -0.6005 -0.0471 -0.4265
10193SOL     OW32585  10.261   4.705   8.417 -0.1169 -0.2671  0.2629
10193SOL    HW132586  10.250   4.744   8.330 -0.0333 -0.1529  0.3031
10193SOL    HW232587  10.351   4.674   8.417  0.3657  1.0501  0.8318
10194SOL     OW32588   7.918   8.596   9.895 -0.2634 -0.3138  0.0752
10194SOL    HW132589   7.980   8.598   9.822  0.7473 -0.2086  0.9053
10194SOL    HW232590   7.852   8.661   9.872 -1.6887 -2.3698 -2.1644
10195SOL     OW32591   8.326   4.979   1.946 -0.1914 -0.4172 -0.4207
10195SOL    HW132592   8.273   5.058   1.956  0.0012  0.0068 -2.2800
10195SOL    HW232593   8.263   4.908   1.940 -0.3587 -0.4745  1.4769
10196SOL     OW32594   1.046   3.915   8.606  0.3012  0.7127 -0.2987
10196SOL    HW132595   1.027   3.966   8.527  2.3943  2.1085  0.0017
10196SOL    HW232596   1.096   3.975   8.661  2.5111 -1.5081  0.2893
10197SOL     OW32597   4.534   3.357   1.541 -0.6569  0.4975 -0.1914
10197SOL    HW132598   4.455   3.309   1.519 -0.1604 -0.9662  1.0164
10197SOL    HW232599   4.602   3.290   1.546  0.9502  1.8490 -2.3567
10198SOL     OW32600   4.467   2.802   0.634  0.1725  0.6217 -0.4219
10198SOL    HW132601   4.529   2.844   0.576  1.6787 -1.7032 -0.6315
10198SOL    HW232602   4.413   2.747   0.577  0.3400 -0.1435  0.1283
10199SOL     OW32603   9.204   4.257   0.447 -0.3593  0.0307 -0.7915
10199SOL    HW132604   9.195   4.165   0.472 -1.7567  0.1482 -0.7397
10199SOL    HW232605   9.115   4.284   0.422  0.0507  1.3182 -0.9766
10200SOL     OW32606   5.491   4.866   7.486 -0.4134  0.5472 -0.0399
10200SOL    HW132607   5.554   4.797   7.467  0.3281  1.5025 -1.2782
10200SOL    HW232608   5.406   4.823   7.478  0.0418 -0.4996  0.4988
10201SOL     OW32609   9.234   6.857   0.496 -0.3226 -0.4329 -0.1093
10201SOL    HW132610   9.288   6.778   0.490 -1.1116 -1.0082  0.2681
10201SOL    HW232611   9.273   6.906   0.569  1.2429  0.3872 -1.4397
10202SOL     OW32612   3.996   2.050   1.381  0.2670  0.3270  0.0496
10202SOL    HW132613   3.920   2.090   1.340  0.7191  1.5003  0.2978
10202SOL    HW232614   4.007   2.099   1.463  1.1006 -0.0366  0.1655
10203SOL     OW32615   2.160   1.885   5.824  0.1043  0.1039 -0.2648
10203SOL    HW132616   2.123   1.943   5.891  0.8344  1.4241 -0.9700
10203SOL    HW232617   2.140   1.797   5.855 -0.4410  0.7103  1.1819
10204SOL     OW32618   9.924   6.960   4.621  0.1718  0.6318  0.3605
10204SOL    HW132619   9.984   6.959   4.697 -0.9496 -0.1040  1.2734
10204SOL    HW232620   9.903   7.052   4.608 -0.7505  0.6760  1.9045
10205SOL     OW32621   4.016   0.405   9.279  0.5900 -0.0301  0.3272
10205SOL    HW132622   3.987   0.491   9.250 -3.3384 -0.8154  1.2737
10205SOL    HW232623   3.988   0.400   9.371  1.1113 -2.1195  0.4261
10206SOL     OW32624   5.031  10.507   2.344 -0.4764 -0.5758 -0.4458
10206SOL    HW132625   5.044  10.500   2.250  0.3198 -0.8472 -0.3275
10206SOL    HW232626   5.081  10.584   2.370 -0.6746 -0.5125 -0.2491
10207SOL     OW32627   5.771   5.382   1.075 -0.1258 -0.8965 -0.0586
10207SOL    HW132628   5.707   5.445   1.108 -0.1335 -0.4301 -0.9296
10207SOL    HW232629   5.812   5.346   1.153 -0.8792 -0.5983  0.4832
10208SOL     OW32630   7.271   8.694   7.201 -0.3419 -0.2239 -0.3045
10208SOL    HW132631   7.212   8.619   7.194  1.0298 -1.3993  0.3061
10208SOL    HW232632   7.300   8.710   7.111  0.8087 -1.6673 -0.2280
10209SOL     OW32633   5.830   8.611   3.826  0.2644 -0.3134  0.2841
10209SOL    HW132634   5.839   8.531   3.879 -1.2904 -1.1151 -0.5651
10209SOL    HW232635   5.754   8.593   3.770  0.7258  1.2404 -0.8978
10210SOL     OW32636   1.363   3.302   9.375 -0.5166  0.1772 -0.0622
10210SOL    HW132637   1.410   3.378   9.340 -1.0639  0.6171  0.1361
10210SOL    HW232638   1.420   3.228   9.357  0.9486  0.8625  1.4376
10211SOL     OW32639   6.432   1.426   0.851 -0.3479  0.4700  0.3791
10211SOL    HW132640   6.354   1.392   0.808  0.2655 -0.9555  0.3200
10211SOL    HW232641   6.403   1.504   0.898 -1.7392  0.1032  0.1530
10212SOL     OW32642   7.053   5.319   5.131  0.3828  0.5127  0.4332
10212SOL    HW132643   7.062   5.223   5.131 -1.0105  0.3708  0.9367
10212SOL    HW232644   7.144   5.351   5.129  0.9059 -0.7828 -2.6277
10213SOL     OW32645   5.139   8.890   1.750 -0.4630 -0.4651 -0.6680
10213SOL    HW132646   5.217   8.867   1.801 -1.7701 -2.1222  0.6891
10213SOL    HW232647   5.173   8.908   1.662  1.6248  0.4604  0.2454
10214SOL     OW32648   9.752   6.004   4.308 -0.0687 -0.7074  0.2126
10214SOL    HW132649   9.844   5.986   4.327  0.1572 -0.2314 -0.4055
10214SOL    HW232650   9.704   5.958   4.377  0.6573 -0.4358  0.9165
10215SOL     OW32651  10.106   3.392   9.712 -0.2131 -0.6131  0.3200
10215SOL    HW132652  10.079   3.398   9.804 -1.3979 -0.7457  0.0044
10215SOL    HW232653  10.035   3.342   9.670 -0.2712  0.4298 -0.8829
10216SOL     OW32654   7.884   8.149   8.449  0.4649 -0.1833 -0.1452
10216SOL    HW132655   7.910   8.236   8.416 -1.3294  0.5540  0.2879
10216SOL    HW232656   7.845   8.166   8.534  1.7224 -1.6592  0.7706
10217SOL     OW32657   3.835   2.211   4.906  0.9280 -0.3820 -0.5433
10217SOL    HW132658   3.743   2.231   4.888  0.9252 -1.4067 -1.7949
10217SOL    HW232659   3.883   2.286   4.873  0.4092  2.1732  3.7483
10218SOL     OW32660   3.371  11.166  10.938 -0.2197  0.3946  0.6647
10218SOL    HW132661   3.377  11.218  11.018  0.1086 -0.4570  1.2169
10218SOL    HW232662   3.454  11.118  10.935 -0.5652 -0.1876  0.2445
10219SOL     OW32663   4.438   1.414   5.887 -0.7228  0.0229  0.3332
10219SOL    HW132664   4.452   1.508   5.897 -3.5755  0.4588  1.1659
10219SOL    HW232665   4.372   1.392   5.953 -3.7933 -1.5466 -2.9080
10220SOL     OW32666   2.574   4.179   7.795  0.3997 -0.2108 -0.8369
10220SOL    HW132667   2.566   4.238   7.870 -0.1754  0.1138 -1.1495
10220SOL    HW232668   2.487   4.142   7.784  0.7534 -1.1247 -0.6503
10221SOL     OW32669   0.343   3.592   3.367  0.0635 -0.4512  0.1325
10221SOL    HW132670   0.397   3.564   3.293  0.4490  0.6501 -0.0238
10221SOL    HW232671   0.276   3.647   3.327  2.0546  2.7566  0.8211
10222SOL     OW32672   1.126   9.803   6.494  0.0167 -0.2256 -0.4014
10222SOL    HW132673   1.035   9.778   6.513 -0.3950  0.8695 -0.8025
10222SOL    HW232674   1.141   9.879   6.550  0.9039 -0.7772  0.1163
10223SOL     OW32675   7.615   5.486   3.626  0.6366 -0.0311  0.4634
10223SOL    HW132676   7.573   5.412   3.669  2.5878 -0.9389  0.9035
10223SOL    HW232677   7.615   5.463   3.533 -0.0644  0.1158  0.4211
10224SOL     OW32678   3.025   3.759   1.311 -0.1813  0.4378  0.0592
10224SOL    HW132679   3.097   3.810   1.273 -0.0825  0.9843  0.9555
10224SOL    HW232680   3.002   3.805   1.392 -0.6564 -0.4730  0.4653
10225SOL     OW32681   9.923   4.051   9.801  0.3626 -0.0248 -0.8941
10225SOL    HW132682   9.846   3.994   9.809 -0.2129  0.7747 -0.6154
10225SOL    HW232683   9.984   4.018   9.868 -0.7152  0.8179  0.5717
10226SOL     OW32684   0.539   3.508   3.797  0.7264 -0.1900  0.1513
10226SOL    HW132685   0.631   3.482   3.799  1.1764  1.1270 -1.2293
10226SOL    HW232686   0.535   3.577   3.730 -0.9702  0.9030  1.2981
10227SOL     OW32687   1.716   2.944   4.261 -0.5976 -0.6906 -0.4043
10227SOL    HW132688   1.763   2.896   4.329  1.7014  1.8324 -0.0163
10227SOL    HW232689   1.690   2.878   4.197  0.2509 -2.6988  1.2440
10228SOL     OW32690   3.833   0.877   5.607  0.0386  0.2650  0.5460
10228SOL    HW132691   3.799   0.788   5.615  2.2289 -0.7128 -0.2635
10228SOL    HW232692   3.773   0.920   5.547 -0.8012 -0.7852  0.6011
10229SOL     OW32693   9.730   2.980   6.840  0.4960  0.2891 -0.4100
10229SOL    HW132694   9.783   2.909   6.805  1.9547  1.7456 -1.3146
10229SOL    HW232695   9.791   3.053   6.849 -0.3991  0.8292  2.6650
10230SOL     OW32696   1.967   9.608   7.818 -0.1049  0.0871 -0.3795
10230SOL    HW132697   1.930   9.696   7.821 -1.9814 -0.6495 -0.4219
10230SOL    HW232698   2.016   9.600   7.900  1.6358  1.7606 -1.1919
10231SOL     OW32699   9.501   9.361   6.953  0.4803 -0.3250  0.5354
10231SOL    HW132700   9.539   9.360   7.041  0.4964 -0.0586  0.5318
10231SOL    HW232701   9.438   9.433   6.955  1.5620  0.6861 -0.1141
10232SOL     OW32702  10.995   1.453   6.782 -0.9898 -0.1524  0.1151
10232SOL    HW132703  10.939   1.481   6.855  0.5247 -0.3675  1.4094
10232SOL    HW232704  11.010   1.360   6.797 -0.8275 -0.2498 -0.6067
10233SOL     OW32705   1.206  10.455   8.048 -0.6897  0.3444  0.1586
10233SOL    HW132706   1.120  10.458   8.005 -1.4063  0.7322  1.5595
10233SOL    HW232707   1.267  10.481   7.979 -1.9279  2.2139 -0.3317
10234SOL     OW32708   1.753   3.008   3.785 -0.8853 -0.2910 -0.4937
10234SOL    HW132709   1.812   3.027   3.713 -0.6397  2.6376  0.3584
10234SOL    HW232710   1.689   3.079   3.784 -0.5728  0.1685  2.4067
10235SOL     OW32711   2.024   5.827   8.057  0.0607  0.4229 -0.5887
10235SOL    HW132712   2.096   5.798   8.113  0.6930 -0.0427 -1.6327
10235SOL    HW232713   2.066   5.860   7.978 -0.8869 -0.5503 -1.5327
10236SOL     OW32714   7.019   1.245   8.343 -0.0297 -0.6389 -0.6252
10236SOL    HW132715   7.028   1.151   8.360 -1.4001 -0.9024 -1.2190
10236SOL    HW232716   7.022   1.252   8.247  4.0006  0.4128 -0.5731
10237SOL     OW32717   9.665   0.336   7.719 -0.6109  0.0178  0.2269
10237SOL    HW132718   9.755   0.355   7.694 -0.5395  0.3856  0.7644
10237SOL    HW232719   9.618   0.330   7.636 -0.1056 -0.1148 -0.0507
10238SOL     OW32720   2.464   8.979   8.807 -0.0573 -0.2909 -0.6824
10238SOL    HW132721   2.487   8.886   8.801 -1.4826 -0.6869 -0.5993
10238SOL    HW232722   2.536   9.019   8.855  0.8273 -1.2526 -1.1717
10239SOL     OW32723   7.518   8.686   1.196 -0.3382  0.0687 -0.3472
10239SOL    HW132724   7.601   8.733   1.208 -0.2049  0.1605 -1.5254
10239SOL    HW232725   7.515   8.666   1.103 -2.5399  1.7681 -0.7230
10240SOL     OW32726   5.394   2.292   1.790 -0.0697  0.0467  0.3499
10240SOL    HW132727   5.356   2.250   1.868  0.3499  0.2988  0.6945
10240SOL    HW232728   5.396   2.385   1.811  0.4013  0.0757  0.1939
10241SOL     OW32729   8.564   2.193   3.719 -0.1607  0.3515 -0.0302
10241SOL    HW132730   8.561   2.226   3.809  0.2831  0.6909 -0.1351
10241SOL    HW232731   8.653   2.158   3.710  1.0379  3.4053 -1.3841
10242SOL     OW32732   2.076   9.013   2.715  0.6691 -0.2164  0.0915
10242SOL    HW132733   2.021   9.081   2.755  0.7659  1.4409 -2.3862
10242SOL    HW232734   2.124   8.975   2.788 -0.6561  1.2103  1.7907
10243SOL     OW32735   9.391   8.570   6.891  0.1015  0.1134 -0.1176
10243SOL    HW132736   9.321   8.552   6.828 -0.6714 -0.1177  0.7976
10243SOL    HW232737   9.429   8.485   6.909  0.9831  0.2970 -0.9963
10244SOL     OW32738   9.381   3.014   8.195 -0.1260  1.0429  0.1489
10244SOL    HW132739   9.371   3.051   8.282 -0.7556 -0.0566  0.5570
10244SOL    HW232740   9.307   2.954   8.185  0.1890  0.8076 -0.9628
10245SOL     OW32741   8.592   3.674   2.524  0.0310 -0.3402  0.9812
10245SOL    HW132742   8.627   3.612   2.460  1.3498  0.8820  0.4301
10245SOL    HW232743   8.586   3.757   2.475  0.3762  0.4477  2.2346
10246SOL     OW32744   6.142   4.167   1.842 -0.4477  0.5443 -0.5187
10246SOL    HW132745   6.205   4.152   1.912  0.8538  0.6426 -1.6158
10246SOL    HW232746   6.139   4.084   1.794  2.3622  1.7467 -3.1423
10247SOL     OW32747   5.635   6.057  11.079 -0.2585 -0.0161  0.5488
10247SOL    HW132748   5.725   6.084  11.094 -0.0782 -0.7115  0.7509
10247SOL    HW232749   5.640   5.996  11.004 -0.8684  1.7604 -1.0211
10248SOL     OW32750   0.958   5.054   3.329 -0.8202  0.6309 -0.4684
10248SOL    HW132751   1.014   5.090   3.260  0.2886  1.2864  0.7266
10248SOL    HW232752   0.957   5.121   3.397  0.9897 -1.3173  1.6759
10249SOL     OW32753   3.193   4.865   7.097 -0.3098 -0.4968  0.2585
10249SOL    HW132754   3.135   4.935   7.066  0.9087  0.0599 -0.9149
10249SOL    HW232755   3.175   4.858   7.191 -1.3850  0.4968  0.1500
10250SOL     OW32756   7.759   0.802   4.337 -0.4495 -0.9243  0.1009
10250SOL    HW132757   7.759   0.824   4.430 -0.8660  0.1935 -0.1455
10250SOL    HW232758   7.843   0.758   4.323  0.4459  0.5306  0.6464
10251SOL     OW32759   7.409   1.169   5.037  0.2706 -0.1573 -0.4393
10251SOL    HW132760   7.477   1.234   5.053  1.5969 -2.0564  2.4170
10251SOL    HW232761   7.452   1.085   5.050 -2.3664 -1.4757  0.5219
10252SOL     OW32762   7.906   8.413   5.556  0.0816  0.0902  0.3586
10252SOL    HW132763   7.989   8.396   5.600  0.2299  0.2406  0.1472
10252SOL    HW232764   7.931   8.461   5.477 -0.3477  1.8462  1.2274
10253SOL     OW32765   4.033   0.117   3.855  0.2234  0.2052 -0.4462
10253SOL    HW132766   4.126   0.099   3.874  0.6333  3.1308  0.9639
10253SOL    HW232767   3.990   0.110   3.940 -0.8456 -0.9016 -1.0551
10254SOL     OW32768   4.780   7.095   2.986  0.2649  0.4708 -0.0057
10254SOL    HW132769   4.867   7.116   3.019  0.6753 -0.8901 -0.1562
10254SOL    HW232770   4.722   7.106   3.061  0.2967  2.8171 -0.2535
10255SOL     OW32771   0.341   7.322   9.416  0.2277 -0.5313 -0.1333
10255SOL    HW132772   0.328   7.415   9.399  0.0483 -0.5565 -0.1369
10255SOL    HW232773   0.436   7.309   9.409  0.2951 -0.2711  0.2756
10256SOL     OW32774   9.374   9.914   7.585 -0.3883  0.0961 -0.6509
10256SOL    HW132775   9.433   9.914   7.509 -0.9645  2.8787 -1.2172
10256SOL    HW232776   9.425   9.872   7.654  0.5788 -1.5177 -2.2283
10257SOL     OW32777   9.830   7.000   7.443  0.1232 -0.4145  0.3929
10257SOL    HW132778   9.774   6.940   7.394  0.7626 -0.7571  0.0674
10257SOL    HW232779   9.815   7.085   7.402  0.4206 -0.6440 -0.2020
10258SOL     OW32780   7.599  10.769   7.534  0.4011 -0.8489 -0.4729
10258SOL    HW132781   7.577  10.836   7.598  1.6797 -1.8581  1.1012
10258SOL    HW232782   7.671  10.807   7.483 -0.7946  0.0592 -1.5460
10259SOL     OW32783  10.232   4.366   3.043 -0.0260  0.1690  0.6290
10259SOL    HW132784  10.191   4.340   3.125  0.8671 -1.9038  0.4897
10259SOL    HW232785  10.292   4.437   3.068  0.3057 -0.4914  1.8094
10260SOL     OW32786   8.128   7.509  11.242  0.2035  0.5716 -0.4691
10260SOL    HW132787   8.196   7.543  11.184  0.2476  1.4912  0.1027
10260SOL    HW232788   8.053   7.495  11.185  0.9994 -0.9575 -1.2154
10261SOL     OW32789   7.501   5.356   7.232 -0.8158  0.1448 -0.6946
10261SOL    HW132790   7.426   5.306   7.200  0.3794 -1.8933 -0.4857
10261SOL    HW232791   7.575   5.325   7.180 -0.1597  2.6671 -1.4464
10262SOL     OW32792   5.468   9.940  11.251  0.1677  0.2509 -0.2750
10262SOL    HW132793   5.463   9.850  11.221 -0.1008  0.2869 -0.3388
10262SOL    HW232794   5.503   9.934  11.340  3.2251  0.2790 -1.3482
10263SOL     OW32795   9.123   8.176   0.750  0.3147 -0.1953 -0.2794
10263SOL    HW132796   9.116   8.091   0.794 -0.9270  1.1988  2.4718
10263SOL    HW232797   9.037   8.217   0.762  1.6455  2.4964  0.9195
10264SOL     OW32798   4.403   1.862   8.785  0.4948  0.3934  0.0768
10264SOL    HW132799   4.309   1.875   8.790  0.4670  1.8113 -2.2865
10264SOL    HW232800   4.435   1.876   8.875 -1.3643  1.6354  0.5987
10265SOL     OW32801   4.544   9.580   3.122 -0.0200 -0.3036  0.3348
10265SOL    HW132802   4.622   9.609   3.074  1.3775  0.1141  2.6824
10265SOL    HW232803   4.505   9.661   3.155 -1.3155 -0.5373 -0.5648
10266SOL     OW32804   7.475   2.215   0.483 -0.6241  0.0442 -0.0639
10266SOL    HW132805   7.489   2.143   0.545  1.0529  1.3063  1.1129
10266SOL    HW232806   7.391   2.195   0.441 -0.3440 -2.4121  0.4359
10267SOL     OW32807   5.665   2.692   1.120  0.2183  0.4653 -0.0951
10267SOL    HW132808   5.617   2.725   1.045 -0.7720  0.7028  0.6225
10267SOL    HW232809   5.692   2.604   1.095 -0.7433  0.2632 -0.4568
10268SOL     OW32810   0.630   5.754   3.715 -0.4546 -0.7382  0.1506
10268SOL    HW132811   0.673   5.810   3.650 -2.0159 -0.1462 -0.4031
10268SOL    HW232812   0.681   5.768   3.795  0.3176  0.0161 -0.4454
10269SOL     OW32813   9.420   9.590   2.903 -0.4325  0.5674 -0.3328
10269SOL    HW132814   9.390   9.678   2.882 -0.7580  0.2263 -1.3289
10269SOL    HW232815   9.393   9.536   2.829 -1.3284 -0.6194  0.8028
10270SOL     OW32816   8.379  10.114   7.329  0.3488 -0.3133 -0.2141
10270SOL    HW132817   8.295  10.159   7.338  0.6841  0.3071 -0.1305
10270SOL    HW232818   8.386  10.061   7.409 -0.5950 -1.4567 -0.8700
10271SOL     OW32819   6.877   3.191   8.569  0.1509 -0.0774 -0.6566
10271SOL    HW132820   6.787   3.174   8.540  0.0640 -1.4092  0.3002
10271SOL    HW232821   6.869   3.259   8.635  0.0550  1.0074 -1.7458
10272SOL     OW32822   5.877   0.828   1.807  0.2572  0.3159  0.2459
10272SOL    HW132823   5.814   0.900   1.803 -0.9776 -0.7826 -1.0544
10272SOL    HW232824   5.828   0.755   1.843  1.1040 -0.2764  0.2334
10273SOL     OW32825   3.905   8.568   3.008  0.3286 -0.4000 -0.3909
10273SOL    HW132826   3.927   8.485   3.049  0.0639  1.1797  3.3777
10273SOL    HW232827   3.903   8.631   3.081 -1.8234  2.4523 -2.6672
10274SOL     OW32828   2.422   9.361   3.076 -0.2387 -0.0226  0.7297
10274SOL    HW132829   2.408   9.455   3.079 -1.0207 -0.1348  0.6899
10274SOL    HW232830   2.460   9.345   2.990 -2.8719 -0.0870 -0.5263
10275SOL     OW32831   7.853   2.859  11.196 -0.1276  0.0318 -0.4807
10275SOL    HW132832   7.911   2.931  11.219 -2.8819  3.1666 -2.5221
10275SOL    HW232833   7.825   2.878  11.107 -1.2657 -3.4754 -1.0164
10276SOL     OW32834   7.753   0.118   6.971  0.3440 -0.2121 -0.7901
10276SOL    HW132835   7.794   0.046   7.018  2.0902  2.2327  1.7541
10276SOL    HW232836   7.815   0.141   6.901  2.4933  2.0179  1.6498
10277SOL     OW32837   4.150   1.444  10.632 -0.1802  0.3823 -0.3605
10277SOL    HW132838   4.066   1.461  10.676 -0.8878  0.1689 -1.5728
10277SOL    HW232839   4.188   1.531  10.621  0.3718  0.3827  1.3120
10278SOL     OW32840   5.750   8.833   3.558 -0.0055 -0.1936 -0.0600
10278SOL    HW132841   5.731   8.769   3.627  2.0050 -0.3027  0.4544
10278SOL    HW232842   5.701   8.911   3.584 -2.3735 -1.3971 -0.6170
10279SOL     OW32843   8.562   7.093   2.707  0.5247 -0.0672  0.1543
10279SOL    HW132844   8.587   7.111   2.798  1.7788 -1.2917  0.0893
10279SOL    HW232845   8.619   7.150   2.656 -0.3062  0.7526  0.1255
10280SOL     OW32846   5.243   1.284   8.210 -0.5643  0.0011 -0.5314
10280SOL    HW132847   5.241   1.214   8.145  1.9653 -0.8117  0.1744
10280SOL    HW232848   5.292   1.354   8.168 -0.8057  0.3387 -0.2607
10281SOL     OW32849   9.091   7.675   8.430  0.0521  0.0702 -0.4207
10281SOL    HW132850   9.014   7.618   8.432  0.6512 -0.7471 -0.1749
10281SOL    HW232851   9.105   7.700   8.521  0.2136  0.0459 -0.4400
10282SOL     OW32852   8.721   0.635  11.049  0.2640 -0.4061 -0.5537
10282SOL    HW132853   8.806   0.622  11.092  0.2482 -1.7307 -0.8892
10282SOL    HW232854   8.689   0.547  11.033 -1.1769  0.0814 -0.4533
10283SOL     OW32855  10.350   7.128   2.760 -0.2131 -0.6795  0.2707
10283SOL    HW132856  10.259   7.104   2.777 -0.9099  2.0149  0.7485
10283SOL    HW232857  10.365   7.102   2.669 -2.0015  0.2552 -0.3297
10284SOL     OW32858  11.281   1.370   2.671  0.3960 -0.7010  0.7295
10284SOL    HW132859  11.302   1.323   2.752  1.7982 -2.6695 -0.6760
10284SOL    HW232860  11.217   1.315   2.627 -0.8225  0.6604  0.7431
10285SOL     OW32861  10.654   9.615   0.995  0.3605  0.8714 -0.1379
10285SOL    HW132862  10.570   9.573   0.975  0.4830 -0.0235  1.1465
10285SOL    HW232863  10.641   9.707   0.969 -1.6717  1.1761  1.6855
10286SOL     OW32864   1.952   7.320   0.088  0.1032  0.1931  0.1527
10286SOL    HW132865   1.876   7.365   0.049  0.1134 -1.6956 -2.2796
10286SOL    HW232866   2.028   7.370   0.058 -0.0189  3.0063  3.8196
10287SOL     OW32867   8.348  10.026   1.303  0.0826 -0.0254 -0.2858
10287SOL    HW132868   8.254  10.033   1.287  0.0780 -1.2881 -0.9037
10287SOL    HW232869   8.387  10.094   1.247 -0.4789  0.8429  0.3562
10288SOL     OW32870   0.524   4.920   1.247  0.8226  0.5330  0.9030
10288SOL    HW132871   0.450   4.971   1.281 -0.1929 -0.9672  1.0587
10288SOL    HW232872   0.599   4.948   1.299 -0.0759  0.5849  2.2166
10289SOL     OW32873   1.698   1.052   7.412 -0.2747 -0.0087 -0.2613
10289SOL    HW132874   1.685   1.140   7.376  0.6635 -0.2137 -1.1123
10289SOL    HW232875   1.619   1.004   7.386 -1.9117  1.1414  2.1300
10290SOL     OW32876   7.010   5.283   8.120 -0.1755  0.1574  0.1435
10290SOL    HW132877   6.970   5.219   8.062 -0.3955  0.2964  0.1388
10290SOL    HW232878   7.089   5.313   8.074 -0.9143  1.0550 -0.5771
10291SOL     OW32879   0.349   5.279   6.263  0.5348  0.5135  0.8324
10291SOL    HW132880   0.273   5.222   6.270  0.4639  0.5287  0.2617
10291SOL    HW232881   0.414   5.227   6.216 -0.0862  1.4198 -1.1393
10292SOL     OW32882  10.878   9.977   4.682 -0.1297  0.6414 -0.0507
10292SOL    HW132883  10.911   9.954   4.769 -1.8978  0.8529  0.7142
10292SOL    HW232884  10.927  10.056   4.659  0.2163  0.7047  0.8456
10293SOL     OW32885   5.659   3.671   6.685  0.7853 -0.9267  0.5411
10293SOL    HW132886   5.574   3.627   6.688  0.4140 -0.1899  0.9734
10293SOL    HW232887   5.705   3.630   6.611 -0.5281 -0.2544 -0.6890
10294SOL     OW32888   8.296   4.275   6.440  0.0211 -0.2164 -0.3499
10294SOL    HW132889   8.384   4.286   6.477  0.6332  0.2040 -1.8706
10294SOL    HW232890   8.299   4.322   6.357 -1.9248  0.5718 -0.0319
10295SOL     OW32891   6.101   8.745   4.677 -0.1036  0.5438 -0.2407
10295SOL    HW132892   6.070   8.798   4.750 -2.1218  0.5461 -1.0520
10295SOL    HW232893   6.023   8.702   4.642  0.9150 -0.0822 -1.9213
10296SOL     OW32894   8.263  10.710   1.298 -0.7141 -0.6725  0.0228
10296SOL    HW132895   8.213  10.771   1.243  0.0680  1.8033  1.8788
10296SOL    HW232896   8.321  10.665   1.237 -0.5709  1.2435 -1.3363
10297SOL     OW32897   5.688   1.779   8.891  0.4303 -0.0400  1.0036
10297SOL    HW132898   5.771   1.738   8.916 -0.0372  0.2953  3.3644
10297SOL    HW232899   5.707   1.822   8.808  3.0744  1.1847  2.1101
10298SOL     OW32900  10.126   6.638   1.819  0.1314 -0.1579 -0.8893
10298SOL    HW132901  10.171   6.558   1.845 -0.6491 -0.2284  0.3347
10298SOL    HW232902  10.050   6.642   1.876  1.1662  2.4453  0.4606
10299SOL     OW32903  10.273   7.316   6.077 -0.0994 -0.2122  0.2489
10299SOL    HW132904  10.290   7.302   5.984  0.1137 -0.9222  0.3920
10299SOL    HW232905  10.179   7.332   6.082  0.4406  5.4543 -0.7707
10300SOL     OW32906   0.876   0.747   5.891 -0.0694  0.2360 -0.2049
10300SOL    HW132907   0.930   0.718   5.964 -0.2909 -2.2552 -0.9165
10300SOL    HW232908   0.923   0.715   5.813 -0.3571  1.9117 -1.1172
10301SOL     OW32909   6.492  11.280   5.050  0.3072  0.0317 -0.8090
10301SOL    HW132910   6.467  11.336   5.124  1.4284  0.8385 -1.0016
10301SOL    HW232911   6.410  11.259   5.007 -0.1602  1.6643 -0.7890
10302SOL     OW32912   9.340   6.751  10.676 -0.0814  0.5128  0.0354
10302SOL    HW132913   9.282   6.734  10.750 -0.4584  0.6985 -0.2175
10302SOL    HW232914   9.283   6.786  10.608 -0.0426 -1.2369 -0.9543
10303SOL     OW32915  10.064   1.326   7.452  0.1925  0.7915  0.0324
10303SOL    HW132916  10.092   1.263   7.385 -1.9983 -1.8551  1.4089
10303SOL    HW232917  10.136   1.328   7.515  0.1938 -0.5630  0.0958
10304SOL     OW32918   5.867   1.586  10.928 -0.7916 -0.1112 -0.2596
10304SOL    HW132919   5.868   1.546  10.841  1.1004 -0.5725 -0.0760
10304SOL    HW232920   5.949   1.557  10.969 -0.4328  2.0572  0.7462
10305SOL     OW32921   3.990   0.994   0.047  0.1323  0.1309  0.2485
10305SOL    HW132922   4.021   1.015  -0.041 -1.3585  0.6757 -0.1744
10305SOL    HW232923   3.978   0.898   0.045  1.0704  0.0126  0.1876
10306SOL     OW32924   5.077   3.867   0.030 -0.2135  0.0915  0.0189
10306SOL    HW132925   5.066   3.962   0.040  1.2446  0.3274 -0.4309
10306SOL    HW232926   5.099   3.855  -0.062 -1.1366 -0.7897 -0.1101
10307SOL     OW32927   7.391   4.791  11.228  0.6281  0.2411 -0.0509
10307SOL    HW132928   7.347   4.778  11.312  1.9349 -1.2797  0.4368
10307SOL    HW232929   7.366   4.880  11.202 -3.5545 -0.7988 -0.3252
10308SOL     OW32930   3.902   1.980   9.492  0.0444  0.0929  0.2998
10308SOL    HW132931   3.906   1.887   9.471 -1.1550 -0.0702  0.6902
10308SOL    HW232932   3.877   2.022   9.410  2.5742  0.3563 -0.4247
10309SOL     OW32933   4.626   5.563   2.469  0.0044  0.1012  0.3819
10309SOL    HW132934   4.564   5.501   2.508 -0.9360  0.2092 -0.8936
10309SOL    HW232935   4.683   5.508   2.416  0.6103  0.0844  1.0292
10310SOL     OW32936   5.268   0.901  10.808 -0.6622 -0.0263 -0.4674
10310SOL    HW132937   5.277   0.937  10.720 -1.6773  0.3213 -0.4385
10310SOL    HW232938   5.176   0.877  10.815 -0.9244  1.2724  1.0034
10311SOL     OW32939   3.605   9.271   2.197  0.3185  0.4142  0.0801
10311SOL    HW132940   3.625   9.364   2.208 -0.4099  0.4788  1.0216
10311SOL    HW232941   3.540   9.269   2.127  0.1640  0.6386  0.2147
10312SOL     OW32942   6.732   4.186   2.337  0.8463  0.3921  0.0355
10312SOL    HW132943   6.767   4.143   2.259  3.0869  0.2174  1.0547
10312SOL    HW232944   6.756   4.278   2.327  0.1601  0.5727  0.0135
10313SOL     OW32945   8.841   3.368   6.617  0.2074  0.7698 -0.1664
10313SOL    HW132946   8.826   3.426   6.692 -1.7189 -0.9174  0.8603
10313SOL    HW232947   8.774   3.394   6.554  0.7656  1.0887 -0.6369
10314SOL     OW32948   9.362   1.748   9.354  0.0941  0.4302  0.1474
10314SOL    HW132949   9.304   1.681   9.390  0.5405 -0.3747 -0.5916
10314SOL    HW232950   9.342   1.827   9.405  0.5916 -0.5964  2.0439
10315SOL     OW32951   1.720   7.424   8.164  0.3530  0.7884  0.1235
10315SOL    HW132952   1.630   7.455   8.164 -0.2440 -0.8100  1.1734
10315SOL    HW232953   1.716   7.338   8.206  1.9757 -0.4126 -1.9545
10316SOL     OW32954   0.481   1.622   5.535  0.1564 -0.1424 -0.3065
10316SOL    HW132955   0.421   1.697   5.545 -0.1146 -0.4470  0.4660
10316SOL    HW232956   0.560   1.660   5.496 -0.2349  0.4208 -0.5711
10317SOL     OW32957   7.915   2.249   5.632  0.1185  0.1075 -0.4645
10317SOL    HW132958   7.838   2.192   5.633 -0.5231  0.8895 -1.6333
10317SOL    HW232959   7.906   2.299   5.550  2.3806 -0.4607 -1.1310
10318SOL     OW32960   8.174   6.905   0.861  0.8469 -0.1445  0.1949
10318SOL    HW132961   8.134   6.874   0.780  1.1295 -0.3361  0.1310
10318SOL    HW232962   8.265   6.924   0.838  0.3838  2.0060 -0.1134
10319SOL     OW32963   2.186   8.779   0.736 -0.1484 -0.1461  0.4224
10319SOL    HW132964   2.163   8.709   0.797 -2.6953 -0.3719 -0.6614
10319SOL    HW232965   2.103   8.804   0.695  1.0276  1.9416 -0.9034
10320SOL     OW32966   9.992   7.925  10.328  0.2922  0.1810  0.1434
10320SOL    HW132967  10.079   7.913  10.366  1.4054  0.2213 -2.2209
10320SOL    HW232968   9.964   7.837  10.303 -0.9251  0.0063  1.9868
10321SOL     OW32969   7.114   1.748   9.746  0.0215  0.4561  0.1697
10321SOL    HW132970   7.095   1.682   9.812  1.3413  2.6846  2.9827
10321SOL    HW232971   7.030   1.762   9.701 -0.1232 -3.5562 -1.1636
10322SOL     OW32972  10.524   9.270   2.055 -0.0675 -0.0993  0.3337
10322SOL    HW132973  10.460   9.326   2.012  0.9664 -0.2393 -1.4570
10322SOL    HW232974  10.481   9.244   2.137 -2.0384  0.2774 -0.5253
10323SOL     OW32975   9.322   1.932   9.130  0.8527 -0.3033 -0.5709
10323SOL    HW132976   9.338   1.927   9.225  0.6765  0.7197 -0.4753
10323SOL    HW232977   9.290   1.845   9.106  0.7919 -0.5379  0.3307
10324SOL     OW32978   0.233   6.414   9.171 -0.0875 -0.6779  0.3631
10324SOL    HW132979   0.229   6.398   9.077 -1.6081 -1.9695  0.6084
10324SOL    HW232980   0.162   6.476   9.188 -0.6170 -1.3872  0.8041
10325SOL     OW32981   1.947   7.655   4.014  0.5978  0.8876  0.0032
10325SOL    HW132982   1.894   7.735   4.009  0.5411  0.9444  1.2576
10325SOL    HW232983   2.035   7.686   4.033  0.7490  0.6945 -0.3795
10326SOL     OW32984   9.704   6.887   7.196 -0.0749 -0.8637  0.3523
10326SOL    HW132985   9.754   6.917   7.120  0.5029 -0.1229  1.0066
10326SOL    HW232986   9.633   6.950   7.204  0.7805  0.0187  1.3551
10327SOL     OW32987   4.501   1.373   3.467  0.2116 -0.2838  0.7054
10327SOL    HW132988   4.574   1.371   3.529  0.0232  1.3231  1.0298
10327SOL    HW232989   4.539   1.416   3.389  0.0145 -0.8385  0.2985
10328SOL     OW32990   4.566   8.456   2.718  0.7334  0.3500 -0.6119
10328SOL    HW132991   4.508   8.504   2.777 -2.3651 -2.6737 -0.9384
10328SOL    HW232992   4.617   8.399   2.776  0.0272 -0.2925 -0.6156
10329SOL     OW32993   0.835   2.620   8.732 -0.1947 -0.0893  0.3189
10329SOL    HW132994   0.823   2.527   8.749  0.2415 -0.4969 -1.4958
10329SOL    HW232995   0.833   2.629   8.637 -0.2739  1.7670  0.4495
10330SOL     OW32996  11.169   1.822   7.472  0.0250 -0.9183  0.2205
10330SOL    HW132997  11.186   1.752   7.535  0.8208  0.6168  1.7861
10330SOL    HW232998  11.175   1.778   7.387  1.1588 -2.6297  1.1056
10331SOL     OW32999   9.222   5.661   4.003  0.4921 -0.2689 -0.5273
10331SOL    HW133000   9.132   5.689   3.988  0.5343 -0.6748 -1.6403
10331SOL    HW233001   9.217   5.606   4.081 -0.4514 -1.2760 -1.2551
10332SOL     OW33002   8.771   5.897   9.718  0.0325  0.0827  0.1800
10332SOL    HW133003   8.706   5.889   9.648  0.2277  1.0267 -0.1301
10332SOL    HW233004   8.799   5.988   9.713 -1.3522  0.7463  2.7377
10333SOL     OW33005   7.780   8.300   7.544  0.0547 -0.0323 -0.5510
10333SOL    HW133006   7.806   8.323   7.455 -2.0789 -0.1213 -1.2551
10333SOL    HW233007   7.691   8.265   7.535  0.3041 -1.3913  1.4415
10334SOL     OW33008   3.348  10.696   9.610 -0.6757 -0.1614  0.2074
10334SOL    HW133009   3.340  10.653   9.695 -1.5447  0.0975  0.2625
10334SOL    HW233010   3.400  10.774   9.627 -0.4584 -0.3491  0.4088
10335SOL     OW33011   8.164   5.644  10.957 -0.7341 -0.0511  0.2959
10335SOL    HW133012   8.164   5.572  10.893 -0.8367  0.7042 -0.5807
10335SOL    HW233013   8.072   5.668  10.965 -0.6816  0.0900  0.4632
10336SOL     OW33014   0.616   6.567   0.070  0.0731 -0.2221 -0.5400
10336SOL    HW133015   0.688   6.611   0.025 -0.1660 -0.5583 -1.2624
10336SOL    HW233016   0.658   6.521   0.143  0.2206  1.9071  0.8119
10337SOL     OW33017   7.229   7.056   0.381  0.2552  0.3042  0.4752
10337SOL    HW133018   7.305   7.045   0.324 -0.0482  0.9178 -0.0660
10337SOL    HW233019   7.154   7.052   0.321 -0.0191  2.0067  0.6595
10338SOL     OW33020   4.106   2.034   7.393 -0.7677  0.5905 -0.3586
10338SOL    HW133021   4.048   1.979   7.340  0.9407 -0.2270 -1.4632
10338SOL    HW233022   4.047   2.099   7.432 -2.3870 -0.0065 -1.6457
10339SOL     OW33023   7.701   3.025   1.029 -0.5307  0.5346  0.0526
10339SOL    HW133024   7.623   3.070   0.997  0.2692  0.3380 -2.3777
10339SOL    HW233025   7.749   3.092   1.078 -1.7657  0.8974  0.8077
10340SOL     OW33026   4.740  10.285  10.732  0.3283  0.3555  0.4228
10340SOL    HW133027   4.714  10.230  10.805 -0.6513  0.2085 -0.0148
10340SOL    HW233028   4.730  10.229  10.655 -1.9225  1.4662 -0.1743
10341SOL     OW33029   5.704   0.092   9.036  0.2646 -0.1163 -0.2690
10341SOL    HW133030   5.613   0.108   9.058  0.9001  0.3402  2.4601
10341SOL    HW233031   5.729   0.018   9.093  1.4182 -0.6903 -1.4695
10342SOL     OW33032   5.738   9.840   8.743  0.5890  0.0832  0.1160
10342SOL    HW133033   5.777   9.928   8.744 -1.1989  0.9510 -1.2172
10342SOL    HW233034   5.729   9.820   8.650 -0.2988 -0.9318  0.4108
10343SOL     OW33035  10.160   4.941   9.757  0.1413  0.0152 -0.3506
10343SOL    HW133036  10.167   4.972   9.848 -0.9248  0.0146 -0.2533
10343SOL    HW233037  10.226   4.991   9.710  1.6128 -0.9108  0.6476
10344SOL     OW33038   3.315   4.476   5.829 -0.2261 -0.4891  0.7774
10344SOL    HW133039   3.294   4.395   5.782 -2.9152  0.8876 -0.5805
10344SOL    HW233040   3.259   4.472   5.908 -0.8768  0.3154  0.3658
10345SOL     OW33041   5.982   7.034  10.845  0.0812 -0.4589 -0.3313
10345SOL    HW133042   5.983   7.010  10.938 -0.7013  0.1569 -0.1555
10345SOL    HW233043   6.044   7.106  10.838  0.1619 -0.5243 -0.2920
10346SOL     OW33044   7.008   4.435   9.202 -0.5307 -0.1425 -0.6430
10346SOL    HW133045   7.061   4.471   9.273 -2.7757  0.9448  0.5744
10346SOL    HW233046   6.972   4.511   9.157 -0.0517 -0.8338 -2.3049
10347SOL     OW33047   9.266   4.987  11.109 -0.2186 -0.0007  0.9835
10347SOL    HW133048   9.174   4.968  11.091 -0.0660  1.5571 -1.9078
10347SOL    HW233049   9.265   5.074  11.150 -0.0322 -0.1423  1.2946
10348SOL     OW33050   8.449   6.325   3.206  0.0955  0.1281  0.3735
10348SOL    HW133051   8.484   6.305   3.293 -2.4444 -3.4496  0.7995
10348SOL    HW233052   8.374   6.382   3.224 -0.0245 -0.0573  0.4668
10349SOL     OW33053  10.394   4.742   4.786  0.6314 -0.1003  0.0333
10349SOL    HW133054  10.437   4.744   4.700  0.0619  1.0205 -0.2313
10349SOL    HW233055  10.330   4.813   4.783  0.7622  0.1015  1.4717
10350SOL     OW33056   1.603   6.752   5.902 -0.4975 -0.1204  0.2166
10350SOL    HW133057   1.587   6.845   5.883 -0.1025 -0.1666 -0.3653
10350SOL    HW233058   1.519   6.709   5.884 -0.6758  0.1173  0.4654
10351SOL     OW33059   0.373   4.572   0.618 -0.2351  0.3431  0.4815
10351SOL    HW133060   0.294   4.626   0.623  0.1204  0.8357  0.9435
10351SOL    HW233061   0.415   4.584   0.703  1.2410  1.4713 -0.3726
10352SOL     OW33062   9.105   8.565   3.051  0.0792 -0.5968 -0.6194
10352SOL    HW133063   9.026   8.601   3.012  0.3555 -0.5634 -1.1719
10352SOL    HW233064   9.174   8.586   2.988  0.9408  1.3522  0.9036
10353SOL     OW33065  11.131  10.476   6.322  1.5081 -0.0208 -0.1097
10353SOL    HW133066  11.195  10.419   6.364  0.7341  0.0611  1.2402
10353SOL    HW233067  11.106  10.429   6.242  0.1293 -2.1515  1.4698
10354SOL     OW33068  11.181  10.558   8.587  0.3360  0.1342  0.0785
10354SOL    HW133069  11.221  10.496   8.526  0.5200  0.0359  0.2969
10354SOL    HW233070  11.254  10.589   8.641 -0.3376 -2.9228  3.0824
10355SOL     OW33071  11.000  10.356   4.033  0.2132  0.0199  0.0140
10355SOL    HW133072  11.091  10.375   4.010  0.3153 -1.3435 -0.7738
10355SOL    HW233073  10.953  10.357   3.950  0.3316 -3.5582 -0.2537
10356SOL     OW33074   8.522   8.834   8.273  0.0631 -0.0315 -0.4206
10356SOL    HW133075   8.614   8.807   8.271  0.2430  0.6055 -1.2067
10356SOL    HW233076   8.526   8.930   8.280 -0.5537 -0.0653  0.7693
10357SOL     OW33077   2.839   4.156  10.158  0.0080 -0.3952  0.5039
10357SOL    HW133078   2.816   4.222  10.093  0.0571 -0.0218  0.8689
10357SOL    HW233079   2.862   4.205  10.237  1.6615 -0.7441  0.2920
10358SOL     OW33080   6.672  10.810   7.939  0.0703 -0.2489 -0.2955
10358SOL    HW133081   6.677  10.864   7.860  1.3323  1.3140  0.7944
10358SOL    HW233082   6.676  10.873   8.011  2.1269 -1.8130  1.0342
10359SOL     OW33083   8.180   8.464   5.777  0.3099 -0.2343  0.0949
10359SOL    HW133084   8.144   8.549   5.802 -0.6775 -0.7168  0.3769
10359SOL    HW233085   8.142   8.402   5.840 -0.7095 -1.1934 -1.3689
10360SOL     OW33086   7.352   8.452   0.222 -0.2779 -0.0476 -0.7011
10360SOL    HW133087   7.438   8.434   0.183  0.2991 -0.9914  0.9286
10360SOL    HW233088   7.297   8.379   0.193 -0.4344  0.3235 -1.3763
10361SOL     OW33089   8.042   8.795   6.861  0.1073 -0.2101  0.2428
10361SOL    HW133090   8.004   8.708   6.846  1.0716 -0.2824 -2.4888
10361SOL    HW233091   8.129   8.777   6.895  0.5240 -0.3939 -0.8630
10362SOL     OW33092   3.053   2.007   7.962 -0.3544 -0.9266 -0.0539
10362SOL    HW133093   3.043   2.080   7.901  0.5427 -1.3540 -0.7397
10362SOL    HW233094   3.071   2.047   8.046 -0.5040 -0.3511 -0.2926
10363SOL     OW33095   6.027   8.921   9.896  0.3239 -0.8819 -0.1331
10363SOL    HW133096   5.944   8.897   9.855  0.8843 -0.0477 -1.8284
10363SOL    HW233097   6.038   9.014   9.876  2.0763 -1.1846 -0.7283
10364SOL     OW33098   5.337  10.587   2.202  0.6611 -0.3715 -0.6408
10364SOL    HW133099   5.343  10.493   2.184 -0.0672 -0.2725 -1.4773
10364SOL    HW233100   5.389  10.600   2.281 -0.2288 -1.6795  0.2056
10365SOL     OW33101   1.354   8.802   9.269 -0.5806 -0.5065  0.0425
10365SOL    HW133102   1.447   8.793   9.290 -0.0656  0.0059 -1.8941
10365SOL    HW233103   1.309   8.774   9.349  1.2337  0.1341  1.3597
10366SOL     OW33104   1.857   0.702   8.117 -0.2522 -0.0015 -0.4062
10366SOL    HW133105   1.803   0.745   8.050  0.2829  0.6809 -0.4031
10366SOL    HW233106   1.921   0.768   8.142 -0.6206 -0.1508  1.0029
10367SOL     OW33107   4.921   9.577   3.880  0.4765 -0.1669  0.0587
10367SOL    HW133108   4.934   9.665   3.845  2.9367 -0.0141  1.1832
10367SOL    HW233109   4.859   9.536   3.819 -1.4155  2.5549 -0.0210
10368SOL     OW33110   2.720   2.919   5.037 -0.0337  0.8776  0.0981
10368SOL    HW133111   2.773   2.883   5.108  0.6254 -0.1189 -0.8644
10368SOL    HW233112   2.783   2.939   4.968 -0.6310  2.0902 -0.1283
10369SOL     OW33113   8.746   4.341   1.990  0.6083 -0.4292  0.3267
10369SOL    HW133114   8.719   4.352   1.898  0.7543 -0.1590  0.3156
10369SOL    HW233115   8.813   4.272   1.987  2.9759  1.7579 -0.2170
10370SOL     OW33116   1.767   5.264   6.201  0.1399 -1.5255  0.2876
10370SOL    HW133117   1.792   5.204   6.271  0.9133 -2.6748 -0.9299
10370SOL    HW233118   1.700   5.217   6.152  0.0496 -0.9947 -0.1048
10371SOL     OW33119   8.248   5.370   3.432 -0.1350  0.3717  0.1597
10371SOL    HW133120   8.298   5.449   3.453  0.3287  0.4188 -1.0102
10371SOL    HW233121   8.175   5.370   3.494 -0.9471  2.4914 -0.7051
10372SOL     OW33122   1.360   5.261   6.931  0.5150  0.2600 -0.1781
10372SOL    HW133123   1.445   5.264   6.976 -0.6202  1.0854  2.0454
10372SOL    HW233124   1.371   5.319   6.856  1.3592  2.0544  1.2331
10373SOL     OW33125   9.643   3.623  10.765 -0.3176 -0.5176 -0.1040
10373SOL    HW133126   9.694   3.574  10.701 -0.0161 -0.2258 -0.0848
10373SOL    HW233127   9.580   3.558  10.799  0.0211 -0.8712 -0.1413
10374SOL     OW33128   8.431   8.881   1.464 -0.0745 -0.2517  0.6129
10374SOL    HW133129   8.363   8.830   1.419  1.0742 -0.9615 -0.3662
10374SOL    HW233130   8.393   8.968   1.473  0.4228  0.6932 -3.9483
10375SOL     OW33131   5.933   6.847   3.623  0.1755 -0.1143 -0.1590
10375SOL    HW133132   5.995   6.811   3.688 -0.4269  0.8850  1.0125
10375SOL    HW233133   5.941   6.789   3.548  0.1384 -1.9561  1.1975
10376SOL     OW33134   7.130   3.911  10.541 -0.2833 -0.2275 -0.4985
10376SOL    HW133135   7.193   3.841  10.522 -0.1277 -0.1898 -0.1260
10376SOL    HW233136   7.170   3.990  10.505 -0.7927 -0.4422 -1.5804
10377SOL     OW33137   8.273   7.957   2.229  0.3801  1.0853 -0.0069
10377SOL    HW133138   8.299   7.865   2.226 -2.4176  0.0701  2.2670
10377SOL    HW233139   8.204   7.964   2.163  0.1630  1.3761  0.2465
10378SOL     OW33140   1.613   4.066   5.572  0.5959 -0.0585 -0.4146
10378SOL    HW133141   1.657   3.990   5.610  0.4112 -0.4982 -1.0595
10378SOL    HW233142   1.685   4.122   5.542  0.7284 -0.1749 -0.3168
10379SOL     OW33143   1.438   3.109   8.993  0.6249  0.3766  0.2931
10379SOL    HW133144   1.450   3.129   8.900 -0.6502 -0.1700 -0.0094
10379SOL    HW233145   1.391   3.025   8.993 -1.4448  1.4608  1.3762
10380SOL     OW33146   4.434   4.345   1.702  0.1097  0.2871  0.2560
10380SOL    HW133147   4.344   4.349   1.734  0.7037  0.7104  1.9469
10380SOL    HW233148   4.440   4.418   1.640 -0.9457 -0.3244 -0.6177
10381SOL     OW33149   2.421   2.962   1.040 -0.2053 -0.0963 -0.3525
10381SOL    HW133150   2.414   3.056   1.026  0.2721 -0.3778 -3.2369
10381SOL    HW233151   2.339   2.937   1.082 -0.1898  1.6317  0.7889
10382SOL     OW33152  10.948   2.603   4.648  0.2819  0.0718  0.5511
10382SOL    HW133153  10.906   2.676   4.695  0.6942  0.9608 -0.4191
10382SOL    HW233154  11.032   2.593   4.691 -0.2390 -0.6315  1.4456
10383SOL     OW33155   8.462   4.868   2.745 -1.0776 -0.7186 -0.0795
10383SOL    HW133156   8.446   4.949   2.696 -0.8763 -0.9713 -0.5728
10383SOL    HW233157   8.467   4.800   2.677 -0.5051 -1.0329  0.2698
10384SOL     OW33158  10.582   2.965   2.597 -0.5020  0.0936 -0.4920
10384SOL    HW133159  10.633   2.917   2.532 -1.6366  1.0642 -2.1880
10384SOL    HW233160  10.633   2.959   2.678  1.5314 -0.2090 -1.7385
10385SOL     OW33161   1.750   1.788   0.776  0.3563  0.0011  0.3027
10385SOL    HW133162   1.819   1.798   0.710 -0.6646  0.9080 -0.6764
10385SOL    HW233163   1.782   1.719   0.834  1.2773 -0.8994 -1.1939
10386SOL     OW33164   4.313   7.339   4.337  0.2794 -0.3111  0.0977
10386SOL    HW133165   4.310   7.426   4.376 -0.7016 -0.8163  1.2188
10386SOL    HW233166   4.257   7.346   4.259  0.5298  0.1566 -0.0428
10387SOL     OW33167   5.871   6.669   4.851 -0.0635  0.2165 -0.0082
10387SOL    HW133168   5.940   6.614   4.889  0.4413  0.0926 -1.0849
10387SOL    HW233169   5.789   6.624   4.874  0.2733 -0.2727  0.2470
10388SOL     OW33170  10.562   4.883  10.051 -0.4011  0.0007 -0.4783
10388SOL    HW133171  10.545   4.888   9.957 -0.1310 -3.2411 -0.8054
10388SOL    HW233172  10.483   4.843  10.087 -0.2690  0.6919  0.6160
10389SOL     OW33173   1.495   0.246   1.029  0.3805 -0.4740 -0.0557
10389SOL    HW133174   1.435   0.301   1.079 -0.9059 -0.5471 -1.4361
10389SOL    HW233175   1.538   0.307   0.969  1.5805 -0.4546  0.7995
10390SOL     OW33176  11.026  10.041   9.449 -0.5960 -0.5521 -0.1106
10390SOL    HW133177  10.984   9.955   9.439  0.1016 -1.0434  0.9814
10390SOL    HW233178  11.062  10.060   9.362 -0.7390 -1.3723 -0.3617
10391SOL     OW33179   4.843   8.915  10.305  1.3526 -0.0946 -0.2211
10391SOL    HW133180   4.848   8.923  10.210 -2.8207  0.9642 -0.5166
10391SOL    HW233181   4.892   8.991  10.338  1.9274  0.1318 -1.5425
10392SOL     OW33182   0.911  11.178   8.692  0.4796  0.6460 -0.2605
10392SOL    HW133183   0.986  11.136   8.734  0.6895  1.2877  0.0064
10392SOL    HW233184   0.868  11.227   8.762  1.1171  2.1309 -0.8742
10393SOL     OW33185   6.751   2.206   5.569 -0.5118 -0.1093 -0.5051
10393SOL    HW133186   6.783   2.280   5.517 -0.3655 -1.2988 -2.1992
10393SOL    HW233187   6.792   2.218   5.655 -1.1305  2.1738 -0.4651
10394SOL     OW33188   1.499  10.505   1.018  0.4322 -0.1393 -0.1212
10394SOL    HW133189   1.494  10.450   0.940 -2.1069  0.2573 -0.3187
10394SOL    HW233190   1.526  10.445   1.088  2.8103 -0.4812 -1.2201
10395SOL     OW33191   0.949   7.029   3.481 -0.3232 -0.2097  0.5198
10395SOL    HW133192   1.021   7.087   3.506  0.0721 -0.6532  0.4211
10395SOL    HW233193   0.974   6.996   3.395 -1.1507  0.4511  0.0097
10396SOL     OW33194   5.674   6.544   1.635  0.2386  0.5919 -0.2628
10396SOL    HW133195   5.599   6.485   1.640  1.5549 -1.0531  1.4435
10396SOL    HW233196   5.746   6.489   1.604  1.3964  1.4017  0.9038
10397SOL     OW33197   4.492   0.971   1.421 -0.5400  0.1098 -0.6001
10397SOL    HW133198   4.503   0.953   1.328 -1.6841  2.0516 -1.1454
10397SOL    HW233199   4.462   0.888   1.458  0.3080 -0.7896 -1.8601
10398SOL     OW33200   6.137   5.954   1.314 -0.2320 -0.1438 -0.5740
10398SOL    HW133201   6.169   6.023   1.257  0.3858 -1.2346 -1.5995
10398SOL    HW233202   6.179   5.970   1.399  0.3943  0.3691 -0.9775
10399SOL     OW33203   9.035   5.062   5.500  0.4511 -0.3427  0.0983
10399SOL    HW133204   9.100   5.047   5.568 -0.5634  0.5381  1.2925
10399SOL    HW233205   8.950   5.055   5.544 -0.2263  3.2977 -0.3074
10400SOL     OW33206   4.364   7.508   3.832  0.8779 -1.1421  0.0659
10400SOL    HW133207   4.453   7.535   3.852  1.2691 -1.8605 -0.6468
10400SOL    HW233208   4.344   7.441   3.897  0.4567 -0.2437  0.8878
10401SOL     OW33209  10.504   9.932   7.835  0.4865 -0.3478 -0.2611
10401SOL    HW133210  10.568   9.885   7.782  0.0584 -0.3641 -0.7748
10401SOL    HW233211  10.540  10.020   7.843  0.3970 -0.2490 -0.8690
10402SOL     OW33212   3.675   1.589   8.108  0.2401  0.2716 -0.3998
10402SOL    HW133213   3.589   1.549   8.096  1.3504 -2.0596 -1.3167
10402SOL    HW233214   3.687   1.590   8.203 -0.7108  0.4672 -0.2668
10403SOL     OW33215  10.581  11.201   0.007 -0.6944  0.4747 -0.4852
10403SOL    HW133216  10.505  11.243  -0.034 -2.3639 -0.9617  1.0163
10403SOL    HW233217  10.576  11.110  -0.021  1.4569  0.6316 -1.6547
10404SOL     OW33218   2.798   8.238   1.099 -0.7638 -0.1015  0.0984
10404SOL    HW133219   2.778   8.212   1.189 -0.0043 -1.8920 -0.2019
10404SOL    HW233220   2.717   8.225   1.051 -1.4813  1.8586  0.6645
10405SOL     OW33221   9.369   2.783   3.511  0.2660 -0.1935 -0.0700
10405SOL    HW133222   9.389   2.806   3.602  1.7318 -0.9455 -0.1642
10405SOL    HW233223   9.399   2.692   3.503  1.9128  0.4469 -1.8001
10406SOL     OW33224   5.327   9.742  10.366  0.5718  0.5494 -0.1547
10406SOL    HW133225   5.379   9.794  10.304  1.9518  0.1127  0.5844
10406SOL    HW233226   5.386   9.728  10.440 -0.9092  0.7071  1.0838
10407SOL     OW33227  11.165   5.350   3.317  0.8723 -0.6448 -0.4847
10407SOL    HW133228  11.121   5.338   3.233 -1.3044  0.1479  0.4724
10407SOL    HW233229  11.170   5.445   3.327  1.1040 -0.7332  0.2758
10408SOL     OW33230   0.424  10.123   7.959  0.0791  0.6176  0.1097
10408SOL    HW133231   0.398  10.125   7.867  0.3165 -0.5634 -0.0029
10408SOL    HW233232   0.434  10.215   7.984  0.8091  0.9343 -1.2720
10409SOL     OW33233   4.449  10.719   9.656 -0.6991 -0.0997  0.1168
10409SOL    HW133234   4.449  10.624   9.642 -1.0419 -0.1571  0.4755
10409SOL    HW233235   4.380  10.752   9.598 -0.2253 -0.0031 -0.4027
10410SOL     OW33236   2.861   2.417   3.885  0.4486 -0.9552  0.2229
10410SOL    HW133237   2.793   2.364   3.845  0.1913 -0.4885  0.0273
10410SOL    HW233238   2.907   2.456   3.811  2.5799 -3.2247  0.2196
10411SOL     OW33239   9.743   0.682   9.467  0.3941  0.3826  0.3285
10411SOL    HW133240   9.829   0.718   9.487  0.2076  1.0019  0.0120
10411SOL    HW233241   9.717   0.723   9.385 -1.3023  2.1892  1.6526
10412SOL     OW33242   4.065   8.488   0.845 -0.1434  0.4222 -0.3268
10412SOL    HW133243   4.069   8.571   0.894 -0.2883 -0.1782  0.7267
10412SOL    HW233244   4.140   8.492   0.786 -0.3740  1.4799 -0.5758
10413SOL     OW33245   8.567   5.151   1.149  0.7094  0.0959 -0.4631
10413SOL    HW133246   8.604   5.086   1.090 -0.4966 -1.5156  0.4843
10413SOL    HW233247   8.472   5.135   1.146  0.2362  2.5907 -1.0819
10414SOL     OW33248   3.517   2.720   8.660 -0.1269 -0.0593  0.0779
10414SOL    HW133249   3.528   2.670   8.579  0.4407  0.4867 -0.1973
10414SOL    HW233250   3.430   2.760   8.652  0.5420  1.2817 -1.0238
10415SOL     OW33251  10.977   1.623   5.461  0.6700  0.0275  0.5584
10415SOL    HW133252  10.920   1.686   5.505 -1.1897 -1.6098  0.6542
10415SOL    HW233253  10.980   1.548   5.520 -0.4128 -1.5070 -1.2109
10416SOL     OW33254   5.887   2.209   7.351  0.3718 -0.5211  0.3640
10416SOL    HW133255   5.885   2.147   7.424  0.5184 -3.1980 -1.7289
10416SOL    HW233256   5.950   2.172   7.289  0.9904  2.1438 -0.7624
10417SOL     OW33257   8.179  10.459   2.947  0.5380  0.5957 -0.2288
10417SOL    HW133258   8.098  10.506   2.969  0.2982 -0.0251  0.2677
10417SOL    HW233259   8.191  10.474   2.854  0.3263  1.4255 -0.1258
10418SOL     OW33260   7.450   9.395   1.601 -0.1510 -0.6864  0.2259
10418SOL    HW133261   7.394   9.427   1.671 -1.4912  1.9705 -1.8480
10418SOL    HW233262   7.467   9.473   1.547  2.0205 -2.2812 -1.5889
10419SOL     OW33263  11.163   1.062   1.076  0.3668 -0.4482  0.1589
10419SOL    HW133264  11.155   0.967   1.072  2.2734 -0.6248 -0.5752
10419SOL    HW233265  11.248   1.076   1.117 -0.1269  0.9626  0.7426
10420SOL     OW33266   8.379   8.917   2.138 -0.1108 -0.4764 -0.0324
10420SOL    HW133267   8.318   8.852   2.173  0.3754 -0.9118  0.0115
10420SOL    HW233268   8.322   8.988   2.107 -0.5673 -0.0122  1.7150
10421SOL     OW33269  10.180   0.896   1.009 -0.5204  0.2618  0.0670
10421SOL    HW133270  10.210   0.829   0.947 -0.6724  0.5814 -0.3596
10421SOL    HW233271  10.159   0.972   0.954  2.5973  1.7910  0.7848
10422SOL     OW33272   4.715   5.854   8.992 -0.3415 -0.1628  0.2195
10422SOL    HW133273   4.647   5.921   8.997  0.4535  0.8240 -1.3513
10422SOL    HW233274   4.729   5.842   8.898 -0.4598 -2.5748  0.4462
10423SOL     OW33275   9.180  10.807   6.364 -0.4100  0.0288 -0.7195
10423SOL    HW133276   9.184  10.728   6.419 -0.5328  0.4123 -0.1463
10423SOL    HW233277   9.220  10.780   6.281  1.2675 -0.1292  0.0974
10424SOL     OW33278  10.214   6.071   3.679  0.5205  0.4272  0.5185
10424SOL    HW133279  10.138   6.065   3.622  2.2117 -1.3395 -1.7805
10424SOL    HW233280  10.201   6.003   3.744  1.1400 -1.6074 -1.3484
10425SOL     OW33281   4.588   8.120   8.667 -0.4285 -0.2117 -0.1347
10425SOL    HW133282   4.607   8.203   8.710 -0.6049  0.6664 -1.6769
10425SOL    HW233283   4.660   8.108   8.604 -1.2923 -0.3431 -1.1303
10426SOL     OW33284   0.278   5.213   2.524 -0.4548  0.8842  0.0877
10426SOL    HW133285   0.288   5.150   2.596  0.3071  0.9360  0.0333
10426SOL    HW233286   0.187   5.202   2.496 -0.4289  0.0464  0.2943
10427SOL     OW33287   3.065   4.756   1.550  0.0464  0.2129  0.4223
10427SOL    HW133288   3.058   4.838   1.502 -2.7904 -1.1297 -1.7981
10427SOL    HW233289   3.032   4.776   1.637 -2.5753  1.0898 -0.6802
10428SOL     OW33290   8.722   6.223   7.026  0.1517 -0.0167  0.1760
10428SOL    HW133291   8.650   6.166   6.998 -0.0115  1.1896 -2.1180
10428SOL    HW233292   8.730   6.206   7.120 -2.8874 -0.4917  0.4795
10429SOL     OW33293   8.820   9.852   8.025 -0.2260 -0.1557  0.1539
10429SOL    HW133294   8.870   9.920   8.070 -0.8996  1.9791 -2.1078
10429SOL    HW233295   8.863   9.843   7.940 -1.3644 -1.1095 -0.3408
10430SOL     OW33296   3.344   9.569   7.183  0.3765 -0.7772  0.8126
10430SOL    HW133297   3.256   9.560   7.146  1.4581 -0.3298 -2.1201
10430SOL    HW233298   3.334   9.633   7.253 -1.1281  2.0426 -1.7366
10431SOL     OW33299   0.758   9.894   9.919 -0.2201  0.4445 -0.4956
10431SOL    HW133300   0.835   9.908   9.863  1.4441 -1.1606  1.2467
10431SOL    HW233301   0.704   9.832   9.870  0.7776 -0.2613 -0.7293
10432SOL     OW33302  10.095  10.188   3.336  0.3577 -0.3821 -0.1465
10432SOL    HW133303  10.171  10.243   3.317  0.1508  0.0106  0.1437
10432SOL    HW233304  10.072  10.210   3.426 -1.6787  1.4498 -0.9967
10433SOL     OW33305   1.256   8.292   4.493  0.4311  0.6538 -0.5874
10433SOL    HW133306   1.215   8.303   4.407 -0.7312  1.8897  0.0880
10433SOL    HW233307   1.319   8.222   4.480 -0.6289 -0.0784 -2.1264
10434SOL     OW33308  10.046  10.741   9.297  0.5527  0.2400  0.0154
10434SOL    HW133309  10.068  10.656   9.335  1.3964  0.8525  0.9243
10434SOL    HW233310  10.093  10.743   9.213  0.4620 -0.2157 -0.0492
10435SOL     OW33311   9.374   1.587   1.850  0.5096 -0.5882 -0.0727
10435SOL    HW133312   9.410   1.624   1.770  3.1525  1.3944  1.8422
10435SOL    HW233313   9.299   1.642   1.871  2.3722  1.6896  0.9562
10436SOL     OW33314   6.565   1.072   1.305 -0.1428  0.0976 -0.3030
10436SOL    HW133315   6.574   1.042   1.214  2.3073 -0.9962  0.2182
10436SOL    HW233316   6.484   1.032   1.336  0.4720 -1.9516 -1.1755
10437SOL     OW33317   7.504   8.327   4.600  0.6652 -0.2414 -1.0339
10437SOL    HW133318   7.599   8.330   4.599  0.6910  1.8425 -3.8227
10437SOL    HW233319   7.480   8.302   4.511 -1.4547 -2.2437 -0.0121
10438SOL     OW33320   9.922   9.861   7.445  0.0466 -0.4456 -0.1488
10438SOL    HW133321   9.965   9.792   7.496 -0.5128  0.2104  1.2693
10438SOL    HW233322   9.984   9.934   7.447 -0.3052 -0.1538  0.2696
10439SOL     OW33323   3.581   7.206   7.380 -0.1484 -0.0883 -0.3679
10439SOL    HW133324   3.579   7.257   7.461 -1.7938 -1.3437  0.4500
10439SOL    HW233325   3.568   7.271   7.310 -2.8307  0.6216  0.6806
10440SOL     OW33326   2.819   6.660  11.270 -0.7206  0.5530  0.0916
10440SOL    HW133327   2.728   6.646  11.245 -0.5149  0.5809 -0.7016
10440SOL    HW233328   2.869   6.602  11.212 -0.4099 -2.1305  2.7903
10441SOL     OW33329   6.796   9.369   5.847 -0.0229 -0.6566 -0.1662
10441SOL    HW133330   6.795   9.392   5.940 -0.6224  1.6771 -0.6714
10441SOL    HW233331   6.713   9.323   5.832 -0.4163 -0.0924  0.2542
10442SOL     OW33332   8.949   5.229  11.140 -0.0730 -0.3000 -0.2287
10442SOL    HW133333   9.000   5.260  11.066  1.2725 -1.8814 -0.0310
10442SOL    HW233334   8.864   5.205  11.102 -0.0520  0.6444 -0.8997
10443SOL     OW33335  10.336   9.767   7.975 -0.5932  0.6293 -0.3770
10443SOL    HW133336  10.264   9.745   7.915 -1.8477  2.3892  0.3972
10443SOL    HW233337  10.393   9.824   7.923 -1.7143  2.2069  0.0218
10444SOL     OW33338   7.026   9.929  10.866 -0.8968 -0.4341 -0.0681
10444SOL    HW133339   6.970   9.965  10.934 -1.0932 -0.1948 -0.3552
10444SOL    HW233340   6.965   9.893  10.802 -0.7105 -0.8415 -0.0228
10445SOL     OW33341   9.252   0.642   8.790  0.3177  0.1558 -0.1028
10445SOL    HW133342   9.188   0.570   8.787 -0.8056  1.0707  0.9382
10445SOL    HW233343   9.238   0.690   8.709  0.2564 -0.1123 -0.2544
10446SOL     OW33344   6.901   6.579   4.763  0.3676 -0.0461 -0.4431
10446SOL    HW133345   6.838   6.647   4.787  0.8998  0.7358 -1.1935
10446SOL    HW233346   6.886   6.564   4.670  0.4613 -0.7430 -0.3516
10447SOL     OW33347   1.151   5.981   1.614  0.0420  0.1998 -0.1579
10447SOL    HW133348   1.093   5.942   1.547  0.5207  1.9210 -1.6355
10447SOL    HW233349   1.221   6.021   1.564  1.6291 -0.3501  1.5419
10448SOL     OW33350   4.071   1.967   3.749 -0.0889  0.0413  0.0796
10448SOL    HW133351   4.107   1.978   3.661  0.7695 -0.6799  0.3242
10448SOL    HW233352   3.997   2.027   3.752 -0.8710 -0.7612 -1.5451
10449SOL     OW33353   3.302   2.458   4.349  0.7187  0.2183  0.7253
10449SOL    HW133354   3.278   2.433   4.438  0.5623  0.4022  0.7351
10449SOL    HW233355   3.272   2.385   4.295 -1.9343  1.4016  0.4510
10450SOL     OW33356   2.102   5.655   5.927 -0.0118  0.3416  0.2698
10450SOL    HW133357   2.183   5.676   5.882  0.1669 -1.3100 -0.2247
10450SOL    HW233358   2.129   5.625   6.014 -0.2377  1.5656  0.7916
10451SOL     OW33359  11.282   5.928   1.248 -0.1740 -0.1373  0.5070
10451SOL    HW133360  11.236   5.955   1.327  0.1274 -0.5784  0.8330
10451SOL    HW233361  11.238   5.976   1.177 -1.4944 -0.9320  0.7499
10452SOL     OW33362   6.876   0.829   6.468 -0.5314  0.4377 -0.4217
10452SOL    HW133363   6.831   0.814   6.551  1.9539 -0.9800  0.7875
10452SOL    HW233364   6.953   0.881   6.492 -0.4466  1.1387 -2.0854
10453SOL     OW33365   4.561   2.519   5.372 -0.6741 -0.2158  0.9741
10453SOL    HW133366   4.553   2.581   5.444  0.6996  0.5750  0.4811
10453SOL    HW233367   4.634   2.462   5.396  0.9171  1.0799 -0.4371
10454SOL     OW33368   6.619   5.366   5.361  0.0180  0.0808 -0.1379
10454SOL    HW133369   6.669   5.306   5.415  2.3578  0.9745 -1.2055
10454SOL    HW233370   6.674   5.444   5.353 -0.9557  0.6231 -2.4591
10455SOL     OW33371   3.843   4.136   9.134 -0.4092 -1.2054  0.8214
10455SOL    HW133372   3.848   4.215   9.187  1.0945 -1.4186  1.0419
10455SOL    HW233373   3.901   4.074   9.178 -0.0879 -1.7939 -0.3952
10456SOL     OW33374   7.389   4.384  11.122 -0.4166 -0.1943  0.5582
10456SOL    HW133375   7.321   4.447  11.096  0.4780  0.1782 -1.0353
10456SOL    HW233376   7.459   4.438  11.157 -0.5057 -0.4936  1.2085
10457SOL     OW33377   9.833   5.295   5.696  0.6185 -0.1660  0.3087
10457SOL    HW133378   9.796   5.233   5.758 -0.8377 -1.9671 -2.1734
10457SOL    HW233379   9.789   5.378   5.716  0.1028 -0.7093  1.5605
10458SOL     OW33380   3.547   7.448   9.404  0.2224  0.5418  0.0514
10458SOL    HW133381   3.544   7.492   9.489 -2.3110 -2.7157  1.8817
10458SOL    HW233382   3.472   7.483   9.356 -0.5231 -0.1757  0.6628
10459SOL     OW33383   6.496   1.838  10.959  0.1996 -0.2933 -0.6016
10459SOL    HW133384   6.453   1.902  10.902 -1.6733 -1.3525 -0.4631
10459SOL    HW233385   6.547   1.783  10.900  1.7790  1.2135 -0.7280
10460SOL     OW33386   7.760   2.779   2.798  0.3010  0.1553  0.4899
10460SOL    HW133387   7.690   2.838   2.770  0.2949  1.0387  2.2015
10460SOL    HW233388   7.726   2.738   2.878  0.6580 -1.5275 -0.1998
10461SOL     OW33389   2.369   9.313   1.352  0.9703 -0.8173  0.5096
10461SOL    HW133390   2.440   9.376   1.336  1.5804 -1.4792  0.5310
10461SOL    HW233391   2.414   9.228   1.360  0.0890 -1.4340 -0.6481
10462SOL     OW33392  10.116   5.793   8.876 -0.1150 -0.4174 -0.0992
10462SOL    HW133393  10.080   5.805   8.964 -0.3196 -1.4607 -0.0368
10462SOL    HW233394  10.203   5.756   8.890 -0.7038 -1.9488 -0.3600
10463SOL     OW33395   1.416   8.287   3.497 -0.4450 -0.3154  0.5481
10463SOL    HW133396   1.499   8.251   3.468 -0.2764 -1.0564  1.9268
10463SOL    HW233397   1.412   8.270   3.591 -1.4349  1.1408  0.8172
10464SOL     OW33398   5.438   9.895   3.500 -0.2484 -0.1601 -0.5638
10464SOL    HW133399   5.402   9.853   3.578  1.1074  0.9185  0.7075
10464SOL    HW233400   5.482   9.824   3.453 -1.0695 -0.8235 -0.3639
10465SOL     OW33401   5.516   5.597   2.096  0.6627  0.9164 -0.2018
10465SOL    HW133402   5.421   5.609   2.094  0.6218  0.6128 -0.1776
10465SOL    HW233403   5.542   5.627   2.183  0.2588 -1.2841  0.7337
10466SOL     OW33404   8.845   3.745   9.028 -0.1754 -0.5806  0.6994
10466SOL    HW133405   8.851   3.776   9.119 -2.3600  1.1532  0.3550
10466SOL    HW233406   8.863   3.652   9.033  2.2483 -0.1160  2.5272
10467SOL     OW33407   2.679   3.700   3.390 -0.4453 -0.1307  0.1712
10467SOL    HW133408   2.715   3.735   3.308  0.3160 -0.5575  0.3149
10467SOL    HW233409   2.718   3.755   3.458  2.2635 -2.3373  0.5536
10468SOL     OW33410  10.917   0.870   3.718  0.1035 -0.2802 -0.3235
10468SOL    HW133411  10.952   0.911   3.797  0.3689 -0.4830 -0.3362
10468SOL    HW233412  10.918   0.940   3.653  1.4428 -0.5462 -0.6070
10469SOL     OW33413   1.194   5.185   9.143 -0.2837 -0.6303 -0.4469
10469SOL    HW133414   1.112   5.189   9.094  0.2218  2.2792 -1.2555
10469SOL    HW233415   1.166   5.189   9.235 -1.0810 -1.6320 -0.6241
10470SOL     OW33416   5.617   4.254   2.053 -0.0710  0.2897 -0.5256
10470SOL    HW133417   5.694   4.217   2.011  0.6595  2.0220 -0.8009
10470SOL    HW233418   5.582   4.317   1.990 -3.8953 -2.8587 -1.9766
10471SOL     OW33419   0.650  10.119   5.217  0.0063 -0.0534 -0.3226
10471SOL    HW133420   0.672  10.143   5.307 -0.5626  0.0050 -0.2012
10471SOL    HW233421   0.735  10.097   5.178  0.2003 -0.5979  0.3789
10472SOL     OW33422   5.773   4.367   3.899  0.1307 -0.0156  0.4623
10472SOL    HW133423   5.801   4.400   3.814 -0.6208  0.3734  0.3504
10472SOL    HW233424   5.722   4.439   3.937  0.4594 -0.1858  1.2398
10473SOL     OW33425   2.330   4.485  10.335  0.0021  0.1790 -0.0489
10473SOL    HW133426   2.293   4.397  10.326  1.8916 -1.2912  4.0852
10473SOL    HW233427   2.424   4.472  10.322  0.0634  2.3135 -2.4778
10474SOL     OW33428   3.549   1.354  11.202  0.1171  0.0028  0.4895
10474SOL    HW133429   3.581   1.314  11.283  1.6491  0.7905  0.3029
10474SOL    HW233430   3.584   1.299  11.132 -2.8158 -1.8564  0.3089
10475SOL     OW33431  10.513   7.290   8.420 -0.0526 -0.0360  0.3674
10475SOL    HW133432  10.526   7.383   8.439  1.0295 -0.5999  2.7444
10475SOL    HW233433  10.422   7.273   8.441  0.3737  0.0077  2.4236
10476SOL     OW33434   7.949  10.349   0.065  0.2075 -0.0270  0.3282
10476SOL    HW133435   7.888  10.423   0.061 -0.3770 -0.5501 -0.9528
10476SOL    HW233436   7.999  10.354  -0.017  1.4090 -0.0282  1.0401
10477SOL     OW33437   2.273   9.067   8.328 -0.1087 -0.4316  0.2155
10477SOL    HW133438   2.288   9.013   8.250  2.0721  1.6526 -0.9568
10477SOL    HW233439   2.338   9.036   8.391  0.7679  0.3984 -0.2565
10478SOL     OW33440   4.743   9.238   1.267 -0.3965  1.2985 -0.0193
10478SOL    HW133441   4.743   9.155   1.313 -2.6265 -0.1603 -2.3669
10478SOL    HW233442   4.697   9.299   1.326 -0.7362  0.2641  0.8060
10479SOL     OW33443   6.812   4.447  10.073 -0.2261  0.3540 -0.8518
10479SOL    HW133444   6.812   4.357  10.105  1.5582  0.5473 -0.1895
10479SOL    HW233445   6.727   4.482  10.099 -1.3498 -1.3945 -1.9700
10480SOL     OW33446   7.952   7.350   6.647  0.2093  0.8298 -0.2848
10480SOL    HW133447   7.984   7.428   6.692 -1.2127  0.5145  1.3593
10480SOL    HW233448   8.002   7.278   6.686  2.4393  0.9193 -2.6738
10481SOL     OW33449   1.787   5.287   2.603  0.2513  0.3560  0.4019
10481SOL    HW133450   1.778   5.301   2.697 -0.9964  0.3597  0.3018
10481SOL    HW233451   1.703   5.249   2.576  0.5934  0.3396 -0.7078
10482SOL     OW33452   0.049   7.900   1.022  0.0029 -0.1823  0.4525
10482SOL    HW133453  -0.031   7.931   0.979 -0.4981 -2.3220 -0.2803
10482SOL    HW233454   0.022   7.821   1.068  2.2777 -3.1667 -2.7974
10483SOL     OW33455   9.876   4.905  10.610 -0.4872  0.3274  0.4307
10483SOL    HW133456   9.902   4.863  10.528  1.3737 -0.2631  1.2718
10483SOL    HW233457   9.958   4.928  10.653 -1.4161  0.9586  1.9662
10484SOL     OW33458   4.102   2.894   8.533 -0.0077  0.3785 -0.2852
10484SOL    HW133459   4.155   2.918   8.610  0.0687  0.1656 -0.2717
10484SOL    HW233460   4.021   2.944   8.543 -0.6779 -0.8669  0.7812
10485SOL     OW33461   6.793   8.203   0.593  0.0343 -0.1305  0.0777
10485SOL    HW133462   6.779   8.195   0.687  1.3116  1.8662  0.4891
10485SOL    HW233463   6.755   8.288   0.570 -0.7664 -0.8293 -1.3443
10486SOL     OW33464   4.746   5.319  11.138  0.0785 -0.0369 -0.2463
10486SOL    HW133465   4.673   5.288  11.084  0.0893 -0.0377 -0.2604
10486SOL    HW233466   4.739   5.267  11.218  0.0259  0.0082 -0.2218
10487SOL     OW33467   1.741   6.904   8.180 -0.4507 -0.1354  0.0598
10487SOL    HW133468   1.778   6.970   8.238  0.6600 -0.8053  0.1510
10487SOL    HW233469   1.731   6.948   8.096  0.1555  0.1800  0.1497
10488SOL     OW33470   8.545   3.143   7.404  0.7535  0.2697 -0.2206
10488SOL    HW133471   8.521   3.078   7.470  1.8247  0.4072  0.3174
10488SOL    HW233472   8.588   3.092   7.335  1.0430  0.3335 -0.0856
10489SOL     OW33473   3.520   8.602  10.490  0.4366 -0.2661 -0.0351
10489SOL    HW133474   3.582   8.538  10.525 -0.1601 -1.7778 -1.6326
10489SOL    HW233475   3.572   8.682  10.478  0.9858 -0.0772  2.8376
10490SOL     OW33476   5.656  10.429   5.123 -0.3814  0.2328 -0.1026
10490SOL    HW133477   5.574  10.426   5.075  1.5552 -0.0488 -3.7387
10490SOL    HW233478   5.685  10.338   5.128  0.7908  0.5167 -1.0802
10491SOL     OW33479  10.584   6.681  10.326 -0.2019  0.5708 -0.0904
10491SOL    HW133480  10.509   6.714  10.276  0.0656  1.3457  0.0106
10491SOL    HW233481  10.625   6.617  10.268  0.5973  2.0566 -1.2272
10492SOL     OW33482   9.384   2.791   4.992  0.6466 -0.0183 -0.6871
10492SOL    HW133483   9.323   2.754   5.056  1.5724 -0.5723 -0.1003
10492SOL    HW233484   9.451   2.724   4.981  2.6388  1.6081  0.7598
10493SOL     OW33485   2.345   5.205   7.301 -0.6134  0.5480  0.0958
10493SOL    HW133486   2.307   5.119   7.282 -0.4741  0.3886  0.5337
10493SOL    HW233487   2.439   5.193   7.286 -0.1902 -0.1770  2.8829
10494SOL     OW33488   0.435   3.388   5.793  0.2349 -0.4338 -0.1286
10494SOL    HW133489   0.342   3.389   5.815  0.6933  0.6598  2.0756
10494SOL    HW233490   0.445   3.454   5.725 -0.2795  1.2361  1.3565
10495SOL     OW33491   6.155   7.463   8.295 -0.0264  0.0585  1.0945
10495SOL    HW133492   6.236   7.497   8.258  0.2224  0.1077  1.6801
10495SOL    HW233493   6.147   7.375   8.257 -0.7012  0.7488 -0.4618
10496SOL     OW33494   0.980   0.360   9.620 -1.1457  0.8836  0.9141
10496SOL    HW133495   1.073   0.374   9.601 -0.8699 -2.1079 -0.4504
10496SOL    HW233496   0.934   0.411   9.554 -0.3238 -0.9202 -1.1550
10497SOL     OW33497   0.346  10.092   4.308  1.0687 -0.3043  0.4254
10497SOL    HW133498   0.357  10.170   4.254  1.4018 -0.3029  0.4944
10497SOL    HW233499   0.347  10.019   4.246  0.6228 -0.2453  0.3472
10498SOL     OW33500   7.331   4.332   9.805  0.1686  0.1944  0.3748
10498SOL    HW133501   7.361   4.361   9.892 -1.0939 -0.5351  1.0909
10498SOL    HW233502   7.321   4.238   9.813 -2.5603  0.4100  0.3251
10499SOL     OW33503   8.541   5.970   5.561  0.2756  0.7366 -0.1907
10499SOL    HW133504   8.517   6.059   5.533  1.8130  0.8569 -1.2581
10499SOL    HW233505   8.560   5.924   5.480  0.6676 -0.2105  0.4284
10500SOL     OW33506   9.305  10.425  11.262 -0.2625 -0.0220  0.4927
10500SOL    HW133507   9.391  10.425  11.220 -0.1295 -3.2344  0.5652
10500SOL    HW233508   9.267  10.510  11.239  3.3082  2.0143  1.4086
10501SOL     OW33509   4.770   1.023   9.843 -1.0288  0.6257 -0.2203
10501SOL    HW133510   4.694   1.055   9.794 -1.4954 -0.3721 -0.1761
10501SOL    HW233511   4.734   0.966   9.910 -0.2763  0.6710  0.2398
10502SOL     OW33512  10.519   4.941   0.903  0.4803  0.2719  0.0917
10502SOL    HW133513  10.426   4.964   0.900  0.5283  0.5611  0.5467
10502SOL    HW233514  10.564   5.026   0.906  0.7811  0.1404 -0.5098
10503SOL     OW33515   8.745   4.155   8.350 -0.0795 -0.8131  0.0791
10503SOL    HW133516   8.690   4.234   8.347  1.0931  0.1067  1.2965
10503SOL    HW233517   8.687   4.086   8.380 -1.5661 -0.8774 -2.5710
10504SOL     OW33518   5.675   9.327  11.017  0.1520 -0.7520 -0.6836
10504SOL    HW133519   5.676   9.328  11.112  0.2867  1.0885 -0.6505
10504SOL    HW233520   5.736   9.257  10.992 -0.8895 -2.1301  0.5422
10505SOL     OW33521   2.697   4.217   4.711 -0.1986 -0.8795 -0.0263
10505SOL    HW133522   2.606   4.234   4.733 -0.1083 -1.5401  0.9261
10505SOL    HW233523   2.696   4.134   4.664 -0.0497 -1.0836  0.3287
10506SOL     OW33524  10.558   9.889   8.420  0.0520  0.0598 -0.5347
10506SOL    HW133525  10.624   9.833   8.379 -1.0118 -1.5558 -0.1751
10506SOL    HW233526  10.607   9.950   8.474  1.2527 -1.1537 -0.2082
10507SOL     OW33527   7.286   1.136   2.220 -0.3899 -0.0117 -0.1667
10507SOL    HW133528   7.326   1.172   2.141 -3.0138  2.0532 -0.6800
10507SOL    HW233529   7.235   1.061   2.189 -1.8972  1.1498 -0.6272
10508SOL     OW33530   0.748   5.908   1.996  0.0620  0.3760  0.3769
10508SOL    HW133531   0.677   5.845   2.007  0.1571  0.5955  3.1824
10508SOL    HW233532   0.784   5.890   1.909 -0.9844 -2.2770  0.3967
10509SOL     OW33533   2.176   4.640   7.952 -0.0818 -0.6025 -0.0150
10509SOL    HW133534   2.114   4.620   7.882  0.4164 -2.6741  0.0771
10509SOL    HW233535   2.241   4.697   7.910 -1.4690  0.7946 -0.3570
10510SOL     OW33536   3.574   3.463   7.182 -0.1970 -0.4755  0.8327
10510SOL    HW133537   3.575   3.476   7.277 -0.3685  0.0385  0.7702
10510SOL    HW233538   3.489   3.423   7.165 -1.9149  2.8938  0.5125
10511SOL     OW33539   0.691   5.078   7.996 -0.0630 -0.0689  0.2748
10511SOL    HW133540   0.657   5.131   7.924 -2.3058 -1.6527  0.0359
10511SOL    HW233541   0.786   5.086   7.990 -0.2357  1.2050 -1.7870
10512SOL     OW33542  10.815   4.146   0.196 -0.0423  0.3204  0.4866
10512SOL    HW133543  10.876   4.218   0.180 -0.1085  0.3313  0.2886
10512SOL    HW233544  10.825   4.088   0.121  0.4044 -0.1533  0.9055
10513SOL     OW33545   9.428   2.181   2.650  1.0611  0.3708  0.2179
10513SOL    HW133546   9.389   2.233   2.720 -1.0443  0.0521 -0.6288
10513SOL    HW233547   9.353   2.146   2.602  2.4193 -1.2936 -0.8203
10514SOL     OW33548  10.921   7.394   2.721  0.1274 -0.3788  0.0005
10514SOL    HW133549  10.888   7.364   2.806 -1.2814  0.3584 -0.2503
10514SOL    HW233550  10.960   7.316   2.682  0.1360 -0.9069  1.0193
10515SOL     OW33551   9.577   6.498   4.460 -0.1867 -0.2798 -0.3176
10515SOL    HW133552   9.505   6.447   4.497 -0.5547  0.1192 -0.4769
10515SOL    HW233553   9.560   6.497   4.365  1.1516 -1.9260 -0.5841
10516SOL     OW33554   5.230   8.622   5.057  0.3269 -0.3239 -0.6141
10516SOL    HW133555   5.237   8.555   5.125 -1.2077  1.0371  0.9958
10516SOL    HW233556   5.320   8.652   5.044  0.6365 -0.3533  1.1474
10517SOL     OW33557   1.838   5.157   9.054  0.0989 -0.3173 -0.1044
10517SOL    HW133558   1.795   5.083   9.012  1.4021 -1.7440  0.9370
10517SOL    HW233559   1.840   5.134   9.147  0.9846  0.7784  0.1714
10518SOL     OW33560   4.834   9.967   6.471 -0.1437  0.1378  0.4148
10518SOL    HW133561   4.831   9.979   6.565 -1.7192 -1.0350  0.5533
10518SOL    HW233562   4.926   9.948   6.452  0.0307 -0.6142  1.8668
10519SOL     OW33563   7.165   4.019   0.936 -0.2398 -0.0124  0.0985
10519SOL    HW133564   7.168   3.963   0.858 -0.5876 -0.4954  0.4295
10519SOL    HW233565   7.220   3.974   1.000  0.6069  0.7300 -0.0805
10520SOL     OW33566   2.832   8.940   8.465  0.3254 -0.0921  0.0031
10520SOL    HW133567   2.769   9.010   8.447 -0.5976 -0.5970  1.1847
10520SOL    HW233568   2.796   8.893   8.539  2.2320 -0.2510  0.8902
10521SOL     OW33569   6.342   7.436   0.910  0.4110  0.3486 -0.4416
10521SOL    HW133570   6.275   7.436   0.842 -1.3864 -0.3438  1.2287
10521SOL    HW233571   6.363   7.529   0.922  0.2396  0.5283 -1.4181
10522SOL     OW33572   9.892   2.699  11.008 -0.4456 -0.0081 -0.6368
10522SOL    HW133573   9.938   2.637  10.952 -0.3836  1.0975 -1.8447
10522SOL    HW233574   9.882   2.778  10.955 -3.0946  0.0723 -0.1932
10523SOL     OW33575   6.675   5.840   8.177  0.6809  0.5981  0.5222
10523SOL    HW133576   6.762   5.873   8.200  2.0405 -2.6736  0.6694
10523SOL    HW233577   6.692   5.770   8.114 -2.1911  2.1434 -2.2411
10524SOL     OW33578   6.145   4.230   9.729  0.8892 -0.1752 -0.0324
10524SOL    HW133579   6.178   4.266   9.811  0.8414 -1.4794  0.5876
10524SOL    HW233580   6.068   4.178   9.755  0.2603  0.2228 -1.0407
10525SOL     OW33581   5.487   6.703   7.568 -0.0977 -0.0887 -0.0246
10525SOL    HW133582   5.519   6.792   7.554  0.8595 -0.6319 -1.5974
10525SOL    HW233583   5.404   6.714   7.614 -1.4312  1.7872 -2.6309
10526SOL     OW33584   0.996   5.416   2.947  0.1231 -0.4115  0.0564
10526SOL    HW133585   0.930   5.363   2.902  0.6194  0.5663 -1.9685
10526SOL    HW233586   0.998   5.498   2.897 -0.0853  1.2503  2.6180
10527SOL     OW33587   5.099   4.728   6.516  0.1792  0.0712  0.0487
10527SOL    HW133588   5.037   4.731   6.443  0.8105 -0.5665 -0.5368
10527SOL    HW233589   5.050   4.761   6.591  0.0060  2.4615 -1.0061
10528SOL     OW33590   2.385  10.114   2.239  0.1066 -0.7009 -0.0110
10528SOL    HW133591   2.390  10.208   2.221  0.1234  0.0658  3.3109
10528SOL    HW233592   2.292  10.093   2.231  0.0997 -0.4220 -0.7506
10529SOL     OW33593   1.110   5.381   4.878  0.9870  0.0949  0.0287
10529SOL    HW133594   1.197   5.422   4.875  1.7002 -1.3499 -2.1800
10529SOL    HW233595   1.051   5.451   4.907  2.9188  0.9732  2.1235
10530SOL     OW33596   6.776   8.360   8.774  0.1325 -0.1399  0.4599
10530SOL    HW133597   6.699   8.392   8.726  1.7053  1.5814 -1.0759
10530SOL    HW233598   6.810   8.290   8.718  0.5263  0.1313  0.3607
10531SOL     OW33599  10.212   3.943   7.530 -0.4180  0.3696  0.1584
10531SOL    HW133600  10.261   4.003   7.473 -0.1566 -1.8257 -2.1115
10531SOL    HW233601  10.120   3.964   7.513 -0.3272  0.6260 -0.0295
10532SOL     OW33602   4.244   1.428   3.227  0.3568 -0.0475 -0.3817
10532SOL    HW133603   4.150   1.411   3.217  0.6698 -1.2186 -1.7088
10532SOL    HW233604   4.266   1.393   3.313 -0.5006  0.7150  0.1730
10533SOL     OW33605  10.706   2.044  10.452  0.0854 -0.5548  0.4867
10533SOL    HW133606  10.635   1.980  10.439  0.9036 -1.4324  0.1612
10533SOL    HW233607  10.684   2.116  10.392 -0.2380 -1.0703 -0.0325
10534SOL     OW33608   7.834   2.222   7.974 -0.0446  0.6043 -0.3128
10534SOL    HW133609   7.836   2.286   7.903 -3.3553 -0.0405 -1.1720
10534SOL    HW233610   7.865   2.270   8.051 -2.0315  3.1803 -0.9894
10535SOL     OW33611   0.132   3.473   4.350  0.0795  0.4692 -0.2436
10535SOL    HW133612   0.225   3.489   4.366  0.9479 -0.7018 -3.3410
10535SOL    HW233613   0.093   3.560   4.348  1.8944  1.3510 -2.6146
10536SOL     OW33614   4.525   5.041  10.719 -0.7952  0.6126  0.1179
10536SOL    HW133615   4.581   5.068  10.646 -2.4247  0.1772 -1.3589
10536SOL    HW233616   4.576   4.975  10.766  0.3055  0.9268 -0.5968
10537SOL     OW33617   3.639   7.310   2.407  0.2263 -0.3170 -0.2741
10537SOL    HW133618   3.578   7.245   2.442 -0.0408 -0.4956 -1.0390
10537SOL    HW233619   3.666   7.361   2.483  0.7109 -1.5393  0.4024
10538SOL     OW33620   3.305   1.479   5.057 -0.6438 -0.1182 -0.4634
10538SOL    HW133621   3.325   1.416   4.989  1.0404  1.4629 -1.5142
10538SOL    HW233622   3.328   1.564   5.019 -2.2810  1.1008  1.0935
10539SOL     OW33623   9.187   5.892   7.800 -0.2177  0.0463 -0.3670
10539SOL    HW133624   9.113   5.854   7.753  0.1278  0.5483 -1.3399
10539SOL    HW233625   9.179   5.857   7.889 -1.7958  0.3326 -0.3638
10540SOL     OW33626   2.570   6.444   0.030 -0.0280 -0.1556 -0.2457
10540SOL    HW133627   2.579   6.394   0.111 -0.7732  0.2520  0.0934
10540SOL    HW233628   2.533   6.381  -0.033  0.4577 -0.4442 -0.2441
10541SOL     OW33629   0.993   6.148   5.838 -0.2178  0.0110  0.3723
10541SOL    HW133630   1.067   6.202   5.809 -0.6259  0.7065  0.5958
10541SOL    HW233631   0.935   6.146   5.762 -0.3068  0.0787  0.4385
10542SOL     OW33632   8.398   8.792   2.958  0.6755 -0.5819  0.1921
10542SOL    HW133633   8.337   8.792   3.032 -0.4930 -2.5766 -0.7016
10542SOL    HW233634   8.438   8.705   2.959  2.0034 -0.0054 -0.4605
10543SOL     OW33635   9.567   6.665   7.075  0.5407 -0.3565  0.3637
10543SOL    HW133636   9.591   6.736   7.134  1.5868 -0.8674  0.5772
10543SOL    HW233637   9.614   6.589   7.109 -0.3998 -1.1052  0.0197
10544SOL     OW33638   6.456   2.969   8.993 -0.3712 -0.2258  0.1636
10544SOL    HW133639   6.448   3.062   8.975  1.8443  0.1802  0.9703
10544SOL    HW233640   6.545   2.946   8.967 -1.3272 -2.5239 -1.4822
10545SOL     OW33641  11.170   9.803   2.841  0.6427  0.2461  0.2463
10545SOL    HW133642  11.176   9.723   2.894 -0.0159 -0.1473 -0.2551
10545SOL    HW233643  11.093   9.848   2.875  1.7466  1.3274  1.3903
10546SOL     OW33644   9.469   5.183   7.445 -0.0497  0.0853  0.1062
10546SOL    HW133645   9.547   5.216   7.400  0.2733  0.2019  0.7441
10546SOL    HW233646   9.403   5.176   7.376  0.3215  0.6479 -0.3185
10547SOL     OW33647   4.574   2.289   9.678 -0.4062  0.1331  0.2060
10547SOL    HW133648   4.567   2.263   9.586  2.8008  1.7308 -0.6675
10547SOL    HW233649   4.608   2.212   9.723  1.7032  0.3974 -0.8086
10548SOL     OW33650   9.783   5.590   1.844 -0.0852 -0.2719 -0.4991
10548SOL    HW133651   9.861   5.630   1.805 -1.3639  1.0593 -1.7954
10548SOL    HW233652   9.740   5.663   1.890 -0.8964 -0.8427 -0.3384
10549SOL     OW33653   1.909   6.809   5.640  0.4372  0.5960 -0.2808
10549SOL    HW133654   1.965   6.878   5.676 -1.1187  0.4955  2.5913
10549SOL    HW233655   1.825   6.852   5.625  0.5453  0.2065 -2.3995
10550SOL     OW33656  10.800   5.719   4.762  0.2615 -0.2491  0.5974
10550SOL    HW133657  10.878   5.666   4.782  0.1778 -1.2397 -1.3516
10550SOL    HW233658  10.835   5.801   4.727  0.6060 -1.6322 -2.6566
10551SOL     OW33659   6.590  10.748   7.585  0.0526  0.3750 -0.3361
10551SOL    HW133660   6.497  10.762   7.569 -1.0939 -2.4133  2.7521
10551SOL    HW233661   6.622  10.833   7.619 -2.6081  0.2744  2.9288
10552SOL     OW33662   1.734   0.783   3.885  0.7275  0.2341  0.2496
10552SOL    HW133663   1.665   0.719   3.865 -1.2209  2.1598  0.4395
10552SOL    HW233664   1.702   0.865   3.848  2.8372  1.2677  0.5756
10553SOL     OW33665   3.056   5.551   6.078  0.2191 -0.5297  0.1808
10553SOL    HW133666   3.093   5.618   6.020 -0.9736 -0.2748 -0.3210
10553SOL    HW233667   2.962   5.551   6.057 -0.1171 -0.9348  1.6134
10554SOL     OW33668   2.402   3.907   6.856  0.1501  0.2080 -0.0500
10554SOL    HW133669   2.474   3.970   6.855 -0.1560  0.6830  2.6039
10554SOL    HW233670   2.435   3.834   6.908 -0.1058 -1.1677 -1.6996
10555SOL     OW33671   7.566   0.312   3.808  0.5406 -1.0981 -0.0864
10555SOL    HW133672   7.523   0.287   3.726 -0.0561 -1.6495  0.3824
10555SOL    HW233673   7.538   0.402   3.823  0.9620 -0.8578 -0.6748
10556SOL     OW33674   7.239   8.493   9.023 -0.4369  0.4954 -0.6490
10556SOL    HW133675   7.197   8.448   8.950 -2.9370 -2.2778  2.1602
10556SOL    HW233676   7.314   8.438   9.045 -0.5391  0.4939 -0.2910
10557SOL     OW33677   6.354   5.157   0.603  0.4831 -0.1613  0.3061
10557SOL    HW133678   6.335   5.073   0.646  1.2490 -0.4228  0.1396
10557SOL    HW233679   6.347   5.137   0.509 -0.6932  0.2909  0.2838
10558SOL     OW33680   5.342   0.139   7.911 -0.5977 -0.6627  0.5650
10558SOL    HW133681   5.367   0.049   7.929  0.6260 -0.3909  0.3246
10558SOL    HW233682   5.405   0.192   7.961 -1.2519  0.0647  0.6487
10559SOL     OW33683   9.232   7.252   6.524 -0.8826 -0.7064  0.2258
10559SOL    HW133684   9.323   7.225   6.510 -0.8094  0.4162 -1.9167
10559SOL    HW233685   9.238   7.339   6.563 -1.1107 -1.8639  3.0488
10560SOL     OW33686   3.167   5.600   0.198 -0.0565  0.1332 -0.0832
10560SOL    HW133687   3.235   5.662   0.222 -0.0123  0.0695 -0.0431
10560SOL    HW233688   3.087   5.652   0.191  0.3256  0.5422 -1.8868
10561SOL     OW33689  10.153   3.943  10.782  0.1312  0.5189 -0.4707
10561SOL    HW133690  10.064   3.964  10.754  0.1104 -0.3425 -1.0887
10561SOL    HW233691  10.162   3.849  10.763  0.3877  0.0656  1.7256
10562SOL     OW33692   1.951   9.321  10.207  0.0852  0.2134  0.4787
10562SOL    HW133693   2.015   9.254  10.184 -0.7365  0.0246 -1.4325
10562SOL    HW233694   1.996   9.377  10.271  1.8731 -0.3395 -0.2407
10563SOL     OW33695   8.880   3.657   1.737  0.7949  0.3889  0.4364
10563SOL    HW133696   8.857   3.576   1.691 -0.0788 -0.4814  2.3117
10563SOL    HW233697   8.873   3.725   1.669 -1.5039 -0.6745 -0.5255
10564SOL     OW33698  11.051   7.757   3.846  0.5569  0.2690  0.0487
10564SOL    HW133699  11.062   7.768   3.751  0.6658 -0.4594 -0.0268
10564SOL    HW233700  11.019   7.668   3.856  1.0212  0.1752  0.7351
10565SOL     OW33701   6.009   1.410   1.733 -0.4147  0.5269  0.8745
10565SOL    HW133702   6.103   1.399   1.721 -0.4230  2.4893 -2.1238
10565SOL    HW233703   5.972   1.400   1.645 -2.7401  1.8140  1.6044
10566SOL     OW33704   3.162   2.355   1.712 -0.4320 -0.2392 -0.1966
10566SOL    HW133705   3.151   2.449   1.724 -0.0409 -0.3526  1.2446
10566SOL    HW233706   3.212   2.327   1.789 -2.9004 -2.0663  0.8717
10567SOL     OW33707   5.209   5.638   4.270 -0.8320  0.0825 -0.1501
10567SOL    HW133708   5.294   5.672   4.298  0.4629 -2.6656 -0.3742
10567SOL    HW233709   5.151   5.656   4.343  0.3833  0.4817  0.7526
10568SOL     OW33710   3.243   5.435   3.523  0.0834  0.2305 -0.3840
10568SOL    HW133711   3.236   5.426   3.428  0.0168  0.3994 -0.3965
10568SOL    HW233712   3.332   5.468   3.537  0.2984 -0.3711 -0.3445
10569SOL     OW33713   7.624   2.870   1.548  0.6062 -0.1774  0.4684
10569SOL    HW133714   7.594   2.784   1.579  1.0715 -0.3103  0.5630
10569SOL    HW233715   7.640   2.858   1.454 -0.4322  0.1214  0.2367
10570SOL     OW33716   4.955   0.894   8.802  0.7035 -0.8064 -0.6065
10570SOL    HW133717   4.975   0.859   8.715 -0.3903 -0.2600 -1.1057
10570SOL    HW233718   4.862   0.876   8.813  0.6541 -0.1418  0.1046
10571SOL     OW33719  10.850   9.328   4.403 -0.3124 -0.6772 -0.3868
10571SOL    HW133720  10.921   9.266   4.415 -2.1446 -3.8844 -4.0543
10571SOL    HW233721  10.882   9.388   4.335  0.7959  1.5156  1.9215
10572SOL     OW33722   2.810   9.798   6.989  0.0308  0.1948 -0.5773
10572SOL    HW133723   2.725   9.757   7.009  0.2799 -0.5489 -1.0277
10572SOL    HW233724   2.865   9.726   6.961 -0.5053  1.1898 -4.8099
10573SOL     OW33725   6.044   3.190   4.537  0.2084 -0.0577 -0.3235
10573SOL    HW133726   5.978   3.124   4.555  0.8785 -0.6645 -0.0686
10573SOL    HW233727   5.996   3.273   4.541 -0.4763 -0.4655  0.1424
10574SOL     OW33728   5.883   3.124   7.272 -0.0765  1.4282 -0.4829
10574SOL    HW133729   5.835   3.084   7.345  0.3247  2.9240  0.6602
10574SOL    HW233730   5.969   3.147   7.309  1.5380 -0.9904 -2.4116
10575SOL     OW33731   4.326   8.028   3.365  0.0298  0.9237  0.1235
10575SOL    HW133732   4.407   7.986   3.335 -0.1510 -1.2017  2.2628
10575SOL    HW233733   4.343   8.048   3.457 -1.9817  0.0071  0.7466
10576SOL     OW33734   3.679   3.154  10.036  0.2570  0.1138  0.4773
10576SOL    HW133735   3.627   3.139  10.116 -0.7381  2.6186  0.4103
10576SOL    HW233736   3.767   3.172  10.068 -0.4423  2.6027  1.2608
10577SOL     OW33737   6.491   6.345   9.615  0.6351  0.0603 -0.7058
10577SOL    HW133738   6.499   6.426   9.666 -0.0011 -0.8898  0.9816
10577SOL    HW233739   6.532   6.365   9.532 -0.3236  2.4244 -0.6828
10578SOL     OW33740   7.872   8.230   0.802 -0.0405 -0.0972  0.0505
10578SOL    HW133741   7.810   8.161   0.825  0.4747 -0.0319  1.8211
10578SOL    HW233742   7.934   8.232   0.875  1.9427 -0.0260 -1.5386
10579SOL     OW33743   5.950   8.378   1.213  0.1793 -0.2901 -0.5197
10579SOL    HW133744   5.952   8.352   1.305  0.7163 -2.2977 -1.0577
10579SOL    HW233745   5.859   8.402   1.196 -0.2767 -1.4830  0.1488
10580SOL     OW33746   4.434   8.104   0.867 -0.3391  0.3703  0.2117
10580SOL    HW133747   4.469   8.076   0.782  1.8899 -0.8046  1.3987
10580SOL    HW233748   4.366   8.040   0.887 -0.3566  0.2002 -0.3693
10581SOL     OW33749  10.228   9.268   9.219  0.1074 -0.0101  0.4819
10581SOL    HW133750  10.208   9.181   9.185  1.9073 -0.4821  0.5147
10581SOL    HW233751  10.290   9.252   9.291  0.8990  1.3036  0.1279
10582SOL     OW33752   5.500   4.171   6.129 -0.6679  0.1624 -0.0663
10582SOL    HW133753   5.473   4.239   6.067 -1.5634 -1.9883 -2.1687
10582SOL    HW233754   5.584   4.140   6.096  0.2185  0.8271  1.4421
10583SOL     OW33755   4.043  10.541   3.157 -0.6308  0.5832  0.0056
10583SOL    HW133756   4.056  10.529   3.063  0.4167  1.8814 -0.0478
10583SOL    HW233757   4.119  10.500   3.198 -0.5858  0.8783  0.2229
10584SOL     OW33758   2.765   0.106   7.764 -0.4912 -0.2251 -0.2274
10584SOL    HW133759   2.687   0.161   7.752 -0.3387 -0.1921 -1.1030
10584SOL    HW233760   2.757   0.074   7.854  0.7968  3.3925  1.3892
10585SOL     OW33761   9.197   5.988  10.462 -0.8791  0.2091 -0.3647
10585SOL    HW133762   9.115   5.986  10.414 -1.8677  1.9021  1.1506
10585SOL    HW233763   9.254   5.927  10.415 -2.6164 -0.1498 -2.1046
10586SOL     OW33764  10.188   9.946   7.569  0.0955  0.4960  0.6230
10586SOL    HW133765  10.173  10.017   7.630 -0.9241  1.7645 -1.0090
10586SOL    HW233766  10.223   9.989   7.490  0.6388 -0.9689  0.0250
10587SOL     OW33767   6.631   3.030   5.294  0.6208 -0.5623  0.3202
10587SOL    HW133768   6.571   3.000   5.225  1.3129  0.4440 -0.7646
10587SOL    HW233769   6.630   2.960   5.359  1.6044 -2.6099 -1.7357
10588SOL     OW33770   5.210   2.730   7.518  0.2290  0.0855 -0.3836
10588SOL    HW133771   5.265   2.793   7.472 -0.1917 -0.9514 -2.3999
10588SOL    HW233772   5.261   2.649   7.521 -0.1387 -0.1410  0.1078
10589SOL     OW33773   6.836   8.820   1.036 -0.5051 -0.5748  0.1183
10589SOL    HW133774   6.798   8.839   0.951 -1.5336  1.7663  1.0015
10589SOL    HW233775   6.785   8.746   1.069 -1.0128 -0.6297 -0.7509
10590SOL     OW33776   9.053   1.570   1.739  0.1537 -0.8979 -0.0168
10590SOL    HW133777   8.966   1.531   1.737  0.4446 -1.6651 -2.9680
10590SOL    HW233778   9.112   1.498   1.762  0.2281 -1.0690 -0.7050
10591SOL     OW33779   9.679   1.732   2.776 -0.5918  0.8720  0.3243
10591SOL    HW133780   9.706   1.733   2.868  1.8708 -0.9907 -0.2662
10591SOL    HW233781   9.683   1.640   2.752 -0.4247  1.4110 -1.8529
10592SOL     OW33782   6.280   4.765   3.758  1.1681  0.2090 -0.5541
10592SOL    HW133783   6.233   4.705   3.815  3.1899 -1.6146 -0.6934
10592SOL    HW233784   6.290   4.718   3.675  1.2781  1.4461 -1.2823
10593SOL     OW33785   4.899   5.696  10.266  0.1782 -0.0865 -0.4171
10593SOL    HW133786   4.865   5.676  10.179  1.1365 -0.2254 -0.7695
10593SOL    HW233787   4.822   5.697  10.322 -0.4579  0.0520 -1.2739
10594SOL     OW33788   0.092   4.300   7.436  0.2832  0.3552 -0.3982
10594SOL    HW133789   0.036   4.346   7.373  0.8916 -0.2847 -1.4421
10594SOL    HW233790   0.178   4.296   7.394  0.3944 -1.1984 -0.1001
10595SOL     OW33791   5.196   5.611  10.010  0.3258  0.0827 -0.1964
10595SOL    HW133792   5.267   5.547  10.023  0.0280  0.0803  1.6159
10595SOL    HW233793   5.117   5.564  10.035 -0.1905  0.4847 -1.0268
10596SOL     OW33794   8.186   6.361   7.589 -0.3517  0.0947  0.0858
10596SOL    HW133795   8.201   6.403   7.674  1.2718 -0.6556  0.2251
10596SOL    HW233796   8.272   6.362   7.547 -0.0595 -3.4407  0.3029
10597SOL     OW33797   0.931   5.554   9.299 -1.0843  0.4392 -0.1744
10597SOL    HW133798   0.910   5.571   9.391 -0.1063  0.3446  0.0845
10597SOL    HW233799   0.861   5.596   9.250 -2.7525 -1.2224  0.6458
10598SOL     OW33800   9.570  10.998   3.937 -1.0758 -0.6573 -0.0051
10598SOL    HW133801   9.512  10.949   3.995 -2.0950 -0.7984 -1.1025
10598SOL    HW233802   9.571  10.947   3.856  1.7542 -1.4492  0.4259
10599SOL     OW33803  11.064   2.028   2.661 -0.0265 -0.0197  0.1210
10599SOL    HW133804  11.013   2.034   2.581 -1.6506 -0.3233  1.0944
10599SOL    HW233805  11.134   1.966   2.641 -0.0727  0.3467 -1.2217
10600SOL     OW33806   6.697   0.838   2.349 -0.4624  0.3085  0.2575
10600SOL    HW133807   6.739   0.910   2.301 -0.1452 -0.7854 -1.1934
10600SOL    HW233808   6.770   0.784   2.379 -0.7402 -0.4365 -0.3759
10601SOL     OW33809  11.052   1.775   9.976 -0.4427 -0.6213 -0.9347
10601SOL    HW133810  10.964   1.809   9.964 -0.9631 -1.4685  0.2118
10601SOL    HW233811  11.107   1.852   9.987 -1.2774 -0.0983 -0.2936
10602SOL     OW33812   5.970   6.182   5.305 -0.5012  0.3129  0.1936
10602SOL    HW133813   5.945   6.265   5.264 -2.2254  0.3563  1.2423
10602SOL    HW233814   5.980   6.121   5.231 -0.8602  1.0331 -0.4643
10603SOL     OW33815   0.349   9.034   2.334 -0.7176 -0.5993  0.3203
10603SOL    HW133816   0.312   8.971   2.273  0.2044 -0.6418 -0.2123
10603SOL    HW233817   0.306   9.117   2.311  1.6026  0.0232 -2.3467
10604SOL     OW33818   5.613   4.818   8.692 -0.0840  0.1412  0.4137
10604SOL    HW133819   5.622   4.784   8.781 -0.8302 -1.7557 -0.1842
10604SOL    HW233820   5.675   4.891   8.688  1.4423 -0.9960  1.8652
10605SOL     OW33821   6.691   7.827   0.416  0.0726 -0.5771  0.3878
10605SOL    HW133822   6.647   7.745   0.394 -0.5153 -0.6311  1.6902
10605SOL    HW233823   6.751   7.803   0.487  1.4066 -0.2748 -0.6066
10606SOL     OW33824   1.621   3.293   0.011 -0.4161 -0.0664  0.2575
10606SOL    HW133825   1.610   3.354  -0.062  2.1772  0.1617 -0.0444
10606SOL    HW233826   1.705   3.250  -0.006  1.1093  1.1061  3.8366
10607SOL     OW33827   8.238   0.677   9.971  0.2902 -0.5110 -0.2969
10607SOL    HW133828   8.239   0.643  10.061  3.2293  0.7662  0.2889
10607SOL    HW233829   8.151   0.716   9.961  0.2092  0.2310  2.4083
10608SOL     OW33830   3.960   1.323   8.121 -0.6175 -0.3893 -0.4016
10608SOL    HW133831   3.941   1.294   8.032  1.7319 -0.3342 -0.9752
10608SOL    HW233832   3.895   1.277   8.175 -0.7233 -2.1278 -1.8963
10609SOL     OW33833   0.269   8.931   0.876  0.5357  0.2475 -0.3546
10609SOL    HW133834   0.253   8.953   0.784 -1.0916 -1.9831 -0.6644
10609SOL    HW233835   0.357   8.893   0.876  0.1845 -0.5871 -1.1537
10610SOL     OW33836   7.408   1.131   3.278  0.1798 -0.4651  0.3877
10610SOL    HW133837   7.370   1.048   3.247 -0.2755  0.0487 -0.4648
10610SOL    HW233838   7.470   1.105   3.345  0.2636 -1.5260 -0.0801
10611SOL     OW33839   1.346   1.292   3.662  0.0231 -0.1300 -0.2528
10611SOL    HW133840   1.325   1.238   3.586 -0.8123  0.7476 -0.6743
10611SOL    HW233841   1.290   1.259   3.732  0.9667 -1.0959  0.0641
10612SOL     OW33842   7.795   9.323   8.254 -0.3153  0.3781 -1.0759
10612SOL    HW133843   7.806   9.228   8.243 -2.1078  0.1649 -1.2322
10612SOL    HW233844   7.739   9.332   8.331 -0.5939  1.2893 -1.3712
10613SOL     OW33845   1.847   3.857   3.623  0.1789 -0.5961  0.4888
10613SOL    HW133846   1.763   3.850   3.668  1.0195 -0.9247  2.0864
10613SOL    HW233847   1.870   3.950   3.627  1.0153 -0.8377  2.2856
10614SOL     OW33848   1.768   2.149   4.325 -0.5198  0.1911  0.4417
10614SOL    HW133849   1.806   2.075   4.276  1.0332  0.7300  0.7778
10614SOL    HW233850   1.807   2.227   4.285 -2.0843  0.8657  0.1454
10615SOL     OW33851   4.087   4.053   9.240 -0.1817 -0.6798 -0.5931
10615SOL    HW133852   4.137   4.000   9.301  1.2968 -0.8361 -1.8822
10615SOL    HW233853   4.145   4.126   9.218 -1.9902  1.3390  0.8041
10616SOL     OW33854   6.210  10.114   4.581 -0.3121 -0.0318  0.0362
10616SOL    HW133855   6.133  10.060   4.566 -0.8036  0.3663  1.0048
10616SOL    HW233856   6.277  10.077   4.524 -1.7264  0.7812 -2.3081
10617SOL     OW33857   8.875   3.658   7.380  0.7526 -0.1620 -0.2660
10617SOL    HW133858   8.810   3.679   7.313  0.9001  1.5018  0.0693
10617SOL    HW233859   8.850   3.571   7.411  0.0647 -0.5219 -1.7372
10618SOL     OW33860   2.700  11.031   5.519 -0.2004 -0.8035 -0.7430
10618SOL    HW133861   2.679  11.018   5.427  2.0969 -0.2067 -1.4197
10618SOL    HW233862   2.651  11.110   5.543 -1.0534 -1.1296 -1.3437
10619SOL     OW33863   3.394   3.674   0.354  0.1251  0.0494 -0.4596
10619SOL    HW133864   3.439   3.754   0.328 -0.3186  0.3857 -0.1956
10619SOL    HW233865   3.304   3.701   0.373 -0.6345 -0.8395 -2.4672
10620SOL     OW33866   3.237  10.780   3.574  0.4465  0.9659 -0.0401
10620SOL    HW133867   3.198  10.843   3.513 -1.7795 -0.9184 -0.7202
10620SOL    HW233868   3.244  10.699   3.524 -0.0487 -0.2418  1.7484
10621SOL     OW33869   5.187   4.338   6.062 -0.3116 -0.5721  0.8516
10621SOL    HW133870   5.173   4.291   5.979 -0.1574  0.0842  0.4493
10621SOL    HW233871   5.202   4.429   6.036 -3.0825  0.2426  1.7365
10622SOL     OW33872   8.141   4.736   8.584 -0.1543 -0.1375  0.1644
10622SOL    HW133873   8.195   4.689   8.521  0.6485  1.5550 -0.4332
10622SOL    HW233874   8.059   4.752   8.538 -0.4229 -0.8765  0.3604
10623SOL     OW33875   4.608   2.932  10.393 -0.3629 -0.0133  0.2588
10623SOL    HW133876   4.533   2.897  10.345  0.1747 -2.7542  1.2521
10623SOL    HW233877   4.682   2.919  10.334 -0.1853 -0.3813  0.5605
10624SOL     OW33878   9.286   8.581   5.647  0.8802  0.6845  0.4394
10624SOL    HW133879   9.371   8.578   5.692  0.5570 -1.0721  1.0083
10624SOL    HW233880   9.307   8.587   5.554  1.7051 -1.7008  0.4260
10625SOL     OW33881   5.299   0.223   5.637 -0.2433  0.1965  0.6692
10625SOL    HW133882   5.339   0.208   5.723  0.1896 -0.4045  0.3698
10625SOL    HW233883   5.205   0.215   5.652 -0.1126 -1.3661  0.8263
10626SOL     OW33884  10.128   4.389   3.673 -0.7123 -0.9159  0.0940
10626SOL    HW133885  10.190   4.328   3.633 -1.0201 -0.6231 -0.8311
10626SOL    HW233886  10.153   4.391   3.766  0.2999 -1.2297 -0.1667
10627SOL     OW33887   3.533  10.523   3.878 -0.8929  0.4771 -0.4629
10627SOL    HW133888   3.565  10.607   3.911  0.8110 -0.5388  0.6138
10627SOL    HW233889   3.575  10.458   3.933 -2.3360 -1.1007 -1.1487
10628SOL     OW33890   3.853   4.336   7.273  0.5181 -0.5413 -0.2124
10628SOL    HW133891   3.809   4.275   7.214  0.0722 -0.0454 -0.3943
10628SOL    HW233892   3.818   4.422   7.250  1.9704 -0.0534 -0.7256
10629SOL     OW33893   1.424   6.993  10.814  0.0073  0.3038  0.5958
10629SOL    HW133894   1.440   6.916  10.869 -0.0231 -0.6242 -0.6687
10629SOL    HW233895   1.474   6.977  10.734 -1.5423  0.6834 -0.4941
10630SOL     OW33896   3.462   6.591   2.236 -0.0483  0.2377 -0.1557
10630SOL    HW133897   3.456   6.590   2.332  0.6873 -0.1290 -0.1072
10630SOL    HW233898   3.415   6.670   2.210 -0.9159 -0.0591  0.4621
10631SOL     OW33899   5.334   9.062   8.721 -0.2076  0.2258 -0.1460
10631SOL    HW133900   5.308   8.973   8.746  1.1162  0.2091  1.3393
10631SOL    HW233901   5.323   9.114   8.801  1.5543  0.8088 -0.2466
10632SOL     OW33902   6.292   4.644   8.020 -0.2513  0.0557 -0.2883
10632SOL    HW133903   6.207   4.602   8.033 -0.0973 -1.2174 -2.8507
10632SOL    HW233904   6.278   4.704   7.947  1.1772 -0.7351 -1.2705
10633SOL     OW33905   4.177   8.222   5.909  0.4081 -1.1365 -0.3017
10633SOL    HW133906   4.247   8.238   5.846  0.0614  0.7950 -0.2714
10633SOL    HW233907   4.219   8.177   5.982  1.3048 -1.3016 -0.9070
10634SOL     OW33908   8.966   5.936   1.833  0.2330 -0.0010 -0.3457
10634SOL    HW133909   8.875   5.943   1.804  0.2603 -0.9420 -0.7066
10634SOL    HW233910   8.975   5.844   1.860  1.0258  0.1322 -0.1404
10635SOL     OW33911   3.314   3.843   4.811 -0.1364  0.2411 -0.1000
10635SOL    HW133912   3.390   3.786   4.823 -1.4477 -1.2953  1.2490
10635SOL    HW233913   3.301   3.844   4.716  0.6559 -0.7067 -0.2449
10636SOL     OW33914   0.159   4.258  10.656 -0.0902  0.3679  0.0552
10636SOL    HW133915   0.134   4.298  10.739  3.0791  0.0247  1.3519
10636SOL    HW233916   0.224   4.318  10.619 -1.8669  0.8235 -2.5826
10637SOL     OW33917  11.015   8.257   4.069 -0.0569  0.2771  0.2114
10637SOL    HW133918  11.025   8.168   4.036 -0.8745  0.0408  0.5576
10637SOL    HW233919  11.098   8.277   4.112  0.0723 -0.3756  0.2659
10638SOL     OW33920   1.587   9.261   6.259 -0.2518  0.2803 -0.5501
10638SOL    HW133921   1.569   9.197   6.328  0.9600  0.7744  0.2665
10638SOL    HW233922   1.597   9.344   6.306  2.5528  0.3063 -1.0238
10639SOL     OW33923   1.335   1.879   2.309  0.0269 -0.2938  0.1435
10639SOL    HW133924   1.294   1.891   2.394 -0.4514 -0.5447 -0.0450
10639SOL    HW233925   1.262   1.884   2.247  0.0934 -1.9367 -0.1093
10640SOL     OW33926   7.120   3.209   6.274 -0.1381  0.2345  0.3899
10640SOL    HW133927   7.209   3.176   6.262 -0.8697 -0.9487 -2.6438
10640SOL    HW233928   7.070   3.131   6.300 -1.2166 -0.4979 -3.3579
10641SOL     OW33929   7.982  10.607   0.680 -0.0855  0.0189 -0.3546
10641SOL    HW133930   7.970  10.686   0.732  1.7712 -0.5784  1.0685
10641SOL    HW233931   7.917  10.546   0.714 -0.2799  0.3124 -0.1904
10642SOL     OW33932   2.260   7.694  10.462  0.3131 -0.7256  0.3359
10642SOL    HW133933   2.324   7.665  10.396 -3.0036 -1.9402 -2.6771
10642SOL    HW233934   2.252   7.619  10.521  1.6370 -0.5428  0.7738
10643SOL     OW33935   3.479  10.132   6.872 -0.1859  0.2221  0.3577
10643SOL    HW133936   3.424  10.211   6.866 -0.0284  0.2871 -0.2991
10643SOL    HW233937   3.499  10.110   6.781 -1.3274 -1.3531  0.4433
10644SOL     OW33938   3.985   2.223   3.832  0.5212  0.7416 -0.5172
10644SOL    HW133939   3.975   2.314   3.859 -0.7948  0.4620  0.0146
10644SOL    HW233940   4.039   2.184   3.901 -0.1669  0.7807  0.0531
10645SOL     OW33941   6.514   1.947   1.831  0.4758  0.1613  0.2119
10645SOL    HW133942   6.582   1.880   1.837 -0.2662 -0.5473  1.2193
10645SOL    HW233943   6.535   1.996   1.752 -0.6674 -3.1683 -2.3621
10646SOL     OW33944   7.482   6.017  11.053 -0.8659  0.3190 -0.5892
10646SOL    HW133945   7.465   6.031  11.146 -1.6660 -0.1824 -0.6528
10646SOL    HW233946   7.575   6.035  11.043 -1.1552  2.3742 -0.0579
10647SOL     OW33947   6.558   3.146   0.859  0.4065 -0.5222 -0.0951
10647SOL    HW133948   6.543   3.113   0.770  1.8446 -0.2028 -0.4823
10647SOL    HW233949   6.585   3.237   0.847  1.9206 -0.8628  0.5558
10648SOL     OW33950   1.134   7.909   2.527  0.0509 -0.2153  0.7788
10648SOL    HW133951   1.192   7.921   2.452  0.8296  2.5462  1.7129
10648SOL    HW233952   1.054   7.871   2.489  0.8531 -0.0186 -1.2469
10649SOL     OW33953   8.578   9.918   3.546 -0.5409  0.3472 -0.4603
10649SOL    HW133954   8.524   9.990   3.512 -3.2026 -1.4875 -0.4450
10649SOL    HW233955   8.601   9.867   3.469  1.4406  1.2118 -0.4847
10650SOL     OW33956   7.542   6.219   2.787  0.1494 -0.3003  0.2116
10650SOL    HW133957   7.553   6.199   2.694  1.4916  0.3824  0.1934
10650SOL    HW233958   7.500   6.305   2.788  1.0206  0.1415  0.2015
10651SOL     OW33959  10.108   3.279   0.205 -0.6554 -0.1389  1.1478
10651SOL    HW133960  10.015   3.261   0.220 -1.5858  2.4939 -0.7710
10651SOL    HW233961  10.137   3.209   0.146 -2.1293  0.3703 -0.2304
10652SOL     OW33962  11.162  11.050  10.668  0.2671 -0.2423  0.0468
10652SOL    HW133963  11.144  11.131  10.715 -0.8193  0.4853 -1.5146
10652SOL    HW233964  11.207  10.995  10.731 -0.9169  0.7506  1.8417
10653SOL     OW33965  10.880   6.592   0.787 -0.4325 -0.6883  0.9536
10653SOL    HW133966  10.892   6.621   0.878  1.2301 -1.8756  1.1598
10653SOL    HW233967  10.934   6.513   0.780 -2.8460 -2.3595 -0.2452
10654SOL     OW33968   9.628   1.509   4.529 -0.6095 -0.4323 -0.1772
10654SOL    HW133969   9.687   1.574   4.492 -1.7283  0.2093 -0.8747
10654SOL    HW233970   9.679   1.469   4.600 -0.2086  1.8566  0.9107
10655SOL     OW33971   7.364   4.799   1.829 -0.3333 -0.5182  0.1710
10655SOL    HW133972   7.454   4.767   1.832  0.0576  0.6184  1.4750
10655SOL    HW233973   7.348   4.816   1.736  1.3781  0.8288  0.0817
10656SOL     OW33974   4.096   5.929   2.046 -0.0230  0.4526 -0.3042
10656SOL    HW133975   4.034   5.992   2.083  1.1798  1.4545  0.0663
10656SOL    HW233976   4.173   5.936   2.102  0.0339 -1.6035 -0.0644
10657SOL     OW33977   6.118   9.169   4.096 -0.5356  0.2114 -0.0251
10657SOL    HW133978   6.024   9.180   4.110 -0.2237  1.3318  1.3103
10657SOL    HW233979   6.141   9.235   4.031 -0.6895 -0.2374 -0.5521
10658SOL     OW33980   8.076   2.548   1.344  0.4162 -0.2499  0.6914
10658SOL    HW133981   8.085   2.590   1.430  0.3767  1.0740  0.0733
10658SOL    HW233982   7.988   2.511   1.344 -0.4337  1.6714  0.4288
10659SOL     OW33983   2.273   5.348  11.168 -0.4448  0.2637  0.4558
10659SOL    HW133984   2.335   5.276  11.182  1.1516  1.2679 -0.9240
10659SOL    HW233985   2.246   5.339  11.077 -1.7113  0.3507  0.7998
10660SOL     OW33986   6.593   6.079  10.370 -0.1044 -0.1430 -0.6889
10660SOL    HW133987   6.590   6.163  10.417  0.3820 -0.1553 -0.6349
10660SOL    HW233988   6.644   6.097  10.291  3.9126 -1.3464  1.3519
10661SOL     OW33989   5.239   7.989   4.896  0.1201  0.4076  0.5480
10661SOL    HW133990   5.173   7.956   4.958  1.5615 -2.5745  0.7089
10661SOL    HW233991   5.300   8.040   4.950  0.4968 -0.8485  1.3595
10662SOL     OW33992   2.057   2.089   5.503 -0.1341 -0.3312 -0.4198
10662SOL    HW133993   2.128   2.082   5.440 -0.3513  0.7629 -0.8014
10662SOL    HW233994   1.988   2.138   5.458 -0.6835 -0.3796  0.3277
10663SOL     OW33995   4.818   0.381   3.942  0.5992 -0.1473  0.1271
10663SOL    HW133996   4.820   0.332   3.860 -2.2665 -3.0343  1.5325
10663SOL    HW233997   4.898   0.433   3.941  0.5300  0.3057 -4.6087
10664SOL     OW33998   9.328   4.076   0.757  0.3634 -0.6376 -0.1911
10664SOL    HW133999   9.414   4.050   0.724  0.1781 -3.3850  1.1922
10664SOL    HW234000   9.319   4.168   0.731  3.4216 -0.4266 -0.8981
10665SOL     OW34001   3.832  10.534   4.646 -0.5226  0.1221 -1.0078
10665SOL    HW134002   3.787  10.476   4.708  0.2759 -0.9670 -1.4191
10665SOL    HW234003   3.834  10.484   4.564  3.2554 -0.8437 -0.5142
10666SOL     OW34004  10.105   3.427   4.575  0.0867 -0.9065  0.6195
10666SOL    HW134005  10.041   3.494   4.553  1.7206  0.7691  0.7894
10666SOL    HW234006  10.069   3.346   4.538 -1.5493  0.1959 -0.2818
10667SOL     OW34007   7.801   8.471   2.334  0.2631  0.2576  0.4235
10667SOL    HW134008   7.875   8.413   2.350  1.3927  1.5177 -0.0421
10667SOL    HW234009   7.829   8.526   2.261 -1.3666  0.3839 -0.1380
10668SOL     OW34010   4.785   5.629   7.256  0.3385  0.5149  0.4486
10668SOL    HW134011   4.835   5.610   7.177 -1.8863 -2.2656 -0.4608
10668SOL    HW234012   4.812   5.560   7.318 -0.5922  0.4525  0.7981
10669SOL     OW34013   5.303   8.290   6.540 -0.1199 -0.5834 -0.1501
10669SOL    HW134014   5.319   8.295   6.446 -1.8320 -3.3505 -0.6842
10669SOL    HW234015   5.211   8.315   6.550 -0.2229 -1.2658  0.6712
10670SOL     OW34016   4.305   1.211   1.088  0.0287 -0.4710 -0.3309
10670SOL    HW134017   4.264   1.179   1.169  0.7247  0.5930  0.4748
10670SOL    HW234018   4.387   1.251   1.118  0.4371 -0.3210 -1.6088
10671SOL     OW34019   4.796   9.712   6.677 -0.4001  0.2728  0.2338
10671SOL    HW134020   4.823   9.726   6.768 -1.0132 -0.3133  0.5222
10671SOL    HW234021   4.877   9.705   6.628 -0.0563 -0.0539  0.8426
10672SOL     OW34022   4.429   3.330   9.785 -0.2111 -0.2884  0.2126
10672SOL    HW134023   4.439   3.361   9.695  0.2741  0.3061  0.4685
10672SOL    HW234024   4.499   3.374   9.834 -1.0189  0.0737  1.0609
10673SOL     OW34025   9.342   7.940   4.476  0.0670  0.1280 -0.5339
10673SOL    HW134026   9.282   8.012   4.494 -0.3176 -0.0748 -0.9877
10673SOL    HW234027   9.287   7.861   4.477  0.2038  0.0102 -1.6024
10674SOL     OW34028   3.682   7.903   5.305  0.6861 -0.2371 -0.0033
10674SOL    HW134029   3.732   7.972   5.261  2.3345 -1.8651 -0.8332
10674SOL    HW234030   3.659   7.842   5.235 -0.4942 -0.6752  0.7443
10675SOL     OW34031   7.291   2.921   5.436  0.2808  0.2246 -0.3062
10675SOL    HW134032   7.280   2.828   5.455 -3.4854  0.9666  2.4789
10675SOL    HW234033   7.329   2.958   5.516 -2.7029  1.5482  0.6810
10676SOL     OW34034   8.556   4.508   7.926 -0.1172  0.5456  0.0880
10676SOL    HW134035   8.618   4.544   7.863 -0.3441 -1.9286 -1.7239
10676SOL    HW234036   8.470   4.525   7.887 -0.2398 -1.4297 -0.6354
10677SOL     OW34037   3.890   2.898   1.499 -0.9195  1.0735  0.1513
10677SOL    HW134038   3.950   2.855   1.439 -1.6507  1.6457 -1.0369
10677SOL    HW234039   3.937   2.977   1.528 -0.5802  0.8162  0.3037
10678SOL     OW34040   5.399  10.601   7.526 -0.3843 -0.0996 -0.2165
10678SOL    HW134041   5.474  10.579   7.471 -1.4966 -1.1697 -1.3850
10678SOL    HW234042   5.360  10.677   7.484 -0.1582  0.2470  0.1941
10679SOL     OW34043   6.953   1.757   9.134  0.8224  0.0487 -0.3920
10679SOL    HW134044   6.973   1.844   9.169  1.3652 -0.7514  1.4047
10679SOL    HW234045   7.038   1.719   9.113  0.8958 -1.2022  1.8567
10680SOL     OW34046   3.148   7.701   9.098 -0.5609 -0.4359 -0.2381
10680SOL    HW134047   3.072   7.697   9.156 -0.8387 -1.3731 -0.6432
10680SOL    HW234048   3.113   7.690   9.010  0.1517 -2.4240 -0.3284
10681SOL     OW34049  10.029   8.293  10.444  0.1376 -0.4168  0.4228
10681SOL    HW134050   9.990   8.347  10.513  1.1983  1.9321 -0.6855
10681SOL    HW234051   9.966   8.223  10.429 -0.2994 -0.8192  3.4941
10682SOL     OW34052  10.949   6.853   3.572 -0.4469  0.4750 -0.4453
10682SOL    HW134053  11.017   6.786   3.570  0.2544  1.1449  0.2840
10682SOL    HW234054  10.963   6.904   3.492  1.6906  2.2787  0.9548
10683SOL     OW34055   5.410   5.301   6.009 -0.0585 -0.4771 -0.7358
10683SOL    HW134056   5.346   5.321   6.078  0.4291 -2.9676  0.5502
10683SOL    HW234057   5.358   5.292   5.930 -0.8512  0.8516 -0.3859
10684SOL     OW34058   4.991   3.325   3.336 -0.2912 -0.2470  0.3812
10684SOL    HW134059   4.992   3.326   3.240 -2.4791 -0.3292  0.2932
10684SOL    HW234060   4.965   3.236   3.358 -0.4171 -0.0525  1.0289
10685SOL     OW34061   5.676   2.640   9.838 -0.3621  0.7301 -0.2632
10685SOL    HW134062   5.693   2.727   9.875 -1.6762 -0.1210  2.6236
10685SOL    HW234063   5.583   2.641   9.818 -0.6296 -0.3281  0.8370
10686SOL     OW34064  10.071  10.647  10.064 -0.1642  0.1216  0.6918
10686SOL    HW134065  10.119  10.611  10.139 -1.1106  0.7593  1.6371
10686SOL    HW234066  10.107  10.735  10.052 -0.0464  0.0379  0.4265
10687SOL     OW34067   2.111   9.693   0.748 -0.5165 -0.1631  0.5192
10687SOL    HW134068   2.145   9.719   0.833  1.3410  2.2884 -0.8309
10687SOL    HW234069   2.087   9.775   0.705  0.0377 -1.1500 -1.8611
10688SOL     OW34070  10.336   7.500   8.605 -0.1540  0.7429 -0.5013
10688SOL    HW134071  10.299   7.412   8.594 -0.7479  0.9935 -0.5272
10688SOL    HW234072  10.428   7.490   8.579 -0.4116  0.3076 -1.2771
10689SOL     OW34073   7.231   6.008   5.321 -0.1318  0.1639 -0.4022
10689SOL    HW134074   7.143   6.041   5.306 -1.3827 -2.1961  1.1404
10689SOL    HW234075   7.237   5.929   5.268  0.4422 -0.5859  0.7517
10690SOL     OW34076   5.362  11.058   2.804 -0.0168 -0.4121  0.5136
10690SOL    HW134077   5.331  11.049   2.714  2.0529 -1.1226 -0.1802
10690SOL    HW234078   5.380  11.152   2.814 -0.1168 -0.3526  0.1567
10691SOL     OW34079   8.113   6.918  10.962 -0.9792 -0.1353  0.4833
10691SOL    HW134080   8.067   6.999  10.986 -1.5587 -0.0836 -0.7234
10691SOL    HW234081   8.116   6.921  10.866 -0.3089 -1.1693  0.4679
10692SOL     OW34082   7.595  10.047   1.784  0.3132  0.5838 -0.6104
10692SOL    HW134083   7.557   9.959   1.792  1.3163  0.1652 -0.2311
10692SOL    HW234084   7.540  10.091   1.720 -0.7934  0.0056 -0.0834
10693SOL     OW34085   2.614   5.471  10.401 -0.3087 -0.1502 -0.4196
10693SOL    HW134086   2.559   5.468  10.479 -1.2481 -1.5672 -1.1045
10693SOL    HW234087   2.701   5.445  10.431 -0.7892 -1.2272  0.0679
10694SOL     OW34088   4.571  11.200   0.489  0.1030 -0.7383 -0.3515
10694SOL    HW134089   4.638  11.197   0.421 -0.8557  0.6451 -1.3963
10694SOL    HW234090   4.564  11.292   0.512 -0.9886 -0.9450  0.2001
10695SOL     OW34091   5.973   4.091   6.794 -0.2297 -0.5016  0.1962
10695SOL    HW134092   5.943   4.002   6.813  1.5562 -0.9562  1.0012
10695SOL    HW234093   6.028   4.082   6.716  0.2732 -0.1713  0.5077
10696SOL     OW34094   6.938   7.578   1.553  0.2406  0.0811  0.7709
10696SOL    HW134095   6.913   7.670   1.554  1.2351  0.4109 -0.9390
10696SOL    HW234096   7.019   7.575   1.503 -0.5262 -1.8887 -0.4845
10697SOL     OW34097   9.612   2.838   2.872 -0.1574  0.3786  0.3637
10697SOL    HW134098   9.654   2.924   2.873 -1.4793  1.0745 -0.6890
10697SOL    HW234099   9.527   2.852   2.914 -0.0551 -0.6143  0.9375
10698SOL     OW34100   4.667   5.408   7.010 -0.0003 -0.6462 -0.3041
10698SOL    HW134101   4.635   5.487   7.054  1.4045 -0.1754 -0.0836
10698SOL    HW234102   4.599   5.388   6.945 -2.5632 -1.8499  2.5347
10699SOL     OW34103   1.111   7.679   9.955  0.1503  0.5934  0.4201
10699SOL    HW134104   1.122   7.605   9.894 -0.3247  0.5736  0.3531
10699SOL    HW234105   1.187   7.734   9.939 -1.1207  1.8309 -1.9426
10700SOL     OW34106   5.256   4.026   2.630  0.4794 -0.7668 -0.7732
10700SOL    HW134107   5.303   3.962   2.684 -2.1396 -2.3170 -0.1720
10700SOL    HW234108   5.228   4.093   2.692  1.1940 -0.2368 -1.0064
10701SOL     OW34109   0.331   3.906  11.003  0.4759  0.6468 -0.2965
10701SOL    HW134110   0.374   3.934  10.922  0.5168 -0.0613 -0.5257
10701SOL    HW234111   0.300   3.817  10.984 -0.7213  0.9829  0.0078
10702SOL     OW34112   7.591   0.629   9.671 -0.2531 -0.2401 -0.0986
10702SOL    HW134113   7.577   0.685   9.748  2.4192 -0.0057  0.3132
10702SOL    HW234114   7.524   0.562   9.677  0.3925 -0.7402  2.9585
10703SOL     OW34115   5.397  10.553   9.943 -0.3252 -0.1786 -0.3139
10703SOL    HW134116   5.398  10.484   9.877  3.3773  1.5010 -2.3250
10703SOL    HW234117   5.347  10.624   9.903 -0.2057 -0.0588 -0.2552
10704SOL     OW34118   0.516   8.890   4.306  0.8009 -0.5180 -0.1916
10704SOL    HW134119   0.569   8.857   4.379  0.0273 -1.1704  0.0817
10704SOL    HW234120   0.564   8.967   4.275  0.8347  0.1325  1.3933
10705SOL     OW34121   7.178   5.838   3.337  0.3842  0.0521  0.2547
10705SOL    HW134122   7.269   5.847   3.363  0.5816 -0.9647 -0.0510
10705SOL    HW234123   7.131   5.820   3.418  0.8515 -2.0797  0.1070
10706SOL     OW34124   2.539   0.775  10.992  0.8940 -0.4300  0.3162
10706SOL    HW134125   2.460   0.733  10.957 -0.5602  1.1094  1.5854
10706SOL    HW234126   2.583   0.810  10.915 -0.7167  0.3974 -0.2851
10707SOL     OW34127   2.428   2.965   9.249 -0.0401  0.4447 -0.4272
10707SOL    HW134128   2.397   2.888   9.201  2.0624 -0.8007  0.0897
10707SOL    HW234129   2.359   3.030   9.237 -0.9684 -0.8361 -2.5651
10708SOL     OW34130   6.906   1.106   1.193 -0.7818  0.2059 -0.0390
10708SOL    HW134131   6.887   1.068   1.107  0.3770 -1.3844  0.3511
10708SOL    HW234132   6.892   1.200   1.182 -0.3132  0.0835 -2.0745
10709SOL     OW34133   5.575   8.529   9.505  0.0388  0.1851  0.3725
10709SOL    HW134134   5.629   8.528   9.585  0.4071  3.5778  0.2836
10709SOL    HW234135   5.533   8.443   9.505  1.1811 -0.5313  3.4026
10710SOL     OW34136   9.379   9.746   2.161  0.3617 -0.0133  0.1947
10710SOL    HW134137   9.308   9.809   2.148  1.0008  0.2614 -2.4472
10710SOL    HW234138   9.397   9.750   2.255 -3.7845 -0.8687  1.2421
10711SOL     OW34139   9.265  10.960   7.597  0.3734  0.2263 -0.2110
10711SOL    HW134140   9.175  10.934   7.578  0.2252  0.0626  0.7129
10711SOL    HW234141   9.259  11.015   7.675  1.2948 -1.6844  1.3012
10712SOL     OW34142   6.185   0.716   5.749 -0.2249 -0.0741  0.3925
10712SOL    HW134143   6.204   0.809   5.762  0.5669  0.1031 -1.6785
10712SOL    HW234144   6.100   0.715   5.706 -0.6245 -0.3806  1.1661
10713SOL     OW34145   6.088   3.295   7.435 -0.2406  0.0277 -0.2331
10713SOL    HW134146   6.026   3.329   7.499  0.0650 -1.2124  0.7522
10713SOL    HW234147   6.125   3.373   7.394 -0.2675  0.8537  1.2499
10714SOL     OW34148   4.433   8.931  10.897  0.1280 -0.1480 -0.4341
10714SOL    HW134149   4.519   8.973  10.894  0.2555 -0.4313 -1.9937
10714SOL    HW234150   4.378   8.986  10.840 -0.7534  0.0741  0.6052
10715SOL     OW34151   1.326   0.465   0.701 -0.1635 -0.2091  0.1335
10715SOL    HW134152   1.264   0.503   0.639  0.4146  1.4653  0.5297
10715SOL    HW234153   1.305   0.371   0.702 -3.0059  0.3608  0.6777
10716SOL     OW34154  10.160   9.566   7.035  0.2995  0.4627 -0.3849
10716SOL    HW134155  10.089   9.516   6.994 -0.2883  0.7089  0.2996
10716SOL    HW234156  10.116   9.642   7.075  1.2079  1.7288 -1.6958
10717SOL     OW34157   2.921   1.509   3.631  0.6029  0.3476  0.2683
10717SOL    HW134158   2.884   1.469   3.710 -3.8734 -0.1014 -1.7411
10717SOL    HW234159   2.912   1.603   3.645 -1.2412  0.2534 -0.0182
10718SOL     OW34160   5.708   7.175   1.818 -0.1274  0.5104 -0.1258
10718SOL    HW134161   5.684   7.084   1.802  0.4259  0.2500  0.4467
10718SOL    HW234162   5.659   7.200   1.896  1.2098  0.0578  0.8922
10719SOL     OW34163   1.742   9.351   8.214  0.2887 -0.5496 -0.4322
10719SOL    HW134164   1.831   9.371   8.242 -0.6760 -0.5226  3.1441
10719SOL    HW234165   1.714   9.281   8.273 -2.5979  0.6129 -0.2602
10720SOL     OW34166   4.837   3.787   2.254  0.2709 -0.0889 -0.5033
10720SOL    HW134167   4.871   3.704   2.221 -1.2326 -0.4579 -1.2005
10720SOL    HW234168   4.801   3.831   2.176 -1.5805 -0.1059  0.2868
10721SOL     OW34169   9.790   1.952  10.357  0.4549 -0.0189  0.8230
10721SOL    HW134170   9.741   1.988  10.430 -1.0723  0.1155 -0.2258
10721SOL    HW234171   9.724   1.930  10.291  1.7385 -0.5256 -0.3603
10722SOL     OW34172   3.166   1.600   4.106  0.0832 -0.6491 -0.4804
10722SOL    HW134173   3.177   1.518   4.057  0.7447 -1.0609  0.3256
10722SOL    HW234174   3.215   1.665   4.056  0.5000 -1.0017 -0.5395
10723SOL     OW34175   9.722   2.980   9.694  0.1209 -0.2773 -0.1165
10723SOL    HW134176   9.716   3.063   9.741 -0.3069 -0.7253  0.6379
10723SOL    HW234177   9.738   2.915   9.762 -0.2292 -0.8996 -0.6211
10724SOL     OW34178   9.292   0.221   7.769  0.2432  0.1583 -0.1252
10724SOL    HW134179   9.340   0.280   7.826  0.2006 -0.8876  1.0350
10724SOL    HW234180   9.345   0.141   7.766 -0.4660 -0.3236 -0.3648
10725SOL     OW34181   0.545   0.456   3.849  0.1655  0.2242  0.5674
10725SOL    HW134182   0.475   0.453   3.914 -0.0918  0.2716  0.2987
10725SOL    HW234183   0.621   0.489   3.896  0.2082 -0.5358  1.0410
10726SOL     OW34184   0.447   3.802   6.223 -0.3844  0.3284  0.3641
10726SOL    HW134185   0.453   3.894   6.196  0.9003  0.3322  0.6064
10726SOL    HW234186   0.476   3.753   6.146  1.8957  0.2774  1.2002
10727SOL     OW34187   5.447   0.121   6.835 -0.0898 -0.5618 -0.0753
10727SOL    HW134188   5.523   0.167   6.799  0.0901 -0.4075  0.4864
10727SOL    HW234189   5.456   0.031   6.804  0.1096 -0.4538 -0.3352
10728SOL     OW34190   3.378   1.757   4.993  0.5958  0.1279 -0.4422
10728SOL    HW134191   3.452   1.758   4.932  1.2584  3.3157  0.2571
10728SOL    HW234192   3.406   1.810   5.067 -2.6728  2.3575 -0.5729
10729SOL     OW34193   3.594   2.561   2.228  0.6262 -0.4968 -0.1899
10729SOL    HW134194   3.535   2.515   2.289  0.0378  0.9889  0.4133
10729SOL    HW234195   3.657   2.605   2.284  0.6270  0.1638 -0.6980
10730SOL     OW34196   5.801   5.880   2.523  0.5058  0.3956 -0.1537
10730SOL    HW134197   5.873   5.830   2.485  0.2498 -0.1828  0.1178
10730SOL    HW234198   5.815   5.969   2.491  2.4880  0.7554  1.4257
10731SOL     OW34199  10.462  11.285   1.161 -0.2524 -0.5120  0.2193
10731SOL    HW134200  10.461  11.198   1.121  1.2380  0.5632 -2.4491
10731SOL    HW234201  10.548  11.321   1.138  0.0679  0.8611  3.1842
10732SOL     OW34202   2.572   5.038   7.320 -0.3600  0.0240 -0.4726
10732SOL    HW134203   2.666   5.037   7.338 -0.2679 -0.8544 -0.9365
10732SOL    HW234204   2.566   5.040   7.224 -0.8143  0.1335 -0.4445
10733SOL     OW34205   8.646   1.088   4.374 -0.2232 -0.8581  0.2141
10733SOL    HW134206   8.651   1.096   4.279 -1.6101 -0.6225  0.1443
10733SOL    HW234207   8.588   1.014   4.390  3.0453 -3.5278  0.9300
10734SOL     OW34208   5.690   3.696   5.363 -0.2705  0.1750 -0.2029
10734SOL    HW134209   5.707   3.776   5.414  0.1909  0.0582 -0.1692
10734SOL    HW234210   5.611   3.717   5.313  0.7493  1.2575 -1.4183
10735SOL     OW34211   8.779   4.061   6.863 -0.9333  0.1835  0.8241
10735SOL    HW134212   8.721   4.108   6.802 -0.8179 -0.3231  0.3234
10735SOL    HW234213   8.743   3.972   6.867 -0.1140 -0.1641  0.4220
10736SOL     OW34214   2.527   3.874   2.217 -0.0755 -0.1167 -0.5416
10736SOL    HW134215   2.553   3.957   2.178 -0.3415  1.3496  2.2202
10736SOL    HW234216   2.492   3.823   2.143  1.2901  1.6584 -2.5371
10737SOL     OW34217   9.742   8.812   5.875  0.4044  0.1266  0.2346
10737SOL    HW134218   9.809   8.872   5.905  1.6862 -0.6836 -0.8981
10737SOL    HW234219   9.746   8.816   5.780 -2.4449  1.4219  0.0471
10738SOL     OW34220   1.169   4.917   5.314 -0.7863  0.0459  0.1769
10738SOL    HW134221   1.153   4.991   5.373  0.7765  1.7278 -1.3521
10738SOL    HW234222   1.085   4.901   5.272 -1.2117  0.8249  0.7019
10739SOL     OW34223   1.474   4.620   8.950 -0.2074 -0.3401 -1.1354
10739SOL    HW134224   1.553   4.638   8.899 -0.9627 -2.1411 -3.1173
10739SOL    HW234225   1.402   4.629   8.887 -1.3043 -1.5362 -0.1196
10740SOL     OW34226   1.095   8.578   0.440  0.3105 -0.2763 -0.1142
10740SOL    HW134227   1.095   8.667   0.475  0.8726 -0.2347 -0.2179
10740SOL    HW234228   1.034   8.582   0.366 -0.1592 -0.1378  0.2749
10741SOL     OW34229   1.655   2.532   2.770  0.7402  0.4773 -0.1101
10741SOL    HW134230   1.735   2.581   2.789  1.2811 -0.0314 -0.9860
10741SOL    HW234231   1.610   2.585   2.703  1.1476 -0.0130 -0.7911
10742SOL     OW34232   5.882   7.611   0.679  0.0747 -0.6541  0.5168
10742SOL    HW134233   5.964   7.627   0.632  0.1594 -1.6734  0.2813
10742SOL    HW234234   5.820   7.587   0.610 -0.2660 -0.4477  0.7528
10743SOL     OW34235   8.788   9.737   4.129  0.3402 -0.2503 -0.7950
10743SOL    HW134236   8.767   9.794   4.055  1.5023  0.3038 -0.7229
10743SOL    HW234237   8.748   9.780   4.204  1.6720  0.8178 -0.6516
10744SOL     OW34238   0.207  10.643   9.213 -0.1482  0.3237 -0.0054
10744SOL    HW134239   0.267  10.589   9.265 -0.5477 -1.2295 -1.0709
10744SOL    HW234240   0.230  10.623   9.122 -1.4974  0.5831 -0.4239
10745SOL     OW34241  11.171  11.198   6.918 -0.8315 -0.0601  0.4551
10745SOL    HW134242  11.231  11.190   6.992  1.5870 -0.9330 -1.4662
10745SOL    HW234243  11.128  11.113   6.912  0.2382 -0.5859 -0.0983
10746SOL     OW34244   5.841   9.441   6.300  0.3952 -0.4338 -0.0940
10746SOL    HW134245   5.786   9.484   6.366  1.4004 -0.9382  1.1132
10746SOL    HW234246   5.806   9.471   6.216 -2.7025 -1.8925  0.5294
10747SOL     OW34247   6.364   8.834   5.135  0.4797  1.1276  1.1049
10747SOL    HW134248   6.376   8.922   5.172 -1.6317  1.8207  0.2740
10747SOL    HW234249   6.284   8.802   5.175 -0.0331  0.5380 -0.3287
10748SOL     OW34250   8.980   3.902   2.365  0.8092  0.1388  0.2986
10748SOL    HW134251   8.914   3.968   2.344 -0.6506 -1.3329  0.0069
10748SOL    HW234252   9.051   3.918   2.303  0.4823  1.3879  0.2147
10749SOL     OW34253   3.126   6.668   1.940  0.0041 -0.6695 -0.4516
10749SOL    HW134254   3.072   6.613   1.997  1.0252 -0.1267  1.0950
10749SOL    HW234255   3.156   6.608   1.871 -2.0116 -1.1163 -1.0049
10750SOL     OW34256   7.353   1.180   7.977 -0.4507  0.2391 -0.0492
10750SOL    HW134257   7.403   1.261   7.972 -0.5622  0.2547 -2.5036
10750SOL    HW234258   7.340   1.165   8.070  2.1942  1.3941  0.5884
10751SOL     OW34259   2.800  10.385   8.530 -0.5142 -0.2455 -0.3899
10751SOL    HW134260   2.829  10.296   8.551 -0.8935 -0.6975 -1.6603
10751SOL    HW234261   2.734  10.406   8.596 -1.0931 -1.2863 -0.6108
10752SOL     OW34262   8.718  11.279   3.236  0.1599  0.0597 -0.4124
10752SOL    HW134263   8.748  11.198   3.276  1.5209  0.3699 -0.7795
10752SOL    HW234264   8.691  11.254   3.147 -0.4107 -0.1644 -0.1810
10753SOL     OW34265   2.293   1.849   6.213 -0.5953  0.0706 -0.4741
10753SOL    HW134266   2.362   1.906   6.178 -1.3904  0.4972 -1.4069
10753SOL    HW234267   2.286   1.873   6.305 -0.9152  1.5034 -0.8499
10754SOL     OW34268   9.283   8.074  10.895 -0.1485 -0.1190  0.2740
10754SOL    HW134269   9.375   8.055  10.908 -0.0870  0.0448  0.0744
10754SOL    HW234270   9.281   8.137  10.824 -0.3527  0.5550  0.8624
10755SOL     OW34271   5.262  10.221   5.780  0.1520  0.2781  0.0946
10755SOL    HW134272   5.347  10.224   5.824 -1.0977 -0.8857  2.8512
10755SOL    HW234273   5.242  10.313   5.758  2.3100  0.4974 -1.1647
10756SOL     OW34274   4.379   6.330   4.662 -0.4681 -0.1752 -0.2794
10756SOL    HW134275   4.326   6.407   4.642  0.5753  1.0040  1.2886
10756SOL    HW234276   4.336   6.289   4.737  1.2840  1.3602  1.6621
10757SOL     OW34277   0.451   2.461   5.853  0.1716  0.4383 -0.0824
10757SOL    HW134278   0.363   2.491   5.876 -1.0424 -0.8999 -2.6209
10757SOL    HW234279   0.471   2.394   5.918 -1.5818 -0.6697 -0.6116
10758SOL     OW34280   8.099   4.306   5.666 -0.9448 -0.8756  0.6167
10758SOL    HW134281   8.149   4.348   5.596 -0.7390 -1.9141  0.1200
10758SOL    HW234282   8.036   4.249   5.621 -1.4405 -0.8523  1.2637
10759SOL     OW34283   5.111   1.472   6.333  0.2691  0.5809 -0.0836
10759SOL    HW134284   5.174   1.539   6.359  1.7732 -0.9913  0.4800
10759SOL    HW234285   5.165   1.399   6.303 -1.2830 -0.9696  0.7745
10760SOL     OW34286   2.436   4.045   2.927  0.2944 -0.0341 -0.2542
10760SOL    HW134287   2.496   4.078   2.994  1.6517  0.2974 -1.5592
10760SOL    HW234288   2.494   4.001   2.864 -0.9969 -0.8508 -0.9010
10761SOL     OW34289  10.904   4.150   6.580 -0.3070 -0.1330 -0.2500
10761SOL    HW134290  10.914   4.065   6.538  0.1963  0.0015 -0.4080
10761SOL    HW234291  10.858   4.203   6.515 -0.3063 -0.1814 -0.2899
10762SOL     OW34292   6.562   3.415   3.525  0.5306 -0.0678 -0.1334
10762SOL    HW134293   6.563   3.487   3.589 -1.4843  0.4448 -0.5935
10762SOL    HW234294   6.476   3.375   3.536  0.6870 -0.8604 -1.5704
10763SOL     OW34295   2.274  10.706   5.280  0.3365  0.1860  0.9867
10763SOL    HW134296   2.288  10.778   5.342  1.9470  1.1563 -0.4407
10763SOL    HW234297   2.205  10.653   5.321  0.4616  1.4641  2.9972
10764SOL     OW34298   2.879  10.945   4.881 -0.7216  0.7030 -0.1613
10764SOL    HW134299   2.944  10.933   4.951 -0.0850 -0.6981 -0.9561
10764SOL    HW234300   2.849  10.857   4.861 -2.1909  1.2522 -0.4797
10765SOL     OW34301   1.792   3.059   5.180  0.6903  0.5328 -0.1913
10765SOL    HW134302   1.767   3.138   5.228 -0.2606  0.1052  0.0568
10765SOL    HW234303   1.882   3.041   5.208  1.0692  1.7541 -0.5819
10766SOL     OW34304   9.018   2.421   0.111  0.0362  0.5275 -0.3575
10766SOL    HW134305   9.022   2.349   0.048 -0.5839 -0.5150  0.7453
10766SOL    HW234306   9.070   2.390   0.185 -0.5046  1.0725  0.2613
10767SOL     OW34307   4.825   6.575   4.672  0.3719 -1.0697 -0.5327
10767SOL    HW134308   4.773   6.502   4.706 -0.3704  1.1586  3.8766
10767SOL    HW234309   4.760   6.642   4.648  0.9421  0.4995  1.9078
10768SOL     OW34310  10.734   0.277   5.469 -0.0053  0.0644  0.1213
10768SOL    HW134311  10.743   0.352   5.410  1.1204 -0.8655 -0.9508
10768SOL    HW234312  10.824   0.245   5.481 -0.0932  0.7207  3.0544
10769SOL     OW34313  11.097   4.913   2.653  0.4744 -0.6178 -0.4129
10769SOL    HW134314  11.054   4.911   2.738  1.5083  2.1281  0.2636
10769SOL    HW234315  11.189   4.899   2.672  0.9402  1.5919 -0.8394
10770SOL     OW34316   2.682   7.819   6.875  0.0617  0.0647  0.2195
10770SOL    HW134317   2.755   7.773   6.916 -0.2184 -1.2349 -0.6645
10770SOL    HW234318   2.623   7.841   6.947 -0.3669 -2.0784  0.5837
10771SOL     OW34319   3.631   2.694   8.936 -0.1380  0.2601  0.0635
10771SOL    HW134320   3.593   2.698   8.848  0.1329 -0.3659 -0.0851
10771SOL    HW234321   3.714   2.740   8.928 -0.0403  0.0642 -0.0463
10772SOL     OW34322   9.368   4.012   3.054 -0.1793 -0.5093 -0.5238
10772SOL    HW134323   9.449   4.055   3.028 -0.1701  0.1788  0.5654
10772SOL    HW234324   9.306   4.033   2.985 -0.0849  1.0067 -0.1830
10773SOL     OW34325  10.299   1.328   1.423 -0.4604 -0.3344  0.5663
10773SOL    HW134326  10.363   1.260   1.444 -1.0086 -1.3128 -0.7698
10773SOL    HW234327  10.215   1.293   1.452 -0.9569 -0.9102 -1.3912
10774SOL     OW34328   4.848   5.286  10.441 -0.3309  0.9403  0.5667
10774SOL    HW134329   4.875   5.364  10.490 -1.5787 -0.1174  3.1704
10774SOL    HW234330   4.881   5.213  10.494  0.7166 -0.3622 -1.7336
10775SOL     OW34331   9.336   4.442   0.234 -0.0565 -0.4640  0.2816
10775SOL    HW134332   9.361   4.406   0.149 -1.9007 -1.3517  0.0569
10775SOL    HW234333   9.369   4.379   0.298  0.2645 -0.4404  0.1361
10776SOL     OW34334   3.980   0.242   7.838 -0.5090  0.0636 -0.1670
10776SOL    HW134335   4.052   0.296   7.873  0.1694 -0.3278 -0.9391
10776SOL    HW234336   3.927   0.304   7.787  0.8804 -0.1648 -1.9777
10777SOL     OW34337   3.091   2.857   5.480  0.5180  0.5781  0.1043
10777SOL    HW134338   3.146   2.880   5.555  0.7649  2.1031 -0.5098
10777SOL    HW234339   3.013   2.912   5.490  0.0103 -0.0954 -0.1140
10778SOL     OW34340  10.534   0.679  10.205  0.3819 -0.0628 -0.5503
10778SOL    HW134341  10.441   0.665  10.225  0.2494 -0.4720 -1.3857
10778SOL    HW234342  10.574   0.593  10.215  1.3591  0.6506  2.9602
10779SOL     OW34343   3.466   2.778   8.341 -0.3257  0.1015 -0.0393
10779SOL    HW134344   3.499   2.827   8.265  2.0025 -0.9562  0.2050
10779SOL    HW234345   3.437   2.695   8.305 -1.8233  0.6105 -0.0899
10780SOL     OW34346   7.202   1.712   8.683 -0.0845 -0.1447 -0.5618
10780SOL    HW134347   7.172   1.802   8.672 -2.3496 -0.3630  2.6348
10780SOL    HW234348   7.287   1.721   8.727  0.6180  0.3663 -1.9393
10781SOL     OW34349   1.597   9.482   1.754  1.0153  0.6394 -0.5007
10781SOL    HW134350   1.631   9.464   1.667  0.6315 -1.2613 -0.3074
10781SOL    HW234351   1.551   9.565   1.746 -2.2392 -1.2014 -3.0953
10782SOL     OW34352  10.816   2.120   9.718  0.4699  0.3360 -0.0160
10782SOL    HW134353  10.857   2.056   9.660  1.0198 -0.9845  1.7465
10782SOL    HW234354  10.728   2.085   9.735  0.7426  0.0692  0.8920
10783SOL     OW34355   4.347   5.411   2.838  0.4778  0.3902 -0.3489
10783SOL    HW134356   4.283   5.354   2.879  0.4226  1.9140  1.8344
10783SOL    HW234357   4.315   5.500   2.854  2.2214  1.1434 -0.7675
10784SOL     OW34358   7.388   1.790   6.917  0.3923 -0.0489  0.0400
10784SOL    HW134359   7.411   1.716   6.860 -0.7048 -0.4229  0.0629
10784SOL    HW234360   7.395   1.755   7.006  2.3614  0.6053  0.2097
10785SOL     OW34361   6.140   3.449   2.037 -0.1097 -0.1131  0.1426
10785SOL    HW134362   6.204   3.423   1.971  0.3732  0.1733  0.4962
10785SOL    HW234363   6.160   3.394   2.113  0.5958  0.9293  0.7235
10786SOL     OW34364  11.069   8.016   2.889  0.7084  0.4516 -0.0768
10786SOL    HW134365  11.162   8.036   2.880  0.4150  1.6963 -0.5033
10786SOL    HW234366  11.045   8.052   2.975  0.5049  0.5721 -0.1857
10787SOL     OW34367   4.912   7.128   0.170 -0.2018  0.7322  0.0372
10787SOL    HW134368   4.966   7.206   0.182  0.9374  0.0594 -0.5281
10787SOL    HW234369   4.886   7.131   0.078  0.1112  0.2889 -0.0680
10788SOL     OW34370  11.004   9.240   3.745 -0.0071  0.1547 -0.4169
10788SOL    HW134371  10.927   9.198   3.784  0.0375  0.4808  0.0289
10788SOL    HW234372  11.078   9.192   3.784  0.1132  1.7407  1.4590
10789SOL     OW34373   7.961   3.754   2.715  0.1269 -0.0330 -0.4158
10789SOL    HW134374   8.000   3.714   2.792  2.8037  1.9358 -0.5892
10789SOL    HW234375   7.992   3.701   2.642  0.2700 -0.0395 -0.3516
10790SOL     OW34376   3.910   5.236   5.966  0.3449 -0.3443  0.0950
10790SOL    HW134377   3.975   5.224   6.035 -0.0369 -0.1057  0.5065
10790SOL    HW234378   3.960   5.234   5.884  1.0127  0.9181  0.4578
10791SOL     OW34379   4.940   5.995   2.551 -0.0087 -0.1490  0.7072
10791SOL    HW134380   4.958   6.017   2.642 -0.3995  1.0378  0.5054
10791SOL    HW234381   4.845   5.990   2.546 -0.1470  2.2531 -0.1621
10792SOL     OW34382   4.177   0.418   1.617  0.1020 -0.3437 -0.1587
10792SOL    HW134383   4.157   0.482   1.549  0.5813 -0.3137 -0.2738
10792SOL    HW234384   4.102   0.422   1.676 -0.7202 -0.9833 -1.1340
10793SOL     OW34385   4.480   0.704   1.494  0.3646  0.1069 -0.1059
10793SOL    HW134386   4.541   0.706   1.420 -2.3596 -0.0874 -2.5128
10793SOL    HW234387   4.492   0.617   1.533  1.1926 -0.1337 -0.8760
10794SOL     OW34388   2.020   1.255   5.162 -0.3516  0.0149 -0.8059
10794SOL    HW134389   2.076   1.319   5.118  0.5218 -0.7499 -0.8407
10794SOL    HW234390   1.931   1.289   5.152 -0.0831  0.3082 -2.3675
10795SOL     OW34391   9.227   0.150   4.686 -0.7413 -0.2707 -0.0544
10795SOL    HW134392   9.240   0.057   4.668 -1.6183 -0.6716  1.2523
10795SOL    HW234393   9.139   0.169   4.653 -0.5445  0.1272 -0.3709
10796SOL     OW34394   6.936  10.690   8.895 -0.0028 -0.3094 -0.1201
10796SOL    HW134395   6.940  10.675   8.990  0.4232  0.4792 -0.0015
10796SOL    HW234396   6.852  10.653   8.868  0.8344 -2.5561  0.1730
10797SOL     OW34397  10.016  10.875   4.387 -0.6261  0.3030  0.2847
10797SOL    HW134398  10.069  10.882   4.466 -0.6248 -0.8767  0.4098
10797SOL    HW234399   9.934  10.920   4.408 -1.1749 -1.1571  1.4759
10798SOL     OW34400  10.877  11.216   7.183 -0.0837 -0.2238 -0.4277
10798SOL    HW134401  10.834  11.300   7.170  0.2880 -0.0018 -0.2357
10798SOL    HW234402  10.813  11.151   7.153 -0.5881  0.0951 -0.0521
10799SOL     OW34403   1.343   4.371  10.498 -0.5957 -0.6928  0.4016
10799SOL    HW134404   1.367   4.391  10.588 -1.2475  2.4214  0.0008
10799SOL    HW234405   1.330   4.276  10.497 -2.0126 -0.6995  3.9535
10800SOL     OW34406   9.605  10.398   4.100  0.3619 -0.0093 -0.2042
10800SOL    HW134407   9.671  10.420   4.165 -0.2050  1.5044 -0.1032
10800SOL    HW234408   9.576  10.309   4.124  0.1196  0.5265  1.6451
10801SOL     OW34409   5.851   5.007   8.843  0.2036  0.5250  1.1361
10801SOL    HW134410   5.942   5.030   8.862  1.1894 -0.6124 -1.7331
10801SOL    HW234411   5.834   5.046   8.757 -0.6056 -2.5933 -0.2607
10802SOL     OW34412   9.449   2.825   6.971  0.3769 -0.2765 -0.1540
10802SOL    HW134413   9.486   2.746   7.008 -1.2185 -1.2063 -0.4645
10802SOL    HW234414   9.411   2.871   7.046 -1.9204 -1.6439 -0.3819
10803SOL     OW34415  10.765   7.821   0.584 -0.0665  0.0350 -0.0843
10803SOL    HW134416  10.826   7.887   0.617  0.8237 -0.3743 -0.8450
10803SOL    HW234417  10.818   7.742   0.574 -1.4243 -1.2967  2.2625
10804SOL     OW34418   6.507  10.244   9.779 -0.6667  1.0556 -1.0126
10804SOL    HW134419   6.436  10.300   9.746 -0.2765  1.2888 -1.4637
10804SOL    HW234420   6.586  10.282   9.742 -0.3034  0.7837 -0.5242
10805SOL     OW34421   9.898   0.012   4.660 -0.6270 -0.9591  0.2475
10805SOL    HW134422   9.810  -0.015   4.636 -0.7346 -0.3550 -0.0459
10805SOL    HW234423   9.914  -0.032   4.744 -1.6766 -0.1038  0.9242
10806SOL     OW34424   6.168   3.420   7.844  0.4839  0.1941 -0.6008
10806SOL    HW134425   6.192   3.330   7.823  0.5768  0.4690 -1.7070
10806SOL    HW234426   6.233   3.447   7.909  0.0106 -0.7652  0.3042
10807SOL     OW34427   9.944   3.533   5.495  0.1931  0.3008  0.4946
10807SOL    HW134428   9.958   3.479   5.573  0.0621 -2.5411 -1.2955
10807SOL    HW234429   9.892   3.478   5.437 -1.3911  3.0628 -0.8816
10808SOL     OW34430  11.248   2.864   8.889 -0.2147 -0.0816 -0.0462
10808SOL    HW134431  11.288   2.789   8.934  1.6214  1.2836  0.7140
10808SOL    HW234432  11.310   2.886   8.820 -0.8396  0.5986 -0.3985
10809SOL     OW34433   8.213   9.595   8.917 -0.3864 -0.1754 -0.0287
10809SOL    HW134434   8.125   9.608   8.882 -0.3330 -0.8147 -0.4040
10809SOL    HW234435   8.233   9.503   8.899  2.9372  1.2155 -5.9807
10810SOL     OW34436   1.946   8.837   2.574 -0.1297 -0.7575 -0.5697
10810SOL    HW134437   1.988   8.755   2.602  0.4393  0.4362  2.5093
10810SOL    HW234438   2.001   8.905   2.612 -1.9260  1.0130 -1.0095
10811SOL     OW34439  10.748   3.299   1.503 -0.7045 -0.1556  0.5532
10811SOL    HW134440  10.790   3.384   1.489 -0.1598 -0.3125  1.1504
10811SOL    HW234441  10.702   3.309   1.587  0.8928 -1.0022  1.5722
10812SOL     OW34442   9.803   4.108  11.008 -0.6048  0.7392  0.1151
10812SOL    HW134443   9.776   4.025  11.048 -2.4007  0.2279 -2.0077
10812SOL    HW234444   9.784   4.174  11.075  1.6457 -0.5133  2.1898
10813SOL     OW34445   5.798   3.072   1.679 -0.4027  0.2118  0.2021
10813SOL    HW134446   5.718   3.025   1.654  0.4337 -1.9927  1.3956
10813SOL    HW234447   5.851   3.007   1.724  1.9312  1.7210 -0.1985
10814SOL     OW34448   5.599   7.989   8.666  0.1200 -0.0188 -0.2862
10814SOL    HW134449   5.578   7.956   8.578 -1.1231 -1.8765  0.6554
10814SOL    HW234450   5.688   7.958   8.683  1.5702  2.7977 -1.9320
10815SOL     OW34451   2.048   2.315   6.289  0.1139  0.1409 -0.2091
10815SOL    HW134452   2.019   2.225   6.275 -0.2926  0.4690 -1.6969
10815SOL    HW234453   2.001   2.345   6.366 -1.2454 -0.3079 -0.8441
10816SOL     OW34454   9.517   5.648   3.101  0.6745  0.2847  0.1590
10816SOL    HW134455   9.537   5.567   3.148 -0.4397  0.5322  1.1018
10816SOL    HW234456   9.556   5.636   3.015 -2.3096 -2.6796 -0.9815
10817SOL     OW34457   5.961   2.010   6.082  0.0499 -0.3335 -0.8446
10817SOL    HW134458   5.963   2.010   5.986 -0.6952  0.1831 -0.8658
10817SOL    HW234459   5.988   1.921   6.106 -0.5034 -0.7094 -1.5550
10818SOL     OW34460   3.691   5.998   9.616 -0.3559  0.0987 -0.7194
10818SOL    HW134461   3.772   6.008   9.565  0.9447 -1.2214  0.9572
10818SOL    HW234462   3.713   5.932   9.682 -2.2749  0.9838  0.8893
10819SOL     OW34463   6.550   9.953   8.726  0.5152 -0.4705  0.2499
10819SOL    HW134464   6.508   9.887   8.670  0.4740 -1.7419  1.6740
10819SOL    HW234465   6.478  10.012   8.751  0.9736  1.6699 -2.9345
10820SOL     OW34466   2.437   2.606  10.793  0.6481  0.0799  0.1715
10820SOL    HW134467   2.350   2.646  10.782  1.7487  2.5244 -0.2928
10820SOL    HW234468   2.435   2.529  10.736 -1.6949 -0.8583  1.3600
10821SOL     OW34469  10.974   9.586   7.484  0.0059 -0.4352 -0.0760
10821SOL    HW134470  10.980   9.511   7.425  0.9853  0.6564 -1.4386
10821SOL    HW234471  10.997   9.551   7.570  2.7260 -1.2943 -1.0404
10822SOL     OW34472   1.982   5.571   9.526  0.1146  0.2759 -0.5588
10822SOL    HW134473   1.905   5.539   9.573 -0.2565  0.5241 -0.9843
10822SOL    HW234474   2.044   5.498   9.529 -1.0505 -0.8805 -2.2588
10823SOL     OW34475   3.139   6.713   9.795  0.2347 -0.2134 -0.1382
10823SOL    HW134476   3.219   6.691   9.748  0.5039 -1.3577  0.8248
10823SOL    HW234477   3.075   6.731   9.726  1.0415 -0.2830 -0.9227
10824SOL     OW34478   0.149   8.883   8.673 -0.0959  0.0541 -0.0030
10824SOL    HW134479   0.108   8.953   8.723 -0.3559 -0.8375  1.0606
10824SOL    HW234480   0.161   8.812   8.736  0.1665 -0.8575 -1.0514
10825SOL     OW34481   2.124   0.479   5.009  0.2184 -0.2166  0.0404
10825SOL    HW134482   2.080   0.479   4.924 -0.2031  2.5237  0.1600
10825SOL    HW234483   2.216   0.467   4.988 -0.1530 -2.7175 -0.4831
10826SOL     OW34484  11.004   2.847   1.204  0.3649  0.4975 -0.1591
10826SOL    HW134485  10.997   2.939   1.227 -0.4721  0.6343 -0.9029
10826SOL    HW234486  10.924   2.828   1.155 -0.8252 -1.2811  2.2174
10827SOL     OW34487   0.084   4.833   3.648 -0.7626  0.6190  0.2381
10827SOL    HW134488   0.043   4.818   3.564 -1.6840  1.2288  0.5694
10827SOL    HW234489   0.074   4.750   3.695 -0.0074  0.1904 -0.3343
10828SOL     OW34490   1.922   2.455   7.535 -0.0741 -0.0657 -0.5079
10828SOL    HW134491   1.937   2.527   7.596  2.1225 -1.8471  1.2356
10828SOL    HW234492   1.981   2.473   7.462 -0.8506  0.7540 -0.9666
10829SOL     OW34493   0.236  10.321   2.368  0.0554 -0.1168  0.3982
10829SOL    HW134494   0.153  10.304   2.323 -0.4284 -0.8923  1.5472
10829SOL    HW234495   0.212  10.327   2.461  0.8495  2.6171  0.5069
10830SOL     OW34496  10.965   0.565   2.649  0.2428  0.0065  0.1058
10830SOL    HW134497  11.049   0.606   2.670 -0.5117  1.3931  0.5269
10830SOL    HW234498  10.948   0.588   2.558  1.4513 -2.3677 -0.8063
10831SOL     OW34499   1.698   3.902   8.074 -0.3358  0.4295  0.6581
10831SOL    HW134500   1.758   3.851   8.128  1.1590  2.4443  1.0569
10831SOL    HW234501   1.729   3.887   7.984 -0.9859 -0.6598  0.6062
10832SOL     OW34502   5.471   0.438   6.489 -0.3578 -0.1488 -0.4974
10832SOL    HW134503   5.411   0.364   6.478  0.6005 -0.7855 -1.6845
10832SOL    HW234504   5.558   0.398   6.487  0.1877  1.0381 -1.4224
10833SOL     OW34505   9.775   1.202   0.961 -0.0866  0.2023  0.3192
10833SOL    HW134506   9.783   1.201   1.056 -1.3248 -1.5969  0.4714
10833SOL    HW234507   9.682   1.183   0.945 -0.2002  1.8070 -1.2594
10834SOL     OW34508   3.032   6.694   2.254  0.0325 -0.2500  0.2307
10834SOL    HW134509   2.988   6.779   2.252 -0.1984 -0.3785 -1.4615
10834SOL    HW234510   3.025   6.665   2.345 -1.2464  0.8370  0.4987
10835SOL     OW34511   1.996   3.774   1.108 -0.7643 -0.2431  0.6421
10835SOL    HW134512   2.026   3.727   1.030 -1.4400 -1.0887  0.8842
10835SOL    HW234513   1.972   3.861   1.076 -1.0181 -0.5775 -0.0937
10836SOL     OW34514   0.773   4.839   7.168 -0.1755 -0.1157 -0.2766
10836SOL    HW134515   0.850   4.786   7.187 -0.1976 -0.0827 -0.0895
10836SOL    HW234516   0.717   4.783   7.115 -0.3776 -0.4214  0.2537
10837SOL     OW34517   7.544   1.091  10.889  0.3994  0.4274  0.3402
10837SOL    HW134518   7.530   1.146  10.811  1.9210  0.6354  0.1857
10837SOL    HW234519   7.629   1.118  10.922  0.4954 -0.8053  1.1478
10838SOL     OW34520   9.551   6.514   4.172  0.0885  0.1945  0.3544
10838SOL    HW134521   9.613   6.443   4.187 -1.6043 -0.9268  3.0362
10838SOL    HW234522   9.514   6.497   4.086  0.1659 -1.9022  0.6798
10839SOL     OW34523  10.996   9.854   7.161  0.0161 -0.5964 -0.2812
10839SOL    HW134524  11.074   9.902   7.189 -0.0010  1.0218 -2.7111
10839SOL    HW234525  11.030   9.777   7.116  0.2582  0.1001 -1.3248
10840SOL     OW34526   5.504   0.738   1.746  0.5235  0.2543 -0.5671
10840SOL    HW134527   5.507   0.789   1.665 -0.3848  0.2740 -0.6009
10840SOL    HW234528   5.590   0.696   1.751  0.5023  0.0469 -1.6733
10841SOL     OW34529   9.862  10.205   7.708 -0.3085 -0.4089 -0.7908
10841SOL    HW134530   9.805  10.240   7.640 -0.0146 -0.9926 -1.3502
10841SOL    HW234531   9.948  10.198   7.666 -0.1941 -1.0642 -0.4608
10842SOL     OW34532   9.851   3.779   3.608 -1.1101  0.5201  0.5847
10842SOL    HW134533   9.839   3.798   3.514 -0.3160 -1.1859  0.1059
10842SOL    HW234534   9.925   3.834   3.634  0.3165 -0.8239 -0.4508
10843SOL     OW34535   2.193   2.764   8.903  0.2394 -0.4921 -0.0520
10843SOL    HW134536   2.268   2.820   8.881  0.8814 -1.7202 -1.1268
10843SOL    HW234537   2.170   2.789   8.993  0.9306  0.9942 -0.2581
10844SOL     OW34538   8.166   3.861   1.863 -0.5038 -0.5551 -0.1434
10844SOL    HW134539   8.181   3.888   1.954 -0.6542 -1.8736  0.2994
10844SOL    HW234540   8.216   3.780   1.854  2.0608  1.1170 -2.2001
10845SOL     OW34541   7.592   3.870   3.578  0.2209  0.2042 -0.4109
10845SOL    HW134542   7.672   3.821   3.558  0.3314 -0.8870  2.2596
10845SOL    HW234543   7.622   3.952   3.617  0.2099 -1.0633  2.5503
10846SOL     OW34544   2.117   6.968   6.229 -0.2031 -0.1686 -0.5905
10846SOL    HW134545   2.086   6.877   6.225 -0.2540 -0.1950  0.1463
10846SOL    HW234546   2.102   6.993   6.320  0.1395  0.4654 -0.7093
10847SOL     OW34547   0.035   9.572  10.203 -0.3712 -0.2418  0.1827
10847SOL    HW134548  -0.030   9.512  10.168  0.5641  0.3219 -2.8113
10847SOL    HW234549   0.048   9.544  10.294 -1.7861 -2.9031 -0.3519
10848SOL     OW34550   7.345   7.495   3.609  0.0558 -0.1674 -0.0718
10848SOL    HW134551   7.373   7.408   3.635 -0.2210  0.2769  1.8964
10848SOL    HW234552   7.253   7.485   3.586  0.3252 -0.5853 -1.0346
10849SOL     OW34553   6.764   2.175   0.830 -0.2592 -0.7546  0.3982
10849SOL    HW134554   6.816   2.115   0.883  1.8348  1.2678  0.8441
10849SOL    HW234555   6.810   2.259   0.838 -1.9481  0.4732 -1.6883
10850SOL     OW34556   3.468   5.635   2.040 -0.0260 -0.3925 -0.2553
10850SOL    HW134557   3.562   5.646   2.054 -0.2939  0.3849  1.1011
10850SOL    HW234558   3.445   5.705   1.977  0.2596 -0.4546 -0.4302
10851SOL     OW34559   2.557  10.292   6.283  0.3630 -0.2434  0.0536
10851SOL    HW134560   2.544  10.355   6.355 -0.4450 -0.6981  0.3157
10851SOL    HW234561   2.643  10.314   6.248 -0.5441  2.0878 -0.9195
10852SOL     OW34562   9.989   9.877   1.852 -0.0008  1.0780  0.6103
10852SOL    HW134563  10.004   9.860   1.759  0.4741  0.1877  0.8361
10852SOL    HW234564  10.075   9.868   1.892 -0.2465  1.2034  1.1804
10853SOL     OW34565   4.077   5.658   4.681  0.1292  0.4273  0.0348
10853SOL    HW134566   4.017   5.683   4.610  1.6618 -0.5394 -1.6978
10853SOL    HW234567   4.074   5.563   4.682  1.9779  0.3224 -0.4695
10854SOL     OW34568   3.939   5.003   4.717  0.4599  0.1026  0.3666
10854SOL    HW134569   3.847   5.013   4.744  1.2717  1.3991  2.9735
10854SOL    HW234570   3.950   5.065   4.645 -0.7384 -0.1946 -0.0936
10855SOL     OW34571   8.420   1.555   0.037 -0.2194  0.0977  0.0576
10855SOL    HW134572   8.362   1.630   0.034  0.1801  0.3936 -2.5525
10855SOL    HW234573   8.366   1.483   0.069 -0.6375  1.3795  2.4737
10856SOL     OW34574   1.415   8.028  10.049 -0.3283  0.4209  0.2206
10856SOL    HW134575   1.360   7.981  10.111 -0.6809  0.9393  0.3057
10856SOL    HW234576   1.457   7.959   9.997 -1.2469  0.0234 -0.0109
10857SOL     OW34577   0.414   1.854   4.173 -0.2110 -0.2697  0.3461
10857SOL    HW134578   0.363   1.786   4.128 -0.5361  0.6046 -0.6569
10857SOL    HW234579   0.381   1.936   4.137  2.6969  0.3389 -1.2771
10858SOL     OW34580   3.821   0.253   3.618 -0.2282  0.3397  0.1673
10858SOL    HW134581   3.906   0.249   3.660 -0.7335  1.4666  1.3625
10858SOL    HW234582   3.801   0.162   3.595  2.3173  0.2668 -2.3832
10859SOL     OW34583   7.725   4.819   7.586  0.3173 -0.4673  0.3619
10859SOL    HW134584   7.746   4.744   7.641  3.3935 -0.2628 -0.3523
10859SOL    HW234585   7.658   4.787   7.525  0.6534 -2.2297  0.8644
10860SOL     OW34586   7.248  10.669   9.095  0.3281  0.1414 -0.4152
10860SOL    HW134587   7.277  10.599   9.153 -0.3369 -0.7096 -1.0765
10860SOL    HW234588   7.295  10.747   9.125  2.9651 -1.0450 -1.1413
10861SOL     OW34589   0.548   0.843   5.267 -0.2976  0.0747  0.0636
10861SOL    HW134590   0.509   0.843   5.354 -2.3796 -1.8878 -0.7537
10861SOL    HW234591   0.539   0.933   5.236 -0.8388  0.4713  1.3305
10862SOL     OW34592   1.719   3.164   3.415  0.2286  0.6722  0.7835
10862SOL    HW134593   1.750   3.174   3.325  1.2809  3.1742  1.3507
10862SOL    HW234594   1.786   3.206   3.468 -1.3362  1.0141  2.5849
10863SOL     OW34595   5.951   4.468   4.725  0.4677 -0.7626  0.0367
10863SOL    HW134596   5.980   4.377   4.719 -1.3997 -1.3570 -1.1223
10863SOL    HW234597   5.914   4.477   4.813 -3.1183 -2.4823 -1.0988
10864SOL     OW34598  10.335   7.510   6.231  0.3128  0.5982  0.0080
10864SOL    HW134599  10.421   7.500   6.272  0.6051  0.7468 -0.5608
10864SOL    HW234600  10.318   7.426   6.189 -0.5029  0.0436  1.3694
10865SOL     OW34601   6.134   7.528   1.538  0.1095  0.6171 -0.1153
10865SOL    HW134602   6.191   7.489   1.604  0.0175  2.1345  0.8968
10865SOL    HW234603   6.194   7.562   1.471  0.2529  0.0945 -0.2613
10866SOL     OW34604   1.363   6.141   2.187 -0.4037  0.2260  0.0172
10866SOL    HW134605   1.319   6.073   2.136  0.5374  0.4096 -1.0987
10866SOL    HW234606   1.405   6.094   2.259  0.9863 -0.5403 -1.2459
10867SOL     OW34607   0.483  11.210  10.791 -0.1010 -0.2721 -0.0738
10867SOL    HW134608   0.544  11.140  10.768  0.1778  0.0327 -0.2677
10867SOL    HW234609   0.486  11.215  10.886  0.5634  0.0818 -0.1074
10868SOL     OW34610   8.424   0.920   0.644 -0.5894  0.0597  0.5247
10868SOL    HW134611   8.460   0.974   0.574 -1.0660 -0.3246 -0.0375
10868SOL    HW234612   8.498   0.868   0.675 -0.1787  0.8712  0.9247
10869SOL     OW34613   3.742   8.047   9.116  0.8498 -0.0548 -0.2754
10869SOL    HW134614   3.667   8.011   9.069  1.6968 -1.9587 -0.2478
10869SOL    HW234615   3.816   7.992   9.090  2.3552  1.9545 -0.5750
10870SOL     OW34616   9.312  10.676   8.170  0.0437  0.6090 -0.2129
10870SOL    HW134617   9.221  10.703   8.161 -0.0307  0.7746  0.8763
10870SOL    HW234618   9.342  10.718   8.251  0.1506 -1.8298  1.1494
10871SOL     OW34619  10.494   5.548   1.367 -0.8138 -0.1064  0.0754
10871SOL    HW134620  10.409   5.568   1.329  0.2132  4.3279 -0.3902
10871SOL    HW234621  10.508   5.616   1.433  3.3340  1.0003 -1.6020
10872SOL     OW34622  11.225   0.195   6.379 -0.5859  0.8248 -0.0817
10872SOL    HW134623  11.160   0.255   6.417 -2.5027 -1.3926  0.3548
10872SOL    HW234624  11.234   0.125   6.443 -1.1125 -1.1375 -2.0493
10873SOL     OW34625   1.320   2.302  10.936 -0.4915  0.0670 -0.1062
10873SOL    HW134626   1.332   2.306  11.031 -1.3378  3.6366 -0.0145
10873SOL    HW234627   1.236   2.258  10.924 -0.1084 -0.9369  0.7230
10874SOL     OW34628   6.725   2.143   2.323 -0.9222 -0.0525  0.0302
10874SOL    HW134629   6.756   2.229   2.293 -0.0522  0.2179  1.6013
10874SOL    HW234630   6.791   2.082   2.290 -1.5703 -0.1427 -1.1353
10875SOL     OW34631   6.217   7.708   4.772 -0.4852 -0.5546  0.1233
10875SOL    HW134632   6.249   7.710   4.862  0.3600  0.8660 -0.1646
10875SOL    HW234633   6.138   7.761   4.773  0.4768  0.9786 -0.2463
10876SOL     OW34634   8.855   4.141   7.117  0.2922  0.5917  0.4318
10876SOL    HW134635   8.831   4.126   7.026  0.2298 -0.0165  0.5407
10876SOL    HW234636   8.873   4.053   7.151  1.1025  0.8856  0.7861
10877SOL     OW34637   3.855   1.730   9.612 -0.0184  0.0533  0.3703
10877SOL    HW134638   3.847   1.676   9.690  2.2383 -0.2792  0.4371
10877SOL    HW234639   3.780   1.791   9.617 -0.8543 -1.0383  1.8790
10878SOL     OW34640   3.788   0.241   4.214 -0.2177 -0.0748  0.9776
10878SOL    HW134641   3.745   0.300   4.152 -0.5690  0.7648  1.9839
10878SOL    HW234642   3.856   0.295   4.255  1.4579 -1.2228 -0.1883
10879SOL     OW34643   3.620   1.321   3.708  0.4087  0.7698  0.0503
10879SOL    HW134644   3.671   1.366   3.641 -0.7479  0.0445 -1.3819
10879SOL    HW234645   3.664   1.237   3.721  0.6150  0.8973  0.1702
10880SOL     OW34646   4.770   1.086   4.220 -0.2762  0.0005  0.1848
10880SOL    HW134647   4.779   1.143   4.144 -1.3448 -1.2493 -0.9330
10880SOL    HW234648   4.812   1.134   4.292  1.0136  1.0987 -1.2365
10881SOL     OW34649   2.994   9.267   9.789  0.1310 -0.5347  0.5082
10881SOL    HW134650   2.968   9.298   9.702 -0.2243 -1.9366  0.0927
10881SOL    HW234651   2.946   9.323   9.850 -2.8202 -2.0823 -0.2141
10882SOL     OW34652   0.704   1.655   7.963 -0.5249  0.1220  0.0800
10882SOL    HW134653   0.636   1.633   7.900 -0.9871  0.2947  0.5170
10882SOL    HW234654   0.657   1.672   8.044  0.1868 -1.9057  0.9913
10883SOL     OW34655   6.084   0.374   4.091  0.3143  0.3096 -0.2356
10883SOL    HW134656   6.079   0.374   3.995 -0.4598 -0.8303 -0.2126
10883SOL    HW234657   6.038   0.294   4.117 -2.2197  2.1257  1.2477
10884SOL     OW34658   7.609   8.776   3.684  0.4461  0.2854  0.2608
10884SOL    HW134659   7.576   8.841   3.622 -2.3992 -0.2801  1.0040
10884SOL    HW234660   7.599   8.692   3.639 -1.5421 -0.1201  1.3001
10885SOL     OW34661   9.615   6.681   1.653  0.6538  0.3496  0.5861
10885SOL    HW134662   9.667   6.686   1.733  1.8536 -2.4444  0.0763
10885SOL    HW234663   9.577   6.593   1.655 -0.6427  0.8322 -1.1298
10886SOL     OW34664   4.038   3.764  10.319  0.0754 -0.1201  0.6431
10886SOL    HW134665   4.073   3.853  10.307 -0.6247  0.0041 -0.5836
10886SOL    HW234666   4.038   3.726  10.231  0.3894 -1.3610  1.1635
10887SOL     OW34667   6.702   5.589   3.667  0.1222  0.3053 -0.2534
10887SOL    HW134668   6.622   5.628   3.632  2.4119  2.6971 -3.4768
10887SOL    HW234669   6.701   5.499   3.636 -0.7569  0.6876 -1.4026
10888SOL     OW34670   6.808   2.333   3.860  0.3991  1.2072  0.2394
10888SOL    HW134671   6.782   2.350   3.951  0.3470 -0.2462  0.5160
10888SOL    HW234672   6.899   2.306   3.866  0.0347 -0.1414  0.0212
10889SOL     OW34673   7.133   3.562   1.854  0.2045  0.0316  0.2963
10889SOL    HW134674   7.180   3.594   1.930  1.8716  0.8663 -1.0041
10889SOL    HW234675   7.070   3.498   1.889  0.6912  0.6184  2.3565
10890SOL     OW34676   9.276   9.451   4.477  0.9991 -0.0848 -0.1044
10890SOL    HW134677   9.239   9.386   4.537 -1.3402  0.5454 -0.7894
10890SOL    HW234678   9.336   9.502   4.532  2.6985 -2.5797  0.5079
10891SOL     OW34679   9.330   5.759   6.430 -0.7373 -0.0698  0.6680
10891SOL    HW134680   9.338   5.819   6.356 -1.2766 -0.1195  0.5631
10891SOL    HW234681   9.392   5.793   6.495  0.6285 -0.7197 -0.2498
10892SOL     OW34682  10.288   0.684   3.876  0.1072 -1.2187 -0.0445
10892SOL    HW134683  10.268   0.768   3.836  1.0847 -0.7126  0.4788
10892SOL    HW234684  10.208   0.658   3.921  0.5155  0.7403  2.0165
10893SOL     OW34685   5.666   8.719   5.753 -0.4712  0.2735  0.1405
10893SOL    HW134686   5.596   8.781   5.733 -3.9696 -3.7924 -1.8155
10893SOL    HW234687   5.692   8.683   5.668  0.3094 -1.9103  1.2192
10894SOL     OW34688   2.562   5.203   2.300 -0.0351 -0.0011  0.0893
10894SOL    HW134689   2.474   5.195   2.262 -0.3952  1.2362  0.6296
10894SOL    HW234690   2.621   5.173   2.230 -0.9330 -2.2707  0.2263
10895SOL     OW34691  10.425   0.031   2.470 -0.5806  0.3965 -0.6805
10895SOL    HW134692  10.468   0.116   2.484  0.9351 -0.3234 -0.8393
10895SOL    HW234693  10.344   0.053   2.422  0.1095  1.6889 -1.2990
10896SOL     OW34694   7.582   7.565   3.752  0.6600  0.2278 -0.3373
10896SOL    HW134695   7.538   7.514   3.683 -1.9019  1.8272  0.0032
10896SOL    HW234696   7.581   7.508   3.829  1.3383 -0.6283 -0.9351
10897SOL     OW34697   9.344   7.171   2.047 -0.3598  0.3716 -0.2500
10897SOL    HW134698   9.270   7.114   2.025 -1.2600  0.3147  2.5910
10897SOL    HW234699   9.305   7.242   2.099  1.6491 -0.2111  2.2310
10898SOL     OW34700   8.533   0.863   3.863  0.4584  0.0903 -0.3398
10898SOL    HW134701   8.445   0.851   3.827  0.7367  0.2201 -1.0682
10898SOL    HW234702   8.577   0.919   3.801  1.0342  0.1055  0.0754
10899SOL     OW34703   4.802   0.642  10.001  0.3952  0.6818  0.1171
10899SOL    HW134704   4.732   0.658   9.937 -0.9652 -1.2875  0.9853
10899SOL    HW234705   4.882   0.644   9.950 -0.4888  0.8969 -1.3293
10900SOL     OW34706   0.174   0.828   3.317  0.2511  0.7416  0.0315
10900SOL    HW134707   0.133   0.759   3.370  0.4797  1.1151  0.7020
10900SOL    HW234708   0.232   0.780   3.257 -0.4995  0.2682 -0.3433
10901SOL     OW34709   2.160  10.838   4.766 -0.2430 -0.4683 -0.1853
10901SOL    HW134710   2.186  10.893   4.840  1.0337 -0.7913 -0.3616
10901SOL    HW234711   2.067  10.823   4.778 -0.6330  1.6515 -0.0717
10902SOL     OW34712   1.719   4.460   5.867  0.3411  0.2367 -0.3834
10902SOL    HW134713   1.739   4.367   5.860 -0.7521 -0.3028  2.3309
10902SOL    HW234714   1.797   4.498   5.908  0.3684  0.3117 -0.5051
10903SOL     OW34715   8.330   2.140   4.058 -0.3796  0.1232  0.1916
10903SOL    HW134716   8.424   2.152   4.045 -0.3418 -0.4591 -0.1119
10903SOL    HW234717   8.296   2.228   4.071 -0.2906  0.7392 -3.0336
10904SOL     OW34718   1.654   7.115   8.932  0.0257 -0.4819  1.2504
10904SOL    HW134719   1.698   7.126   8.847  1.0806  1.1169  1.9652
10904SOL    HW234720   1.721   7.138   8.996 -1.4125  0.5279  2.4499
10905SOL     OW34721   0.951  11.085   5.797 -0.0176  0.3048  0.0844
10905SOL    HW134722   0.936  11.017   5.732 -2.3219 -0.9134  1.7431
10905SOL    HW234723   0.897  11.060   5.871  1.8937  2.0304  2.2207
10906SOL     OW34724   0.332   4.598   8.507 -0.2331 -0.4982 -0.2732
10906SOL    HW134725   0.344   4.570   8.598  0.8089 -1.2053 -0.6126
10906SOL    HW234726   0.237   4.592   8.493 -0.5795  1.0341  1.1933
10907SOL     OW34727   2.673   2.963   3.610  0.0114 -0.2185 -0.2386
10907SOL    HW134728   2.642   2.873   3.598 -0.0870 -0.2210  0.0404
10907SOL    HW234729   2.666   2.979   3.704 -1.7061  0.7069 -0.4824
10908SOL     OW34730   7.832   1.124   0.328 -0.0029 -0.4374 -0.1317
10908SOL    HW134731   7.916   1.111   0.372  0.4732  1.6500 -0.2887
10908SOL    HW234732   7.856   1.143   0.237 -0.5280  1.1536  0.0315
10909SOL     OW34733   2.233   2.373   2.231  0.3365 -0.1600  0.0363
10909SOL    HW134734   2.296   2.378   2.159  0.7805  2.0966  0.4896
10909SOL    HW234735   2.153   2.412   2.196 -0.3305 -1.5468 -0.0379
10910SOL     OW34736   2.553   7.150   9.164  1.0086  0.2360 -1.1871
10910SOL    HW134737   2.504   7.229   9.141  1.7464  2.1031  2.8898
10910SOL    HW234738   2.486   7.088   9.191  0.6006  1.2692  0.2827
10911SOL     OW34739   9.972   4.443   9.292  0.1855 -0.5161  0.1780
10911SOL    HW134740   9.886   4.469   9.326  0.9941  0.3698  1.6074
10911SOL    HW234741   9.958   4.354   9.259 -2.0174  0.6774 -2.5115
10912SOL     OW34742   9.950   9.442   9.741  0.2143 -0.5002 -0.0342
10912SOL    HW134743   9.854   9.444   9.744  0.1480  1.9620 -1.3237
10912SOL    HW234744   9.970   9.391   9.662 -0.1568  0.6910 -0.9423
10913SOL     OW34745   9.847   0.982   2.598  0.3625 -0.1895  0.2066
10913SOL    HW134746   9.831   1.075   2.579 -0.0410 -0.3715 -0.3679
10913SOL    HW234747   9.856   0.979   2.693 -0.1378  0.3670  0.2844
10914SOL     OW34748   0.458   7.742   2.526 -0.1976 -0.1526 -0.5884
10914SOL    HW134749   0.397   7.728   2.453  0.0033 -0.4738 -0.6996
10914SOL    HW234750   0.538   7.696   2.500 -0.9561 -2.5779  0.9287
10915SOL     OW34751   2.380   2.243   9.248 -0.3337  0.6197  0.1440
10915SOL    HW134752   2.343   2.204   9.169 -1.0617  0.9567  0.3153
10915SOL    HW234753   2.324   2.212   9.319  0.3739  0.2410  0.5451
10916SOL     OW34754   1.613   9.870  10.271  0.0689  0.5690  0.7222
10916SOL    HW134755   1.570   9.955  10.287  0.7204  0.8305  1.1101
10916SOL    HW234756   1.564   9.833  10.198 -0.1313  1.3571  0.4378
10917SOL     OW34757   5.585   9.753   6.007  0.2274 -0.7385  0.2516
10917SOL    HW134758   5.637   9.786   6.080 -0.5140  0.3696  0.3008
10917SOL    HW234759   5.539   9.830   5.974  1.2713 -1.0109 -2.0093
10918SOL     OW34760  10.708   8.940   2.092 -0.1884  0.3393  0.0951
10918SOL    HW134761  10.738   8.994   2.019 -1.1899  0.7770 -0.0132
10918SOL    HW234762  10.670   9.002   2.154 -1.5103 -0.2249 -0.1037
10919SOL     OW34763   0.069   3.119   9.150 -0.4157 -0.6277 -0.2593
10919SOL    HW134764   0.088   3.213   9.139  1.9863 -1.2644 -2.7145
10919SOL    HW234765  -0.024   3.111   9.131 -1.3026  1.4740  2.3832
10920SOL     OW34766  10.472   8.263   2.997  0.1952 -0.0145  0.1001
10920SOL    HW134767  10.427   8.274   3.080  0.4608 -0.6268  0.3299
10920SOL    HW234768  10.473   8.168   2.983  1.2613  0.0011  0.0198
10921SOL     OW34769   8.870   5.068   8.448  0.3734  0.3084  0.4466
10921SOL    HW134770   8.881   5.000   8.381 -0.2791 -0.4329  1.0694
10921SOL    HW234771   8.919   5.143   8.415  1.2389 -0.5190 -0.1816
10922SOL     OW34772  10.187   3.090   1.408  0.3152  0.4174  0.6007
10922SOL    HW134773  10.164   3.050   1.492 -0.9485 -0.2506 -0.0351
10922SOL    HW234774  10.282   3.076   1.399  0.3940  0.1752  1.7320
10923SOL     OW34775   1.784   2.793  10.553 -0.2025 -0.5456  0.2097
10923SOL    HW134776   1.690   2.779  10.565 -0.1453 -1.8745 -0.6013
10923SOL    HW234777   1.798   2.886  10.572 -1.9071 -0.0103 -0.9507
10924SOL     OW34778   7.825   3.722   7.357 -0.4073  0.3600 -0.1835
10924SOL    HW134779   7.754   3.665   7.329 -0.9381  0.2918  1.1989
10924SOL    HW234780   7.903   3.687   7.315 -0.8935 -0.7489 -0.1786
10925SOL     OW34781   7.968   1.704   5.727 -0.6815 -0.1868 -0.0355
10925SOL    HW134782   7.982   1.787   5.682  0.0971 -1.2346 -1.8478
10925SOL    HW234783   7.883   1.674   5.694  0.4958 -1.6058 -2.0207
10926SOL     OW34784   2.379   9.198   2.299 -0.1121 -0.9607 -0.3595
10926SOL    HW134785   2.374   9.158   2.212 -2.7770 -0.2968 -0.6021
10926SOL    HW234786   2.288   9.211   2.325  0.5984  1.3084  1.3880
10927SOL     OW34787   2.371   8.103   3.890 -0.1590 -0.1445  0.0641
10927SOL    HW134788   2.345   8.061   3.808 -2.9155 -1.7824  1.6391
10927SOL    HW234789   2.443   8.050   3.923  2.1371  1.4719 -1.9139
10928SOL     OW34790  10.567   9.263  10.791 -0.1194  0.1494 -0.1177
10928SOL    HW134791  10.536   9.173  10.785  0.5899 -0.1348  0.4269
10928SOL    HW234792  10.582   9.278  10.884 -0.6999  0.9965 -0.1490
10929SOL     OW34793   8.358   7.369   8.347 -0.4415 -0.3026 -1.1111
10929SOL    HW134794   8.281   7.346   8.400  0.9765 -0.0907  1.2094
10929SOL    HW234795   8.398   7.285   8.326 -1.3138 -0.4233 -2.4554
10930SOL     OW34796   9.919   5.175   3.899  0.0850 -0.6649  0.0384
10930SOL    HW134797   9.913   5.121   3.820 -0.5196 -1.9165  0.9092
10930SOL    HW234798   9.886   5.261   3.872  0.6872 -0.8129 -1.2695
10931SOL     OW34799   9.913   9.028   5.226  0.7368  0.0085 -0.6862
10931SOL    HW134800   9.867   8.989   5.151 -1.1358  0.4586  0.1618
10931SOL    HW234801   9.968   8.957   5.259  0.9879 -0.4356 -1.9962
10932SOL     OW34802   3.032   3.971   6.573  0.2299 -0.3976 -0.2780
10932SOL    HW134803   3.036   3.969   6.669  0.1146  0.1888 -0.2562
10932SOL    HW234804   3.015   3.880   6.548 -0.8063 -0.3905  0.3079
10933SOL     OW34805   5.840   4.095   8.450  0.0377 -0.6159  0.5714
10933SOL    HW134806   5.830   4.007   8.414 -0.4800 -0.0982 -0.6160
10933SOL    HW234807   5.765   4.144   8.415  1.1475  0.6912 -0.0840
10934SOL     OW34808   7.285   4.280   7.911  0.0562 -0.2199  0.2257
10934SOL    HW134809   7.275   4.316   7.999  0.5575  2.9255 -0.8693
10934SOL    HW234810   7.379   4.269   7.900  0.1791  1.1923 -0.4681
10935SOL     OW34811   4.769   7.848   7.291 -0.5061 -0.3334  0.3179
10935SOL    HW134812   4.684   7.888   7.310  1.0295  1.7498  3.6374
10935SOL    HW234813   4.800   7.896   7.213 -2.7179 -1.9652 -1.7260
10936SOL     OW34814   9.211   4.343   4.827 -0.0538 -0.0478 -0.3648
10936SOL    HW134815   9.163   4.389   4.758  0.8721 -1.1755 -1.8396
10936SOL    HW234816   9.204   4.250   4.802  2.5081 -0.2994 -0.4459
10937SOL     OW34817   1.768   2.001   1.579 -0.0655  0.9126  0.0258
10937SOL    HW134818   1.742   2.080   1.627  0.3224  0.1096  1.5965
10937SOL    HW234819   1.689   1.976   1.531 -0.5889  1.5287  0.5398
10938SOL     OW34820   1.456   2.197   5.933 -0.4618 -0.2084 -0.2461
10938SOL    HW134821   1.413   2.151   5.860 -1.3795 -0.7316  0.6057
10938SOL    HW234822   1.427   2.288   5.923 -1.3033 -0.4420 -0.0328
10939SOL     OW34823   9.178   7.393   2.114 -0.7629 -0.3046  0.0847
10939SOL    HW134824   9.124   7.405   2.191  2.5064 -1.6316  2.8464
10939SOL    HW234825   9.224   7.476   2.103  1.0530 -1.0433  1.6169
10940SOL     OW34826   9.075   8.514  10.056  0.2545  0.7577 -0.4051
10940SOL    HW134827   9.065   8.502  10.151 -0.0666 -3.0458 -0.7945
10940SOL    HW234828   8.985   8.528  10.025 -0.2346 -1.9616 -0.4678
10941SOL     OW34829  10.225   6.770   6.863 -0.0557  0.0522  0.1282
10941SOL    HW134830  10.302   6.766   6.920 -0.3005  0.5234  0.5009
10941SOL    HW234831  10.151   6.765   6.923 -0.3178  0.4635 -0.1565
10942SOL     OW34832  10.917   3.897   3.650 -0.3203 -0.7921 -0.0508
10942SOL    HW134833  10.969   3.819   3.670 -0.5063 -1.1065 -0.7755
10942SOL    HW234834  10.871   3.916   3.732 -0.5027 -1.6166  0.0455
10943SOL     OW34835  10.263   2.463   3.264  0.4100 -0.3498  0.7013
10943SOL    HW134836  10.243   2.547   3.223  0.7423 -0.2038  0.8346
10943SOL    HW234837  10.212   2.464   3.345  1.5823  0.3927  1.4692
10944SOL     OW34838   6.873   0.475   4.244  0.1157 -0.1600  0.1839
10944SOL    HW134839   6.944   0.464   4.308  0.8946  1.0489 -0.4371
10944SOL    HW234840   6.898   0.552   4.193 -0.5847 -0.9449 -1.4422
10945SOL     OW34841   0.344   0.108   5.366 -0.5029  0.0957  0.2917
10945SOL    HW134842   0.437   0.090   5.349 -0.7546 -0.6420 -0.3564
10945SOL    HW234843   0.344   0.194   5.408  0.7483 -1.3074  3.4620
10946SOL     OW34844   4.487   5.119   7.294 -0.1889 -0.4326  0.0243
10946SOL    HW134845   4.520   5.192   7.346  0.4472 -0.9287  0.3232
10946SOL    HW234846   4.407   5.092   7.338  0.7063 -1.3056  1.1846
10947SOL     OW34847   9.697   3.205   1.589  0.4258 -0.7933 -0.0842
10947SOL    HW134848   9.660   3.288   1.619  1.3375  0.0154 -1.1046
10947SOL    HW234849   9.746   3.172   1.665 -1.2353 -1.2181  0.8437
10948SOL     OW34850   7.240   7.534  10.215  0.2286  0.6478  0.5275
10948SOL    HW134851   7.275   7.623  10.218  1.4611  0.1744  2.6504
10948SOL    HW234852   7.305   7.483  10.167 -0.3786  0.8352 -0.5117
10949SOL     OW34853   0.468   5.476   7.740  0.3489  1.1610  0.3419
10949SOL    HW134854   0.383   5.517   7.722 -0.4184 -0.5502 -0.2203
10949SOL    HW234855   0.486   5.499   7.831 -1.7441 -0.0299  1.1516
10950SOL     OW34856   5.073   8.668   3.991 -0.0961  0.1331 -0.2303
10950SOL    HW134857   5.053   8.577   3.970  0.9646 -0.3017  0.5629
10950SOL    HW234858   5.149   8.689   3.936  0.7689 -0.0361  0.8773
10951SOL     OW34859   1.548   4.773  10.564 -0.0417 -0.5030 -0.4313
10951SOL    HW134860   1.624   4.805  10.515 -0.2346  0.8371  0.1050
10951SOL    HW234861   1.473   4.804  10.514 -0.2381  0.7072  0.5440
10952SOL     OW34862   5.032   5.286   9.826  0.4559  0.2181 -0.4973
10952SOL    HW134863   5.124   5.272   9.803  0.7140 -2.0002  1.4835
10952SOL    HW234864   5.035   5.340   9.905 -0.0484  1.6111 -1.4121
10953SOL     OW34865   3.821   5.016   2.085 -0.3194 -0.6604 -0.3291
10953SOL    HW134866   3.753   4.993   2.149  0.9077 -0.2032  1.1958
10953SOL    HW234867   3.772   5.052   2.011 -1.7075  2.4596  1.8806
10954SOL     OW34868   2.412   7.267   1.468  0.6969  0.0323 -0.5488
10954SOL    HW134869   2.456   7.324   1.531  2.9011 -1.0857 -0.9702
10954SOL    HW234870   2.417   7.315   1.385 -1.3682  1.0894 -0.1125
10955SOL     OW34871   9.939   5.637   3.469  1.0839 -0.0036  0.5873
10955SOL    HW134872   9.847   5.662   3.457  1.0548 -0.0990  0.6084
10955SOL    HW234873   9.949   5.559   3.414  1.3247  0.3928  0.0580
10956SOL     OW34874   1.849   3.376   0.768 -0.2413  0.0442  0.8006
10956SOL    HW134875   1.841   3.319   0.844  0.8307 -0.3708  0.6174
10956SOL    HW234876   1.943   3.383   0.753 -0.3917  1.1893  0.3105
10957SOL     OW34877   5.983  11.266   0.882  0.5073  0.0872  0.0667
10957SOL    HW134878   6.055  11.300   0.829  0.0242  1.0249 -0.0116
10957SOL    HW234879   6.025  11.239   0.964  0.8475  1.3381  0.3230
10958SOL     OW34880   7.396   0.310   6.075  0.1889 -0.2545  0.4048
10958SOL    HW134881   7.440   0.225   6.077  1.8526  0.5507  0.1087
10958SOL    HW234882   7.417   0.350   6.160 -1.8928 -0.7241  1.1970
10959SOL     OW34883   4.968   7.367   3.070  0.4103  0.7156  0.3462
10959SOL    HW134884   5.023   7.326   3.137 -0.0870  0.3624  0.5465
10959SOL    HW234885   5.027   7.384   2.997  0.8232  0.5102  0.6319
10960SOL     OW34886   1.289   0.379   1.852 -0.4562 -0.2969 -0.5318
10960SOL    HW134887   1.229   0.332   1.909 -0.6085  0.1272 -0.3408
10960SOL    HW234888   1.267   0.471   1.864  0.5270 -0.1050 -0.1349
10961SOL     OW34889   6.133   0.327   6.449 -0.1641  0.2916 -0.2883
10961SOL    HW134890   6.159   0.412   6.483  1.9262  0.2348 -1.5494
10961SOL    HW234891   6.062   0.346   6.387 -0.6816  0.9197  0.4798
10962SOL     OW34892  11.028   1.067   6.251  0.0854 -0.0585  0.0779
10962SOL    HW134893  10.948   1.101   6.211  0.2150 -0.5565 -0.6187
10962SOL    HW234894  11.048   0.989   6.201  0.1988 -0.7623  1.1881
10963SOL     OW34895   8.481   3.415   8.173 -0.2822  0.0505  0.0876
10963SOL    HW134896   8.550   3.357   8.203  1.8142  1.2397 -2.0678
10963SOL    HW234897   8.508   3.441   8.085 -1.9654  2.9212  0.2920
10964SOL     OW34898   1.961  11.058   3.728  0.3919  0.0063 -0.4688
10964SOL    HW134899   1.902  11.080   3.801 -0.5786 -0.8196 -0.9702
10964SOL    HW234900   1.950  11.130   3.666  0.1646  0.0240 -0.4094
10965SOL     OW34901   0.025   9.887   7.082 -0.3526 -0.7493 -0.7479
10965SOL    HW134902   0.042   9.943   7.006 -0.7878 -0.2543 -0.4889
10965SOL    HW234903   0.112   9.864   7.115 -0.0376  2.2968  0.9880
10966SOL     OW34904   3.164   1.756   1.772  0.0487  0.3588  0.3321
10966SOL    HW134905   3.159   1.664   1.800 -1.3692 -0.0949 -1.2580
10966SOL    HW234906   3.098   1.801   1.826 -3.4733 -0.7097 -2.6550
10967SOL     OW34907   2.259   1.926   3.365 -0.3934  0.6627  0.5931
10967SOL    HW134908   2.195   1.897   3.300  1.2169  1.3713 -1.3953
10967SOL    HW234909   2.266   2.021   3.352  1.7307  0.4807  0.0980
10968SOL     OW34910   6.244   2.229   6.160  0.8197  0.3085  0.0601
10968SOL    HW134911   6.203   2.276   6.233  0.7230  0.4902 -0.1109
10968SOL    HW234912   6.275   2.298   6.102 -0.4046  0.1510 -0.7993
10969SOL     OW34913   8.172   2.965   3.386  0.3239 -0.5825 -0.0225
10969SOL    HW134914   8.181   2.939   3.294  0.3409  2.2236 -0.9336
10969SOL    HW234915   8.245   3.026   3.401  0.7163 -1.4961  2.0966
10970SOL     OW34916   9.935   3.331   9.913  0.3396  0.3428 -0.7025
10970SOL    HW134917   9.892   3.327   9.998 -1.2167  1.9285 -1.3648
10970SOL    HW234918   9.872   3.292   9.852  2.4073 -3.1077 -0.9002
10971SOL     OW34919   2.567   8.689   3.821  0.2686 -1.0569 -0.1738
10971SOL    HW134920   2.520   8.606   3.826  1.3785 -1.7713 -0.9430
10971SOL    HW234921   2.629   8.686   3.894  0.4621 -1.0130 -0.3349
10972SOL     OW34922   3.903  10.406   0.042 -0.6741 -0.2723 -0.1586
10972SOL    HW134923   3.857  10.490   0.040  1.5144  1.0267  1.0328
10972SOL    HW234924   3.833  10.341   0.051 -2.4422  1.3580 -1.3481
10973SOL     OW34925   6.914   7.357   0.567  0.6194 -0.6387  0.0548
10973SOL    HW134926   6.982   7.320   0.511  2.4605 -1.6200  2.7279
10973SOL    HW234927   6.881   7.433   0.519 -0.1084 -3.0292 -3.6260
10974SOL     OW34928   3.534   8.110   3.667  0.1199 -0.4921  0.6183
10974SOL    HW134929   3.589   8.086   3.593 -2.0022  1.0452 -1.6126
10974SOL    HW234930   3.490   8.028   3.692  0.5442 -0.9450 -0.0944
10975SOL     OW34931   5.293  11.100   2.543 -0.1589 -0.0565 -0.1237
10975SOL    HW134932   5.364  11.164   2.534 -1.2736  1.1508 -0.7006
10975SOL    HW234933   5.228  11.127   2.477 -1.6357 -0.4488  1.1112
10976SOL     OW34934  10.641   2.160   3.208  0.6731  0.9455 -0.5254
10976SOL    HW134935  10.603   2.120   3.130  0.6612  0.9330 -0.5133
10976SOL    HW234936  10.567   2.200   3.253  0.5510  0.2469 -0.0980
10977SOL     OW34937   0.841   2.204   1.732  0.0342  0.2361 -0.0862
10977SOL    HW134938   0.827   2.294   1.704  1.2748  0.3289 -0.4230
10977SOL    HW234939   0.871   2.158   1.654  2.8772  0.3551  0.8286
10978SOL     OW34940   0.640   5.723   6.465 -0.2093 -0.2873 -0.3747
10978SOL    HW134941   0.581   5.796   6.481  0.2341  0.1557 -0.7494
10978SOL    HW234942   0.582   5.652   6.436 -0.4678  0.5098 -1.9641
10979SOL     OW34943   3.360   6.966   7.563  0.0672 -0.5004  0.3255
10979SOL    HW134944   3.351   7.005   7.476  2.4148 -1.0439 -0.2299
10979SOL    HW234945   3.311   6.884   7.559 -0.2049 -0.3056 -0.3314
10980SOL     OW34946   1.064   5.548   8.650 -0.0203 -0.7142  0.2279
10980SOL    HW134947   1.123   5.622   8.663 -0.3705  0.2857 -3.0538
10980SOL    HW234948   0.976   5.584   8.662 -0.1369 -1.3709  1.5783
10981SOL     OW34949  11.202   8.319   1.765 -0.4431  0.2204  0.2357
10981SOL    HW134950  11.116   8.348   1.734 -1.1332 -0.9618  1.0013
10981SOL    HW234951  11.198   8.327   1.860 -1.1606 -3.5127  0.6565
10982SOL     OW34952   5.949   8.402   9.970 -0.4771  0.1367  0.1528
10982SOL    HW134953   5.890   8.462  10.016  0.1533 -0.0729  1.2682
10982SOL    HW234954   6.022   8.457   9.944  0.1145 -0.1199  1.2011
10983SOL     OW34955   4.458   4.112   4.903 -0.4422  0.2694 -0.6550
10983SOL    HW134956   4.549   4.087   4.920 -1.0972 -0.1625  3.0739
10983SOL    HW234957   4.412   4.030   4.887 -0.8031  0.0220  1.4251
10984SOL     OW34958   2.407   8.227  10.691 -0.3223  0.9139  0.1315
10984SOL    HW134959   2.500   8.220  10.711  0.8052  3.6070 -3.0677
10984SOL    HW234960   2.370   8.142  10.714  3.1153 -0.6174  0.5861
10985SOL     OW34961   7.424   4.498   8.940  0.1324 -0.0704  0.1003
10985SOL    HW134962   7.420   4.515   9.034  0.6682  1.5564 -0.1418
10985SOL    HW234963   7.461   4.410   8.934  0.6102  0.0050  1.4154
10986SOL     OW34964   1.004   3.103   4.957  0.1113 -0.1300  0.0591
10986SOL    HW134965   1.022   3.080   4.866 -0.7249 -0.2255 -0.0930
10986SOL    HW234966   1.015   3.021   5.006 -0.8914 -0.4189 -0.1833
10987SOL     OW34967   9.923   6.883  10.059  0.3312  0.3650 -0.4525
10987SOL    HW134968   9.901   6.927  10.141  1.0822 -0.4207  0.1875
10987SOL    HW234969   9.996   6.826  10.081 -1.6648 -2.5687 -0.7635
10988SOL     OW34970   6.173   0.876   0.221 -0.1486 -0.3652 -0.5923
10988SOL    HW134971   6.094   0.919   0.189 -2.0838  0.4076  4.2583
10988SOL    HW234972   6.241   0.942   0.214 -1.6108  1.4348  1.0705
10989SOL     OW34973   0.598   6.713   5.065  0.3443  0.2437  0.1097
10989SOL    HW134974   0.605   6.733   4.972 -1.2594 -0.3502 -0.1579
10989SOL    HW234975   0.592   6.799   5.107  1.5668  0.5339 -0.2634
10990SOL     OW34976   6.508   6.385   3.334 -0.2119  0.2440  0.4270
10990SOL    HW134977   6.563   6.309   3.354 -1.4903 -1.8462 -3.1606
10990SOL    HW234978   6.433   6.377   3.393 -0.8969 -2.0305 -0.6736
10991SOL     OW34979   7.058   5.757   6.474 -0.6843 -0.2067  0.5792
10991SOL    HW134980   7.019   5.779   6.390 -4.6143  0.4166  2.3474
10991SOL    HW234981   7.020   5.673   6.497  0.6097 -0.5447  1.6002
10992SOL     OW34982   6.798   3.316   0.762  0.8025 -0.7956 -0.2963
10992SOL    HW134983   6.877   3.362   0.731  1.7208 -1.3235  1.1489
10992SOL    HW234984   6.803   3.230   0.720 -0.2604 -0.0612 -2.0210
10993SOL     OW34985   8.790   8.003  10.321 -0.6067  0.1108 -0.9061
10993SOL    HW134986   8.782   8.039  10.233 -1.5576 -1.5422 -1.5362
10993SOL    HW234987   8.703   8.013  10.359 -0.7253 -0.9456 -0.8805
10994SOL     OW34988   5.488   3.660   0.165  0.0827 -0.1756 -0.0799
10994SOL    HW134989   5.532   3.744   0.177  1.0380 -0.7100  0.3298
10994SOL    HW234990   5.547   3.610   0.108  0.4015 -1.1763  1.0838
10995SOL     OW34991   3.586   9.072   7.249 -0.5245  0.0943  0.0751
10995SOL    HW134992   3.604   9.151   7.301 -1.5746  1.2441 -1.2326
10995SOL    HW234993   3.517   9.099   7.188 -2.1999 -2.3303  0.7462
10996SOL     OW34994   2.343  11.003  11.073  0.4413 -0.6891  0.4550
10996SOL    HW134995   2.364  10.920  11.031  0.2244 -0.8543  0.6750
10996SOL    HW234996   2.370  11.069  11.009  0.2560 -0.9336  0.1203
10997SOL     OW34997   6.895   5.608   8.287 -0.6745 -0.2828 -0.4817
10997SOL    HW134998   6.974   5.571   8.327  0.8333  2.0818 -1.0890
10997SOL    HW234999   6.866   5.676   8.347 -1.5253 -0.2652 -0.8887
10998SOL     OW35000   0.896   5.205   2.711  0.2482  0.0308  0.4929
10998SOL    HW135001   0.944   5.169   2.636 -1.4720 -0.1436 -0.5859
10998SOL    HW235002   0.934   5.162   2.787  1.1795 -0.7570 -0.3940
10999SOL     OW35003   1.671   8.823   9.827  0.5181  0.0475  0.2375
10999SOL    HW135004   1.760   8.829   9.793  0.5747  0.2179  0.4074
10999SOL    HW235005   1.680   8.847   9.920  0.3109 -0.0336  0.2793
11000SOL     OW35006   8.227   7.535   6.585  0.3402 -0.1352  0.1052
11000SOL    HW135007   8.245   7.492   6.502  0.8750  2.3913 -1.1852
11000SOL    HW235008   8.302   7.593   6.599 -1.3392  2.0870  0.5053
11001SOL     OW35009  10.948   2.846   0.173  0.1318  0.5070 -0.0402
11001SOL    HW135010  10.854   2.857   0.159  0.0880 -0.3530 -0.5014
11001SOL    HW235011  10.955   2.777   0.239  0.4387  0.6353  0.0647
11002SOL     OW35012   4.761   7.157   3.525 -0.0621  0.6211 -0.2565
11002SOL    HW135013   4.852   7.126   3.518 -0.1369  0.1858  0.5643
11002SOL    HW235014   4.754   7.226   3.459  0.6915  0.2457 -0.7461
11003SOL     OW35015   0.208   7.543  10.094  0.5906 -0.0657  0.0872
11003SOL    HW135016   0.269   7.477  10.061  0.6872  0.3639 -0.6009
11003SOL    HW235017   0.229   7.551  10.187  1.5232  0.0123 -0.1265
11004SOL     OW35018   5.234   1.180   2.363  0.7717  0.8616  0.0276
11004SOL    HW135019   5.188   1.213   2.286  1.8643  0.5128 -0.7965
11004SOL    HW235020   5.306   1.129   2.328 -0.2365 -1.5890  1.2695
11005SOL     OW35021   5.216   2.432  10.597  0.7620  0.3047  0.6100
11005SOL    HW135022   5.159   2.501  10.564  0.8466  0.9519  1.7944
11005SOL    HW235023   5.242   2.461  10.684  2.3068 -0.3240  0.3922
11006SOL     OW35024   6.984   7.413   6.445  0.1013 -0.1441  0.0702
11006SOL    HW135025   7.058   7.355   6.465  0.2545  0.5502  1.6899
11006SOL    HW235026   7.006   7.496   6.488 -0.7677  0.6882 -1.0062
11007SOL     OW35027   6.068   8.981   2.458  0.3494 -0.3307 -0.2541
11007SOL    HW135028   6.137   8.935   2.411  0.0798 -1.0146  0.0103
11007SOL    HW235029   6.018   9.025   2.389  1.3661  0.6341 -0.4043
11008SOL     OW35030   5.715   1.665   7.288  0.1958  0.1366  0.4049
11008SOL    HW135031   5.646   1.711   7.335  1.3476  0.9250  1.3813
11008SOL    HW235032   5.796   1.704   7.320  1.2556 -2.5120  1.2262
11009SOL     OW35033   8.063   8.168   2.318  0.3650 -0.2748 -0.1977
11009SOL    HW135034   8.040   8.099   2.257 -0.3840  2.0006 -2.6650
11009SOL    HW235035   8.019   8.144   2.400 -0.9375 -2.0140 -1.3471
11010SOL     OW35036   8.762   2.515   7.457 -0.1881  0.2385  0.2034
11010SOL    HW135037   8.787   2.443   7.399  1.3032  0.1763  0.8878
11010SOL    HW235038   8.792   2.594   7.412  1.9504  0.1233  1.3066
11011SOL     OW35039   4.693   3.937   3.147  0.0235 -0.0794  0.1249
11011SOL    HW135040   4.712   4.005   3.211 -0.6511 -0.3232  0.5998
11011SOL    HW235041   4.641   3.980   3.080  0.7099  0.1709 -0.2631
11012SOL     OW35042   9.635   6.277   7.423  0.1178 -0.5100 -0.7046
11012SOL    HW135043   9.709   6.336   7.407  0.6369 -0.6767  0.9250
11012SOL    HW235044   9.662   6.195   7.381  0.7001 -0.4548 -0.4500
11013SOL     OW35045   3.950   1.175   1.100  0.2474 -0.0977  0.5182
11013SOL    HW135046   4.007   1.123   1.045  2.9299  0.6495  2.3697
11013SOL    HW235047   3.954   1.263   1.062  0.6876  0.0409  0.8750
11014SOL     OW35048   7.998   2.885   2.409  0.2516 -0.6001 -0.4900
11014SOL    HW135049   7.945   2.954   2.370 -0.4869 -0.6652  0.3600
11014SOL    HW235050   8.062   2.862   2.342  1.1166  1.5515 -0.4904
11015SOL     OW35051   0.746   3.015   0.082  0.1466 -0.2835 -0.4324
11015SOL    HW135052   0.840   3.017   0.062  0.3810 -0.5051  0.5815
11015SOL    HW235053   0.703   3.015  -0.004  0.9811  2.4579 -0.9705
11016SOL     OW35054   3.398   8.097   6.444  0.1429 -0.5807 -0.3527
11016SOL    HW135055   3.346   8.165   6.487 -0.3085 -0.8339 -0.4911
11016SOL    HW235056   3.426   8.040   6.516 -0.8848 -1.1900 -0.3999
11017SOL     OW35057   5.273  10.125   7.896  0.1113 -0.4740  0.2172
11017SOL    HW135058   5.294  10.041   7.855 -1.6489 -0.2324 -1.3036
11017SOL    HW235059   5.351  10.178   7.885 -0.5423 -0.0668 -3.8667
11018SOL     OW35060   5.318   4.541   6.491  0.1716  0.0875  0.0507
11018SOL    HW135061   5.386   4.569   6.430 -0.5742 -1.3741 -1.5307
11018SOL    HW235062   5.259   4.617   6.497  1.0490  0.7788  0.1625
11019SOL     OW35063   0.592   3.639   3.091  0.3472  0.5222  0.6741
11019SOL    HW135064   0.670   3.663   3.040  0.9757  0.7950  1.7260
11019SOL    HW235065   0.589   3.703   3.162  0.9637 -1.2854  2.4471
11020SOL     OW35066   3.562   1.763  10.898 -0.1793  0.7935  0.2223
11020SOL    HW135067   3.643   1.771  10.949 -0.0248  1.1606 -0.0713
11020SOL    HW235068   3.588   1.787  10.809 -0.7752  1.6461  0.2686
11021SOL     OW35069   9.038  11.120   4.724 -0.4399 -0.1781 -0.5375
11021SOL    HW135070   9.105  11.143   4.659  1.1798 -2.4541  0.1943
11021SOL    HW235071   9.029  11.025   4.716 -3.1305 -0.0221 -0.1139
11022SOL     OW35072   8.268   2.482   6.625  0.0271  0.5133 -0.8008
11022SOL    HW135073   8.183   2.437   6.628  0.2387 -0.2210 -3.3912
11022SOL    HW235074   8.302   2.474   6.714 -0.4822 -3.5382 -0.7644
11023SOL     OW35075   9.163   8.919   5.639 -0.4320 -0.3549 -0.4377
11023SOL    HW135076   9.120   8.843   5.678 -1.1658  0.1945 -0.1547
11023SOL    HW235077   9.254   8.913   5.668 -0.5780 -0.8986 -0.0822
11024SOL     OW35078   0.929   9.883  11.008 -0.3052 -0.3810  0.3819
11024SOL    HW135079   0.963   9.947  10.945 -0.5695  1.3383  1.8800
11024SOL    HW235080   0.922   9.802  10.959  2.2662  0.1335 -1.0446
11025SOL     OW35081   8.487   7.825   8.518  0.7314  0.7480 -0.1245
11025SOL    HW135082   8.581   7.834   8.532  0.8402  2.0466 -1.4371
11025SOL    HW235083   8.451   7.911   8.540 -0.3680 -0.1316  1.7280
11026SOL     OW35084   5.626   0.026   8.347 -0.0057  0.3080 -0.7523
11026SOL    HW135085   5.698   0.014   8.286  0.8457 -0.5583  0.3745
11026SOL    HW235086   5.553  -0.022   8.308  0.2327  0.5665 -1.5386
11027SOL     OW35087   0.507   9.419   8.697 -0.4329 -0.5209 -0.0102
11027SOL    HW135088   0.512   9.357   8.624 -0.1515 -1.1159  0.5012
11027SOL    HW235089   0.464   9.496   8.660 -3.2777 -1.9813 -0.0520
11028SOL     OW35090   1.105   8.240   2.832  0.0340  0.1264 -0.4604
11028SOL    HW135091   1.132   8.149   2.837  0.8693  0.3746 -0.2869
11028SOL    HW235092   1.114   8.263   2.739  0.3475  0.1860 -0.4155
11029SOL     OW35093   7.478  10.400   9.198 -0.1785 -0.0097  0.2782
11029SOL    HW135094   7.521  10.484   9.213  1.7975 -1.1154  1.3745
11029SOL    HW235095   7.537  10.354   9.138 -1.8259 -0.2260 -1.2559
11030SOL     OW35096   7.510   8.103   0.928 -0.3661  0.9505  0.5519
11030SOL    HW135097   7.418   8.123   0.942 -1.2885 -1.3145 -1.5348
11030SOL    HW235098   7.520   8.100   0.833  1.3145 -0.8932  0.7209
11031SOL     OW35099   9.053  10.946   9.096  0.2514  0.1306 -0.0176
11031SOL    HW135100   9.007  10.862   9.096 -2.1479  1.3329  1.1930
11031SOL    HW235101   8.984  11.012   9.088  1.7726  2.0755  1.5231
11032SOL     OW35102   6.976   2.030   6.891 -0.5009  0.1442  0.2650
11032SOL    HW135103   7.069   2.008   6.892 -0.9448 -1.9265  0.2873
11032SOL    HW235104   6.972   2.121   6.919  1.4838  0.1659  0.5831
11033SOL     OW35105   8.751   7.497   5.517 -0.6282  0.2616 -0.0403
11033SOL    HW135106   8.815   7.431   5.488  0.9834  2.2927 -1.3527
11033SOL    HW235107   8.668   7.449   5.521  0.2274 -1.5709 -2.1455
11034SOL     OW35108  10.328   6.226   6.793  0.1853 -0.2861 -0.3469
11034SOL    HW135109  10.251   6.226   6.736  0.0193 -0.9306 -0.1312
11034SOL    HW235110  10.392   6.171   6.747  0.0430 -0.8287  0.0871
11035SOL     OW35111  11.041  10.472  10.082  0.4116  0.4853  0.1557
11035SOL    HW135112  11.023  10.403  10.146  0.7676  1.0470  0.8743
11035SOL    HW235113  11.115  10.439  10.031  0.0021 -0.0508 -0.0987
11036SOL     OW35114   4.807   2.148   7.597  0.6302 -0.0808  0.7639
11036SOL    HW135115   4.727   2.131   7.547  0.7999  1.2559 -0.0243
11036SOL    HW235116   4.834   2.062   7.628 -0.8595 -0.6201  0.6638
11037SOL     OW35117  11.237   9.652   2.633 -0.1582 -0.1857  0.0498
11037SOL    HW135118  11.228   9.732   2.685 -0.2394  0.0419 -0.3122
11037SOL    HW235119  11.174   9.592   2.671 -1.5730  0.6112 -0.9744
11038SOL     OW35120   6.776   2.425   0.365  0.1245 -0.0612 -0.0253
11038SOL    HW135121   6.733   2.456   0.444 -2.1430 -3.3150  0.1986
11038SOL    HW235122   6.869   2.437   0.382 -0.3532  0.3470  2.6702
11039SOL     OW35123   9.464   8.026   6.407  0.4831 -0.6094  0.7033
11039SOL    HW135124   9.509   8.058   6.329 -0.4928 -0.9130 -0.0039
11039SOL    HW235125   9.371   8.042   6.390  0.2121 -1.1666  1.5750
11040SOL     OW35126   4.656  10.392  11.210  0.1192 -0.3217  0.1969
11040SOL    HW135127   4.674  10.482  11.238  0.0224  0.2767 -1.5762
11040SOL    HW235128   4.742  10.355  11.191  0.1334 -0.5217  0.6260
11041SOL     OW35129   1.867   0.494   9.980  0.1825 -0.4747 -0.0950
11041SOL    HW135130   1.918   0.530  10.053  0.9158 -0.7742 -0.4398
11041SOL    HW235131   1.812   0.566   9.951 -1.3323 -0.7912  1.7665
11042SOL     OW35132   2.165   9.048   0.440  0.1835 -0.1793  0.7579
11042SOL    HW135133   2.122   9.001   0.512  0.2831  0.8476  1.4977
11042SOL    HW235134   2.099   9.111   0.409  0.9260  1.0030  1.5193
11043SOL     OW35135   2.209   1.778   2.791 -0.4440  0.0302  0.1577
11043SOL    HW135136   2.177   1.740   2.710 -0.2964  2.1331 -0.9694
11043SOL    HW235137   2.132   1.814   2.834 -0.1176  2.6559 -1.2134
11044SOL     OW35138   8.583   4.393   1.238  0.0519 -0.5306  0.3384
11044SOL    HW135139   8.621   4.470   1.194  1.4449 -0.4383  1.6259
11044SOL    HW235140   8.489   4.406   1.231  0.2599  0.9832 -0.0402
11045SOL     OW35141   2.205   7.091   5.040  0.1691  0.2013  0.4429
11045SOL    HW135142   2.167   7.090   4.952  0.5028  1.4839  0.2730
11045SOL    HW235143   2.296   7.118   5.027  0.4777 -0.4837  1.0989
11046SOL     OW35144   2.738   4.960   8.493 -0.7254  0.2165 -0.5531
11046SOL    HW135145   2.708   4.874   8.522  1.1469 -0.2497  0.0859
11046SOL    HW235146   2.674   5.021   8.530 -0.1124 -0.6235  2.0651
11047SOL     OW35147   1.665   3.342   3.852  0.2606 -0.6192  0.0747
11047SOL    HW135148   1.610   3.356   3.929 -0.4591  0.1020 -0.5459
11047SOL    HW235149   1.752   3.322   3.887  0.3969  1.5131  1.0948
11048SOL     OW35150   1.025  10.925   7.791 -0.1542  0.0749 -0.0663
11048SOL    HW135151   1.028  11.020   7.801 -0.9829  0.1189 -0.1367
11048SOL    HW235152   1.013  10.892   7.880  1.1383 -0.0293  0.0829
11049SOL     OW35153   3.571  10.421   5.861 -0.9954  0.4251  0.0405
11049SOL    HW135154   3.523  10.497   5.827 -0.4376 -0.2317 -2.3710
11049SOL    HW235155   3.661  10.434   5.831 -1.1045 -1.6747 -1.3940
11050SOL     OW35156   0.498   3.283   7.623  0.5364 -0.0840 -0.5134
11050SOL    HW135157   0.454   3.320   7.699 -0.2914 -1.6569 -0.1874
11050SOL    HW235158   0.435   3.220   7.587  1.6487 -0.7530 -1.3521
11051SOL     OW35159   6.176   6.379   5.073  0.2919  0.0220 -0.8491
11051SOL    HW135160   6.213   6.298   5.036 -0.9694  0.3249 -2.8767
11051SOL    HW235161   6.088   6.354   5.102  0.8133  0.0980  0.9298
11052SOL     OW35162   3.116   8.289   2.358  0.6489  0.8820  0.2924
11052SOL    HW135163   3.030   8.286   2.400  2.2229  1.5743  4.0175
11052SOL    HW235164   3.106   8.353   2.287 -2.4809 -1.0930 -1.2477
11053SOL     OW35165  11.188   4.303   3.760  0.4981  0.1271  0.8234
11053SOL    HW135166  11.104   4.310   3.714  0.2421 -2.6306  0.6760
11053SOL    HW235167  11.170   4.337   3.848  0.2661  2.9081 -0.1956
11054SOL     OW35168   1.267   9.267   8.121  0.0518 -0.2364  1.0138
11054SOL    HW135169   1.249   9.177   8.093 -1.5882 -0.3876  2.3564
11054SOL    HW235170   1.356   9.264   8.156  0.4388 -1.0577  0.0284
11055SOL     OW35171   4.953   7.794   2.721  0.2678  0.0289  0.0058
11055SOL    HW135172   5.011   7.718   2.721 -1.5706 -1.4779 -0.8031
11055SOL    HW235173   4.929   7.805   2.629  1.5375  2.5153 -0.1121
11056SOL     OW35174   6.873   3.542   0.489  0.5499  0.3692 -0.5594
11056SOL    HW135175   6.783   3.512   0.503  0.8262 -0.0104  0.5400
11056SOL    HW235176   6.865   3.634   0.466 -0.0385  0.8311  1.3544
11057SOL     OW35177   9.946   7.509  10.147 -1.0258  0.1327  0.1756
11057SOL    HW135178   9.929   7.486  10.238  0.7916 -0.7928  0.3350
11057SOL    HW235179  10.018   7.573  10.151 -1.7657  1.0411 -0.5710
11058SOL     OW35180   8.824   0.048   2.053  0.5280  0.2340  0.5430
11058SOL    HW135181   8.794   0.118   1.995 -0.5287 -1.4916 -1.0884
11058SOL    HW235182   8.873  -0.011   1.996  3.8333  0.9545  2.3985
11059SOL     OW35183   0.800   2.000   7.852  0.0548 -0.1236 -0.7407
11059SOL    HW135184   0.842   2.053   7.919  0.7991 -1.5504 -0.0250
11059SOL    HW235185   0.860   1.925   7.840 -2.2937 -2.3442  0.4055
11060SOL     OW35186   9.062  10.178   6.719 -0.5873 -0.0984  0.1935
11060SOL    HW135187   9.018  10.115   6.662 -0.1872 -0.6903  0.5330
11060SOL    HW235188   9.054  10.262   6.672 -0.7912 -0.4653 -0.4420
11061SOL     OW35189   7.623   7.701   0.694 -0.1269 -0.8856 -0.4242
11061SOL    HW135190   7.606   7.742   0.609 -1.6791 -1.6812 -0.5305
11061SOL    HW235191   7.680   7.764   0.739 -1.2857  0.7440 -1.1116
11062SOL     OW35192   9.957  11.174  11.188 -0.1672  0.4748 -0.6029
11062SOL    HW135193   9.912  11.224  11.256  1.0030  0.4545  0.2146
11062SOL    HW235194   9.995  11.240  11.131 -1.3958  0.4947 -1.4436
11063SOL     OW35195   5.701  10.499   1.888 -0.2684 -0.1936  0.2961
11063SOL    HW135196   5.679  10.504   1.795  1.4987  0.7063 -0.1196
11063SOL    HW235197   5.619  10.473   1.931 -0.9952 -1.1159 -1.5445
11064SOL     OW35198   7.730   6.694  10.606  0.1212  0.0873 -0.5432
11064SOL    HW135199   7.716   6.788  10.617 -1.1253  0.0431 -1.5890
11064SOL    HW235200   7.794   6.672  10.674  1.5208  1.9356 -1.1768
11065SOL     OW35201   3.586   6.194   9.308 -0.5586 -0.5385  0.3052
11065SOL    HW135202   3.526   6.257   9.348 -0.4439  0.6800 -1.3307
11065SOL    HW235203   3.543   6.169   9.226 -0.3837 -2.2849  0.7123
11066SOL     OW35204   3.949   4.951   8.629  0.1596 -0.9637  0.2743
11066SOL    HW135205   3.886   5.019   8.650 -0.2952 -1.1564 -0.4698
11066SOL    HW235206   3.984   4.925   8.715  0.5871  0.4163  0.5497
11067SOL     OW35207   3.770  10.295   1.362 -0.2575 -0.7295 -0.0763
11067SOL    HW135208   3.815  10.211   1.354 -0.9226 -1.1069  0.1288
11067SOL    HW235209   3.840  10.360   1.352  0.2280 -1.2990 -0.4491
11068SOL     OW35210   5.052   9.872   9.236 -0.1801  0.1270 -0.2221
11068SOL    HW135211   5.069   9.925   9.159  0.9596 -0.0586 -0.1154
11068SOL    HW235212   5.103   9.913   9.306 -0.0634 -0.5317  0.0918
11069SOL     OW35213   7.359  10.481   0.416 -0.0960  0.3279 -0.1728
11069SOL    HW135214   7.433  10.433   0.453 -0.6978  1.2596  2.3978
11069SOL    HW235215   7.282  10.447   0.461 -0.9874  1.0263 -1.1117
11070SOL     OW35216   2.857   7.119   9.134  0.4177  0.1584  0.3589
11070SOL    HW135217   2.842   7.096   9.225 -0.6480 -1.7032 -0.2337
11070SOL    HW235218   2.769   7.135   9.098  0.6892 -0.4842 -0.6484
11071SOL     OW35219   2.819  10.294   1.040 -0.4007  0.5430 -0.1072
11071SOL    HW135220   2.850  10.204   1.044  1.0488  0.8734 -2.2656
11071SOL    HW235221   2.797  10.316   1.131  1.4310 -1.1998  0.8378
11072SOL     OW35222   8.420   3.851   1.144  0.2451  0.1093 -0.1489
11072SOL    HW135223   8.325   3.855   1.157  0.1739  0.8651 -0.8566
11072SOL    HW235224   8.430   3.811   1.057  0.6195 -1.2290  0.4789
11073SOL     OW35225   9.108  10.306   5.138 -0.5535  0.6306 -0.6270
11073SOL    HW135226   9.117  10.385   5.084 -0.9067  0.4259 -0.9887
11073SOL    HW235227   9.109  10.338   5.228 -2.2128  1.2180 -0.7830
11074SOL     OW35228   6.265   2.232   3.562  0.3791 -0.4427  0.2678
11074SOL    HW135229   6.359   2.246   3.556  0.4248 -1.3868 -3.8263
11074SOL    HW235230   6.228   2.320   3.566  1.3882  0.0439 -0.6601
11075SOL     OW35231   1.873   7.666  10.024  0.1583  0.4895 -0.0483
11075SOL    HW135232   1.955   7.667  10.073 -0.9922  1.6699  2.0054
11075SOL    HW235233   1.849   7.759  10.015 -0.7343  0.1960 -1.0352
11076SOL     OW35234   9.321   4.537   2.075 -0.7359  0.5182 -0.1757
11076SOL    HW135235   9.243   4.489   2.103  0.6923 -1.8045  0.1583
11076SOL    HW235236   9.347   4.493   1.993 -1.0764  2.8167 -1.5882
11077SOL     OW35237   5.029   7.908   1.984  0.7502 -0.7244 -0.4311
11077SOL    HW135238   4.962   7.889   1.919  0.7424  0.3236 -0.7426
11077SOL    HW235239   5.107   7.929   1.933  0.0271  2.9485 -0.2838
11078SOL     OW35240   7.705   3.678   6.433  0.8620  0.6071  0.2750
11078SOL    HW135241   7.774   3.612   6.441  0.0828 -0.4089 -0.9145
11078SOL    HW235242   7.655   3.670   6.515  1.3623  0.4165  0.5650
11079SOL     OW35243   4.611   5.241   3.914  0.0980  0.0167 -0.4871
11079SOL    HW135244   4.689   5.186   3.909 -0.4671 -0.8245 -0.2992
11079SOL    HW235245   4.571   5.234   3.827 -2.4579 -3.6751  0.7795
11080SOL     OW35246   6.107   7.789   1.386  0.5039 -0.2369 -0.0224
11080SOL    HW135247   6.089   7.715   1.328  0.0348  0.1858 -0.4237
11080SOL    HW235248   6.027   7.842   1.384  0.8080  0.2532  0.3116
11081SOL     OW35249  10.889   7.096   6.720  0.1096  0.5911 -0.6470
11081SOL    HW135250  10.952   7.082   6.649 -0.0292 -0.8618 -0.5159
11081SOL    HW235251  10.936   7.152   6.783  1.7343 -1.3255 -0.0373
11082SOL     OW35252   4.369   5.466   9.945 -0.3281  0.0537 -0.0182
11082SOL    HW135253   4.303   5.497   9.884  0.2269  0.1230 -0.5966
11082SOL    HW235254   4.320   5.422  10.014 -1.2023  2.7168  1.1717
11083SOL     OW35255   3.551  10.872   7.905 -0.5403  0.8117  0.6376
11083SOL    HW135256   3.483  10.909   7.851  0.2000 -1.4654 -2.1231
11083SOL    HW235257   3.628  10.869   7.849  0.0855 -2.4050  1.4500
11084SOL     OW35258   4.985   3.757   6.289  0.6140 -0.2248  0.3083
11084SOL    HW135259   4.998   3.827   6.353 -0.3997  1.6414 -1.4309
11084SOL    HW235260   4.903   3.715   6.316  1.4281 -1.0742  1.5850
11085SOL     OW35261   1.502   7.849   8.401  0.2259 -0.4356 -0.2193
11085SOL    HW135262   1.529   7.864   8.491  2.2833 -0.3801 -0.7933
11085SOL    HW235263   1.408   7.833   8.406  0.1554  0.3574  1.8265
11086SOL     OW35264   1.505   3.976   9.545 -0.4420  0.4057 -0.1699
11086SOL    HW135265   1.469   3.925   9.618  0.3374  0.4676  0.2649
11086SOL    HW235266   1.454   3.949   9.469 -2.4284  1.5412  0.6620
11087SOL     OW35267   3.659   8.544   7.784  0.3208  0.1011  0.0989
11087SOL    HW135268   3.569   8.579   7.784  0.1022 -0.4386 -0.2557
11087SOL    HW235269   3.678   8.528   7.691  0.7315  0.0747  0.1861
11088SOL     OW35270   8.901   4.188   6.051 -0.0567  0.1856  0.8847
11088SOL    HW135271   8.841   4.114   6.062 -1.1921  1.2868  2.7742
11088SOL    HW235272   8.885   4.219   5.962  0.3999 -1.7420  0.0763
11089SOL     OW35273   0.608   1.663   7.350 -0.0808  0.6785 -0.6350
11089SOL    HW135274   0.569   1.713   7.278 -0.6861  1.6727  0.3460
11089SOL    HW235275   0.585   1.572   7.331 -2.2018  1.1359 -0.5376
11090SOL     OW35276   2.444   8.570  10.439  0.0137  0.0123  0.1554
11090SOL    HW135277   2.424   8.638  10.374 -1.4184 -0.2162  0.3271
11090SOL    HW235278   2.380   8.501  10.421  2.9505 -2.5045 -1.6600
11091SOL     OW35279   5.219   1.056   2.619 -0.5711  0.1168 -0.0545
11091SOL    HW135280   5.174   0.978   2.586  0.9450  0.0870 -2.3238
11091SOL    HW235281   5.198   1.124   2.555 -1.9695  1.6928  1.9537
11092SOL     OW35282   1.672   5.490   5.845 -0.5675 -0.4948  0.0297
11092SOL    HW135283   1.652   5.565   5.790  0.9342  0.3508  0.5907
11092SOL    HW235284   1.639   5.414   5.796 -0.0812  0.3108 -1.5816
11093SOL     OW35285   2.004   6.400   6.092  0.1545  0.5972  0.3175
11093SOL    HW135286   1.918   6.374   6.059 -1.5082  2.9709  2.4835
11093SOL    HW235287   2.021   6.484   6.049  2.0634 -0.3951 -1.0302
11094SOL     OW35288   3.593   5.353   2.626  0.2026 -0.1331 -0.4807
11094SOL    HW135289   3.566   5.318   2.710 -0.1726 -1.9456 -1.3093
11094SOL    HW235290   3.685   5.330   2.618  0.4862  0.8515 -0.1899
11095SOL     OW35291   1.266   9.439   6.025 -0.0921 -0.7778  0.6928
11095SOL    HW135292   1.207   9.406   5.956 -0.1559  0.6460  0.0283
11095SOL    HW235293   1.208   9.484   6.086  0.2283  0.1131  0.3506
11096SOL     OW35294   1.629   6.488  10.236 -0.3632 -0.5473 -0.0785
11096SOL    HW135295   1.665   6.403  10.211 -0.3025 -1.0964  1.7648
11096SOL    HW235296   1.628   6.487  10.331  1.5635  2.3187  0.0861
11097SOL     OW35297   8.139   0.938   5.571 -0.4599  0.4595 -0.0864
11097SOL    HW135298   8.188   1.019   5.561 -0.8913  0.8032  0.4756
11097SOL    HW235299   8.205   0.872   5.593  0.2007  0.1424 -2.7277
11098SOL     OW35300  11.138   3.074   2.199 -0.4766 -0.1109 -0.9901
11098SOL    HW135301  11.079   3.002   2.178  0.1128 -0.3772 -1.7841
11098SOL    HW235302  11.115   3.099   2.289 -1.2714 -0.7050 -1.0169
11099SOL     OW35303   6.588   2.583   2.959  0.0925  0.3346  0.2544
11099SOL    HW135304   6.543   2.658   2.921 -0.4144  0.0436  0.2794
11099SOL    HW235305   6.580   2.595   3.054 -0.6735 -0.1516  0.2611
11100SOL     OW35306   0.162   2.369   3.720 -0.0738 -0.1587  0.0011
11100SOL    HW135307   0.248   2.355   3.681 -0.1983  0.2710 -0.4303
11100SOL    HW235308   0.172   2.342   3.812  0.5245 -0.0685 -0.0383
11101SOL     OW35309   1.631  10.046   2.617  0.4363  0.1514  0.0867
11101SOL    HW135310   1.590   9.967   2.652 -0.3080  0.4703 -0.0453
11101SOL    HW235311   1.698  10.014   2.557 -1.4014 -0.4052 -1.7653
11102SOL     OW35312   2.334   8.634   1.449 -0.4746  0.5550 -0.4719
11102SOL    HW135313   2.356   8.627   1.356 -0.5865  0.9758 -0.5329
11102SOL    HW235314   2.363   8.551   1.487  0.3736  0.7232 -0.7224
11103SOL     OW35315   2.409   4.613   2.020 -0.5458 -0.1708 -0.3155
11103SOL    HW135316   2.476   4.669   1.982 -2.3172  1.0068 -1.9021
11103SOL    HW235317   2.358   4.672   2.076  0.3778 -1.2970  1.7935
11104SOL     OW35318  10.097   1.093   9.730  0.4997 -0.1947  0.8537
11104SOL    HW135319  10.116   1.186   9.720 -0.2094 -0.0310  1.0090
11104SOL    HW235320  10.149   1.065   9.805  2.4985 -0.4520 -0.5508
11105SOL     OW35321   8.379   9.568   5.464  0.0969 -0.2981  0.7151
11105SOL    HW135322   8.313   9.549   5.531 -2.3615 -0.8240 -1.6987
11105SOL    HW235323   8.364   9.660   5.440  0.9940 -0.0961  0.8603
11106SOL     OW35324  11.121   2.923   6.844 -0.1097 -0.0653  0.6397
11106SOL    HW135325  11.039   2.968   6.823 -0.3609 -0.6392  0.3671
11106SOL    HW235326  11.132   2.936   6.938  1.1506  2.7364  0.2282
11107SOL     OW35327   3.308   5.867   2.362  0.5526 -0.2667 -0.3241
11107SOL    HW135328   3.373   5.874   2.433 -1.8315 -0.8794  2.0648
11107SOL    HW235329   3.352   5.905   2.286  2.7846  1.7523  1.8006
11108SOL     OW35330   4.773   2.261   1.313 -0.2297  0.0190  0.1570
11108SOL    HW135331   4.807   2.319   1.381  1.0970 -0.8836  0.2873
11108SOL    HW235332   4.683   2.243   1.341 -0.0269  0.4571  1.1446
11109SOL     OW35333   5.100  10.157   3.574  0.2268 -0.5834  0.7457
11109SOL    HW135334   5.164  10.088   3.557 -0.1541 -0.7727  0.0055
11109SOL    HW235335   5.060  10.174   3.488 -0.7143 -0.4817  1.1843
11110SOL     OW35336   4.457   0.520   6.109 -0.0165  0.1999 -0.5629
11110SOL    HW135337   4.428   0.466   6.182  1.1224 -1.3475 -1.1951
11110SOL    HW235338   4.468   0.459   6.037  0.2493  1.4661 -1.6349
11111SOL     OW35339   2.494   6.155   7.267  0.2738  0.3800  0.6929
11111SOL    HW135340   2.574   6.206   7.282 -0.5684  2.1057 -0.3360
11111SOL    HW235341   2.460   6.137   7.354  1.5559 -0.0248  1.1287
11112SOL     OW35342   3.090  10.257   4.953 -0.1914 -0.0719  0.1238
11112SOL    HW135343   3.003  10.241   4.990 -0.4232 -1.3231 -0.8836
11112SOL    HW235344   3.125  10.330   5.004 -2.7621  2.1233 -1.0312
11113SOL     OW35345   3.481   7.092   2.537  0.0582  0.6611  0.0960
11113SOL    HW135346   3.399   7.121   2.496 -0.0188 -0.8146 -0.8884
11113SOL    HW235347   3.455   7.016   2.589  0.8646 -0.0598 -0.5442
11114SOL     OW35348   2.668   2.482   0.020 -0.3623  0.1183 -0.6308
11114SOL    HW135349   2.626   2.413  -0.032 -2.4000  0.3574  0.5796
11114SOL    HW235350   2.626   2.562  -0.011  2.1506  0.9430 -2.1900
11115SOL     OW35351   7.193   8.471   4.565  0.0788 -0.8366 -0.5489
11115SOL    HW135352   7.130   8.523   4.615 -0.0963  1.4238 -2.9178
11115SOL    HW235353   7.147   8.388   4.547 -1.5319  0.0379 -0.6748
11116SOL     OW35354   6.491   1.584   7.918 -0.6667 -0.1477  0.1978
11116SOL    HW135355   6.585   1.589   7.905 -0.6815  0.3104  0.2417
11116SOL    HW235356   6.454   1.648   7.857 -0.9558 -0.3984  0.1054
11117SOL     OW35357   8.410  11.093   7.530  0.1602  0.3197 -0.0240
11117SOL    HW135358   8.315  11.085   7.524  0.2674  0.1050 -2.9382
11117SOL    HW235359   8.424  11.173   7.579 -1.5814  1.0363 -0.5951
11118SOL     OW35360   4.400   3.397   2.965  0.1409  0.0334 -0.0071
11118SOL    HW135361   4.319   3.349   2.982 -0.9311  2.1508  1.2325
11118SOL    HW235362   4.469   3.342   3.002 -1.0154 -0.5906  1.3042
11119SOL     OW35363  10.154  11.061   6.973 -0.1691  0.5730 -0.1409
11119SOL    HW135364  10.083  11.113   7.012  0.4944  1.2918  0.1239
11119SOL    HW235365  10.232  11.114   6.985  0.3147  0.0864 -1.0424
11120SOL     OW35366  11.088   6.033   7.350 -0.0058  0.3221  0.1421
11120SOL    HW135367  11.135   6.077   7.422  0.4085  0.4531 -0.2037
11120SOL    HW235368  11.013   6.088   7.333  0.7791  1.1877 -0.6272
11121SOL     OW35369   4.593  10.314  10.347  0.0984 -0.7961  0.4870
11121SOL    HW135370   4.507  10.353  10.359  0.1909 -0.3752 -0.1601
11121SOL    HW235371   4.647  10.351  10.417 -0.0043 -0.3286  0.3219
11122SOL     OW35372   5.190   1.110   9.466  0.6183  0.0846 -0.1328
11122SOL    HW135373   5.177   1.131   9.374 -1.5127  1.0467  0.3149
11122SOL    HW235374   5.197   1.014   9.468 -1.7184 -0.1656 -1.1035
11123SOL     OW35375   3.709   9.168  11.199 -0.1576 -0.2579  0.1168
11123SOL    HW135376   3.800   9.178  11.226 -0.9560 -0.1128  3.1162
11123SOL    HW235377   3.689   9.076  11.215 -0.7450 -0.1122  0.2578
11124SOL     OW35378   1.751   8.301   0.381  0.7471  0.2197 -0.5917
11124SOL    HW135379   1.829   8.323   0.432  0.0703  1.4564 -0.0476
11124SOL    HW235380   1.711   8.386   0.361 -0.3998 -0.3906 -0.9645
11125SOL     OW35381   9.640   8.361   6.010 -0.2437  0.2798  0.4326
11125SOL    HW135382   9.556   8.319   6.030  0.1161 -0.3611  0.6335
11125SOL    HW235383   9.703   8.289   6.008  0.0831  0.5771 -1.0870
11126SOL     OW35384   1.662   5.285   4.732 -0.6229  0.0655 -0.0982
11126SOL    HW135385   1.598   5.356   4.731 -0.5040  0.1889 -2.2200
11126SOL    HW235386   1.714   5.297   4.652  0.1292 -1.7566  0.0589
11127SOL     OW35387   1.277   1.616   7.847  0.2710  0.0568  0.0549
11127SOL    HW135388   1.229   1.554   7.793 -1.6672  1.9434 -0.5253
11127SOL    HW235389   1.256   1.591   7.937 -2.8588  1.4421 -0.1520
11128SOL     OW35390   4.369   6.175   5.313 -0.0265  0.1835 -0.0102
11128SOL    HW135391   4.347   6.116   5.241  2.2996 -1.8016  0.7655
11128SOL    HW235392   4.459   6.203   5.295  0.4017  0.0991  1.7723
11129SOL     OW35393   5.273   6.440   9.702  0.0152  0.5253  0.2750
11129SOL    HW135394   5.209   6.478   9.642 -0.2187 -0.8606 -0.4117
11129SOL    HW235395   5.304   6.362   9.657  1.7649  0.8459  0.8740
11130SOL     OW35396   2.419   3.382  10.904 -0.4988  0.5455  0.3431
11130SOL    HW135397   2.491   3.414  10.849  0.2570  0.3143  1.1878
11130SOL    HW235398   2.340   3.401  10.852  0.2163 -0.0657 -1.0182
11131SOL     OW35399   0.170   7.274   3.225 -0.2594 -0.0944  0.1854
11131SOL    HW135400   0.162   7.306   3.315  0.0022 -1.4941  0.7429
11131SOL    HW235401   0.086   7.232   3.207 -0.2523  0.0430 -0.1718
11132SOL     OW35402   5.503   4.806   4.516 -0.3249  0.1619  0.4626
11132SOL    HW135403   5.488   4.813   4.610  0.8047 -0.5108  0.7151
11132SOL    HW235404   5.576   4.864   4.499  0.1389 -0.4902  0.1898
11133SOL     OW35405   2.158   5.384  10.874  0.1138 -0.2804 -0.1812
11133SOL    HW135406   2.069   5.409  10.850  0.4799  1.4079  0.1030
11133SOL    HW235407   2.198   5.356  10.792 -0.1430  0.6613 -0.6309
11134SOL     OW35408   0.580   1.124   9.755  0.2595 -0.1183  0.0609
11134SOL    HW135409   0.496   1.143   9.712  1.6165 -0.1904 -2.9149
11134SOL    HW235410   0.586   1.029   9.755  1.1014 -0.1085 -1.5627
11135SOL     OW35411   0.338   3.860   9.630  0.4545  0.5856  0.3416
11135SOL    HW135412   0.287   3.833   9.554 -0.5811  0.9835  0.8728
11135SOL    HW235413   0.326   3.955   9.635 -0.4014  0.4330  1.6187
11136SOL     OW35414   2.481   7.676   0.240 -0.2713 -0.2027  0.6783
11136SOL    HW135415   2.507   7.735   0.310  2.6219  0.2463 -0.6366
11136SOL    HW235416   2.527   7.595   0.257  0.9246  0.0827 -0.8910
11137SOL     OW35417   1.000   7.841   1.565 -0.3604  0.3763 -0.1904
11137SOL    HW135418   1.034   7.865   1.479 -1.7177  1.2228 -0.5181
11137SOL    HW235419   0.970   7.924   1.604  2.7121  0.5244  2.3116
11138SOL     OW35420   8.030   9.621   0.315 -0.3106 -0.2602 -0.0566
11138SOL    HW135421   7.989   9.699   0.353 -0.9205 -1.4893  1.9888
11138SOL    HW235422   8.042   9.643   0.223  0.0100  2.4318  0.5241
11139SOL     OW35423   6.336   8.248   2.125  0.1330  0.4863 -0.6319
11139SOL    HW135424   6.356   8.159   2.154  1.9683  1.1379  0.2891
11139SOL    HW235425   6.303   8.237   2.036  0.1693 -1.1307 -0.4756
11140SOL     OW35426   4.265  10.687   5.645 -0.4606  0.1493 -0.2121
11140SOL    HW135427   4.189  10.704   5.589 -0.2014  0.6123 -0.4301
11140SOL    HW235428   4.246  10.735   5.725  0.2108  1.4039 -0.7775
11141SOL     OW35429   6.020   2.557  11.017 -0.0189 -0.0544 -0.4578
11141SOL    HW135430   6.073   2.495  11.067  0.2607  0.3103 -0.2897
11141SOL    HW235431   5.957   2.591  11.080  1.4551  1.7232  0.1625
11142SOL     OW35432   8.625   7.245   4.619 -0.2266 -0.0049 -0.0271
11142SOL    HW135433   8.532   7.231   4.637 -0.5537  3.0846  1.4674
11142SOL    HW235434   8.671   7.186   4.679 -1.2393 -0.2248  0.5409
11143SOL     OW35435   1.118   2.493   2.911  0.2849 -0.6521  0.2194
11143SOL    HW135436   1.043   2.442   2.879  0.9891 -2.4079  1.2656
11143SOL    HW235437   1.118   2.479   3.006  1.8529 -0.5642  0.2562
11144SOL     OW35438   7.785  11.021   1.526 -0.4336  0.3349 -0.9119
11144SOL    HW135439   7.795  10.935   1.484 -0.6433 -0.3896  0.4546
11144SOL    HW235440   7.875  11.053   1.535 -0.2371 -0.3639 -0.2302
11145SOL     OW35441   1.893  10.778   8.912 -0.1341 -0.0275 -0.9457
11145SOL    HW135442   1.945  10.744   8.984  0.0003  0.7704 -0.6632
11145SOL    HW235443   1.887  10.872   8.928 -2.5995 -0.2134 -0.3449
11146SOL     OW35444   2.237   9.727   1.000 -0.4447  0.9157  0.4864
11146SOL    HW135445   2.331   9.742   1.008 -0.2777  0.2623 -0.0555
11146SOL    HW235446   2.197   9.785   1.064  0.3136  1.3877  0.5441
11147SOL     OW35447  11.275  10.373  10.329 -0.1190  0.4309  0.5442
11147SOL    HW135448  11.320  10.336  10.405 -1.0246  0.8490  1.3087
11147SOL    HW235449  11.218  10.441  10.366 -0.0453  1.1302 -0.5954
11148SOL     OW35450   1.008   7.909  10.108 -0.0075 -0.2861 -0.9239
11148SOL    HW135451   0.940   7.955  10.058 -1.0418 -0.9204 -0.1375
11148SOL    HW235452   1.021   7.827  10.060 -2.1236 -1.6208  0.5623
11149SOL     OW35453   7.804   4.837   3.484 -0.7424  0.5087  0.0553
11149SOL    HW135454   7.716   4.820   3.517 -1.0185 -1.4516 -1.4441
11149SOL    HW235455   7.841   4.749   3.470  0.9802  1.2839 -0.5238
11150SOL     OW35456   3.549   4.985   8.180  0.3594 -0.9163  0.2376
11150SOL    HW135457   3.611   5.020   8.244  1.7384 -1.0736 -0.9833
11150SOL    HW235458   3.550   5.049   8.108 -0.4098 -1.2565 -0.0915
11151SOL     OW35459   4.986   3.038   7.568 -0.6132 -0.4740  0.2749
11151SOL    HW135460   4.933   3.118   7.572  1.2815  1.0296 -2.1679
11151SOL    HW235461   5.023   3.029   7.656 -2.0165  0.4677  0.9940
11152SOL     OW35462   8.550   0.836   3.576 -0.1789  0.0027 -0.4113
11152SOL    HW135463   8.635   0.847   3.533  0.3637 -0.5382  0.4826
11152SOL    HW235464   8.487   0.873   3.515  0.9888  3.5245  0.2672
11153SOL     OW35465   7.251   6.102   3.780  0.0217 -0.2662  0.0459
11153SOL    HW135466   7.246   6.096   3.875  0.8326  1.0169  0.1953
11153SOL    HW235467   7.169   6.064   3.749 -0.9346  0.6646  1.3267
11154SOL     OW35468   3.189   5.172   8.799 -0.5889  0.1685 -0.7814
11154SOL    HW135469   3.138   5.166   8.718  0.7133  1.3014 -1.7351
11154SOL    HW235470   3.146   5.240   8.850  0.4612  1.8694 -2.0353
11155SOL     OW35471   9.168   2.209   4.764 -0.9062 -0.4335  0.0069
11155SOL    HW135472   9.175   2.289   4.712  1.6198 -0.5773  0.0374
11155SOL    HW235473   9.076   2.184   4.757 -1.7731  2.4183 -0.0635
11156SOL     OW35474   1.760   0.387   2.731 -0.0037  0.0407 -0.5308
11156SOL    HW135475   1.699   0.325   2.690  0.6827 -2.7073  2.1818
11156SOL    HW235476   1.845   0.365   2.692 -0.0477  0.7428 -1.0382
11157SOL     OW35477  10.341  10.866   7.145 -0.5661  0.1668  0.0778
11157SOL    HW135478  10.354  10.885   7.238 -1.4853  0.1564  0.2192
11157SOL    HW235479  10.289  10.939   7.113 -0.0611  0.2860 -0.4892
11158SOL     OW35480   3.982   7.363   1.350 -0.1489 -0.3124  0.2685
11158SOL    HW135481   3.953   7.433   1.408 -0.9190 -0.8111  0.5050
11158SOL    HW235482   3.986   7.285   1.406  2.4340 -0.1310  0.4341
11159SOL     OW35483   1.983   2.611  10.498  1.3429 -0.1973  0.0033
11159SOL    HW135484   1.941   2.573  10.421  2.5421  0.9443 -1.2930
11159SOL    HW235485   1.929   2.687  10.520  1.1619 -0.3527  0.0893
11160SOL     OW35486   2.242   8.096   8.048 -0.2395  0.1922  0.7170
11160SOL    HW135487   2.244   8.124   7.957 -0.7700 -0.2759  0.5571
11160SOL    HW235488   2.156   8.124   8.080  0.1022  0.7137  1.1906
11161SOL     OW35489   0.326   4.485   7.747  0.5021 -0.2137 -0.6956
11161SOL    HW135490   0.372   4.521   7.672 -0.7387 -0.2134 -1.4768
11161SOL    HW235491   0.352   4.393   7.750  0.6951 -0.1693 -1.0095
11162SOL     OW35492   3.546   5.722   8.203  0.8540 -0.7332  0.1937
11162SOL    HW135493   3.470   5.705   8.258  1.1026 -0.8069  0.5215
11162SOL    HW235494   3.534   5.665   8.127 -2.0617  2.8637 -2.4010
11163SOL     OW35495   9.228   7.472   3.824  0.8077  0.1004  0.2512
11163SOL    HW135496   9.151   7.458   3.880  0.7277 -0.0559  0.1016
11163SOL    HW235497   9.253   7.384   3.794 -0.9318  0.3817 -2.3501
11164SOL     OW35498   9.427   1.881   2.727 -0.0739  0.3914  0.1757
11164SOL    HW135499   9.487   1.806   2.720 -0.1802  0.3952 -0.8417
11164SOL    HW235500   9.455   1.941   2.658 -2.0333 -0.1812 -1.1879
11165SOL     OW35501   2.305   8.301  10.142  0.4367 -0.3982 -0.3048
11165SOL    HW135502   2.345   8.374  10.094  0.3750  0.0378  0.3092
11165SOL    HW235503   2.331   8.314  10.233 -0.1389 -0.7643 -0.0806
11166SOL     OW35504   5.354   0.618   9.756 -0.2537  0.3135 -0.3707
11166SOL    HW135505   5.393   0.597   9.671 -1.7354 -0.1360 -0.9668
11166SOL    HW235506   5.317   0.706   9.744 -0.2923  0.3312 -0.1245
11167SOL     OW35507  11.213   5.820  10.888  0.4893  0.3700 -0.1160
11167SOL    HW135508  11.218   5.777  10.802 -0.2256  1.4693 -0.7250
11167SOL    HW235509  11.120   5.822  10.908  0.4303  2.1624 -0.3947
11168SOL     OW35510   4.515   7.355   9.245 -0.1269  0.1925 -0.2126
11168SOL    HW135511   4.550   7.436   9.282  0.4160  0.7629 -1.8838
11168SOL    HW235512   4.436   7.382   9.198  0.2106 -0.1826 -1.0213
11169SOL     OW35513   7.436   8.800   0.507  0.2380 -0.3756 -1.0761
11169SOL    HW135514   7.407   8.843   0.427 -1.1649  2.9293  1.0269
11169SOL    HW235515   7.361   8.804   0.566  1.8377 -0.8006  1.1293
11170SOL     OW35516   8.246   6.698   6.432 -0.0216  0.0970  0.2421
11170SOL    HW135517   8.322   6.667   6.481 -0.6330 -0.9700  0.5592
11170SOL    HW235518   8.279   6.771   6.379  2.0252 -2.3649 -2.1681
11171SOL     OW35519   6.028   5.087   7.907  0.1198  1.0349  0.2161
11171SOL    HW135520   5.971   5.032   7.854 -0.5887  0.9872  1.0105
11171SOL    HW235521   6.072   5.143   7.844  0.6806 -0.2657 -0.5814
11172SOL     OW35522   9.046   6.703   2.943 -0.2874  0.3878 -0.5156
11172SOL    HW135523   9.026   6.610   2.949  0.4196  0.0973 -2.0994
11172SOL    HW235524   9.140   6.707   2.927  0.2978  1.5560  2.5932
11173SOL     OW35525   0.175   6.751   7.348 -0.7102 -0.3357  0.1575
11173SOL    HW135526   0.202   6.750   7.256 -0.0960 -1.8874  0.3145
11173SOL    HW235527   0.248   6.791   7.395 -1.4027  1.3097 -0.0930
11174SOL     OW35528   7.497   5.879   7.249  0.3115 -0.5361 -0.4977
11174SOL    HW135529   7.478   5.836   7.332  0.3233 -0.5639 -0.5094
11174SOL    HW235530   7.411   5.910   7.219  0.5717  1.2492  0.5026
11175SOL     OW35531  10.101   8.011   7.941  0.1211  0.1658 -0.8267
11175SOL    HW135532  10.061   8.023   7.855 -1.7135 -4.7033 -1.0243
11175SOL    HW235533  10.026   8.001   8.001  1.2607 -0.4608  0.5562
11176SOL     OW35534   0.856   1.828   8.217  0.1991 -0.3427 -0.6629
11176SOL    HW135535   0.880   1.906   8.166 -1.1401  0.3731 -0.2564
11176SOL    HW235536   0.761   1.835   8.229  0.3619 -0.8159  1.3723
11177SOL     OW35537   2.773   8.354   3.335 -0.2394  0.1727 -0.4324
11177SOL    HW135538   2.720   8.278   3.360  1.8047 -1.3558 -0.4780
11177SOL    HW235539   2.792   8.399   3.417  4.2464 -3.3358  0.7996
11178SOL     OW35540   8.856   8.715   2.156 -0.2614  0.3083  0.0260
11178SOL    HW135541   8.766   8.682   2.163  0.0803 -0.8990 -0.7907
11178SOL    HW235542   8.860   8.756   2.069 -0.2567  1.1412  0.4166
11179SOL     OW35543   8.023   6.672   7.491 -0.3962  0.0053 -0.1259
11179SOL    HW135544   7.986   6.690   7.577  0.2892  0.0972  0.1512
11179SOL    HW235545   7.947   6.649   7.437 -1.1657  2.2001 -0.1150
11180SOL     OW35546   0.628   0.331   2.126  0.3036  0.5460  0.2755
11180SOL    HW135547   0.605   0.349   2.217  1.0864 -0.4022  0.6761
11180SOL    HW235548   0.718   0.362   2.117 -0.0564  1.4314 -0.4315
11181SOL     OW35549   9.855   8.166   8.270  0.2691  0.4126  0.0716
11181SOL    HW135550   9.870   8.122   8.354  0.6469 -1.3905 -0.8925
11181SOL    HW235551   9.762   8.190   8.272 -0.3631 -1.7936  0.0736
11182SOL     OW35552   1.596   9.320   0.402 -0.0502 -0.0209 -0.0097
11182SOL    HW135553   1.573   9.394   0.346 -0.6601 -0.7643 -0.7660
11182SOL    HW235554   1.576   9.242   0.349 -0.3738 -0.7393  1.1265
11183SOL     OW35555   4.103   1.959   2.874  0.2845 -0.1508  1.0109
11183SOL    HW135556   4.017   1.948   2.914 -0.4573  1.5304 -0.0657
11183SOL    HW235557   4.144   2.029   2.925  0.7059 -0.3707  0.9804
11184SOL     OW35558   2.832   2.052   5.471  0.3669  0.1561 -0.3075
11184SOL    HW135559   2.854   2.140   5.503 -2.0551  0.6345  0.2504
11184SOL    HW235560   2.737   2.046   5.482  0.3396 -2.1665 -1.3148
11185SOL     OW35561   8.752   1.611   9.068  0.3095 -0.3014 -0.7861
11185SOL    HW135562   8.692   1.582   9.136  0.8800  1.8856  0.7509
11185SOL    HW235563   8.827   1.552   9.075  1.3727  1.2355  2.1182
11186SOL     OW35564   0.838   8.953   0.050 -0.5855 -0.0311  0.6712
11186SOL    HW135565   0.858   9.023  -0.012  1.9792  0.0336  1.4238
11186SOL    HW235566   0.785   8.994   0.118 -0.4576  0.7820  0.2862
11187SOL     OW35567   5.010   2.655   8.256 -0.0578  0.3769 -0.7690
11187SOL    HW135568   5.073   2.595   8.217  2.2717  0.7431  2.0994
11187SOL    HW235569   4.978   2.610   8.334 -0.0866  1.8731  0.1360
11188SOL     OW35570   7.509   8.191   6.618 -0.1066  0.2084 -0.5141
11188SOL    HW135571   7.545   8.209   6.705  0.0825  1.2354 -0.7978
11188SOL    HW235572   7.573   8.132   6.577  0.3383  0.5737 -0.3478
11189SOL     OW35573   3.783   6.654   1.906 -0.1806 -0.1573  0.0329
11189SOL    HW135574   3.834   6.717   1.856  0.9473 -0.6501  0.5363
11189SOL    HW235575   3.767   6.582   1.845 -1.8385  0.7597 -0.6773
11190SOL     OW35576   6.722   9.598   9.891  0.4625 -0.2917  0.5294
11190SOL    HW135577   6.663   9.536   9.932  1.1242 -0.9804  0.4634
11190SOL    HW235578   6.671   9.678   9.881 -1.0389 -1.3983 -1.1822
11191SOL     OW35579   5.762   2.705   1.578 -0.5520  0.2418  0.8473
11191SOL    HW135580   5.855   2.727   1.572  0.0760 -1.6318  2.5166
11191SOL    HW235581   5.744   2.704   1.672 -1.8025 -1.0909  0.6320
11192SOL     OW35582   2.055   4.227   3.539 -0.0272 -0.4582 -0.1345
11192SOL    HW135583   2.075   4.155   3.479  1.2256 -1.1024  1.0163
11192SOL    HW235584   2.133   4.282   3.538 -0.6433  0.4515 -0.3352
11193SOL     OW35585  10.102  10.694   1.883  0.6050  0.1974 -0.2876
11193SOL    HW135586  10.092  10.756   1.810 -1.7815 -0.1407 -0.3242
11193SOL    HW235587  10.090  10.748   1.961  1.2500  0.2258 -0.2027
11194SOL     OW35588   2.123   8.433   6.473  0.5563 -0.1861  0.2704
11194SOL    HW135589   2.049   8.480   6.510  2.2586  1.7637  1.4081
11194SOL    HW235590   2.084   8.358   6.427 -2.2363  1.8766 -0.9945
11195SOL     OW35591   6.355   5.009   1.832  0.0196 -0.5376 -0.2467
11195SOL    HW135592   6.308   4.986   1.751  2.1062 -1.8084 -1.1888
11195SOL    HW235593   6.447   5.014   1.805  0.6159  0.4554  1.7929
11196SOL     OW35594   1.682  11.244   9.410  0.3819 -0.0930  0.4120
11196SOL    HW135595   1.698  11.168   9.466  1.1013  0.8464  1.5198
11196SOL    HW235596   1.770  11.271   9.382  0.0383 -0.5368 -1.1965
11197SOL     OW35597   5.024  11.080   5.864 -0.1502 -0.0777  0.3377
11197SOL    HW135598   5.007  11.143   5.934  0.2811 -1.7512  2.0602
11197SOL    HW235599   4.938  11.044   5.842 -0.1401 -0.6298  1.1388
11198SOL     OW35600  10.973   1.512   7.750 -0.2322 -0.2684 -0.8121
11198SOL    HW135601  10.922   1.485   7.674  0.3377 -1.4801 -0.7836
11198SOL    HW235602  10.986   1.431   7.801 -0.1048  0.4075  0.2700
11199SOL     OW35603   0.139  10.966   8.994  0.4059 -0.0243 -0.1768
11199SOL    HW135604   0.092  10.975   9.077  1.3698  2.0971  0.2148
11199SOL    HW235605   0.089  10.901   8.945 -2.4892  1.4640  0.5378
11200SOL     OW35606   7.928   3.059   7.533 -0.5315 -0.1114  0.0021
11200SOL    HW135607   7.957   3.094   7.449 -1.8377 -2.3811 -1.5202
11200SOL    HW235608   7.839   3.092   7.544 -0.4146  0.0641  0.4096
11201SOL     OW35609   3.958   5.070  11.191 -0.1826 -0.5981 -0.1569
11201SOL    HW135610   3.891   5.058  11.123 -1.7952 -0.4812  1.3307
11201SOL    HW235611   3.969   4.983  11.229 -0.4109 -0.3951  0.3944
11202SOL     OW35612   0.611  10.669   7.601  0.0344 -0.2132  0.1825
11202SOL    HW135613   0.576  10.754   7.628  1.2428 -0.1148  1.5262
11202SOL    HW235614   0.636  10.682   7.510  3.6432  2.1092  1.3053
11203SOL     OW35615  10.738   6.912   3.109  0.0530  0.1298 -0.2872
11203SOL    HW135616  10.807   6.933   3.046 -0.8931 -1.3153 -1.9076
11203SOL    HW235617  10.659   6.951   3.072 -0.2311  0.8081  0.9707
11204SOL     OW35618   8.170   9.900   8.129  0.0662 -1.1260 -0.2240
11204SOL    HW135619   8.193   9.973   8.072 -0.3115 -0.1599  0.8392
11204SOL    HW235620   8.247   9.886   8.183 -0.9090  0.5820  1.7273
11205SOL     OW35621   9.134  10.652   9.815  0.2374 -0.9257  0.0134
11205SOL    HW135622   9.039  10.656   9.808  0.2211  0.7409  0.8219
11205SOL    HW235623   9.165  10.690   9.732  0.2124 -1.3818 -0.2090
11206SOL     OW35624   2.496   2.302  11.169 -0.5478  0.5089  0.4561
11206SOL    HW135625   2.458   2.230  11.118  0.4771 -0.2634  0.7435
11206SOL    HW235626   2.427   2.367  11.174 -0.7929  0.4863 -1.6726
11207SOL     OW35627   4.198   9.384   4.083  0.0977 -0.3334  0.2410
11207SOL    HW135628   4.248   9.322   4.135  0.7272 -0.2505 -0.2535
11207SOL    HW235629   4.227   9.470   4.112 -0.6566 -0.2543  0.8106
11208SOL     OW35630   5.517   2.729   4.783 -0.6824  0.2395 -0.2784
11208SOL    HW135631   5.465   2.804   4.754 -0.5133 -0.1754 -1.7525
11208SOL    HW235632   5.606   2.763   4.792 -0.9706  0.6875  1.1566
11209SOL     OW35633   6.039   2.716  10.016 -0.1403  0.6862 -0.3342
11209SOL    HW135634   6.103   2.653  10.047 -2.3886 -1.0722  1.0042
11209SOL    HW235635   6.021   2.772  10.092 -2.0526 -0.5456  0.2186
11210SOL     OW35636  10.547   0.417   4.873  0.5086 -0.4285 -0.1908
11210SOL    HW135637  10.463   0.372   4.885 -0.7168  1.1959 -1.9324
11210SOL    HW235638  10.544   0.491   4.934  1.5488 -1.4289  1.1072
11211SOL     OW35639   2.150   9.589   6.448  0.8168 -0.3035 -0.4417
11211SOL    HW135640   2.196   9.672   6.440  0.5180 -0.1464 -0.5131
11211SOL    HW235641   2.068   9.611   6.492  1.8769 -0.9311  2.0689
11212SOL     OW35642  10.351   9.791   8.790  0.7247 -0.7580 -0.1411
11212SOL    HW135643  10.319   9.877   8.764  2.2083  0.0509  0.5173
11212SOL    HW235644  10.334   9.787   8.884  1.7908 -0.6118  0.0797
11213SOL     OW35645   2.874   2.371   0.470 -0.0610  0.5083  0.2885
11213SOL    HW135646   2.921   2.297   0.431 -1.7433  0.1637 -1.2308
11213SOL    HW235647   2.889   2.444   0.410 -1.2365  0.4512 -0.0949
11214SOL     OW35648   1.987   4.900   5.895  0.9225 -0.0221 -0.0530
11214SOL    HW135649   1.943   4.967   5.842  0.9376  0.3604  0.4216
11214SOL    HW235650   2.031   4.844   5.830  1.8868  1.0979 -0.3974
11215SOL     OW35651   1.601   9.201   8.409  0.2126  0.8788 -0.2368
11215SOL    HW135652   1.580   9.132   8.472 -0.6588  0.5382 -0.8781
11215SOL    HW235653   1.593   9.158   8.323  1.7611  1.2262 -0.5777
11216SOL     OW35654   7.974   4.945   0.639 -0.5434 -0.7911  0.2797
11216SOL    HW135655   7.946   4.858   0.610 -1.9786 -0.0722 -0.5912
11216SOL    HW235656   7.898   4.982   0.683  0.1975 -0.1249  1.0432
11217SOL     OW35657   7.288   3.992   5.232 -0.0501 -0.1846 -0.4506
11217SOL    HW135658   7.369   3.941   5.230 -0.0872 -0.2466 -1.8428
11217SOL    HW235659   7.317   4.082   5.218 -0.2985 -0.4125 -2.9459
11218SOL     OW35660   7.820   4.196   2.149  0.2209 -0.4317 -0.0130
11218SOL    HW135661   7.771   4.268   2.190  0.9843 -0.1403  0.4218
11218SOL    HW235662   7.769   4.118   2.170 -0.2320 -0.0990  0.1516
11219SOL     OW35663   8.025   7.620   4.142  0.0548 -0.0674 -0.3135
11219SOL    HW135664   7.983   7.608   4.057 -0.0976  0.9465 -0.3965
11219SOL    HW235665   8.035   7.531   4.177  2.5699 -0.7780 -2.5436
11220SOL     OW35666   8.026   4.767   2.981 -0.0035  0.6288 -0.2803
11220SOL    HW135667   7.974   4.700   2.936 -0.2334  0.8423 -0.3314
11220SOL    HW235668   7.962   4.830   3.014  0.0711 -0.0359  1.2304
11221SOL     OW35669   6.142   5.062   5.471 -0.3422  0.4303 -0.1411
11221SOL    HW135670   6.227   5.029   5.500  0.4537  3.7222  1.8017
11221SOL    HW235671   6.082   5.041   5.542 -1.5149 -2.6511 -1.8760
11222SOL     OW35672   8.050   9.765   3.753 -0.1843  0.0438 -0.7431
11222SOL    HW135673   8.127   9.709   3.761 -0.5725 -0.5516 -1.1420
11222SOL    HW235674   8.085   9.854   3.762  0.3857 -0.2598  0.2777
11223SOL     OW35675  10.123  10.189   8.513  0.1545 -0.1818 -0.0035
11223SOL    HW135676  10.065  10.113   8.516 -1.4730  0.8751 -1.8658
11223SOL    HW235677  10.211  10.153   8.509 -0.3529 -1.8699  2.0932
11224SOL     OW35678   6.881   6.857   4.606  0.8261 -0.2911  0.0972
11224SOL    HW135679   6.838   6.814   4.680  0.2658 -0.4761 -0.3249
11224SOL    HW235680   6.882   6.950   4.629 -0.3992 -0.2032 -0.1741
11225SOL     OW35681   1.211   9.503   2.868  0.0864 -0.2003 -0.4423
11225SOL    HW135682   1.130   9.511   2.818  0.1148  1.1341 -0.3107
11225SOL    HW235683   1.277   9.478   2.804 -0.6894 -2.9990 -0.2894
11226SOL     OW35684   7.440   5.731   7.756  0.0208 -0.4379  0.3580
11226SOL    HW135685   7.459   5.657   7.814 -0.6457  0.2017  1.4210
11226SOL    HW235686   7.424   5.804   7.815  1.4939  0.7904 -0.6708
11227SOL     OW35687   4.301   8.376   0.743  0.3313 -0.0076  0.2901
11227SOL    HW135688   4.313   8.281   0.743 -1.8156 -0.4074  2.6155
11227SOL    HW235689   4.382   8.410   0.782  0.9388 -0.9203 -0.1428
11228SOL     OW35690   4.847  10.995   8.768  0.5408  0.0677 -0.1325
11228SOL    HW135691   4.852  11.017   8.675  3.5690  0.0442 -0.0814
11228SOL    HW235692   4.924  11.037   8.806  0.0828 -1.0162  2.1227
11229SOL     OW35693   8.279   1.439   5.681  0.0625 -0.2706 -0.5750
11229SOL    HW135694   8.245   1.401   5.762 -2.0439  1.5403 -0.5113
11229SOL    HW235695   8.314   1.524   5.707  1.0871 -0.4454 -1.3097
11230SOL     OW35696   6.073   0.621   8.745  0.7095  0.2275 -0.0866
11230SOL    HW135697   5.978   0.638   8.749  0.8306  0.8528  0.2227
11230SOL    HW235698   6.080   0.525   8.745  0.0610  0.1733 -0.4810
11231SOL     OW35699   8.861   2.337   6.356  1.1287  0.5012  0.2672
11231SOL    HW135700   8.886   2.413   6.408 -0.8895  0.8357  0.8344
11231SOL    HW235701   8.891   2.262   6.408 -1.5167  0.7826  2.5123
11232SOL     OW35702   9.744  11.041   9.091 -0.3246 -0.0729 -0.4300
11232SOL    HW135703   9.751  10.976   9.161 -3.9892  1.3769  1.5517
11232SOL    HW235704   9.716  10.992   9.014  0.1490 -1.2306  0.1172
11233SOL     OW35705   9.523  10.787   7.356  0.5853  0.4549  0.1177
11233SOL    HW135706   9.466  10.862   7.335  0.6422  0.2180 -0.9706
11233SOL    HW235707   9.487  10.751   7.436 -1.0306  0.1069 -0.7257
11234SOL     OW35708   0.734   0.649   8.982 -0.2628 -0.1614 -0.3098
11234SOL    HW135709   0.724   0.719   8.917  1.8032 -1.5125 -2.2150
11234SOL    HW235710   0.656   0.595   8.970  0.7384 -1.2259 -2.8838
11235SOL     OW35711   3.713   7.183   6.743  0.3017 -0.5653  0.3030
11235SOL    HW135712   3.774   7.125   6.697  0.4115 -1.6383  1.7290
11235SOL    HW235713   3.726   7.268   6.702  3.0252 -0.6674  0.7363
11236SOL     OW35714   5.021   2.771   1.359  0.2287  0.2744  0.9679
11236SOL    HW135715   5.079   2.834   1.401  1.9223 -1.3278  1.1313
11236SOL    HW235716   5.019   2.798   1.267  3.6309 -1.1940  0.2990
11237SOL     OW35717   1.569   1.039   3.561 -0.2317  0.5117  0.5344
11237SOL    HW135718   1.640   1.094   3.595  0.8460  0.0036 -0.8422
11237SOL    HW235719   1.489   1.078   3.598  0.7576  0.8952  2.3722
11238SOL     OW35720   8.603  11.251   1.753 -0.4411 -0.4293 -0.0064
11238SOL    HW135721   8.655  11.171   1.745 -1.6635 -1.1587 -1.1454
11238SOL    HW235722   8.656  11.319   1.712  0.9859 -0.4343  1.7199
11239SOL     OW35723   3.033   8.585   5.066 -0.4621  0.0524  0.0772
11239SOL    HW135724   2.977   8.534   5.125 -0.6986 -3.4550 -2.8300
11239SOL    HW235725   3.115   8.595   5.114 -0.1296 -3.9136  0.6615
11240SOL     OW35726   3.659   2.928   2.549  0.1729  0.2299 -0.1137
11240SOL    HW135727   3.656   3.017   2.514  1.6856 -0.0130 -0.9723
11240SOL    HW235728   3.705   2.878   2.482 -3.2462 -1.9302 -1.0943
11241SOL     OW35729   4.725   8.224  10.830 -0.2679  0.6156 -0.5370
11241SOL    HW135730   4.687   8.140  10.856  0.3162  1.1546  2.5345
11241SOL    HW235731   4.817   8.205  10.812 -0.2952  0.4726 -0.5236
11242SOL     OW35732   1.733   4.341   6.634  1.0510  0.2067 -0.7067
11242SOL    HW135733   1.686   4.336   6.550 -1.3291 -0.3510  0.5693
11242SOL    HW235734   1.756   4.433   6.643 -2.1480  1.0776 -0.2809
11243SOL     OW35735   0.765   9.377   8.066  0.6865 -0.1857 -0.3589
11243SOL    HW135736   0.701   9.370   8.138  0.3428 -2.6375 -0.7880
11243SOL    HW235737   0.846   9.340   8.102  0.7221 -0.7393 -0.9756
11244SOL     OW35738   1.624   0.023   0.241 -0.3139 -0.2272 -0.1729
11244SOL    HW135739   1.687  -0.031   0.194 -0.6087 -3.0123  2.3279
11244SOL    HW235740   1.664   0.110   0.243  2.5052 -1.4230 -0.3985
11245SOL     OW35741   4.080  10.914   9.670 -0.3449 -0.2035 -0.0635
11245SOL    HW135742   4.103  10.954   9.754  0.6559 -0.9538  0.0481
11245SOL    HW235743   4.160  10.923   9.617 -0.1655 -1.7865 -0.1155
11246SOL     OW35744   9.182   8.031   9.822  0.3333  0.1909 -0.2990
11246SOL    HW135745   9.255   8.055   9.765  1.6268  0.6499  1.4248
11246SOL    HW235746   9.112   8.091   9.799  0.0320 -0.9995 -2.7862
11247SOL     OW35747   2.894   6.484   1.797 -0.6809  0.7816  0.3961
11247SOL    HW135748   2.800   6.469   1.804 -0.4858 -2.0582 -1.4922
11247SOL    HW235749   2.903   6.545   1.724 -1.0660 -0.0161 -0.3472
11248SOL     OW35750   9.027   8.642   6.270  0.0567  0.3730  0.0977
11248SOL    HW135751   9.096   8.592   6.226 -1.2018 -1.5488  0.2150
11248SOL    HW235752   9.064   8.661   6.357  0.4599 -0.6178  0.1603
11249SOL     OW35753   1.072   9.860   4.629 -0.7725 -0.0506  0.2801
11249SOL    HW135754   1.143   9.887   4.571  0.9227 -1.6792  1.5045
11249SOL    HW235755   1.003   9.925   4.614 -0.0069  0.2200 -2.7360
11250SOL     OW35756   2.625  11.203   2.273 -0.3517 -0.9222 -0.1816
11250SOL    HW135757   2.572  11.150   2.214 -0.8598  0.0482 -0.6164
11250SOL    HW235758   2.563  11.265   2.311  0.3915 -0.0510 -0.3697
11251SOL     OW35759   2.132   0.651   7.794  0.1221 -0.4476 -0.1486
11251SOL    HW135760   2.169   0.739   7.790 -0.1133 -0.4002 -3.2051
11251SOL    HW235761   2.040   0.665   7.818 -0.0940  0.2319 -1.3153
11252SOL     OW35762   5.495  11.143   4.684 -0.8458 -0.1556 -0.3346
11252SOL    HW135763   5.565  11.207   4.696  0.7994 -2.2768  2.5549
11252SOL    HW235764   5.482  11.138   4.589  0.2859  2.9565 -0.7507
11253SOL     OW35765   5.230   4.987   8.475 -0.1076 -0.4797  0.0710
11253SOL    HW135766   5.252   4.919   8.539 -0.8832 -0.1850  0.6680
11253SOL    HW235767   5.137   4.972   8.457  0.0425 -0.3929 -0.7928
11254SOL     OW35768   8.198   4.048  11.167 -0.2127  0.6167 -0.1851
11254SOL    HW135769   8.157   4.133  11.185  1.0426  1.1084  0.4118
11254SOL    HW235770   8.283   4.069  11.130 -0.4880 -0.3989 -1.4931
11255SOL     OW35771   5.683   1.638   1.678 -0.4596  0.2511 -0.2586
11255SOL    HW135772   5.688   1.547   1.707 -0.8519  0.4845  0.5656
11255SOL    HW235773   5.774   1.662   1.662 -0.4336 -0.6473 -1.7008
11256SOL     OW35774   5.915  10.986   0.915  0.2114 -0.3434  0.4127
11256SOL    HW135775   5.954  11.069   0.889  0.1025 -0.1166  0.9568
11256SOL    HW235776   5.827  11.010   0.946  0.1249 -0.6791  0.4290
11257SOL     OW35777   8.290  10.861   0.774  0.1300 -0.1412 -0.2401
11257SOL    HW135778   8.209  10.810   0.776  0.5568 -0.8112  1.4023
11257SOL    HW235779   8.264  10.949   0.801  0.2966 -1.0093  3.2270
11258SOL     OW35780   7.791   2.273   6.132 -0.6342 -0.7751  0.0265
11258SOL    HW135781   7.823   2.183   6.126  0.1590 -0.3969 -2.8051
11258SOL    HW235782   7.806   2.310   6.045 -2.3642  1.6423  0.6435
11259SOL     OW35783   5.892   4.776   1.693  0.3488 -0.0502  0.5366
11259SOL    HW135784   5.921   4.815   1.611 -1.3727  0.5152  0.1477
11259SOL    HW235785   5.959   4.711   1.714  1.5156  0.7419 -0.5933
11260SOL     OW35786   4.958  10.129   6.723 -0.0592  0.6597 -0.5809
11260SOL    HW135787   5.053  10.132   6.737 -0.1945  2.3331  0.2050
11260SOL    HW235788   4.921  10.133   6.812 -0.8748  1.4952 -0.9456
11261SOL     OW35789   2.482   0.310   3.296  0.1568  0.0391  0.4420
11261SOL    HW135790   2.576   0.311   3.316  0.0216 -0.4857  1.1742
11261SOL    HW235791   2.455   0.220   3.314 -0.4182  0.0842 -0.1356
11262SOL     OW35792  10.038   7.506   8.532 -0.5576 -0.5238  0.0271
11262SOL    HW135793  10.037   7.510   8.436 -1.5074 -1.4577 -0.0096
11262SOL    HW235794   9.969   7.444   8.555 -1.1786  0.6119  1.3732
11263SOL     OW35795   8.987   5.491   7.049 -0.3906 -0.6146  0.1630
11263SOL    HW135796   9.013   5.405   7.017 -2.0652 -2.0677  2.3614
11263SOL    HW235797   8.893   5.496   7.031 -0.8961 -0.4858  2.4743
11264SOL     OW35798   4.190  11.159   8.570  0.6785 -0.0854  0.5395
11264SOL    HW135799   4.176  11.157   8.475  0.3024 -3.6413  0.5260
11264SOL    HW235800   4.213  11.069   8.592 -2.8377 -0.3364  4.3075
11265SOL     OW35801   5.792   1.256   0.757  0.0257  0.3381 -0.0464
11265SOL    HW135802   5.709   1.251   0.709 -0.6653  0.8944  1.0644
11265SOL    HW235803   5.827   1.343   0.735 -0.1334  0.4672  0.2180
11266SOL     OW35804   4.468  10.974   4.927 -0.5425  0.2757 -0.0028
11266SOL    HW135805   4.402  10.919   4.886 -0.2916  0.4126 -0.5949
11266SOL    HW235806   4.418  11.033   4.983 -0.9234  0.3522 -0.4178
11267SOL     OW35807   0.656  11.015   1.948  0.0921  0.6720  0.5813
11267SOL    HW135808   0.592  11.005   2.018 -0.1670 -1.7908  0.0802
11267SOL    HW235809   0.706  10.933   1.950 -0.2141  0.3237 -2.3538
11268SOL     OW35810   5.590  10.113   9.794  0.1700 -0.1066  0.1399
11268SOL    HW135811   5.650  10.178   9.831  0.5875 -0.8556  0.8017
11268SOL    HW235812   5.556  10.065   9.869 -2.6200  1.3951 -0.0379
11269SOL     OW35813   5.404   6.759   2.391 -0.0452  0.4053  0.6032
11269SOL    HW135814   5.359   6.696   2.448 -2.8076  1.7408  0.0826
11269SOL    HW235815   5.345   6.771   2.317  1.9309  1.1792 -0.9358
11270SOL     OW35816   1.047   1.267   9.164  0.0541 -0.6070 -0.0557
11270SOL    HW135817   1.085   1.270   9.076  2.0153  1.2574  0.7450
11270SOL    HW235818   0.958   1.301   9.153  0.3771 -0.0908 -1.2832
11271SOL     OW35819   2.688   3.568   3.906 -0.2344  0.2233 -0.1213
11271SOL    HW135820   2.668   3.640   3.846 -1.8388  1.0343  1.2895
11271SOL    HW235821   2.781   3.550   3.892 -0.8041 -0.6733 -3.8898
11272SOL     OW35822   6.906   5.403   9.733  0.6575  0.4399  0.1350
11272SOL    HW135823   6.932   5.387   9.642  1.0552  0.6709  0.2009
11272SOL    HW235824   6.861   5.488   9.730 -1.5108 -0.6710 -0.2261
11273SOL     OW35825   6.044   2.204   4.022 -0.0214 -1.0057  0.7033
11273SOL    HW135826   6.137   2.217   4.040 -0.1151 -0.3709  0.7331
11273SOL    HW235827   6.002   2.285   4.050 -0.2550 -0.1859 -1.8110
11274SOL     OW35828   7.364  10.644   8.047  0.3337  0.5974 -0.4093
11274SOL    HW135829   7.434  10.588   8.013  0.5567  0.9418 -0.5246
11274SOL    HW235830   7.343  10.608   8.133  0.5411  0.3939 -0.4458
11275SOL     OW35831   2.743   9.659  10.369 -0.6742 -0.7942  0.6471
11275SOL    HW135832   2.668   9.687  10.316 -1.3214  0.2396  2.0066
11275SOL    HW235833   2.740   9.564  10.367 -0.2606 -0.8034 -1.6732
11276SOL     OW35834   2.044   0.077   4.660 -0.2680 -0.1081  0.2403
11276SOL    HW135835   2.011   0.100   4.573  0.3647  2.1638  0.5311
11276SOL    HW235836   2.006  -0.009   4.679 -1.7970  0.1207 -1.5480
11277SOL     OW35837   7.984   0.264   2.663  0.3328 -0.3478  0.0535
11277SOL    HW135838   8.015   0.208   2.592  1.3240 -1.7383  1.5041
11277SOL    HW235839   8.045   0.338   2.664 -1.6174  1.4887 -2.5738
11278SOL     OW35840   6.348  10.920   3.674  0.1372 -0.5878  0.7828
11278SOL    HW135841   6.317  10.994   3.621  2.0371  0.3880  0.9406
11278SOL    HW235842   6.292  10.921   3.751 -1.1074 -0.5285 -0.0785
11279SOL     OW35843   5.491  10.628   3.340 -0.1827 -0.3931  1.0068
11279SOL    HW135844   5.500  10.717   3.304 -3.7064 -0.4211 -0.3783
11279SOL    HW235845   5.465  10.642   3.431 -2.1600  0.1259  0.4055
11280SOL     OW35846   2.986   0.480   8.339 -0.1039  0.4478 -0.2477
11280SOL    HW135847   3.000   0.520   8.425 -0.5536  1.6011 -0.6955
11280SOL    HW235848   2.917   0.415   8.354  0.6844 -0.2367  0.5034
11281SOL     OW35849   8.290  11.161   5.364 -0.0995  0.0262 -0.1363
11281SOL    HW135850   8.372  11.209   5.361 -1.5253  2.6559 -3.3925
11281SOL    HW235851   8.310  11.076   5.324  1.1270  0.3620 -0.2733
11282SOL     OW35852   0.512   8.097   4.186  0.8932 -0.0829  0.0165
11282SOL    HW135853   0.469   8.013   4.171  2.5266 -1.3866  2.1776
11282SOL    HW235854   0.598   8.088   4.146  0.7117  1.0102 -0.6841
11283SOL     OW35855   1.709   1.215  11.078  0.1367  0.4679  0.3276
11283SOL    HW135856   1.713   1.153  11.151  0.3045 -0.5263 -0.5004
11283SOL    HW235857   1.768   1.286  11.104  1.0768 -0.4084  0.6695
11284SOL     OW35858  10.451  10.951   5.408  0.3403 -0.7194  0.0959
11284SOL    HW135859  10.387  10.924   5.474 -2.3230  1.4098 -1.3876
11284SOL    HW235860  10.412  10.924   5.325  1.4536  0.4429 -0.8454
11285SOL     OW35861   8.802   0.636   9.947  0.0835 -0.0280 -0.2792
11285SOL    HW135862   8.744   0.630   9.872 -0.1128  2.0660 -0.3538
11285SOL    HW235863   8.788   0.725   9.982  3.6902  0.8941 -0.7018
11286SOL     OW35864  10.213   6.771   6.372 -0.0682  1.0099 -0.1667
11286SOL    HW135865  10.128   6.808   6.348 -0.5830  0.6797  1.0392
11286SOL    HW235866  10.207   6.756   6.467  1.6753  1.8632  0.1284
11287SOL     OW35867   4.305   1.003   0.892 -0.1140 -0.5952  0.7172
11287SOL    HW135868   4.256   1.037   0.817 -0.9255 -0.3588  1.3313
11287SOL    HW235869   4.300   1.073   0.958  1.2817 -0.4602  0.7151
11288SOL     OW35870   9.368   0.220   4.938 -1.1001 -0.2163  0.4095
11288SOL    HW135871   9.319   0.229   4.856  0.2294  0.7461 -0.3203
11288SOL    HW235872   9.460   0.222   4.911 -0.6127  0.9546  1.9980
11289SOL     OW35873   4.687  10.868   8.562  0.5760 -0.1893 -0.4330
11289SOL    HW135874   4.726  10.853   8.648  1.5059 -3.4276 -1.2438
11289SOL    HW235875   4.742  10.936   8.523  1.3704 -0.0741  0.8159
11290SOL     OW35876   9.809   6.208   2.162  0.2733 -0.0997  0.0618
11290SOL    HW135877   9.810   6.166   2.076 -0.3323 -0.7302  0.3535
11290SOL    HW235878   9.745   6.158   2.212  1.7520 -0.7434  1.3847
11291SOL     OW35879   9.738   8.712   2.487  0.4386 -0.5154 -0.1197
11291SOL    HW135880   9.739   8.714   2.392 -2.3512 -1.9250 -0.2691
11291SOL    HW235881   9.749   8.803   2.514  0.2290  0.0353 -1.8211
11292SOL     OW35882   7.382   3.684   3.665 -0.0672 -0.2355  0.0378
11292SOL    HW135883   7.335   3.629   3.603  2.6216 -1.7150 -0.8615
11292SOL    HW235884   7.443   3.735   3.612  1.6383 -0.8207  1.3338
11293SOL     OW35885   9.470   5.734   1.235  0.2956 -0.0606 -0.2198
11293SOL    HW135886   9.486   5.817   1.190  0.6897  0.0978  0.1957
11293SOL    HW235887   9.414   5.684   1.176  1.4765 -0.1942 -1.2693
11294SOL     OW35888   2.753   7.481   0.323 -0.5358 -0.1824 -0.5500
11294SOL    HW135889   2.832   7.451   0.278 -0.0246  1.4359 -0.7982
11294SOL    HW235890   2.684   7.423   0.291  0.5539 -1.7901 -0.1513
11295SOL     OW35891   9.439   5.094   3.450  0.2368 -0.2933  0.1691
11295SOL    HW135892   9.426   5.035   3.524 -0.7437  0.2931  0.4875
11295SOL    HW235893   9.534   5.110   3.448  0.4012 -1.1672  0.6193
11296SOL     OW35894   7.622   3.961   3.195  0.4915  0.6791 -0.1027
11296SOL    HW135895   7.546   3.988   3.143  0.1828 -1.8494 -1.0864
11296SOL    HW235896   7.592   3.885   3.244  1.7517  1.0444  1.3432
11297SOL     OW35897   1.808  11.180   3.956 -0.1474 -0.0581 -0.2618
11297SOL    HW135898   1.803  11.147   4.045 -1.2610 -0.2926 -0.3833
11297SOL    HW235899   1.877  11.246   3.957  1.1185 -1.3396  0.3345
11298SOL     OW35900   1.973  10.924   1.814  0.0066 -0.3607 -0.4491
11298SOL    HW135901   1.914  10.871   1.760 -0.2592 -0.0036 -0.5169
11298SOL    HW235902   1.971  10.882   1.900 -1.2242  0.2716 -0.1343
11299SOL     OW35903  11.180   5.421   3.945  0.1688 -0.7109 -1.1668
11299SOL    HW135904  11.132   5.340   3.962 -0.5682 -0.1538 -0.5085
11299SOL    HW235905  11.148   5.482   4.011  0.8340  0.0743 -1.5504
11300SOL     OW35906   6.224   1.493   5.342  0.7866  0.3465  0.3624
11300SOL    HW135907   6.222   1.588   5.355  0.4668  0.3643  0.1751
11300SOL    HW235908   6.316   1.469   5.358  0.9786  0.7621 -0.1157
11301SOL     OW35909   3.990   0.511  11.213  0.6479 -0.0436  0.0236
11301SOL    HW135910   3.960   0.433  11.166 -2.4574  2.4348 -2.5614
11301SOL    HW235911   3.941   0.509  11.296  0.1776 -0.5702 -0.2594
11302SOL     OW35912   4.113   1.657   9.188  0.3900 -0.2644 -0.4758
11302SOL    HW135913   4.079   1.671   9.100 -2.4257 -1.0598  0.3767
11302SOL    HW235914   4.102   1.563   9.204 -1.5851  0.2278  1.5717
11303SOL     OW35915   4.256   6.944  10.451  0.1511  0.6616 -0.6970
11303SOL    HW135916   4.224   6.963  10.364  0.9736 -0.4820 -1.2851
11303SOL    HW235917   4.351   6.937  10.441  0.1887 -0.3077  0.0991
11304SOL     OW35918   3.872   8.164   8.816  0.0008  0.0434  0.0309
11304SOL    HW135919   3.906   8.075   8.806  1.4431  0.7414 -1.8058
11304SOL    HW235920   3.797   8.167   8.757 -0.6780 -0.2115  0.8513
11305SOL     OW35921   5.785   1.229   9.927 -0.3986  0.4079  0.5533
11305SOL    HW135922   5.742   1.231   9.842 -1.9531  1.3056  1.3122
11305SOL    HW235923   5.741   1.297   9.978  1.4666  0.8909  1.6273
11306SOL     OW35924   1.168  10.925  10.044  0.3740  0.4226  0.3545
11306SOL    HW135925   1.180  10.945  10.137  1.6755 -0.6980  0.4628
11306SOL    HW235926   1.103  10.855  10.042  2.7521 -1.9907  0.7753
11307SOL     OW35927   4.405   6.700  10.774  0.3200 -0.1637 -0.5447
11307SOL    HW135928   4.443   6.636  10.836  0.4516 -0.6006 -1.0690
11307SOL    HW235929   4.413   6.658  10.689 -0.9877 -0.0862 -0.7249
11308SOL     OW35930   6.646   5.067  10.112  0.2401 -0.2324  0.6203
11308SOL    HW135931   6.702   5.144  10.104 -0.3836  0.2271  0.6166
11308SOL    HW235932   6.593   5.068  10.032 -1.3507  0.6271  1.6365
11309SOL     OW35933   7.542  11.236   2.303  0.5329 -0.1775 -0.1231
11309SOL    HW135934   7.573  11.230   2.212  1.8456  0.2098  0.2814
11309SOL    HW235935   7.516  11.146   2.325 -2.1945  0.1350 -1.6530
11310SOL     OW35936   6.278   7.515   9.348 -0.5127  0.2052  0.2730
11310SOL    HW135937   6.361   7.500   9.394  0.1885  1.9382 -0.3688
11310SOL    HW235938   6.284   7.604   9.314 -1.9259 -0.2325 -1.2941
11311SOL     OW35939  11.231   7.939   5.725 -0.2200  0.6179 -0.5803
11311SOL    HW135940  11.185   7.872   5.776  2.3130  0.0216  1.1106
11311SOL    HW235941  11.192   8.022   5.753  0.9731  0.3046  2.3609
11312SOL     OW35942   8.626   8.877   4.176  0.2178 -0.6230  0.3588
11312SOL    HW135943   8.589   8.949   4.227  1.2547  0.9502 -0.9747
11312SOL    HW235944   8.575   8.800   4.201  1.0722 -0.1188  4.1764
11313SOL     OW35945   4.986   6.330   4.347  0.3686 -0.0813 -0.0496
11313SOL    HW135946   5.077   6.332   4.378 -0.0771 -1.8966  1.5161
11313SOL    HW235947   4.954   6.418   4.366  2.0958  0.9901 -1.7261
11314SOL     OW35948   8.636   1.858   4.610  0.1377 -0.0926  0.5946
11314SOL    HW135949   8.623   1.892   4.522 -1.4998  0.8933  1.1732
11314SOL    HW235950   8.688   1.778   4.598  2.3789  1.4757 -0.9801
11315SOL     OW35951   3.842  10.952   2.532 -0.1994 -0.0515  0.2526
11315SOL    HW135952   3.859  10.903   2.612 -2.3266  0.4643  1.0705
11315SOL    HW235953   3.747  10.948   2.520 -0.2525  2.2231 -0.7122
11316SOL     OW35954   7.506   8.385   2.336  0.3644 -0.3188  0.3770
11316SOL    HW135955   7.463   8.367   2.253  0.1120  0.6381  0.2929
11316SOL    HW235956   7.599   8.386   2.315  0.3261 -0.5590  0.1977
11317SOL     OW35957   6.427   3.946   5.115 -0.0603  0.0294  0.2225
11317SOL    HW135958   6.396   3.952   5.205  1.4824 -1.6847  0.9170
11317SOL    HW235959   6.370   3.880   5.074  0.7735 -0.9935  0.6723
11318SOL     OW35960   2.506   0.138   1.877 -0.2753  0.1649  1.1285
11318SOL    HW135961   2.556   0.220   1.871 -0.8612  0.4442 -0.0980
11318SOL    HW235962   2.438   0.157   1.942 -0.5422  0.7272  0.6911
11319SOL     OW35963   5.310   4.337   3.072 -0.6358 -0.0943 -0.2939
11319SOL    HW135964   5.253   4.414   3.080 -0.6807 -0.1645  0.0396
11319SOL    HW235965   5.368   4.342   3.147  0.9059  0.8765 -1.4838
11320SOL     OW35966   6.387   5.804   7.732 -0.1788 -0.2537 -0.0954
11320SOL    HW135967   6.416   5.738   7.795 -0.5793  0.6077  1.0236
11320SOL    HW235968   6.450   5.799   7.660  0.3989 -1.1253  0.4628
11321SOL     OW35969   9.070   1.550  10.432 -0.5323 -0.5571  0.2784
11321SOL    HW135970   9.017   1.478  10.398  0.1226 -0.9316  0.0347
11321SOL    HW235971   9.106   1.517  10.514 -1.1842 -0.0704  0.7665
11322SOL     OW35972   4.123   0.460   2.425 -0.0241  0.2284  0.9515
11322SOL    HW135973   4.111   0.378   2.472 -1.9702 -0.8419 -1.1954
11322SOL    HW235974   4.171   0.436   2.346  3.2774  1.9882  2.2226
11323SOL     OW35975   6.313   2.203   4.096 -0.0679  0.1743  0.6879
11323SOL    HW135976   6.343   2.112   4.096 -0.0964  0.1531  1.6337
11323SOL    HW235977   6.368   2.246   4.161 -0.4446  0.6992  0.6622
11324SOL     OW35978   7.250   3.550   7.415 -0.1381  0.8833 -0.5053
11324SOL    HW135979   7.252   3.483   7.347 -0.4541  1.3202 -0.9543
11324SOL    HW235980   7.321   3.526   7.475 -1.5369 -1.0302  0.4865
11325SOL     OW35981   6.381   6.255   1.130 -0.0834 -0.0925  0.0593
11325SOL    HW135982   6.433   6.243   1.051  0.9661  0.7342  0.6021
11325SOL    HW235983   6.293   6.275   1.098 -0.1427 -1.6849 -0.8700
11326SOL     OW35984   2.369   8.391   0.682 -0.3474 -0.1988  0.0346
11326SOL    HW135985   2.433   8.405   0.751  1.6200 -0.5914 -1.5890
11326SOL    HW235986   2.352   8.478   0.647 -3.2975  0.3770  2.4893
11327SOL     OW35987   8.138   1.487   5.432  0.6928  0.5192  0.0596
11327SOL    HW135988   8.164   1.575   5.405 -2.2977  1.7345  0.6300
11327SOL    HW235989   8.167   1.481   5.523  0.1295  1.3340  0.3108
11328SOL     OW35990   7.738   8.772   3.083  0.0481 -0.2992  0.4748
11328SOL    HW135991   7.693   8.804   3.005 -0.3346  2.6910  1.7907
11328SOL    HW235992   7.690   8.693   3.108 -0.1269 -1.0340 -1.9609
11329SOL     OW35993   2.073   5.249   4.921  0.0855  0.0506 -0.2652
11329SOL    HW135994   2.089   5.326   4.867 -0.4917 -0.0062 -0.5201
11329SOL    HW235995   1.982   5.258   4.949  0.2581 -0.1278  0.3677
11330SOL     OW35996   0.073  10.991   4.475  0.4106  0.2288 -0.5914
11330SOL    HW135997   0.147  11.052   4.477  2.7768 -2.4501  0.9937
11330SOL    HW235998  -0.004  11.045   4.493  2.2819  2.7752  0.2866
11331SOL     OW35999  10.801   8.316   3.496  0.3679  0.1405 -0.1587
11331SOL    HW136000  10.849   8.397   3.482  0.1696  0.6381  1.7984
11331SOL    HW236001  10.869   8.249   3.504  0.5968  0.3624 -0.2207
11332SOL     OW36002   0.727   1.180   4.901  0.1170 -0.2395  0.3209
11332SOL    HW136003   0.706   1.107   4.843 -0.9932  2.0500 -2.3818
11332SOL    HW236004   0.643   1.221   4.919  0.8944  1.4415  0.2652
11333SOL     OW36005   1.912   8.430   8.253 -0.3438  0.1992  0.2741
11333SOL    HW136006   1.999   8.451   8.218  0.1007 -0.9937  0.5970
11333SOL    HW236007   1.916   8.458   8.344  0.1621 -0.9528  0.6344
11334SOL     OW36008   6.362  10.560  11.208 -0.3901  0.7111 -0.1945
11334SOL    HW136009   6.288  10.525  11.256 -1.3304  2.9043  0.0872
11334SOL    HW236010   6.364  10.653  11.231  1.4436  1.0529 -1.4819
11335SOL     OW36011   3.510   2.953   0.259  0.9512 -0.2634  0.4096
11335SOL    HW136012   3.540   2.963   0.350  1.3703 -0.5786  0.3109
11335SOL    HW236013   3.496   2.858   0.249  0.5694 -0.1930  0.2465
11336SOL     OW36014   3.931   2.616   3.104  0.0442 -0.4040 -0.1068
11336SOL    HW136015   3.969   2.616   3.192 -0.7037  1.0799  0.2460
11336SOL    HW236016   3.848   2.569   3.114 -1.5935  2.4210  0.7755
11337SOL     OW36017   8.776   8.321   2.778 -0.2769 -0.2546 -0.7986
11337SOL    HW136018   8.826   8.242   2.760  1.5278  0.0896  2.0952
11337SOL    HW236019   8.795   8.378   2.703 -0.0344 -1.8005 -1.9692
11338SOL     OW36020  10.191   7.562   9.655 -0.3147  0.9184 -0.1147
11338SOL    HW136021  10.106   7.560   9.699 -1.5877  0.4171 -2.4198
11338SOL    HW236022  10.239   7.490   9.694 -1.5874  0.1578  0.1194
11339SOL     OW36023  10.884   9.718  10.064 -0.0630 -0.9279 -0.2987
11339SOL    HW136024  10.904   9.756   9.978 -2.9927  2.5175  0.2943
11339SOL    HW236025  10.947   9.758  10.123 -1.9129  1.8679 -0.0085
11340SOL     OW36026   5.264   2.197  11.214  0.6480  0.5413  0.9462
11340SOL    HW136027   5.300   2.243  11.290  2.7902 -2.1604  1.7470
11340SOL    HW236028   5.338   2.188  11.154 -0.7189  1.5667 -1.0030
11341SOL     OW36029   2.422   8.424   4.144  0.2085  0.4370 -0.1528
11341SOL    HW136030   2.425   8.519   4.149  1.0820  0.4067  0.0929
11341SOL    HW236031   2.334   8.404   4.113 -0.6761  1.2395  1.6936
11342SOL     OW36032   8.155   0.728   8.350  0.2211  0.0296  0.4357
11342SOL    HW136033   8.086   0.664   8.365  2.5061 -3.2221 -1.4808
11342SOL    HW236034   8.135   0.764   8.263 -0.9418  1.9333  1.4209
11343SOL     OW36035   8.699   0.245   4.638  0.1725  0.3777  0.3156
11343SOL    HW136036   8.667   0.325   4.679 -1.7243  0.6682 -1.5467
11343SOL    HW236037   8.628   0.181   4.650  0.8170 -0.4073  0.0736
11344SOL     OW36038  10.011   3.767   1.754 -0.3593 -0.1494 -0.3346
11344SOL    HW136039  10.079   3.833   1.739 -1.6434  0.8325 -2.2555
11344SOL    HW236040   9.993   3.731   1.667 -3.6201  1.0687 -0.3020
11345SOL     OW36041  10.265   7.241  10.035  0.2301  0.6689 -0.9152
11345SOL    HW136042  10.290   7.149  10.021  1.4319  0.8087  0.1467
11345SOL    HW236043  10.173   7.236  10.064 -0.1249 -0.0835 -2.1120
11346SOL     OW36044   2.645   2.130   6.878  0.3057 -0.3465  0.3532
11346SOL    HW136045   2.573   2.192   6.870  0.5549  0.2727  2.3483
11346SOL    HW236046   2.667   2.106   6.788 -2.1930 -0.3518 -0.3102
11347SOL     OW36047   7.211   3.139   4.018  0.3889  0.8062  0.3206
11347SOL    HW136048   7.262   3.060   4.000  0.0871  0.5675  0.4913
11347SOL    HW236049   7.153   3.147   3.943 -3.7116 -2.4403  2.6658
11348SOL     OW36050   6.808   0.210   8.865  0.1074 -0.1934  0.3708
11348SOL    HW136051   6.814   0.191   8.771 -4.3445 -2.1558  0.2803
11348SOL    HW236052   6.826   0.127   8.908 -1.5069 -0.2474  1.0013
11349SOL     OW36053   4.637   8.379   5.347  0.0723  0.0992 -0.2263
11349SOL    HW136054   4.640   8.284   5.359  0.0348 -0.1986 -2.2854
11349SOL    HW236055   4.623   8.413   5.435  1.3861 -1.7232  0.7683
11350SOL     OW36056   0.823   5.452   1.099 -0.8318  0.6781 -0.4644
11350SOL    HW136057   0.843   5.502   1.019  0.9109 -0.2081 -0.6295
11350SOL    HW236058   0.816   5.361   1.070  2.5580 -0.1049  0.6387
11351SOL     OW36059   4.078   6.994   7.244  0.5688 -0.9221 -0.0603
11351SOL    HW136060   3.997   7.015   7.291 -0.3999  1.0642 -2.3853
11351SOL    HW236061   4.056   6.919   7.190 -0.5280  0.8907 -2.2960
11352SOL     OW36062   0.336   2.711   7.713 -0.1943  0.3315  0.5881
11352SOL    HW136063   0.272   2.714   7.785 -1.8452  2.2055 -0.8265
11352SOL    HW236064   0.326   2.624   7.676 -1.4236  0.3238  0.8771
11353SOL     OW36065   7.971   9.505   7.022 -0.7198 -0.0410  0.5118
11353SOL    HW136066   8.006   9.593   7.038  1.3246  0.0427 -3.1918
11353SOL    HW236067   7.876   9.518   7.020 -0.4564  2.5305 -1.4354
11354SOL     OW36068   0.373   6.759   2.328  0.0216 -1.0694 -0.5134
11354SOL    HW136069   0.406   6.675   2.361  0.8189 -0.0098  1.5928
11354SOL    HW236070   0.418   6.771   2.245 -0.0812 -2.7000 -0.8292
11355SOL     OW36071   2.588   6.524   5.821 -1.0475 -0.0380  0.6387
11355SOL    HW136072   2.533   6.540   5.745 -0.4012 -1.9904 -0.2939
11355SOL    HW236073   2.533   6.473   5.880 -1.2120  0.6125  1.0602
11356SOL     OW36074   6.911   5.263   8.943  0.2116  0.2591 -0.0106
11356SOL    HW136075   6.837   5.203   8.932  0.4535  0.2824 -2.2012
11356SOL    HW236076   6.888   5.339   8.889  1.3821  0.7162  0.1020
11357SOL     OW36077   6.723   2.716   5.270 -0.7137  0.4202 -0.1278
11357SOL    HW136078   6.637   2.758   5.263 -2.0966 -1.8410  1.8157
11357SOL    HW236079   6.751   2.737   5.359 -0.4728 -0.9517  0.1346
11358SOL     OW36080   3.847   5.906  10.361 -0.3183  0.0741  0.1077
11358SOL    HW136081   3.804   5.989  10.342 -0.5277 -0.8311 -4.5578
11358SOL    HW236082   3.776   5.842  10.364  0.1441 -0.6588 -2.3152
11359SOL     OW36083   5.220   7.958   2.482  0.3133  0.2096 -0.0039
11359SOL    HW136084   5.224   8.011   2.561  0.3253  0.8662 -0.4433
11359SOL    HW236085   5.130   7.926   2.479  0.7902 -1.4315  1.3091
11360SOL     OW36086   8.160   9.116   6.000  0.1940 -0.3440  0.0699
11360SOL    HW136087   8.081   9.069   5.973  0.4295 -1.9961  1.9815
11360SOL    HW236088   8.129   9.201   6.029 -0.8792 -0.9082  0.6235
11361SOL     OW36089   4.030   5.308   3.124 -0.0404 -0.3742  0.3264
11361SOL    HW136090   4.003   5.302   3.033  1.2815 -0.7297 -0.0581
11361SOL    HW236091   4.111   5.258   3.129  0.9354  1.2046  1.2719
11362SOL     OW36092  10.372   6.379  10.308 -0.0219  0.2165  0.2226
11362SOL    HW136093  10.325   6.462  10.301 -0.4664 -0.0864 -0.6907
11362SOL    HW236094  10.403   6.375  10.398  1.3729  2.0895 -0.1117
11363SOL     OW36095   5.050   4.979  11.060 -0.2494 -0.3293  0.1687
11363SOL    HW136096   5.132   4.985  11.109 -0.7909 -0.9190  1.1846
11363SOL    HW236097   4.988   4.941  11.122 -0.9940 -0.9787 -0.9363
11364SOL     OW36098   3.384   9.862   6.330 -0.0370 -0.7543 -0.2586
11364SOL    HW136099   3.404   9.840   6.421 -1.1536  4.0784  1.4375
11364SOL    HW236100   3.294   9.832   6.318 -0.1249 -0.8060  0.4890
11365SOL     OW36101   3.928   5.439   0.075  0.2573 -0.6857 -0.6314
11365SOL    HW136102   3.958   5.425   0.165  2.5903  3.4924 -0.5520
11365SOL    HW236103   3.834   5.420   0.079 -0.2809  1.5907  3.3797
11366SOL     OW36104   4.084   3.460   9.855 -0.2866  0.5982  0.2745
11366SOL    HW136105   4.176   3.487   9.860 -0.4685  2.4138 -2.9931
11366SOL    HW236106   4.041   3.508   9.925  0.8089  2.2502 -0.1190
11367SOL     OW36107   0.241   5.788   6.463 -0.0754 -0.5981 -0.0326
11367SOL    HW136108   0.243   5.872   6.509  0.9560 -0.8584  0.4215
11367SOL    HW236109   0.204   5.809   6.377 -2.7931 -0.2370  1.1243
11368SOL     OW36110   9.073   3.813   3.803  0.1921 -0.1374 -0.4847
11368SOL    HW136111   9.023   3.749   3.754  1.5673 -1.4998 -0.1976
11368SOL    HW236112   9.161   3.776   3.809  0.3680  0.4694  2.0564
11369SOL     OW36113  11.135   2.666  10.212 -0.5589  0.3061 -0.1347
11369SOL    HW136114  11.203   2.732  10.196  0.1289 -0.0974  0.9870
11369SOL    HW236115  11.082   2.704  10.283 -0.3245 -0.2146  0.3250
11370SOL     OW36116   9.419   0.566   5.909 -0.3417 -0.1068 -0.5841
11370SOL    HW136117   9.327   0.540   5.919 -0.3885  0.1402 -0.3660
11370SOL    HW236118   9.415   0.659   5.887 -0.1100  0.1805  0.5138
11371SOL     OW36119   8.684   0.333   8.854 -0.1888 -0.3962 -0.1621
11371SOL    HW136120   8.691   0.238   8.853 -0.0667 -0.3941  0.4823
11371SOL    HW236121   8.751   0.362   8.791 -2.5412 -0.8428 -3.0933
11372SOL     OW36122   2.723   3.065  10.591  0.6776  0.7389 -0.3139
11372SOL    HW136123   2.646   3.108  10.555 -1.4109 -2.7536 -0.4955
11372SOL    HW236124   2.700   3.045  10.681  0.2118 -2.4543 -1.0090
11373SOL     OW36125   3.288   9.951   1.506 -0.7758 -0.2964 -0.3076
11373SOL    HW136126   3.250  10.024   1.555  0.5917 -0.4624  1.1055
11373SOL    HW236127   3.292   9.981   1.416 -1.5922  0.7939  0.0027
11374SOL     OW36128   5.826   4.003   2.525 -0.4905 -0.3507  0.3219
11374SOL    HW136129   5.803   3.911   2.538  2.6585 -1.6565 -2.0355
11374SOL    HW236130   5.782   4.028   2.443  0.0822 -0.3493  0.0101
11375SOL     OW36131   9.601   5.591  10.692  0.0420 -0.3204  0.6138
11375SOL    HW136132   9.627   5.524  10.629  0.8240 -1.9480  2.5512
11375SOL    HW236133   9.520   5.558  10.731 -0.7064  0.9065  0.1498
11376SOL     OW36134   7.778   9.554  10.196 -0.0631 -0.4384 -0.8352
11376SOL    HW136135   7.747   9.516  10.279  0.0077 -0.5351 -0.8523
11376SOL    HW236136   7.742   9.642  10.195  0.7203 -0.1065 -0.2602
11377SOL     OW36137   3.101   4.232   6.482 -0.2063  0.7475 -0.1714
11377SOL    HW136138   3.086   4.144   6.518  0.0549 -0.8812 -3.6597
11377SOL    HW236139   3.188   4.256   6.512 -0.2080 -0.2529  0.6909
11378SOL     OW36140   9.181   5.631   6.713 -0.0569 -0.4719  0.5092
11378SOL    HW136141   9.157   5.716   6.677 -0.9015 -0.3660  1.2926
11378SOL    HW236142   9.192   5.646   6.807 -1.6457 -1.4935  0.9025
11379SOL     OW36143   2.697   2.925   3.902 -0.3221  0.1086  0.6318
11379SOL    HW136144   2.670   2.858   3.964 -2.3736  1.6917  1.5573
11379SOL    HW236145   2.776   2.890   3.861 -0.2437 -1.9973  2.4455
11380SOL     OW36146   2.135   8.779   1.714  0.6624  0.3557 -0.4110
11380SOL    HW136147   2.063   8.798   1.774  0.5882  1.5689 -0.8441
11380SOL    HW236148   2.100   8.713   1.654 -0.1310  0.9898 -0.6682
11381SOL     OW36149   2.104   6.371   7.194  0.2837  0.0368  0.4621
11381SOL    HW136150   2.144   6.457   7.183  0.8991 -0.3844 -0.7766
11381SOL    HW236151   2.121   6.348   7.285  0.1074  1.2161  0.8084
11382SOL     OW36152   1.611   2.526   0.180  0.8425  0.2903  0.3638
11382SOL    HW136153   1.669   2.591   0.219  0.5279  0.6396  0.2526
11382SOL    HW236154   1.524   2.551   0.209  0.0956  2.6203 -3.2013
11383SOL     OW36155   3.399  11.123   8.723  0.2696 -0.5890 -0.2803
11383SOL    HW136156   3.456  11.095   8.794  2.3622  1.6588 -0.9299
11383SOL    HW236157   3.416  11.060   8.653 -0.9089 -2.1071  0.7370
11384SOL     OW36158   3.895   1.823   9.003  0.4792  0.1588  0.3209
11384SOL    HW136159   3.847   1.788   8.927  0.4053 -0.6005  0.7003
11384SOL    HW236160   3.884   1.755   9.070  3.3859 -0.7990 -0.0393
11385SOL     OW36161  10.518   6.061  11.281 -0.6246  0.2663 -0.1202
11385SOL    HW136162  10.441   6.112  11.306 -0.9433 -2.0981  4.9155
11385SOL    HW236163  10.590   6.101  11.329 -0.0296 -1.2446  0.3209
11386SOL     OW36164   0.650   9.208   0.846 -0.6316  0.0206  0.2911
11386SOL    HW136165   0.566   9.253   0.833  0.3668  1.6165 -1.2470
11386SOL    HW236166   0.670   9.171   0.760  0.6054  0.3881  0.4061
11387SOL     OW36167  10.150  10.566   0.184  0.3193  0.0467 -0.4540
11387SOL    HW136168  10.097  10.492   0.214  0.1385 -0.3338 -1.6484
11387SOL    HW236169  10.193  10.599   0.263 -1.9662  0.6200  0.6343
11388SOL     OW36170   9.387   9.137   5.182  0.4857 -0.0129 -0.2710
11388SOL    HW136171   9.355   9.196   5.115  0.5217  0.0711 -0.2139
11388SOL    HW236172   9.325   9.146   5.254  0.3706 -0.2020 -0.3431
11389SOL     OW36173   3.777   8.044   2.971  0.5252  0.4187  0.6641
11389SOL    HW136174   3.683   8.055   2.978 -0.0117 -0.6068 -2.8730
11389SOL    HW236175   3.791   7.949   2.975  1.3451  0.5269  0.6124
11390SOL     OW36176   8.723   1.620   3.156 -0.0717  0.4178  0.1074
11390SOL    HW136177   8.748   1.665   3.237  2.5234 -2.4648  1.0801
11390SOL    HW236178   8.782   1.545   3.151 -2.4359 -1.4591 -2.7073
11391SOL     OW36179   1.665   4.969   2.659 -0.1980  0.2884  0.6861
11391SOL    HW136180   1.760   4.976   2.659  0.2298 -2.8017 -2.8060
11391SOL    HW236181   1.646   4.894   2.715 -0.4926  0.3501  0.6704
11392SOL     OW36182   6.833   7.736   2.972 -0.5374  0.1714  0.3822
11392SOL    HW136183   6.804   7.650   2.943 -1.4381  0.3407  0.7363
11392SOL    HW236184   6.752   7.789   2.976 -0.3880  0.3422  2.4824
11393SOL     OW36185   0.176   3.046   7.768  0.5700  0.4051 -0.8111
11393SOL    HW136186   0.150   2.955   7.759 -1.3982  0.7080  1.1155
11393SOL    HW236187   0.229   3.049   7.847  0.0355  1.0344 -0.4680
11394SOL     OW36188   2.340  10.340   2.539 -0.0259 -0.5885 -0.3345
11394SOL    HW136189   2.298  10.254   2.542 -0.9469 -0.1395 -0.1386
11394SOL    HW236190   2.290  10.394   2.600 -0.1016  0.3659 -1.2023
11395SOL     OW36191   7.714   6.991  10.608  0.4476  0.0735  0.4056
11395SOL    HW136192   7.623   6.999  10.638 -0.4742  1.7549 -2.5082
11395SOL    HW236193   7.747   7.081  10.607  1.6552 -0.3539  0.0026
11396SOL     OW36194   2.365   8.490   7.847  0.6537 -0.5238 -0.7950
11396SOL    HW136195   2.434   8.467   7.911  0.4868 -0.2610 -0.5193
11396SOL    HW236196   2.381   8.430   7.774  1.5519 -0.0596 -1.0002
11397SOL     OW36197   0.194  11.102   6.800 -0.0715 -0.1743  0.1722
11397SOL    HW136198   0.232  11.185   6.772 -0.9165  0.9623  2.1507
11397SOL    HW236199   0.120  11.087   6.741 -0.1679  0.7208  0.0594
11398SOL     OW36200   8.033   5.876   5.605  0.0422  0.3025 -0.0612
11398SOL    HW136201   8.048   5.856   5.513  0.8149 -0.3421  0.2031
11398SOL    HW236202   8.115   5.915   5.635 -0.7220  2.0178 -0.0274
11399SOL     OW36203   1.895   7.810   4.619  0.1204  0.0690  0.3183
11399SOL    HW136204   1.841   7.793   4.696  0.8847  0.4474  0.9586
11399SOL    HW236205   1.865   7.895   4.586 -0.3902 -0.2195  0.0324
11400SOL     OW36206   8.248   5.276   6.221  0.4691  0.5462 -0.2512
11400SOL    HW136207   8.208   5.275   6.134 -1.1300  1.3021  0.4461
11400SOL    HW236208   8.191   5.222   6.275  0.4873  1.4520  0.7095
11401SOL     OW36209   2.081   1.694   6.532 -0.1177 -0.1187  0.0581
11401SOL    HW136210   2.133   1.769   6.504  1.0451 -0.4431  1.2522
11401SOL    HW236211   2.069   1.642   6.452  0.1372  0.7027 -0.5259
11402SOL     OW36212   3.941   2.714  10.720  0.2710 -0.1800 -0.6525
11402SOL    HW136213   3.881   2.677  10.784 -0.4251 -0.7077 -1.5961
11402SOL    HW236214   3.886   2.741  10.647  1.2617 -1.7244 -2.0366
11403SOL     OW36215   0.848   6.482   6.012  0.1056 -0.0582  0.0800
11403SOL    HW136216   0.938   6.449   6.018  0.7054  1.2598 -1.2400
11403SOL    HW236217   0.798   6.410   5.974  0.3377 -1.2099  1.8522
11404SOL     OW36218   0.516  10.861   6.715 -0.5722 -0.0103  0.6558
11404SOL    HW136219   0.444  10.894   6.769 -0.6129 -0.7862  1.0904
11404SOL    HW236220   0.557  10.939   6.679 -1.2480  0.4669  0.9077
11405SOL     OW36221   1.804  11.007   7.267 -0.5848 -0.7859 -0.0232
11405SOL    HW136222   1.772  10.953   7.195 -2.7103 -0.2104  0.3988
11405SOL    HW236223   1.734  11.071   7.281  1.3509  1.3724  0.2261
11406SOL     OW36224   2.234   3.213   6.438  0.8042 -0.1236 -0.8316
11406SOL    HW136225   2.228   3.306   6.461 -3.1741  0.1765 -2.4287
11406SOL    HW236226   2.326   3.201   6.413  1.4024  3.4329 -0.8731
11407SOL     OW36227   9.917   5.021   7.914 -0.2666  0.4037  0.3344
11407SOL    HW136228   9.903   5.110   7.946 -1.0461 -0.2755  1.9633
11407SOL    HW236229   9.856   5.013   7.840 -1.7385  0.5669  1.4824
11408SOL     OW36230   2.249   1.149   2.941 -0.4478  0.1860 -0.0290
11408SOL    HW136231   2.276   1.240   2.922  0.9199  0.0009  0.8629
11408SOL    HW236232   2.310   1.120   3.009  0.0852 -1.8837 -1.2891
11409SOL     OW36233  10.006   2.059   2.500  0.7151  0.4038  0.2295
11409SOL    HW136234   9.957   2.097   2.427  1.5903 -0.3982 -0.8160
11409SOL    HW236235   9.946   1.994   2.537  0.3829  0.5779  0.0040
11410SOL     OW36236   6.798   6.518   2.484 -0.0308  0.4426 -0.3703
11410SOL    HW136237   6.827   6.606   2.508  0.2954  0.2758 -0.1484
11410SOL    HW236238   6.746   6.489   2.559  2.0787 -0.5983  0.7854
11411SOL     OW36239   0.831   8.104   8.893  0.0621 -0.0848  0.1892
11411SOL    HW136240   0.878   8.053   8.959  1.0522 -2.5556 -2.2183
11411SOL    HW236241   0.755   8.051   8.872  0.5456 -0.1371 -1.6387
11412SOL     OW36242  10.943  11.149   6.694  0.1618  0.2333  0.0890
11412SOL    HW136243  10.988  11.099   6.762  0.0812 -0.7471 -0.5521
11412SOL    HW236244  10.963  11.102   6.613  1.2036  2.0077 -0.7508
11413SOL     OW36245   7.254   4.269   6.487  0.6417 -0.4313 -0.0901
11413SOL    HW136246   7.268   4.349   6.537 -1.1923  0.4775 -0.9634
11413SOL    HW236247   7.203   4.213   6.546  2.5527 -1.3437  0.8107
11414SOL     OW36248   8.739   0.304   8.056 -0.2671 -0.2057 -0.1984
11414SOL    HW136249   8.766   0.218   8.025 -0.0343  0.2191 -1.1813
11414SOL    HW236250   8.643   0.302   8.050 -0.3472 -0.7963  0.8893
11415SOL     OW36251   9.273   4.781   2.766  0.3625  0.2373  0.1220
11415SOL    HW136252   9.197   4.807   2.818 -1.3936 -2.0646 -1.0434
11415SOL    HW236253   9.332   4.740   2.828 -0.6870 -0.4871  0.6708
11416SOL     OW36254   1.781   0.364  10.901  0.6005  0.0152  0.3534
11416SOL    HW136255   1.761   0.411  10.820  1.3710 -1.4590 -0.7598
11416SOL    HW236256   1.758   0.273  10.881  0.9007 -0.3906  1.7729
11417SOL     OW36257   5.568   8.911   5.974 -0.3547 -0.3397  0.3790
11417SOL    HW136258   5.608   8.825   5.988  0.1792 -0.1834 -0.1493
11417SOL    HW236259   5.641   8.968   5.951 -0.7666  0.1486  0.2694
11418SOL     OW36260   9.720   8.076   9.008  0.4293  0.1120  0.0842
11418SOL    HW136261   9.629   8.073   8.979  0.7672 -0.3557 -0.9816
11418SOL    HW236262   9.715   8.081   9.103 -0.7111  0.3514  0.0213
11419SOL     OW36263   4.947   4.488   6.365 -0.4778  0.0322  0.0464
11419SOL    HW136264   4.872   4.501   6.307 -1.4856  1.7332  1.6260
11419SOL    HW236265   4.985   4.576   6.375  0.0669 -0.3325  1.4132
11420SOL     OW36266   8.060   4.075   9.869 -0.2939  0.3719 -0.0956
11420SOL    HW136267   8.098   4.064   9.956 -0.4615  1.6035  0.1468
11420SOL    HW236268   8.001   4.000   9.860 -0.6959  0.5174  1.0837
11421SOL     OW36269   6.453   9.761   6.963 -0.0653  0.1947 -0.0395
11421SOL    HW136270   6.502   9.794   7.038  0.6006  0.2130 -0.4774
11421SOL    HW236271   6.457   9.666   6.972 -0.6086  0.2034  0.3405
11422SOL     OW36272   6.939   9.599  10.257 -0.0319  0.4229 -0.1713
11422SOL    HW136273   6.991   9.551  10.192 -1.5064 -2.2749  0.4722
11422SOL    HW236274   6.991   9.676  10.278  2.3079 -0.6479 -1.6448
11423SOL     OW36275   3.942   8.867   2.604 -0.4243 -0.1441 -0.2469
11423SOL    HW136276   3.904   8.864   2.517  0.7881  1.4650 -0.8716
11423SOL    HW236277   3.878   8.821   2.660 -0.3052 -3.0514 -2.2543
11424SOL     OW36278   2.562   8.789   5.231  0.1606  0.1342 -0.6493
11424SOL    HW136279   2.528   8.830   5.311 -0.8321  1.4370 -1.6881
11424SOL    HW236280   2.501   8.717   5.213 -0.8723  1.1330 -1.3280
11425SOL     OW36281   5.107   6.623   4.662 -0.4886  0.0458  0.2891
11425SOL    HW136282   5.012   6.629   4.670 -1.0060 -1.0854 -3.2427
11425SOL    HW236283   5.132   6.695   4.605  0.7543  0.0838  0.8306
11426SOL     OW36284   4.153   6.817   1.532 -0.3887 -0.0519 -0.4974
11426SOL    HW136285   4.227   6.867   1.568 -0.0203 -0.7483 -0.2548
11426SOL    HW236286   4.144   6.848   1.442 -2.3198  2.8612  0.5475
11427SOL     OW36287   8.022   1.419   2.449  0.6118  0.6867 -0.8071
11427SOL    HW136288   8.037   1.385   2.538  1.4826  0.7154 -0.9340
11427SOL    HW236289   8.042   1.345   2.392 -0.8194  0.3860 -0.9659
11428SOL     OW36290  10.957   9.457   3.163 -0.4567  0.0224 -0.6490
11428SOL    HW136291  10.899   9.418   3.097 -1.8235 -1.2456  1.1789
11428SOL    HW236292  10.976   9.386   3.223  0.1068  1.3076  0.7577
11429SOL     OW36293  10.074   8.265   3.266  0.7324  0.0822  0.5263
11429SOL    HW136294  10.131   8.190   3.248  0.5814 -0.0275  0.5057
11429SOL    HW236295   9.986   8.228   3.268  0.5808  0.3910 -0.2773
11430SOL     OW36296   5.113  10.679   9.281 -0.4469  0.1546 -0.3819
11430SOL    HW136297   5.033  10.729   9.301 -0.5583  0.1773 -0.8723
11430SOL    HW236298   5.184  10.742   9.294 -0.5007  0.1229  0.0960
11431SOL     OW36299   8.406   5.102  10.664  0.4548 -0.1890  0.0370
11431SOL    HW136300   8.370   5.077  10.749 -0.9064  1.9770  0.1568
11431SOL    HW236301   8.356   5.049  10.601 -1.3208  0.9807  0.3766
11432SOL     OW36302   9.301  10.778   9.637  0.1460 -0.0271 -0.3947
11432SOL    HW136303   9.340  10.839   9.699 -1.5101  3.4078 -2.4230
11432SOL    HW236304   9.300  10.825   9.554 -0.7955 -3.0822 -2.2838
11433SOL     OW36305  10.398  10.507  10.756 -0.8265 -0.4452  0.4893
11433SOL    HW136306  10.359  10.502  10.843  2.2709  1.2545  2.1662
11433SOL    HW236307  10.343  10.568  10.708 -1.8219 -0.3297  1.7406
11434SOL     OW36308   0.547   0.613   6.587  0.0108 -0.3044 -0.3007
11434SOL    HW136309   0.460   0.643   6.560 -1.1082 -1.0963  2.0840
11434SOL    HW236310   0.581   0.566   6.511 -0.4684  2.2278 -2.2193
11435SOL     OW36311   0.378   8.844   9.366 -0.5842  0.7233  0.2970
11435SOL    HW136312   0.400   8.813   9.279  2.0347  2.0804  0.3793
11435SOL    HW236313   0.302   8.901   9.353 -1.1212 -0.2243 -0.8481
11436SOL     OW36314  10.263   0.021   8.371  0.7543 -0.1165 -0.0386
11436SOL    HW136315  10.265  -0.049   8.436  0.6342 -1.4459 -1.4010
11436SOL    HW236316  10.249   0.101   8.422  2.0022 -0.9267  1.6756
11437SOL     OW36317   6.352   7.219   9.938 -0.0684 -0.6023  0.5286
11437SOL    HW136318   6.424   7.280   9.920 -1.2062  0.2587 -1.3745
11437SOL    HW236319   6.391   7.132   9.928  0.3408 -0.1761 -2.5969
11438SOL     OW36320  10.083   5.863   1.775  0.2108  0.5450  0.1483
11438SOL    HW136321  10.134   5.893   1.700  0.1387  0.9949  0.2735
11438SOL    HW236322  10.146   5.815   1.829  0.2244  0.0688 -0.2800
11439SOL     OW36323   5.409  10.928   1.781 -0.0582 -0.2003 -0.3220
11439SOL    HW136324   5.452  10.873   1.847 -1.5644 -0.8444  0.1825
11439SOL    HW236325   5.388  10.869   1.709  0.7982  0.3213 -1.0195
11440SOL     OW36326   8.304   6.645   3.977  0.0004  0.0799 -0.1032
11440SOL    HW136327   8.295   6.690   3.893 -2.0291 -0.0050  0.0006
11440SOL    HW236328   8.281   6.711   4.043 -2.3888 -0.8398  0.0875
11441SOL     OW36329   1.672   1.524   6.190  0.0575 -0.3212  0.4247
11441SOL    HW136330   1.648   1.448   6.137 -1.6073  1.5344 -1.6807
11441SOL    HW236331   1.748   1.562   6.145 -1.2958  1.2033 -0.6744
11442SOL     OW36332   1.842   6.098   3.220  0.2707 -0.3701 -0.8322
11442SOL    HW136333   1.886   6.071   3.139  1.7283 -2.1061  0.4605
11442SOL    HW236334   1.897   6.063   3.290 -2.7002 -1.8639  0.9362
11443SOL     OW36335   9.815   5.357   5.095  0.5808 -0.2769 -0.1564
11443SOL    HW136336   9.754   5.378   5.024  0.1643  1.5205  0.6807
11443SOL    HW236337   9.900   5.386   5.062  0.5183 -0.1606 -0.2152
11444SOL     OW36338   4.002   7.296  10.410  0.0881  0.1059  0.2491
11444SOL    HW136339   4.024   7.312  10.501 -1.0138 -4.7032  1.6649
11444SOL    HW236340   3.914   7.331  10.399  0.0284  0.2584  1.1855
11445SOL     OW36341   0.759   3.146   1.473 -0.0586  0.7975  0.2389
11445SOL    HW136342   0.746   3.053   1.494 -1.2386  1.0628  0.7591
11445SOL    HW236343   0.807   3.144   1.390  1.2844 -0.2648  1.0039
11446SOL     OW36344   3.857   5.048   7.052 -0.1981  0.4968  0.0937
11446SOL    HW136345   3.874   5.027   7.143  1.1067 -0.9194 -0.4344
11446SOL    HW236346   3.761   5.053   7.046 -0.3020  0.5262  1.4975
11447SOL     OW36347   6.039   8.142   2.324 -0.2322 -0.0749  0.3106
11447SOL    HW136348   6.131   8.152   2.301 -0.5091 -0.2167 -0.9628
11447SOL    HW236349   6.030   8.050   2.349  0.6697  0.7054  4.0635
11448SOL     OW36350  10.606   1.991   8.435  0.2154 -0.7382 -0.0234
11448SOL    HW136351  10.676   2.055   8.449 -1.9001  1.3126  2.1741
11448SOL    HW236352  10.568   1.979   8.522  0.0401 -4.5765 -0.4754
11449SOL     OW36353  10.819   4.042  10.278 -0.0710  0.2408 -0.0290
11449SOL    HW136354  10.824   4.120  10.224  0.3716 -1.5684 -2.8145
11449SOL    HW236355  10.881   3.980  10.237 -0.6087 -1.6714  1.8568
11450SOL     OW36356   3.773   0.105   4.487 -0.3447 -0.6761  0.7966
11450SOL    HW136357   3.702   0.054   4.524 -0.6924 -0.1654  0.8443
11450SOL    HW236358   3.742   0.131   4.400  0.6837 -2.3263 -0.1118
11451SOL     OW36359   1.414   0.575   6.161  0.2030  0.8971 -0.5052
11451SOL    HW136360   1.342   0.589   6.222 -2.8718  2.5160 -4.0599
11451SOL    HW236361   1.429   0.480   6.162  0.1138  0.8259  2.3606
11452SOL     OW36362   3.830   3.083   7.590 -0.1873 -0.3882 -0.1790
11452SOL    HW136363   3.843   2.989   7.578  1.7186 -0.3048  0.8090
11452SOL    HW236364   3.905   3.123   7.546 -0.3331  0.5917  0.4383
11453SOL     OW36365   3.408   9.869   7.613  0.2022  0.2542 -0.3167
11453SOL    HW136366   3.317   9.889   7.592  0.3835  2.8138  0.9358
11453SOL    HW236367   3.455   9.884   7.531 -0.6378 -3.1220 -1.5697
11454SOL     OW36368   9.231   0.621   7.143  0.1057  0.2150  0.2098
11454SOL    HW136369   9.137   0.623   7.161  0.6226  0.0659  3.3293
11454SOL    HW236370   9.269   0.686   7.201  2.0582 -0.4048 -0.2969
11455SOL     OW36371   4.210   1.034   4.003 -0.6048  0.6818 -0.4422
11455SOL    HW136372   4.281   1.057   3.943  1.7708 -3.5827  0.3511
11455SOL    HW236373   4.173   0.953   3.966 -3.6817  1.5758  0.3699
11456SOL     OW36374   1.792  10.288   3.685 -0.5027  0.3436  0.6165
11456SOL    HW136375   1.834  10.373   3.673  0.2587 -0.0598  0.3428
11456SOL    HW236376   1.776  10.256   3.596 -1.4577  0.5188  0.7193
11457SOL     OW36377   3.144   2.739   7.952 -0.2437  0.2869  0.2469
11457SOL    HW136378   3.231   2.699   7.962  0.5444  2.0101  0.6191
11457SOL    HW236379   3.124   2.775   8.038 -0.7128  1.0916 -0.1871
11458SOL     OW36380   7.892   2.306   8.773 -0.2602  0.1790  0.1751
11458SOL    HW136381   7.906   2.236   8.837  1.1771  0.4221  0.1567
11458SOL    HW236382   7.815   2.278   8.723  0.3759 -1.4862  0.0559
11459SOL     OW36383   4.106   5.535   2.324  0.1079 -0.2617 -0.3081
11459SOL    HW136384   4.042   5.503   2.261 -1.7888  0.3385  1.1971
11459SOL    HW236385   4.065   5.520   2.410  1.9694  0.2084  0.7320
11460SOL     OW36386   5.566   3.270   8.589 -0.5589  0.2552  0.5994
11460SOL    HW136387   5.482   3.312   8.608  0.3386  0.6007  4.7962
11460SOL    HW236388   5.545   3.177   8.579 -1.7340  0.7043 -1.5778
11461SOL     OW36389   1.370   4.917  11.138  0.2704  0.0555  0.2575
11461SOL    HW136390   1.292   4.873  11.172  0.4803  0.6430  1.5365
11461SOL    HW236391   1.429   4.845  11.115 -0.9534 -0.4361 -1.6128
11462SOL     OW36392   5.836   5.032   4.682  1.3726 -0.8922 -0.2545
11462SOL    HW136393   5.927   5.006   4.665  2.3987  0.0033  3.0270
11462SOL    HW236394   5.842   5.121   4.715 -1.0992  0.2594 -2.5256
11463SOL     OW36395   0.485   4.508   8.028 -0.4744 -0.2878  0.4291
11463SOL    HW136396   0.414   4.509   8.093 -2.1005  0.5654 -1.2772
11463SOL    HW236397   0.455   4.565   7.958  0.9158 -1.6994 -1.4200
11464SOL     OW36398   3.332   5.486   7.441  0.1213  0.0375  0.4959
11464SOL    HW136399   3.240   5.514   7.442 -0.2637 -1.1607  2.2324
11464SOL    HW236400   3.370   5.527   7.519  1.1373  0.6633 -0.3036
11465SOL     OW36401   0.954  10.198   2.039 -0.2592 -0.3304  0.3723
11465SOL    HW136402   0.901  10.178   2.115 -1.8516 -1.0841 -0.8891
11465SOL    HW236403   0.967  10.114   1.995  0.3843  0.1305 -0.3525
11466SOL     OW36404   6.884  10.855   3.389 -0.7003 -0.1459  0.0814
11466SOL    HW136405   6.848  10.786   3.444  0.5793  0.3840  1.6409
11466SOL    HW236406   6.846  10.839   3.302 -1.9603 -1.6048  0.8691
11467SOL     OW36407   9.975   0.118   9.961  0.5014 -0.5494  0.1553
11467SOL    HW136408   9.992   0.145  10.051 -0.4722 -0.2926  0.2739
11467SOL    HW236409  10.012   0.188   9.907  0.3882 -0.3096  0.3857
11468SOL     OW36410   4.643  10.387   8.344 -0.1320 -0.1230 -0.3732
11468SOL    HW136411   4.675  10.297   8.349  0.5392  0.1036 -0.4847
11468SOL    HW236412   4.698  10.436   8.405  0.1580  0.3863 -1.0308
11469SOL     OW36413   4.370   0.334  10.299 -0.5187 -0.7767 -0.4079
11469SOL    HW136414   4.367   0.397  10.371 -1.2649 -1.9190  0.5870
11469SOL    HW236415   4.441   0.365  10.243 -0.5725  0.6840  0.2971
11470SOL     OW36416   6.051   6.102  10.444  0.1278 -1.0595 -0.1848
11470SOL    HW136417   6.145   6.094  10.430 -0.1163 -2.5800 -1.1969
11470SOL    HW236418   6.038   6.194  10.467  1.7862 -0.6907 -0.5863
11471SOL     OW36419   8.005   9.261  10.217  0.0594  0.1267 -0.2045
11471SOL    HW136420   8.080   9.281  10.273 -0.1636  1.3543 -0.3014
11471SOL    HW236421   7.937   9.233  10.278  0.0796  0.6577  0.0725
11472SOL     OW36422   3.985   0.901   3.106 -0.1572  0.7581  0.3602
11472SOL    HW136423   3.998   0.843   3.181  0.4231 -0.1253 -0.4106
11472SOL    HW236424   4.073   0.924   3.077 -0.1690 -1.8299 -2.2408
11473SOL     OW36425   1.045   8.026   8.686 -0.1454  0.0282  0.3769
11473SOL    HW136426   1.044   8.107   8.738  2.4803  0.0957  0.4593
11473SOL    HW236427   1.130   7.987   8.704  0.3348 -0.6713 -2.7803
11474SOL     OW36428  10.043   1.582   6.337  0.0943  0.4326  0.1787
11474SOL    HW136429  10.133   1.559   6.360  0.0520 -0.3471 -0.3918
11474SOL    HW236430  10.051   1.651   6.271  0.2954 -0.2131 -0.4799
11475SOL     OW36431   0.923   0.848   4.759  0.7169  0.5521  0.1365
11475SOL    HW136432   1.000   0.804   4.794  0.5476  0.0579 -0.1046
11475SOL    HW236433   0.906   0.920   4.820  1.0682  0.3564  0.4644
11476SOL     OW36434   0.863   4.139  10.201  0.2696 -0.5035 -0.1641
11476SOL    HW136435   0.820   4.149  10.286 -0.1083 -1.6946 -0.1892
11476SOL    HW236436   0.949   4.179  10.212 -0.8894  2.2193 -0.1934
11477SOL     OW36437   7.922   3.043   7.825  0.6925 -0.2968  0.6134
11477SOL    HW136438   7.843   3.020   7.873  0.5938  0.8133  1.0112
11477SOL    HW236439   7.897   3.033   7.733  0.2741 -0.5457  0.7503
11478SOL     OW36440  10.225   1.879   6.931 -0.4232  0.1478 -0.2764
11478SOL    HW136441  10.155   1.827   6.970 -1.4780  2.4175  1.0866
11478SOL    HW236442  10.182   1.929   6.862  0.0264  0.9063 -0.0226
11479SOL     OW36443   2.472   7.394   9.954 -0.6200  0.1986 -0.0333
11479SOL    HW136444   2.461   7.488   9.971 -0.8904  0.2034 -0.2317
11479SOL    HW236445   2.435   7.351  10.032  0.8722  0.2773  0.7625
11480SOL     OW36446   2.245   4.579   8.925  0.0812  0.0198  0.9278
11480SOL    HW136447   2.232   4.674   8.925 -0.7855 -0.0960  0.9635
11480SOL    HW236448   2.332   4.567   8.963  0.3901  0.8248  0.4947
11481SOL     OW36449   6.607   4.926   5.112  0.3971 -0.1880 -0.2432
11481SOL    HW136450   6.678   4.989   5.098  2.2095 -1.3397  2.7631
11481SOL    HW236451   6.590   4.890   5.025  2.0399  1.5879 -1.3975
11482SOL     OW36452   8.135   7.926   1.265  0.2858 -0.2207 -0.1718
11482SOL    HW136453   8.173   7.953   1.181  2.4764 -3.9667 -0.6212
11482SOL    HW236454   8.068   7.862   1.241 -2.4510  2.0214  0.9146
11483SOL     OW36455   9.411   6.101   1.302 -0.3699  0.0902  0.0374
11483SOL    HW136456   9.505   6.099   1.319 -0.6694  2.6756  2.8957
11483SOL    HW236457   9.400   6.168   1.235 -0.2309  1.1855  1.0677
11484SOL     OW36458   9.053   7.952   9.292 -0.4795 -0.4912 -0.0037
11484SOL    HW136459   8.962   7.931   9.274 -0.5562  0.6445 -1.0830
11484SOL    HW236460   9.103   7.881   9.251 -0.8304 -0.1199 -1.1250
11485SOL     OW36461   1.203   3.238   7.796 -0.0080 -0.2745  0.0280
11485SOL    HW136462   1.285   3.201   7.828 -0.3732  0.4049  1.8918
11485SOL    HW236463   1.228   3.316   7.748  0.6132 -1.7125 -2.1346
11486SOL     OW36464  10.418  11.198  10.837  0.3361 -0.2149 -0.4234
11486SOL    HW136465  10.501  11.243  10.852  1.6392 -2.7774  0.9140
11486SOL    HW236466  10.436  11.107  10.864 -2.6572 -1.0658 -0.9576
11487SOL     OW36467   6.718   2.534   8.158  0.7961 -0.1801 -0.3341
11487SOL    HW136468   6.624   2.547   8.158  1.0464  2.1605 -0.2462
11487SOL    HW236469   6.746   2.559   8.246  1.5219 -0.5576 -0.4480
11488SOL     OW36470   7.285   6.737   2.804  0.5896  0.8936 -0.4312
11488SOL    HW136471   7.354   6.758   2.866 -1.4208  1.0239  1.8939
11488SOL    HW236472   7.236   6.819   2.793  0.0226  0.4907 -1.0090
11489SOL     OW36473   0.870   0.084   4.066 -0.5157 -0.9709  0.2670
11489SOL    HW136474   0.870   0.179   4.056 -0.3472 -0.7995  1.7172
11489SOL    HW236475   0.915   0.068   4.149  0.7329 -2.4087 -0.6165
11490SOL     OW36476   7.466   5.917   8.804  0.5918  0.1293  0.1113
11490SOL    HW136477   7.439   5.889   8.716  0.6951 -0.1626  0.1725
11490SOL    HW236478   7.421   6.000   8.817  0.4097  0.0708 -0.1371
11491SOL     OW36479   0.405   9.011   3.566 -0.2978 -0.4876  0.0730
11491SOL    HW136480   0.345   9.023   3.493  0.0995 -0.7516 -0.3043
11491SOL    HW236481   0.366   9.060   3.639 -0.8719 -0.5136 -0.2170
11492SOL     OW36482  10.091   2.480   2.910  0.0343  0.3533 -0.3999
11492SOL    HW136483  10.025   2.541   2.878 -0.1612  0.3782  0.0456
11492SOL    HW236484  10.056   2.447   2.993  1.5141  1.9835  0.9513
11493SOL     OW36485   4.995   1.621   3.124  0.7502 -0.3971 -0.3342
11493SOL    HW136486   5.015   1.616   3.031 -1.9816  0.3622 -1.0811
11493SOL    HW236487   4.964   1.711   3.137  3.9358  0.5229  2.0501
11494SOL     OW36488   0.028   7.992   0.421  0.0902 -0.5316 -0.4432
11494SOL    HW136489   0.082   8.020   0.495 -0.1681 -1.1468 -0.0210
11494SOL    HW236490   0.051   8.053   0.351 -0.0266  0.3638  0.2818
11495SOL     OW36491   5.019   2.061   4.680 -0.4024 -0.0378 -0.2504
11495SOL    HW136492   5.046   1.990   4.622 -1.2969  0.5310 -1.4082
11495SOL    HW236493   5.094   2.121   4.681 -1.0376  0.9033 -2.4162
11496SOL     OW36494   6.911   8.080   8.853 -0.2343  0.0078 -0.4031
11496SOL    HW136495   6.897   8.023   8.778 -0.9277  0.4109 -0.5826
11496SOL    HW236496   6.907   8.021   8.929 -2.5051  0.0259 -0.4680
11497SOL     OW36497   4.792   7.508   9.622 -0.8195 -0.6335 -0.0885
11497SOL    HW136498   4.883   7.517   9.594 -0.6945 -0.8798  0.2296
11497SOL    HW236499   4.792   7.432   9.680 -1.2189 -0.6049 -0.0470
11498SOL     OW36500  10.976   7.187   7.900  0.3374 -0.5240  0.1337
11498SOL    HW136501  10.965   7.146   7.814 -0.0273  0.3539 -0.2543
11498SOL    HW236502  10.887   7.207   7.929  0.2969 -2.7231  1.7045
11499SOL     OW36503  11.137   0.152   0.320 -0.2668  0.2107  0.0267
11499SOL    HW136504  11.118   0.244   0.305 -0.3333 -0.1285 -2.3077
11499SOL    HW236505  11.060   0.119   0.368 -0.5572  1.2040  0.2659
11500SOL     OW36506   0.781   2.109   8.417  0.1988 -0.4270 -0.0595
11500SOL    HW136507   0.800   2.202   8.403 -0.1851 -0.5022 -1.2198
11500SOL    HW236508   0.754   2.077   8.331 -0.1020 -1.5154  0.4190
11501SOL     OW36509   6.787   0.240   3.061  0.0971 -0.2913  0.2740
11501SOL    HW136510   6.723   0.305   3.090  0.1611  0.0739 -0.3975
11501SOL    HW236511   6.853   0.239   3.131  0.4692  0.8896 -0.0430
11502SOL     OW36512   5.439   3.028   0.259  0.0253 -0.3685  0.4376
11502SOL    HW136513   5.431   3.066   0.347 -0.6825  0.3048  0.0987
11502SOL    HW236514   5.528   3.051   0.231  0.8283 -1.9408  1.5668
11503SOL     OW36515   0.791   2.400   6.079  0.5595 -0.5718  0.7975
11503SOL    HW136516   0.773   2.481   6.030  2.5833 -0.7759 -0.4026
11503SOL    HW236517   0.778   2.424   6.170 -0.3554  0.6867  0.3630
11504SOL     OW36518   2.867   3.576   9.077 -0.1373 -0.3752  1.0349
11504SOL    HW136519   2.915   3.509   9.028 -0.3980  0.4029 -0.3558
11504SOL    HW236520   2.891   3.561   9.168  0.6215 -1.6929  0.6496
11505SOL     OW36521   8.218   9.986   8.505  0.0778  0.8248  0.3705
11505SOL    HW136522   8.270  10.059   8.538  0.9808  1.3695 -2.0119
11505SOL    HW236523   8.276   9.940   8.445 -1.2069 -0.5055  0.0649
11506SOL     OW36524   0.390   0.702   5.856 -0.0817 -1.1041  0.7096
11506SOL    HW136525   0.439   0.740   5.783 -0.4185 -0.8199  0.6336
11506SOL    HW236526   0.450   0.711   5.931 -0.4694  0.3255  0.8693
11507SOL     OW36527   5.093   8.424   2.542 -0.0949  0.0996 -0.7397
11507SOL    HW136528   5.003   8.448   2.519  0.2216 -0.4649 -2.7739
11507SOL    HW236529   5.133   8.399   2.459  1.6879 -0.5312  0.2535
11508SOL     OW36530   4.892   5.023   6.188  0.3612 -0.3596 -0.1644
11508SOL    HW136531   4.849   5.101   6.152  0.8825 -0.3211 -0.7146
11508SOL    HW236532   4.913   5.047   6.278 -1.3854 -0.6276  0.3608
11509SOL     OW36533   5.215   0.819   2.100  0.7012  0.7900  0.5275
11509SOL    HW136534   5.238   0.841   2.191  0.0597  0.7037  0.7193
11509SOL    HW236535   5.243   0.895   2.049 -0.2882  1.5029  1.0081
11510SOL     OW36536   0.077   2.246   9.853  0.0253  0.5218  0.6314
11510SOL    HW136537   0.016   2.314   9.882 -0.4089  0.1847  0.5231
11510SOL    HW236538   0.058   2.172   9.910  1.2644  0.8469  1.4941
11511SOL     OW36539   9.080   4.034   8.122  0.0385 -0.0342  0.0644
11511SOL    HW136540   9.172   4.011   8.114  0.1849  0.1293  1.0832
11511SOL    HW236541   9.071   4.064   8.213 -1.3470 -1.6119  0.4997
11512SOL     OW36542   5.446   8.440   9.988  0.6258  0.3690 -0.1230
11512SOL    HW136543   5.470   8.412   9.900 -3.1396 -1.2702 -0.8227
11512SOL    HW236544   5.420   8.531   9.978  2.6981  1.0134 -0.0754
11513SOL     OW36545   2.603   8.272  10.906  0.4567  0.1699 -0.6679
11513SOL    HW136546   2.631   8.330  10.977 -1.7571  1.2867 -0.6135
11513SOL    HW236547   2.667   8.287  10.836  0.6456  1.7777 -0.1936
11514SOL     OW36548   7.977   1.693   1.270 -0.1490  0.0455  0.0833
11514SOL    HW136549   8.002   1.718   1.359  0.2027 -1.3023  0.3878
11514SOL    HW236550   8.042   1.737   1.214  0.1198  0.2553  0.5536
11515SOL     OW36551   5.820   4.342   2.808  0.1011  0.8290 -0.1019
11515SOL    HW136552   5.886   4.374   2.747 -0.5388  2.1026 -0.1630
11515SOL    HW236553   5.739   4.385   2.780 -0.6938 -0.4464  0.1712
11516SOL     OW36554   5.131   4.154   3.843  0.6257 -0.4296 -0.2680
11516SOL    HW136555   5.047   4.110   3.854 -0.9792  2.0003 -1.9550
11516SOL    HW236556   5.155   4.184   3.931 -1.3130  0.5741 -0.0368
11517SOL     OW36557   8.304   3.881  10.573  0.3146  0.0283 -0.1821
11517SOL    HW136558   8.305   3.912  10.664 -1.7186 -0.8139  0.1550
11517SOL    HW236559   8.288   3.961  10.522  1.1071  0.4496  0.1969
11518SOL     OW36560   8.841   5.385   6.321  0.3243  0.2968  0.3042
11518SOL    HW136561   8.767   5.410   6.266  0.8106 -0.5849 -0.7814
11518SOL    HW236562   8.809   5.312   6.374 -0.4532  1.7789  1.9715
11519SOL     OW36563   9.811   0.667   4.138  0.3408 -0.6311  0.0184
11519SOL    HW136564   9.823   0.732   4.207 -2.8483  0.4171 -0.2617
11519SOL    HW236565   9.784   0.587   4.184  0.5563 -0.6532  0.1094
11520SOL     OW36566  11.094   2.771   3.845  0.2290 -0.1108  0.1923
11520SOL    HW136567  11.142   2.779   3.927  2.5952 -1.7596 -0.9458
11520SOL    HW236568  11.127   2.692   3.804 -2.1802 -0.3278 -1.5803
11521SOL     OW36569   3.586   2.698   5.691 -0.3081  0.0659 -0.7799
11521SOL    HW136570   3.507   2.684   5.639 -1.9404 -0.0932  1.5906
11521SOL    HW236571   3.584   2.629   5.756  1.2473  0.7077  0.0020
11522SOL     OW36572   3.816   0.110  10.122 -0.1011 -0.1536 -0.4663
11522SOL    HW136573   3.793   0.161  10.200 -0.5682 -2.3901  0.9585
11522SOL    HW236574   3.737   0.111  10.069 -0.4820 -0.3253  0.0886
11523SOL     OW36575   8.552   5.294   6.264 -0.2157  0.0086  0.7741
11523SOL    HW136576   8.624   5.232   6.275  0.1157  0.2209 -0.1204
11523SOL    HW236577   8.495   5.253   6.198  0.0781  0.7079  0.0778
11524SOL     OW36578  11.217   8.459   9.626  0.2409 -0.2756  0.5095
11524SOL    HW136579  11.311   8.460   9.612  0.0177  1.1391 -1.2226
11524SOL    HW236580  11.188   8.548   9.603 -1.4571 -0.5416  1.4308
11525SOL     OW36581   4.584   0.599   4.162 -1.0430 -0.2149 -0.1183
11525SOL    HW136582   4.591   0.692   4.141  2.0981 -0.4261 -0.4068
11525SOL    HW236583   4.599   0.595   4.257 -2.2784 -0.3848  0.0908
11526SOL     OW36584   1.853  11.033   8.569  0.0328 -0.1443  0.5384
11526SOL    HW136585   1.853  10.990   8.654  2.0484 -3.0240 -0.7916
11526SOL    HW236586   1.942  11.068   8.559 -1.2440  3.9007  1.1750
11527SOL     OW36587   0.150   9.154   4.073  0.2015 -0.4540 -0.8940
11527SOL    HW136588   0.217   9.183   4.135 -1.6785 -0.0362  1.1035
11527SOL    HW236589   0.134   9.062   4.098 -0.4876 -0.3152 -0.8028
11528SOL     OW36590   1.840   7.894   6.804  0.5534 -0.5236 -0.4649
11528SOL    HW136591   1.790   7.843   6.868 -1.4891  2.1164  0.2630
11528SOL    HW236592   1.798   7.875   6.720  0.0727 -0.3877 -0.2611
11529SOL     OW36593   9.152  10.153   2.690  0.0744 -0.1198 -0.5353
11529SOL    HW136594   9.171  10.194   2.774  0.1319  0.7812 -0.9731
11529SOL    HW236595   9.079  10.093   2.708 -1.2936  1.5616 -0.2442
11530SOL     OW36596   9.497   5.632   5.644  0.2033 -0.5692  0.2730
11530SOL    HW136597   9.546   5.705   5.683 -1.5189  1.0660 -0.4996
11530SOL    HW236598   9.506   5.561   5.708  3.4879 -0.4015  0.2063
11531SOL     OW36599   2.573   0.269   6.953 -0.4068 -0.2683 -1.0951
11531SOL    HW136600   2.552   0.312   6.869 -2.5386  0.2988 -0.3539
11531SOL    HW236601   2.546   0.178   6.940  1.0344 -0.6355 -1.6110
11532SOL     OW36602   5.007  10.735   4.404 -0.2934 -0.4315 -0.1824
11532SOL    HW136603   5.046  10.664   4.353  1.2467  1.0669 -1.1741
11532SOL    HW236604   5.082  10.784   4.437 -1.3302  0.4239  0.9543
11533SOL     OW36605   7.971   2.645   0.383  0.6050  0.7858 -0.6457
11533SOL    HW136606   7.938   2.674   0.298  1.6976  3.4750 -0.2544
11533SOL    HW236607   7.919   2.694   0.447  0.2519 -0.7012  0.2334
11534SOL     OW36608   7.510   1.267  10.638 -0.0609 -0.1800 -0.0624
11534SOL    HW136609   7.522   1.356  10.674 -0.7575 -0.3357  0.5800
11534SOL    HW236610   7.416   1.253  10.641  0.1285 -1.3781  0.9300
11535SOL     OW36611  11.109   0.904   1.824 -0.1144 -0.6844 -0.2862
11535SOL    HW136612  11.154   0.972   1.875  1.2678 -1.0052 -1.0273
11535SOL    HW236613  11.031   0.947   1.791  0.1676  0.2181  0.1791
11536SOL     OW36614  10.199   0.082   7.693 -0.2216  0.3511  0.0780
11536SOL    HW136615  10.256   0.008   7.671  1.3027  0.9449  1.7921
11536SOL    HW236616  10.195   0.081   7.789  1.5880  3.6892  0.3073
11537SOL     OW36617   4.037   3.245   8.780 -0.0717 -0.3172  0.2267
11537SOL    HW136618   4.088   3.178   8.827  1.0447  0.5423  0.2889
11537SOL    HW236619   3.986   3.195   8.716  0.7283 -1.2405  0.2796
11538SOL     OW36620   7.932   4.036  10.327  0.5261  0.8602 -0.1276
11538SOL    HW136621   8.000   4.064  10.266  0.1784  0.3827 -0.7494
11538SOL    HW236622   7.964   3.952  10.361  1.4519  1.8504  1.5468
11539SOL     OW36623  10.519   9.265   3.810 -0.8590  0.2620 -0.4637
11539SOL    HW136624  10.555   9.350   3.783  0.6295 -0.4112 -0.7047
11539SOL    HW236625  10.574   9.201   3.765 -1.6167 -0.8361  0.1452
11540SOL     OW36626   3.738   6.738   2.518 -0.6872  0.2023 -0.3484
11540SOL    HW136627   3.686   6.686   2.580 -0.3429 -0.4925 -0.6379
11540SOL    HW236628   3.732   6.691   2.435  0.9892 -0.2987 -0.2272
11541SOL     OW36629   6.776   1.339   1.171 -0.5764 -0.2618 -0.1245
11541SOL    HW136630   6.744   1.349   1.261 -1.7859  2.5853 -0.7428
11541SOL    HW236631   6.697   1.321   1.119 -0.0890 -0.5602 -0.7688
11542SOL     OW36632   5.799   5.631   8.698  0.5281  0.0080 -0.1954
11542SOL    HW136633   5.856   5.653   8.772  0.8682  2.8846 -1.1942
11542SOL    HW236634   5.858   5.629   8.623 -0.4211  1.6587 -1.0351
11543SOL     OW36635   4.074   7.391  10.638 -0.1986 -0.2119  0.0566
11543SOL    HW136636   4.008   7.427  10.697 -0.1371  1.8360 -1.0300
11543SOL    HW236637   4.153   7.439  10.659 -0.1610  0.4998 -1.6143
11544SOL     OW36638  11.076   9.131   4.320 -0.2619  0.0767  0.3572
11544SOL    HW136639  11.137   9.202   4.304 -1.4767  1.0492 -0.1309
11544SOL    HW236640  11.078   9.079   4.240  0.9235 -0.6962  0.8647
11545SOL     OW36641   6.630   8.328   3.133  0.4659  0.3406  0.2459
11545SOL    HW136642   6.594   8.380   3.061 -0.1426 -2.0232 -1.2489
11545SOL    HW236643   6.573   8.348   3.207 -1.3760 -0.1028 -0.9764
11546SOL     OW36644  11.208   5.084   3.130 -0.5958  0.3313 -0.7067
11546SOL    HW136645  11.300   5.072   3.152 -0.8465  0.0583  0.2357
11546SOL    HW236646  11.160   5.056   3.208 -1.4742  0.6252 -1.1186
11547SOL     OW36647   5.970   8.640   8.898 -0.3914  0.5679 -0.0923
11547SOL    HW136648   5.893   8.695   8.879 -1.6731 -1.5054 -1.2290
11547SOL    HW236649   5.935   8.552   8.910  1.7779 -0.4048 -0.3388
11548SOL     OW36650   4.416   7.422   7.465  0.1858  0.1640 -0.2538
11548SOL    HW136651   4.361   7.485   7.509 -1.6478 -2.4779  1.5327
11548SOL    HW236652   4.501   7.428   7.510 -0.1209  0.9380  0.2366
11549SOL     OW36653   9.453   2.197   0.325  0.3600 -0.0966  0.0740
11549SOL    HW136654   9.471   2.112   0.363 -1.4635 -1.1589 -1.2731
11549SOL    HW236655   9.534   2.221   0.280  0.6595 -1.5024 -0.1839
11550SOL     OW36656   9.466   7.655   6.612 -0.2451 -0.0688  0.4637
11550SOL    HW136657   9.548   7.671   6.565 -1.1604  2.2112 -0.5383
11550SOL    HW236658   9.450   7.562   6.601  2.1372 -0.5714  0.6116
11551SOL     OW36659  11.150  10.500   2.360 -0.0083 -0.5835 -0.5715
11551SOL    HW136660  11.111  10.550   2.432  0.8577 -1.1199  0.2970
11551SOL    HW236661  11.173  10.566   2.295 -1.2075 -0.1328 -0.5646
11552SOL     OW36662   7.465   3.956   4.015  0.4041  0.3655  0.0087
11552SOL    HW136663   7.489   3.888   3.952 -0.3475 -0.4931  0.6371
11552SOL    HW236664   7.515   3.936   4.093 -0.4341  0.0460  0.4722
11553SOL     OW36665   2.015   3.189  10.570  0.1811 -0.3761  0.0208
11553SOL    HW136666   2.108   3.206  10.584  0.7187 -1.1467 -2.1766
11553SOL    HW236667   2.009   3.163  10.478 -2.0721 -1.4295  0.3978
11554SOL     OW36668   0.746   3.049  10.227 -0.3645 -0.7628 -0.7374
11554SOL    HW136669   0.824   3.058  10.280 -0.8014  0.6008 -0.3069
11554SOL    HW236670   0.778   3.048  10.137 -0.0276  3.7760 -0.8483
11555SOL     OW36671  11.075   7.515   9.473  0.0538  0.2856 -0.0577
11555SOL    HW136672  11.113   7.533   9.559 -1.8117  0.4257  0.7863
11555SOL    HW236673  11.049   7.600   9.439 -1.9420  0.0085  0.6198
11556SOL     OW36674   6.577   1.623   5.970  0.0568  0.2117 -0.6975
11556SOL    HW136675   6.559   1.672   6.050 -0.2321 -0.1919 -0.5144
11556SOL    HW236676   6.564   1.531   5.994  0.4598  0.0542 -1.0748
11557SOL     OW36677   5.555   5.001   5.340  0.0667 -0.7888 -1.1345
11557SOL    HW136678   5.499   5.077   5.324 -1.5664 -1.7376 -0.2270
11557SOL    HW236679   5.514   4.930   5.290  0.5951 -1.4537 -0.6493
11558SOL     OW36680   6.820   5.766   0.809  0.2558 -0.5999 -0.6626
11558SOL    HW136681   6.811   5.763   0.713  1.7264 -0.9991 -0.8078
11558SOL    HW236682   6.821   5.674   0.836 -1.0645 -0.4811 -0.1481
11559SOL     OW36683   7.602   9.374   4.673  0.0217 -0.8783 -0.5486
11559SOL    HW136684   7.582   9.318   4.598 -0.4909 -1.3139 -0.0940
11559SOL    HW236685   7.613   9.313   4.746 -1.6270 -0.3525  0.1891
11560SOL     OW36686   3.640   6.379   0.416 -0.3323 -0.0786  0.4033
11560SOL    HW136687   3.651   6.467   0.452  0.5029  1.3134 -2.9277
11560SOL    HW236688   3.586   6.392   0.338  0.0842 -2.5016 -0.3493
11561SOL     OW36689   2.032   2.173  10.432 -0.0508 -0.3013  0.4309
11561SOL    HW136690   2.109   2.197  10.381  0.2094 -1.8316  0.0615
11561SOL    HW236691   2.046   2.214  10.518  1.0556 -0.3646  0.2898
11562SOL     OW36692  11.285  10.552   9.708  0.3380  0.0102 -0.0031
11562SOL    HW136693  11.349  10.599   9.654  3.1372 -1.7267  1.5769
11562SOL    HW236694  11.239  10.495   9.646  2.1316 -0.5469 -0.8976
11563SOL     OW36695   1.514   4.522   7.209  0.1361  0.1639  0.3373
11563SOL    HW136696   1.445   4.583   7.185  1.6240  1.3802 -1.1650
11563SOL    HW236697   1.594   4.563   7.176  1.5224 -1.4192  1.5435
11564SOL     OW36698   5.327   6.307   4.910 -0.1030 -0.4062 -1.0163
11564SOL    HW136699   5.363   6.292   4.998  3.4769  1.3808 -1.9777
11564SOL    HW236700   5.236   6.278   4.916  0.1405 -0.9151  3.0777
11565SOL     OW36701   1.530   2.676   9.088  0.2924 -0.3295  0.2437
11565SOL    HW136702   1.461   2.696   9.150 -0.1150  0.7961 -0.5375
11565SOL    HW236703   1.606   2.655   9.142  0.0925  1.1235  1.1386
11566SOL     OW36704   6.127   3.911   8.005 -0.4649 -0.3749  0.2014
11566SOL    HW136705   6.208   3.874   7.968  0.0878  0.2368  0.7812
11566SOL    HW236706   6.142   4.005   8.007 -0.3474 -0.3818  2.2077
11567SOL     OW36707   6.235   8.617   0.039  0.1909  0.2666 -0.2559
11567SOL    HW136708   6.301   8.560   0.078  0.3425  0.3465 -0.3882
11567SOL    HW236709   6.193   8.563  -0.028 -0.3309  0.0121  0.2765
11568SOL     OW36710   7.990   4.646   7.207 -0.3987 -0.3432  0.6446
11568SOL    HW136711   8.074   4.610   7.237  0.2835 -0.0514 -0.8060
11568SOL    HW236712   7.925   4.582   7.237  0.4730 -1.2208  0.7364
11569SOL     OW36713   2.506   4.964   7.067 -0.3931  0.6126  0.1428
11569SOL    HW136714   2.438   4.924   7.013  0.2720 -1.6122  0.8477
11569SOL    HW236715   2.585   4.960   7.014  0.4888 -2.4943  1.4944
11570SOL     OW36716   2.310   4.497   1.809 -0.5796 -1.4054  0.1495
11570SOL    HW136717   2.326   4.551   1.886 -0.1719  0.3892 -1.1178
11570SOL    HW236718   2.380   4.431   1.810  1.3147  0.4916 -0.2855
11571SOL     OW36719   2.102  11.076  10.892  0.0573  0.1290  0.5208
11571SOL    HW136720   2.119  11.017  10.966 -1.2293 -0.1258  0.6306
11571SOL    HW236721   2.131  11.027  10.815  4.5525  1.5926  0.9539
11572SOL     OW36722  10.588  10.980   8.720  0.3177  0.1013 -0.0120
11572SOL    HW136723  10.547  11.067   8.712 -1.8360 -0.9145 -0.7105
11572SOL    HW236724  10.659  10.993   8.782  0.6394  2.5670 -0.7899
11573SOL     OW36725   0.819   4.427   2.349 -0.2591  0.0325  0.5247
11573SOL    HW136726   0.776   4.440   2.264  1.5257  3.0895 -0.0713
11573SOL    HW236727   0.900   4.381   2.329  1.2676  2.7190  0.0921
11574SOL     OW36728   8.124   0.834   7.628  0.1758  0.4015 -0.2515
11574SOL    HW136729   8.117   0.876   7.713 -2.2565  0.3149 -0.3572
11574SOL    HW236730   8.135   0.741   7.648 -1.4365  0.2447  0.0015
11575SOL     OW36731   4.253   8.655   7.411  0.0060 -0.0238 -0.2211
11575SOL    HW136732   4.291   8.741   7.396 -1.9615  1.3698  2.0108
11575SOL    HW236733   4.214   8.630   7.328 -0.2089  1.7047 -0.6601
11576SOL     OW36734   0.092   4.704   6.096  0.0035 -0.1893  0.1007
11576SOL    HW136735   0.060   4.628   6.048 -1.4849  1.0135 -0.9209
11576SOL    HW236736   0.012   4.748   6.127  0.8133  0.9693  0.6279
11577SOL     OW36737   6.865   3.061   9.595 -0.4784  0.2120 -0.0185
11577SOL    HW136738   6.863   3.002   9.670 -1.4216  0.0117 -0.1973
11577SOL    HW236739   6.779   3.052   9.553  0.4592 -0.6406 -1.8859
11578SOL     OW36740   2.024   1.032   1.064  0.8716  0.3284  0.1357
11578SOL    HW136741   2.015   0.978   1.142  2.3210 -0.5397 -0.2496
11578SOL    HW236742   1.934   1.052   1.037  0.3064 -1.3265  0.6871
11579SOL     OW36743   6.474   2.536   7.781 -0.4097  0.1633 -0.7573
11579SOL    HW136744   6.542   2.469   7.769 -0.4579 -0.0540  0.1036
11579SOL    HW236745   6.475   2.554   7.876 -3.3280 -1.7520 -0.2467
11580SOL     OW36746   3.864   4.884   1.021 -0.7687  0.3294  0.2915
11580SOL    HW136747   3.875   4.972   1.058  2.9783 -0.8743  2.7059
11580SOL    HW236748   3.906   4.888   0.935 -0.4832  0.8923  0.4529
11581SOL     OW36749   7.879   3.607   8.496  0.1439  0.2853 -0.5605
11581SOL    HW136750   7.963   3.579   8.533  0.1963  0.9987 -0.1135
11581SOL    HW236751   7.873   3.700   8.518 -0.2866  0.4949 -1.4967
11582SOL     OW36752  10.438   5.834   1.153 -0.0443 -0.6293  0.6625
11582SOL    HW136753  10.421   5.891   1.079 -0.9123 -1.1388  0.4499
11582SOL    HW236754  10.486   5.888   1.216 -0.4274  0.1783  0.2644
11583SOL     OW36755   3.292   9.679   3.602 -0.0261 -0.3265 -0.3544
11583SOL    HW136756   3.305   9.603   3.546 -0.3810 -0.7311  0.0999
11583SOL    HW236757   3.207   9.665   3.642 -1.4615  1.7328 -2.4363
11584SOL     OW36758   2.949   0.455   6.021 -0.6870 -0.1038 -0.1446
11584SOL    HW136759   2.977   0.465   6.112  0.7111  1.1038 -0.6738
11584SOL    HW236760   2.922   0.363   6.015 -3.5885  0.4421  2.1764
11585SOL     OW36761   1.955   6.200   7.006  0.0918 -0.2670  0.8514
11585SOL    HW136762   1.911   6.153   7.077  2.0321 -1.0410  1.6049
11585SOL    HW236763   2.037   6.230   7.044  0.4817  0.6717 -0.6439
11586SOL     OW36764   1.903  10.672   5.843  0.0788  0.0170 -0.0076
11586SOL    HW136765   1.810  10.694   5.841  0.3886  1.3787 -0.6676
11586SOL    HW236766   1.910  10.594   5.788 -0.3273  1.5119 -2.3497
11587SOL     OW36767   9.505   1.818   2.026  0.4887  0.2068 -0.3063
11587SOL    HW136768   9.490   1.829   1.932 -1.7720  1.2201  0.1007
11587SOL    HW236769   9.533   1.727   2.036  0.7430  0.0834 -1.9573
11588SOL     OW36770   2.565   4.365   0.106  0.9893 -0.0164 -0.3803
11588SOL    HW136771   2.528   4.325   0.185  0.4124 -0.1147 -0.6917
11588SOL    HW236772   2.654   4.389   0.130  1.3196 -1.3881 -0.1459
11589SOL     OW36773   0.854  10.202   9.094 -0.2198 -0.4707 -0.6635
11589SOL    HW136774   0.766  10.169   9.112 -0.3070  0.3838  0.5352
11589SOL    HW236775   0.871  10.267   9.162  0.6687  0.6382 -1.8923
11590SOL     OW36776   9.101   9.782   4.174  0.0018  0.0433  0.0391
11590SOL    HW136777   9.149   9.854   4.216 -1.5944  1.3884 -0.3141
11590SOL    HW236778   9.034   9.759   4.238  1.3912 -2.2251  0.7796
11591SOL     OW36779  10.179   1.497   0.290  0.4462 -0.0142  0.0904
11591SOL    HW136780  10.184   1.405   0.315  0.6091 -0.0658 -0.1329
11591SOL    HW236781  10.258   1.513   0.239 -0.5783 -0.3000 -1.6711
11592SOL     OW36782   0.998   5.180   7.285 -0.3672  0.0986 -0.0292
11592SOL    HW136783   0.957   5.262   7.312 -0.7331 -0.1255  0.1120
11592SOL    HW236784   1.079   5.206   7.241  0.2850  0.4672  1.3435
11593SOL     OW36785   2.054   4.950   6.577 -0.1197  0.3195 -0.4983
11593SOL    HW136786   2.022   4.871   6.533 -0.6488  1.0645 -1.4818
11593SOL    HW236787   2.142   4.927   6.606 -0.8677 -1.2029  0.7735
11594SOL     OW36788   6.918   8.898   3.732  0.2946  0.0141 -0.1124
11594SOL    HW136789   6.982   8.920   3.664  0.1163 -0.1150 -0.3263
11594SOL    HW236790   6.890   8.808   3.710  1.0080 -0.4283  0.7426
11595SOL     OW36791   3.712   9.584   4.569  0.1453  0.2303 -0.5114
11595SOL    HW136792   3.801   9.559   4.544  0.0478  0.0993 -0.7293
11595SOL    HW236793   3.691   9.529   4.644  0.7253  1.1543  0.3624
11596SOL     OW36794   9.521   8.384   7.554 -0.3228  0.0375  0.3766
11596SOL    HW136795   9.561   8.324   7.490 -1.7610 -1.2173  0.5969
11596SOL    HW236796   9.494   8.327   7.626 -4.2379  0.3913 -0.5860
11597SOL     OW36797   3.240   5.270  10.239  0.2808  0.1086  0.1448
11597SOL    HW136798   3.242   5.175  10.235 -0.0611  0.0590  0.9109
11597SOL    HW236799   3.332   5.297  10.232  0.4989 -0.3440  1.0667
11598SOL     OW36800   1.637  10.578  11.064  0.1823  0.3543  0.2540
11598SOL    HW136801   1.708  10.516  11.078  0.1879  0.3277  0.1178
11598SOL    HW236802   1.562  10.540  11.110  0.2995  0.4687  0.5425
11599SOL     OW36803   6.323   2.458   0.369  0.2626 -0.4336 -0.5068
11599SOL    HW136804   6.240   2.462   0.416 -0.6611 -0.9201 -2.0223
11599SOL    HW236805   6.362   2.375   0.396  0.7880  0.2759  1.0166
11600SOL     OW36806   2.526   5.225   9.307 -0.0967 -0.0606  0.5606
11600SOL    HW136807   2.522   5.164   9.233  0.3870 -0.8830  1.2019
11600SOL    HW236808   2.438   5.222   9.345 -0.0161 -0.5124  0.7119
11601SOL     OW36809   7.252   5.670   4.833  0.1112 -1.0918 -0.4186
11601SOL    HW136810   7.230   5.746   4.778 -0.8632 -1.6708 -0.8517
11601SOL    HW236811   7.200   5.599   4.797 -1.0455 -1.3689  1.6403
11602SOL     OW36812   1.533   7.172   7.889  0.3552 -0.1943 -0.1427
11602SOL    HW136813   1.621   7.140   7.909 -0.7792 -2.6627  1.3046
11602SOL    HW236814   1.517   7.240   7.954  0.3029 -1.4515  1.1921
11603SOL     OW36815   1.383   0.991   0.994 -0.2806  0.7773  0.3018
11603SOL    HW136816   1.373   0.990   1.089  1.9871 -2.4464  0.6744
11603SOL    HW236817   1.296   1.015   0.961 -2.0376 -0.9809  3.1832
11604SOL     OW36818   4.812   5.691   2.729  0.2138 -0.2159  0.3668
11604SOL    HW136819   4.744   5.727   2.671  1.8192  0.6137 -1.0850
11604SOL    HW236820   4.821   5.755   2.799  2.5817  2.0775 -1.8436
11605SOL     OW36821   1.299   3.461   4.507 -0.0562  0.5812  0.0393
11605SOL    HW136822   1.352   3.382   4.518  0.7148  0.6389 -2.4761
11605SOL    HW236823   1.261   3.477   4.593  0.0241 -2.3118  0.7199
11606SOL     OW36824   7.761   7.023   6.186  0.2950 -0.7078  0.1392
11606SOL    HW136825   7.707   6.958   6.141 -1.0391  1.0388 -0.9067
11606SOL    HW236826   7.743   7.106   6.141  0.3574  0.8106  2.6882
11607SOL     OW36827   1.895   7.822   1.392 -0.2235  0.8962  0.1248
11607SOL    HW136828   1.970   7.847   1.338 -0.6703  1.6668 -0.1488
11607SOL    HW236829   1.890   7.890   1.459 -0.8944  1.0402 -0.0671
11608SOL     OW36830   0.026  10.052   0.129  0.6159  0.0943 -0.1127
11608SOL    HW136831   0.013   9.978   0.070 -1.2499  0.4161 -0.1614
11608SOL    HW236832   0.095  10.024   0.189 -0.1086 -1.7314 -0.0800
11609SOL     OW36833   4.254   1.939   9.455 -0.5811 -0.5168 -0.1441
11609SOL    HW136834   4.277   2.005   9.389  0.0890 -0.7603 -0.1530
11609SOL    HW236835   4.215   1.868   9.404 -0.0594 -0.7069 -0.2864
11610SOL     OW36836   8.722   3.233   8.267 -0.0288 -0.2919 -0.0159
11610SOL    HW136837   8.665   3.162   8.296  0.4230 -0.4587  0.4556
11610SOL    HW236838   8.737   3.286   8.345 -0.0861  0.1418 -0.2905
11611SOL     OW36839   0.618   2.868   5.559  0.3980 -0.3837 -0.1226
11611SOL    HW136840   0.709   2.866   5.530  0.9594 -1.0931  1.5547
11611SOL    HW236841   0.616   2.935   5.628 -0.2250 -0.7583  0.2333
11612SOL     OW36842   3.093   5.195   9.516 -0.0935  0.2699 -0.2842
11612SOL    HW136843   3.007   5.157   9.497 -1.4532  2.7039  0.6326
11612SOL    HW236844   3.098   5.196   9.611  1.6501 -1.1583 -0.2984
11613SOL     OW36845   5.443   1.509   5.182  0.4919  0.0962 -0.4561
11613SOL    HW136846   5.503   1.521   5.255  0.6172  0.0757 -0.5539
11613SOL    HW236847   5.356   1.524   5.218  0.5086 -0.4528 -0.1767
11614SOL     OW36848   1.172   0.207   4.770 -0.1592 -0.0075 -0.2273
11614SOL    HW136849   1.255   0.252   4.785 -0.1834  1.4132 -3.3918
11614SOL    HW236850   1.192   0.142   4.702 -0.9913 -2.1127  1.4268
11615SOL     OW36851   8.880   2.848   7.539  0.0879 -0.8207  0.4365
11615SOL    HW136852   8.849   2.909   7.472 -3.4093 -2.7167  0.1235
11615SOL    HW236853   8.910   2.772   7.489 -0.3784 -1.3428  0.9458
11616SOL     OW36854   6.096   1.078   2.805  0.0584  0.6909  0.5353
11616SOL    HW136855   6.167   1.139   2.784 -1.0485  1.9613  0.3376
11616SOL    HW236856   6.029   1.133   2.846 -1.3401 -0.2265 -0.4420
11617SOL     OW36857   2.375   9.575   8.252 -0.3989  0.3014  0.6400
11617SOL    HW136858   2.306   9.557   8.189  0.5691 -1.2161 -0.0441
11617SOL    HW236859   2.329   9.595   8.334 -1.7473 -3.2212  0.9192
11618SOL     OW36860   7.763   2.024   9.044  0.3723  0.4707  0.7505
11618SOL    HW136861   7.739   2.003   8.954  1.7650  1.6728  0.0513
11618SOL    HW236862   7.688   1.997   9.097 -1.0818  1.0607 -0.9307
11619SOL     OW36863   1.488   2.667   1.672  0.2346 -0.8814  0.0317
11619SOL    HW136864   1.516   2.756   1.694  0.0184 -0.9141  0.4628
11619SOL    HW236865   1.530   2.648   1.588 -1.0856  0.2652 -0.9314
11620SOL     OW36866   4.421   3.218   6.505 -0.0346  0.5049  0.4906
11620SOL    HW136867   4.503   3.200   6.552  0.9172  0.7337 -1.0095
11620SOL    HW236868   4.381   3.290   6.554  1.0856  0.9608  0.7769
11621SOL     OW36869  10.801   9.327  10.365  0.4101 -0.1346  0.1040
11621SOL    HW136870  10.725   9.294  10.317 -0.9696  2.2329  0.5372
11621SOL    HW236871  10.788   9.297  10.455  1.7490 -2.4619 -0.3596
11622SOL     OW36872   8.328   8.243   8.820  0.2944 -0.9333  0.0866
11622SOL    HW136873   8.284   8.316   8.777  1.8319 -0.3283 -0.5340
11622SOL    HW236874   8.266   8.214   8.888 -0.8639  0.1119 -0.4876
11623SOL     OW36875   2.587   0.210   4.235 -0.0924  0.1957 -0.4728
11623SOL    HW136876   2.555   0.267   4.166 -0.9367  0.3277  0.0158
11623SOL    HW236877   2.559   0.252   4.317  2.1852  0.8562  0.0442
11624SOL     OW36878   5.314   8.270   1.697  0.4830  0.3897 -0.2855
11624SOL    HW136879   5.337   8.357   1.664 -0.2465  0.4823 -0.5561
11624SOL    HW236880   5.336   8.211   1.625  1.5325  0.2701  0.1111
11625SOL     OW36881  11.268   4.929   8.843  0.4429 -0.3520 -0.3387
11625SOL    HW136882  11.248   4.933   8.750  1.1747 -1.4715 -0.5728
11625SOL    HW236883  11.194   4.881   8.881  0.6725 -0.8754 -0.5368
11626SOL     OW36884   8.777   0.370  10.320  0.2176 -0.3591  0.2475
11626SOL    HW136885   8.787   0.286  10.274 -2.1764 -0.3676 -0.3828
11626SOL    HW236886   8.687   0.369  10.353  0.1555  1.9340  0.2947
11627SOL     OW36887   6.486   1.984   9.344  0.6949 -0.2568 -0.0518
11627SOL    HW136888   6.400   1.959   9.311  1.6304 -1.3442 -1.8159
11627SOL    HW236889   6.488   2.079   9.336  0.1617 -0.3352 -1.3363
11628SOL     OW36890   5.176   3.280  10.612  0.2135 -0.0630 -0.6552
11628SOL    HW136891   5.199   3.316  10.697  0.8189 -2.2892  0.1928
11628SOL    HW236892   5.160   3.187  10.629 -1.7571 -0.1521 -2.6155
11629SOL     OW36893   3.819   3.047   7.291  0.3420  0.1828 -0.2534
11629SOL    HW136894   3.833   3.142   7.293 -0.4064  0.2911  0.9913
11629SOL    HW236895   3.732   3.036   7.255  1.5772 -0.2436 -3.4148
11630SOL     OW36896   7.335  10.623   1.491  0.3625 -0.0622 -0.6073
11630SOL    HW136897   7.332  10.718   1.491 -0.2907 -0.0764 -0.9154
11630SOL    HW236898   7.299  10.598   1.406 -0.5852 -0.6110 -0.0629
11631SOL     OW36899   2.117   9.721   9.993 -0.5248 -0.3503  0.1651
11631SOL    HW136900   2.047   9.736  10.057 -1.3320  0.3437 -0.8350
11631SOL    HW236901   2.124   9.626   9.988 -0.0275 -0.4239  1.6945
11632SOL     OW36902   2.383   6.093   7.525 -0.2272 -0.2797 -0.5233
11632SOL    HW136903   2.299   6.093   7.571 -0.4811 -0.7919 -0.9750
11632SOL    HW236904   2.446   6.121   7.591 -0.8457  0.7711 -0.3685
11633SOL     OW36905   2.590   1.966   5.707 -0.0207  0.2356  0.1963
11633SOL    HW136906   2.581   1.871   5.711 -0.9213  0.3369  1.0687
11633SOL    HW236907   2.666   1.985   5.761 -1.2418  0.1592  2.0290
11634SOL     OW36908   8.846   9.636   2.854 -0.2050  0.6654  0.2045
11634SOL    HW136909   8.850   9.717   2.803  0.2328  1.7227  1.8046
11634SOL    HW236910   8.808   9.571   2.795  0.0319  1.8717 -1.3389
11635SOL     OW36911  10.907   7.710   2.466 -0.2425  0.0099 -0.2150
11635SOL    HW136912  10.986   7.663   2.442 -0.6791 -0.9967  0.2526
11635SOL    HW236913  10.885   7.676   2.553 -2.1611 -1.0694 -1.0527
11636SOL     OW36914   0.179   6.490   2.980  0.8686 -0.3841 -0.1527
11636SOL    HW136915   0.120   6.425   2.941  1.0680 -1.1313  0.7390
11636SOL    HW236916   0.267   6.458   2.960  0.9765 -0.8021  0.8895
11637SOL     OW36917   6.772   2.078  10.904 -0.5154  0.4954 -0.4293
11637SOL    HW136918   6.804   2.162  10.872  0.5623  0.1074 -0.3971
11637SOL    HW236919   6.840   2.015  10.880 -1.7147 -0.5408 -1.2773
11638SOL     OW36920   1.459   8.414   1.516  0.2119 -0.7832  0.4997
11638SOL    HW136921   1.488   8.445   1.430 -0.2069  1.5154  1.1030
11638SOL    HW236922   1.410   8.488   1.552 -0.2119 -1.9474  2.4353
11639SOL     OW36923   5.651   5.865   1.700  0.1010  0.1660 -0.9432
11639SOL    HW136924   5.625   5.838   1.788 -0.4023  0.9133 -0.8480
11639SOL    HW236925   5.569   5.864   1.650 -0.1640  2.4608 -0.6741
11640SOL     OW36926   1.395  10.348  10.923 -0.2959 -0.2527  0.3233
11640SOL    HW136927   1.408  10.363  11.017  2.0267 -0.2118  0.0343
11640SOL    HW236928   1.388  10.435  10.885 -0.2221 -0.2436  0.3319
11641SOL     OW36929  10.517  10.321   6.950 -0.4614  0.2283  0.7573
11641SOL    HW136930  10.482  10.323   7.039 -1.5047  1.9278  0.3657
11641SOL    HW236931  10.499  10.408   6.915  1.0120  0.0005 -0.7264
11642SOL     OW36932   2.243   6.230   9.524 -0.2184  0.2245 -0.6179
11642SOL    HW136933   2.190   6.280   9.463  0.3607  2.0178  0.2621
11642SOL    HW236934   2.285   6.163   9.470  0.3451  1.7907 -2.2286
11643SOL     OW36935   1.531   0.243   2.601  0.7613 -0.2605 -0.0651
11643SOL    HW136936   1.518   0.223   2.693  0.0242  0.0483 -0.0930
11643SOL    HW236937   1.473   0.182   2.554  0.6462  0.0134 -0.2857
11644SOL     OW36938   1.941   2.537  11.066 -0.6665 -0.1918 -1.2219
11644SOL    HW136939   1.960   2.466  11.127 -1.2494 -0.2606 -1.1174
11644SOL    HW236940   1.921   2.494  10.983 -0.5852 -0.1286 -1.2750
11645SOL     OW36941   3.256   1.892  10.805  0.4138 -0.1904 -0.0085
11645SOL    HW136942   3.347   1.866  10.820 -0.1357 -0.6805  3.3318
11645SOL    HW236943   3.255   1.987  10.819  0.5419 -0.0658 -0.8420
11646SOL     OW36944  10.000  10.915   5.922  0.2853  0.4919 -0.1531
11646SOL    HW136945   9.967  10.977   5.857  1.7666  1.1788 -0.2742
11646SOL    HW236946  10.047  10.849   5.870 -1.5734 -0.9991 -0.0681
11647SOL     OW36947   8.990   0.356   3.905 -0.5585  0.4163  0.0217
11647SOL    HW136948   9.048   0.357   3.829  1.0430 -0.4647  1.1582
11647SOL    HW236949   8.953   0.444   3.909  1.0972  1.1674 -0.4847
11648SOL     OW36950   3.149   8.781   3.390 -0.4064 -0.1346  0.3591
11648SOL    HW136951   3.165   8.698   3.434  1.1564  0.2377  0.5785
11648SOL    HW236952   3.197   8.774   3.308  1.8625  1.3960  1.4398
11649SOL     OW36953   9.109   1.354   0.790  0.1761  0.3100 -0.3325
11649SOL    HW136954   9.135   1.286   0.852 -3.0028 -1.0608 -0.3632
11649SOL    HW236955   9.018   1.335   0.769 -0.7237  4.2690 -0.7843
11650SOL     OW36956   0.713   9.413   7.585 -0.5134 -0.1919  0.3763
11650SOL    HW136957   0.683   9.388   7.672 -1.2233  1.6479  0.7141
11650SOL    HW236958   0.715   9.509   7.588 -3.0652  0.1004 -2.3934
11651SOL     OW36959   9.208   2.876   3.269 -0.0669 -0.0277 -0.2494
11651SOL    HW136960   9.267   2.852   3.341 -0.1969 -0.1870 -0.1970
11651SOL    HW236961   9.140   2.810   3.270  0.0750 -0.1872 -0.6936
11652SOL     OW36962   3.273   0.953   6.188  0.7911  0.4039  0.2049
11652SOL    HW136963   3.206   1.010   6.149 -1.3779  0.3494  3.4095
11652SOL    HW236964   3.249   0.865   6.159  0.0354  0.4904  0.5421
11653SOL     OW36965   8.859   9.082   5.642 -0.9234 -0.3039  0.1683
11653SOL    HW136966   8.909   9.097   5.722 -0.0880 -1.2262 -0.1720
11653SOL    HW236967   8.879   9.158   5.587 -0.6218 -0.2118  0.4020
11654SOL     OW36968   7.115   8.608   2.807 -0.1941 -0.0572  0.4650
11654SOL    HW136969   7.084   8.531   2.758  0.3484 -0.7098  1.1239
11654SOL    HW236970   7.041   8.668   2.808 -1.0928 -1.1462  1.1198
11655SOL     OW36971  10.331   1.470   6.355 -0.8041 -0.0688 -0.1978
11655SOL    HW136972  10.304   1.470   6.263  0.0284  1.2435 -0.4661
11655SOL    HW236973  10.423   1.445   6.354  0.0570  2.7973 -0.0576
11656SOL     OW36974   5.896   3.748   8.037  0.7511 -0.4706  0.1855
11656SOL    HW136975   5.986   3.773   8.015 -0.0173  2.0587 -0.3904
11656SOL    HW236976   5.851   3.746   7.952 -0.1827  0.2877  0.6539
11657SOL     OW36977   0.049   5.502   6.955  0.3526 -0.9287  0.4179
11657SOL    HW136978   0.141   5.529   6.945 -0.0270 -0.2359 -1.6969
11657SOL    HW236979   0.002   5.585   6.964 -0.2349 -1.1930 -0.1977
11658SOL     OW36980   7.157   7.501   2.076 -0.4655  0.0520  0.2258
11658SOL    HW136981   7.084   7.461   2.123 -0.8991  0.0018 -0.4735
11658SOL    HW236982   7.231   7.442   2.092 -1.0447 -0.9367 -0.6343
11659SOL     OW36983   4.457   6.866   8.972 -0.0961 -0.5703 -0.3563
11659SOL    HW136984   4.520   6.928   9.009 -0.3123  0.6483 -1.9359
11659SOL    HW236985   4.508   6.786   8.958  0.1440 -0.8836  1.8797
11660SOL     OW36986   4.652  10.330   5.415  0.2791  0.5371 -0.3562
11660SOL    HW136987   4.571  10.280   5.420  0.3392  0.5759  2.4226
11660SOL    HW236988   4.636  10.407   5.470  2.3405  0.2632  0.7169
11661SOL     OW36989   6.584   7.355   6.464  0.3208 -0.1186  0.0907
11661SOL    HW136990   6.523   7.380   6.533  0.9174  0.7577  0.3117
11661SOL    HW236991   6.529   7.342   6.387 -0.2657 -0.4116  0.5492
11662SOL     OW36992   7.946   5.528   5.451 -0.1277  0.2452 -0.4521
11662SOL    HW136993   7.986   5.542   5.537 -1.1737 -0.0066  0.0871
11662SOL    HW236994   7.889   5.453   5.463  2.3075 -2.1066 -2.2625
11663SOL     OW36995   8.041   3.583   8.271  0.0792  0.0105 -0.0355
11663SOL    HW136996   7.986   3.619   8.341  1.2024 -0.8322  1.3374
11663SOL    HW236997   8.130   3.585   8.308  0.9350  0.9398 -2.0214
11664SOL     OW36998   3.500   9.439   8.542  0.0633 -0.0129 -0.0089
11664SOL    HW136999   3.430   9.383   8.576  1.4994 -2.3954 -0.7365
11664SOL    HW237000   3.500   9.423   8.448  2.5035 -1.3045  0.1285
11665SOL     OW37001   8.996   7.970   5.910 -0.2877 -0.5183 -0.6577
11665SOL    HW137002   8.925   7.918   5.872 -0.3071 -0.7207 -0.3466
11665SOL    HW237003   9.053   7.990   5.836 -1.0362  0.2497 -1.0440
11666SOL     OW37004   5.386   5.004   6.847 -0.7063 -0.3646  0.2517
11666SOL    HW137005   5.412   4.918   6.813 -1.9670 -1.1465  1.1634
11666SOL    HW237006   5.319   5.034   6.786  0.8570  0.7472 -0.9820
11667SOL     OW37007   1.467   5.922   2.276 -0.5170  0.9351 -0.4634
11667SOL    HW137008   1.541   5.887   2.227  0.0233  1.9280 -0.3980
11667SOL    HW237009   1.408   5.848   2.290  0.6336  0.0542 -0.2066
11668SOL     OW37010   0.331   7.198   2.580 -0.1793 -0.5329 -0.1764
11668SOL    HW137011   0.286   7.278   2.606 -0.3335 -0.3657 -0.9243
11668SOL    HW237012   0.423   7.213   2.602  0.0750  0.5207 -1.7672
11669SOL     OW37013   8.760   1.449  10.503 -0.1073 -0.8575 -0.0608
11669SOL    HW137014   8.747   1.396  10.581 -2.5072 -3.9114 -2.2644
11669SOL    HW237015   8.837   1.410  10.461  1.0812  0.6715  0.6331
11670SOL     OW37016   2.610   4.283   7.514  0.8049 -0.1233 -0.2139
11670SOL    HW137017   2.688   4.337   7.529  2.0291 -1.4498 -1.4277
11670SOL    HW237018   2.602   4.230   7.593  1.3371 -0.2071 -0.2120
11671SOL     OW37019   9.344   9.459   8.120  0.4558  0.8076  0.3449
11671SOL    HW137020   9.408   9.388   8.113  0.1229  0.5733 -0.4368
11671SOL    HW237021   9.330   9.469   8.215 -1.4353 -1.9814  0.4795
11672SOL     OW37022   8.996  10.005   0.748  0.4802  0.7289  0.0237
11672SOL    HW137023   8.987   9.988   0.654  0.6928 -0.6078  0.2286
11672SOL    HW237024   9.090  10.003   0.764  0.3956 -3.1339  0.9054
11673SOL     OW37025   6.659   5.138   0.283  0.1986  0.3900  0.0871
11673SOL    HW137026   6.691   5.055   0.319  1.5965 -0.4925 -2.8701
11673SOL    HW237027   6.600   5.172   0.350 -1.8381 -3.8385  0.7736
11674SOL     OW37028   7.671   7.339   8.254  0.6960 -0.0137  0.5648
11674SOL    HW137029   7.759   7.360   8.285  1.2981 -0.5278 -0.7297
11674SOL    HW237030   7.664   7.244   8.263  0.7735 -0.1338 -0.5458
11675SOL     OW37031   1.228   0.646  11.064 -0.8304  0.2633 -0.7578
11675SOL    HW137032   1.239   0.726  11.114  1.1667 -0.2531 -0.2821
11675SOL    HW237033   1.297   0.588  11.095 -2.0022 -1.5361 -1.3283
11676SOL     OW37034   3.858   2.756   7.302 -0.5241 -0.4282 -0.0216
11676SOL    HW137035   3.825   2.845   7.294 -1.6341 -0.9329 -1.7730
11676SOL    HW237036   3.811   2.720   7.378 -2.6269 -0.5074 -1.2926
11677SOL     OW37037   4.156   9.745   7.459  0.2367 -0.1543 -0.7288
11677SOL    HW137038   4.137   9.658   7.424  0.0161  0.2715 -1.6836
11677SOL    HW237039   4.070   9.785   7.473  0.2436 -0.8374  1.7138
11678SOL     OW37040   2.857   8.470   7.222 -0.4861 -1.0978  0.4180
11678SOL    HW137041   2.835   8.424   7.141 -1.6359  1.1665 -0.6533
11678SOL    HW237042   2.790   8.538   7.230  2.1330  1.6584  0.8054
11679SOL     OW37043   8.968   0.947  10.819 -0.0763 -0.1876  0.0508
11679SOL    HW137044   8.898   0.941  10.753  0.2862 -1.4197 -0.2597
11679SOL    HW237045   8.924   0.929  10.902  0.1813 -3.5064 -0.3827
11680SOL     OW37046   7.684  10.219  10.677 -0.3149  0.6437 -0.5793
11680SOL    HW137047   7.621  10.290  10.671  0.3879  1.4870  1.3878
11680SOL    HW237048   7.650  10.161  10.744  0.4851  0.5861 -0.2099
11681SOL     OW37049   4.739   9.721   8.783 -0.2547 -0.6521  0.0166
11681SOL    HW137050   4.783   9.674   8.712 -0.2213  0.1136 -0.4800
11681SOL    HW237051   4.786   9.804   8.791 -1.5753  0.1852 -0.5138
11682SOL     OW37052   9.279   1.438   2.527 -0.9352  0.1943  0.0317
11682SOL    HW137053   9.312   1.454   2.615 -1.8403  2.3634  0.0468
11682SOL    HW237054   9.356   1.410   2.477  0.0326  0.9396  1.0430
11683SOL     OW37055   1.012   7.407   3.156 -0.2385  0.2554 -0.5000
11683SOL    HW137056   0.984   7.349   3.226 -1.4327  1.2046 -0.1483
11683SOL    HW237057   0.943   7.400   3.090  0.0368  0.6146 -0.8342
11684SOL     OW37058   0.460   9.687   9.696 -0.2303  0.0627 -0.5943
11684SOL    HW137059   0.406   9.610   9.680  0.9247 -1.1106  0.8318
11684SOL    HW237060   0.400   9.751   9.734 -0.8096 -0.8702  0.0997
11685SOL     OW37061   7.417   3.138   9.007 -0.2258  0.5592 -0.4219
11685SOL    HW137062   7.328   3.166   9.029 -1.0736 -1.1653 -1.4189
11685SOL    HW237063   7.459   3.124   9.092 -2.0395 -1.8148  0.2081
11686SOL     OW37064   5.438   7.076   3.393  0.7620 -0.0599  0.4593
11686SOL    HW137065   5.425   7.124   3.475  1.0209 -0.0968  0.5209
11686SOL    HW237066   5.532   7.059   3.389  0.5551 -1.3746  0.8975
11687SOL     OW37067   3.198   5.483   5.326 -0.7177  0.5290 -0.7313
11687SOL    HW137068   3.198   5.476   5.230  1.1224 -1.8952 -0.6578
11687SOL    HW237069   3.163   5.399   5.355 -0.4414  0.8989  0.7185
11688SOL     OW37070   6.107   1.260   6.067 -0.3140 -0.1666  0.4877
11688SOL    HW137071   6.187   1.230   6.111  0.9157  1.5678 -0.4368
11688SOL    HW237072   6.128   1.348   6.037 -1.5437 -0.7207 -2.3757
11689SOL     OW37073   5.078   1.345   3.577  0.4506 -0.0921  0.0056
11689SOL    HW137074   5.079   1.434   3.613 -1.3874  1.0365 -2.4550
11689SOL    HW237075   5.167   1.332   3.544  1.1706  0.1786  1.7269
11690SOL     OW37076   9.516   4.585   6.645 -0.1428  1.0729  0.2579
11690SOL    HW137077   9.509   4.575   6.550  0.8470 -2.2690  0.4002
11690SOL    HW237078   9.610   4.588   6.661 -0.2172 -0.8003  1.2393
11691SOL     OW37079   9.269   8.645   4.015  0.0210  0.0858 -0.5553
11691SOL    HW137080   9.340   8.589   4.048 -0.6321  0.7149  2.2302
11691SOL    HW237081   9.218   8.587   3.958  1.3402 -1.1018 -0.6015
11692SOL     OW37082   0.854   5.325   1.695 -0.0861 -0.4307 -0.5776
11692SOL    HW137083   0.807   5.271   1.759 -0.3870  0.9026  0.3713
11692SOL    HW237084   0.826   5.291   1.610 -3.0062  0.4019 -0.0862
11693SOL     OW37085   7.694  10.052   9.805  0.0880 -0.0707  0.1642
11693SOL    HW137086   7.609  10.023   9.839  0.3085 -1.4378 -0.4000
11693SOL    HW237087   7.749  10.059   9.883 -0.7863  1.8843  0.6816
11694SOL     OW37088   3.877   8.235   5.458 -0.0252  0.5006 -0.9060
11694SOL    HW137089   3.954   8.202   5.412 -0.4443 -0.7666 -0.7299
11694SOL    HW237090   3.834   8.294   5.396 -0.2151 -0.6588 -1.8965
11695SOL     OW37091   3.210   9.745   0.328  1.0339 -0.1294  0.4111
11695SOL    HW137092   3.233   9.758   0.421 -3.9066  1.1785  1.7809
11695SOL    HW237093   3.157   9.822   0.307  0.1041 -1.5169 -2.8216
11696SOL     OW37094   6.164  10.656   1.492 -0.6946  0.3312  0.2522
11696SOL    HW137095   6.252  10.621   1.475  0.1497  1.5908  1.7623
11696SOL    HW237096   6.111  10.623   1.419  0.3317 -2.7935  0.7576
11697SOL     OW37097   0.617   8.658   7.649  0.2027  0.6602 -0.4883
11697SOL    HW137098   0.705   8.624   7.659 -0.7006 -1.5521  0.7979
11697SOL    HW237099   0.574   8.638   7.733 -1.6335  1.2701 -1.2177
11698SOL     OW37100   2.060   5.339   7.774 -0.3673 -0.0394  0.2221
11698SOL    HW137101   2.122   5.288   7.826  0.2397  0.9738  0.5196
11698SOL    HW237102   2.105   5.422   7.758 -0.2340 -0.5221 -2.5047
11699SOL     OW37103   4.624  11.163   5.879  0.3231  0.3471  0.0574
11699SOL    HW137104   4.571  11.120   5.945  0.2526 -0.1358 -0.3105
11699SOL    HW237105   4.682  11.094   5.846  0.0902  0.4850 -0.6548
11700SOL     OW37106   7.176   4.642   1.990  0.0840 -0.3808  0.4858
11700SOL    HW137107   7.213   4.555   2.002  0.3476 -0.2940  0.3014
11700SOL    HW237108   7.237   4.686   1.932 -0.4096 -0.3049  0.0198
11701SOL     OW37109   2.919   7.865   4.291 -0.0646  0.0256  0.7512
11701SOL    HW137110   2.993   7.925   4.285 -0.4615  0.5200  0.7242
11701SOL    HW237111   2.848   7.910   4.246  0.1256 -1.2873 -0.9556
11702SOL     OW37112  10.929   8.934   1.088 -0.3954 -0.0292  0.6966
11702SOL    HW137113  10.976   8.990   1.150 -1.3513  1.1488  0.3843
11702SOL    HW237114  10.860   8.894   1.140 -0.4022 -0.0459  0.6744
11703SOL     OW37115   1.305   8.829   8.379  0.3961 -0.2725 -0.4750
11703SOL    HW137116   1.212   8.847   8.367 -0.4824 -2.9266  1.4578
11703SOL    HW237117   1.323   8.754   8.322  0.7526 -1.1803  0.7872
11704SOL     OW37118   5.117   4.573   0.324 -0.2647  0.1367  0.0627
11704SOL    HW137119   5.146   4.626   0.398  1.2203 -0.7032  0.1144
11704SOL    HW237120   5.197   4.541   0.284 -1.0789 -0.4429 -1.1779
11705SOL     OW37121   9.947   1.680   2.118 -0.2716 -0.6611  0.2806
11705SOL    HW137122   9.929   1.587   2.128 -4.0625 -0.1991 -0.6381
11705SOL    HW237123   9.921   1.700   2.028  0.4461  1.3034  0.4477
11706SOL     OW37124   5.046   9.742   9.500 -0.3083 -0.4268 -0.1497
11706SOL    HW137125   5.026   9.701   9.416 -1.5893 -0.9819  0.3951
11706SOL    HW237126   5.085   9.826   9.477 -1.5742 -0.1299 -1.3362
11707SOL     OW37127   1.589   8.874   6.000  1.0883  0.0768  0.6304
11707SOL    HW137128   1.560   8.810   5.936  0.5248  0.1587  0.7966
11707SOL    HW237129   1.521   8.872   6.068  0.9426  1.0063  0.5267
11708SOL     OW37130   4.197   1.457   0.396 -0.0340  0.0936  0.0136
11708SOL    HW137131   4.234   1.461   0.484 -4.0248 -0.3861  1.9232
11708SOL    HW237132   4.181   1.548   0.372 -1.2158  0.1373  0.9102
11709SOL     OW37133   1.656   0.493   5.454 -0.4143  0.0180 -0.0100
11709SOL    HW137134   1.750   0.495   5.471 -0.1355 -1.3925 -1.1257
11709SOL    HW237135   1.617   0.471   5.538  0.3251 -0.1162  0.3076
11710SOL     OW37136   7.156   0.681   6.636 -0.1870  0.1933  0.1464
11710SOL    HW137137   7.140   0.702   6.729 -1.6616  0.1896 -0.0835
11710SOL    HW237138   7.098   0.741   6.588  0.5185  0.1448 -0.7723
11711SOL     OW37139  10.991   9.375   9.033  0.2405  0.8238  0.5150
11711SOL    HW137140  11.006   9.314   8.961 -3.0273 -0.3693  0.6846
11711SOL    HW237141  10.911   9.422   9.009  0.4668  2.2017  2.2285
11712SOL     OW37142   3.262   1.193   8.523  0.4655 -0.3151 -0.5334
11712SOL    HW137143   3.279   1.284   8.548 -0.1866  0.0052 -1.2057
11712SOL    HW237144   3.347   1.160   8.494  0.6512  0.1703 -0.5587
11713SOL     OW37145   5.743   6.406   1.043 -0.7408  0.4186 -0.4263
11713SOL    HW137146   5.732   6.452   1.127 -1.2511  0.6140 -0.5920
11713SOL    HW237147   5.717   6.316   1.062  0.7590  0.0456  0.0276
11714SOL     OW37148   5.199   0.024  10.691 -0.0226 -0.0184  0.7912
11714SOL    HW137149   5.180   0.013  10.598  0.7979 -0.3316  0.6498
11714SOL    HW237150   5.175   0.115  10.710 -2.0145 -0.4925  0.7414
11715SOL     OW37151   9.538   7.909  10.961  0.3140  0.2060  0.1310
11715SOL    HW137152   9.510   7.880  11.048  0.5241  0.2424  0.2090
11715SOL    HW237153   9.633   7.918  10.967  0.4042 -0.3890 -0.2746
11716SOL     OW37154   6.662   9.606  10.907  0.8685 -0.9485  0.0307
11716SOL    HW137155   6.660   9.691  10.951  0.9822  0.5381 -2.6641
11716SOL    HW237156   6.724   9.555  10.959  1.5803  0.9292  1.1546
11717SOL     OW37157   7.600   9.357   3.015  0.3054 -0.1561 -0.0822
11717SOL    HW137158   7.653   9.430   3.045  0.2001 -0.2297  0.2784
11717SOL    HW237159   7.511   9.391   3.011  0.3282 -0.1239 -0.3903
11718SOL     OW37160   7.993  10.874   0.830  0.1797 -0.2635 -0.3072
11718SOL    HW137161   7.963  10.936   0.763  1.3413  0.3319 -0.3104
11718SOL    HW237162   7.947  10.901   0.910 -0.2825 -0.1964 -0.5970
11719SOL     OW37163   0.023   3.138   5.176  0.2210 -0.3431 -0.3421
11719SOL    HW137164  -0.028   3.130   5.256 -0.6961 -1.5145 -1.0176
11719SOL    HW237165  -0.036   3.179   5.113  0.0906 -1.6277 -1.1024
11720SOL     OW37166   4.378   7.365  11.073 -0.2141 -0.5700  0.2206
11720SOL    HW137167   4.448   7.405  11.124 -0.9831  0.7711  0.2687
11720SOL    HW237168   4.423   7.303  11.014  0.8507 -0.7766  1.2125
11721SOL     OW37169   6.010   8.666   8.424 -0.1969 -0.2206  0.1944
11721SOL    HW137170   6.074   8.693   8.489 -1.7526  0.2130  1.6314
11721SOL    HW237171   6.048   8.691   8.340  1.0634  0.9323  1.0772
11722SOL     OW37172   5.639  11.241   9.544  0.3930 -0.7973 -0.2790
11722SOL    HW137173   5.543  11.239   9.543  0.2959 -0.0226 -2.9703
11722SOL    HW237174   5.660  11.329   9.575  0.2630 -1.1304  0.7710
11723SOL     OW37175  10.293   0.170   0.938 -0.0335  0.1030 -0.3465
11723SOL    HW137176  10.203   0.155   0.908  0.1932 -2.5834  0.1300
11723SOL    HW237177  10.329   0.083   0.951  2.3450  1.1319  0.4619
11724SOL     OW37178   7.317   9.037   8.800 -0.2247  0.3168  0.5240
11724SOL    HW137179   7.275   9.042   8.886 -0.6440 -0.1066  0.3443
11724SOL    HW237180   7.402   8.996   8.817  0.5193  1.9694  1.0232
11725SOL     OW37181  10.234   4.303   5.519 -0.1349  0.1758  0.3945
11725SOL    HW137182  10.247   4.351   5.437 -2.6791 -0.7705 -0.6799
11725SOL    HW237183  10.187   4.366   5.575  0.6885  0.4745  0.7631
11726SOL     OW37184   5.902  10.734   6.765  0.0537  0.0808 -0.1340
11726SOL    HW137185   5.952  10.813   6.747  0.7875 -0.1200  0.9044
11726SOL    HW237186   5.898  10.688   6.681  0.2324  0.8627 -0.5810
11727SOL     OW37187   5.930   1.433   7.079 -0.3981  0.5543  0.1892
11727SOL    HW137188   5.834   1.435   7.078 -0.4861 -0.9301 -1.6825
11727SOL    HW237189   5.955   1.470   7.163 -2.7468 -2.4012  2.4032
11728SOL     OW37190   3.227   6.768   6.109  0.2867  0.1538 -0.0945
11728SOL    HW137191   3.138   6.796   6.087  0.7458  1.6827 -0.1414
11728SOL    HW237192   3.226   6.673   6.097 -0.5671  0.4254 -2.9790
11729SOL     OW37193   9.438   3.589   9.415 -0.2597 -0.0701 -0.0189
11729SOL    HW137194   9.382   3.555   9.346  1.3089 -0.6780 -1.0426
11729SOL    HW237195   9.471   3.672   9.381  0.3665 -0.2763  0.0744
11730SOL     OW37196   8.337  10.401   4.387  0.5822  0.0539 -0.1838
11730SOL    HW137197   8.397  10.417   4.314  0.8532  0.6547  0.1634
11730SOL    HW237198   8.251  10.425   4.352  0.9361  2.1399  0.2286
11731SOL     OW37199   7.185   9.731  10.971  0.2870  1.2259 -0.0956
11731SOL    HW137200   7.221   9.770  11.051  1.6003  1.9098 -0.9749
11731SOL    HW237201   7.117   9.792  10.943  1.8033  2.5720 -1.0346
11732SOL     OW37202   3.100   5.475   3.756  0.3919  0.0795 -0.1546
11732SOL    HW137203   3.118   5.395   3.805  1.4927  0.7300  0.5475
11732SOL    HW237204   3.170   5.481   3.692  1.2008  1.2288  0.7900
11733SOL     OW37205   3.181   4.438   6.092  0.3368  0.8264 -0.0108
11733SOL    HW137206   3.209   4.501   6.158 -0.5930  1.1436  0.0997
11733SOL    HW237207   3.087   4.429   6.106  0.4034 -0.3509 -0.2327
11734SOL     OW37208   3.995   2.076   2.119  0.2567 -0.3041  0.3753
11734SOL    HW137209   3.915   2.033   2.150 -0.5503  1.1691  0.4487
11734SOL    HW237210   4.027   2.019   2.049  0.4161 -2.0931  1.8106
11735SOL     OW37211   2.641   6.660   4.074  0.4546 -0.1127  0.2220
11735SOL    HW137212   2.607   6.750   4.082 -1.4608 -0.5907 -1.6274
11735SOL    HW237213   2.719   6.669   4.020  1.4118  0.6100  1.6431
11736SOL     OW37214  10.522  10.251   3.109  0.6758  0.1699  0.0530
11736SOL    HW137215  10.560  10.333   3.077  2.7461 -0.8788 -0.2958
11736SOL    HW237216  10.548  10.185   3.045 -1.3228 -0.7352  0.0921
11737SOL     OW37217   4.452   9.281  11.270 -0.6340  0.5510 -0.4815
11737SOL    HW137218   4.417   9.290  11.181 -1.2701 -1.1586 -0.4454
11737SOL    HW237219   4.470   9.370  11.297 -2.5309  1.3174 -1.5062
11738SOL     OW37220   2.464   9.911   2.090  0.4844  0.2792  0.2245
11738SOL    HW137221   2.379   9.869   2.078  1.3339 -1.2884 -0.6516
11738SOL    HW237222   2.444   9.995   2.130 -1.4039 -0.4537  0.9247
11739SOL     OW37223   2.550   2.639   0.233 -0.4664 -0.5297  0.6773
11739SOL    HW137224   2.630   2.612   0.187 -0.5762 -2.6923  1.6241
11739SOL    HW237225   2.480   2.620   0.171 -0.2648  2.4998 -0.6333
11740SOL     OW37226   0.913   9.044   8.175 -0.5798  0.5091  0.5230
11740SOL    HW137227   0.966   8.970   8.205 -0.1531  0.9926  0.9580
11740SOL    HW237228   0.897   9.025   8.082  1.1122  0.8021  0.1418
11741SOL     OW37229   8.607   7.939   6.201  0.0525 -0.3923  0.3503
11741SOL    HW137230   8.681   7.921   6.143  3.0009  1.9482  3.0156
11741SOL    HW237231   8.590   7.855   6.244 -0.8965 -1.6623 -2.2573
11742SOL     OW37232   2.605  10.907   2.447 -0.8187 -0.1962  0.1053
11742SOL    HW137233   2.635  10.997   2.443 -2.3727  0.3746  0.3865
11742SOL    HW237234   2.530  10.909   2.508  0.4002 -2.0558  1.8199
11743SOL     OW37235   8.406   6.974   2.276 -0.6426 -0.0566  0.5890
11743SOL    HW137236   8.466   7.028   2.327 -0.7387 -0.0316  0.6759
11743SOL    HW237237   8.380   6.904   2.336  1.8796 -2.0139 -0.4295
11744SOL     OW37238   5.166   1.820   7.550  0.2731  0.5523 -0.0572
11744SOL    HW137239   5.079   1.781   7.560  1.5946 -2.5198  0.9803
11744SOL    HW237240   5.202   1.777   7.473  0.8135  2.0079 -0.6458
11745SOL     OW37241   2.189   1.013   6.518  0.3241  0.4200  0.3789
11745SOL    HW137242   2.161   0.924   6.498  0.9899  0.1862  0.4638
11745SOL    HW237243   2.123   1.069   6.477 -0.6934 -0.1177  1.2408
11746SOL     OW37244   0.646   9.639   8.038  0.4959 -0.0091  0.6232
11746SOL    HW137245   0.661   9.706   8.106  1.3435  0.3755  0.0770
11746SOL    HW237246   0.678   9.558   8.078  2.0476  0.4074  0.3151
11747SOL     OW37247   6.027   4.511   7.952 -1.1045  0.6386 -0.0067
11747SOL    HW137248   6.054   4.529   7.862  2.1176  1.2885  0.9598
11747SOL    HW237249   5.970   4.585   7.975 -1.6467  0.6651 -1.3477
11748SOL     OW37250   5.697   9.039   9.462  0.0558 -0.1690  0.1419
11748SOL    HW137251   5.603   9.023   9.453  0.0119  0.2282 -0.1441
11748SOL    HW237252   5.729   9.042   9.372  0.2338  0.3259  0.2204
11749SOL     OW37253   0.008   7.512   9.080  0.4052  0.1300 -0.1697
11749SOL    HW137254   0.024   7.527   9.173  0.9132 -0.2805 -0.1870
11749SOL    HW237255  -0.068   7.567   9.060  0.6142  0.6214  0.3599
11750SOL     OW37256   2.716   4.741   3.990 -0.1492 -0.3639 -0.6879
11750SOL    HW137257   2.681   4.803   3.926  1.8749  0.4539 -1.0802
11750SOL    HW237258   2.721   4.791   4.072 -1.0296 -0.8640 -0.3095
11751SOL     OW37259   8.061   8.162   3.056  0.6467  0.0081 -0.4055
11751SOL    HW137260   8.135   8.221   3.042  1.1157 -0.9226 -2.1137
11751SOL    HW237261   7.988   8.219   3.079  2.1363  0.8824  2.8732
11752SOL     OW37262  10.191   0.907   2.374 -0.0200 -0.3242 -0.1037
11752SOL    HW137263  10.135   0.984   2.378  1.1984  0.5969  0.1023
11752SOL    HW237264  10.132   0.833   2.382 -1.3381  0.5488 -1.2708
11753SOL     OW37265   0.078  10.581   8.047  0.6133  1.0264  0.1858
11753SOL    HW137266   0.041  10.666   8.025  0.6180  0.7929 -0.7924
11753SOL    HW237267   0.015  10.543   8.109 -0.3362  1.0133 -0.7454
11754SOL     OW37268   0.302  10.633   1.523 -0.6779  0.2333  0.0637
11754SOL    HW137269   0.382  10.668   1.484 -0.8077 -0.9016 -1.2986
11754SOL    HW237270   0.274  10.564   1.463 -2.4913  0.3630  0.6982
11755SOL     OW37271   5.110   7.899   4.248 -0.4628  0.1367  0.4001
11755SOL    HW137272   5.131   7.989   4.221 -0.5274 -0.0509 -0.2685
11755SOL    HW237273   5.188   7.848   4.226 -0.5514 -0.0389  0.4857
11756SOL     OW37274   3.783   2.789   9.472  0.3237  0.1876 -1.1911
11756SOL    HW137275   3.804   2.749   9.388 -1.8454 -1.0255 -1.2299
11756SOL    HW237276   3.712   2.736   9.507 -0.7659  2.3445  0.0947
11757SOL     OW37277   2.957   5.401   1.733 -0.1034 -0.2360  0.5376
11757SOL    HW137278   2.956   5.418   1.827 -1.4026 -0.3250  0.5592
11757SOL    HW237279   2.868   5.422   1.704  0.6730  1.2724 -0.9460
11758SOL     OW37280   0.637   5.288   9.343 -0.6817 -0.2539 -0.0483
11758SOL    HW137281   0.621   5.243   9.426 -0.1274  0.4861  0.4803
11758SOL    HW237282   0.730   5.273   9.325 -0.3251  1.1438  0.4608
11759SOL     OW37283  10.590   6.271   1.844 -0.4825 -0.3402 -0.3649
11759SOL    HW137284  10.590   6.317   1.760 -0.4872 -0.7888 -0.6144
11759SOL    HW237285  10.619   6.336   1.907 -0.4155 -0.0170 -0.7266
11760SOL     OW37286   3.308   2.964   2.908  0.3769 -0.1243 -0.2762
11760SOL    HW137287   3.263   2.880   2.905 -0.1274  0.0512  1.3643
11760SOL    HW237288   3.350   2.972   2.822  0.0026 -1.7963 -0.6507
11761SOL     OW37289  10.741  10.366   6.539  0.2787 -0.1722 -0.4157
11761SOL    HW137290  10.756  10.308   6.464 -0.2905 -2.3996  1.1238
11761SOL    HW237291  10.813  10.347   6.599 -1.0988 -0.9603  1.0663
11762SOL     OW37292   5.773  10.856   3.888 -0.5792 -0.0891 -0.0685
11762SOL    HW137293   5.708  10.838   3.820 -0.0554 -2.2929 -0.0670
11762SOL    HW237294   5.841  10.791   3.874 -1.2141 -1.8162  3.5412
11763SOL     OW37295   0.931   9.033   9.359  0.5800 -0.8017  0.0009
11763SOL    HW137296   0.867   9.076   9.415  1.1607 -1.5228  1.2413
11763SOL    HW237297   0.951   8.951   9.403  1.1088 -1.3642 -1.2257
11764SOL     OW37298   7.124   0.251  11.258  0.4044  0.7383 -0.5348
11764SOL    HW137299   7.136   0.272  11.350  1.7003  1.2772 -0.8059
11764SOL    HW237300   7.213   0.253  11.221  0.5837 -3.6150 -0.9489
11765SOL     OW37301   4.670   4.135   6.328  0.2569 -0.2698  0.8788
11765SOL    HW137302   4.600   4.099   6.274 -2.2293  1.7591  2.5099
11765SOL    HW237303   4.750   4.118   6.279 -1.5551 -1.0569 -1.9982
11766SOL     OW37304   7.262  10.254   9.451  0.1844  0.4531 -0.0969
11766SOL    HW137305   7.345  10.257   9.403  0.4631 -0.4891  0.2983
11766SOL    HW237306   7.281  10.198   9.527 -0.4329  1.3474  0.7364
11767SOL     OW37307   3.073   6.968   9.011  0.5994  0.1443  0.6260
11767SOL    HW137308   3.032   7.042   9.055 -0.1649 -0.3232  0.7291
11767SOL    HW237309   3.000   6.910   8.989  0.9993  0.1405 -0.8371
11768SOL     OW37310   5.274   2.813   0.423 -0.7115  0.4231 -0.2242
11768SOL    HW137311   5.322   2.777   0.348  1.3152 -0.9766  1.6060
11768SOL    HW237312   5.339   2.868   0.468 -1.6469  0.6406  0.8999
11769SOL     OW37313   8.883   8.295   0.789 -0.8764  0.2295 -0.5440
11769SOL    HW137314   8.820   8.309   0.859 -0.3736  1.4740 -0.3245
11769SOL    HW237315   8.831   8.261   0.716 -1.8183  1.3329 -0.4021
11770SOL     OW37316   6.965   7.038   7.162 -0.0208  0.0125 -0.2218
11770SOL    HW137317   6.988   6.959   7.210  1.2207 -0.6830 -1.9096
11770SOL    HW237318   6.872   7.052   7.184  0.0810 -1.1395  1.1178
11771SOL     OW37319   6.984   3.212   3.465  0.3892  0.8381  0.1577
11771SOL    HW137320   7.048   3.281   3.448 -0.1267  1.3660  0.3237
11771SOL    HW237321   7.015   3.170   3.545  0.9108  0.6291 -0.1503
11772SOL     OW37322   9.224   7.444   4.333 -0.4379  0.3771 -0.4667
11772SOL    HW137323   9.279   7.370   4.307 -0.5488  0.3418 -0.6018
11772SOL    HW237324   9.236   7.451   4.427 -1.8049 -0.9334 -0.1718
11773SOL     OW37325   2.707   5.193  11.254 -0.2364 -0.5694 -0.4098
11773SOL    HW137326   2.777   5.164  11.313  1.6496  2.5531 -0.8876
11773SOL    HW237327   2.626   5.174  11.302  1.1206 -0.1063  2.2636
11774SOL     OW37328   7.360   1.164   8.235  0.4563  0.7086 -0.1171
11774SOL    HW137329   7.431   1.188   8.295 -1.0666  0.3126  1.9659
11774SOL    HW237330   7.319   1.088   8.276 -0.4411  0.1815 -1.8984
11775SOL     OW37331   8.761   5.320  10.052  1.0540 -0.6853 -0.0767
11775SOL    HW137332   8.710   5.330   9.971  1.0905  0.7950  0.0520
11775SOL    HW237333   8.781   5.227  10.056 -1.1529 -1.2378 -0.4246
11776SOL     OW37334   3.691   0.764   7.827 -0.5466  0.0492  0.4301
11776SOL    HW137335   3.711   0.823   7.753  0.8268  0.9675  1.4734
11776SOL    HW237336   3.681   0.678   7.786  0.7616  0.4236 -0.8045
11777SOL     OW37337   2.887  10.732   8.987 -0.9001  0.0169  0.5023
11777SOL    HW137338   2.883  10.825   9.011 -1.8649 -0.3859  2.1057
11777SOL    HW237339   2.859  10.730   8.895 -0.2518  1.3595  0.2506
11778SOL     OW37340   7.341   9.971   1.355 -0.5746 -1.1595  0.1637
11778SOL    HW137341   7.436   9.961   1.346 -0.1671  1.0001  1.3883
11778SOL    HW237342   7.323   9.949   1.446 -1.2557 -1.4540 -0.0304
11779SOL     OW37343   0.784   9.478   3.309  0.7158  0.7978  0.2941
11779SOL    HW137344   0.705   9.426   3.300  0.0179  1.8566  0.0801
11779SOL    HW237345   0.763   9.561   3.266  2.2851  0.7404 -0.6570
11780SOL     OW37346   4.572   1.667   2.933  0.1332  0.0437 -0.4712
11780SOL    HW137347   4.636   1.686   3.002  0.8091 -0.5941 -0.9011
11780SOL    HW237348   4.578   1.742   2.874 -0.8748  0.8808  0.4459
11781SOL     OW37349  10.028   7.221   5.733  0.0862  0.9142  0.4183
11781SOL    HW137350  10.118   7.208   5.704  0.3161  0.0026  1.4613
11781SOL    HW237351  10.021   7.314   5.751  0.0831  1.4428 -1.9606
11782SOL     OW37352   9.142   3.353   2.517 -0.1910 -0.3516  0.7483
11782SOL    HW137353   9.152   3.258   2.526 -0.4864 -0.5750 -1.0105
11782SOL    HW237354   9.228   3.388   2.539  0.2733 -1.1247  0.1997
11783SOL     OW37355   1.547   1.918   2.998 -0.7427  0.0063  0.6112
11783SOL    HW137356   1.568   1.856   3.068  0.4799  0.9380  1.0935
11783SOL    HW237357   1.571   1.871   2.918  1.8525  0.4124  1.0469
11784SOL     OW37358  10.365   2.980   0.588  0.3192 -0.3033 -0.4521
11784SOL    HW137359  10.295   2.998   0.525 -0.0416 -2.3257 -0.6961
11784SOL    HW237360  10.441   3.026   0.554 -0.4567  0.5023 -1.1344
11785SOL     OW37361   4.505   1.885   2.685 -0.2990 -0.0171 -0.4048
11785SOL    HW137362   4.438   1.816   2.689  0.1606 -0.5509 -1.4878
11785SOL    HW237363   4.456   1.966   2.696 -1.5519 -0.1961 -3.5348
11786SOL     OW37364   0.585   2.727   5.092 -0.0785 -0.0393  0.0708
11786SOL    HW137365   0.540   2.771   5.020  1.7394  2.4273  0.2976
11786SOL    HW237366   0.520   2.726   5.163 -1.2494 -0.7658 -0.9752
11787SOL     OW37367   5.622   8.030   7.888 -0.4747  0.2098 -0.2470
11787SOL    HW137368   5.537   8.039   7.845 -0.6403  0.5042  0.1456
11787SOL    HW237369   5.639   7.935   7.887  0.2693  0.3130 -2.3928
11788SOL     OW37370   6.762   0.042  10.289  0.2077 -0.6001 -0.8666
11788SOL    HW137371   6.691   0.102  10.314  0.5346 -0.0432 -1.2412
11788SOL    HW237372   6.842   0.088  10.314  0.4292 -1.8535  0.9271
11789SOL     OW37373   0.466   2.906   7.523  0.2660  0.5519  0.1018
11789SOL    HW137374   0.415   2.987   7.514 -2.3421 -1.1534 -2.0527
11789SOL    HW237375   0.416   2.854   7.586  0.7669 -0.1684 -0.0912
11790SOL     OW37376   2.060   9.016  10.392  0.4676  0.5700 -0.1899
11790SOL    HW137377   2.129   9.074  10.361  2.6000 -0.7572  1.6897
11790SOL    HW237378   2.084   8.998  10.483 -3.6602  1.8247  1.3697
11791SOL     OW37379   4.563   0.171   9.319 -0.0265 -0.6722  0.3395
11791SOL    HW137380   4.550   0.219   9.237 -1.6837 -0.8645  0.4465
11791SOL    HW237381   4.639   0.212   9.360 -0.6387  1.0325 -0.1572
11792SOL     OW37382   8.392   0.642   6.101 -0.3109  0.7658 -0.4658
11792SOL    HW137383   8.381   0.628   6.195 -2.3583 -0.3369 -0.7974
11792SOL    HW237384   8.304   0.661   6.069  0.0720 -0.3728 -2.3660
11793SOL     OW37385   4.212   1.142   8.064 -0.1021 -0.5390 -0.0362
11793SOL    HW137386   4.135   1.089   8.082 -0.9418  0.0136 -1.7894
11793SOL    HW237387   4.183   1.232   8.075  0.3642 -0.3279 -0.5035
11794SOL     OW37388   9.761   5.001   6.118  0.2899  0.5625 -0.1771
11794SOL    HW137389   9.785   5.057   6.191  1.9786  3.3184 -2.6028
11794SOL    HW237390   9.825   4.929   6.121  1.1505  1.3250  0.3707
11795SOL     OW37391   6.940   3.266   3.875  0.1455 -0.1519 -0.6123
11795SOL    HW137392   6.941   3.318   3.955 -0.0336 -0.3300 -0.4930
11795SOL    HW237393   6.847   3.245   3.861  0.2635 -0.8372 -0.4000
11796SOL     OW37394  10.091   3.177   7.020  0.1441 -0.1846  0.3711
11796SOL    HW137395  10.166   3.126   7.050  0.4271  1.4508  2.7934
11796SOL    HW237396  10.092   3.255   7.076 -4.1934 -0.7481  1.6232
11797SOL     OW37397   5.218   3.049   8.181  0.2458  0.4432 -0.2364
11797SOL    HW137398   5.215   3.143   8.167  1.5550  0.5359 -0.0216
11797SOL    HW237399   5.131   3.026   8.215 -0.0963  1.5486 -0.3439
11798SOL     OW37400   0.330   0.856   9.156 -0.2135  0.2052  0.5069
11798SOL    HW137401   0.422   0.879   9.168 -0.4415  0.3565  2.0749
11798SOL    HW237402   0.289   0.936   9.125 -0.0505  0.4934  1.0295
11799SOL     OW37403   9.337   5.601   4.339  0.3274  0.2348 -0.6632
11799SOL    HW137404   9.413   5.544   4.345 -0.3980 -0.6120  2.5485
11799SOL    HW237405   9.267   5.545   4.307  0.4201  0.2714 -0.9304
11800SOL     OW37406   3.618  10.457   3.101 -1.0335  0.0554 -0.1564
11800SOL    HW137407   3.593  10.462   3.008 -3.3215 -0.5933  0.3437
11800SOL    HW237408   3.687  10.522   3.111  0.3461 -0.9007 -2.6127
11801SOL     OW37409   2.433  11.073   5.624 -0.2647  0.5935 -0.4678
11801SOL    HW137410   2.477  11.038   5.701  1.2813  0.9096 -1.1584
11801SOL    HW237411   2.340  11.067   5.644 -0.1615 -3.3103 -0.2365
11802SOL     OW37412   6.992   1.948  10.827 -0.3098  0.1820 -0.1392
11802SOL    HW137413   7.073   1.996  10.806 -1.5867  2.6460  0.2724
11802SOL    HW237414   6.978   1.891  10.751  0.8304  1.0795 -1.0592
11803SOL     OW37415   9.809  10.444   3.388  0.2100 -0.0257  0.3717
11803SOL    HW137416   9.764  10.435   3.303  1.3945  1.2913 -0.4338
11803SOL    HW237417   9.788  10.533   3.417  0.5067 -0.1723  1.0554
11804SOL     OW37418   0.952  10.185   2.436 -0.3764  0.0883 -0.4887
11804SOL    HW137419   0.962  10.257   2.497 -0.1289 -0.7162  0.4446
11804SOL    HW237420   1.014  10.118   2.466 -1.1748 -0.8359 -0.8255
11805SOL     OW37421   1.064   4.000  10.501  0.5001  0.3707 -0.2517
11805SOL    HW137422   1.022   3.920  10.470 -4.6302  2.4500  0.4196
11805SOL    HW237423   1.127   4.023  10.433 -0.9441 -1.9790 -2.5207
11806SOL     OW37424   6.352   3.706   7.030 -0.1227 -0.5066  0.0545
11806SOL    HW137425   6.415   3.636   7.046  0.4012  0.0224  0.3435
11806SOL    HW237426   6.374   3.738   6.942  1.0176  0.6797  0.7362
11807SOL     OW37427   1.376   3.051   3.780 -0.5481  0.3304  0.2225
11807SOL    HW137428   1.408   3.033   3.868 -0.7331 -0.7184  0.0909
11807SOL    HW237429   1.285   3.020   3.781 -0.1105 -1.0950 -0.7536
11808SOL     OW37430  11.005   1.413   5.649 -0.3517  0.0311 -0.3337
11808SOL    HW137431  10.923   1.411   5.698 -0.9729  1.9670 -1.2212
11808SOL    HW237432  11.039   1.323   5.655 -2.4595 -0.7798  0.1310
11809SOL     OW37433   7.084   0.847   1.625  0.0455 -0.6887  0.4278
11809SOL    HW137434   7.055   0.794   1.551 -2.4865 -1.3181  1.7559
11809SOL    HW237435   7.065   0.937   1.599  2.1159 -0.5612 -0.8726
11810SOL     OW37436   8.621   3.330   7.650 -0.1376  0.1811  0.1254
11810SOL    HW137437   8.614   3.239   7.624  2.4344 -0.0160 -0.1796
11810SOL    HW237438   8.643   3.377   7.569 -1.0438  1.0424  0.3497
11811SOL     OW37439   3.827   1.614   8.379 -0.1889 -0.8705  0.5235
11811SOL    HW137440   3.859   1.620   8.469 -0.2883  0.8434  0.4685
11811SOL    HW237441   3.897   1.652   8.326  0.8518 -3.8202 -0.4302
11812SOL     OW37442   5.539   4.194   4.649  0.3838 -0.9423 -0.2141
11812SOL    HW137443   5.620   4.233   4.617 -0.9376 -0.2196 -3.0404
11812SOL    HW237444   5.546   4.102   4.624  0.7664 -1.1075  0.4973
11813SOL     OW37445   7.276   3.620  10.794  1.0142  0.5262 -0.5395
11813SOL    HW137446   7.274   3.534  10.752 -0.4648  1.9078 -3.5042
11813SOL    HW237447   7.369   3.636  10.809  1.4366 -0.9040 -1.3975
11814SOL     OW37448  10.588   6.826  10.546 -0.0024  0.3613 -0.1623
11814SOL    HW137449  10.495   6.845  10.553  0.1466  1.1992 -0.3561
11814SOL    HW237450  10.597   6.779  10.463 -0.6326 -2.3647  1.1616
11815SOL     OW37451   3.880  10.395   1.737  0.4450  0.0680 -0.4358
11815SOL    HW137452   3.813  10.397   1.669  2.0373 -1.0663 -2.1520
11815SOL    HW237453   3.963  10.399   1.689  1.6373 -0.7600  1.4377
11816SOL     OW37454   0.957  11.262   4.851 -0.1647 -0.5255  0.3658
11816SOL    HW137455   0.955  11.183   4.904 -0.3486 -0.1865  0.8746
11816SOL    HW237456   1.048  11.291   4.854  0.0995 -1.2172 -0.5843
11817SOL     OW37457   4.104   4.459   3.505  0.1936  0.6561 -0.3899
11817SOL    HW137458   4.130   4.367   3.502  0.8741  0.8407 -0.3540
11817SOL    HW237459   4.071   4.473   3.594  1.5026  0.8140  0.0829
11818SOL     OW37460   3.311   7.669   1.988  0.5713 -0.4894  0.7189
11818SOL    HW137461   3.258   7.694   2.064  0.1346  1.9920 -0.3141
11818SOL    HW237462   3.400   7.696   2.011  0.1111  2.2213 -0.3679
11819SOL     OW37463   9.872   5.054   9.277 -0.0036 -0.5825 -0.2140
11819SOL    HW137464   9.842   5.088   9.361 -1.6469  1.4298 -1.5326
11819SOL    HW237465   9.967   5.059   9.281 -0.0326 -1.0674  1.7123
11820SOL     OW37466   4.413   3.720   5.215  0.2305 -0.7435 -0.6025
11820SOL    HW137467   4.488   3.689   5.163  1.2669 -0.7159  0.8101
11820SOL    HW237468   4.353   3.757   5.151  1.6600 -0.2939 -1.7318
11821SOL     OW37469   6.400   6.684   2.067 -0.1476 -0.0469  0.6655
11821SOL    HW137470   6.375   6.622   2.135  0.4605 -1.3521 -0.2451
11821SOL    HW237471   6.490   6.707   2.087  0.1545 -0.7161  0.1309
11822SOL     OW37472   1.405   4.777   9.361  0.6392  0.4828 -0.3057
11822SOL    HW137473   1.463   4.805   9.431  0.6618  0.6028 -0.3736
11822SOL    HW237474   1.384   4.686   9.382  1.0585  0.3553 -0.4205
11823SOL     OW37475   3.724   8.665   1.291  0.1804 -0.3349  0.1359
11823SOL    HW137476   3.671   8.722   1.236  1.0412  0.3176 -0.0269
11823SOL    HW237477   3.685   8.578   1.280  0.4176 -0.2443 -1.6025
11824SOL     OW37478   3.535   7.423   6.167 -0.1424  0.2409  0.5454
11824SOL    HW137479   3.576   7.464   6.091 -0.8345  0.2734  0.1740
11824SOL    HW237480   3.601   7.363   6.201  0.0466 -0.0612 -0.3114
11825SOL     OW37481   4.142   8.492  11.005 -0.0127  0.3818  0.7663
11825SOL    HW137482   4.055   8.459  11.026 -0.4702  1.0623  0.0306
11825SOL    HW237483   4.146   8.490  10.909  0.1867  1.7708  0.7170
11826SOL     OW37484  10.322   7.503  10.324 -0.0417 -1.1445 -0.0106
11826SOL    HW137485  10.315   7.412  10.351  0.0158 -1.0603  0.2887
11826SOL    HW237486  10.411   7.529  10.349  0.6427 -1.5814 -1.8561
11827SOL     OW37487   4.296   6.890   7.644  0.0390  0.0716  0.6579
11827SOL    HW137488   4.299   6.905   7.550 -0.4474 -0.5990  0.5338
11827SOL    HW237489   4.240   6.960   7.678  0.8208  0.7618  0.5479
11828SOL     OW37490   0.365   9.878   4.170 -0.4843 -0.0741 -0.3335
11828SOL    HW137491   0.290   9.818   4.172 -0.0076 -0.6637  0.1973
11828SOL    HW237492   0.442   9.821   4.179  0.0721  0.4628 -1.5009
11829SOL     OW37493   3.097   5.270   9.073  0.6348 -0.4505  0.8387
11829SOL    HW137494   3.023   5.216   9.101  0.5682 -1.1490 -0.5622
11829SOL    HW237495   3.129   5.311   9.153 -0.7417 -0.7919  1.6002
11830SOL     OW37496   6.051   2.413   7.247  0.0584 -0.0656  0.1792
11830SOL    HW137497   6.010   2.344   7.300  0.5717  0.4199  1.2422
11830SOL    HW237498   5.994   2.489   7.260 -1.3020 -0.5804 -2.0918
11831SOL     OW37499   6.754   5.841   0.026  0.1184  0.3135 -0.1507
11831SOL    HW137500   6.776   5.902  -0.044  0.5280  1.1439  0.6790
11831SOL    HW237501   6.659   5.831   0.020  0.2759 -0.6383 -1.6111
11832SOL     OW37502  10.946   5.924   0.806 -0.4548  0.2044 -0.1779
11832SOL    HW137503  11.020   5.970   0.766  0.8043  0.2469  2.0006
11832SOL    HW237504  10.896   5.993   0.849 -2.5386  0.3378 -2.6182
11833SOL     OW37505   1.957   7.559   2.668 -0.4434  0.6357 -0.0868
11833SOL    HW137506   1.896   7.498   2.708  0.2150 -0.3925 -0.6051
11833SOL    HW237507   1.916   7.583   2.585  0.5726 -1.4192 -1.2743
11834SOL     OW37508   3.508   3.364   4.374  0.0833  0.0963 -0.1426
11834SOL    HW137509   3.549   3.370   4.461 -1.7823 -1.7786  0.9385
11834SOL    HW237510   3.420   3.400   4.387 -0.0499  0.2555 -1.3989
11835SOL     OW37511   8.058   5.972   6.543 -0.0967 -0.4320 -0.4289
11835SOL    HW137512   8.139   5.922   6.538  0.6692  0.9213 -2.2776
11835SOL    HW237513   8.084   6.058   6.575 -0.9798 -0.2923 -0.0377
11836SOL     OW37514   1.022   5.241   8.283 -0.4557  0.4024  0.4220
11836SOL    HW137515   1.034   5.281   8.369 -2.1730  0.0674  0.8558
11836SOL    HW237516   1.083   5.167   8.282 -2.1202 -1.1155  2.4041
11837SOL     OW37517   3.759  10.904   9.916 -0.1635  0.7372  0.1736
11837SOL    HW137518   3.795  10.991   9.900 -1.4919  1.0004 -1.7773
11837SOL    HW237519   3.740  10.902  10.010 -0.0711  2.5448  0.2643
11838SOL     OW37520   4.535   5.838   0.972  0.9978 -0.2967  0.3768
11838SOL    HW137521   4.524   5.931   0.987  0.4781 -0.4445  0.9417
11838SOL    HW237522   4.625   5.829   0.939  0.4065  0.6221 -1.6687
11839SOL     OW37523   7.112   1.996   4.236 -0.5853  0.0090 -0.5444
11839SOL    HW137524   7.114   1.900   4.240 -1.2316  0.0241  1.5253
11839SOL    HW237525   7.198   2.022   4.271 -1.9329  0.1140  3.1752
11840SOL     OW37526   5.694   3.191   7.636  0.4401 -0.1906 -0.0454
11840SOL    HW137527   5.721   3.099   7.643  0.6161 -0.3096 -1.8422
11840SOL    HW237528   5.708   3.227   7.723 -3.6317 -2.9145  2.0900
11841SOL     OW37529   1.729   4.957   6.362  0.5466 -0.1859 -0.2037
11841SOL    HW137530   1.639   4.923   6.368  1.2420 -2.1369 -0.2819
11841SOL    HW237531   1.754   4.943   6.271  0.8045  0.7447 -0.2862
11842SOL     OW37532   2.079   1.930   8.745  0.4638  0.2444 -0.8063
11842SOL    HW137533   2.154   1.874   8.727  0.5202  0.0702 -0.0700
11842SOL    HW237534   2.030   1.932   8.662  1.9431  1.4231 -1.6905
11843SOL     OW37535   5.604   2.825   3.194 -0.3798 -0.1363 -0.3457
11843SOL    HW137536   5.578   2.886   3.125 -2.6841  0.9314  1.3235
11843SOL    HW237537   5.524   2.776   3.213  0.4656 -1.0871  0.8963
11844SOL     OW37538   7.567   8.282   0.473 -0.4541  0.1763  0.1057
11844SOL    HW137539   7.650   8.263   0.431 -1.7685  0.0716 -2.7104
11844SOL    HW237540   7.541   8.367   0.438 -1.1533  0.5948  1.5717
11845SOL     OW37541   0.933   6.711   8.865 -0.2246  0.0941  0.2040
11845SOL    HW137542   0.860   6.746   8.814  0.2920  2.3394  0.9076
11845SOL    HW237543   0.988   6.666   8.801 -0.4163  1.4617 -0.9569
11846SOL     OW37544   9.750   2.669   6.971  0.4177 -0.4928 -0.1154
11846SOL    HW137545   9.802   2.736   6.925  0.4673 -1.7505 -1.9854
11846SOL    HW237546   9.701   2.625   6.902 -2.2968 -0.1486  1.4553
11847SOL     OW37547   4.540  10.144   7.886 -0.6565 -0.3617 -0.2408
11847SOL    HW137548   4.615  10.144   7.826 -0.3151 -0.8036  0.1813
11847SOL    HW237549   4.579  10.155   7.972 -1.2658  2.4024 -0.2189
11848SOL     OW37550   9.288  11.254   8.266  0.1615  0.1205  0.2416
11848SOL    HW137551   9.322  11.311   8.335 -1.3626  0.2778  0.9054
11848SOL    HW237552   9.365  11.206   8.234  1.4416  2.2708 -0.1148
11849SOL     OW37553   4.344   4.843   5.829  0.0725 -0.2491 -0.2370
11849SOL    HW137554   4.401   4.919   5.843  0.6640 -0.7824  0.3143
11849SOL    HW237555   4.404   4.770   5.813 -0.4685 -0.7065 -0.2174
11850SOL     OW37556   5.792  10.205   5.038 -0.5036  0.3572  0.0624
11850SOL    HW137557   5.811  10.236   4.950 -0.8025  1.7414  0.4732
11850SOL    HW237558   5.877  10.196   5.080 -0.4325  1.2208  0.1234
11851SOL     OW37559   8.543   2.772   7.543  0.1445 -0.2092  1.0256
11851SOL    HW137560   8.554   2.770   7.448 -1.1344 -1.1969  0.8752
11851SOL    HW237561   8.469   2.713   7.560  0.3979 -0.1027  2.6391
11852SOL     OW37562   0.166   5.111  10.550 -0.4647  0.1233 -0.3603
11852SOL    HW137563   0.126   5.146  10.470  1.0908 -0.1904 -1.2970
11852SOL    HW237564   0.198   5.025  10.525 -2.5874 -1.2936  1.4255
11853SOL     OW37565   3.697  10.369  10.505  0.3021 -0.1028 -0.0837
11853SOL    HW137566   3.693  10.401  10.595 -0.0571 -2.3976  0.7728
11853SOL    HW237567   3.779  10.320  10.501  0.8736  0.8817 -1.3736
11854SOL     OW37568   5.557   1.192   9.163 -0.2731  0.1090  0.0121
11854SOL    HW137569   5.583   1.276   9.125  1.2352 -0.0773  0.5542
11854SOL    HW237570   5.534   1.212   9.253  1.6522 -0.2448  0.6310
11855SOL     OW37571   9.586   6.496   5.738 -0.1696 -0.0793 -0.4594
11855SOL    HW137572   9.628   6.413   5.715  0.5629  0.5566 -1.5025
11855SOL    HW237573   9.560   6.485   5.829  3.3932 -0.1020  0.7296
11856SOL     OW37574   8.058   5.090   2.290 -0.2281 -0.1478 -0.0554
11856SOL    HW137575   8.014   5.057   2.369  2.3480 -2.0720  0.7049
11856SOL    HW237576   8.117   5.158   2.322 -1.9769  1.8917 -0.9634
11857SOL     OW37577   8.252   5.890  10.915  0.4501 -0.3457 -0.1244
11857SOL    HW137578   8.243   5.797  10.896 -1.1842 -0.3256  0.4005
11857SOL    HW237579   8.226   5.898  11.007 -0.6268  0.7710 -0.4903
11858SOL     OW37580   2.379   6.743   2.337 -0.6390 -0.4498 -0.4271
11858SOL    HW137581   2.289   6.757   2.308  0.1189  1.8538 -2.0261
11858SOL    HW237582   2.402   6.824   2.383  1.0869 -0.2711 -1.4988
11859SOL     OW37583   5.921  10.731   8.628 -0.3763  0.0176  0.0955
11859SOL    HW137584   5.961  10.818   8.619  0.4211 -0.2991  0.4281
11859SOL    HW237585   5.921  10.696   8.539  1.1091 -0.3870  0.2128
11860SOL     OW37586   7.172   6.196  10.624  0.0162  0.2584  0.7910
11860SOL    HW137587   7.168   6.122  10.564  0.2458  0.2451  0.7917
11860SOL    HW237588   7.222   6.263  10.577 -1.7709  1.1174  0.0366
11861SOL     OW37589   6.217   7.987   8.033  0.2529 -0.2547  0.0021
11861SOL    HW137590   6.253   7.915   7.982  0.4313 -0.4614  0.4195
11861SOL    HW237591   6.154   8.029   7.974 -0.2857 -1.1069 -0.0464
11862SOL     OW37592   2.078   5.365   8.390 -0.2638  0.1473 -0.3039
11862SOL    HW137593   2.070   5.275   8.361 -0.3753 -0.5051  1.5952
11862SOL    HW237594   2.157   5.398   8.349  1.4900 -1.8062  1.2860
11863SOL     OW37595   6.208   1.372   0.412 -0.5035  0.9537 -0.7113
11863SOL    HW137596   6.148   1.422   0.467  0.6944 -0.4007  2.0453
11863SOL    HW237597   6.159   1.293   0.389  0.3027 -0.5583  2.2460
11864SOL     OW37598  10.936   9.335   8.354  0.0912  0.4126 -0.0051
11864SOL    HW137599  10.841   9.338   8.344 -0.2288 -1.7715  1.5662
11864SOL    HW237600  10.955   9.397   8.425 -0.1814  0.6758 -0.1620
11865SOL     OW37601   5.674   2.458   4.518 -0.4943  0.7699  0.4866
11865SOL    HW137602   5.758   2.504   4.528 -1.6808  2.9721  1.0470
11865SOL    HW237603   5.663   2.411   4.601  1.0676 -1.2713 -0.3603
11866SOL     OW37604   8.401   4.063  10.346  0.5693 -0.5591 -0.2925
11866SOL    HW137605   8.447   4.065  10.262 -0.5837 -1.5272 -0.9799
11866SOL    HW237606   8.409   4.152  10.380 -0.6475  0.4223 -2.3895
11867SOL     OW37607   8.571   4.834   5.509 -0.0777  0.2113  0.2052
11867SOL    HW137608   8.597   4.894   5.439 -0.3551 -0.3416 -0.3850
11867SOL    HW237609   8.587   4.747   5.473 -0.2771 -0.0818  0.8137
11868SOL     OW37610   6.110   3.573   2.982 -0.3219 -0.2124  0.1329
11868SOL    HW137611   6.032   3.616   2.948  0.6439 -0.8842 -3.2422
11868SOL    HW237612   6.184   3.622   2.945  0.8013 -1.9567 -0.0567
11869SOL     OW37613   2.998   3.175   6.652 -0.2511 -0.2087  0.0799
11869SOL    HW137614   2.985   3.263   6.617  1.5122  1.0977  2.4119
11869SOL    HW237615   3.039   3.126   6.581 -1.6657  0.6706 -1.4071
11870SOL     OW37616   2.892   0.282   9.766  0.0314  0.5547  0.1913
11870SOL    HW137617   2.906   0.240   9.851 -1.4713  0.7499  0.5665
11870SOL    HW237618   2.814   0.239   9.730  0.2575  0.9390 -0.7798
11871SOL     OW37619  10.733   5.003   0.413  0.1511 -0.7065 -0.0919
11871SOL    HW137620  10.766   5.051   0.336  0.8637  0.3345  0.8331
11871SOL    HW237621  10.710   4.917   0.379  0.2947 -0.2112 -1.5154
11872SOL     OW37622   9.816   6.846   1.219  0.1348 -0.6122 -0.7556
11872SOL    HW137623   9.729   6.845   1.181 -1.6791  1.6171  2.7542
11872SOL    HW237624   9.807   6.802   1.303  1.7785  1.4129  0.6149
11873SOL     OW37625   1.254   8.427  10.628 -0.0227  0.0408  0.1167
11873SOL    HW137626   1.334   8.480  10.630 -0.4208  0.7011  2.7680
11873SOL    HW237627   1.183   8.490  10.617 -0.3561 -0.1474  1.0445
11874SOL     OW37628   4.645   5.860   5.917 -0.4199  0.2582 -0.1075
11874SOL    HW137629   4.679   5.874   6.005 -0.0716  0.4301 -0.2688
11874SOL    HW237630   4.707   5.905   5.860  0.6638 -1.8113 -0.6404
11875SOL     OW37631   5.763   6.811   0.934  0.2501 -0.1837 -0.0354
11875SOL    HW137632   5.687   6.768   0.895  1.6118 -1.8160 -0.9905
11875SOL    HW237633   5.776   6.890   0.881 -1.1915  0.5420  0.6197
11876SOL     OW37634   5.519   5.996   3.813 -0.0833  0.6064 -0.0555
11876SOL    HW137635   5.519   6.080   3.859  0.4427  1.0984 -0.9240
11876SOL    HW237636   5.431   5.987   3.778 -0.2408  0.6352  0.3350
11877SOL     OW37637   7.590   0.442   8.977  0.1464  0.1701 -0.0979
11877SOL    HW137638   7.499   0.416   8.967  0.2469  0.1431 -1.0304
11877SOL    HW237639   7.595   0.528   8.935  0.4989  0.2833  0.1698
11878SOL     OW37640   8.285   8.643   4.170 -0.1473 -0.1832 -0.6291
11878SOL    HW137641   8.216   8.577   4.184 -0.2214  0.0501  0.1795
11878SOL    HW237642   8.239   8.719   4.134 -0.6292  0.5691  1.4455
11879SOL     OW37643   6.382  10.811   0.788  0.3795  0.1390  0.3119
11879SOL    HW137644   6.376  10.719   0.815 -1.1134  0.2080  0.3085
11879SOL    HW237645   6.341  10.813   0.702  1.4696  0.6171 -0.2033
11880SOL     OW37646   3.381   2.599   2.936  1.1534  0.0600  0.3745
11880SOL    HW137647   3.417   2.664   2.876 -1.8292 -0.6467 -2.4680
11880SOL    HW237648   3.301   2.639   2.970  0.4067 -1.2699  0.2606
11881SOL     OW37649  10.835   3.199   8.040 -0.1363  0.0343 -0.3377
11881SOL    HW137650  10.929   3.192   8.051 -0.1825  0.3675  0.3652
11881SOL    HW237651  10.816   3.153   7.959  0.6210 -0.0918 -0.4474
11882SOL     OW37652   2.408   2.292   6.849  0.5066  0.7224 -0.0127
11882SOL    HW137653   2.392   2.353   6.921 -1.2271 -1.3169  1.4663
11882SOL    HW237654   2.321   2.275   6.812  0.9384 -0.7294 -0.4403
11883SOL     OW37655  11.285   7.102  10.289 -0.3218 -0.2946  1.0292
11883SOL    HW137656  11.243   7.188  10.285 -0.3341 -0.3213 -2.5778
11883SOL    HW237657  11.376   7.119  10.263 -0.9518 -1.5546 -2.4809
11884SOL     OW37658   6.953   9.898   3.995  0.5404 -0.8016 -0.1189
11884SOL    HW137659   6.888   9.861   4.054  0.0305 -2.5078 -1.6308
11884SOL    HW237660   7.007   9.955   4.049 -2.0539  0.4848  1.2454
11885SOL     OW37661   8.357   7.702   3.873  0.2241  0.2634 -0.2444
11885SOL    HW137662   8.340   7.620   3.919  0.8169  2.0340  3.4992
11885SOL    HW237663   8.271   7.742   3.862 -0.0123 -0.5544 -1.6152
11886SOL     OW37664   4.845   8.941   6.681  0.2820 -0.3479 -0.2242
11886SOL    HW137665   4.861   9.010   6.746 -1.3308 -0.4389  0.3148
11886SOL    HW237666   4.904   8.963   6.608  1.7182  0.0684  1.0174
11887SOL     OW37667   7.339   4.874   8.020 -0.6221 -0.2019  0.1244
11887SOL    HW137668   7.272   4.810   7.995  0.8772 -2.1469  0.8122
11887SOL    HW237669   7.416   4.848   7.970 -0.6799  2.9429 -1.8580
11888SOL     OW37670   2.771   5.227   6.318 -0.1103  0.0975 -0.0305
11888SOL    HW137671   2.775   5.212   6.223 -0.8026  1.0475 -0.2254
11888SOL    HW237672   2.713   5.158   6.351 -0.5822  0.2913 -0.4363
11889SOL     OW37673   2.857   5.405   3.124  0.5189 -0.0495  0.3046
11889SOL    HW137674   2.780   5.437   3.170 -1.0510 -2.7125 -0.2730
11889SOL    HW237675   2.855   5.451   3.040  1.4288  2.2122  1.4194
11890SOL     OW37676   1.998   2.393   6.050  0.2009  0.1044 -0.3703
11890SOL    HW137677   2.046   2.370   6.130 -2.2044  2.6378  2.0117
11890SOL    HW237678   1.924   2.333   6.048 -1.6629  2.1250  1.4373
11891SOL     OW37679   4.683   5.908   1.765 -0.1602 -0.0166  0.9485
11891SOL    HW137680   4.620   5.857   1.817 -1.5836 -1.6706 -2.1156
11891SOL    HW237681   4.636   5.930   1.685  2.0977  1.8340  0.0103
11892SOL     OW37682   8.705   5.598   4.396  0.0044 -0.3872 -0.7099
11892SOL    HW137683   8.775   5.576   4.334 -0.6416  0.1897 -1.6700
11892SOL    HW237684   8.722   5.688   4.422 -0.5054 -0.1696 -1.1210
11893SOL     OW37685   3.293   7.764   0.018 -0.2250  0.4552 -0.3993
11893SOL    HW137686   3.278   7.720  -0.066  1.6906  1.9290 -1.5804
11893SOL    HW237687   3.285   7.694   0.083  1.4807 -1.4670 -2.1047
11894SOL     OW37688  10.074   1.739   8.345  0.7793  0.2217 -0.3426
11894SOL    HW137689  10.079   1.764   8.253 -1.5894  1.5667 -0.1921
11894SOL    HW237690  10.001   1.790   8.380  1.8082  0.0009  2.3893
11895SOL     OW37691   4.877  11.139   7.306 -0.8591 -0.2768  0.2736
11895SOL    HW137692   4.955  11.163   7.255 -0.7600 -2.2440 -0.5774
11895SOL    HW237693   4.862  11.047   7.285 -3.2648 -0.0182  0.6388
11896SOL     OW37694   9.663   6.570  10.937 -0.7598 -0.4130  0.0082
11896SOL    HW137695   9.584   6.563  10.991 -0.6963  0.5776  0.2547
11896SOL    HW237696   9.734   6.580  11.000 -0.6984  0.8537 -0.2422
11897SOL     OW37697   1.106   0.251  11.008 -0.7396  0.5560 -0.3325
11897SOL    HW137698   1.164   0.261  11.083  1.7037  0.3791 -2.1014
11897SOL    HW237699   1.154   0.289  10.935 -3.0296  0.7146 -1.8474
11898SOL     OW37700   8.667   5.770   6.204  0.6943  0.0860  0.1864
11898SOL    HW137701   8.611   5.711   6.255  2.9669 -0.5480  2.1633
11898SOL    HW237702   8.728   5.712   6.159  1.5992  0.8348  0.4162
11899SOL     OW37703   6.788   4.612  10.825  0.0545 -0.1106 -0.2782
11899SOL    HW137704   6.798   4.551  10.897 -2.2932  1.4869  1.5415
11899SOL    HW237705   6.793   4.558  10.746  2.0478 -2.0006  1.0260
11900SOL     OW37706   3.382   3.932  10.458 -0.4949  0.2532 -0.0057
11900SOL    HW137707   3.312   3.966  10.514 -0.1509  0.0852  0.5395
11900SOL    HW237708   3.439   3.884  10.518 -0.1069  0.0817 -0.5034
11901SOL     OW37709   2.073   4.365   0.007 -0.1602 -0.1704 -0.4571
11901SOL    HW137710   2.108   4.381  -0.080 -0.6933  0.1627 -0.6077
11901SOL    HW237711   1.978   4.368  -0.003 -0.2552 -1.3983 -0.1090
11902SOL     OW37712   9.035   3.683   7.888  0.4538 -0.3808  0.1233
11902SOL    HW137713   8.966   3.617   7.881 -2.9198  2.8063 -0.1318
11902SOL    HW237714   9.049   3.694   7.982 -0.8290  0.1898  0.2699
11903SOL     OW37715   3.215   3.485   6.847  0.0074  0.0208 -0.1929
11903SOL    HW137716   3.190   3.460   6.935 -0.6922  0.3376 -0.2892
11903SOL    HW237717   3.147   3.547   6.820  0.5117  0.3421 -0.7487
11904SOL     OW37718  11.231   1.921  11.061  0.2412 -0.8305 -0.2161
11904SOL    HW137719  11.219   2.016  11.064  0.0187 -0.6599 -3.1151
11904SOL    HW237720  11.147   1.886  11.091  0.9757 -0.2609  2.8476
11905SOL     OW37721   1.935   7.657   5.203  0.1897  0.1862 -0.4048
11905SOL    HW137722   1.964   7.684   5.290  1.3135 -1.3157 -0.2783
11905SOL    HW237723   1.988   7.710   5.143 -0.1419  0.7743 -0.1882
11906SOL     OW37724   1.976   4.538   6.281  0.3314  0.0469  0.0370
11906SOL    HW137725   1.990   4.612   6.222  0.5189 -0.1731 -0.1981
11906SOL    HW237726   2.002   4.461   6.229 -1.4872 -0.3675 -0.3414
11907SOL     OW37727   4.257   6.285   9.304  0.0974 -0.3124  0.3348
11907SOL    HW137728   4.332   6.320   9.255 -1.4535 -0.1809 -2.1041
11907SOL    HW237729   4.263   6.190   9.291 -0.7918 -0.2202 -0.9336
11908SOL     OW37730   4.784   1.323   0.945  0.3199 -0.4437 -0.2355
11908SOL    HW137731   4.833   1.242   0.958  0.8246 -0.2851 -1.0384
11908SOL    HW237732   4.758   1.320   0.852 -2.6946 -1.3405  0.5248
11909SOL     OW37733   4.949  10.387   7.608  0.2463  0.2706 -0.0476
11909SOL    HW137734   4.872  10.405   7.554 -1.4498 -1.0983  1.7587
11909SOL    HW237735   4.987  10.308   7.572  1.3737  1.4049 -1.4587
11910SOL     OW37736   1.435   9.678  10.802  0.4952 -0.6026  0.3093
11910SOL    HW137737   1.417   9.753  10.860 -0.5354  1.2933 -2.2705
11910SOL    HW237738   1.445   9.717  10.715 -0.4593 -3.5275 -1.2443
11911SOL     OW37739   7.446   1.548   4.544 -0.2479 -0.7644  0.9129
11911SOL    HW137740   7.357   1.514   4.548 -0.7683  0.5737  1.0423
11911SOL    HW237741   7.498   1.475   4.509 -1.8889 -0.5528 -2.2562
11912SOL     OW37742   5.957   4.972   0.496 -0.7807 -0.5706  0.1317
11912SOL    HW137743   5.875   4.986   0.543 -3.0875  2.0372 -4.0427
11912SOL    HW237744   5.997   5.059   0.490  0.1854 -1.0716 -1.3201
11913SOL     OW37745   5.757   6.083   1.880 -0.5764 -0.5029  0.6493
11913SOL    HW137746   5.789   6.134   1.954 -0.0097 -1.1445  0.8667
11913SOL    HW237747   5.663   6.097   1.879 -0.3774  0.9725  0.3639
11914SOL     OW37748   0.692   6.606   4.427  0.1909 -0.5100  0.1612
11914SOL    HW137749   0.721   6.558   4.505  1.5944 -0.6676 -0.4218
11914SOL    HW237750   0.677   6.695   4.458  0.5151 -0.6250  0.6634
11915SOL     OW37751   1.927   0.528   8.358  0.5178 -0.5423 -0.1745
11915SOL    HW137752   2.022   0.532   8.368  0.2836  0.1068  2.9573
11915SOL    HW237753   1.907   0.595   8.292  2.2001 -0.7938 -0.9943
11916SOL     OW37754   4.278   8.695   3.118 -0.4954 -0.3036 -0.4942
11916SOL    HW137755   4.243   8.613   3.084 -0.8336 -0.3730  0.0117
11916SOL    HW237756   4.311   8.673   3.205  1.3428 -0.3673 -1.1668
11917SOL     OW37757  10.239   7.009   7.011  0.0981 -0.5509  0.5302
11917SOL    HW137758  10.321   7.027   7.057  0.8699 -2.7429  0.1137
11917SOL    HW237759  10.251   6.922   6.973 -2.2867 -0.7692  0.1269
11918SOL     OW37760   8.048   4.091  10.666 -0.0790 -0.2124  0.3323
11918SOL    HW137761   8.038   4.186  10.654  2.5315  0.2675  1.2157
11918SOL    HW237762   8.046   4.056  10.576  1.5919  1.0642 -0.2605
11919SOL     OW37763  10.101   7.493   4.290 -0.3115 -0.4992  0.1531
11919SOL    HW137764  10.106   7.402   4.319  3.0304 -0.2936  0.5918
11919SOL    HW237765  10.115   7.545   4.370 -0.1174  0.3185 -0.3935
11920SOL     OW37766   5.822   5.210   9.698 -0.5457 -0.5584 -0.0761
11920SOL    HW137767   5.888   5.151   9.662 -1.0650 -0.4485 -1.2750
11920SOL    HW237768   5.752   5.152   9.728 -0.8509 -0.5851 -0.8227
11921SOL     OW37769   7.700   7.049   5.845  0.0687 -0.4326 -0.1089
11921SOL    HW137770   7.773   6.989   5.831 -0.7443 -1.6035  0.4655
11921SOL    HW237771   7.632   6.995   5.886 -0.4910  1.0145  0.9767
11922SOL     OW37772   3.303   2.870   5.313  0.1198 -0.0796  0.4579
11922SOL    HW137773   3.237   2.831   5.370 -0.8936  2.7248  1.3540
11922SOL    HW237774   3.355   2.926   5.371 -1.3199  3.3684 -1.2930
11923SOL     OW37775   7.622   4.522   2.471  0.6204  0.2104 -0.3299
11923SOL    HW137776   7.626   4.440   2.520 -0.1028  0.0355 -0.5551
11923SOL    HW237777   7.587   4.586   2.533  0.1419  0.0955 -0.4822
11924SOL     OW37778   8.061   2.602   4.161  0.3478 -0.1449 -0.4070
11924SOL    HW137779   7.972   2.568   4.158 -0.4133  1.5364  1.2126
11924SOL    HW237780   8.078   2.618   4.254  1.9308  0.5961 -0.7909
11925SOL     OW37781   5.434   6.662   0.899 -0.6489  0.1774  0.2895
11925SOL    HW137782   5.435   6.573   0.863 -0.0470 -0.1349  1.0697
11925SOL    HW237783   5.425   6.718   0.822 -0.3946 -0.5284 -0.2668
11926SOL     OW37784   8.934   4.138   3.141  0.6969  0.2666 -0.2058
11926SOL    HW137785   9.024   4.170   3.150 -0.5015  3.8901  0.1921
11926SOL    HW237786   8.889   4.172   3.218 -1.7469  1.3948 -2.0130
11927SOL     OW37787   6.559   4.095   0.889 -0.4705 -0.0889  0.4185
11927SOL    HW137788   6.575   4.012   0.935  1.7064  0.2539  0.3786
11927SOL    HW237789   6.539   4.068   0.799  1.1486 -0.6049  0.1695
11928SOL     OW37790   5.410   9.395  10.882 -0.3711 -0.7590  0.1042
11928SOL    HW137791   5.478   9.359  10.938 -1.5743  0.4312  2.4756
11928SOL    HW237792   5.445   9.481  10.855 -0.2087 -0.9025 -0.1458
11929SOL     OW37793   9.064  10.712   3.766 -0.6430 -0.2820  0.5603
11929SOL    HW137794   9.041  10.628   3.805 -1.3715 -0.4810 -0.2800
11929SOL    HW237795   8.983  10.743   3.726  0.1490 -0.2773 -1.1388
11930SOL     OW37796   3.683   2.576   5.069 -0.0418  0.2470 -0.0042
11930SOL    HW137797   3.717   2.516   5.135 -0.2363  0.1476  0.0072
11930SOL    HW237798   3.588   2.571   5.078 -0.1221 -0.7358 -1.1578
11931SOL     OW37799   2.326   0.634   3.443 -0.3436  0.1495  0.0478
11931SOL    HW137800   2.240   0.622   3.483 -0.7204 -0.6273 -0.9562
11931SOL    HW237801   2.361   0.546   3.435  0.5389  0.4620  0.4157
11932SOL     OW37802   6.227   4.509   3.900 -0.3330 -0.2715 -0.0469
11932SOL    HW137803   6.234   4.414   3.899  0.6953 -0.2146 -0.1469
11932SOL    HW237804   6.270   4.535   3.982 -0.1911  0.1279 -0.2443
11933SOL     OW37805   6.505   8.666   7.836 -0.0392 -0.1998  0.7664
11933SOL    HW137806   6.557   8.634   7.763 -0.3169 -0.5465  0.7160
11933SOL    HW237807   6.502   8.593   7.898 -1.9611 -0.8790 -0.0296
11934SOL     OW37808   4.689   7.026   9.170  0.0650  0.1364  0.2752
11934SOL    HW137809   4.690   7.004   9.263 -1.3443 -0.5444  0.1457
11934SOL    HW237810   4.641   7.109   9.165 -2.6014 -1.3273 -0.0906
11935SOL     OW37811   3.142  11.121   0.615 -0.8250 -0.0438 -0.1378
11935SOL    HW137812   3.070  11.070   0.651  0.7646 -2.1283  0.3362
11935SOL    HW237813   3.213  11.111   0.679  0.5384  0.2022 -1.5426
11936SOL     OW37814   8.534   4.581   0.173  0.4382  0.7618 -0.3069
11936SOL    HW137815   8.554   4.601   0.265 -0.7399 -0.1182  0.1628
11936SOL    HW237816   8.619   4.566   0.133  0.8975 -0.6464  1.0899
11937SOL     OW37817   2.861   4.441   2.585  0.0957  0.1508 -0.4539
11937SOL    HW137818   2.853   4.536   2.591  0.5589  0.1395  0.4467
11937SOL    HW237819   2.774   4.408   2.608  0.3898  0.3045  0.9176
11938SOL     OW37820  10.260   3.629   4.528 -0.3622  0.1386  0.3009
11938SOL    HW137821  10.212   3.548   4.541 -0.3262  0.1842  0.7475
11938SOL    HW237822  10.286   3.655   4.616  1.9207 -0.7697 -0.0311
11939SOL     OW37823   1.276   6.839   6.533 -0.5065  0.2370  0.1289
11939SOL    HW137824   1.261   6.761   6.480 -1.3020  0.9607 -0.7349
11939SOL    HW237825   1.370   6.857   6.524 -0.8182  1.1077 -2.1835
11940SOL     OW37826   9.143   6.822   4.494  0.2264 -0.1126  0.2730
11940SOL    HW137827   9.094   6.740   4.489 -0.7268  0.5124 -2.0810
11940SOL    HW237828   9.235   6.795   4.496 -0.0878 -1.2630 -0.0271
11941SOL     OW37829   2.646   8.754  11.067  0.2512  0.0710 -0.0032
11941SOL    HW137830   2.664   8.662  11.046  2.5265  0.4374  0.1848
11941SOL    HW237831   2.728   8.800  11.049 -0.4637  1.8774  1.0857
11942SOL     OW37832   2.467   0.787   0.930 -1.3520  0.3799 -0.7129
11942SOL    HW137833   2.485   0.693   0.925 -3.1721  0.0390 -1.6894
11942SOL    HW237834   2.372   0.793   0.936 -1.3353  2.1886 -1.6024
11943SOL     OW37835   1.333  10.212   8.344  0.1647  0.3222  0.2337
11943SOL    HW137836   1.282  10.175   8.272  2.6943  0.3549 -1.7450
11943SOL    HW237837   1.326  10.306   8.332 -0.9052  0.3807  1.2063
11944SOL     OW37838   5.979   8.864   4.329 -1.2328 -0.3168 -0.0146
11944SOL    HW137839   5.936   8.786   4.364 -1.7851 -0.2895 -0.6224
11944SOL    HW237840   5.953   8.867   4.237  0.4656 -0.5720 -0.5408
11945SOL     OW37841  10.860  10.934   7.637  0.2340 -0.2949  0.2819
11945SOL    HW137842  10.887  10.982   7.715  1.8192 -0.5137 -0.1085
11945SOL    HW237843  10.934  10.876   7.618 -0.8719 -1.5419 -0.3426
11946SOL     OW37844   2.020   7.895   9.696 -0.6812  0.2831  0.4288
11946SOL    HW137845   2.004   7.957   9.767  0.5583  0.0275  0.9517
11946SOL    HW237846   2.115   7.897   9.683 -0.4949 -2.0666  0.9844
11947SOL     OW37847   1.229   9.587   9.471  0.0729  0.1854 -0.5778
11947SOL    HW137848   1.171   9.641   9.526  1.6116  2.1907 -0.8097
11947SOL    HW237849   1.288   9.545   9.534 -0.0119  0.1592 -0.5150
11948SOL     OW37850  10.837   0.856   0.223  0.0338 -0.2421  0.2031
11948SOL    HW137851  10.859   0.943   0.256  0.3065 -0.1672 -0.1748
11948SOL    HW237852  10.835   0.865   0.128 -1.2050 -0.3580  0.2026
11949SOL     OW37853   4.336   9.495   3.495 -0.6625 -0.2645 -0.0313
11949SOL    HW137854   4.375   9.512   3.580 -1.1451  1.9524 -0.1663
11949SOL    HW237855   4.408   9.466   3.439  0.2727  1.1294  0.4062
11950SOL     OW37856  10.830   3.294   4.884 -0.4093  0.3486 -0.2668
11950SOL    HW137857  10.791   3.376   4.855 -2.3889 -1.0994 -2.0400
11950SOL    HW237858  10.833   3.239   4.805  2.8547 -0.6088  0.3685
11951SOL     OW37859   1.288  10.005   7.294 -0.4220  0.1448 -0.2456
11951SOL    HW137860   1.221   9.941   7.270 -1.4944  1.4359 -0.8493
11951SOL    HW237861   1.266  10.032   7.383 -0.5082  0.3017 -0.3125
11952SOL     OW37862   6.823  10.088   4.746  0.4681  0.0736 -0.1232
11952SOL    HW137863   6.888  10.042   4.798 -0.2895 -1.5230 -0.5237
11952SOL    HW237864   6.874  10.141   4.684  1.5752 -3.4336 -2.5079
11953SOL     OW37865   8.038   0.514   6.278  0.0045  0.1891 -0.1945
11953SOL    HW137866   7.997   0.428   6.280  0.8545 -0.2230  2.5789
11953SOL    HW237867   7.988   0.567   6.340 -1.0903  2.1036 -2.4872
11954SOL     OW37868   4.935   2.029   3.718  0.0114  0.2884 -0.1099
11954SOL    HW137869   5.002   2.045   3.652  0.5290  0.9436  0.5463
11954SOL    HW237870   4.935   2.109   3.772 -1.6007  0.4947 -0.3491
11955SOL     OW37871   2.451   3.832   9.123  0.5270  0.1300 -0.2967
11955SOL    HW137872   2.424   3.884   9.047 -0.1528  0.8495  0.4121
11955SOL    HW237873   2.543   3.812   9.107  0.3564  0.1669 -1.3658
11956SOL     OW37874   7.558   5.174   2.162  0.7704 -0.0364 -0.6898
11956SOL    HW137875   7.541   5.098   2.106  1.4032 -0.3188 -0.5018
11956SOL    HW237876   7.594   5.138   2.243  1.4635  0.4801 -0.7535
11957SOL     OW37877   2.944   2.716   6.846  0.0044 -0.2841  0.2506
11957SOL    HW137878   2.854   2.705   6.815  0.3375  0.7783 -1.1804
11957SOL    HW237879   2.979   2.627   6.849 -0.8956 -0.6540  0.2483
11958SOL     OW37880   9.942   1.585   0.271 -0.2409  0.2064 -0.5868
11958SOL    HW137881   9.934   1.611   0.179 -0.6511  0.6523 -0.4223
11958SOL    HW237882  10.035   1.561   0.280 -0.5085 -1.3750 -1.5217
11959SOL     OW37883   1.294   9.019   9.952  0.3953  0.3456  0.0068
11959SOL    HW137884   1.260   9.098   9.994  1.1762  0.5077  0.3455
11959SOL    HW237885   1.216   8.973   9.921 -0.3085 -0.3525  2.5970
11960SOL     OW37886   2.164   3.447  10.771 -0.4174 -0.4439 -0.9217
11960SOL    HW137887   2.183   3.511  10.703  3.2217 -1.5805 -1.1999
11960SOL    HW237888   2.192   3.363  10.734 -2.1238 -1.7608  0.5694
11961SOL     OW37889   2.468   5.889   7.844 -0.4695  0.2978  0.1035
11961SOL    HW137890   2.376   5.902   7.869 -1.0701 -0.2463 -1.7299
11961SOL    HW237891   2.466   5.824   7.774  1.4585 -0.8274  0.9865
11962SOL     OW37892  10.226  10.829   4.230  0.1659  0.1488  0.2924
11962SOL    HW137893  10.275  10.808   4.309  0.3168 -1.6899 -0.2483
11962SOL    HW237894  10.142  10.864   4.262  1.0664  1.5979  1.2177
11963SOL     OW37895   7.966   8.926   5.364 -0.2303  0.2639 -0.0067
11963SOL    HW137896   7.918   9.000   5.326  0.0799  0.3421 -0.2533
11963SOL    HW237897   8.057   8.942   5.340 -0.5764 -2.9415 -4.9230
11964SOL     OW37898   4.859   5.102   4.035  0.4615 -0.0915 -0.0184
11964SOL    HW137899   4.796   5.035   4.008  0.4087  0.1664 -0.5434
11964SOL    HW237900   4.935   5.053   4.065  0.0916 -0.4015  0.4241
11965SOL     OW37901   6.923   2.407   8.470  0.1805  0.6646  0.9941
11965SOL    HW137902   6.855   2.340   8.473  0.3743  0.3896 -0.0958
11965SOL    HW237903   6.876   2.490   8.481 -0.2467  0.4396  0.8932
11966SOL     OW37904   7.900   6.456   2.400 -0.3389  0.8310 -0.1375
11966SOL    HW137905   7.841   6.481   2.329 -1.8252  1.4976  1.2663
11966SOL    HW237906   7.927   6.539   2.439 -0.6165  0.4488  0.8938
11967SOL     OW37907   8.642  10.923  10.749 -0.3863  0.6497  0.1085
11967SOL    HW137908   8.610  11.002  10.705  0.6630  1.0499  0.0399
11967SOL    HW237909   8.642  10.947  10.842 -4.1567 -0.7223  0.6565
11968SOL     OW37910   9.054   6.189   7.243  0.2740 -0.2298  0.4777
11968SOL    HW137911   9.022   6.239   7.318 -0.1040 -1.1216  0.9160
11968SOL    HW237912   9.150   6.189   7.254  0.2778  0.4037  0.4641
11969SOL     OW37913   6.514   3.258   7.684  0.1805 -0.3873 -0.0121
11969SOL    HW137914   6.536   3.349   7.700 -1.8082  0.2052 -0.3351
11969SOL    HW237915   6.563   3.235   7.605 -0.2711  0.8050 -0.6610
11970SOL     OW37916   6.669   0.696   6.960 -0.3867 -0.3108 -0.3724
11970SOL    HW137917   6.673   0.601   6.967  1.7821 -0.1380  2.6662
11970SOL    HW237918   6.725   0.717   6.885  2.2587 -1.3954  1.1354
11971SOL     OW37919   6.836   7.832   9.542 -1.0729  0.0104 -0.2812
11971SOL    HW137920   6.743   7.853   9.535 -0.9574  0.4859 -0.4427
11971SOL    HW237921   6.879   7.917   9.554 -0.5997 -0.1347 -0.8576
11972SOL     OW37922   9.777  10.127   7.286 -0.2591 -0.1287 -0.1224
11972SOL    HW137923   9.834  10.186   7.236 -0.4103 -0.5979 -0.8707
11972SOL    HW237924   9.820  10.042   7.281  0.4624  0.0780  1.7766
11973SOL     OW37925   4.649   5.420   4.123  0.4316  0.0693 -0.0978
11973SOL    HW137926   4.576   5.442   4.065  0.1778  1.5614  0.7452
11973SOL    HW237927   4.670   5.329   4.101 -1.2237 -0.1739 -0.8426
11974SOL     OW37928   0.837   8.854   0.529  0.0962 -0.3095  0.2940
11974SOL    HW137929   0.742   8.854   0.521  0.2191  0.3721 -2.2563
11974SOL    HW237930   0.858   8.776   0.580 -1.8430 -0.0741  1.5266
11975SOL     OW37931   3.311   5.002   5.900 -0.1126  0.1543  0.3137
11975SOL    HW137932   3.361   5.043   5.970 -1.1200  1.2302  0.4321
11975SOL    HW237933   3.339   4.910   5.901 -0.3991  0.0368  2.4233
11976SOL     OW37934   6.989   5.155  11.200  0.7705 -0.2961 -0.0784
11976SOL    HW137935   7.027   5.068  11.201  1.4300 -0.0174  1.1981
11976SOL    HW237936   6.909   5.147  11.252  1.0695 -0.0610  0.4354
11977SOL     OW37937   2.884   1.718   4.033  0.5694  0.1454  0.3239
11977SOL    HW137938   2.960   1.674   4.071  1.1690 -0.3080 -1.3174
11977SOL    HW237939   2.852   1.775   4.103  0.8545 -1.5479  1.9178
11978SOL     OW37940   5.222   4.233   6.983 -0.3853 -0.3263 -0.4051
11978SOL    HW137941   5.167   4.257   7.058 -0.8082  1.9913 -1.3710
11978SOL    HW237942   5.304   4.281   6.998 -0.1098 -0.6113 -0.9657
11979SOL     OW37943   0.152   1.796   3.796  0.5893  0.1829  0.5731
11979SOL    HW137944   0.067   1.751   3.797  0.5133  0.3334  0.9094
11979SOL    HW237945   0.130   1.889   3.796  0.7341  0.2393 -0.7652
11980SOL     OW37946   2.010   9.702   4.885 -0.5896  0.1563  0.1398
11980SOL    HW137947   2.076   9.699   4.816  0.8002 -2.3311  1.3901
11980SOL    HW237948   2.028   9.782   4.933  1.8588 -0.6019  0.6327
11981SOL     OW37949   0.061   0.252   1.375 -0.3945 -0.7504  0.9775
11981SOL    HW137950   0.033   0.178   1.428 -2.2875 -0.6230  0.2383
11981SOL    HW237951   0.002   0.251   1.300  2.0620 -0.8283 -1.0934
11982SOL     OW37952   6.561   8.708   5.319 -0.4246  0.2438 -0.2426
11982SOL    HW137953   6.564   8.617   5.291 -0.7705  0.4427 -0.9346
11982SOL    HW237954   6.502   8.751   5.258  0.6618  1.1855 -0.6687
11983SOL     OW37955   8.721   7.980   8.445  0.1503 -0.1783  0.3824
11983SOL    HW137956   8.693   8.046   8.381 -0.2288 -0.8472 -0.1704
11983SOL    HW237957   8.800   7.943   8.407  1.3634  1.1276  1.5372
11984SOL     OW37958   1.760   7.956   5.933  0.4201 -0.5229 -0.1622
11984SOL    HW137959   1.695   8.011   5.889 -0.0142 -1.0622 -0.1950
11984SOL    HW237960   1.716   7.873   5.948  0.4671 -0.2754  1.5542
11985SOL     OW37961   5.167   2.923   6.896 -0.0261  0.2729 -0.2786
11985SOL    HW137962   5.218   2.969   6.962  1.6994 -2.0714  0.1722
11985SOL    HW237963   5.080   2.964   6.900 -1.0634 -1.4532  5.5838
11986SOL     OW37964   5.771   3.101   4.433  0.0238  1.6922 -0.1287
11986SOL    HW137965   5.753   3.185   4.390  0.9314  1.2827 -1.3831
11986SOL    HW237966   5.849   3.068   4.388 -0.4171  0.0997  0.2317
11987SOL     OW37967   2.029   9.636   1.883  0.0065  0.3949 -0.7579
11987SOL    HW137968   2.070   9.662   1.800  0.8458  2.0120  0.1158
11987SOL    HW237969   2.097   9.651   1.949 -0.1038 -2.3517  0.0907
11988SOL     OW37970   1.770   7.441   7.894  0.2453 -0.3313 -0.7591
11988SOL    HW137971   1.734   7.423   7.981 -2.7039 -1.4031 -2.0425
11988SOL    HW237972   1.745   7.532   7.876  1.7224  0.2192 -0.1583
11989SOL     OW37973   3.110   3.076   7.757  0.3307 -0.1779 -0.1405
11989SOL    HW137974   3.052   3.144   7.790  0.2018 -0.7588  0.8911
11989SOL    HW237975   3.052   3.015   7.711  0.1149 -0.6793  0.7605
11990SOL     OW37976   0.594   7.682   1.732 -0.3204  0.0882 -0.5978
11990SOL    HW137977   0.620   7.593   1.751  0.4416  0.9040  2.7606
11990SOL    HW237978   0.552   7.713   1.812  0.8972  3.2490 -1.0221
11991SOL     OW37979   5.748   9.467   1.067 -0.4848 -0.6894 -0.9389
11991SOL    HW137980   5.662   9.507   1.085 -0.8128 -1.0600 -1.6401
11991SOL    HW237981   5.810   9.520   1.117 -1.2333 -1.0401  0.4122
11992SOL     OW37982   7.205   6.266   0.615  0.9056 -0.3622  0.1732
11992SOL    HW137983   7.248   6.311   0.542  1.7102  0.6582  1.2353
11992SOL    HW237984   7.126   6.317   0.632  0.5187 -0.8221 -0.2178
11993SOL     OW37985   9.834   3.304   8.454  0.0270  0.5098  0.6419
11993SOL    HW137986   9.781   3.235   8.493 -3.2543  0.5369 -3.1305
11993SOL    HW237987   9.917   3.261   8.431  0.0185 -0.7407  2.7164
11994SOL     OW37988   3.677   8.323   9.784  0.0770 -0.0827  0.3610
11994SOL    HW137989   3.653   8.387   9.717  2.1308 -1.8713 -2.2774
11994SOL    HW237990   3.681   8.239   9.737 -2.6154 -2.3560  3.6447
11995SOL     OW37991  10.578   1.832   0.801 -0.3788  0.6855  0.5249
11995SOL    HW137992  10.554   1.920   0.773 -0.5566  0.2710 -0.6653
11995SOL    HW237993  10.654   1.809   0.748 -0.5418 -0.0016  0.5780
11996SOL     OW37994   4.079   9.401   2.401 -0.2933  0.1972  0.0946
11996SOL    HW137995   4.005   9.367   2.450 -0.9551 -0.1308 -1.0909
11996SOL    HW237996   4.138   9.326   2.392  0.7975  0.7519  2.0749
11997SOL     OW37997   4.145   4.213   2.293 -0.5752 -0.4269 -0.0775
11997SOL    HW137998   4.099   4.249   2.369 -0.9800 -2.6529  0.8410
11997SOL    HW237999   4.179   4.129   2.325  0.9553 -0.5157 -1.8211
11998SOL     OW38000   3.433   7.816   2.430  0.0683 -0.0685 -0.4194
11998SOL    HW138001   3.450   7.902   2.467 -0.2958  0.2483 -0.9762
11998SOL    HW238002   3.495   7.758   2.475  0.0914  0.4159  0.1974
11999SOL     OW38003   3.826   3.961   3.681 -0.0675 -0.3185 -0.3831
11999SOL    HW138004   3.889   3.962   3.609 -0.2970  0.4326 -0.5829
11999SOL    HW238005   3.751   3.914   3.647 -0.0161 -0.3221 -0.4925
12000SOL     OW38006   8.419   0.465   9.139 -0.7722 -0.5271  0.0700
12000SOL    HW138007   8.398   0.551   9.176 -1.4796 -0.8491  0.4368
12000SOL    HW238008   8.352   0.451   9.072  0.9954  0.4268 -2.0016
12001SOL     OW38009   5.386   9.583   8.171 -0.0741 -0.0545 -0.0426
12001SOL    HW138010   5.372   9.592   8.265 -0.4958 -0.0476 -0.1049
12001SOL    HW238011   5.300   9.599   8.132 -0.9047 -3.9691 -0.2076
12002SOL     OW38012   1.493  10.352   8.903 -0.2264 -0.0213 -0.6009
12002SOL    HW138013   1.426  10.299   8.860 -0.0711  0.9725 -2.1539
12002SOL    HW238014   1.460  10.442   8.897 -0.7810  0.0931  2.5270
12003SOL     OW38015   8.875   3.705   1.341 -0.5925  0.0434 -0.6657
12003SOL    HW138016   8.816   3.773   1.375 -1.5660 -0.7586 -0.6974
12003SOL    HW238017   8.947   3.702   1.403 -0.8633  0.6627 -0.3124
12004SOL     OW38018   8.953   4.204   8.602  0.4983 -0.5399 -0.7241
12004SOL    HW138019   8.858   4.202   8.596  0.4924 -1.5731 -0.3885
12004SOL    HW238020   8.972   4.281   8.656  0.0991  2.3378 -4.2927
12005SOL     OW38021   4.161   7.339   9.368  0.2532  0.3282  0.0399
12005SOL    HW138022   4.090   7.389   9.328 -1.4611 -0.1629  2.2686
12005SOL    HW238023   4.178   7.384   9.451  1.6663 -0.3259  0.1359
12006SOL     OW38024   3.080   2.502   3.342 -0.3368 -0.6128  0.8690
12006SOL    HW138025   3.174   2.516   3.330 -0.5266  0.1891  0.2112
12006SOL    HW238026   3.071   2.409   3.361  0.5832 -0.7105  0.8468
12007SOL     OW38027   7.936  10.614   7.329 -0.2506  0.1296  0.3272
12007SOL    HW138028   7.911  10.704   7.347  2.5347  0.9410  0.4442
12007SOL    HW238029   7.884  10.590   7.252 -0.5691  2.0526 -0.1034
12008SOL     OW38030   8.538   1.531   8.403  0.7778 -1.2039 -0.3993
12008SOL    HW138031   8.564   1.518   8.312  1.4290 -3.0020 -0.0064
12008SOL    HW238032   8.540   1.443   8.441 -0.9503 -0.7027  0.9848
12009SOL     OW38033   1.309   6.258   7.575 -0.2253 -0.1367  0.0547
12009SOL    HW138034   1.339   6.308   7.651  0.4327 -0.1167 -0.2139
12009SOL    HW238035   1.239   6.202   7.609  0.3641 -0.4528  0.7726
12010SOL     OW38036   0.282  10.150  11.062 -0.2880 -0.8752 -0.6617
12010SOL    HW138037   0.370  10.137  11.027  1.0473  1.0472  1.6565
12010SOL    HW238038   0.274  10.245  11.073 -0.8223 -1.1907  3.2557
12011SOL     OW38039   8.947   4.521   5.847  0.4074 -0.1792 -0.0798
12011SOL    HW138040   8.920   4.463   5.775  0.2571 -1.1599  0.7312
12011SOL    HW238041   9.042   4.527   5.838  0.3134  0.3098 -0.7958
12012SOL     OW38042   7.740   7.675   5.802  0.6424  0.3845 -0.0856
12012SOL    HW138043   7.686   7.745   5.839  0.4049  1.8801 -2.9645
12012SOL    HW238044   7.822   7.718   5.777  0.9007 -0.5934 -0.9950
12013SOL     OW38045   4.038   7.344   5.911 -0.5511 -0.0253  0.3938
12013SOL    HW138046   4.022   7.343   5.817  0.8915 -0.1625  0.1379
12013SOL    HW238047   4.060   7.435   5.930  0.1139 -0.1938  0.4317
12014SOL     OW38048   3.345   0.068   9.365  0.2172 -0.5720  0.5073
12014SOL    HW138049   3.370   0.007   9.434  2.0658 -1.3878 -0.8085
12014SOL    HW238050   3.366   0.022   9.284 -0.9469  0.7533 -0.5953
12015SOL     OW38051   6.111   7.494   0.338 -0.7781  0.4611  0.0106
12015SOL    HW138052   6.104   7.482   0.432  1.6473 -1.6173  0.0344
12015SOL    HW238053   6.147   7.582   0.327 -1.2109  0.7693  0.9942
12016SOL     OW38054   2.684   5.821   0.256 -0.4364  0.0241 -0.4244
12016SOL    HW138055   2.676   5.891   0.191 -1.6015 -0.5055 -0.8978
12016SOL    HW238056   2.652   5.743   0.210  0.0211 -0.6398  0.3649
12017SOL     OW38057   3.680   8.947   5.623 -0.4979 -0.6755 -0.8435
12017SOL    HW138058   3.719   9.024   5.664 -0.0981 -0.2051 -2.0651
12017SOL    HW238059   3.657   8.976   5.535 -0.9648 -1.7664 -1.0932
12018SOL     OW38060   6.846   6.152   4.131  1.2191  0.0106  0.0070
12018SOL    HW138061   6.935   6.188   4.130  0.1018  3.1812  1.5173
12018SOL    HW238062   6.790   6.226   4.109 -1.1407 -1.6573  0.0944
12019SOL     OW38063   0.024   7.295   1.454 -0.2556 -0.6375 -0.7112
12019SOL    HW138064   0.068   7.274   1.536 -0.9066 -3.6322 -1.0107
12019SOL    HW238065   0.042   7.388   1.440 -1.6848  0.5709  3.7571
12020SOL     OW38066   5.845   5.474   5.555  0.0381 -0.3282 -0.5282
12020SOL    HW138067   5.920   5.533   5.562 -0.2372 -0.1200  0.8577
12020SOL    HW238068   5.874   5.407   5.493  0.8274  0.5338 -1.1331
12021SOL     OW38069   3.524   8.037   2.553  0.1487 -0.0549  0.0482
12021SOL    HW138070   3.497   8.020   2.643  1.1121  1.2974  0.6326
12021SOL    HW238071   3.464   8.105   2.522  1.0753  0.9537  0.3993
12022SOL     OW38072   4.631   0.749   2.109  0.4416  0.0450  0.3327
12022SOL    HW138073   4.706   0.790   2.153 -0.1500 -0.1333  1.5398
12022SOL    HW238074   4.568   0.733   2.179 -0.9098  0.5707 -0.7271
12023SOL     OW38075   5.825   4.003   8.753  0.3816  0.3307 -0.7524
12023SOL    HW138076   5.912   3.978   8.782 -0.5400 -1.5359  0.6720
12023SOL    HW238077   5.832   4.011   8.658  2.0581  0.0734 -0.6667
12024SOL     OW38078   4.525   6.663  10.119 -0.2889 -0.0889 -0.3284
12024SOL    HW138079   4.536   6.568  10.124 -1.0525 -0.2520 -1.3707
12024SOL    HW238080   4.482   6.678  10.034  0.5413  1.2575 -0.5489
12025SOL     OW38081  11.099   7.008   5.318 -0.1256 -0.0130 -0.4049
12025SOL    HW138082  11.174   6.951   5.308 -0.6294 -0.4204 -2.4444
12025SOL    HW238083  11.134   7.089   5.355  0.9798 -0.8285  0.3729
12026SOL     OW38084   0.555   1.452   9.745  0.3345 -1.0508  0.1165
12026SOL    HW138085   0.606   1.533   9.746  0.2425 -0.9369 -1.5570
12026SOL    HW238086   0.571   1.412   9.831 -0.8941  1.5109  1.6529
12027SOL     OW38087   5.849   3.520   4.921 -0.2462  0.0287 -0.7068
12027SOL    HW138088   5.889   3.532   5.007 -0.6236 -1.3296 -0.3256
12027SOL    HW238089   5.822   3.608   4.895  1.5238  0.7390 -0.2694
12028SOL     OW38090   3.634   8.246   3.392  0.2965  0.4811 -0.5176
12028SOL    HW138091   3.677   8.205   3.317  0.9467 -1.1592  0.6993
12028SOL    HW238092   3.704   8.292   3.437 -0.1324  1.6382 -0.9910
12029SOL     OW38093   6.083   2.612   5.595  0.3508 -0.0800 -0.0848
12029SOL    HW138094   6.038   2.534   5.628  2.5819 -0.8845  1.2097
12029SOL    HW238095   6.040   2.629   5.511 -2.0720 -1.0031  0.8536
12030SOL     OW38096  10.022  11.097   8.643 -0.1619 -0.3743  0.6113
12030SOL    HW138097  10.092  11.049   8.686 -0.6407 -0.5943  1.1612
12030SOL    HW238098  10.030  11.187   8.676  2.3736  0.6732 -2.3762
12031SOL     OW38099   3.243   4.390  10.802 -0.0373 -0.0678 -0.3025
12031SOL    HW138100   3.238   4.298  10.826  1.1077 -0.0513  0.0560
12031SOL    HW238101   3.220   4.437  10.882  2.6111 -0.0313  0.5404
12032SOL     OW38102   6.682  10.850   6.854  0.9279  0.3574 -0.0848
12032SOL    HW138103   6.717  10.767   6.822  1.7298  0.6843 -0.0738
12032SOL    HW238104   6.759  10.905   6.867  0.3300  1.5420 -1.3286
12033SOL     OW38105   2.075   9.868   5.662 -0.3593 -0.4422  0.3651
12033SOL    HW138106   2.149   9.873   5.602 -0.3980  0.3413  0.3703
12033SOL    HW238107   2.084   9.945   5.718  0.4991 -1.9315  2.3724
12034SOL     OW38108   7.501  10.274   5.508 -0.3864  1.1884 -0.5431
12034SOL    HW138109   7.536  10.279   5.597 -1.0674 -1.3155 -0.0350
12034SOL    HW238110   7.578  10.254   5.454  0.0091  2.5993 -0.5423
12035SOL     OW38111  10.528   4.804  10.681 -0.0503 -0.4098  0.0547
12035SOL    HW138112  10.509   4.826  10.590 -0.7484  1.3433  0.5896
12035SOL    HW238113  10.608   4.853  10.702  0.7288 -1.6462  0.1028
12036SOL     OW38114   0.294   8.065   0.860  0.4767  0.1451 -0.1645
12036SOL    HW138115   0.307   8.153   0.896 -0.0760 -0.1493  0.8082
12036SOL    HW238116   0.358   8.010   0.906 -0.2237 -0.2338  0.3828
12037SOL     OW38117   3.087   9.572   0.539 -0.8058  0.0642  0.1770
12037SOL    HW138118   3.171   9.537   0.569 -1.0798 -2.0887 -1.3368
12037SOL    HW238119   3.110   9.631   0.467 -0.5555 -0.0025  0.2013
12038SOL     OW38120   8.034   3.088  10.486 -0.4175  0.0328 -0.1937
12038SOL    HW138121   8.095   3.113  10.556  0.7220  1.0068 -1.4797
12038SOL    HW238122   7.968   3.034  10.530  0.5094  0.2321  1.5384
12039SOL     OW38123   3.922   4.802   6.133 -0.2595 -0.2358  0.6580
12039SOL    HW138124   3.855   4.813   6.066 -0.9170 -1.5397  1.0755
12039SOL    HW238125   3.989   4.867   6.111 -1.5594  0.9580  0.1273
12040SOL     OW38126   9.026   9.682   0.888 -0.1441 -0.6804  0.7802
12040SOL    HW138127   8.957   9.616   0.884 -1.3077  0.4536  1.3049
12040SOL    HW238128   8.989   9.753   0.941  1.5816 -0.2105  1.4543
12041SOL     OW38129   8.903   7.877   6.493 -0.2992 -0.2248  0.2890
12041SOL    HW138130   8.921   7.808   6.558  0.9667  1.0077  1.3138
12041SOL    HW238131   8.811   7.899   6.506 -0.4925 -1.1368  0.5279
12042SOL     OW38132   0.566   6.582   1.314  0.3390 -0.1821  0.0590
12042SOL    HW138133   0.623   6.552   1.385  0.7447  0.6238  0.0914
12042SOL    HW238134   0.562   6.677   1.326 -1.7287 -0.2925  0.6013
12043SOL     OW38135   8.013   5.679   0.607 -0.2118  0.7850  0.0544
12043SOL    HW138136   8.030   5.609   0.670  0.0318  0.7826 -0.0132
12043SOL    HW238137   7.919   5.671   0.587 -0.4538  1.2464  0.9690
12044SOL     OW38138  10.792   9.141   3.422 -0.3272 -0.0427 -0.7204
12044SOL    HW138139  10.875   9.178   3.391 -0.2664 -0.0362 -0.5536
12044SOL    HW238140  10.725   9.184   3.369 -0.2688  0.4094 -0.4306
12045SOL     OW38141   4.605   6.929   8.306 -0.0339  0.2376 -0.5486
12045SOL    HW138142   4.598   6.880   8.225  0.7052 -0.7908 -0.0085
12045SOL    HW238143   4.689   6.904   8.343 -0.8963 -0.3258  1.1804
12046SOL     OW38144   5.526  10.554   8.803  0.2416 -0.0439 -0.0823
12046SOL    HW138145   5.554  10.605   8.879 -1.2127  1.0061 -0.2078
12046SOL    HW238146   5.607  10.540   8.753  0.9748  0.5356  0.8946
12047SOL     OW38147   6.047   5.761   9.222  0.1352  0.5573  0.3527
12047SOL    HW138148   6.050   5.827   9.153 -1.2930 -0.7516 -1.0525
12047SOL    HW238149   6.139   5.738   9.237  0.4553  0.1269 -1.9162
12048SOL     OW38150   7.194   7.221   0.609 -0.5927  0.3557 -0.2380
12048SOL    HW138151   7.181   7.137   0.565 -1.1439  0.0648  0.4649
12048SOL    HW238152   7.289   7.233   0.610 -0.4768 -0.5224  0.1210
12049SOL     OW38153   1.751   7.744   1.706  0.3369 -0.9866 -0.1177
12049SOL    HW138154   1.832   7.702   1.738 -0.5456 -3.1282 -0.5013
12049SOL    HW238155   1.696   7.752   1.784  0.9691  0.6741  0.1837
12050SOL     OW38156   7.559   8.191   5.999 -0.2837  0.0603 -0.5443
12050SOL    HW138157   7.472   8.226   5.979 -0.1394  0.5334 -0.3534
12050SOL    HW238158   7.545   8.130   6.071 -0.1631  1.7927  1.0231
12051SOL     OW38159   6.168   1.330   8.213  0.1962 -0.1245 -0.2151
12051SOL    HW138160   6.218   1.397   8.166  3.4198 -2.6239 -0.6909
12051SOL    HW238161   6.202   1.332   8.302 -1.1104  0.1077  0.3097
12052SOL     OW38162   7.505   8.908   4.824  0.8927 -0.0828  0.1387
12052SOL    HW138163   7.501   8.822   4.783  1.7483  0.5816 -1.4739
12052SOL    HW238164   7.585   8.906   4.876  1.5999  0.0896 -0.8894
12053SOL     OW38165   6.793  11.158   0.648 -0.1337  0.5441 -0.0639
12053SOL    HW138166   6.739  11.121   0.717 -0.0754  1.9656  0.7774
12053SOL    HW238167   6.880  11.167   0.687 -0.2504  1.9427 -0.0872
12054SOL     OW38168   9.179   0.961   1.904  0.3376  0.3599  0.4739
12054SOL    HW138169   9.156   1.052   1.921  0.6949  0.5776 -0.1746
12054SOL    HW238170   9.228   0.963   1.822  1.4003 -0.2655  1.0555
12055SOL     OW38171   5.761   8.081   2.374  0.0748  0.2023 -0.3335
12055SOL    HW138172   5.802   8.006   2.417 -2.2479 -1.5766 -1.0522
12055SOL    HW238173   5.834   8.127   2.332  1.4379 -2.4396 -1.0764
12056SOL     OW38174  10.029   5.158   0.460  0.1056  0.9120  0.2244
12056SOL    HW138175   9.966   5.218   0.500 -0.7204 -0.5961  1.3235
12056SOL    HW238176  10.114   5.186   0.494 -0.4409  0.5023  2.0369
12057SOL     OW38177   4.893   5.215   7.782  0.4320 -0.1605  0.0211
12057SOL    HW138178   4.836   5.175   7.716 -1.3365  1.3768  0.5132
12057SOL    HW238179   4.917   5.299   7.744  2.0056 -0.5682  0.0551
12058SOL     OW38180   3.304   1.165   8.198 -0.4155 -0.8040 -0.2352
12058SOL    HW138181   3.308   1.070   8.182 -0.5182 -0.8047 -0.2534
12058SOL    HW238182   3.221   1.179   8.242  0.1956 -0.8998  0.9946
12059SOL     OW38183   7.223   6.654   5.864  0.3929  0.2315  0.0460
12059SOL    HW138184   7.199   6.634   5.954 -1.1900  2.4133  0.2003
12059SOL    HW238185   7.242   6.748   5.865 -0.4352  0.4709 -2.0322
12060SOL     OW38186   7.613   2.271   3.775  0.1180 -0.3468  0.2776
12060SOL    HW138187   7.698   2.316   3.774  0.9219 -1.7941  0.2298
12060SOL    HW238188   7.635   2.180   3.755 -1.6503 -0.4368 -1.6177
12061SOL     OW38189   8.248   0.958   9.704  0.4441  0.1261  0.1066
12061SOL    HW138190   8.321   0.948   9.642 -0.1038 -1.5388 -0.3269
12061SOL    HW238191   8.270   1.036   9.754  2.6830 -0.4961  0.2067
12062SOL     OW38192   7.039   0.598   4.674  0.6180 -0.2844  0.3186
12062SOL    HW138193   7.050   0.689   4.702  0.0365 -1.1517  3.7550
12062SOL    HW238194   6.966   0.565   4.726 -0.5530 -2.2164 -2.3323
12063SOL     OW38195   2.703   2.801   5.390  0.3809 -0.9381  0.2316
12063SOL    HW138196   2.690   2.718   5.435  0.6183 -0.8416  0.4802
12063SOL    HW238197   2.785   2.789   5.342  0.7081 -0.6556  0.7126
12064SOL     OW38198   7.744   7.247   1.044 -0.0127 -0.6994 -0.1788
12064SOL    HW138199   7.814   7.192   1.078 -0.1477 -1.1244 -0.5742
12064SOL    HW238200   7.682   7.256   1.117 -0.7010 -2.2763 -0.5285
12065SOL     OW38201   3.072  10.495   1.051 -0.3796  0.2495  0.0958
12065SOL    HW138202   3.048  10.420   0.998  0.4043 -0.2309  0.4043
12065SOL    HW238203   3.072  10.569   0.990 -2.9053  0.3551  0.1410
12066SOL     OW38204   2.407   1.214   4.875 -0.5964 -0.0891  0.2804
12066SOL    HW138205   2.393   1.147   4.942  0.6041 -0.0530  0.5921
12066SOL    HW238206   2.497   1.243   4.889 -1.0415  1.4945  0.0635
12067SOL     OW38207   0.930   3.255   5.543  0.3211  0.1302  0.1807
12067SOL    HW138208   0.989   3.275   5.470  2.3877  1.6387  2.1269
12067SOL    HW238209   0.843   3.278   5.510  1.3928  2.6698 -1.2310
12068SOL     OW38210   4.549   7.256   7.298  0.3270 -0.2212  0.1830
12068SOL    HW138211   4.496   7.189   7.255 -0.0531  0.0595  0.2037
12068SOL    HW238212   4.485   7.309   7.346  0.8542 -1.2717  2.1334
12069SOL     OW38213   6.258   5.493   7.770 -0.0435 -0.4112 -0.0023
12069SOL    HW138214   6.256   5.522   7.861 -0.5775 -2.0780  0.5519
12069SOL    HW238215   6.214   5.563   7.721  0.8267  0.8156  0.8919
12070SOL     OW38216   7.479   0.421   0.605 -0.1512 -0.5191  0.2080
12070SOL    HW138217   7.559   0.469   0.586  0.7104  0.1436  4.6145
12070SOL    HW238218   7.411   0.489   0.613 -0.5259 -0.7964 -0.4725
12071SOL     OW38219   1.391   6.770   2.209 -0.0796  0.7871 -0.0525
12071SOL    HW138220   1.413   6.805   2.123  0.6526 -2.2515 -1.2289
12071SOL    HW238221   1.460   6.802   2.267  0.4547  1.3758 -0.9988
12072SOL     OW38222   5.072   7.586  10.597  0.3312 -0.2296  0.3641
12072SOL    HW138223   5.025   7.618  10.674 -0.4378  0.6413 -0.4397
12072SOL    HW238224   5.012   7.524  10.556  1.9379 -3.1673  2.0942
12073SOL     OW38225   6.948   6.169   6.594  0.4697  0.3170 -0.8576
12073SOL    HW138226   6.946   6.168   6.690 -0.9556  1.7702 -0.8320
12073SOL    HW238227   7.025   6.117   6.571  0.9911  0.1607  1.0763
12074SOL     OW38228   1.883   0.180   4.000 -0.0561 -0.2911  0.0011
12074SOL    HW138229   1.977   0.189   4.016 -0.2145  2.5806 -0.1148
12074SOL    HW238230   1.857   0.264   3.963 -2.8284 -0.7464  0.6944
12075SOL     OW38231   4.466   4.406   1.196 -0.6324  0.5245 -0.7661
12075SOL    HW138232   4.481   4.326   1.246 -1.0251  1.4920  0.9815
12075SOL    HW238233   4.495   4.384   1.107  3.2756 -0.3039  0.4921
12076SOL     OW38234   2.269   1.609   8.193 -0.2709 -0.0383 -0.2646
12076SOL    HW138235   2.274   1.535   8.132  0.2847 -0.4281  0.2404
12076SOL    HW238236   2.360   1.633   8.209 -0.4423  0.6435 -0.2818
12077SOL     OW38237   9.707   2.197   2.563 -0.3474  0.1979  0.1515
12077SOL    HW138238   9.700   2.153   2.478 -0.4479 -1.6992  1.0959
12077SOL    HW238239   9.617   2.200   2.595 -0.5762  2.5154 -0.5252
12078SOL     OW38240   5.143   3.051   0.250 -0.2389  0.3220  0.1660
12078SOL    HW138241   5.222   3.004   0.278  0.0701  1.6445  1.7018
12078SOL    HW238242   5.073   3.015   0.305 -1.0596 -1.8229 -2.1369
12079SOL     OW38243   4.888   5.548   8.891 -0.9142  0.0933  0.5528
12079SOL    HW138244   4.829   5.585   8.957 -1.1198  0.7852 -0.0090
12079SOL    HW238245   4.944   5.621   8.866  0.9704 -0.8026  1.8924
12080SOL     OW38246   7.540  10.463   7.936 -0.0104 -0.7634 -0.6433
12080SOL    HW138247   7.611  10.481   7.875  1.5466 -0.5717  1.1256
12080SOL    HW238248   7.475  10.416   7.884  0.7967  0.1964 -2.6491
12081SOL     OW38249   0.623   0.471   0.600  0.7709  0.7099  0.0147
12081SOL    HW138250   0.577   0.553   0.618 -0.6542  0.0176 -0.2348
12081SOL    HW238251   0.688   0.494   0.534 -1.3480  1.2307 -2.0666
12082SOL     OW38252   8.697   9.902   3.164 -0.6118 -0.4381  0.2306
12082SOL    HW138253   8.707   9.876   3.255 -1.8062 -1.0087  0.2234
12082SOL    HW238254   8.785   9.926   3.135 -0.1314 -0.8038  1.3598
12083SOL     OW38255   9.738  10.538   5.824 -0.6694  0.2368  0.3645
12083SOL    HW138256   9.711  10.478   5.754 -2.2622 -0.1098  1.2326
12083SOL    HW238257   9.789  10.605   5.779 -1.7583  0.0952 -1.1709
12084SOL     OW38258   9.061   4.352   0.809 -0.5979 -0.1211 -0.1230
12084SOL    HW138259   8.975   4.390   0.828 -1.2625 -0.9851 -1.3001
12084SOL    HW238260   9.050   4.258   0.822 -0.0852 -0.3400 -1.1477
12085SOL     OW38261   0.716   8.924   9.679  0.0603  0.4409  0.1403
12085SOL    HW138262   0.652   8.913   9.749  0.3539 -1.0439  0.1909
12085SOL    HW238263   0.665   8.913   9.598  0.1315 -0.1383  0.1702
12086SOL     OW38264   6.463   7.684   2.030  0.0254  0.3183 -0.2107
12086SOL    HW138265   6.547   7.678   2.076  0.2105 -1.2159 -0.6883
12086SOL    HW238266   6.410   7.613   2.068 -0.0502 -0.5517 -1.8524
12087SOL     OW38267  11.124   0.171  10.388 -0.5124  0.2737  0.7237
12087SOL    HW138268  11.105   0.254  10.431 -0.2693  0.6864  0.0621
12087SOL    HW238269  11.042   0.123  10.389 -0.4288  0.1417  1.9188
12088SOL     OW38270   4.600   3.428   1.098  0.1937 -0.1708 -0.4229
12088SOL    HW138271   4.564   3.367   1.164  0.9197  0.7695  0.8984
12088SOL    HW238272   4.524   3.479   1.070 -0.5520 -2.0038 -2.0008
12089SOL     OW38273   4.959   4.159   7.982  0.3453  0.2471 -0.5452
12089SOL    HW138274   4.930   4.215   7.911  2.3843  1.0706 -0.7932
12089SOL    HW238275   4.963   4.217   8.058 -0.3792 -0.2896 -0.0722
12090SOL     OW38276   5.361   2.468   4.654 -0.7485  0.4191 -0.3587
12090SOL    HW138277   5.313   2.497   4.577  0.4349 -1.8861 -2.0777
12090SOL    HW238278   5.419   2.542   4.676  0.5740  0.3202 -3.1605
12091SOL     OW38279   6.962   6.320   3.024 -0.3000 -0.6761  0.8233
12091SOL    HW138280   6.996   6.372   2.952  0.3066 -0.7237  1.0685
12091SOL    HW238281   6.870   6.303   3.001  0.5258 -2.8820 -1.1924
12092SOL     OW38282   2.674   4.059   6.830  0.0816  0.2995  0.5943
12092SOL    HW138283   2.639   4.112   6.758  0.3320 -1.6703 -1.0515
12092SOL    HW238284   2.768   4.053   6.812  0.1793 -0.0332  1.1990
12093SOL     OW38285   3.630   6.726   5.193 -0.6886 -0.1875  0.7475
12093SOL    HW138286   3.672   6.793   5.246 -0.1431 -2.1526  2.9417
12093SOL    HW238287   3.653   6.643   5.235 -1.4055 -1.7891 -1.7819
12094SOL     OW38288   7.660   2.543   7.029  0.5031  0.6018 -0.2313
12094SOL    HW138289   7.639   2.456   6.995  0.8873  0.4303 -0.0391
12094SOL    HW238290   7.607   2.552   7.108 -0.5213  1.0703 -0.9524
12095SOL     OW38291   8.787   2.306   1.718 -0.0873 -0.3832  0.0328
12095SOL    HW138292   8.786   2.360   1.798 -3.4633  0.7980 -0.6323
12095SOL    HW238293   8.697   2.277   1.709  0.4624 -1.4666 -2.7556
12096SOL     OW38294   2.902   7.920  11.017  0.1993 -0.5165  0.3112
12096SOL    HW138295   2.825   7.919  11.075  0.3143 -0.1278  0.4761
12096SOL    HW238296   2.947   7.838  11.036  0.1670 -0.4494  0.6834
12097SOL     OW38297   9.274   9.160   4.321  0.0710  0.4873  0.2514
12097SOL    HW138298   9.264   9.193   4.411  0.7791 -1.5977  1.1758
12097SOL    HW238299   9.368   9.147   4.311  0.2038  2.3709 -1.5008
12098SOL     OW38300   5.220   4.708  10.681 -0.3709 -0.4003  0.0570
12098SOL    HW138301   5.212   4.646  10.753 -2.2284 -0.9270 -0.5394
12098SOL    HW238302   5.295   4.676  10.630 -0.2775 -1.1912  0.6699
12099SOL     OW38303   4.351   4.447   0.913  1.1451 -1.8830 -0.4869
12099SOL    HW138304   4.294   4.382   0.954  0.0544 -0.7357 -0.0958
12099SOL    HW238305   4.306   4.470   0.831 -0.4059  0.8421  0.9594
12100SOL     OW38306   2.152   0.607   9.808 -0.1174  0.3858  0.5708
12100SOL    HW138307   2.236   0.631   9.770  1.0661 -1.9584  1.4817
12100SOL    HW238308   2.103   0.569   9.735  1.1749 -1.7869  0.7348
12101SOL     OW38309   8.365   1.949   3.761 -0.1100  0.2492  0.7072
12101SOL    HW138310   8.379   2.020   3.698 -0.4961 -1.2212 -1.1517
12101SOL    HW238311   8.297   1.895   3.721  0.4532 -1.3863  1.8319
12102SOL     OW38312   6.465   6.889   1.620  0.2478  0.3518 -0.2771
12102SOL    HW138313   6.410   6.846   1.554  0.8278  0.6421 -0.9687
12102SOL    HW238314   6.403   6.939   1.674 -0.0842  2.0477 -2.0816
12103SOL     OW38315   0.719   6.792   3.521 -0.1361 -0.3142  0.0051
12103SOL    HW138316   0.769   6.723   3.478 -3.6323 -1.6109 -2.4894
12103SOL    HW238317   0.714   6.862   3.455 -2.0588 -0.5395 -0.1511
12104SOL     OW38318   6.869   3.512   7.963  0.4049 -0.1029 -0.0286
12104SOL    HW138319   6.820   3.595   7.965 -1.1286 -0.9631 -0.5769
12104SOL    HW238320   6.947   3.530   8.016 -0.3358  1.4120  0.6242
12105SOL     OW38321   5.644   0.021   3.569  0.7189  0.4187  0.6785
12105SOL    HW138322   5.623   0.089   3.633 -2.3186 -0.7006  1.0769
12105SOL    HW238323   5.716  -0.028   3.608 -0.3759  0.3939  2.7986
12106SOL     OW38324   8.934   4.527   5.275  0.0949 -0.2571  0.0332
12106SOL    HW138325   9.000   4.585   5.312 -2.0722  1.2835  1.7998
12106SOL    HW238326   8.952   4.527   5.181  1.9449  0.9026  0.3303
12107SOL     OW38327   3.643   0.178   7.447  0.1945 -0.6175  0.7783
12107SOL    HW138328   3.728   0.174   7.492 -0.5413  0.5498  2.3633
12107SOL    HW238329   3.580   0.198   7.516 -1.2975 -0.7444 -0.4851
12108SOL     OW38330   1.029   7.491  10.180  0.1867 -0.1272  0.1161
12108SOL    HW138331   1.041   7.566  10.121 -3.4916 -1.3461 -2.5720
12108SOL    HW238332   1.097   7.429  10.153  1.4118  1.0723  0.3435
12109SOL     OW38333   2.112   9.833   4.292 -0.4529 -0.3436  0.0299
12109SOL    HW138334   2.169   9.821   4.367  0.6987 -1.2434 -0.9461
12109SOL    HW238335   2.135   9.920   4.259 -0.2641 -0.3423  0.1610
12110SOL     OW38336   9.355   0.554   0.514 -0.4227  1.0281  0.2351
12110SOL    HW138337   9.350   0.512   0.428  2.6955 -0.0275  0.4260
12110SOL    HW238338   9.325   0.486   0.575  0.7254  0.4856  0.2198
12111SOL     OW38339   1.880  10.513   2.485 -0.0644 -0.3880  0.3700
12111SOL    HW138340   1.912  10.426   2.464 -2.3433 -1.1309 -0.4125
12111SOL    HW238341   1.811  10.498   2.550  1.2196  1.1245  2.1818
12112SOL     OW38342   3.321  10.255   1.919  0.3942  0.6005  0.0252
12112SOL    HW138343   3.404  10.265   1.872  0.2664  0.0563 -0.3139
12112SOL    HW238344   3.321  10.164   1.949  0.2071  0.7773  0.5787
12113SOL     OW38345   4.308  10.815   7.316  0.0839  0.2310  0.4323
12113SOL    HW138346   4.243  10.883   7.334 -0.1049 -0.1511  1.2855
12113SOL    HW238347   4.257  10.734   7.312 -0.0296  0.3472 -2.8817
12114SOL     OW38348   7.297   0.704   1.262 -0.4785 -0.3445 -0.3108
12114SOL    HW138349   7.322   0.694   1.354  0.0873 -0.8884 -0.5141
12114SOL    HW238350   7.354   0.642   1.215 -0.6211  0.0741 -1.0463
12115SOL     OW38351   2.435   1.321   8.854 -0.2088  0.5433 -0.3241
12115SOL    HW138352   2.361   1.369   8.816 -1.3334  0.8994  2.0978
12115SOL    HW238353   2.406   1.230   8.857 -0.2678  0.5712 -0.0190
12116SOL     OW38354  11.012  10.402   8.857 -0.6088  0.9337 -0.6505
12116SOL    HW138355  11.059  10.440   8.931  0.8365 -0.6955 -0.6444
12116SOL    HW238356  10.982  10.477   8.806  2.0390  2.1218 -0.6481
12117SOL     OW38357   5.296   5.210   3.897 -0.0274 -0.6664  0.0219
12117SOL    HW138358   5.257   5.175   3.977 -1.4692  1.4287  0.3334
12117SOL    HW238359   5.385   5.235   3.922 -0.0595 -1.1463  0.6391
12118SOL     OW38360   4.693   2.704   8.166 -0.1470 -0.3435 -0.0373
12118SOL    HW138361   4.679   2.633   8.230 -1.1315 -1.5966 -1.5819
12118SOL    HW238362   4.728   2.659   8.089 -0.2761  0.9444 -0.8613
12119SOL     OW38363  11.098   3.006   1.626 -0.2341 -0.2530  0.7040
12119SOL    HW138364  11.063   2.917   1.622  0.2157 -0.3829 -1.9977
12119SOL    HW238365  11.075   3.037   1.714 -0.2666 -3.0593  1.7781
12120SOL     OW38366   7.323  10.167   4.562 -0.9112  0.3553  0.4711
12120SOL    HW138367   7.350  10.207   4.480  1.0707 -0.9605  0.4026
12120SOL    HW238368   7.368  10.083   4.564  0.2514  0.9118  3.5053
12121SOL     OW38369   0.279   0.447   8.608 -0.5381  0.0398  0.1423
12121SOL    HW138370   0.306   0.356   8.618 -1.8788 -0.7131 -2.2197
12121SOL    HW238371   0.352   0.489   8.561 -0.0041  0.1613  1.0599
12122SOL     OW38372  10.874   9.414   0.617 -0.2451 -0.5812 -0.6190
12122SOL    HW138373  10.935   9.375   0.554 -2.1613  0.3395 -3.2499
12122SOL    HW238374  10.801   9.352   0.621 -0.0783 -0.7070  0.8895
12123SOL     OW38375   7.324   6.553  10.149  0.2140  0.0742  0.3976
12123SOL    HW138376   7.360   6.484  10.092 -0.4957  0.0949 -0.0940
12123SOL    HW238377   7.230   6.537  10.149  0.0299  1.0879  0.2155
12124SOL     OW38378   4.637   1.823   5.159  0.0834 -0.6540 -0.1348
12124SOL    HW138379   4.577   1.864   5.221 -2.7048 -0.0197 -2.9647
12124SOL    HW238380   4.632   1.730   5.179 -1.3816 -0.5464  0.1544
12125SOL     OW38381   3.344   8.361   5.938 -0.3171 -0.0664 -0.2022
12125SOL    HW138382   3.315   8.274   5.909 -1.3709  0.2489 -0.1322
12125SOL    HW238383   3.315   8.368   6.028 -0.2313  0.3610 -0.2043
12126SOL     OW38384   9.168   4.541   0.427  0.4053  0.1939 -0.3817
12126SOL    HW138385   9.215   4.461   0.451  1.8683  1.9913  3.7572
12126SOL    HW238386   9.229   4.589   0.371  0.3946 -0.6142 -1.1085
12127SOL     OW38387   0.025   9.102  10.621  0.7307  0.3294 -0.3248
12127SOL    HW138388  -0.066   9.109  10.594  0.9780 -0.7447 -1.5279
12127SOL    HW238389   0.027   9.136  10.710 -1.1064 -0.9411  0.2492
12128SOL     OW38390   6.582   2.866   6.702 -0.3151  0.1496  0.6706
12128SOL    HW138391   6.500   2.854   6.750 -1.6582 -0.6092 -1.6556
12128SOL    HW238392   6.648   2.819   6.753 -1.2766  0.8373  2.6276
12129SOL     OW38393   7.225  10.193   9.882 -0.7867 -0.0664 -0.2373
12129SOL    HW138394   7.238  10.285   9.863  1.1997 -0.1450  0.4950
12129SOL    HW238395   7.144  10.190   9.933 -0.0355  1.5169  1.1664
12130SOL     OW38396   9.157   3.677   5.618  0.4814  0.2217 -0.4431
12130SOL    HW138397   9.191   3.601   5.664  3.6531 -0.2443 -3.1989
12130SOL    HW238398   9.077   3.646   5.576 -0.2402 -0.4494  1.3139
12131SOL     OW38399   4.223  11.018   8.854  0.4132 -0.3028 -0.4039
12131SOL    HW138400   4.184  11.002   8.940 -0.8575 -0.0147 -0.9008
12131SOL    HW238401   4.258  11.108   8.860 -2.1411  0.8194 -1.0081
12132SOL     OW38402   4.344   3.960   7.970 -0.0242 -0.4205  0.1489
12132SOL    HW138403   4.407   4.020   7.930  0.9701 -1.2509  0.4231
12132SOL    HW238404   4.265   4.012   7.983  0.2748  0.3790 -1.1199
12133SOL     OW38405   1.359   9.046   3.791 -0.3346 -0.4553 -0.0435
12133SOL    HW138406   1.273   9.072   3.824 -0.7692 -1.9544  0.0450
12133SOL    HW238407   1.420   9.077   3.858 -1.0540 -1.9199  1.3453
12134SOL     OW38408   9.524   1.358   2.394 -0.3688 -0.5924  0.0043
12134SOL    HW138409   9.562   1.283   2.440  0.8881 -1.2562 -1.9514
12134SOL    HW238410   9.577   1.366   2.314  0.8178  3.5524  0.9482
12135SOL     OW38411   8.480   1.740   1.803  0.0392 -0.7983  0.0748
12135SOL    HW138412   8.426   1.785   1.867  0.8909 -0.0935  0.3251
12135SOL    HW238413   8.420   1.716   1.733 -0.6987 -0.5969  0.6253
12136SOL     OW38414   2.063   8.704   3.923 -0.1663 -0.2798  0.1540
12136SOL    HW138415   2.098   8.644   3.990  1.4087  0.2323 -0.1841
12136SOL    HW238416   1.971   8.716   3.948  0.1639 -0.7880  1.7203
12137SOL     OW38417   4.518   7.872   3.204  0.1330 -0.5706 -0.0041
12137SOL    HW138418   4.464   7.848   3.129 -0.1039  0.1388 -0.0633
12137SOL    HW238419   4.519   7.793   3.258 -1.0544 -0.5687  0.0502
12138SOL     OW38420   3.182   0.858   8.398  0.0903 -0.3367  0.2810
12138SOL    HW138421   3.257   0.815   8.438 -0.0698 -0.0049  0.9467
12138SOL    HW238422   3.211   0.878   8.309  1.2064  0.7894  0.8640
12139SOL     OW38423   2.628   5.857  10.969 -0.3056  0.4590 -0.3101
12139SOL    HW138424   2.635   5.771  11.008 -0.6555 -0.2824 -1.8038
12139SOL    HW238425   2.667   5.916  11.033 -1.9573 -0.4982  1.6722
12140SOL     OW38426   5.301   0.159   9.856  0.2490  0.4834  0.1791
12140SOL    HW138427   5.287   0.232   9.916 -0.9435 -0.4896  1.1426
12140SOL    HW238428   5.322   0.085   9.912  0.3090 -0.1777 -0.6900
12141SOL     OW38429   7.547   3.723   1.580  0.3768 -0.0988  0.1616
12141SOL    HW138430   7.593   3.721   1.497  0.4637 -0.3643  0.2142
12141SOL    HW238431   7.464   3.678   1.563 -0.0760  0.8023 -0.0560
12142SOL     OW38432   9.365   2.167   6.530 -0.5956  0.1207  0.2238
12142SOL    HW138433   9.435   2.233   6.535  1.5712 -1.9324 -0.7747
12142SOL    HW238434   9.317   2.188   6.450 -1.0910  1.4930  0.8577
12143SOL     OW38435   6.447   2.564   8.069  0.3103 -0.3972  0.0417
12143SOL    HW138436   6.424   2.631   8.133  1.6852 -0.9886  1.2021
12143SOL    HW238437   6.379   2.497   8.079  0.1085 -0.1449  0.3638
12144SOL     OW38438   1.159   8.075   3.123  0.9948  0.3533 -0.2853
12144SOL    HW138439   1.153   8.059   3.028  1.3302 -0.5915 -0.1514
12144SOL    HW238440   1.087   8.135   3.141  1.5421  1.3657 -1.3101
12145SOL     OW38441   8.577   2.191   3.060  0.0723 -0.7639  0.4329
12145SOL    HW138442   8.481   2.190   3.060  0.0074 -1.6560 -2.4687
12145SOL    HW238443   8.602   2.180   2.968  2.9811  1.1381  0.8532
12146SOL     OW38444   1.517   3.081  10.675  0.0786 -0.6226  0.3696
12146SOL    HW138445   1.513   2.986  10.684  0.4537 -0.7536 -0.6833
12146SOL    HW238446   1.588   3.096  10.613 -0.7661  0.2762 -0.4108
12147SOL     OW38447   7.391  10.872   1.394  0.1037  0.1256  0.2268
12147SOL    HW138448   7.486  10.871   1.405 -0.0223  0.2149  1.5748
12147SOL    HW238449   7.372  10.955   1.351  0.4230  1.6277  2.7833
12148SOL     OW38450   6.246   7.474   6.379 -0.4862  0.7537  0.0367
12148SOL    HW138451   6.327   7.443   6.340 -1.2426 -2.9948  1.0795
12148SOL    HW238452   6.231   7.416   6.453 -3.4491  2.1792  0.7202
12149SOL     OW38453   7.228   6.791   9.375  0.1531 -0.9190 -0.3042
12149SOL    HW138454   7.252   6.782   9.283  0.6151  2.4620 -0.6290
12149SOL    HW238455   7.310   6.777   9.422  0.7822  1.0525 -0.7346
12150SOL     OW38456   6.123   1.871   0.802 -0.1371 -0.1766 -0.2286
12150SOL    HW138457   6.043   1.821   0.822 -1.5110  0.9012 -2.5604
12150SOL    HW238458   6.178   1.810   0.754  0.3387 -0.8351  1.1183
12151SOL     OW38459   0.082   3.729   4.354 -0.3106 -0.6911  0.3438
12151SOL    HW138460   0.158   3.757   4.303  0.2797  0.1517  1.6211
12151SOL    HW238461   0.010   3.785   4.323  0.1407  0.1136  0.7068
12152SOL     OW38462  10.368   9.260   9.734 -0.7070 -0.5383 -0.7057
12152SOL    HW138463  10.425   9.220   9.799  0.1084 -1.0675 -1.7232
12152SOL    HW238464  10.284   9.270   9.778 -0.5408 -2.1133  0.0071
12153SOL     OW38465   3.070  10.796  10.806  0.0945 -0.5665 -0.1779
12153SOL    HW138466   3.092  10.837  10.889 -1.6473  2.1454 -0.9279
12153SOL    HW238467   3.088  10.863  10.740  1.6697 -2.7036 -2.1047
12154SOL     OW38468   0.433  10.736   8.805  0.6891  0.4994  0.3156
12154SOL    HW138469   0.491  10.769   8.873  0.7349  0.1511  0.4461
12154SOL    HW238470   0.397  10.655   8.841  2.0352 -0.6220 -0.7506
12155SOL     OW38471   7.219   0.424   1.956 -0.3894 -0.2981  0.0378
12155SOL    HW138472   7.183   0.409   1.869  0.8258 -1.7595 -0.2583
12155SOL    HW238473   7.311   0.445   1.940 -0.4149  0.5528  0.9197
12156SOL     OW38474   7.063   4.758   5.106 -0.3531 -0.3948  0.3439
12156SOL    HW138475   7.064   4.715   5.192  3.2682  2.2360  1.8970
12156SOL    HW238476   7.149   4.739   5.070 -0.9963  0.4273 -1.7320
12157SOL     OW38477   8.672   1.287   7.285 -0.3012  0.1240 -0.0491
12157SOL    HW138478   8.578   1.281   7.305 -0.0743 -1.1158  0.7527
12157SOL    HW238479   8.713   1.296   7.371  0.2675  1.8399 -0.4592
12158SOL     OW38480   4.630   9.114   8.244  0.3678  0.1818 -0.0020
12158SOL    HW138481   4.638   9.021   8.266  0.2817  0.7827  2.9593
12158SOL    HW238482   4.546   9.140   8.280  0.4547  1.4720 -0.6673
12159SOL     OW38483  11.119  10.364   6.054  0.0027 -0.2248  0.2140
12159SOL    HW138484  11.050  10.298   6.062 -0.6524  0.4230  0.1405
12159SOL    HW238485  11.198  10.315   6.034 -0.6193 -0.9186 -0.6151
12160SOL     OW38486   1.492   3.101   9.295 -0.1561  0.1164 -0.6903
12160SOL    HW138487   1.480   3.074   9.204 -0.4870 -0.4576 -0.4826
12160SOL    HW238488   1.572   3.056   9.323  1.7711  2.7194 -1.6045
12161SOL     OW38489   9.891  10.141   2.436 -0.6722  0.6321  0.1765
12161SOL    HW138490   9.824  10.198   2.475  0.5924  4.2207 -2.3371
12161SOL    HW238491   9.974  10.185   2.457  0.5684 -1.3188 -0.4228
12162SOL     OW38492   5.997   4.999  11.104  0.4817 -0.5618 -0.1873
12162SOL    HW138493   5.928   5.000  11.170  0.9487 -3.3757  0.5126
12162SOL    HW238494   6.049   5.077  11.122 -1.1746  0.3917  0.7363
12163SOL     OW38495   1.672   4.684   9.248 -0.0496 -0.6821 -0.1112
12163SOL    HW138496   1.578   4.693   9.260  0.1031 -0.2163  0.8017
12163SOL    HW238497   1.681   4.632   9.169 -1.0777 -0.8597 -0.1228
12164SOL     OW38498   3.019   3.783   2.564  0.4686 -0.5931 -0.1372
12164SOL    HW138499   3.063   3.726   2.500 -1.9731 -2.2653 -0.4444
12164SOL    HW238500   2.952   3.728   2.603  0.3917  1.0752  2.2696
12165SOL     OW38501  10.143   5.230   9.240  0.4957  0.5716 -0.2393
12165SOL    HW138502  10.108   5.297   9.298  2.3728  0.9232  0.5850
12165SOL    HW238503  10.146   5.271   9.154  4.1330  2.7424  0.6747
12166SOL     OW38504   1.670   2.840   2.884  0.3126 -0.0411  0.3418
12166SOL    HW138505   1.673   2.848   2.980 -1.5544 -0.2593  0.4570
12166SOL    HW238506   1.599   2.779   2.868  0.5515  0.0562 -1.2106
12167SOL     OW38507   6.196   3.024   4.161 -0.1802 -0.3723 -0.1777
12167SOL    HW138508   6.143   2.973   4.100  0.0489 -0.1495 -0.5649
12167SOL    HW238509   6.154   3.011   4.246 -0.2323 -1.0516 -0.3052
12168SOL     OW38510   8.617   0.766   1.532 -0.5623 -0.3238 -0.5814
12168SOL    HW138511   8.634   0.802   1.618 -0.5520 -0.1803 -0.6435
12168SOL    HW238512   8.550   0.699   1.546  0.7001 -1.5470 -0.1808
12169SOL     OW38513   8.523   2.914   6.043  0.4436  0.0523 -0.2857
12169SOL    HW138514   8.458   2.871   6.098  0.5877  1.1197  0.7699
12169SOL    HW238515   8.607   2.895   6.085  0.5783  0.6833 -0.2504
12170SOL     OW38516  10.750   9.825   0.523  0.4332  0.1234 -0.1800
12170SOL    HW138517  10.664   9.861   0.503  0.8622  0.6737 -1.1468
12170SOL    HW238518  10.773   9.861   0.608 -0.5890 -0.6073  0.4184
12171SOL     OW38519   8.316   7.209   1.198  0.6261 -0.5807 -0.3761
12171SOL    HW138520   8.254   7.233   1.266 -0.0179 -1.3399 -0.6786
12171SOL    HW238521   8.402   7.230   1.235  0.1825  0.9341 -0.1368
12172SOL     OW38522   4.499   6.020   3.745 -0.7759  0.3711  0.2726
12172SOL    HW138523   4.474   6.068   3.667  1.0506  0.0529 -0.5571
12172SOL    HW238524   4.549   6.082   3.798  2.9287 -0.8091 -1.5010
12173SOL     OW38525   6.892   3.958   1.125  0.3605 -0.5739 -0.5478
12173SOL    HW138526   6.977   3.941   1.165  0.1991 -0.4579 -0.1490
12173SOL    HW238527   6.866   3.874   1.086 -0.8930 -1.6294  2.2820
12174SOL     OW38528   5.277   0.440   8.060 -0.2262 -0.4673 -0.1136
12174SOL    HW138529   5.274   0.508   8.128 -1.6227  0.6339 -1.2074
12174SOL    HW238530   5.242   0.483   7.982  0.1465 -2.0675 -1.2092
12175SOL     OW38531  10.169   4.845   8.990  0.4211 -0.2801 -0.2345
12175SOL    HW138532  10.231   4.872   9.057  2.3913 -1.0801 -1.6230
12175SOL    HW238533  10.086   4.837   9.036  0.9111  2.5413  1.3647
12176SOL     OW38534   9.848   4.852   8.147  0.2124  0.1273  0.3451
12176SOL    HW138535   9.861   4.870   8.054  0.2921  0.2003  0.3698
12176SOL    HW238536   9.884   4.929   8.192  1.0020 -0.2948  0.4690
12177SOL     OW38537   8.386   9.662   6.276  0.3250 -0.0628 -0.0860
12177SOL    HW138538   8.334   9.710   6.211 -0.4796 -0.2081  0.4335
12177SOL    HW238539   8.350   9.574   6.275 -1.2764  0.4761  2.1478
12178SOL     OW38540   2.358   9.958   3.908  0.9381 -0.4640 -0.1557
12178SOL    HW138541   2.319   9.977   3.822  1.9342  3.2670  0.0318
12178SOL    HW238542   2.411   9.880   3.893 -0.4658 -1.0924 -2.3835
12179SOL     OW38543  11.067   3.167   6.273  0.0487 -0.5637  0.9031
12179SOL    HW138544  11.005   3.227   6.314 -0.6412 -1.3884  1.1046
12179SOL    HW238545  11.026   3.080   6.282  0.9852 -1.0577  0.5672
12180SOL     OW38546   1.690   8.274   4.861 -0.1877 -1.0041 -0.6201
12180SOL    HW138547   1.690   8.188   4.818 -0.1592 -1.6499  0.6311
12180SOL    HW238548   1.597   8.290   4.879 -0.1491 -0.9854 -0.4426
12181SOL     OW38549   0.754   2.084   7.591 -0.1741 -0.2314 -0.3363
12181SOL    HW138550   0.752   1.992   7.566  2.3325 -1.0834  2.1304
12181SOL    HW238551   0.777   2.084   7.684 -2.1038  2.8673  0.3085
12182SOL     OW38552   1.904   9.279   5.508 -0.8639  0.5484  0.1752
12182SOL    HW138553   1.987   9.254   5.548 -0.2438 -0.7299 -1.7579
12182SOL    HW238554   1.849   9.201   5.516 -0.1411 -0.4133 -2.7747
12183SOL     OW38555   7.519   6.801   9.918 -0.0282 -0.2765  0.2932
12183SOL    HW138556   7.597   6.852   9.941  1.1095 -1.5648 -0.5192
12183SOL    HW238557   7.553   6.715   9.894 -1.8174 -1.1926  0.8757
12184SOL     OW38558   3.780  10.088   2.893  0.1911  0.6448  0.4882
12184SOL    HW138559   3.848  10.022   2.879  1.6804  2.5508 -2.4259
12184SOL    HW238560   3.701  10.050   2.854  0.4518 -0.2390  0.7974
12185SOL     OW38561   1.728   1.403  10.714 -0.5677 -0.3453  0.3040
12185SOL    HW138562   1.678   1.460  10.655 -0.7883 -0.2887  0.5422
12185SOL    HW238563   1.662   1.367  10.774 -0.1169  1.0465  1.7135
12186SOL     OW38564  10.273   3.610   6.824 -0.6937 -0.3499 -0.5543
12186SOL    HW138565  10.338   3.601   6.894 -1.1080 -1.6686 -0.3210
12186SOL    HW238566  10.319   3.658   6.756  0.2829 -0.5653 -0.0707
12187SOL     OW38567   5.075   9.084   3.713 -0.2697 -0.1652  0.1887
12187SOL    HW138568   5.057   9.165   3.665 -0.7730 -0.7092 -0.5535
12187SOL    HW238569   5.056   9.014   3.651  1.5066 -0.8467  0.3534
12188SOL     OW38570  10.855  10.973   5.305  0.8775  0.2132  0.1112
12188SOL    HW138571  10.902  11.017   5.375  0.0503 -1.6552  1.9435
12188SOL    HW238572  10.892  10.884   5.304 -0.7761 -0.5123 -0.1523
12189SOL     OW38573  11.284   8.211   5.191  0.7358  0.0424  0.0302
12189SOL    HW138574  11.357   8.251   5.238  0.3871 -0.9306  1.4588
12189SOL    HW238575  11.270   8.268   5.115 -0.0684  2.9190  2.1825
12190SOL     OW38576   9.858   3.542   0.195  0.5947  0.8680  0.5114
12190SOL    HW138577   9.927   3.555   0.260 -0.0391 -1.3471  1.7515
12190SOL    HW238578   9.785   3.596   0.225  0.5699  0.4383  1.2347
12191SOL     OW38579   7.936   4.861  10.558  0.0802 -0.3446  0.4028
12191SOL    HW138580   7.885   4.783  10.581  0.0551  0.1812  2.2340
12191SOL    HW238581   7.933   4.916  10.635  2.2366  0.3494  0.0747
12192SOL     OW38582   0.637   3.664   9.574  0.0963  0.1106  0.3783
12192SOL    HW138583   0.568   3.660   9.508 -1.5173  1.1926  1.8917
12192SOL    HW238584   0.643   3.576   9.609 -0.2236 -0.0903 -0.0689
12193SOL     OW38585   5.586   3.860   5.581 -0.1712 -0.1329  0.0510
12193SOL    HW138586   5.631   3.933   5.624  0.9795 -1.4585  1.2089
12193SOL    HW238587   5.535   3.901   5.511  0.8658  1.7104  0.3064
12194SOL     OW38588   4.933   5.073   5.058  0.1681 -0.0194  0.4429
12194SOL    HW138589   4.989   5.124   5.116  1.6088 -1.7708  0.6864
12194SOL    HW238590   4.985   5.061   4.978 -1.1335  0.9584 -0.6019
12195SOL     OW38591   9.582   7.834   3.319  0.4165 -0.4276 -0.1697
12195SOL    HW138592   9.578   7.752   3.271 -0.8771 -1.7399  2.0074
12195SOL    HW238593   9.506   7.884   3.288  0.5422 -0.5540 -0.6764
12196SOL     OW38594   2.596   7.896   0.374 -0.1013 -0.1173 -0.2212
12196SOL    HW138595   2.524   7.928   0.429  0.3809 -0.5193  0.6827
12196SOL    HW238596   2.668   7.958   0.391 -0.0561 -0.0427 -0.6795
12197SOL     OW38597   2.732  10.944   7.987  0.4303  0.5072 -0.4815
12197SOL    HW138598   2.783  10.958   8.067 -2.2274  0.2070  1.4154
12197SOL    HW238599   2.641  10.959   8.014 -0.4870  2.0454 -3.8737
12198SOL     OW38600   1.804   3.406   4.232 -0.0268 -0.2672  0.3790
12198SOL    HW138601   1.760   3.491   4.237  0.5469  0.1913 -1.4327
12198SOL    HW238602   1.851   3.398   4.315  0.2380  1.3823  0.4236
12199SOL     OW38603   5.343   6.150   5.154 -0.4917 -0.3978  0.1413
12199SOL    HW138604   5.250   6.133   5.137 -0.9542  0.1802  1.9115
12199SOL    HW238605   5.343   6.211   5.228  1.3321 -2.9041  2.3920
12200SOL     OW38606  10.684   9.907   5.437  0.0698 -0.1350  0.3043
12200SOL    HW138607  10.707   9.983   5.490 -0.0766  0.1032  0.0248
12200SOL    HW238608  10.768   9.872   5.407  0.0699  1.1324 -1.2775
12201SOL     OW38609   7.967   7.820   4.839  0.4500 -0.5537 -0.0303
12201SOL    HW138610   8.057   7.788   4.846  1.6001  2.0574 -1.5336
12201SOL    HW238611   7.961   7.887   4.907  1.3668  2.7156 -2.9266
12202SOL     OW38612   9.308   7.243   3.725  0.1413 -0.8242 -0.9492
12202SOL    HW138613   9.360   7.249   3.805 -2.7532  1.3612  0.9585
12202SOL    HW238614   9.286   7.150   3.718  2.6947 -1.5026 -0.8319
12203SOL     OW38615  10.304   7.152   1.800 -0.3128 -0.0261 -0.5414
12203SOL    HW138616  10.369   7.164   1.870 -1.7644  0.6013  0.7703
12203SOL    HW238617  10.284   7.059   1.801  1.4036 -0.4425 -1.7731
12204SOL     OW38618   2.521  10.966   3.393 -0.1182  0.3279  0.0658
12204SOL    HW138619   2.456  10.902   3.363 -0.4895 -1.5720  4.2255
12204SOL    HW238620   2.475  11.018   3.459  1.9650  0.3649  1.5819
12205SOL     OW38621   1.295   6.116   2.982 -0.4328  0.5266 -0.1485
12205SOL    HW138622   1.343   6.163   3.050 -0.4094  1.4067 -0.7667
12205SOL    HW238623   1.362   6.090   2.919 -0.5204  0.1299 -0.0822
12206SOL     OW38624   3.739   6.334   3.870 -0.4617 -0.8195  0.1280
12206SOL    HW138625   3.823   6.380   3.863 -1.1784  0.5749  0.3963
12206SOL    HW238626   3.693   6.379   3.940 -1.5797 -1.3668 -0.2375
12207SOL     OW38627   8.934   8.497   4.431 -0.4741 -0.2574  0.2514
12207SOL    HW138628   8.926   8.458   4.344  1.6309 -1.8219  0.6656
12207SOL    HW238629   8.957   8.588   4.415  0.0200 -0.5603 -0.8442
12208SOL     OW38630   5.924   0.937   8.417  0.2672 -0.1450  0.0346
12208SOL    HW138631   5.907   0.934   8.322 -1.0163 -0.3615  0.2491
12208SOL    HW238632   5.910   1.028   8.441  1.6903  0.1414 -0.1514
12209SOL     OW38633   5.896   2.979  10.468  0.2458  0.1349 -0.3024
12209SOL    HW138634   5.887   2.966  10.563  1.2781 -4.3378 -0.5945
12209SOL    HW238635   5.988   3.001  10.455  0.8724 -2.2970 -0.3631
12210SOL     OW38636   2.907   2.471   8.210  0.4188 -0.6007 -0.7283
12210SOL    HW138637   2.866   2.544   8.162 -0.1045  0.4121  1.1199
12210SOL    HW238638   2.900   2.396   8.151 -0.8090  0.4061 -1.9413
12211SOL     OW38639   8.565   1.923   2.598  0.7505  0.1336  0.8284
12211SOL    HW138640   8.635   1.861   2.579  1.4964  0.9232  0.9344
12211SOL    HW238641   8.604   1.984   2.661  0.2369  1.0608  0.2723
12212SOL     OW38642   5.299   6.192   1.775 -0.4834 -0.3635 -0.0572
12212SOL    HW138643   5.272   6.104   1.748  0.0983 -1.0351  1.4178
12212SOL    HW238644   5.238   6.215   1.844 -1.9850  1.3394 -1.8461
12213SOL     OW38645   7.784   3.269   8.556  0.2113  0.1587 -0.0032
12213SOL    HW138646   7.857   3.300   8.610 -1.3970  2.0234  1.2382
12213SOL    HW238647   7.779   3.175   8.574  2.4180 -0.0899 -0.3440
12214SOL     OW38648   0.128   8.837  10.634  0.0087 -0.0660  0.0759
12214SOL    HW138649   0.178   8.910  10.599  0.8553  0.5063  2.2806
12214SOL    HW238650   0.038   8.853  10.607  0.5566  0.4508 -1.5245
12215SOL     OW38651   2.232   8.745   7.876  0.5352  0.0235  0.4228
12215SOL    HW138652   2.261   8.654   7.870  1.2907  0.2293  0.9053
12215SOL    HW238653   2.138   8.741   7.857  0.3409 -1.0008  1.4873
12216SOL     OW38654   8.498   6.268   3.461 -0.0318  0.3086 -0.1038
12216SOL    HW138655   8.430   6.281   3.526 -2.2701 -1.5060 -1.8902
12216SOL    HW238656   8.564   6.212   3.504 -0.9545 -0.0257  0.8993
12217SOL     OW38657   6.031   1.729   2.144 -0.3321  0.0644 -0.0819
12217SOL    HW138658   5.982   1.694   2.070 -0.7361 -2.1891  1.1593
12217SOL    HW238659   6.055   1.818   2.117  0.4858 -0.9793 -3.3408
12218SOL     OW38660   8.612   3.204  11.175 -0.3832 -0.1853  0.5954
12218SOL    HW138661   8.619   3.165  11.262  2.2530 -2.9280 -0.6958
12218SOL    HW238662   8.527   3.175  11.143  0.0920 -2.1089  0.9785
12219SOL     OW38663   3.184   8.444   4.877 -0.0237 -0.3201  0.7101
12219SOL    HW138664   3.166   8.512   4.942  0.1334  0.4574 -0.0371
12219SOL    HW238665   3.272   8.412   4.900  0.1426  0.1387  0.7315
12220SOL     OW38666   8.869   7.689   1.455 -0.4967 -0.3179 -0.3092
12220SOL    HW138667   8.855   7.711   1.547 -0.8316 -1.3128 -0.1048
12220SOL    HW238668   8.789   7.715   1.410 -0.1421  0.6248 -0.4201
12221SOL     OW38669   2.435   3.819   7.185  0.1392  0.9818  0.0345
12221SOL    HW138670   2.468   3.897   7.230  1.8187 -0.1646  0.9269
12221SOL    HW238671   2.499   3.802   7.116  0.2303 -0.0328  0.3490
12222SOL     OW38672   0.584   4.080  10.431  0.0889  0.0432  0.3736
12222SOL    HW138673   0.504   4.121  10.399  0.5425  1.2095  0.6873
12222SOL    HW238674   0.642   4.153  10.453  1.3156 -0.7736 -0.0130
12223SOL     OW38675   6.245  10.757  10.386  0.3725  0.3510  0.4559
12223SOL    HW138676   6.305  10.831  10.395  0.1802  0.8602 -1.9463
12223SOL    HW238677   6.223  10.754  10.293  0.3500 -2.7311  0.4534
12224SOL     OW38678   9.291   9.733   1.540  0.2681  0.7326  0.2272
12224SOL    HW138679   9.243   9.782   1.474 -1.0409 -0.2706  0.3877
12224SOL    HW238680   9.295   9.793   1.615 -1.8863  0.4459  0.6563
12225SOL     OW38681  11.172  10.389   1.897 -0.3613 -0.3772 -0.3898
12225SOL    HW138682  11.124  10.418   1.820 -0.0914 -0.4902 -0.5999
12225SOL    HW238683  11.175  10.294   1.890 -0.6185 -0.4074 -0.0733
12226SOL     OW38684   3.469   4.724   6.695 -0.0311  0.6339  0.4754
12226SOL    HW138685   3.421   4.771   6.764 -0.1555  0.0804  0.7780
12226SOL    HW238686   3.529   4.667   6.743  1.3618  1.7200  0.1026
12227SOL     OW38687   3.242   1.931   9.081  0.0706  0.1326 -0.5413
12227SOL    HW138688   3.244   1.994   9.153 -0.9883  0.7017 -0.9843
12227SOL    HW238689   3.233   1.984   9.002 -1.7526 -0.5532 -0.8636
12228SOL     OW38690   1.712   4.659   0.232  0.3034  0.2350  0.3913
12228SOL    HW138691   1.791   4.651   0.286  0.0189  1.2290  0.9776
12228SOL    HW238692   1.654   4.715   0.283 -0.8160 -0.5266 -0.0045
12229SOL     OW38693  10.407   3.493   1.339 -0.3169 -0.1220  0.5039
12229SOL    HW138694  10.351   3.447   1.277  0.0567  0.3618 -0.2146
12229SOL    HW238695  10.486   3.440   1.344 -0.4131 -0.2478  0.6960
12230SOL     OW38696   8.981   0.249   4.592  0.0898  0.0618 -0.1003
12230SOL    HW138697   9.006   0.228   4.502 -1.8327 -3.9693  0.0895
12230SOL    HW238698   8.886   0.257   4.590  0.1296  1.6068  1.3581
12231SOL     OW38699   3.397   6.647   9.265 -0.4680  0.2029  0.1100
12231SOL    HW138700   3.456   6.682   9.199 -0.8020 -0.7126 -0.7050
12231SOL    HW238701   3.310   6.661   9.230 -0.6007 -2.6747 -0.9795
12232SOL     OW38702  10.995   6.135  10.634  0.2922  0.2923 -0.5875
12232SOL    HW138703  11.041   6.053  10.616 -0.2049  0.0766 -0.8986
12232SOL    HW238704  10.925   6.138  10.569 -0.9300 -0.0128  0.6643
12233SOL     OW38705   1.998   2.582   6.865  0.1353  0.0785  0.3306
12233SOL    HW138706   2.072   2.574   6.805 -0.1972  1.2931 -0.2713
12233SOL    HW238707   2.002   2.673   6.896 -0.5956 -0.0904  0.9540
12234SOL     OW38708   2.130   3.303   0.698 -0.1843  0.1703 -0.4810
12234SOL    HW138709   2.152   3.387   0.658 -0.8724  0.2190 -0.7692
12234SOL    HW238710   2.207   3.248   0.683  0.2632  0.7459 -0.2977
12235SOL     OW38711  10.605   1.944  10.692 -0.2553  0.3821  0.1258
12235SOL    HW138712  10.647   1.997  10.625 -0.6377 -0.3245 -0.6948
12235SOL    HW238713  10.637   1.855  10.676  0.4591  0.3634  1.5404
12236SOL     OW38714   2.211   4.830   1.839 -0.3822 -0.2390  0.8784
12236SOL    HW138715   2.166   4.754   1.876 -0.9366  0.4871  1.7282
12236SOL    HW238716   2.249   4.797   1.757 -0.1857 -1.5463  1.4711
12237SOL     OW38717   6.553   3.506  10.301 -0.7233  0.4812 -0.0553
12237SOL    HW138718   6.504   3.465  10.229  0.8677 -1.3314 -0.1902
12237SOL    HW238719   6.499   3.580  10.328 -1.8317  0.6471 -2.4760
12238SOL     OW38720  10.361  10.044   0.768  0.2811  0.3790 -0.0834
12238SOL    HW138721  10.271  10.017   0.750 -0.0598  0.8661  0.8112
12238SOL    HW238722  10.360  10.139   0.756 -0.2653  0.9319  3.3377
12239SOL     OW38723   5.199  11.068   8.197 -0.1229 -0.0545  0.3426
12239SOL    HW138724   5.106  11.070   8.218  0.2723  0.9741  2.2875
12239SOL    HW238725   5.224  10.976   8.206 -0.6765 -0.1260  1.3008
12240SOL     OW38726  11.155  11.160   4.509  0.5576  0.8249  0.2188
12240SOL    HW138727  11.166  11.253   4.529  0.5265  0.7890  0.4072
12240SOL    HW238728  11.081  11.132   4.563 -0.6157  1.1089 -1.1874
12241SOL     OW38729   4.350   9.300   6.355  0.0696 -0.4224  0.0841
12241SOL    HW138730   4.410   9.364   6.316 -0.0369 -0.5281 -0.2563
12241SOL    HW238731   4.377   9.216   6.317  1.9367 -1.0310  2.4929
12242SOL     OW38732   5.508  10.262   3.506  0.4011 -0.0302 -0.0416
12242SOL    HW138733   5.507  10.250   3.411 -0.2417  0.1531 -0.0621
12242SOL    HW238734   5.526  10.175   3.542 -0.3318 -0.2999 -0.3079
12243SOL     OW38735   1.123   0.429  10.769  0.4861 -0.2808 -0.2379
12243SOL    HW138736   1.133   0.461  10.680 -0.1147 -0.6513 -0.4447
12243SOL    HW238737   1.038   0.386  10.770  1.2921 -1.9748 -0.0165
12244SOL     OW38738   3.147   0.899   2.379  0.1455 -0.8047 -0.4199
12244SOL    HW138739   3.176   0.808   2.376 -0.1659 -0.8886 -1.1253
12244SOL    HW238740   3.079   0.904   2.312 -2.9785 -1.1479  2.4313
12245SOL     OW38741   1.495   0.602   1.772 -0.3540 -0.0793  0.1097
12245SOL    HW138742   1.497   0.614   1.677 -1.0797  1.1401  0.2336
12245SOL    HW238743   1.405   0.620   1.797  0.1268  1.0113  1.1799
12246SOL     OW38744   8.100   6.788   5.593 -0.6073  0.5079  0.0700
12246SOL    HW138745   8.035   6.722   5.568 -1.2826  0.4041  1.9102
12246SOL    HW238746   8.059   6.871   5.571 -2.4217  0.5746  3.1545
12247SOL     OW38747   3.929  10.210   6.015 -0.2163  0.0931 -0.8733
12247SOL    HW138748   3.922  10.288   5.959  0.1586  0.7228 -0.0622
12247SOL    HW238749   4.009  10.224   6.065 -1.0349 -0.0025  0.5143
12248SOL     OW38750   4.891  10.590   1.730 -1.0420  0.0973  0.2076
12248SOL    HW138751   4.819  10.543   1.772 -1.5840  0.5525 -0.1941
12248SOL    HW238752   4.957  10.523   1.714 -0.7860 -0.0728  1.8474
12249SOL     OW38753   5.721   4.967   5.595 -0.0499  0.3888 -0.3778
12249SOL    HW138754   5.758   5.055   5.603  0.9007 -0.0630  0.3309
12249SOL    HW238755   5.686   4.964   5.506  0.4058  1.2857 -0.6009
12250SOL     OW38756  10.293   4.007   1.680 -1.1931 -0.3558 -0.5486
12250SOL    HW138757  10.344   4.063   1.622 -2.2475 -1.3176 -2.5034
12250SOL    HW238758  10.242   3.951   1.621 -2.4222 -1.3161  1.3174
12251SOL     OW38759   1.080   6.923   1.612  0.0097 -0.0676  0.3411
12251SOL    HW138760   1.029   6.997   1.646  0.5135  0.3656  0.1534
12251SOL    HW238761   1.126   6.889   1.689  2.5468  2.0095 -0.1491
12252SOL     OW38762   8.482   0.143  11.165 -0.0477 -0.8376 -0.1419
12252SOL    HW138763   8.565   0.099  11.185  0.3360  0.6302  1.7930
12252SOL    HW238764   8.417   0.098  11.219  0.1595  0.2249  1.0349
12253SOL     OW38765   7.344   4.117   8.989 -0.1461  0.2520  0.2973
12253SOL    HW138766   7.256   4.083   9.004 -0.5914  2.1719  2.6329
12253SOL    HW238767   7.345   4.140   8.895 -1.7269 -0.7997 -0.0139
12254SOL     OW38768   7.444   6.670   9.567  0.6376 -0.2486 -0.0596
12254SOL    HW138769   7.531   6.642   9.596  1.1995 -1.6669 -2.7377
12254SOL    HW238770   7.413   6.597   9.513 -1.7410  0.7205 -0.1019
12255SOL     OW38771   1.974   6.684   1.269 -0.5641 -0.0335  0.3488
12255SOL    HW138772   1.987   6.777   1.249 -0.0737  0.2909  1.9721
12255SOL    HW238773   1.880   6.670   1.257 -0.1371 -0.5331 -4.2739
12256SOL     OW38774   5.382   4.518   8.509 -0.3634 -0.1178  0.3720
12256SOL    HW138775   5.299   4.542   8.468 -0.0606 -0.8398 -0.7208
12256SOL    HW238776   5.449   4.554   8.451  0.1488  1.6497  1.9560
12257SOL     OW38777   8.389   0.277   1.228  0.0146 -0.1575 -0.3103
12257SOL    HW138778   8.456   0.245   1.167  2.2644  1.0737  1.3460
12257SOL    HW238779   8.415   0.368   1.246  0.0223 -0.7041  3.0869
12258SOL     OW38780   1.895   8.411   1.111 -0.2391 -0.2701  0.7995
12258SOL    HW138781   1.954   8.416   1.035  0.8363  2.6234  1.6693
12258SOL    HW238782   1.953   8.400   1.186 -0.5923  3.0252  1.7189
12259SOL     OW38783   7.710   6.351   6.515 -0.2585  0.2351 -0.1145
12259SOL    HW138784   7.621   6.317   6.512 -0.3151  0.3588  0.1272
12259SOL    HW238785   7.706   6.421   6.580 -0.1924  0.8369 -0.7455
12260SOL     OW38786   6.765   2.554  10.235 -0.5213  0.2404  0.0309
12260SOL    HW138787   6.824   2.522  10.167 -0.3071 -0.6600  0.6142
12260SOL    HW238788   6.796   2.511  10.315 -0.6151  1.4658  0.7474
12261SOL     OW38789   8.428   8.613   8.911 -0.0768 -0.5501 -0.8204
12261SOL    HW138790   8.440   8.525   8.875 -2.1211 -0.4717 -1.8274
12261SOL    HW238791   8.504   8.662   8.879 -1.0586 -0.8666 -3.9862
12262SOL     OW38792   0.055   9.374   9.729 -0.3294  0.1353 -0.2486
12262SOL    HW138793   0.037   9.378   9.823  1.5858  1.0340  0.1177
12262SOL    HW238794  -0.031   9.384   9.688 -1.4501 -2.0202  1.3744
12263SOL     OW38795   1.021   6.676   9.366 -0.4758 -0.5539  0.5277
12263SOL    HW138796   1.037   6.770   9.376 -0.0631 -0.4485 -0.8607
12263SOL    HW238797   1.109   6.637   9.367 -0.4956 -0.6856 -0.8663
12264SOL     OW38798   5.426   4.054   1.747  0.5836 -0.4880 -0.1335
12264SOL    HW138799   5.456   3.988   1.810 -1.2068 -1.6669 -0.4288
12264SOL    HW238800   5.506   4.091   1.710  1.6413 -2.1414  0.4067
12265SOL     OW38801   8.520   3.719   9.244 -0.4017 -0.3383  0.1578
12265SOL    HW138802   8.468   3.725   9.164 -0.8236 -0.9840  0.3717
12265SOL    HW238803   8.455   3.716   9.314 -0.0280  2.0945  0.6920
12266SOL     OW38804  10.303   8.398   9.537 -0.3234 -0.6145  0.4125
12266SOL    HW138805  10.312   8.405   9.442  0.9515 -1.6209  0.4305
12266SOL    HW238806  10.219   8.355   9.550 -1.4675  1.2925 -0.1484
12267SOL     OW38807   8.932   7.331   8.237 -0.3004 -0.1863  0.3926
12267SOL    HW138808   8.854   7.353   8.186 -0.1030  1.5931  0.8121
12267SOL    HW238809   8.945   7.406   8.295  1.0126 -1.0058  1.2020
12268SOL     OW38810   9.707   8.003   1.500  0.3210  0.0506 -0.5563
12268SOL    HW138811   9.651   8.065   1.455  0.2503  0.9631  0.7378
12268SOL    HW238812   9.660   7.981   1.581  1.4528  0.2539  0.1942
12269SOL     OW38813   6.362   2.232   0.477  0.0695  0.5287 -0.5631
12269SOL    HW138814   6.420   2.174   0.428  0.7340  1.8136 -1.3755
12269SOL    HW238815   6.275   2.194   0.467  0.6769 -1.1412  0.2345
12270SOL     OW38816  10.106   2.244   4.375 -0.0267 -0.2151 -0.6061
12270SOL    HW138817  10.085   2.286   4.459  0.6160 -0.6755 -0.2156
12270SOL    HW238818  10.021   2.238   4.330 -0.2554  0.7687 -0.3361
12271SOL     OW38819   7.162   1.395   4.940  0.2019  1.1000 -0.5268
12271SOL    HW138820   7.071   1.424   4.930  0.2385  0.7244 -2.3394
12271SOL    HW238821   7.186   1.423   5.028 -1.6770  1.1587  0.0254
12272SOL     OW38822   6.273  10.313   3.224 -0.1695  0.7338 -0.4488
12272SOL    HW138823   6.365  10.330   3.204  0.8131 -1.0068  2.0383
12272SOL    HW238824   6.267  10.319   3.320 -2.2287 -0.8520 -0.3907
12273SOL     OW38825   8.474   8.145   2.099 -0.3767  0.1024 -0.9010
12273SOL    HW138826   8.405   8.104   2.151 -1.3557  1.4530 -1.0671
12273SOL    HW238827   8.438   8.150   2.011  0.2768  0.0731 -1.1738
12274SOL     OW38828   2.694  10.158   2.053 -0.1080  0.5536 -0.4180
12274SOL    HW138829   2.719  10.148   2.145 -0.3483  2.4198 -0.1267
12274SOL    HW238830   2.708  10.070   2.016  2.2761  0.3066  0.8227
12275SOL     OW38831   3.512   9.588   2.310  0.2496  0.1342  0.0815
12275SOL    HW138832   3.420   9.575   2.291  0.3444  0.5341 -0.6836
12275SOL    HW238833   3.519   9.575   2.404 -0.8708  1.7160  0.4092
12276SOL     OW38834   8.834   4.684   6.452  0.0318 -0.1630  0.1533
12276SOL    HW138835   8.763   4.674   6.387  0.8377  3.1442 -1.4482
12276SOL    HW238836   8.906   4.631   6.417 -0.3523 -0.3775 -0.3256
12277SOL     OW38837  10.810   7.275   1.265 -0.2121 -0.3763  0.3934
12277SOL    HW138838  10.847   7.362   1.272 -0.8113 -0.1260  0.4985
12277SOL    HW238839  10.717   7.286   1.284 -0.0299 -1.2802  2.0331
12278SOL     OW38840  11.180   6.438   1.395 -0.8164 -0.4947 -0.1952
12278SOL    HW138841  11.267   6.396   1.403 -0.8195 -0.2827  1.3997
12278SOL    HW238842  11.186   6.490   1.315  1.4001  1.4197  1.0814
12279SOL     OW38843   4.444  10.356   4.040 -0.3640 -0.5595 -0.0905
12279SOL    HW138844   4.406  10.269   4.032 -0.1716 -0.6133 -0.4628
12279SOL    HW238845   4.480  10.374   3.953 -2.1393  0.6983 -0.6235
12280SOL     OW38846   8.276   0.059   1.096  0.1368 -0.1658 -0.6427
12280SOL    HW138847   8.189   0.037   1.130 -0.7083  0.3409 -2.3510
12280SOL    HW238848   8.301   0.139   1.143  0.5597 -1.3301  1.2234
12281SOL     OW38849   3.885   6.818   1.486 -0.2548 -0.1706 -0.6711
12281SOL    HW138850   3.973   6.823   1.523  0.1374  0.4784 -1.6636
12281SOL    HW238851   3.834   6.884   1.534  0.1065  0.2825 -0.9093
12282SOL     OW38852   1.414  10.732   1.817  0.2721  0.3004  0.3084
12282SOL    HW138853   1.499  10.690   1.817  0.7920  1.2491  2.3127
12282SOL    HW238854   1.432  10.824   1.836 -1.1414  0.6700  0.0009
12283SOL     OW38855   5.108   6.717   2.958 -0.3238 -0.6683 -0.0710
12283SOL    HW138856   5.089   6.809   2.976  1.3703 -0.3783  0.3950
12283SOL    HW238857   5.055   6.668   3.021 -0.7927  0.0102  0.0683
12284SOL     OW38858   4.127   3.017   7.838 -0.4170  0.1385 -0.3801
12284SOL    HW138859   4.162   2.998   7.925  0.1653  0.5206 -0.5264
12284SOL    HW238860   4.149   2.940   7.785 -3.9447 -1.8285  0.6483
12285SOL     OW38861   5.031   9.409   1.724 -0.0054  0.4572 -0.1641
12285SOL    HW138862   5.072   9.359   1.794 -0.7057 -0.7914 -0.6130
12285SOL    HW238863   5.084   9.392   1.647 -1.6995 -1.8347 -0.9431
12286SOL     OW38864  10.947   3.426   4.298 -0.1991 -0.2938 -0.1300
12286SOL    HW138865  10.894   3.388   4.228  0.4652 -0.2505 -0.6701
12286SOL    HW238866  11.034   3.436   4.260 -0.3600  1.8546 -0.0432
12287SOL     OW38867   5.255   5.811  10.625  0.0947  0.1379 -0.2385
12287SOL    HW138868   5.287   5.775  10.542  1.8980  2.0564 -0.4558
12287SOL    HW238869   5.335   5.835  10.673 -0.9144 -0.5276  1.9106
12288SOL     OW38870  10.581   2.190   5.424  0.1585 -0.0799 -0.6505
12288SOL    HW138871  10.556   2.107   5.465  2.8248  0.3198  2.1997
12288SOL    HW238872  10.632   2.166   5.347 -1.2332 -0.9648 -1.3369
12289SOL     OW38873   7.750   4.580   0.209  0.2212  0.4022 -0.6416
12289SOL    HW138874   7.845   4.573   0.216  0.2094  0.1073 -0.7669
12289SOL    HW238875   7.716   4.526   0.280  0.1425  0.1265 -0.8880
12290SOL     OW38876   5.029   8.779   1.368  0.0943 -0.6220 -0.4445
12290SOL    HW138877   4.959   8.814   1.422 -0.0285  1.7345 -1.9994
12290SOL    HW238878   5.109   8.799   1.416 -0.1196 -0.4178 -0.1742
12291SOL     OW38879   0.747   5.813   6.182 -0.7553 -0.5896 -0.0197
12291SOL    HW138880   0.753   5.817   6.278 -0.4881 -0.7528 -0.0290
12291SOL    HW238881   0.724   5.903   6.157  1.2260 -0.0045  0.0682
12292SOL     OW38882   6.461  10.733   8.717  0.6771  0.5010 -0.2979
12292SOL    HW138883   6.549  10.747   8.753  0.8410 -0.2370 -0.3978
12292SOL    HW238884   6.477  10.709   8.625  0.4088 -0.3432 -0.1263
12293SOL     OW38885   6.511   4.694  10.356  0.3621  0.3051  0.3036
12293SOL    HW138886   6.580   4.730  10.299  0.5602 -2.9012 -1.7760
12293SOL    HW238887   6.553   4.685  10.442  0.3165  4.5303  0.9723
12294SOL     OW38888   9.361   4.978  10.434 -0.4522 -0.1321 -0.8084
12294SOL    HW138889   9.419   4.940  10.500 -0.0992  0.4819 -0.7621
12294SOL    HW238890   9.297   4.909  10.416  0.2723 -0.8086 -0.8413
12295SOL     OW38891   5.073   0.433   1.916  0.8328  0.1762  0.6908
12295SOL    HW138892   5.060   0.386   1.834  0.6569  0.6883  0.4195
12295SOL    HW238893   5.114   0.516   1.889  0.2617  0.5806  1.0613
12296SOL     OW38894   5.203   1.102   0.435  0.1752 -0.1102 -0.1766
12296SOL    HW138895   5.159   1.128   0.516  3.2778  2.7364  0.8549
12296SOL    HW238896   5.200   1.180   0.380  2.7798 -0.0885 -0.4421
12297SOL     OW38897   2.995   2.396   1.209 -0.1864  0.6984 -0.3249
12297SOL    HW138898   3.057   2.347   1.263 -2.4082  0.1935  1.9271
12297SOL    HW238899   3.015   2.488   1.227  1.1444  0.6091 -1.1838
12298SOL     OW38900  11.102   2.387  10.264 -0.3540  0.9992  0.6586
12298SOL    HW138901  11.173   2.348  10.213  0.6612  1.9357  1.2843
12298SOL    HW238902  11.103   2.479  10.239  1.1798  1.8327  3.3546
12299SOL     OW38903   3.064  10.727   8.369  0.2652  0.1536 -0.3636
12299SOL    HW138904   2.989  10.695   8.320 -0.3695  3.3367 -1.6835
12299SOL    HW238905   3.126  10.757   8.302  0.3596  2.5006  0.6954
12300SOL     OW38906   7.657   6.297   5.661 -0.7772 -0.1204 -0.3658
12300SOL    HW138907   7.690   6.332   5.744 -0.5612  0.5516 -0.7254
12300SOL    HW238908   7.730   6.244   5.628 -0.8719 -0.4089 -0.1207
12301SOL     OW38909   5.467   4.666   9.065 -0.5787  0.3978 -1.0168
12301SOL    HW138910   5.526   4.736   9.036 -1.1483  0.6278 -1.6576
12301SOL    HW238911   5.469   4.602   8.994  0.0517 -0.3155 -0.3653
12302SOL     OW38912  10.156   3.139   1.007  0.0064  0.2596  0.0406
12302SOL    HW138913  10.098   3.083   1.060 -1.8210 -0.3081 -2.3407
12302SOL    HW238914  10.105   3.156   0.927  1.3338  3.6747 -0.2235
12303SOL     OW38915   5.574   1.431   6.397  0.6760  0.1308  0.3592
12303SOL    HW138916   5.540   1.345   6.372 -0.1557  0.2099  1.1658
12303SOL    HW238917   5.662   1.413   6.432  0.9251 -0.2512 -0.4361
12304SOL     OW38918   9.075  10.631   7.826  0.0899  0.0610  0.1208
12304SOL    HW138919   9.116  10.568   7.767 -2.5360  0.3638 -2.2503
12304SOL    HW238920   9.144  10.693   7.847  1.7464 -1.4430 -0.6166
12305SOL     OW38921   0.807  11.261   1.631 -0.5331  0.2372  0.0517
12305SOL    HW138922   0.724  11.307   1.614 -1.3668 -0.8142  1.1095
12305SOL    HW238923   0.846  11.308   1.704 -1.9656 -1.3443  1.9389
12306SOL     OW38924   5.433   2.875   3.870  0.8502 -0.6868  0.0239
12306SOL    HW138925   5.470   2.893   3.784  0.2241 -0.7075 -0.2562
12306SOL    HW238926   5.387   2.956   3.893  0.2952 -0.9796 -0.0426
12307SOL     OW38927   2.369   6.468   7.928 -0.3172  0.0019 -0.3080
12307SOL    HW138928   2.402   6.557   7.941  1.6739 -0.9645  2.0001
12307SOL    HW238929   2.289   6.464   7.981 -1.2953  0.8210 -1.6734
12308SOL     OW38930   9.233   4.804   9.638  0.3245  0.4084  0.8155
12308SOL    HW138931   9.153   4.774   9.594  0.9240  2.8195 -2.2342
12308SOL    HW238932   9.208   4.810   9.730 -1.6925 -2.8594  0.6385
12309SOL     OW38933   4.845   0.281   7.412 -0.4287 -0.7792 -0.3459
12309SOL    HW138934   4.772   0.341   7.427 -0.8050 -0.8125 -1.8522
12309SOL    HW238935   4.804   0.196   7.398 -0.0521 -0.9508 -0.4381
12310SOL     OW38936  10.438   4.336   4.125 -0.0096  0.4775  1.0950
12310SOL    HW138937  10.494   4.271   4.082  2.2275  1.9925  1.5257
12310SOL    HW238938  10.442   4.313   4.218 -1.8882 -0.6372  0.9482
12311SOL     OW38939  10.860   3.807   9.346  0.0657  0.0546 -0.6172
12311SOL    HW138940  10.953   3.819   9.363 -0.1218  2.2942 -0.9990
12311SOL    HW238941  10.849   3.822   9.253 -1.0672  2.9313 -0.1092
12312SOL     OW38942   4.009   8.007   0.556 -0.0159 -0.0063 -0.0363
12312SOL    HW138943   4.055   7.940   0.607  2.0371  1.8225  0.6694
12312SOL    HW238944   3.944   8.043   0.616 -0.1675 -0.4003  0.0374
12313SOL     OW38945   7.497   9.814   3.226 -0.2639 -0.1279  0.3115
12313SOL    HW138946   7.565   9.852   3.172 -0.8942 -1.5012 -1.5380
12313SOL    HW238947   7.544   9.771   3.298  0.7738 -0.5162 -0.5853
12314SOL     OW38948   1.531   2.870  11.261 -0.5703  0.3059  0.4284
12314SOL    HW138949   1.467   2.804  11.289 -0.1696  0.5616  2.0931
12314SOL    HW238950   1.615   2.824  11.260 -0.2488  0.7835  1.8387
12315SOL     OW38951   0.748   2.861   4.818 -0.0358 -0.2783  0.9857
12315SOL    HW138952   0.730   2.795   4.751 -0.4475  1.1389 -0.3469
12315SOL    HW238953   0.800   2.814   4.884  1.2666 -1.4954 -0.7978
12316SOL     OW38954  10.787   0.387   8.739 -0.1255  0.3856  0.5216
12316SOL    HW138955  10.772   0.396   8.833 -0.6620 -0.8433  0.5813
12316SOL    HW238956  10.785   0.292   8.724  0.1027  0.5600 -0.7018
12317SOL     OW38957   4.482   8.625   1.126 -0.5963 -0.5730  0.3598
12317SOL    HW138958   4.534   8.647   1.203  2.2807  0.9808 -1.8485
12317SOL    HW238959   4.395   8.605   1.161  0.8210 -0.9844  4.0460
12318SOL     OW38960   1.582  11.179   3.065 -0.1037 -0.1399  0.2248
12318SOL    HW138961   1.508  11.213   3.115  1.3776  1.1444  1.7012
12318SOL    HW238962   1.544  11.145   2.985 -1.9833  3.6909 -0.7270
12319SOL     OW38963   3.658  11.202   6.239 -0.0170  0.1643 -0.1613
12319SOL    HW138964   3.708  11.169   6.165 -1.4075 -1.6749 -0.3344
12319SOL    HW238965   3.724  11.226   6.304  1.1380 -3.5448  0.2141
12320SOL     OW38966   3.311   5.794   4.176  0.0557  0.0108  0.3334
12320SOL    HW138967   3.274   5.706   4.183  0.9601 -0.2651  2.3432
12320SOL    HW238968   3.406   5.780   4.169  0.0453  0.7690 -2.7470
12321SOL     OW38969   9.800   7.824   7.367  0.1953  0.5225 -0.2309
12321SOL    HW138970   9.844   7.739   7.376  0.8049  0.6668 -1.6198
12321SOL    HW238971   9.822   7.853   7.279 -0.1916  2.0318  0.1453
12322SOL     OW38972   0.468   0.256   0.628  0.3245  0.2206  0.3603
12322SOL    HW138973   0.502   0.343   0.648  2.7480 -0.0590 -1.9431
12322SOL    HW238974   0.423   0.266   0.544  0.7063 -0.7421  0.0301
12323SOL     OW38975   2.416   3.483  10.076  0.0614 -0.3242  0.4157
12323SOL    HW138976   2.348   3.475  10.010 -0.9136 -0.7076  1.4289
12323SOL    HW238977   2.439   3.576  10.075 -0.8919 -0.0713  0.4425
12324SOL     OW38978   0.797   2.027   1.061 -1.3188 -0.4899 -0.0729
12324SOL    HW138979   0.767   2.099   1.116  2.2027 -1.5313  3.7285
12324SOL    HW238980   0.786   1.949   1.115  0.6538 -1.8921 -1.5135
12325SOL     OW38981   6.130   5.838   1.690 -0.4249 -0.0470 -0.2633
12325SOL    HW138982   6.159   5.755   1.727  0.3411  0.1854 -0.3225
12325SOL    HW238983   6.063   5.814   1.626 -1.0294 -0.5247  0.5256
12326SOL     OW38984   5.302   5.755   2.631  0.4514  0.5706  0.0139
12326SOL    HW138985   5.330   5.670   2.665 -1.0853  0.3202  0.7273
12326SOL    HW238986   5.342   5.819   2.688  0.0126  0.2391  0.7060
12327SOL     OW38987   5.973   8.805   5.586  0.4998 -0.6481  0.2181
12327SOL    HW138988   5.972   8.709   5.580 -1.6978 -0.6921  0.5747
12327SOL    HW238989   6.047   8.823   5.644  1.6875 -2.0296 -0.7737
12328SOL     OW38990   9.351  10.701   7.914 -0.0318 -0.1972  0.8960
12328SOL    HW138991   9.346  10.680   8.007 -1.3582 -0.7011  0.7378
12328SOL    HW238992   9.425  10.761   7.906 -1.0255  1.3260  2.5489
12329SOL     OW38993   3.871   6.413   6.243 -0.3515 -0.1196  0.6360
12329SOL    HW138994   3.955   6.393   6.284  0.3017 -0.0644 -0.6235
12329SOL    HW238995   3.866   6.509   6.244 -0.2191 -0.1074  0.3958
12330SOL     OW38996   4.001   6.142   9.602  0.1649 -0.6501 -0.2668
12330SOL    HW138997   3.955   6.138   9.518  1.8782 -2.8479 -1.2145
12330SOL    HW238998   4.063   6.215   9.592 -0.2360 -0.3470 -0.5812
12331SOL     OW38999   4.874   5.196   1.560  0.4661  0.6173  0.3366
12331SOL    HW139000   4.953   5.143   1.545  0.7195  0.5347  1.7735
12331SOL    HW239001   4.904   5.286   1.549  0.1626  0.5302 -1.5577
12332SOL     OW39002  10.579   0.143  11.032  0.5336 -0.2929  0.7461
12332SOL    HW139003  10.539   0.181  10.953 -0.4372 -0.1921  1.2719
12332SOL    HW239004  10.670   0.173  11.030  0.0626  1.1679  0.5847
12333SOL     OW39005   3.942   0.616   3.696  0.0416  0.1933 -0.4367
12333SOL    HW139006   3.940   0.597   3.602 -0.6144 -1.2782 -0.1617
12333SOL    HW239007   3.854   0.595   3.726 -0.1525  1.9307  0.3032
12334SOL     OW39008  10.619   7.274   3.522  0.0647  0.4187  0.7920
12334SOL    HW139009  10.707   7.292   3.554  0.2075  2.0409 -0.3718
12334SOL    HW239010  10.581   7.361   3.508 -2.2304 -0.2097  2.5499
12335SOL     OW39011   1.695  10.016   7.138  0.8622 -0.4461  0.0352
12335SOL    HW139012   1.654   9.942   7.183 -0.4403  0.7540  0.9041
12335SOL    HW239013   1.623  10.056   7.089  2.0552 -1.1984 -2.5050
12336SOL     OW39014   9.749  10.733   6.967  0.1220 -0.2145  0.3745
12336SOL    HW139015   9.776  10.702   6.881 -4.3136 -0.0585 -1.3392
12336SOL    HW239016   9.693  10.808   6.948 -1.5788 -0.6017  3.3356
12337SOL     OW39017   5.586   3.308   3.755  1.0342 -0.6560  0.4010
12337SOL    HW139018   5.504   3.280   3.795  1.6965 -0.6306  1.8475
12337SOL    HW239019   5.560   3.361   3.680 -0.2507 -1.1569  0.4691
12338SOL     OW39020   0.955   6.367   1.560  0.1575  0.5087  0.2800
12338SOL    HW139021   0.873   6.371   1.609 -1.2243  0.9128 -1.9406
12338SOL    HW239022   1.017   6.327   1.621 -1.4857  0.8294  2.2645
12339SOL     OW39023   5.282   9.152   3.319  0.3054 -1.0671  0.4594
12339SOL    HW139024   5.332   9.232   3.303 -2.0708  0.8218  1.8004
12339SOL    HW239025   5.265   9.117   3.232  0.8499  0.2497 -0.2149
12340SOL     OW39026   3.217   2.906   9.119  0.1303  0.2219  0.3676
12340SOL    HW139027   3.167   2.867   9.191  0.4423 -1.6968 -0.4138
12340SOL    HW239028   3.264   2.979   9.160 -1.4430  0.6164  1.6063
12341SOL     OW39029   2.489   6.845   6.648 -0.0593 -0.8492 -0.2555
12341SOL    HW139030   2.451   6.848   6.736 -0.3226 -0.6111 -0.3732
12341SOL    HW239031   2.414   6.832   6.590 -0.7072  3.8283 -0.9118
12342SOL     OW39032   6.979   4.781  10.428 -0.3337  0.4996 -0.2817
12342SOL    HW139033   6.889   4.756  10.446  0.4915 -1.8158  1.0215
12342SOL    HW239034   7.023   4.698  10.408  1.0265  1.7945 -3.4393
12343SOL     OW39035   4.269   6.199   8.778  0.4580 -0.2119  0.2230
12343SOL    HW139036   4.350   6.233   8.741  0.7495 -0.3458  0.7362
12343SOL    HW239037   4.297   6.142   8.850 -0.1417  1.4248  1.8259
12344SOL     OW39038   3.014   5.743   4.713  0.0111 -0.6702  0.3933
12344SOL    HW139039   2.939   5.704   4.757  0.6861 -0.8410  1.4313
12344SOL    HW239040   2.979   5.775   4.629 -0.8934 -2.0419  0.2120
12345SOL     OW39041   7.358   1.219   2.553 -0.0612  0.2143  0.4057
12345SOL    HW139042   7.291   1.153   2.564 -1.2048  1.1282 -0.7223
12345SOL    HW239043   7.367   1.260   2.639  1.2612 -1.8748  1.3451
12346SOL     OW39044   5.990   8.850   3.800 -0.1849 -0.3779  0.3331
12346SOL    HW139045   5.992   8.790   3.725 -1.8897  0.8193 -0.7423
12346SOL    HW239046   6.023   8.933   3.765 -2.1543  0.5349  0.4975
12347SOL     OW39047   6.150   5.917   7.096  0.1702  0.6414  0.0309
12347SOL    HW139048   6.199   5.984   7.145 -0.0239  0.6319  0.2393
12347SOL    HW239049   6.199   5.907   7.014 -1.2346  2.9921 -1.2032
12348SOL     OW39050   8.868   9.409   5.242 -0.5439  0.0599  0.5511
12348SOL    HW139051   8.814   9.350   5.294 -1.4138 -1.0672 -1.5152
12348SOL    HW239052   8.952   9.364   5.233 -1.2832 -1.0937 -1.2251
12349SOL     OW39053   7.433   4.162   6.738  0.0168  0.7158 -0.1257
12349SOL    HW139054   7.401   4.250   6.721  1.7023  1.5432  0.7242
12349SOL    HW239055   7.363   4.119   6.787  0.1768  2.4784  1.7760
12350SOL     OW39056   1.093   5.603   1.038 -0.1750  0.2029 -0.1152
12350SOL    HW139057   1.061   5.692   1.021  0.6194  1.1048  2.6052
12350SOL    HW239058   1.079   5.590   1.132  1.7676 -1.6897 -0.0128
12351SOL     OW39059   9.303   6.801   9.247  0.1603 -0.0152  0.3497
12351SOL    HW139060   9.230   6.756   9.291  0.0463  0.0164  0.1940
12351SOL    HW239061   9.286   6.894   9.260  0.4931 -0.0182  0.8265
12352SOL     OW39062   7.261  10.031   8.756  0.8870  0.2990 -0.3638
12352SOL    HW139063   7.182   9.977   8.751  0.2334  1.2123  0.0397
12352SOL    HW239064   7.231  10.120   8.742  2.0229  0.5421 -1.4451
12353SOL     OW39065   5.581   0.632   7.154 -0.3189 -0.5070  0.1738
12353SOL    HW139066   5.554   0.636   7.062  0.2308  3.5354  0.0037
12353SOL    HW239067   5.542   0.709   7.194 -0.3319 -1.9878  3.3674
12354SOL     OW39068   7.373   7.895   3.101 -0.2681  0.0137  0.3341
12354SOL    HW139069   7.285   7.929   3.118 -0.1488  1.1692 -1.2038
12354SOL    HW239070   7.359   7.817   3.049 -0.4619 -1.4902  2.4903
12355SOL     OW39071   3.012   4.990   4.943  0.5448 -0.2897 -0.4612
12355SOL    HW139072   2.916   4.988   4.950  0.2860  4.0078  0.2400
12355SOL    HW239073   3.043   4.962   5.029 -0.1547 -0.3411 -0.2163
12356SOL     OW39074   8.615   2.829   6.435  0.5474 -0.1915 -0.0581
12356SOL    HW139075   8.529   2.788   6.446  0.8414 -0.6483  0.5942
12356SOL    HW239076   8.651   2.788   6.356  0.1530  0.0299 -0.3555
12357SOL     OW39077   8.669   3.262   2.427  0.3247 -0.0168  0.5331
12357SOL    HW139078   8.608   3.223   2.489  2.2126 -1.7394  1.4447
12357SOL    HW239079   8.631   3.246   2.341 -1.1426  0.1983  1.1250
12358SOL     OW39080   7.734   8.402   5.967 -0.0541  0.3356 -0.1314
12358SOL    HW139081   7.665   8.338   5.984 -0.2862  0.9964  1.6334
12358SOL    HW239082   7.792   8.359   5.904 -1.6424 -0.5286 -1.0781
12359SOL     OW39083   4.599   7.046   0.166 -0.0667 -0.3360 -0.2237
12359SOL    HW139084   4.509   7.069   0.146  0.0642  0.1439 -0.2901
12359SOL    HW239085   4.611   7.071   0.258  0.6048  1.6331 -0.7945
12360SOL     OW39086   5.874  10.053   8.122 -0.5138 -0.1351  0.7014
12360SOL    HW139087   5.865  10.056   8.217  0.3194  0.0269  0.7793
12360SOL    HW239088   5.905   9.964   8.103 -1.3828 -0.4049  0.5137
12361SOL     OW39089  10.577   3.354  10.736  0.2465  0.8688 -0.3345
12361SOL    HW139090  10.592   3.442  10.701  0.6285  0.6171 -0.8129
12361SOL    HW239091  10.556   3.301  10.660  0.7613  0.3858 -0.1462
12362SOL     OW39092   2.212   8.189   6.907 -0.3699 -0.3551  0.6378
12362SOL    HW139093   2.134   8.243   6.894 -0.4812 -0.9291 -1.4300
12362SOL    HW239094   2.285   8.251   6.910 -0.8204  0.1457  2.1026
12363SOL     OW39095   7.494   8.323   1.180 -0.5018  0.1678  0.0545
12363SOL    HW139096   7.433   8.283   1.118  1.3819  0.8382 -2.4051
12363SOL    HW239097   7.469   8.415   1.182  0.0404  0.3385 -0.5379
12364SOL     OW39098   6.105  10.747   5.603  0.4161 -0.5730  0.0940
12364SOL    HW139099   6.015  10.727   5.581  0.5583 -3.8070  1.7951
12364SOL    HW239100   6.153  10.738   5.521 -0.5168 -1.1338 -0.4052
12365SOL     OW39101   7.949   1.939   2.725 -0.4765  0.5369  0.0490
12365SOL    HW139102   7.934   1.844   2.726 -2.4078  0.7888  1.6789
12365SOL    HW239103   7.862   1.977   2.737  0.1107  2.5847 -1.5219
12366SOL     OW39104   4.105   8.151   8.392  1.2831  0.1044 -0.4957
12366SOL    HW139105   4.015   8.171   8.369  0.6647 -4.2086 -2.8937
12366SOL    HW239106   4.158   8.201   8.330  0.7434  2.8034  1.0454
12367SOL     OW39107  10.135   9.273   4.542 -0.1806  0.4499 -0.0957
12367SOL    HW139108  10.078   9.247   4.614 -1.2048 -0.3572 -1.1689
12367SOL    HW239109  10.167   9.360   4.567 -1.2592  0.5840  0.8885
12368SOL     OW39110   8.930   9.437   0.556  0.5895 -0.6644  0.3680
12368SOL    HW139111   8.922   9.503   0.486  0.3295 -0.2779  0.7584
12368SOL    HW239112   8.987   9.477   0.621 -1.4560  0.1909  1.7442
12369SOL     OW39113   0.669   2.948  10.724  0.4181  0.2454  0.6969
12369SOL    HW139114   0.584   2.906  10.739  0.0947  0.0778 -1.3651
12369SOL    HW239115   0.687   2.934  10.631  1.1392  3.1165  0.3080
12370SOL     OW39116   1.422   0.670   0.151 -0.1152 -0.1596 -0.4156
12370SOL    HW139117   1.451   0.645   0.239  0.8464  2.8163  0.2394
12370SOL    HW239118   1.356   0.605   0.128  0.9834 -2.1615  1.6843
12371SOL     OW39119   1.714   0.561   0.593 -0.5708  0.4709 -0.4334
12371SOL    HW139120   1.730   0.467   0.588  0.7379  0.7244 -1.3784
12371SOL    HW239121   1.663   0.572   0.673 -0.6794 -1.0269 -0.2655
12372SOL     OW39122   7.721  10.867   9.138 -0.2366  0.3604  0.8714
12372SOL    HW139123   7.628  10.890   9.133 -0.4469 -0.5293  0.4869
12372SOL    HW239124   7.721  10.771   9.148  0.6811 -0.1343 -2.5658
12373SOL     OW39125   9.054   7.667   2.965 -0.1673  0.4243  0.3808
12373SOL    HW139126   8.973   7.703   3.001 -1.0057  1.3840 -2.2741
12373SOL    HW239127   9.123   7.727   2.995 -0.9765  1.8166 -0.4493
12374SOL     OW39128   4.935   6.113   6.067 -0.1330  0.6837  0.1836
12374SOL    HW139129   4.987   6.033   6.053  1.0080  1.5389 -0.6159
12374SOL    HW239130   5.000   6.180   6.087 -0.7693  2.1127 -2.2447
12375SOL     OW39131   9.807   4.974  11.160  0.5572 -0.5719 -0.1441
12375SOL    HW139132   9.819   4.880  11.147 -1.5722 -0.7779 -0.9285
12375SOL    HW239133   9.866   5.014  11.097  2.8724 -1.2897  1.4372
12376SOL     OW39134   7.114   5.566  10.896  0.2777  0.1953 -0.4724
12376SOL    HW139135   7.099   5.507  10.970 -4.1573 -0.0792 -1.3214
12376SOL    HW239136   7.068   5.647  10.920 -2.0355 -0.1872 -3.1176
12377SOL     OW39137   0.539   9.562   2.782 -0.0074  0.4778  0.1378
12377SOL    HW139138   0.567   9.471   2.776  0.7704  0.7501 -0.5275
12377SOL    HW239139   0.445   9.560   2.763  0.5011  0.1216 -2.6100
12378SOL     OW39140   7.486   6.832   0.045  0.0377  0.1288 -0.1397
12378SOL    HW139141   7.428   6.787  -0.017 -0.2738  1.8056 -1.1225
12378SOL    HW239142   7.567   6.781   0.043 -0.4668 -0.6835 -0.8129
12379SOL     OW39143   7.560   3.419   1.098 -0.4232 -0.9050  0.1846
12379SOL    HW139144   7.616   3.398   1.172  0.0573 -0.5157 -0.0624
12379SOL    HW239145   7.619   3.454   1.032 -0.8916 -0.9408 -0.2607
12380SOL     OW39146   8.086   4.774   3.703  0.0527  0.5902  0.0761
12380SOL    HW139147   8.169   4.731   3.682  0.7876  1.5970  0.8239
12380SOL    HW239148   8.020   4.709   3.681  0.9665  0.1745 -1.6045
12381SOL     OW39149  10.165   3.841   8.812 -0.2641  0.5155 -0.1285
12381SOL    HW139150  10.142   3.933   8.829 -1.2397  0.3477 -0.4790
12381SOL    HW239151  10.260   3.838   8.822 -0.2379  1.5317  0.0497
12382SOL     OW39152   5.971   5.796   0.339  0.3097  0.0922 -0.1861
12382SOL    HW139153   5.891   5.844   0.320  0.7135  0.6565 -0.4893
12382SOL    HW239154   6.040   5.862   0.340  1.1755 -0.6689 -2.4642
12383SOL     OW39155   3.807   1.677   2.020  0.5343 -0.7743 -0.5518
12383SOL    HW139156   3.902   1.680   2.028  0.6075 -2.4491 -0.2882
12383SOL    HW239157   3.789   1.708   1.932  1.2815  0.0161 -0.4392
12384SOL     OW39158   1.309   1.652   9.585 -1.0918  0.0733 -0.2440
12384SOL    HW139159   1.292   1.583   9.650 -1.3271 -0.9581 -1.3665
12384SOL    HW239160   1.223   1.688   9.567 -1.2805 -0.8471 -1.2657
12385SOL     OW39161   1.376   7.772   5.746  0.0747  0.7201 -0.1697
12385SOL    HW139162   1.348   7.822   5.823  1.0437  1.2178 -0.1128
12385SOL    HW239163   1.303   7.778   5.685 -1.4249 -1.1368  1.3416
12386SOL     OW39164   0.145   8.980   1.417  0.2851  0.5971  0.3006
12386SOL    HW139165   0.057   9.016   1.428  0.0890  0.1241  0.3285
12386SOL    HW239166   0.166   8.941   1.502  1.2386  2.2246  0.8380
12387SOL     OW39167   5.627   6.631   3.546 -0.0673  0.5899 -0.0791
12387SOL    HW139168   5.649   6.669   3.631  0.1714 -0.4107  0.3209
12387SOL    HW239169   5.689   6.671   3.485  1.7479 -0.8350  0.7257
12388SOL     OW39170  10.650   8.425   7.979 -0.1410 -0.2977  0.2968
12388SOL    HW139171  10.604   8.350   8.014 -0.6819 -0.1927 -0.1777
12388SOL    HW239172  10.743   8.404   7.990 -0.2900 -0.9989  0.2306
12389SOL     OW39173   4.446   6.912   4.708  0.4719  0.4001 -0.0642
12389SOL    HW139174   4.455   7.000   4.744  0.0596  0.4843 -0.1659
12389SOL    HW239175   4.398   6.923   4.626 -1.0914 -0.0779  0.7378
12390SOL     OW39176   9.372   8.071   6.722 -0.5487  0.1043  0.1331
12390SOL    HW139177   9.350   7.988   6.680 -1.6147  0.6644 -0.4835
12390SOL    HW239178   9.344   8.061   6.813 -1.2545 -0.0091 -0.0901
12391SOL     OW39179   4.297   9.537   1.728 -0.4151  0.0845 -0.1500
12391SOL    HW139180   4.259   9.465   1.678  0.8322 -1.2212  0.6899
12391SOL    HW239181   4.229   9.562   1.790 -0.6120 -0.9027  0.0504
12392SOL     OW39182   6.053  10.033  10.254 -0.7692 -0.0366  0.2822
12392SOL    HW139183   6.002   9.962  10.216  1.9497 -1.5406 -0.8032
12392SOL    HW239184   6.079  10.000  10.340 -0.2402  0.0063  0.1400
12393SOL     OW39185   5.834   3.861   6.799  0.1616  0.3215 -0.1838
12393SOL    HW139186   5.815   3.767   6.796 -0.3879  0.4069  0.4443
12393SOL    HW239187   5.775   3.899   6.735 -3.2059  0.7872  2.8781
12394SOL     OW39188   4.639   0.569   2.848 -1.0760  0.3356 -0.4442
12394SOL    HW139189   4.551   0.587   2.815  0.2158  2.4105 -3.1486
12394SOL    HW239190   4.626   0.508   2.920 -5.3222  5.0119  3.4876
12395SOL     OW39191   8.475   8.424   1.229 -0.7827  0.2057  0.1706
12395SOL    HW139192   8.462   8.519   1.232 -2.1174  0.0625 -0.3173
12395SOL    HW239193   8.516   8.402   1.313 -3.0476  0.8581  1.5227
12396SOL     OW39194   1.003   0.448   6.853 -0.5813  1.2981 -0.8971
12396SOL    HW139195   1.040   0.531   6.883  0.7590  1.2334 -2.1950
12396SOL    HW239196   1.017   0.387   6.926 -0.7810  1.9997 -0.2662
12397SOL     OW39197   1.645   5.953   4.258  0.2592 -0.3818  0.3418
12397SOL    HW139198   1.585   5.989   4.193  0.9379 -1.9281 -1.2174
12397SOL    HW239199   1.698   6.028   4.285 -1.2076  0.6564  0.4801
12398SOL     OW39200   2.084   5.595   5.449  0.4288 -0.4180  0.7120
12398SOL    HW139201   2.015   5.628   5.506  0.9047 -0.0773  1.1081
12398SOL    HW239202   2.053   5.511   5.418 -0.9091  0.4672 -0.4666
12399SOL     OW39203   3.323   6.616   1.291 -0.1655 -0.2563 -0.5994
12399SOL    HW139204   3.279   6.635   1.208 -1.4964 -1.0808 -0.1265
12399SOL    HW239205   3.252   6.614   1.355  0.6979 -0.7590  0.3673
12400SOL     OW39206   3.355   3.437   2.041 -0.3767 -0.1096 -0.5998
12400SOL    HW139207   3.387   3.481   2.120  1.0483  0.0410 -1.2368
12400SOL    HW239208   3.406   3.356   2.036 -0.5068 -0.1569 -1.3243
12401SOL     OW39209   1.157   4.083   4.502 -0.1064 -0.3023 -0.6232
12401SOL    HW139210   1.131   4.137   4.577 -1.2531 -0.3572 -0.9695
12401SOL    HW239211   1.188   4.146   4.437  1.5473 -0.2964  0.1219
12402SOL     OW39212   8.650   9.632   1.219  0.1636 -0.4813 -0.2770
12402SOL    HW139213   8.619   9.583   1.296  0.5565  0.2625  0.3610
12402SOL    HW239214   8.585   9.612   1.152  0.4604 -2.1122 -0.1319
12403SOL     OW39215   9.620   5.614   2.325 -0.7650 -0.1630  0.4059
12403SOL    HW139216   9.649   5.656   2.244 -1.6544 -1.8244 -0.8397
12403SOL    HW239217   9.695   5.623   2.384  1.6219 -2.4039 -1.9492
12404SOL     OW39218   8.550  10.946   8.003 -0.4351 -0.5933  0.2522
12404SOL    HW139219   8.603  11.014   7.963 -0.2805 -0.2985  0.9484
12404SOL    HW239220   8.548  10.968   8.096  0.9122 -2.3842  0.7573
12405SOL     OW39221   1.370   5.547   9.502  0.3763  0.2203 -0.0428
12405SOL    HW139222   1.424   5.469   9.506  1.3150  0.8729  0.3069
12405SOL    HW239223   1.313   5.534   9.426 -0.6843 -1.5392  0.9903
12406SOL     OW39224   6.586   7.000   5.937  0.8424  0.1048  0.6725
12406SOL    HW139225   6.659   6.987   5.877  0.1338  1.3888 -0.5119
12406SOL    HW239226   6.628   7.011   6.023  1.7617 -4.6028  1.1039
12407SOL     OW39227   4.506   3.782   6.401 -0.3561 -0.5078 -0.6231
12407SOL    HW139228   4.416   3.754   6.421 -1.2146  1.3007 -1.7456
12407SOL    HW239229   4.496   3.857   6.343  1.9148 -0.4913 -1.0943
12408SOL     OW39230   8.864   6.207   2.285 -0.0978  0.6632  0.5898
12408SOL    HW139231   8.918   6.171   2.355  1.7678  2.7705  0.3458
12408SOL    HW239232   8.905   6.175   2.204  0.1090  1.3631  0.4146
12409SOL     OW39233   9.098   5.300   6.421  0.1433  0.2204  0.4365
12409SOL    HW139234   9.159   5.371   6.402  0.3015 -0.3933 -1.5800
12409SOL    HW239235   9.014   5.330   6.386  0.0878 -0.3412  0.0733
12410SOL     OW39236   2.680   6.792   2.257  0.4898 -0.1814 -0.1526
12410SOL    HW139237   2.594   6.823   2.287  1.6185  0.3011  2.9366
12410SOL    HW239238   2.663   6.757   2.170 -2.6743  0.6398 -0.0083
12411SOL     OW39239   8.101   2.744   4.428 -0.0747  0.8648 -0.4997
12411SOL    HW139240   8.159   2.697   4.488  1.4623  2.2811 -0.7860
12411SOL    HW239241   8.028   2.773   4.483 -0.5715 -0.9889 -0.1359
12412SOL     OW39242   9.270   8.618   1.218 -0.2758 -0.3034 -1.2452
12412SOL    HW139243   9.291   8.528   1.195  0.1986 -0.1236 -1.5277
12412SOL    HW239244   9.351   8.667   1.201 -0.5986  0.2161 -1.3120
12413SOL     OW39245   4.382   2.621   2.596  0.0878  0.3046 -0.4245
12413SOL    HW139246   4.367   2.543   2.543 -0.6003 -0.9411  1.4885
12413SOL    HW239247   4.307   2.624   2.656  0.2410  2.2970 -0.2645
12414SOL     OW39248   7.737   1.007   1.249 -0.0391 -0.8206 -0.1850
12414SOL    HW139249   7.722   1.063   1.173 -2.6412 -0.5343  0.4381
12414SOL    HW239250   7.794   1.058   1.306 -1.9696  1.0594  0.1626
12415SOL     OW39251   8.065   8.493  10.999  0.4108  0.0221  0.1662
12415SOL    HW139252   8.156   8.475  11.022  1.0525  1.8475 -0.7629
12415SOL    HW239253   8.027   8.406  10.984  2.1012 -0.7659  0.1593
12416SOL     OW39254   0.648   6.935  10.957 -0.3028  0.3381 -0.0721
12416SOL    HW139255   0.567   6.885  10.944 -1.7708  2.3461  0.7459
12416SOL    HW239256   0.684   6.946  10.870 -2.3286  1.5682 -0.8246
12417SOL     OW39257   4.814   2.998   8.009  0.0920 -0.0893  0.9154
12417SOL    HW139258   4.844   3.052   7.936 -0.0045  1.2602  1.8421
12417SOL    HW239259   4.849   2.911   7.990 -0.8615 -0.0803 -1.3196
12418SOL     OW39260   0.908   9.394  10.726  0.0041 -0.1815  0.5635
12418SOL    HW139261   0.929   9.415  10.635  0.3706 -2.4445  0.0588
12418SOL    HW239262   0.903   9.479  10.770  2.3405  0.8867 -1.0173
12419SOL     OW39263   8.226   0.418   5.997 -0.6911  0.2539 -0.7812
12419SOL    HW139264   8.161   0.487   6.014 -0.8461  0.1210 -0.8397
12419SOL    HW239265   8.296   0.436   6.060 -0.4627  0.8159 -1.1789
12420SOL     OW39266   1.146   2.393   4.301  0.2303  0.1925 -0.3257
12420SOL    HW139267   1.221   2.337   4.280  0.7513  1.0644 -0.8585
12420SOL    HW239268   1.185   2.478   4.322 -0.2665 -0.3067  3.4107
12421SOL     OW39269  10.621   1.795   7.709 -0.4118  0.3247 -0.3740
12421SOL    HW139270  10.708   1.835   7.714 -0.1880 -0.2475  0.4915
12421SOL    HW239271  10.635   1.714   7.660 -0.2155 -0.3498  0.7544
12422SOL     OW39272   3.914   9.367  10.585  0.3195 -0.0893  0.6185
12422SOL    HW139273   3.869   9.323  10.513  1.8533  4.3528 -3.5694
12422SOL    HW239274   3.846   9.383  10.650 -1.9749 -1.5430 -1.2568
12423SOL     OW39275   0.874   7.780   5.867  0.0318  0.9134 -0.4340
12423SOL    HW139276   0.893   7.870   5.891  0.9461  0.4114  0.8365
12423SOL    HW239277   0.838   7.785   5.778  0.7479  2.4413 -0.6579
12424SOL     OW39278   3.041   6.739   5.539  0.3160  1.0686 -0.4302
12424SOL    HW139279   2.973   6.703   5.482  0.7303  1.6163 -1.2752
12424SOL    HW239280   3.068   6.820   5.497 -0.9988  2.7437  1.7122
12425SOL     OW39281   1.044   9.065   6.611 -1.1400 -0.8442 -0.3818
12425SOL    HW139282   1.084   9.149   6.633  0.6592 -1.7937  0.2538
12425SOL    HW239283   0.998   9.081   6.529 -2.0883  1.0927  0.4570
12426SOL     OW39284   5.227   5.028   5.350  0.5559  0.3793 -0.4073
12426SOL    HW139285   5.188   5.098   5.296 -0.0408 -1.2453 -2.1829
12426SOL    HW239286   5.179   4.949   5.324  0.9032 -0.6397  1.8802
12427SOL     OW39287   1.392  10.011  10.125 -0.7904 -0.6032 -0.0779
12427SOL    HW139288   1.451  10.085  10.141  1.5619 -1.8696 -2.1042
12427SOL    HW239289   1.343  10.037  10.047 -2.9941  0.4047  1.5453
12428SOL     OW39290   4.586   2.211   7.203 -0.1132  0.2689  0.1000
12428SOL    HW139291   4.498   2.200   7.237  0.1545 -0.8065  0.4883
12428SOL    HW239292   4.604   2.131   7.154  1.7277 -0.9929  2.5689
12429SOL     OW39293   7.043   7.086  10.221  0.1886  0.2705  0.0268
12429SOL    HW139294   7.033   7.053  10.310  0.1039  1.0480  0.3200
12429SOL    HW239295   7.066   7.009  10.168  1.6840  0.0326  0.9604
12430SOL     OW39296   5.529   2.044   9.819 -0.2718 -0.2833  0.1250
12430SOL    HW139297   5.606   2.013   9.772  0.6658 -0.0688  1.4776
12430SOL    HW239298   5.457   2.030   9.758  0.6901 -1.3798 -0.8043
12431SOL     OW39299   1.906   3.327   4.949 -0.0982  0.0859 -0.0428
12431SOL    HW139300   1.960   3.310   4.872 -0.8401  0.0222 -0.5544
12431SOL    HW239301   1.892   3.240   4.988 -1.5429 -0.1684 -1.0755
12432SOL     OW39302   5.586   2.969   8.288 -0.1013  0.8089 -0.0582
12432SOL    HW139303   5.645   3.036   8.255 -2.4690  1.8257 -2.7097
12432SOL    HW239304   5.573   2.992   8.380 -0.3371  3.7128 -0.6975
12433SOL     OW39305   5.395   8.629   0.077 -0.2271 -0.4196 -0.0112
12433SOL    HW139306   5.444   8.628   0.159 -0.2159 -0.6175 -0.0195
12433SOL    HW239307   5.332   8.701   0.087 -0.5497 -0.7506  0.3617
12434SOL     OW39308   1.178   0.399   9.903  0.6351  0.1877  0.3105
12434SOL    HW139309   1.236   0.386   9.829 -0.5214 -1.5774 -0.3410
12434SOL    HW239310   1.105   0.451   9.868 -0.5384 -1.7107 -0.1761
12435SOL     OW39311   3.396   8.190   6.746 -0.2141  0.0398 -0.7119
12435SOL    HW139312   3.355   8.258   6.693  2.6091  0.7147 -2.1904
12435SOL    HW239313   3.330   8.120   6.749 -1.3666  0.8929 -3.2290
12436SOL     OW39314   6.679   8.781   4.531  0.1578 -0.5604  0.0984
12436SOL    HW139315   6.661   8.874   4.544  1.8484 -0.2850  0.7745
12436SOL    HW239316   6.666   8.766   4.438 -0.1831  0.3446 -0.0044
12437SOL     OW39317   1.449   7.467   7.229 -0.3162  0.4829 -0.0425
12437SOL    HW139318   1.403   7.465   7.145 -0.8385  0.3523  0.2394
12437SOL    HW239319   1.498   7.384   7.231  0.6141  1.0001 -0.7085
12438SOL     OW39320  10.769   8.057   3.915  0.0231 -0.2945 -0.1982
12438SOL    HW139321  10.740   8.032   3.827 -0.3937  0.3079 -0.2343
12438SOL    HW239322  10.697   8.032   3.972 -1.5389  2.9219 -0.4990
12439SOL     OW39323   9.486   3.196   0.427  0.5051 -0.1557 -0.6330
12439SOL    HW139324   9.546   3.121   0.429  0.4759 -0.1663 -0.0083
12439SOL    HW239325   9.543   3.272   0.415  0.9772  0.1267  2.4529
12440SOL     OW39326   4.682   4.835  10.482  0.0392 -0.3226 -0.2202
12440SOL    HW139327   4.667   4.741  10.482  0.1046 -0.3344  0.1420
12440SOL    HW239328   4.772   4.845  10.448 -0.1395 -0.3587 -0.7094
12441SOL     OW39329   1.419   0.151   4.991  0.1763  0.1323 -0.4863
12441SOL    HW139330   1.465   0.228   4.958  1.0960 -0.8083 -1.4893
12441SOL    HW239331   1.482   0.080   4.980 -1.4017 -1.1408 -1.5634
12442SOL     OW39332   2.290  10.078   4.904 -0.4809 -0.9542 -0.0918
12442SOL    HW139333   2.218  10.042   4.853 -0.6714 -0.1097 -0.4212
12442SOL    HW239334   2.250  10.145   4.959  0.0727 -0.3997 -0.3612
12443SOL     OW39335   2.247   7.437   6.815 -0.8252  0.5504  0.4288
12443SOL    HW139336   2.294   7.467   6.893  1.0383 -0.5016 -0.2161
12443SOL    HW239337   2.295   7.477   6.742 -2.1344  0.9792 -0.2348
12444SOL     OW39338   5.256   1.360  10.665 -0.5816  0.5757  0.3624
12444SOL    HW139339   5.253   1.305  10.743 -0.6562 -1.5357 -1.0225
12444SOL    HW239340   5.348   1.387  10.658 -0.4609  0.3006  0.8641
12445SOL     OW39341   2.470   3.848  10.335 -0.5609 -0.6169  0.6470
12445SOL    HW139342   2.505   3.815  10.418  2.1582 -1.1636 -0.5956
12445SOL    HW239343   2.529   3.812  10.269 -3.5899 -1.5801 -1.7435
12446SOL     OW39344   3.991   6.876   7.911 -0.5970  0.0916  0.5941
12446SOL    HW139345   3.964   6.794   7.871 -2.5053  0.0274  1.8811
12446SOL    HW239346   3.919   6.937   7.891 -0.5961  0.6230  2.0911
12447SOL     OW39347   7.751  11.187   4.634 -0.3894  0.3385  0.4600
12447SOL    HW139348   7.834  11.225   4.662  1.1472  0.3199 -3.4593
12447SOL    HW239349   7.686  11.253   4.656  1.0489  1.5591  1.2398
12448SOL     OW39350  10.406   3.677   6.172 -0.0837  0.1283  0.0262
12448SOL    HW139351  10.396   3.608   6.238  1.1443  0.1851  0.2993
12448SOL    HW239352  10.478   3.647   6.117  1.3019  1.7076  0.8655
12449SOL     OW39353   2.517   5.981   2.868  0.2868 -0.4708  0.0437
12449SOL    HW139354   2.488   5.890   2.861 -0.7215 -0.3273  1.7175
12449SOL    HW239355   2.523   5.997   2.962 -2.0354  1.9043 -0.0825
12450SOL     OW39356   6.902   9.993   5.131  0.4611  0.0442  0.7716
12450SOL    HW139357   6.975  10.045   5.097 -0.8619  3.1809  2.2417
12450SOL    HW239358   6.827  10.020   5.077 -0.0268 -1.5279  0.6255
12451SOL     OW39359   9.616   0.963   8.496 -0.3195 -0.7681  0.1112
12451SOL    HW139360   9.554   0.950   8.424 -0.4331  2.3857 -0.4935
12451SOL    HW239361   9.659   1.046   8.476  1.8677 -1.3011  2.1520
12452SOL     OW39362   9.417   2.948   2.458  0.0388  0.2846 -0.1059
12452SOL    HW139363   9.451   2.947   2.369 -0.2631  0.5016 -0.2257
12452SOL    HW239364   9.484   2.992   2.509  0.9455 -1.2371  0.0787
12453SOL     OW39365   1.258   9.064   5.810  0.4258 -0.6776 -0.1807
12453SOL    HW139366   1.210   8.982   5.818 -0.9498  0.2651  2.0957
12453SOL    HW239367   1.318   9.064   5.885  1.3169 -0.1315 -0.8651
12454SOL     OW39368   6.259   3.910   4.166  0.2770  0.1915  0.2881
12454SOL    HW139369   6.262   3.820   4.132  0.5990 -0.1465  1.1472
12454SOL    HW239370   6.272   3.899   4.261  1.8390  1.2494  0.2302
12455SOL     OW39371   3.313   2.619   6.338  0.0925  0.6962  0.2232
12455SOL    HW139372   3.262   2.583   6.266 -0.1545  2.1360 -0.3499
12455SOL    HW239373   3.349   2.542   6.382  0.0853 -0.2203 -1.2944
12456SOL     OW39374   1.799   3.412   0.442  0.3503 -0.4342  0.3082
12456SOL    HW139375   1.859   3.353   0.488  0.6449 -0.0641  0.4129
12456SOL    HW239376   1.727   3.356   0.413  0.6244 -0.8412  0.4020
12457SOL     OW39377   3.460   6.716   2.842  0.4965 -0.2997 -0.6251
12457SOL    HW139378   3.479   6.627   2.872  0.1979 -0.0210  0.4441
12457SOL    HW239379   3.503   6.772   2.907  0.0504  0.3336 -0.8693
12458SOL     OW39380  10.108   5.537   3.147  0.3520 -0.2320 -0.2650
12458SOL    HW139381  10.133   5.451   3.180 -0.0714 -0.7904 -1.3716
12458SOL    HW239382  10.033   5.521   3.090 -1.0027  1.1087  1.0119
12459SOL     OW39383   1.204   4.317  11.227 -0.0077 -0.3862  0.2730
12459SOL    HW139384   1.260   4.382  11.270 -0.4635  0.9985 -1.1092
12459SOL    HW239385   1.263   4.273  11.165 -0.0793 -0.0083 -0.0727
12460SOL     OW39386   6.348   0.893   8.876 -0.1681 -0.1909 -0.3592
12460SOL    HW139387   6.285   0.883   8.805  0.7469  0.6007 -1.2984
12460SOL    HW239388   6.321   0.827   8.940 -0.8291 -1.1299 -1.5554
12461SOL     OW39389   7.211   7.571   3.914  0.2934 -0.4912 -0.2288
12461SOL    HW139390   7.190   7.589   3.823 -0.5325 -1.8241 -0.3217
12461SOL    HW239391   7.132   7.528   3.949  1.1464 -1.3603  0.6892
12462SOL     OW39392   0.217  10.088   7.363  0.3958 -0.3635 -0.4083
12462SOL    HW139393   0.151  10.029   7.327 -1.1724  1.2155 -0.2433
12462SOL    HW239394   0.261  10.036   7.430  0.1480 -1.8302 -1.3355
12463SOL     OW39395   1.249  11.253   9.397  0.1619 -0.2057 -0.0503
12463SOL    HW139396   1.323  11.306   9.368  0.8450 -0.3909  1.2926
12463SOL    HW239397   1.272  11.164   9.370  0.2951 -0.2199  0.1115
12464SOL     OW39398   2.978   1.372   6.752 -0.1324  0.0889  0.2182
12464SOL    HW139399   2.991   1.287   6.795  0.2188  0.7546  1.4828
12464SOL    HW239400   3.065   1.398   6.724 -0.5753 -1.1633 -2.6321
12465SOL     OW39401   4.942   2.380   4.256 -0.1399  0.1754  0.5080
12465SOL    HW139402   4.938   2.384   4.352  0.6312 -0.3530  0.5697
12465SOL    HW239403   5.013   2.439   4.232 -0.2798  0.2461  0.2581
12466SOL     OW39404   0.241   4.216   6.038 -0.3029 -0.2828 -0.4537
12466SOL    HW139405   0.186   4.280   6.083 -0.5907 -0.4263 -0.5979
12466SOL    HW239406   0.291   4.267   5.975  0.3903 -0.0208  0.2890
12467SOL     OW39407   1.612   5.765   2.974 -0.0573 -0.6232 -0.3688
12467SOL    HW139408   1.703   5.791   2.981 -0.4389  0.3888  1.4548
12467SOL    HW239409   1.570   5.838   2.927  0.2512 -1.6894 -2.4209
12468SOL     OW39410   9.381   2.569   2.774 -0.6661 -0.0280 -0.3445
12468SOL    HW139411   9.289   2.589   2.791  0.0087  2.9680  0.4842
12468SOL    HW239412   9.402   2.619   2.696  0.0350 -1.5427 -1.1583
12469SOL     OW39413   4.740  10.713   2.964  0.5949 -0.2850 -0.6014
12469SOL    HW139414   4.758  10.806   2.976  0.0932 -0.1520 -0.8609
12469SOL    HW239415   4.645  10.708   2.954  0.6027 -0.8414 -0.4399
12470SOL     OW39416   0.373   3.805   2.122  0.1024  0.1412  0.3524
12470SOL    HW139417   0.333   3.757   2.049  0.0876 -1.7901  1.5516
12470SOL    HW239418   0.368   3.744   2.195  3.1115  0.7267  1.1536
12471SOL     OW39419   0.008   7.699   4.351 -0.2254  0.3563  0.2947
12471SOL    HW139420  -0.021   7.739   4.433  0.1873  2.8247 -0.6749
12471SOL    HW239421  -0.042   7.744   4.283  0.4802 -0.6158 -0.9108
12472SOL     OW39422   1.227   2.860  10.202  0.3892  0.4651 -0.5437
12472SOL    HW139423   1.250   2.883  10.292  4.6072  2.9844 -1.9989
12472SOL    HW239424   1.240   2.765  10.198  3.9852  0.7560  0.7250
12473SOL     OW39425   9.642   7.086  10.675 -1.0248 -0.3394 -0.0043
12473SOL    HW139426   9.682   7.042  10.751 -1.1049  0.2012  0.3580
12473SOL    HW239427   9.568   7.134  10.712  0.8674  2.6653  0.1676
12474SOL     OW39428   2.285   5.457   9.472  0.3668 -0.0104 -0.7649
12474SOL    HW139429   2.336   5.536   9.454  1.6884 -0.2008  1.7133
12474SOL    HW239430   2.349   5.386   9.472 -0.5451 -0.8684 -1.3239
12475SOL     OW39431   7.305   5.522   7.571  0.0407  0.1939  0.0163
12475SOL    HW139432   7.325   5.590   7.636  0.0341 -0.3922  0.6506
12475SOL    HW239433   7.372   5.455   7.586  0.3807  0.3004 -0.9716
12476SOL     OW39434   3.572   2.326   0.452  0.0299  0.1874 -0.6619
12476SOL    HW139435   3.490   2.277   0.458  0.4253 -0.2911  2.5932
12476SOL    HW239436   3.622   2.282   0.383 -2.3967  0.5429 -2.7881
12477SOL     OW39437   4.924   8.220   7.663  0.3947 -0.3273  0.2569
12477SOL    HW139438   4.921   8.174   7.747  1.4438  1.7565  1.5256
12477SOL    HW239439   4.848   8.278   7.665 -0.0273 -0.8442 -0.6092
12478SOL     OW39440   5.558   1.865   1.809  0.5248  0.1587  0.0614
12478SOL    HW139441   5.611   1.793   1.775 -1.8146 -1.2144 -0.9104
12478SOL    HW239442   5.532   1.836   1.897 -2.4398 -1.4978 -1.2102
12479SOL     OW39443   6.785   5.747   1.276  0.0103  0.6331  0.8456
12479SOL    HW139444   6.861   5.711   1.232  0.1655  1.4820  0.4063
12479SOL    HW239445   6.800   5.842   1.278 -1.3628  0.8865  0.1022
12480SOL     OW39446   0.116  10.683   9.500 -0.6411 -0.1105  0.1230
12480SOL    HW139447   0.114  10.771   9.538 -0.9632 -0.4910  1.0150
12480SOL    HW239448   0.069  10.691   9.417 -2.0312  0.2376  0.9242
12481SOL     OW39449   7.913   0.535   7.531  0.4179  0.4762 -0.2568
12481SOL    HW139450   7.882   0.556   7.443  1.3808  0.7636 -0.5346
12481SOL    HW239451   7.919   0.620   7.575 -2.4562  0.1863  0.9550
12482SOL     OW39452   7.260   5.012   6.196 -0.7366 -0.9461 -0.0565
12482SOL    HW139453   7.251   5.065   6.276  0.9883  0.2923 -0.6063
12482SOL    HW239454   7.200   4.939   6.209  0.4385 -1.5506  3.0185
12483SOL     OW39455   3.103   0.227   8.132  0.0020 -0.2753  0.2520
12483SOL    HW139456   3.034   0.293   8.121 -0.3135 -0.6590 -0.1043
12483SOL    HW239457   3.109   0.213   8.226  0.6769  0.8985  0.4009
12484SOL     OW39458   3.127   4.866   5.157 -0.1730 -0.3187 -0.6445
12484SOL    HW139459   3.216   4.842   5.181 -0.2365  0.2591  0.2111
12484SOL    HW239460   3.074   4.790   5.183 -0.0284 -0.3451 -0.4287
12485SOL     OW39461   3.050   6.370   1.226 -0.0311 -0.1617  0.9338
12485SOL    HW139462   3.001   6.292   1.255  1.7482 -1.2204  1.2200
12485SOL    HW239463   3.034   6.374   1.132  1.0766 -1.8263  0.6233
12486SOL     OW39464  10.840   6.015   5.991 -0.0612 -0.3862 -0.7857
12486SOL    HW139465  10.892   5.951   5.941  0.2205 -1.4250  0.7858
12486SOL    HW239466  10.845   5.985   6.081 -0.4774  1.5126 -0.0848
12487SOL     OW39467   4.561   9.188   0.349  0.2053  0.0487  0.0917
12487SOL    HW139468   4.543   9.191   0.255  1.9664  1.1522 -0.2619
12487SOL    HW239469   4.591   9.099   0.366  0.5141  0.0348 -0.5256
12488SOL     OW39470   6.805   6.271   9.203  0.3493 -0.0982  0.0595
12488SOL    HW139471   6.814   6.330   9.128 -2.1671  2.1468  1.3511
12488SOL    HW239472   6.894   6.239   9.219  1.2476  0.7048 -2.7544
12489SOL     OW39473   4.383   2.579   0.265 -0.6510  0.1653 -0.4628
12489SOL    HW139474   4.363   2.513   0.199  1.8618 -0.4900 -0.6832
12489SOL    HW239475   4.382   2.662   0.218  0.3209 -0.2070 -1.1623
12490SOL     OW39476   1.809   6.678   2.246  0.4101  0.1109  1.1447
12490SOL    HW139477   1.881   6.698   2.306 -0.0382  1.0099  1.4031
12490SOL    HW239478   1.754   6.757   2.247  0.2615  0.0644 -0.2500
12491SOL     OW39479   8.488  10.593   6.253 -0.2094  0.5041  0.2311
12491SOL    HW139480   8.517  10.606   6.343  0.1155  1.3215  0.0141
12491SOL    HW239481   8.408  10.645   6.246 -1.5252 -1.3318  0.6782
12492SOL     OW39482   3.631   3.072   2.310  0.2926  0.0415  0.1142
12492SOL    HW139483   3.681   3.000   2.270 -1.8503 -1.4140 -0.1309
12492SOL    HW239484   3.556   3.084   2.253  0.3871  2.2779  0.3717
12493SOL     OW39485   5.112   5.593  10.463 -0.0259  0.2831  0.2536
12493SOL    HW139486   5.136   5.517  10.410  0.4014  0.1291  0.6619
12493SOL    HW239487   5.016   5.590  10.468  0.0155 -0.5444  0.7148
12494SOL     OW39488   6.918  10.945   5.427 -0.0031  0.0268  0.5332
12494SOL    HW139489   6.956  10.966   5.342 -0.6726 -1.7277 -0.2516
12494SOL    HW239490   6.884  11.028   5.460 -0.4195  0.6071 -1.2638
12495SOL     OW39491  10.625   6.479   8.472 -0.4953 -0.7501  0.3089
12495SOL    HW139492  10.680   6.446   8.402 -1.4617 -2.3445  0.2484
12495SOL    HW239493  10.541   6.500   8.430  0.3960  3.1558  0.0895
12496SOL     OW39494   0.921   9.122   4.138  0.0960  0.1795 -0.0437
12496SOL    HW139495   0.924   9.168   4.222 -0.2926  0.6823 -0.3055
12496SOL    HW239496   0.943   9.031   4.160 -0.9825  0.0976  0.7546
12497SOL     OW39497   2.573  10.244   3.227  0.0805 -0.3118 -0.2101
12497SOL    HW139498   2.643  10.294   3.186  0.0021  0.2114  0.2826
12497SOL    HW239499   2.619  10.176   3.278  0.3951  1.4942  2.0890
12498SOL     OW39500   9.897  10.150   1.798 -0.0838  0.5895 -0.4307
12498SOL    HW139501   9.913  10.062   1.831  1.1529  0.9569  0.0013
12498SOL    HW239502   9.976  10.199   1.820 -1.0235  1.9965 -0.0234
12499SOL     OW39503   1.861   1.914   4.203  0.1856 -0.5072  0.3640
12499SOL    HW139504   1.792   1.848   4.209 -0.1193 -0.6034 -2.6099
12499SOL    HW239505   1.941   1.864   4.191  0.2977 -0.3444  0.4307
12500SOL     OW39506   5.082  11.282  11.086  0.5556 -0.0184 -0.0274
12500SOL    HW139507   5.105  11.190  11.096  2.6795  0.5868  1.1626
12500SOL    HW239508   5.021  11.299  11.158  0.4679 -0.3917 -0.0101
12501SOL     OW39509   7.242   6.924  10.548 -0.2943 -0.3658  0.0421
12501SOL    HW139510   7.233   6.830  10.536 -1.8322 -0.5019  1.8972
12501SOL    HW239511   7.305   6.933  10.619 -0.2966  0.0167 -0.0033
12502SOL     OW39512   3.104  11.250  10.924  0.5232  0.2636  0.6981
12502SOL    HW139513   3.186  11.216  10.888 -0.3178 -1.1829  0.1019
12502SOL    HW239514   3.069  11.179  10.977 -0.6580  0.6297  0.4427
12503SOL     OW39515  10.737   6.910   1.945  0.5181 -0.2393 -0.4936
12503SOL    HW139516  10.673   6.969   1.985 -1.0999 -1.2022 -1.5458
12503SOL    HW239517  10.694   6.824   1.944  2.7192 -1.4694  0.8068
12504SOL     OW39518   3.856   2.322   8.638 -0.4303 -0.4702 -0.6091
12504SOL    HW139519   3.866   2.334   8.733 -1.9508  0.2553 -0.5032
12504SOL    HW239520   3.865   2.410   8.602  0.0874 -0.7376 -1.1330
12505SOL     OW39521   2.801   1.824   0.407 -0.2879  0.2580  0.4695
12505SOL    HW139522   2.888   1.842   0.370 -0.7612 -1.7684 -1.9204
12505SOL    HW239523   2.772   1.908   0.442  0.6153  2.3454 -3.2389
12506SOL     OW39524   4.644   1.843  10.226  0.4837  0.3312 -0.1354
12506SOL    HW139525   4.645   1.762  10.176 -2.4253  1.2771 -2.0350
12506SOL    HW239526   4.557   1.844  10.268  0.8699  1.9536  0.7333
12507SOL     OW39527   9.506   4.912   3.242 -0.2179 -0.3084  1.0107
12507SOL    HW139528   9.488   5.000   3.275  1.0264  0.2276  0.3483
12507SOL    HW239529   9.420   4.874   3.225 -0.8001  1.5854 -0.7511
12508SOL     OW39530   0.607   0.953   3.682  0.5229  0.2521  0.0055
12508SOL    HW139531   0.692   0.909   3.691  0.6465  0.6139  0.7527
12508SOL    HW239532   0.614   1.029   3.740 -0.2566  0.3732 -0.0506
12509SOL     OW39533   7.643  10.414   2.771 -0.0173 -0.0604  0.3163
12509SOL    HW139534   7.724  10.364   2.780  0.3132  0.2368 -0.8170
12509SOL    HW239535   7.625  10.414   2.677 -1.6973 -0.6861  0.6036
12510SOL     OW39536   0.220   8.581   9.304  0.5053  0.6906 -0.4603
12510SOL    HW139537   0.194   8.498   9.264  2.7477 -0.1054 -0.4148
12510SOL    HW239538   0.290   8.558   9.365  0.6111  2.5105  0.1877
12511SOL     OW39539   1.066  10.286  11.229  0.2066  0.0756 -0.5476
12511SOL    HW139540   0.993  10.240  11.187  0.6772 -2.0364  0.7939
12511SOL    HW239541   1.057  10.377  11.200 -4.5268  0.5715  1.5992
12512SOL     OW39542   4.857   5.728   3.571  0.6198  0.0113  0.3297
12512SOL    HW139543   4.934   5.700   3.523 -0.7717 -2.8293 -0.4851
12512SOL    HW239544   4.822   5.648   3.610 -3.1260  0.6342 -1.2429
12513SOL     OW39545   3.801   8.341   4.268  0.0404  0.4829  0.3319
12513SOL    HW139546   3.774   8.417   4.318  1.8176  0.2411  1.7473
12513SOL    HW239547   3.785   8.366   4.177 -2.7199  1.1515  0.8956
12514SOL     OW39548   8.610   7.061   3.780  0.0276  0.3637  0.3999
12514SOL    HW139549   8.694   7.080   3.737 -1.0748  1.6833 -1.2463
12514SOL    HW239550   8.554   7.135   3.759 -2.2536 -1.4484 -0.3380
12515SOL     OW39551   6.510   5.194   9.866  0.5533 -0.5062  0.1327
12515SOL    HW139552   6.520   5.245   9.785  0.4645  0.2609  0.5958
12515SOL    HW239553   6.496   5.259   9.934 -0.2773 -1.1958  0.6374
12516SOL     OW39554   2.736   8.563   9.088 -0.2469  0.0826 -0.0954
12516SOL    HW139555   2.679   8.499   9.130 -0.7372 -0.6761 -1.8327
12516SOL    HW239556   2.820   8.554   9.133 -0.0040 -2.5208 -0.9200
12517SOL     OW39557   0.940   4.339   4.158 -0.3165  0.1552  0.1438
12517SOL    HW139558   0.966   4.381   4.240  0.0214  1.2282 -0.4936
12517SOL    HW239559   0.866   4.283   4.182 -1.1698  1.5662  0.9290
12518SOL     OW39560   8.171   9.421   1.711  0.2828  0.1340  0.2752
12518SOL    HW139561   8.156   9.462   1.626  0.3601 -1.0598 -0.3264
12518SOL    HW239562   8.195   9.494   1.769 -1.5448  1.2301 -0.2522
12519SOL     OW39563   9.886   0.248   3.294 -0.1425 -0.3213 -0.6286
12519SOL    HW139564   9.817   0.206   3.242  0.5657 -2.9341  0.3842
12519SOL    HW239565   9.864   0.227   3.385  1.2653 -0.0628 -0.1972
12520SOL     OW39566   7.540   9.756   5.771 -0.7089  1.2235 -0.0117
12520SOL    HW139567   7.553   9.851   5.780 -1.5947  1.3150  0.4100
12520SOL    HW239568   7.447   9.747   5.750 -0.6242  0.4468 -0.0554
12521SOL     OW39569   8.830   9.954   9.782 -0.0846 -0.3676 -0.2870
12521SOL    HW139570   8.918   9.965   9.746 -0.0309 -3.0311 -1.1908
12521SOL    HW239571   8.773   9.999   9.720  0.3559 -1.7216 -1.7343
12522SOL     OW39572   9.431   5.816   9.288 -0.3059  0.0722  0.1178
12522SOL    HW139573   9.365   5.813   9.219 -0.2523  0.7425  0.0379
12522SOL    HW239574   9.489   5.742   9.268 -2.0267 -1.6978  1.2246
12523SOL     OW39575   0.868   0.393   3.745 -0.0547  0.3444 -0.2649
12523SOL    HW139576   0.947   0.340   3.738 -1.0986 -1.1980 -0.8746
12523SOL    HW239577   0.900   0.479   3.771  1.7599 -0.4093  0.2000
12524SOL     OW39578   1.091   8.644  10.783  0.1336  0.3850  0.0073
12524SOL    HW139579   1.049   8.692  10.712 -2.0340  0.3889  1.1927
12524SOL    HW239580   1.093   8.707  10.856 -2.0776 -0.9625  1.3589
12525SOL     OW39581  10.807   0.087   4.972 -0.3150 -0.1312  0.1486
12525SOL    HW139582  10.897   0.076   4.941  0.1599  3.5722 -0.2472
12525SOL    HW239583  10.759   0.121   4.896 -1.7898 -0.8213  0.7125
12526SOL     OW39584   0.465  10.692   2.466  0.2874  0.2290 -0.0776
12526SOL    HW139585   0.401  10.659   2.403  0.5186  0.9145 -0.6802
12526SOL    HW239586   0.425  10.771   2.502 -0.2779 -0.6694  1.3853
12527SOL     OW39587   2.320   2.471   5.256  0.3902  0.2371  0.0892
12527SOL    HW139588   2.335   2.418   5.334 -1.2169 -1.6470 -0.7970
12527SOL    HW239589   2.366   2.553   5.273  3.1477 -1.4808  1.4430
12528SOL     OW39590   3.286   0.977   0.292  0.5029  0.0598 -0.1521
12528SOL    HW139591   3.357   0.963   0.355 -0.0156 -0.1054  0.4152
12528SOL    HW239592   3.274   1.072   0.290  1.3616  0.1521 -0.9608
12529SOL     OW39593   2.841   0.043   1.384  0.3592  0.0483 -0.2023
12529SOL    HW139594   2.815  -0.036   1.433  0.5075  0.0534 -0.1135
12529SOL    HW239595   2.771   0.055   1.320  1.1727 -1.1392 -1.3602
12530SOL     OW39596   9.202   8.951   9.021  0.4223  0.0407  0.3493
12530SOL    HW139597   9.225   9.043   9.003 -2.2600  0.5959 -0.6768
12530SOL    HW239598   9.180   8.949   9.114 -0.1509  0.6122  0.2324
12531SOL     OW39599  11.275   6.400  11.063  0.3586 -0.3254 -0.0036
12531SOL    HW139600  11.210   6.358  11.006 -0.0030 -0.8744  0.8022
12531SOL    HW239601  11.242   6.488  11.076  0.0634 -0.4255 -0.0559
12532SOL     OW39602   2.605   5.892  11.274 -0.7523 -0.4748  0.4484
12532SOL    HW139603   2.533   5.933  11.322 -1.9527 -1.9032 -0.0636
12532SOL    HW239604   2.568   5.811  11.241  1.0698 -1.1657  0.0187
12533SOL     OW39605   8.407   5.134   3.537 -0.4596 -0.0215 -0.3920
12533SOL    HW139606   8.330   5.120   3.592 -0.4691 -1.8317 -0.7862
12533SOL    HW239607   8.393   5.220   3.497 -2.0141 -0.0770 -0.0267
12534SOL     OW39608  10.030   7.468   8.241  0.7221 -0.3289 -0.1349
12534SOL    HW139609  10.112   7.452   8.194 -0.1201  0.0212 -1.8257
12534SOL    HW239610  10.019   7.563   8.236  2.1278  0.1657  3.5460
12535SOL     OW39611   9.219   6.251   5.211 -0.0777 -0.2979 -0.1649
12535SOL    HW139612   9.235   6.310   5.285 -1.1607 -0.6642  0.3938
12535SOL    HW239613   9.265   6.170   5.235 -1.0778 -0.6950  0.5270
12536SOL     OW39614   5.468  10.148   8.105 -0.0370  0.3196  0.1537
12536SOL    HW139615   5.554  10.142   8.063 -0.4667  0.3904 -0.7472
12536SOL    HW239616   5.487  10.188   8.190  0.8242  0.3118 -0.0170
12537SOL     OW39617   6.486   9.862   7.446 -0.2105 -0.5961  0.4456
12537SOL    HW139618   6.529   9.840   7.364  1.0068  0.9684  0.6210
12537SOL    HW239619   6.421   9.928   7.421 -1.3548 -1.6885  0.4451
12538SOL     OW39620   3.526   3.975   4.274 -0.1718  0.1727  0.1795
12538SOL    HW139621   3.452   4.036   4.276 -1.0060 -0.7861 -0.2772
12538SOL    HW239622   3.503   3.912   4.204  1.2960  0.1226 -0.2874
12539SOL     OW39623   6.358   0.844   4.111  0.4316 -0.1463  0.0211
12539SOL    HW139624   6.310   0.763   4.128  0.0016  0.2344  0.6420
12539SOL    HW239625   6.450   0.818   4.113  0.3332 -0.4387  1.2277
12540SOL     OW39626   4.337  10.881   4.099 -0.0263  0.2420  0.0670
12540SOL    HW139627   4.428  10.907   4.084  0.4376 -1.1672  0.3656
12540SOL    HW239628   4.330  10.794   4.059 -1.2452  0.3369  0.0484
12541SOL     OW39629   9.580   0.923   4.066 -0.2555 -0.0202 -0.1808
12541SOL    HW139630   9.527   0.866   4.122 -0.0101 -0.7846 -0.7097
12541SOL    HW239631   9.655   0.947   4.121  0.2823 -1.2303 -0.3392
12542SOL     OW39632   9.890   0.879   4.347  0.6459  0.3347  0.0188
12542SOL    HW139633   9.908   0.972   4.337 -0.1069  0.5089  0.2476
12542SOL    HW239634   9.842   0.873   4.430 -2.3646  0.1737 -1.6016
12543SOL     OW39635   0.705   3.229  10.863 -0.0959 -0.5140 -0.1020
12543SOL    HW139636   0.697   3.170  10.788  0.2535  2.4664 -2.6454
12543SOL    HW239637   0.761   3.300  10.833  2.2235 -0.3420  3.8712
12544SOL     OW39638   8.438   1.512  10.258  0.5635 -0.2057 -0.0163
12544SOL    HW139639   8.439   1.497  10.352 -0.8525 -0.0476  0.0401
12544SOL    HW239640   8.348   1.538  10.238  0.5960 -1.0905 -1.5386
12545SOL     OW39641   8.630   2.547   6.613 -0.5372 -0.3054 -0.1123
12545SOL    HW139642   8.603   2.455   6.620  1.4136 -0.8321  2.0302
12545SOL    HW239643   8.558   2.596   6.652 -1.0200 -1.0626 -0.0330
12546SOL     OW39644   9.555   4.960   4.824  0.3302 -0.2428 -0.7222
12546SOL    HW139645   9.605   5.042   4.829 -0.2163  0.0482  0.4245
12546SOL    HW239646   9.483   4.973   4.886  0.2711 -1.6184 -0.4792
12547SOL     OW39647   9.534   5.005   8.163 -0.5718 -0.1930  0.8643
12547SOL    HW139648   9.471   4.979   8.096 -2.8447  0.0300  2.7971
12547SOL    HW239649   9.551   4.925   8.213  1.0879 -0.3513  0.1229
12548SOL     OW39650   0.790   0.265   0.418 -0.2879  0.2214  0.0413
12548SOL    HW139651   0.700   0.250   0.448 -0.8160  1.2069 -1.0125
12548SOL    HW239652   0.842   0.261   0.499 -1.1412 -1.1666  0.5715
12549SOL     OW39653  10.114   1.102   5.271  0.1095 -0.4585 -0.9436
12549SOL    HW139654  10.121   1.196   5.255  0.8218 -0.3809 -0.2122
12549SOL    HW239655  10.204   1.070   5.271  0.1272 -0.6128  1.7903
12550SOL     OW39656   6.062   9.945  11.253 -0.0672 -0.2044 -0.7382
12550SOL    HW139657   6.132   9.909  11.198  0.3030 -0.7407  0.0707
12550SOL    HW239658   5.981   9.912  11.213  0.2292 -1.2689 -0.4986
12551SOL     OW39659   7.088   6.347   9.774  0.1922 -0.7111  0.4489
12551SOL    HW139660   7.119   6.298   9.697 -0.6328  1.1359 -1.1368
12551SOL    HW239661   7.008   6.301   9.800  0.4761 -1.3502  0.2278
12552SOL     OW39662   1.727   9.829   2.411  0.1444 -0.2139 -0.0590
12552SOL    HW139663   1.777   9.749   2.425 -1.5115 -1.1439  0.8981
12552SOL    HW239664   1.663   9.806   2.344 -0.5981  0.1736  0.5047
12553SOL     OW39665   4.723   3.579   2.709  0.4340  0.5844 -0.6500
12553SOL    HW139666   4.805   3.619   2.738  1.1376 -2.0920  1.5966
12553SOL    HW239667   4.746   3.534   2.628  1.2221 -0.0131 -0.1228
12554SOL     OW39668   0.080   2.175   7.240 -0.0086  0.0497 -0.5769
12554SOL    HW139669   0.007   2.238   7.243  0.4198  0.5551 -0.5475
12554SOL    HW239670   0.115   2.175   7.330  1.6078  1.7300 -1.1347
12555SOL     OW39671   9.286   7.547   1.507  0.2109  0.2122 -0.3271
12555SOL    HW139672   9.256   7.474   1.562 -1.7050 -2.0134 -3.8792
12555SOL    HW239673   9.381   7.547   1.516  0.0223 -0.3307  2.4766
12556SOL     OW39674   0.796  10.109  10.349 -0.3266  0.9857 -0.1626
12556SOL    HW139675   0.757  10.157  10.422  1.5922  1.4685  0.6041
12556SOL    HW239676   0.763  10.153  10.271 -1.4088  1.2741  0.4368
12557SOL     OW39677   6.954  10.288  10.982  0.5474  0.4849 -0.8440
12557SOL    HW139678   6.948  10.376  10.947 -1.2612  0.6403 -0.2184
12557SOL    HW239679   7.040  10.256  10.952  2.1475  3.1297  0.5579
12558SOL     OW39680   4.523   1.025   0.053  0.5808  0.3463 -0.4472
12558SOL    HW139681   4.552   1.088   0.118  0.8656 -1.1636  0.9493
12558SOL    HW239682   4.433   1.003   0.079  1.3549 -1.7593  0.7286
12559SOL     OW39683   3.136   8.959  10.972 -0.3098  0.7105  0.1963
12559SOL    HW139684   3.063   8.919  11.020 -0.3810  2.6863  1.8605
12559SOL    HW239685   3.096   9.034  10.927  0.4859  1.1496  0.2144
12560SOL     OW39686   4.878   0.542   4.351  0.4150 -0.1676 -0.1450
12560SOL    HW139687   4.963   0.523   4.390  0.3270  0.1647  0.2166
12560SOL    HW239688   4.868   0.637   4.360 -0.5440 -0.3566  0.9631
12561SOL     OW39689  10.058  10.136   2.116 -0.0651  0.2769 -0.0085
12561SOL    HW139690  10.106  10.067   2.071  0.5816  1.2365 -0.8383
12561SOL    HW239691   9.972  10.099   2.134  0.7705 -1.2779  0.9659
12562SOL     OW39692   3.145  10.032   9.164 -0.1258 -0.3281 -0.1693
12562SOL    HW139693   3.145  10.003   9.256 -0.1484  2.5281  0.8135
12562SOL    HW239694   3.053  10.034   9.140 -0.2346  0.3984  0.2768
12563SOL     OW39695   1.937   9.793   5.358 -0.0892  0.0198  0.6551
12563SOL    HW139696   2.012   9.851   5.360  0.5299 -0.7676  3.0735
12563SOL    HW239697   1.870   9.838   5.409  0.4366 -1.3586  2.6480
12564SOL     OW39698   7.708   1.246   2.263 -0.7692 -0.1054 -0.0684
12564SOL    HW139699   7.724   1.337   2.240  0.7257  0.0960  1.5990
12564SOL    HW239700   7.754   1.195   2.196 -0.5622  0.3790 -0.2922
12565SOL     OW39701   9.500   6.453   7.888  0.2387 -0.0773 -0.1853
12565SOL    HW139702   9.523   6.417   7.802  0.5976  0.0087 -0.1260
12565SOL    HW239703   9.509   6.380   7.948 -0.9660 -0.3927 -0.3618
12566SOL     OW39704   9.572   7.293   0.062  0.2677 -1.0520  0.1307
12566SOL    HW139705   9.642   7.248   0.110  2.5734  2.0008  0.0018
12566SOL    HW239706   9.518   7.332   0.130  3.4083  3.0869  0.6571
12567SOL     OW39707   3.812   9.727   1.359  0.0395  0.0378 -0.4731
12567SOL    HW139708   3.888   9.748   1.414  0.3888 -0.7601 -0.6295
12567SOL    HW239709   3.746   9.793   1.382  0.0829 -0.4149  1.0999
12568SOL     OW39710   4.014   6.219   8.863 -0.1112 -0.2131 -0.4198
12568SOL    HW139711   3.991   6.308   8.888  2.3531  0.3424  0.1609
12568SOL    HW239712   4.099   6.228   8.819  0.0603 -2.2423 -0.5970
12569SOL     OW39713   7.007   7.287   2.290  0.3513 -0.7440 -0.2318
12569SOL    HW139714   6.949   7.338   2.347 -0.5591 -1.0363 -0.8732
12569SOL    HW239715   7.069   7.246   2.350 -0.8662 -1.4134  0.6084
12570SOL     OW39716   1.128   6.191   8.742  0.2016 -0.4543 -0.5404
12570SOL    HW139717   1.101   6.102   8.767  0.2357  0.0403  1.5004
12570SOL    HW239718   1.051   6.245   8.761  0.7308  0.1680 -0.1093
12571SOL     OW39719   2.776   7.662   7.634  0.1980  0.4080  0.2661
12571SOL    HW139720   2.747   7.642   7.545 -2.1338  0.4310  0.9678
12571SOL    HW239721   2.760   7.756   7.644  1.0418  0.5402  0.5429
12572SOL     OW39722   1.547   1.509   1.346 -0.1954 -0.5494 -0.7174
12572SOL    HW139723   1.497   1.551   1.416 -0.9208 -1.1447 -0.8606
12572SOL    HW239724   1.598   1.441   1.390  0.6837  0.2045 -0.5395
12573SOL     OW39725   5.033   0.936  10.183  0.3398 -0.1516 -0.5414
12573SOL    HW139726   5.121   0.897  10.186 -0.4188 -1.9578 -0.5195
12573SOL    HW239727   5.049   1.030  10.177  2.2719 -0.3507  0.6225
12574SOL     OW39728   5.861   5.513  10.542  0.5764 -0.9032 -0.3051
12574SOL    HW139729   5.920   5.505  10.467  0.8992  0.2907 -0.1988
12574SOL    HW239730   5.775   5.487  10.509  0.9469 -1.5813 -0.7530
12575SOL     OW39731   2.779  10.123   2.337  0.2470  0.0435  0.6338
12575SOL    HW139732   2.789  10.032   2.362  0.8657 -0.2196 -0.4879
12575SOL    HW239733   2.724  10.161   2.405  0.1296 -1.1163  1.2102
12576SOL     OW39734   8.402   8.248  11.269 -0.3846  0.6731 -0.3614
12576SOL    HW139735   8.449   8.241  11.352  0.9921  2.7958 -0.8556
12576SOL    HW239736   8.310   8.236  11.292  0.1783 -2.0275  0.9039
12577SOL     OW39737   1.044   2.065   6.540 -0.6048 -0.6006  0.5909
12577SOL    HW139738   1.023   2.022   6.457 -0.7443 -1.0339  0.8455
12577SOL    HW239739   1.093   2.144   6.515 -1.6571 -0.1043  0.0345
12578SOL     OW39740  10.823   5.536   6.359  0.3589  0.1600 -0.1347
12578SOL    HW139741  10.759   5.498   6.300 -0.4410 -0.7937  1.2877
12578SOL    HW239742  10.835   5.471   6.428 -0.9958  2.3689  2.3962
12579SOL     OW39743   9.715   4.662  10.867  0.4114  0.3459  0.1211
12579SOL    HW139744   9.740   4.579  10.826  0.5632  1.0187 -1.2154
12579SOL    HW239745   9.622   4.653  10.886  0.5956 -0.4053  0.6956
12580SOL     OW39746   0.398  10.265   4.961  0.0986 -0.0910 -0.2087
12580SOL    HW139747   0.467  10.221   4.912 -1.6680 -2.0771 -1.0445
12580SOL    HW239748   0.365  10.333   4.902  0.9743  0.5359  0.0080
12581SOL     OW39749   1.252   8.770   5.828  0.1444 -0.5464  0.1811
12581SOL    HW139750   1.342   8.759   5.858 -0.1824 -0.8535  1.0851
12581SOL    HW239751   1.229   8.684   5.792  0.3697 -0.3269 -0.4888
12582SOL     OW39752   9.007   2.106   7.223  0.2667 -0.8323  0.3411
12582SOL    HW139753   9.074   2.134   7.161 -0.5878  1.8516  0.5012
12582SOL    HW239754   8.948   2.052   7.171  0.2071  0.3996 -0.9452
12583SOL     OW39755   3.141  11.175   0.112  0.2539 -0.5968  1.2164
12583SOL    HW139756   3.111  11.263   0.089 -0.0911 -1.5311 -2.6860
12583SOL    HW239757   3.195  11.188   0.190 -1.5191  2.6915  2.1035
12584SOL     OW39758   0.718  10.448   8.630  0.0343 -0.2640 -0.1971
12584SOL    HW139759   0.809  10.474   8.625 -0.4502  1.3430 -1.1926
12584SOL    HW239760   0.673  10.501   8.565 -1.7752 -0.3187  0.9174
12585SOL     OW39761   3.617   4.498   7.712 -0.2421  0.1965  0.3195
12585SOL    HW139762   3.556   4.486   7.640  0.5943  2.5210 -0.8960
12585SOL    HW239763   3.620   4.413   7.756 -3.9489 -0.1393  0.2046
12586SOL     OW39764  11.155   0.994   8.902 -0.0319  0.4424  0.2567
12586SOL    HW139765  11.072   0.954   8.875  0.4613 -0.3084 -0.1710
12586SOL    HW239766  11.197   0.928   8.956  0.7421  0.4110 -0.3675
12587SOL     OW39767   9.242   4.799   6.446  0.2406 -0.7491  0.0295
12587SOL    HW139768   9.276   4.802   6.536 -2.1273  0.8887  0.9701
12587SOL    HW239769   9.210   4.888   6.430  0.5386 -1.0336 -2.4474
12588SOL     OW39770   3.833   4.956   1.571 -0.0982  0.6066  0.5969
12588SOL    HW139771   3.796   5.004   1.497  0.8344 -0.0742 -0.3465
12588SOL    HW239772   3.919   4.996   1.585 -0.2075  0.6328  1.2313
12589SOL     OW39773  10.518   4.858   3.659  0.3017 -0.0178 -0.6025
12589SOL    HW139774  10.436   4.832   3.700  0.9268 -0.6650  0.2846
12589SOL    HW239775  10.529   4.950   3.681  0.0781 -0.0689 -0.2778
12590SOL     OW39776   0.601   9.483   0.510  0.4076 -0.0020  0.2935
12590SOL    HW139777   0.590   9.538   0.432 -0.3491  0.4023  0.6808
12590SOL    HW239778   0.632   9.399   0.475 -2.9311 -0.9302 -0.8746
12591SOL     OW39779   8.229   7.743   1.475  0.3368  0.5109 -0.1952
12591SOL    HW139780   8.315   7.780   1.456 -0.6461  2.6580 -0.8486
12591SOL    HW239781   8.168   7.797   1.423 -1.4657 -0.4604  0.8028
12592SOL     OW39782  11.046  10.163   4.595 -0.0250 -0.0045  0.0570
12592SOL    HW139783  11.071  10.154   4.503  0.7336  0.1863  0.2376
12592SOL    HW239784  11.125  10.140   4.644 -0.0150  1.1627  0.6349
12593SOL     OW39785   4.088   5.413   5.195 -0.0239  0.5963  0.2422
12593SOL    HW139786   4.174   5.407   5.153 -0.2155 -1.2185  0.0156
12593SOL    HW239787   4.027   5.383   5.127 -0.8400  1.6806  0.4636
12594SOL     OW39788   7.913   7.674  10.777 -0.2932 -0.4215  0.6993
12594SOL    HW139789   7.936   7.583  10.756 -0.3011 -0.3752  0.4926
12594SOL    HW239790   7.947   7.687  10.866  1.3373 -0.0494  0.0437
12595SOL     OW39791   6.055   0.161   2.390 -0.5060  0.2193  0.5425
12595SOL    HW139792   5.978   0.217   2.386 -0.6226  0.1127  1.1605
12595SOL    HW239793   6.060   0.119   2.304 -0.1310  1.5532 -0.1134
12596SOL     OW39794   9.681   7.447   5.377  0.1504 -0.1480  0.3706
12596SOL    HW139795   9.730   7.380   5.424 -0.6868 -1.1054 -0.0889
12596SOL    HW239796   9.589   7.422   5.388 -0.0521 -1.2783 -2.9569
12597SOL     OW39797   3.325   6.638   5.104 -0.9033 -0.5335 -0.0230
12597SOL    HW139798   3.382   6.562   5.090 -1.4389 -0.9121 -0.1841
12597SOL    HW239799   3.325   6.651   5.199 -0.3124 -0.3441 -0.0477
12598SOL     OW39800  10.951   0.618   2.379 -0.4938 -0.1329  0.2097
12598SOL    HW139801  10.913   0.704   2.397 -0.3229 -0.3119  1.5884
12598SOL    HW239802  11.022   0.635   2.318 -0.5892  0.6803  0.3152
12599SOL     OW39803   3.348   6.317   4.072  0.9393 -0.0465 -0.0687
12599SOL    HW139804   3.368   6.407   4.049  1.0199  0.0425  0.3511
12599SOL    HW239805   3.283   6.289   4.007  1.1462  0.2102 -0.3893
12600SOL     OW39806   1.047   0.783   7.516 -0.2820 -0.5261 -0.1083
12600SOL    HW139807   1.119   0.720   7.512 -0.8048 -1.2688  1.4523
12600SOL    HW239808   0.972   0.733   7.548 -1.1870  0.5130 -0.5102
12601SOL     OW39809  10.767   9.495   7.723 -0.6567  0.1985 -0.5561
12601SOL    HW139810  10.790   9.415   7.675  0.1759  0.5187 -0.7082
12601SOL    HW239811  10.675   9.509   7.703 -0.7141 -0.5271 -0.8222
12602SOL     OW39812  10.303   0.439   6.802 -0.5026  0.9711 -0.8183
12602SOL    HW139813  10.241   0.382   6.847 -0.3322  1.4105  0.0016
12602SOL    HW239814  10.278   0.527   6.829  1.1500  1.1194  0.4793
12603SOL     OW39815   8.780   9.973   6.932 -0.0632  0.1313  0.5949
12603SOL    HW139816   8.732  10.037   6.984 -1.3441 -0.7202  0.5278
12603SOL    HW239817   8.763   9.998   6.841  1.0474  0.8241  0.5700
12604SOL     OW39818   4.000  10.822   9.041 -0.1047  0.0496  0.4133
12604SOL    HW139819   3.983  10.780   9.125 -1.0923  1.2683  0.8550
12604SOL    HW239820   4.073  10.772   9.004 -0.8087 -1.6152  1.1707
12605SOL     OW39821   6.069   0.349   8.744 -0.3896 -0.6334  0.1900
12605SOL    HW139822   6.137   0.283   8.748 -1.4928 -1.7412  1.8464
12605SOL    HW239823   5.998   0.307   8.696 -0.9695 -0.5680  0.9643
12606SOL     OW39824  10.106  10.693   5.787 -0.0684 -0.3477 -0.4319
12606SOL    HW139825  10.167  10.715   5.717 -1.7534 -1.0909 -2.2438
12606SOL    HW239826  10.033  10.649   5.742 -0.0972 -3.2377  2.0696
12607SOL     OW39827   1.671   7.993   4.796 -1.0032 -0.1053  0.4904
12607SOL    HW139828   1.761   7.962   4.792 -0.3728  1.6575 -0.0125
12607SOL    HW239829   1.624   7.925   4.844  0.8271 -0.5716  1.7338
12608SOL     OW39830   7.678   4.412   9.524  0.1000  0.5633  1.1946
12608SOL    HW139831   7.583   4.411   9.536  0.0594  0.3839  0.8645
12608SOL    HW239832   7.700   4.505   9.520 -0.1775  0.6022  0.3842
12609SOL     OW39833   8.665   6.694   5.232  0.1745  0.4429 -0.0650
12609SOL    HW139834   8.695   6.689   5.323  0.0795  0.6564 -0.0222
12609SOL    HW239835   8.740   6.663   5.181  0.0595 -0.1550  0.1145
12610SOL     OW39836   2.861   4.788   3.295  0.2152 -0.3181  0.4576
12610SOL    HW139837   2.854   4.840   3.215 -1.9449 -0.0933  0.7190
12610SOL    HW239838   2.949   4.804   3.327  1.2717 -0.6761 -2.0330
12611SOL     OW39839   3.367  11.141   5.071  0.3880  0.1021 -0.1925
12611SOL    HW139840   3.330  11.223   5.104 -0.0445 -0.3364  0.4289
12611SOL    HW239841   3.291  11.085   5.056  0.7714 -0.8403  1.1767
12612SOL     OW39842   3.748   6.524   5.413 -0.1389  0.2192  0.1031
12612SOL    HW139843   3.836   6.556   5.436  0.2806 -0.7626 -0.0774
12612SOL    HW239844   3.761   6.480   5.329 -0.9244  0.5445 -0.1970
12613SOL     OW39845   8.292   1.346   9.116 -0.1744  0.3325 -0.2741
12613SOL    HW139846   8.234   1.272   9.097  1.6023 -1.5225  1.0891
12613SOL    HW239847   8.360   1.341   9.049  0.6611 -0.1116  0.5802
12614SOL     OW39848   9.709  10.406   5.581 -0.1815  0.5703 -0.3897
12614SOL    HW139849   9.707  10.329   5.524 -0.1949  1.1963 -1.2513
12614SOL    HW239850   9.644  10.465   5.545 -0.0992  1.0370  0.2045
12615SOL     OW39851   5.880   6.868   7.459  0.3330 -0.1063 -0.1916
12615SOL    HW139852   5.883   6.887   7.553 -1.9673  0.3980 -0.1570
12615SOL    HW239853   5.900   6.952   7.418  0.3634 -0.0820 -0.1276
12616SOL     OW39854  10.490  10.355   0.660  0.1279  0.2914  0.1808
12616SOL    HW139855  10.438  10.391   0.589  0.3481  1.3569  0.5297
12616SOL    HW239856  10.444  10.382   0.740  0.6026  0.2882  0.4657
12617SOL     OW39857   3.647   6.873   7.174  0.2382  0.0331  0.0051
12617SOL    HW139858   3.646   6.960   7.133  1.1121 -0.2395 -0.6310
12617SOL    HW239859   3.677   6.814   7.104  0.8850 -0.5856  0.7815
12618SOL     OW39860   6.145  10.682   2.901 -0.4355  0.1888 -0.3199
12618SOL    HW139861   6.182  10.616   2.842  1.5849  0.6351  0.3721
12618SOL    HW239862   6.114  10.751   2.843 -0.9162 -0.5466 -0.9650
12619SOL     OW39863   5.129   1.471   7.404 -0.3867  0.0211  0.7193
12619SOL    HW139864   5.171   1.552   7.375 -0.8564  0.1470  0.3806
12619SOL    HW239865   5.202   1.412   7.425 -0.0371  0.8296  1.8276
12620SOL     OW39866   1.828   4.175  10.092  0.0892 -0.1542 -0.6721
12620SOL    HW139867   1.849   4.205  10.181  0.4889 -1.6202 -0.2458
12620SOL    HW239868   1.737   4.202  10.079 -0.4382 -1.0835  0.7368
12621SOL     OW39869   9.625   9.775   1.089 -0.7241  0.0193 -0.2553
12621SOL    HW139870   9.564   9.703   1.105 -1.0807  0.5034  0.6561
12621SOL    HW239871   9.644   9.810   1.176  1.9428 -0.9797 -0.3480
12622SOL     OW39872   0.837   1.562   1.581 -0.1243  0.0549  0.6280
12622SOL    HW139873   0.759   1.527   1.538  0.9270 -1.7918  0.0713
12622SOL    HW239874   0.817   1.559   1.675 -0.7338 -0.4013  0.4865
12623SOL     OW39875   3.730   9.313   1.356  0.0407 -0.2706 -0.3529
12623SOL    HW139876   3.641   9.334   1.385  0.2505 -1.3122  1.1456
12623SOL    HW239877   3.787   9.367   1.411  0.5286 -3.5027  2.6516
12624SOL     OW39878  10.250   3.628   3.708  0.2464  0.3888 -0.2874
12624SOL    HW139879  10.316   3.647   3.640 -0.6703 -1.3204 -1.7439
12624SOL    HW239880  10.184   3.696   3.697 -0.0905 -0.0995 -1.4253
12625SOL     OW39881   3.333  11.063  10.254  0.0442 -0.7764 -0.4120
12625SOL    HW139882   3.399  10.994  10.259  0.6994 -0.3269 -2.0449
12625SOL    HW239883   3.274  11.035  10.183 -1.1618 -0.8508  0.5816
12626SOL     OW39884   0.606   0.969   9.477  0.0595  0.0773  0.2955
12626SOL    HW139885   0.514   0.986   9.460 -0.4940 -2.3428  0.5636
12626SOL    HW239886   0.652   1.015   9.407 -1.0633  3.5519  1.5984
12627SOL     OW39887   9.288   7.727   9.982  0.2554 -0.1680 -0.4898
12627SOL    HW139888   9.199   7.760   9.975 -0.4794 -1.8536  0.4892
12627SOL    HW239889   9.337   7.800  10.021 -1.5997 -0.5185  2.8405
12628SOL     OW39890   9.355   4.498   4.454 -0.3898 -1.0375 -0.0538
12628SOL    HW139891   9.358   4.456   4.540 -0.3446 -1.4199 -0.2421
12628SOL    HW239892   9.291   4.446   4.404 -0.3962 -0.8322 -0.2582
12629SOL     OW39893   1.568   7.016   1.591 -0.3551  0.3136  0.1524
12629SOL    HW139894   1.628   7.049   1.524 -1.5213  1.1725 -0.5051
12629SOL    HW239895   1.496   6.977   1.541 -0.5521 -0.3371  0.9241
12630SOL     OW39896   9.164   1.765   7.720 -0.5448 -0.0893  0.1107
12630SOL    HW139897   9.133   1.676   7.707  2.0800 -1.0273 -0.5518
12630SOL    HW239898   9.227   1.778   7.649  1.7916  0.9324  2.2209
12631SOL     OW39899   6.298  10.739   4.296  0.6971 -0.4771 -0.2257
12631SOL    HW139900   6.214  10.755   4.338  0.2647 -0.6539 -1.0104
12631SOL    HW239901   6.307  10.810   4.232  1.6209  0.1331  0.5398
12632SOL     OW39902  10.046   6.753   0.435  0.4188  0.5117 -0.4737
12632SOL    HW139903  10.111   6.764   0.366 -0.6254 -0.5659 -1.6881
12632SOL    HW239904  10.021   6.661   0.431 -0.6103  0.7161  0.4936
12633SOL     OW39905   4.955   2.879   8.516 -0.8065  0.4679  0.0395
12633SOL    HW139906   5.009   2.805   8.490 -0.8638  0.9645 -1.5991
12633SOL    HW239907   4.922   2.915   8.434 -3.1409  0.5634  0.9389
12634SOL     OW39908  10.450   4.094   9.393 -0.4758  0.3226  0.9638
12634SOL    HW139909  10.355   4.085   9.399 -0.6558  0.9500 -0.5413
12634SOL    HW239910  10.482   4.005   9.380 -1.1555  0.3771 -1.5570
12635SOL     OW39911   9.698   3.941   6.251 -0.3261  0.3311 -0.1503
12635SOL    HW139912   9.687   4.009   6.317  0.2785  0.4791 -0.1916
12635SOL    HW239913   9.655   3.864   6.287 -2.1658  1.0605 -0.6523
12636SOL     OW39914   6.564   9.831   0.726  0.0554  0.6536  0.2339
12636SOL    HW139915   6.655   9.816   0.753  0.3182  0.4963 -0.7279
12636SOL    HW239916   6.539   9.912   0.771 -0.5250 -1.1143  3.4053
12637SOL     OW39917   3.688   7.950   1.557  0.2842 -0.4135 -0.3187
12637SOL    HW139918   3.638   7.873   1.584 -0.9292  0.2587 -0.5850
12637SOL    HW239919   3.639   8.024   1.592 -0.1007  0.3751 -2.3601
12638SOL     OW39920   7.853   5.208   5.277 -0.5905 -0.0160  0.2763
12638SOL    HW139921   7.811   5.180   5.358  0.1183  1.4188  1.1821
12638SOL    HW239922   7.904   5.132   5.249 -1.2399 -0.6959  0.8930
12639SOL     OW39923  10.779   7.672   3.106 -0.0938  0.0104  0.7967
12639SOL    HW139924  10.856   7.712   3.146  1.2800 -1.1538 -0.5414
12639SOL    HW239925  10.748   7.737   3.043  0.8081 -0.1499  0.1765
12640SOL     OW39926   8.993   9.383   7.512  0.4478  0.0726 -0.0068
12640SOL    HW139927   9.077   9.391   7.557  1.4755  0.0674 -1.8245
12640SOL    HW239928   9.003   9.436   7.433 -1.0600 -0.3844 -0.5369
12641SOL     OW39929   4.814   3.870   2.692  0.3054 -0.6863 -0.1290
12641SOL    HW139930   4.878   3.903   2.628  1.3467 -0.1832  1.1356
12641SOL    HW239931   4.731   3.871   2.644  1.3570 -2.3380 -2.1504
12642SOL     OW39932  10.024   4.307  10.733  0.1511 -0.0384 -0.4731
12642SOL    HW139933   9.937   4.307  10.772 -0.4082 -0.9239 -1.6632
12642SOL    HW239934  10.070   4.237  10.778 -0.1088 -0.2888 -0.5954
12643SOL     OW39935  10.184  10.045   2.670  0.2184  0.1933 -0.1836
12643SOL    HW139936  10.156  10.030   2.760  0.4961 -0.4174 -0.1899
12643SOL    HW239937  10.139  10.125   2.643 -1.0369 -0.4230  0.0076
12644SOL     OW39938   7.774   1.508   7.373 -0.4529 -0.3900 -0.0561
12644SOL    HW139939   7.762   1.591   7.328  0.5233  0.1185  0.5935
12644SOL    HW239940   7.754   1.528   7.465  1.5510 -0.3977  0.4249
12645SOL     OW39941   7.599   6.816   1.299  0.4654 -0.1858  0.5963
12645SOL    HW139942   7.605   6.864   1.216  0.4423  0.7756  1.1425
12645SOL    HW239943   7.510   6.832   1.329  0.4949 -0.4836  0.8418
12646SOL     OW39944   0.797   8.687   6.070 -0.1582  0.4746  0.1201
12646SOL    HW139945   0.876   8.656   6.026 -0.7353 -0.4945 -0.2662
12646SOL    HW239946   0.756   8.608   6.104  0.6181  1.2162  3.1029
12647SOL     OW39947   3.420   0.411   7.754 -0.1293  0.2357 -0.1945
12647SOL    HW139948   3.364   0.388   7.828 -0.6171 -2.6475 -1.3422
12647SOL    HW239949   3.461   0.493   7.780 -1.0356 -0.1556  2.8362
12648SOL     OW39950   5.612  10.590  10.649 -0.0211  0.3538  0.3109
12648SOL    HW139951   5.616  10.510  10.702 -1.2556  0.9704  1.3847
12648SOL    HW239952   5.677  10.576  10.580  1.7785 -0.4405  2.0544
12649SOL     OW39953   2.028   3.043   9.169 -0.3518 -0.2290  0.3676
12649SOL    HW139954   2.078   3.113   9.126  1.3881 -1.3046  0.5500
12649SOL    HW239955   2.076   3.026   9.251 -1.3608 -0.9056  0.8403
12650SOL     OW39956   9.110   3.219   1.721 -0.1124 -0.1346 -0.0626
12650SOL    HW139957   9.114   3.309   1.690  0.5029 -1.0110 -2.8033
12650SOL    HW239958   9.109   3.226   1.816 -3.4139  2.8705 -0.1193
12651SOL     OW39959   4.703   2.110   2.281 -0.0930 -0.0327  0.1450
12651SOL    HW139960   4.638   2.128   2.214 -0.7868 -0.5250  0.6755
12651SOL    HW239961   4.689   2.177   2.348  0.8726  0.7161 -0.3798
12652SOL     OW39962   2.991   0.132   9.981 -0.1817  0.1724  0.3880
12652SOL    HW139963   3.012   0.140  10.074  0.9364 -3.1705  0.5655
12652SOL    HW239964   3.070   0.095   9.942 -1.8490 -1.9883 -1.1574
12653SOL     OW39965  10.935   8.001   3.316  0.0363  0.1999  0.1912
12653SOL    HW139966  10.914   7.996   3.409 -3.2520 -4.4266 -0.4690
12653SOL    HW239967  10.859   8.044   3.277 -1.1115 -2.4072 -0.6815
12654SOL     OW39968  11.071   1.779   0.144  0.4458  0.0998  0.4243
12654SOL    HW139969  11.045   1.792   0.235  3.4491  0.4957  1.3475
12654SOL    HW239970  11.138   1.846   0.128  0.9432 -0.7983 -1.6460
12655SOL     OW39971   7.161   2.528   0.499 -0.2000 -0.3089  0.4727
12655SOL    HW139972   7.140   2.524   0.592 -0.4124  2.9249  0.6664
12655SOL    HW239973   7.252   2.499   0.493  0.1463  0.4373  1.8537
12656SOL     OW39974   0.069   2.169   1.049 -0.2613  0.0153 -0.4346
12656SOL    HW139975   0.068   2.141   1.141 -0.0414  0.8341 -0.1750
12656SOL    HW239976   0.148   2.130   1.013 -0.4942 -0.5422 -0.3585
12657SOL     OW39977   2.686  10.106   0.420  0.4134  0.2081 -0.1339
12657SOL    HW139978   2.662  10.046   0.349 -0.8316  0.7354 -0.1803
12657SOL    HW239979   2.781  10.115   0.413  0.3032  0.3311 -1.8055
12658SOL     OW39980  10.716   7.628   9.955 -0.2504 -0.4824 -0.0303
12658SOL    HW139981  10.682   7.717   9.955 -0.3431 -0.5087 -0.8554
12658SOL    HW239982  10.664   7.582  10.021  0.4807  0.3135  1.1386
12659SOL     OW39983   7.960   4.399   2.395  0.0143 -0.2889  0.5999
12659SOL    HW139984   7.994   4.321   2.351 -0.5499  0.5322 -1.4526
12659SOL    HW239985   8.034   4.459   2.399  0.2827 -0.6747  1.5834
12660SOL     OW39986   6.674   2.838   9.168  0.4596 -0.0897 -0.3519
12660SOL    HW139987   6.632   2.921   9.146  1.3032  0.1857 -1.0147
12660SOL    HW239988   6.732   2.820   9.094  2.4595  0.1952  1.0594
12661SOL     OW39989   8.022   7.608   6.917 -0.5923 -0.4343  0.6730
12661SOL    HW139990   8.050   7.670   6.984 -2.5952  0.4501  0.7577
12661SOL    HW239991   8.015   7.661   6.837 -1.9609 -0.5789  0.6647
12662SOL     OW39992   9.189   4.769  10.174  0.2006  0.3595  0.5541
12662SOL    HW139993   9.112   4.718  10.149  0.5975 -0.0496  0.1624
12662SOL    HW239994   9.255   4.704  10.198  0.0976  0.7254  1.9052
12663SOL     OW39995  11.157   9.192   2.569 -0.3034  0.8275  0.1370
12663SOL    HW139996  11.063   9.175   2.570  0.0420 -1.4016  0.9864
12663SOL    HW239997  11.177   9.209   2.476 -1.0916 -2.0455 -0.6777
12664SOL     OW39998   1.731   9.405   4.387 -0.2732  0.1607 -0.6377
12664SOL    HW139999   1.746   9.321   4.344 -2.6484 -0.2234 -0.8544
12664SOL    HW240000   1.778   9.468   4.333  1.0318 -0.9178 -0.8264
12665SOL     OW40001  10.579   1.039   3.252 -0.8463 -0.1398  0.4522
12665SOL    HW140002  10.551   1.130   3.260 -0.4472  0.0453 -0.1759
12665SOL    HW240003  10.602   1.014   3.342 -1.2834  0.2647  0.6853
12666SOL     OW40004  10.349   5.385   3.817  0.4364  0.2926 -0.7313
12666SOL    HW140005  10.405   5.308   3.810  0.1511  0.0824 -0.6988
12666SOL    HW240006  10.387   5.448   3.756 -0.0466 -0.3047 -1.6576
12667SOL     OW40007  11.267   6.919  10.500 -0.2681  0.6347  0.7307
12667SOL    HW140008  11.310   6.834  10.490 -2.2306 -0.7120  2.6804
12667SOL    HW240009  11.294   6.969  10.423  2.8885 -0.8513  0.7321
12668SOL     OW40010  10.764   4.499   7.096  0.1998 -0.0527  0.0302
12668SOL    HW140011  10.676   4.462   7.092  0.6488 -1.0825 -0.8646
12668SOL    HW240012  10.751   4.593   7.085 -0.9948  0.1812  2.6842
12669SOL     OW40013   7.675   3.507   5.234 -0.0404  0.1361 -0.3037
12669SOL    HW140014   7.690   3.425   5.282 -1.1079 -0.8187 -1.5406
12669SOL    HW240015   7.634   3.480   5.152  0.8737  1.8100 -1.3623
12670SOL     OW40016   5.864   5.625   8.426  0.2386 -0.4178 -0.7740
12670SOL    HW140017   5.938   5.565   8.415 -0.2761 -0.7131 -2.8750
12670SOL    HW240018   5.804   5.603   8.356 -0.7497  1.4377 -0.5696
12671SOL     OW40019   3.540   1.386   5.369  0.0069  0.6347  0.2569
12671SOL    HW140020   3.523   1.326   5.297  1.6215  1.7896 -1.1789
12671SOL    HW240021   3.531   1.473   5.330  2.2140  1.2855  1.0731
12672SOL     OW40022   9.714   1.043  10.103 -0.4964  0.5377  0.1735
12672SOL    HW140023   9.659   1.098  10.158  0.9872  1.1546  1.0959
12672SOL    HW240024   9.653   0.980  10.064 -1.7469  0.7668  1.6566
12673SOL     OW40025   6.060   4.349   6.252  0.0438 -1.0432  0.5622
12673SOL    HW140026   6.060   4.444   6.264 -1.8739 -0.9480  0.0977
12673SOL    HW240027   6.140   4.331   6.204 -0.7599  0.6714 -1.5606
12674SOL     OW40028   3.782   6.988   0.439 -0.1757 -0.3438  0.4126
12674SOL    HW140029   3.702   7.039   0.430 -0.7891 -1.3084  0.2204
12674SOL    HW240030   3.787   6.968   0.533  0.0548  0.0424  0.4849
12675SOL     OW40031   9.183   7.047   6.833 -0.5579  0.5192  0.2143
12675SOL    HW140032   9.111   7.013   6.886  1.5522 -0.4511  2.6456
12675SOL    HW240033   9.239   6.971   6.816  1.1015  1.6273  0.4472
12676SOL     OW40034   7.710   5.034   3.279  0.4781 -0.1801 -0.0699
12676SOL    HW140035   7.800   5.012   3.305  0.1221 -2.0191 -0.2433
12676SOL    HW240036   7.655   4.986   3.341 -0.4019  0.8193 -0.0515
12677SOL     OW40037   0.028   3.124   8.413  0.2730  0.1997  0.4474
12677SOL    HW140038   0.121   3.128   8.391  0.5085 -2.6511  0.5596
12677SOL    HW240039   0.026   3.083   8.500 -1.1168 -1.4239 -0.3018
12678SOL     OW40040   6.935   9.767   6.460  0.1670  0.4898 -0.5509
12678SOL    HW140041   7.011   9.794   6.408 -1.2960 -1.8897 -4.3268
12678SOL    HW240042   6.860   9.800   6.411 -1.3408  0.2781  1.5123
12679SOL     OW40043   4.005   7.098   8.614  0.2132  0.8364  0.5011
12679SOL    HW140044   3.973   7.073   8.700 -0.1395 -1.8592 -0.3283
12679SOL    HW240045   4.096   7.123   8.629  0.9375 -1.9855  1.3762
12680SOL     OW40046   3.815   3.580   3.840  0.0801 -0.4798  0.5642
12680SOL    HW140047   3.761   3.565   3.763  0.9471  0.2748 -0.2220
12680SOL    HW240048   3.818   3.495   3.884 -0.4022 -0.9401 -0.2570
12681SOL     OW40049   5.737   0.825   7.505  0.2125 -0.6546  0.2050
12681SOL    HW140050   5.676   0.809   7.433  0.2507  0.1019 -0.0061
12681SOL    HW240051   5.756   0.919   7.501 -0.7333 -0.3423  1.9514
12682SOL     OW40052   6.923   1.005   9.846 -0.5568 -0.3304 -0.3246
12682SOL    HW140053   6.976   0.929   9.870 -0.1653  0.2826  0.8612
12682SOL    HW240054   6.985   1.078   9.850 -1.6293  0.5247  1.8712
12683SOL     OW40055   8.073   0.367   3.058 -0.6566  0.0539 -0.4276
12683SOL    HW140056   8.081   0.389   3.151  1.0166  1.7727 -0.9014
12683SOL    HW240057   8.104   0.277   3.052 -3.2483 -1.0199  0.9835
12684SOL     OW40058   1.914   7.339   6.321 -0.0369 -0.6090 -0.5012
12684SOL    HW140059   1.997   7.387   6.314 -0.0411 -0.2181  1.5680
12684SOL    HW240060   1.854   7.389   6.265  0.5758  0.4216 -0.2783
12685SOL     OW40061   2.710   9.968   3.493 -0.5294  0.1141 -0.4472
12685SOL    HW140062   2.661   9.891   3.464 -0.1930 -1.3074  2.4281
12685SOL    HW240063   2.801   9.948   3.473 -0.3575 -0.6301  0.9543
12686SOL     OW40064   1.755   2.693  10.214  0.2964  0.1027  0.0375
12686SOL    HW140065   1.823   2.630  10.239  1.0823  0.6669 -0.6359
12686SOL    HW240066   1.773   2.712  10.122 -0.1391  1.0619  0.1444
12687SOL     OW40067  10.784   8.734   1.727 -0.2644 -0.6122 -0.6484
12687SOL    HW140068  10.785   8.735   1.631  1.5862 -2.1191 -0.7074
12687SOL    HW240069  10.801   8.824   1.752  1.1090 -0.5213 -1.7822
12688SOL     OW40070   8.744   8.657   6.361 -0.0764  0.3342  0.2958
12688SOL    HW140071   8.759   8.641   6.454 -0.7025 -0.7449  0.2197
12688SOL    HW240072   8.829   8.687   6.328  0.4903 -0.5247  0.9522
12689SOL     OW40073   0.747   4.027   0.661 -0.3604 -0.2613 -0.1842
12689SOL    HW140074   0.674   3.992   0.610 -1.1870 -0.3834  1.0357
12689SOL    HW240075   0.769   3.957   0.723 -1.0450  0.7807  1.2945
12690SOL     OW40076   0.270  10.561   6.717  0.8056 -0.0423  0.0823
12690SOL    HW140077   0.267  10.471   6.750  0.4806  0.3272  1.0983
12690SOL    HW240078   0.349  10.599   6.756  2.0565 -0.4435 -1.9040
12691SOL     OW40079   3.083   2.002  10.296  0.0105 -0.7304 -0.2634
12691SOL    HW140080   3.064   1.932  10.359 -0.1622 -1.4648 -1.1195
12691SOL    HW240081   3.111   2.075  10.351 -0.7228 -1.1553  0.7127
12692SOL     OW40082   4.124   7.175   4.183  0.1677  0.0458  0.3017
12692SOL    HW140083   4.166   7.118   4.247 -1.4320 -1.4758  0.1026
12692SOL    HW240084   4.156   7.143   4.098 -1.5118 -1.3581  0.1280
12693SOL     OW40085  10.048   1.293   5.068  0.2625 -0.5395 -0.0572
12693SOL    HW140086  10.030   1.370   5.121 -0.1988 -0.8182  0.1967
12693SOL    HW240087  10.130   1.313   5.024  0.1537  0.0884  0.0188
12694SOL     OW40088   4.764   9.639   2.952  0.6649  0.1445  0.7511
12694SOL    HW140089   4.780   9.687   2.870  0.7657 -1.8308 -0.4593
12694SOL    HW240090   4.846   9.594   2.970  0.6181  0.4949  1.9241
12695SOL     OW40091   1.706  11.274   2.745 -0.0894  0.1304  0.0370
12695SOL    HW140092   1.758  11.251   2.823 -0.3907  2.6847  1.1051
12695SOL    HW240093   1.624  11.308   2.781 -1.1911 -0.7758 -1.5223
12696SOL     OW40094   6.664   4.889   0.944  0.1558  0.7418  0.0456
12696SOL    HW140095   6.649   4.931   0.859 -0.7380  1.4088  0.5247
12696SOL    HW240096   6.607   4.935   1.005  1.1399  0.5896  1.1221
12697SOL     OW40097   8.536   8.433   2.741 -0.3662 -0.1047 -0.3415
12697SOL    HW140098   8.597   8.359   2.738  0.6359  0.5146  1.9145
12697SOL    HW240099   8.466   8.410   2.680  0.2334 -2.6017 -0.1888
12698SOL     OW40100   0.512   9.768   9.451 -0.0088 -0.1882 -0.1518
12698SOL    HW140101   0.490   9.743   9.541 -2.1109  1.1655 -0.2332
12698SOL    HW240102   0.608   9.778   9.452 -0.0723  0.7918  2.2121
12699SOL     OW40103   3.204   7.452   9.497  0.6661 -0.2273  0.0595
12699SOL    HW140104   3.278   7.392   9.507  0.5775 -0.8874 -2.4929
12699SOL    HW240105   3.230   7.510   9.425 -0.0175  1.6472  1.2549
12700SOL     OW40106   0.075   7.765   8.740  0.6764  0.1322 -0.1605
12700SOL    HW140107   0.029   7.849   8.739  0.2246 -0.0346  1.8741
12700SOL    HW240108   0.009   7.701   8.713  1.4638  0.5361 -3.3955
12701SOL     OW40109   0.653   4.819   3.863  0.9885  0.2003 -0.2240
12701SOL    HW140110   0.663   4.728   3.890 -1.1268 -0.1171 -0.3729
12701SOL    HW240111   0.573   4.849   3.906  1.0102  1.6427 -1.0913
12702SOL     OW40112   4.020   2.620   4.241  0.3626  0.3460 -0.5907
12702SOL    HW140113   4.026   2.566   4.162 -0.1854  0.2634 -0.5752
12702SOL    HW240114   4.038   2.559   4.313  0.4809  0.3426 -0.6227
12703SOL     OW40115   0.563   3.287   0.565 -0.0750 -0.4498 -0.3627
12703SOL    HW140116   0.641   3.299   0.620 -1.0351  0.2776  0.8969
12703SOL    HW240117   0.495   3.258   0.626 -0.8358 -0.9187 -1.4111
12704SOL     OW40118   7.422   6.018   0.035 -0.6057 -0.0245 -0.1609
12704SOL    HW140119   7.433   6.104   0.075 -2.1416  0.6296 -1.0887
12704SOL    HW240120   7.409   5.958   0.109 -0.1142  0.6135  0.4517
12705SOL     OW40121  10.962   8.823   6.317 -1.3819 -0.2848 -0.5134
12705SOL    HW140122  10.990   8.883   6.247 -2.3300  0.4159 -0.3103
12705SOL    HW240123  11.032   8.757   6.321 -0.9172  0.1107 -1.5758
12706SOL     OW40124   2.869   6.258   5.682 -0.2157  0.7969  0.2959
12706SOL    HW140125   2.859   6.321   5.753 -0.4967  0.6469  0.3922
12706SOL    HW240126   2.780   6.228   5.664 -0.3528  1.9004 -1.1001
12707SOL     OW40127   8.007  10.914   2.259  0.3731  0.1387  0.8381
12707SOL    HW140128   8.082  10.945   2.208 -2.0278  2.1120 -1.8182
12707SOL    HW240129   8.002  10.820   2.238  0.9767  0.3804 -0.5281
12708SOL     OW40130   2.588   3.728   6.950 -0.4114  0.0289 -0.2030
12708SOL    HW140131   2.675   3.729   6.989 -1.0376 -1.1262  1.2983
12708SOL    HW240132   2.603   3.701   6.859  0.6457 -2.3046  0.5763
12709SOL     OW40133   5.358   5.093   4.172  0.5793  0.6484  0.0304
12709SOL    HW140134   5.331   5.179   4.204 -0.3482  0.0566  0.8741
12709SOL    HW240135   5.335   5.033   4.242  0.0470 -0.4534 -1.0587
12710SOL     OW40136   3.937   7.765   0.930 -0.3922  0.0056  0.1733
12710SOL    HW140137   3.934   7.827   1.003  0.6600 -2.4636  2.5201
12710SOL    HW240138   3.854   7.719   0.934 -0.8939  0.7639 -1.1193
12711SOL     OW40139   1.904   5.641  11.147  0.5097 -0.1043 -0.2170
12711SOL    HW140140   1.984   5.608  11.188  0.7704  0.0469 -0.6011
12711SOL    HW240141   1.862   5.694  11.215 -0.3763 -1.9104  0.7400
12712SOL     OW40142   7.102   3.686   3.564 -0.2856  0.2976  0.2683
12712SOL    HW140143   7.029   3.688   3.626 -1.9365  0.9913 -1.5930
12712SOL    HW240144   7.120   3.779   3.546  0.0928  0.1060 -0.3576
12713SOL     OW40145   4.202   8.929   0.632  0.3005  0.9073  0.5707
12713SOL    HW140146   4.223   8.849   0.583 -1.2051  0.5403  0.4636
12713SOL    HW240147   4.183   8.994   0.565 -2.1302  0.3038  0.5788
12714SOL     OW40148   4.164   0.463   6.587  0.1478  0.0143  0.2336
12714SOL    HW140149   4.108   0.389   6.610 -1.0444  0.8208  0.0276
12714SOL    HW240150   4.164   0.464   6.491  2.7183 -1.5646  0.1074
12715SOL     OW40151   5.037   2.517  10.036 -0.4797 -0.5224  0.5551
12715SOL    HW140152   4.968   2.555  10.090 -1.6012 -1.4805 -0.1333
12715SOL    HW240153   5.041   2.573   9.959  1.6188  1.2638  1.8737
12716SOL     OW40154  10.307  10.513   5.917 -0.3451 -0.3154  0.3799
12716SOL    HW140155  10.331  10.526   6.009 -0.3083 -0.1015  0.3400
12716SOL    HW240156  10.230  10.568   5.904 -1.1936 -1.3843  0.6459
12717SOL     OW40157   2.380   5.934  10.887 -0.5433 -0.3028  0.2416
12717SOL    HW140158   2.369   6.007  10.826 -1.1351  0.4142  1.1894
12717SOL    HW240159   2.475   5.927  10.897 -0.2959 -1.6050 -2.1051
12718SOL     OW40160   3.002   6.403   0.945  0.0394  0.3939 -0.1350
12718SOL    HW140161   2.916   6.367   0.969  0.6113 -0.6294  0.4819
12718SOL    HW240162   3.014   6.377   0.854  0.3999 -0.9796  0.2717
12719SOL     OW40163   3.665  10.482   6.713 -0.4175  0.4870  0.4260
12719SOL    HW140164   3.631  10.488   6.624 -0.6074  0.0138  0.4629
12719SOL    HW240165   3.588  10.473   6.768 -0.2856  0.4657  0.6097
12720SOL     OW40166   2.169   9.855   6.119  0.0266  0.3269 -0.3909
12720SOL    HW140167   2.141   9.804   6.043  1.9637  1.7114 -2.1377
12720SOL    HW240168   2.127   9.940   6.109  1.5560  1.0705 -0.8728
12721SOL     OW40169   0.808   9.109  10.680 -0.8222 -0.4273 -0.2724
12721SOL    HW140170   0.851   9.194  10.688  0.1522 -0.8736 -0.6560
12721SOL    HW240171   0.880   9.046  10.672 -1.5380 -1.2510 -0.3798
12722SOL     OW40172   6.456   6.055   5.509 -0.1212 -0.5385 -0.3318
12722SOL    HW140173   6.428   6.128   5.565 -0.9116 -0.9693 -0.1460
12722SOL    HW240174   6.551   6.065   5.502  0.1744 -1.0246  1.9292
12723SOL     OW40175   4.714   3.850   7.934 -0.8550  0.4629 -0.3663
12723SOL    HW140176   4.634   3.902   7.936 -0.8956  0.3851  0.1204
12723SOL    HW240177   4.694   3.772   7.986  0.1768  1.4042  1.5790
12724SOL     OW40178   2.614   8.444   5.714  0.0073 -0.2333 -0.6008
12724SOL    HW140179   2.560   8.477   5.786  0.0497 -1.4153 -0.0101
12724SOL    HW240180   2.552   8.431   5.642 -0.0705  0.7451 -0.7299
12725SOL     OW40181   0.591   8.690   8.727  0.0331  0.8517  0.2053
12725SOL    HW140182   0.518   8.646   8.770  1.1237 -2.9653 -1.3979
12725SOL    HW240183   0.554   8.730   8.649 -0.6108  0.5336  0.3452
12726SOL     OW40184  11.208   5.152   6.523  0.0169  0.1473  0.9792
12726SOL    HW140185  11.233   5.068   6.484 -0.6894  0.1564  0.4884
12726SOL    HW240186  11.280   5.173   6.583  0.5017 -0.4980  0.6382
12727SOL     OW40187  10.366   0.716   9.732 -0.5453 -0.4558 -0.1317
12727SOL    HW140188  10.459   0.715   9.709 -0.5257  0.8723 -0.1448
12727SOL    HW240189  10.325   0.767   9.664 -1.4139 -1.5938 -0.4945
12728SOL     OW40190   8.430   2.150   9.584 -0.2255 -0.0495  0.0455
12728SOL    HW140191   8.382   2.166   9.665  1.4417 -0.4409  1.1633
12728SOL    HW240192   8.521   2.143   9.611  0.4320  0.2229 -1.9400
12729SOL     OW40193   6.433   4.626   6.438  0.0924  0.6525 -0.0493
12729SOL    HW140194   6.430   4.573   6.518 -2.2139 -0.8474 -1.0331
12729SOL    HW240195   6.365   4.692   6.451  0.5661  1.1897 -0.2746
12730SOL     OW40196   0.617   4.251   0.882  0.2021  0.0907 -0.4292
12730SOL    HW140197   0.554   4.182   0.902 -1.2293  0.8235 -2.1682
12730SOL    HW240198   0.675   4.213   0.816  1.1618 -0.3171  0.6035
12731SOL     OW40199   7.653   0.340   7.081 -0.0264 -0.3883  0.6384
12731SOL    HW140200   7.643   0.251   7.049 -0.2633 -0.1003 -0.1137
12731SOL    HW240201   7.713   0.333   7.155 -0.4221 -1.2320  0.8848
12732SOL     OW40202   5.795  10.611  11.239  0.1247 -0.1062  0.0292
12732SOL    HW140203   5.822  10.572  11.322  0.0221 -0.3688 -0.0619
12732SOL    HW240204   5.855  10.574  11.174  1.5143  1.5834  0.2559
12733SOL     OW40205  10.392   7.217   7.172  0.5343  0.0016  0.0060
12733SOL    HW140206  10.329   7.280   7.206  1.1019  1.5606 -1.7066
12733SOL    HW240207  10.466   7.270   7.142  1.1500 -1.4823 -1.2365
12734SOL     OW40208  11.109   8.801   8.248  0.5508 -0.3656 -0.2856
12734SOL    HW140209  11.101   8.890   8.284 -1.1531 -0.2390 -0.8884
12734SOL    HW240210  11.098   8.812   8.154  0.6865 -1.1798 -0.4012
12735SOL     OW40211   9.924   2.436   5.562  0.0381  0.7272 -0.5956
12735SOL    HW140212   9.925   2.463   5.471 -1.0375  1.1204 -0.5128
12735SOL    HW240213   9.900   2.515   5.611  2.3849  0.9872  0.2336
12736SOL     OW40214   7.169   0.814   0.629  0.4692 -0.1403 -0.0169
12736SOL    HW140215   7.104   0.867   0.583  1.4707  1.3799  0.2441
12736SOL    HW240216   7.140   0.815   0.720  1.0352  0.9102  0.1796
12737SOL     OW40217   8.148  10.165  10.972  0.2822 -0.1664 -0.1783
12737SOL    HW140218   8.183  10.213  10.897 -1.4470 -0.0231 -0.9337
12737SOL    HW240219   8.141  10.231  11.041 -0.6223  0.3430 -0.7354
12738SOL     OW40220   7.039   5.811   5.961  0.0990  0.5847 -0.4290
12738SOL    HW140221   7.067   5.722   5.984  1.1785  0.5014 -1.8758
12738SOL    HW240222   6.948   5.801   5.934  0.2368 -0.1120 -0.6727
12739SOL     OW40223   1.457   9.439   3.375  0.2931  0.2442  0.5150
12739SOL    HW140224   1.426   9.458   3.287  0.0664 -2.7581 -0.1611
12739SOL    HW240225   1.504   9.518   3.402 -0.8224  1.7548 -1.7085
12740SOL     OW40226  11.128   7.932  10.120 -0.0333  0.0381  0.6410
12740SOL    HW140227  11.207   7.985  10.114 -0.3926  0.5156 -0.0588
12740SOL    HW240228  11.156   7.852  10.164  0.6811  0.4933  1.0235
12741SOL     OW40229   3.818   4.196   0.602  0.1240 -1.0492 -0.6753
12741SOL    HW140230   3.818   4.124   0.539 -0.8608 -2.4900  0.8478
12741SOL    HW240231   3.877   4.261   0.565 -0.8867 -1.5236 -3.3521
12742SOL     OW40232  10.859   8.313   3.849  0.6442  0.6767 -0.3294
12742SOL    HW140233  10.912   8.340   3.924  0.4849 -1.7048  0.7088
12742SOL    HW240234  10.836   8.222   3.866  1.4102 -0.3179 -3.7459
12743SOL     OW40235   2.730   9.657   8.977 -0.0339 -0.5433  0.7511
12743SOL    HW140236   2.645   9.613   8.969  0.5130 -1.2865 -2.9407
12743SOL    HW240237   2.725   9.730   8.914  2.3357 -1.2734 -0.4077
12744SOL     OW40238   5.915   8.205   1.445 -0.9067  0.2891 -0.4416
12744SOL    HW140239   5.950   8.158   1.520  0.8794  3.0442  0.6229
12744SOL    HW240240   5.882   8.287   1.482  0.1223  1.7841 -2.6162
12745SOL     OW40241   7.480   9.003   1.924  0.1967  0.0017  0.2454
12745SOL    HW140242   7.416   8.990   1.854 -0.4089 -0.4933  0.8786
12745SOL    HW240243   7.525   9.084   1.901 -0.9084  0.5632 -0.0226
12746SOL     OW40244   7.379   0.308   1.160 -0.4472  0.2023 -0.1023
12746SOL    HW140245   7.300   0.264   1.193  0.3845 -0.3054  1.3116
12746SOL    HW240246   7.400   0.372   1.228  0.0971  0.6600 -0.6956
12747SOL     OW40247   9.648   3.118   5.336  0.3849 -0.2618 -0.1973
12747SOL    HW140248   9.581   3.185   5.350 -0.2647 -1.1207  1.0013
12747SOL    HW240249   9.618   3.068   5.260  0.4812  0.3096 -0.6172
12748SOL     OW40250   8.323   7.477   6.962  0.5416 -0.1108  0.2019
12748SOL    HW140251   8.285   7.452   7.046  0.4890 -0.6660  0.0184
12748SOL    HW240252   8.251   7.519   6.915  0.3018 -0.6624  0.0683
12749SOL     OW40253   8.655   2.920   0.819  0.3415 -0.1260  0.4959
12749SOL    HW140254   8.562   2.934   0.801  0.2413  1.0313  1.7441
12749SOL    HW240255   8.700   2.959   0.743 -0.1798 -0.7084 -0.1193
12750SOL     OW40256  10.263   2.816  10.830  0.4336 -0.0729 -0.0664
12750SOL    HW140257  10.212   2.743  10.865  2.0420 -1.4251 -0.4384
12750SOL    HW240258  10.250   2.887  10.894 -0.9639 -0.7374  0.4285
12751SOL     OW40259   1.451   2.948   0.859  0.1943 -0.1411 -0.0207
12751SOL    HW140260   1.454   2.993   0.943  1.8688 -0.6454  0.2238
12751SOL    HW240261   1.445   3.019   0.795 -0.3946  0.2795  0.4898
12752SOL     OW40262   1.541   7.613   9.385  0.5119 -0.0689 -0.0851
12752SOL    HW140263   1.609   7.564   9.340  0.8747 -0.4042  0.8052
12752SOL    HW240264   1.579   7.633   9.471  0.2711  1.5306 -0.3193
12753SOL     OW40265   5.037   5.366   2.858  0.3133  0.1886 -0.5554
12753SOL    HW140266   5.024   5.276   2.890 -0.2399  0.9835  1.6455
12753SOL    HW240267   4.985   5.370   2.778 -0.3186 -1.2392 -0.2581
12754SOL     OW40268  10.020   1.563   5.196 -0.0023  0.4092 -0.4436
12754SOL    HW140269   9.963   1.626   5.153 -0.3057  1.3295  1.2099
12754SOL    HW240270  10.082   1.616   5.246 -0.2267 -0.5670  0.9370
12755SOL     OW40271   2.462   3.362   4.339 -0.1866 -0.2817  0.0976
12755SOL    HW140272   2.486   3.373   4.247 -1.0360 -0.7534 -0.1976
12755SOL    HW240273   2.370   3.388   4.343 -0.1229 -0.1553  0.8387
12756SOL     OW40274  10.096   9.048   7.453  0.1238 -0.5497  0.8022
12756SOL    HW140275  10.159   9.034   7.382 -0.4044 -0.8306  0.3860
12756SOL    HW240276  10.101   9.142   7.470  0.3755 -0.5055  0.5040
12757SOL     OW40277   6.322   1.043   8.507 -0.0628 -0.1244 -0.2297
12757SOL    HW140278   6.256   1.050   8.438 -2.8905  0.5827  2.3255
12757SOL    HW240279   6.315   0.953   8.538  0.7757 -0.2635 -0.3958
12758SOL     OW40280   6.509   6.095   4.294  0.0856  0.0569  0.0773
12758SOL    HW140281   6.465   6.051   4.366  0.3373 -1.7519 -0.8180
12758SOL    HW240282   6.582   6.038   4.272 -0.2151  0.3344 -1.8453
12759SOL     OW40283   8.073   1.315   0.773 -0.0049  0.0052  0.0692
12759SOL    HW140284   8.060   1.348   0.861 -0.5922 -1.9061  0.7448
12759SOL    HW240285   7.997   1.346   0.724  0.3146  1.0535  0.1964
12760SOL     OW40286   1.959   1.949   8.481 -0.2423 -0.1213  0.0237
12760SOL    HW140287   1.870   1.915   8.491 -1.2412  1.8083 -1.4516
12760SOL    HW240288   1.997   1.897   8.410  0.8834 -2.7747  2.4173
12761SOL     OW40289   2.013   0.110   2.513  0.3733  0.5403 -0.1657
12761SOL    HW140290   1.990   0.031   2.463  0.9186 -0.1623  0.6716
12761SOL    HW240291   2.033   0.175   2.446  0.1178 -0.0920 -0.8753
12762SOL     OW40292   6.998  10.241   4.586  0.1963  0.1322 -0.1957
12762SOL    HW140293   7.065  10.172   4.592 -0.2043 -0.2857 -0.4944
12762SOL    HW240294   7.040  10.318   4.625 -0.1599 -0.8547  2.3655
12763SOL     OW40295   7.690   1.782   3.673  0.1293 -0.1462 -0.2008
12763SOL    HW140296   7.651   1.819   3.752  1.7460  1.9593 -0.2845
12763SOL    HW240297   7.658   1.837   3.602  1.1011 -0.0482 -0.5868
12764SOL     OW40298   0.225  11.250   3.412  0.4510 -0.1982 -0.3631
12764SOL    HW140299   0.159  11.267   3.479 -0.7673 -0.2194 -1.4947
12764SOL    HW240300   0.308  11.269   3.454 -0.3050  0.2738  0.9851
12765SOL     OW40301   0.931   0.407   1.808  0.3952  0.5793 -0.1946
12765SOL    HW140302   0.927   0.399   1.903 -0.8061 -0.5321 -0.3133
12765SOL    HW240303   0.844   0.435   1.782  0.1977 -0.7529 -1.0784
12766SOL     OW40304   4.903   2.630   5.397  0.0868 -0.8809 -0.5954
12766SOL    HW140305   4.905   2.678   5.480 -0.3478 -1.4681 -0.2437
12766SOL    HW240306   4.990   2.593   5.389 -0.0458 -1.3113 -0.1080
12767SOL     OW40307  11.248   3.058  10.534  0.8478  0.2291  0.2574
12767SOL    HW140308  11.175   3.044  10.594 -0.5813 -0.6146 -1.5875
12767SOL    HW240309  11.226   3.138  10.488  0.9384 -0.1766 -0.5015
12768SOL     OW40310   4.968   8.092  10.688  0.4861 -0.1353 -0.6786
12768SOL    HW140311   5.051   8.091  10.736  0.1735 -2.7664 -0.0404
12768SOL    HW240312   4.991   8.068  10.599  0.5678  0.6931 -0.8910
12769SOL     OW40313   8.119   7.244   7.322 -0.5058  0.2387 -0.4396
12769SOL    HW140314   8.140   7.151   7.314  0.5049  0.3979  0.1911
12769SOL    HW240315   8.138   7.265   7.413 -2.7885  0.5804  0.0100
12770SOL     OW40316   0.652   4.904   5.518 -0.5206 -0.0870  0.1604
12770SOL    HW140317   0.700   4.984   5.543 -0.6701  0.4981 -1.3203
12770SOL    HW240318   0.622   4.867   5.601  0.9179  0.5318  0.9919
12771SOL     OW40319   8.689   0.742   4.701  0.5280  0.0651  0.3738
12771SOL    HW140320   8.733   0.826   4.686  2.4965 -0.8365  0.7613
12771SOL    HW240321   8.658   0.748   4.792 -0.6950  0.9112 -0.0698
12772SOL     OW40322   5.760   6.621   6.999 -0.7072 -0.0101 -0.8851
12772SOL    HW140323   5.788   6.533   6.975 -0.0918  0.1742 -0.8427
12772SOL    HW240324   5.680   6.607   7.051 -0.0907 -0.5971 -0.0653
12773SOL     OW40325   3.993   9.059   9.154 -0.7396 -0.2289  0.2264
12773SOL    HW140326   4.086   9.039   9.146 -0.5834  0.6872 -0.3067
12773SOL    HW240327   3.951   8.973   9.149  0.1347 -0.7877  1.8149
12774SOL     OW40328   4.671   8.739  10.432  0.0677  0.1706  0.3558
12774SOL    HW140329   4.733   8.798  10.389  1.1048 -0.0606  1.4928
12774SOL    HW240330   4.608   8.718  10.364  1.4092  0.1677 -0.9424
12775SOL     OW40331   5.110   2.510   4.110  0.4585  0.1098 -0.0769
12775SOL    HW140332   5.191   2.461   4.095  0.2267  0.4979 -3.1925
12775SOL    HW240333   5.113   2.581   4.046 -0.0521  3.2577  3.0930
12776SOL     OW40334   2.062   4.910   6.239 -0.4117 -0.1869 -0.7322
12776SOL    HW140335   2.144   4.919   6.191 -0.5752  0.6431 -0.8569
12776SOL    HW240336   2.051   4.993   6.285 -1.9326  0.2952 -1.8930
12777SOL     OW40337   6.679   5.682  10.545  0.2442 -0.2288  0.4546
12777SOL    HW140338   6.762   5.721  10.519 -0.0428  0.8741  1.1038
12777SOL    HW240339   6.702   5.598  10.585  1.3814  1.3926  3.4706
12778SOL     OW40340   5.317   2.459   6.962  0.5813  0.1344 -0.4887
12778SOL    HW140341   5.311   2.536   7.018  0.8003  0.5905 -1.0765
12778SOL    HW240342   5.226   2.442   6.934  0.5578  0.2930 -0.5073
12779SOL     OW40343   8.133   1.238  11.236 -0.0652 -0.3630 -0.2624
12779SOL    HW140344   8.090   1.278  11.161 -0.9225  1.5818  1.1960
12779SOL    HW240345   8.082   1.158  11.252  0.3116 -0.9658 -1.8780
12780SOL     OW40346   0.543   8.323   6.237 -0.0859 -0.2260  0.5083
12780SOL    HW140347   0.515   8.403   6.281 -0.9112  0.1736 -0.6725
12780SOL    HW240348   0.473   8.305   6.174  0.0751 -1.9012  0.7610
12781SOL     OW40349   0.360   6.273   7.468 -0.1789  0.7887 -0.1657
12781SOL    HW140350   0.306   6.195   7.476  1.0119  0.0915  2.0747
12781SOL    HW240351   0.441   6.242   7.426  0.7417  0.5056  1.7248
12782SOL     OW40352  10.661   6.475   6.047  0.2976  0.1541  0.2725
12782SOL    HW140353  10.681   6.388   6.014 -2.2460 -0.5044  0.2213
12782SOL    HW240354  10.625   6.522   5.971 -0.4797  0.4551  0.8046
12783SOL     OW40355   5.903   2.670   0.413 -0.0548 -0.3051 -0.0110
12783SOL    HW140356   5.841   2.636   0.347 -1.2302 -1.3211  1.5414
12783SOL    HW240357   5.855   2.740   0.457 -0.0091 -0.9176  1.0286
12784SOL     OW40358   8.293   4.679   0.089 -0.2406  0.3573 -0.1205
12784SOL    HW140359   8.304   4.772   0.108 -1.6024  0.0596  2.7274
12784SOL    HW240360   8.377   4.639   0.114  0.7260  0.8853 -2.3676
12785SOL     OW40361   3.438   9.086   8.363 -0.3468 -0.2168  0.0298
12785SOL    HW140362   3.479   9.171   8.344 -0.0678 -0.0650  1.2125
12785SOL    HW240363   3.511   9.028   8.384 -0.6852  0.0785  2.2606
12786SOL     OW40364   9.489   0.916   3.637  0.0592  0.4086 -0.2526
12786SOL    HW140365   9.440   0.990   3.673 -1.2301 -0.9276  0.8537
12786SOL    HW240366   9.453   0.902   3.550 -1.7833 -0.7012  0.6261
12787SOL     OW40367   6.861   9.722   4.764  0.0360  0.3220 -0.6018
12787SOL    HW140368   6.904   9.779   4.700  2.4454  2.4590  2.5333
12787SOL    HW240369   6.779   9.767   4.785 -0.9322 -0.5726 -2.3297
12788SOL     OW40370   7.358   3.330   0.549 -0.6110 -0.0325  0.8641
12788SOL    HW140371   7.381   3.342   0.641 -1.7205 -1.2681  1.3336
12788SOL    HW240372   7.268   3.361   0.542  0.0309  1.7172 -0.2244
12789SOL     OW40373   1.450   2.258   1.286 -0.3477 -0.5833 -0.2843
12789SOL    HW140374   1.504   2.189   1.246 -1.1308 -1.8583  0.7816
12789SOL    HW240375   1.360   2.231   1.270 -0.6716 -0.4088  1.1239
12790SOL     OW40376   6.857   7.694   1.098  0.8450  0.1886  0.4467
12790SOL    HW140377   6.889   7.710   1.009  0.2421  0.5714  0.2934
12790SOL    HW240378   6.930   7.721   1.155  0.9714  0.6026  0.0920
12791SOL     OW40379   9.202   2.044   2.589  0.0122  0.3946 -0.4233
12791SOL    HW140380   9.204   1.960   2.635 -0.0846  0.7510  0.2508
12791SOL    HW240381   9.114   2.049   2.551  0.1983 -0.0406 -0.9261
12792SOL     OW40382   8.358   2.804   5.502 -0.3051 -0.5279  0.2416
12792SOL    HW140383   8.421   2.775   5.569  0.4684 -2.2930 -1.1728
12792SOL    HW240384   8.359   2.734   5.437 -3.1422 -0.2001 -0.2548
12793SOL     OW40385   7.605   2.476  11.244 -0.6325 -0.6492 -0.6202
12793SOL    HW140386   7.514   2.506  11.236 -0.2820  0.3544 -0.8984
12793SOL    HW240387   7.629   2.496  11.334 -0.7445 -1.0974 -0.4876
12794SOL     OW40388   7.579  10.513  10.301  0.5973 -0.5762  0.4102
12794SOL    HW140389   7.599  10.601  10.334  0.7136 -0.7151  0.7142
12794SOL    HW240390   7.660  10.463  10.316  0.7683 -0.5579 -0.3891
12795SOL     OW40391   5.222   0.247  10.952 -0.4577  0.0731  0.3373
12795SOL    HW140392   5.149   0.189  10.974 -0.5224  0.7463  2.0448
12795SOL    HW240393   5.195   0.290  10.870 -1.6723 -0.1860  0.5824
12796SOL     OW40394   7.840   8.931   3.267  0.1314  0.3342  0.4813
12796SOL    HW140395   7.787   8.891   3.197  0.0574  2.2176 -0.6052
12796SOL    HW240396   7.838   8.867   3.337 -0.3956 -1.3332 -0.9708
12797SOL     OW40397   9.112  10.597   5.104  0.7096  0.3077  0.1547
12797SOL    HW140398   9.020  10.621   5.097  0.5502  0.2132  1.5952
12797SOL    HW240399   9.153  10.671   5.148  1.5191  0.7338 -1.2646
12798SOL     OW40400   0.311   2.382   9.746 -0.3667  0.3468  0.2644
12798SOL    HW140401   0.258   2.369   9.824  0.2439  1.2004  0.8421
12798SOL    HW240402   0.389   2.427   9.778 -0.8111  2.1675 -1.0728
12799SOL     OW40403   8.407   6.678   3.617  0.3361  0.6560 -0.5399
12799SOL    HW140404   8.469   6.605   3.620 -0.0507  0.1963 -2.4045
12799SOL    HW240405   8.321   6.638   3.632  0.3005  1.0607  0.4588
12800SOL     OW40406   3.548   0.523   9.463  0.5315  0.2832 -0.8182
12800SOL    HW140407   3.496   0.532   9.382 -0.1875 -1.6265 -0.6113
12800SOL    HW240408   3.502   0.456   9.513  2.2859 -0.2449  0.1386
12801SOL     OW40409   8.154  10.080  10.046  0.1344 -0.4225  0.0172
12801SOL    HW140410   8.178  10.160   9.999 -2.4151 -0.4883 -1.5505
12801SOL    HW240411   8.225  10.069  10.110  1.9858  1.5571 -1.5073
12802SOL     OW40412  10.091   7.894   4.472  0.0630  0.9614  0.5077
12802SOL    HW140413  10.054   7.919   4.557 -0.8051  0.5044  0.2739
12802SOL    HW240414  10.018   7.854   4.425  0.2624  2.1009 -0.8390
12803SOL     OW40415   6.405   4.049   9.018  0.6770 -0.6467  0.4144
12803SOL    HW140416   6.406   4.134   9.062  1.5437  0.6224 -1.8929
12803SOL    HW240417   6.314   4.019   9.026  0.5114  0.1623  1.8251
12804SOL     OW40418   4.788   6.708   4.135 -0.0805  0.0112 -0.1521
12804SOL    HW140419   4.835   6.791   4.142 -0.0035  0.0598 -1.1764
12804SOL    HW240420   4.706   6.731   4.091 -0.6229 -0.2472  0.7029
12805SOL     OW40421   7.206   6.044   4.052  0.1626 -0.3576  0.2685
12805SOL    HW140422   7.237   5.956   4.034 -1.5668 -1.2228  1.2567
12805SOL    HW240423   7.220   6.055   4.146 -1.0303 -0.1914  0.4432
12806SOL     OW40424   1.234   1.724   8.426  0.2162 -0.7793 -0.2864
12806SOL    HW140425   1.194   1.643   8.393 -2.6735  0.2338  0.3812
12806SOL    HW240426   1.164   1.789   8.419  2.7425  2.0365 -1.8826
12807SOL     OW40427   9.294   9.065   7.248 -0.4505  0.1208 -0.5474
12807SOL    HW140428   9.309   8.998   7.181 -0.8389  1.4236 -1.9965
12807SOL    HW240429   9.274   9.144   7.198  0.2148  1.3840  1.1023
12808SOL     OW40430   4.886   7.514   0.300  0.0134  0.4060  0.9990
12808SOL    HW140431   4.895   7.590   0.242 -2.3313  0.3837  0.4882
12808SOL    HW240432   4.940   7.446   0.260  0.5144  1.1756  0.3329
12809SOL     OW40433   8.115   5.819   0.027 -0.1223 -0.0538 -0.2152
12809SOL    HW140434   8.084   5.856  -0.056  0.9725  0.2735 -0.5023
12809SOL    HW240435   8.198   5.863   0.043 -1.6775  2.1790  2.6301
12810SOL     OW40436   8.006  11.130   0.402 -0.3586  0.2871  0.5993
12810SOL    HW140437   7.962  11.094   0.325 -1.8774 -1.8267  2.3300
12810SOL    HW240438   7.997  11.224   0.393  2.2133  0.3666 -3.2708
12811SOL     OW40439   0.170   0.370  10.445 -0.2966 -0.1736 -0.0695
12811SOL    HW140440   0.154   0.329  10.360  1.0993  2.2878 -1.6326
12811SOL    HW240441   0.091   0.351  10.496 -0.5340 -2.9870 -1.3207
12812SOL     OW40442   6.025   9.657   1.400 -0.1351  0.5272  0.6470
12812SOL    HW140443   6.055   9.614   1.320  2.1754  3.2850 -0.1551
12812SOL    HW240444   5.943   9.699   1.375 -2.0629 -2.5596  1.2584
12813SOL     OW40445  10.967   8.640  11.273 -0.3630 -0.0790 -0.1679
12813SOL    HW140446  11.018   8.675  11.346 -0.6009 -1.3290  0.6365
12813SOL    HW240447  11.006   8.680  11.195  0.7383  0.2912  0.5446
12814SOL     OW40448   6.845   7.856   0.791 -0.3246 -0.0979 -0.2052
12814SOL    HW140449   6.854   7.813   0.705  0.1784 -1.2959  0.4269
12814SOL    HW240450   6.933   7.852   0.829 -0.7645 -0.5298  0.7992
12815SOL     OW40451   3.748   9.657  10.530 -0.4400 -0.2710 -0.2336
12815SOL    HW140452   3.759   9.676  10.623 -1.0228 -0.1561 -0.1860
12815SOL    HW240453   3.683   9.721  10.500  3.0815  2.9794 -1.8155
12816SOL     OW40454   5.254  11.260   5.850 -0.1942  0.2215 -0.1909
12816SOL    HW140455   5.291  11.251   5.762 -1.9653 -0.8188 -0.8746
12816SOL    HW240456   5.208  11.177   5.865 -1.8237  1.2559  0.7952
12817SOL     OW40457   9.264   2.100   7.625  0.0659 -0.0341 -0.7226
12817SOL    HW140458   9.176   2.137   7.632 -0.6165 -1.2945 -2.0242
12817SOL    HW240459   9.322   2.170   7.657 -1.1980  1.8575 -2.2857
12818SOL     OW40460  10.745   2.203   0.173 -0.3706  0.0297  0.2340
12818SOL    HW140461  10.681   2.142   0.209 -0.6020 -0.3117 -0.7240
12818SOL    HW240462  10.829   2.169   0.203 -0.5116 -0.6350 -0.0955
12819SOL     OW40463  11.173   7.665   8.571 -0.4077 -0.3551 -0.1681
12819SOL    HW140464  11.232   7.649   8.498 -0.8918  0.0079 -0.6468
12819SOL    HW240465  11.102   7.602   8.560 -1.8491  1.3834 -1.5416
12820SOL     OW40466   1.929   9.414   1.336 -0.1740  0.0996 -0.1076
12820SOL    HW140467   1.990   9.372   1.276  0.6738 -0.1079  0.8684
12820SOL    HW240468   1.964   9.502   1.349  1.4803 -0.8045  2.4483
12821SOL     OW40469   7.928   2.073   9.741  0.4054 -0.3092  0.0956
12821SOL    HW140470   7.875   2.049   9.818 -1.0343 -0.0258 -0.7675
12821SOL    HW240471   7.894   2.018   9.671 -1.4629  2.5201 -1.4020
12822SOL     OW40472   2.187   5.062   7.641 -0.1165 -0.4253 -0.4077
12822SOL    HW140473   2.185   4.969   7.616  0.7407 -0.3988 -0.6221
12822SOL    HW240474   2.104   5.097   7.610 -0.4863 -1.1439 -0.2407
12823SOL     OW40475   9.233   6.565  11.029 -0.3801  0.8222  0.0865
12823SOL    HW140476   9.213   6.642  10.976 -0.4331  0.7307 -0.0272
12823SOL    HW240477   9.148   6.529  11.052 -0.3601  0.3338 -0.5432
12824SOL     OW40478   2.403   1.230  10.805 -0.3396 -0.3693  0.0456
12824SOL    HW140479   2.378   1.286  10.878  2.5934  1.3662 -0.1206
12824SOL    HW240480   2.323   1.220  10.754 -2.0307 -0.1063  2.4663
12825SOL     OW40481   1.632   9.094   4.941  0.0511  0.1276 -0.7732
12825SOL    HW140482   1.682   9.069   5.019  0.8699  0.7636 -1.0771
12825SOL    HW240483   1.657   9.029   4.876 -0.0144  0.0668 -0.7376
12826SOL     OW40484   8.710   2.513  10.208 -0.3116  0.3127 -0.0059
12826SOL    HW140485   8.654   2.581  10.169 -0.6383 -0.3098 -0.6417
12826SOL    HW240486   8.650   2.441  10.227  0.3252 -0.5028 -1.0204
12827SOL     OW40487   8.812   2.919   0.588 -0.2348  0.1594 -0.1534
12827SOL    HW140488   8.850   2.833   0.567 -1.6848 -0.4861 -0.2463
12827SOL    HW240489   8.886   2.980   0.582  0.2099 -0.5148 -3.5038
12828SOL     OW40490   7.634   7.654   0.245 -0.2161  0.3120 -0.0591
12828SOL    HW140491   7.591   7.568   0.239  2.1685 -0.9033 -0.7242
12828SOL    HW240492   7.619   7.693   0.159  2.3316 -1.3642 -1.3974
12829SOL     OW40493   8.153   6.521   0.807  0.0748  0.3905 -0.3722
12829SOL    HW140494   8.161   6.481   0.893 -0.1228  1.6870  0.2842
12829SOL    HW240495   8.198   6.605   0.816 -2.3537  1.8058 -0.6550
12830SOL     OW40496   2.332  10.066   8.798 -0.5007 -0.1873 -0.7901
12830SOL    HW140497   2.322  10.136   8.733  6.4106  2.2171 -0.0752
12830SOL    HW240498   2.301  10.106   8.880 -2.7288 -0.6558 -1.3295
12831SOL     OW40499   9.714   1.791   6.224  0.2030 -0.9054  0.1923
12831SOL    HW140500   9.702   1.865   6.165 -0.1188 -0.9551  0.1917
12831SOL    HW240501   9.806   1.766   6.213  0.3435 -0.4394  0.2770
12832SOL     OW40502   0.733   0.541  10.599 -0.4208  0.6382 -0.0956
12832SOL    HW140503   0.794   0.601  10.643 -0.9739  0.7153  0.5858
12832SOL    HW240504   0.787   0.464  10.578  0.0404  0.9239  0.0128
12833SOL     OW40505   3.062   2.097  11.219 -0.8973  0.5526  0.0778
12833SOL    HW140506   2.997   2.046  11.267 -0.7710  0.4962  0.1896
12833SOL    HW240507   3.146   2.071  11.257 -0.6914 -0.3199 -0.9208
12834SOL     OW40508   5.736   6.017   5.557  0.4637  0.4633  0.8223
12834SOL    HW140509   5.754   5.985   5.645  0.6346 -1.3977  0.1432
12834SOL    HW240510   5.672   5.956   5.521  0.1742  1.3614 -0.2599
12835SOL     OW40511   3.633   3.767   0.568 -0.5482  0.3332  0.2679
12835SOL    HW140512   3.624   3.672   0.561 -0.2968  0.4030 -2.0225
12835SOL    HW240513   3.613   3.787   0.659 -2.6954 -1.6989  0.3572
12836SOL     OW40514  10.054   1.225   1.461  0.1050  0.0901 -0.3819
12836SOL    HW140515  10.018   1.191   1.379  0.3892  2.4499 -1.5735
12836SOL    HW240516   9.980   1.266   1.506  0.1982 -0.0494 -0.1005
12837SOL     OW40517   9.230   0.490  11.223 -0.4177 -0.5871  0.1862
12837SOL    HW140518   9.257   0.564  11.168 -2.5468 -0.9497 -1.5024
12837SOL    HW240519   9.235   0.414  11.164  1.0299 -1.7113  1.6828
12838SOL     OW40520   4.779   2.115   3.196  0.0828  0.3787 -0.9916
12838SOL    HW140521   4.817   2.202   3.186  0.8202  0.0309 -1.2521
12838SOL    HW240522   4.696   2.130   3.241  0.1151  1.2338 -1.2112
12839SOL     OW40523   3.829  10.705   9.314  0.2755  0.3796 -0.2818
12839SOL    HW140524   3.737  10.724   9.330  0.4329  0.7671  0.1901
12839SOL    HW240525   3.864  10.679   9.399  0.4151 -0.5921 -0.6159
12840SOL     OW40526   9.819   0.396   3.964 -0.2310 -0.4212 -0.9657
12840SOL    HW140527   9.894   0.337   3.950  1.6585  1.4593  0.5424
12840SOL    HW240528   9.799   0.388   4.057 -0.9002  0.2694 -1.0397
12841SOL     OW40529   3.970   3.658   7.967  0.0488  0.4378 -0.2692
12841SOL    HW140530   3.879   3.628   7.968  0.3475 -0.4940 -0.2157
12841SOL    HW240531   4.007   3.619   7.888  1.0837 -1.3286  1.0231
12842SOL     OW40532   9.351   4.073  11.258  0.1231  0.1640 -0.3546
12842SOL    HW140533   9.398   4.147  11.219 -0.7345  1.5182  1.0566
12842SOL    HW240534   9.396   3.996  11.225  2.7395  1.3597  0.1495
12843SOL     OW40535   1.473   2.222   5.003  0.1267 -0.4200  0.5708
12843SOL    HW140536   1.565   2.214   5.029  1.0529  3.0623 -0.9860
12843SOL    HW240537   1.447   2.309   5.035 -0.7341  1.1450 -3.7142
12844SOL     OW40538   2.201   0.951   4.827 -0.5518 -0.4849 -0.5884
12844SOL    HW140539   2.239   0.942   4.914  2.1851 -0.9070 -1.6942
12844SOL    HW240540   2.121   0.898   4.829 -0.2333 -0.9623  1.4775
12845SOL     OW40541   2.587   9.801   5.726  0.0010  0.3656  0.0151
12845SOL    HW140542   2.534   9.728   5.759 -0.8695  0.9940  0.0255
12845SOL    HW240543   2.634   9.763   5.651  0.0355 -0.3675  0.3916
12846SOL     OW40544   1.463   8.567   3.584  0.3580 -0.2825 -0.4144
12846SOL    HW140545   1.491   8.658   3.596 -1.0389  0.3119 -1.3578
12846SOL    HW240546   1.488   8.546   3.494  1.8057 -1.2977  0.1817
12847SOL     OW40547   9.738   5.716   6.280  0.0871 -0.2560  0.5189
12847SOL    HW140548   9.743   5.679   6.192 -0.8595  1.0040 -0.1001
12847SOL    HW240549   9.827   5.708   6.315  1.6198  2.8547 -2.1164
12848SOL     OW40550   6.345   4.554   5.658  0.4890  0.4444 -0.2550
12848SOL    HW140551   6.283   4.489   5.693  0.5734 -0.0138 -0.9317
12848SOL    HW240552   6.383   4.595   5.736  1.2774 -1.1253  0.2338
12849SOL     OW40553   0.542   1.995   5.335 -0.2379  0.2109 -0.5975
12849SOL    HW140554   0.630   2.014   5.367  0.4108  0.1786 -2.2552
12849SOL    HW240555   0.487   1.993   5.414  1.3238 -0.3064  0.5204
12850SOL     OW40556   7.464   8.240   1.638  0.2578 -0.1255 -0.7382
12850SOL    HW140557   7.542   8.295   1.636 -0.5928  1.1184 -3.0965
12850SOL    HW240558   7.458   8.202   1.550 -1.9743  0.1471 -0.7812
12851SOL     OW40559   0.252   3.149   2.841  0.2452 -0.2637  0.1285
12851SOL    HW140560   0.279   3.148   2.933  1.1014  0.6250 -0.0953
12851SOL    HW240561   0.328   3.115   2.794  1.1824  2.4883 -0.5367
12852SOL     OW40562   7.905   4.239   8.370  0.4525 -0.1909 -0.3283
12852SOL    HW140563   7.984   4.283   8.402  0.2404  0.2064 -0.3505
12852SOL    HW240564   7.922   4.224   8.277 -0.4896  2.1781 -0.9731
12853SOL     OW40565   4.266  11.228   1.275  0.1992  0.4443 -0.1697
12853SOL    HW140566   4.216  11.261   1.349  1.1134  0.9995  0.2246
12853SOL    HW240567   4.292  11.306   1.226  1.8049  0.3049  0.3927
12854SOL     OW40568   3.165  10.959   6.683  0.2233 -0.9057  0.0981
12854SOL    HW140569   3.179  10.996   6.770  2.5684 -2.8163  0.6340
12854SOL    HW240570   3.089  10.902   6.692 -1.0476  0.7297  0.2106
12855SOL     OW40571   8.108   1.630   6.607 -0.5904 -0.0516 -0.7426
12855SOL    HW140572   8.127   1.650   6.699 -1.5300 -0.7178 -0.3885
12855SOL    HW240573   8.194   1.625   6.565 -0.1838  1.9604 -0.2872
12856SOL     OW40574   5.823   9.906   0.547 -0.3386  0.2669 -0.5145
12856SOL    HW140575   5.729   9.922   0.541 -0.9438 -1.7871  1.9251
12856SOL    HW240576   5.836   9.819   0.510  0.4885  0.2214 -0.1547
12857SOL     OW40577   3.385   0.954   2.114 -0.4726 -0.4627 -0.0103
12857SOL    HW140578   3.291   0.940   2.116 -0.3536 -1.2166  1.9279
12857SOL    HW240579   3.414   0.943   2.205  1.3186  0.9529 -0.3417
12858SOL     OW40580   3.031   3.826   5.972 -0.1531 -0.1453  0.4136
12858SOL    HW140581   2.997   3.866   6.052 -2.1226  0.0650 -0.4709
12858SOL    HW240582   3.044   3.734   5.995 -2.4621 -0.5033  0.5441
12859SOL     OW40583   1.578   3.693   4.223 -0.0312 -0.4133 -0.2466
12859SOL    HW140584   1.487   3.681   4.250 -0.0683 -0.4358 -0.3772
12859SOL    HW240585   1.573   3.697   4.127 -0.2289  2.3615 -0.1818
12860SOL     OW40586   9.364   9.716   7.032  0.0947  0.4531  0.3874
12860SOL    HW140587   9.296   9.675   7.086 -0.0970  1.1991  0.7315
12860SOL    HW240588   9.423   9.757   7.096  2.6060 -2.6788  0.3111
12861SOL     OW40589   2.010   4.458   4.078 -0.6486 -0.0057  0.0644
12861SOL    HW140590   2.068   4.483   4.006 -0.9058 -0.2860 -0.2463
12861SOL    HW240591   1.922   4.460   4.040 -0.6223 -2.2380 -0.2545
12862SOL     OW40592   3.477   8.637   4.294  0.0023 -0.3942  0.0877
12862SOL    HW140593   3.526   8.703   4.245  1.1332 -1.9072 -0.9476
12862SOL    HW240594   3.444   8.577   4.226 -1.0022 -0.8922  0.9821
12863SOL     OW40595   2.272   0.829   5.451 -0.1737 -0.1185  0.7054
12863SOL    HW140596   2.286   0.903   5.510 -1.2784 -0.1594  1.0498
12863SOL    HW240597   2.177   0.823   5.442 -0.0480 -0.0431 -1.1864
12864SOL     OW40598   1.622   7.828   7.188 -0.0508 -0.0306  0.0733
12864SOL    HW140599   1.651   7.741   7.216  1.3790  0.7914  1.3380
12864SOL    HW240600   1.674   7.888   7.241  2.0885  1.6868 -3.5636
12865SOL     OW40601   2.219  10.070   4.191 -0.0645  0.6501 -0.3391
12865SOL    HW140602   2.276  10.114   4.129  0.4270  0.4726 -0.0181
12865SOL    HW240603   2.207  10.134   4.262  0.7655  0.2396  0.1967
12866SOL     OW40604   3.922   3.091   4.429 -0.0808  0.3696  0.0315
12866SOL    HW140605   3.977   3.123   4.501 -1.5687 -0.8734  1.8442
12866SOL    HW240606   3.835   3.128   4.448 -1.0729 -1.9672  0.3357
12867SOL     OW40607   4.590   4.603  10.963  1.0645 -0.6455 -0.0638
12867SOL    HW140608   4.620   4.618  10.873  0.1893  0.4334 -0.1922
12867SOL    HW240609   4.496   4.585  10.954  0.1323  2.9368  0.8478
12868SOL     OW40610   6.378   5.090   0.319  0.3849 -0.8610  0.0114
12868SOL    HW140611   6.377   4.994   0.325 -3.1116 -0.8780  1.4059
12868SOL    HW240612   6.368   5.109   0.226 -0.5228 -1.9393 -0.1340
12869SOL     OW40613   2.222   7.457   8.573  0.3797  0.7585 -0.4100
12869SOL    HW140614   2.201   7.371   8.609  2.6060  0.6223  0.7679
12869SOL    HW240615   2.191   7.519   8.640  0.0007  0.7968 -0.6202
12870SOL     OW40616   8.550   4.771   8.234 -0.2202 -1.2058 -0.1142
12870SOL    HW140617   8.570   4.862   8.256 -1.4685 -0.8251 -0.4478
12870SOL    HW240618   8.635   4.733   8.209  0.1808  0.1506 -0.9697
12871SOL     OW40619   1.138   2.910   3.814  0.0049  0.4749  0.3835
12871SOL    HW140620   1.087   2.902   3.894  1.3495 -1.1355  1.1476
12871SOL    HW240621   1.157   2.819   3.788  1.6767  0.9838 -0.3625
12872SOL     OW40622   0.571   2.351   2.862 -0.8594  0.3206  0.0824
12872SOL    HW140623   0.482   2.335   2.833 -0.1363 -2.6947 -0.8053
12872SOL    HW240624   0.626   2.311   2.795  1.0983 -0.0108  1.7803
12873SOL     OW40625   9.177   5.089   8.513 -0.7055 -0.3846  0.6181
12873SOL    HW140626   9.169   5.129   8.600 -0.9368  0.0546  0.3978
12873SOL    HW240627   9.177   5.164   8.452 -1.9533 -0.7515  0.1390
12874SOL     OW40628   6.111   0.458  11.258 -0.4794 -0.1435  0.3924
12874SOL    HW140629   6.172   0.505  11.315  2.5239 -4.4765  1.1988
12874SOL    HW240630   6.065   0.398  11.317 -1.4189 -0.8888 -1.0460
12875SOL     OW40631  11.276   8.670   6.046 -0.1016 -0.6238 -0.2596
12875SOL    HW140632  11.196   8.697   5.999 -2.0475 -1.2517  2.4236
12875SOL    HW240633  11.296   8.583   6.011 -0.6991 -0.5410 -0.8345
12876SOL     OW40634   7.109   9.213   9.584 -0.0946  0.3337  0.0434
12876SOL    HW140635   7.042   9.279   9.604 -1.9969 -1.8435  1.4213
12876SOL    HW240636   7.094   9.193   9.491 -1.3181 -0.0060  0.2867
12877SOL     OW40637  10.871   1.706   7.326  0.2122  0.4124 -0.1616
12877SOL    HW140638  10.857   1.800   7.320  0.9821  0.4381 -2.4607
12877SOL    HW240639  10.945   1.689   7.268  0.4222 -1.5455  0.6184
12878SOL     OW40640   8.914   8.203  11.132 -0.1654  0.0736  0.1434
12878SOL    HW140641   8.827   8.242  11.124  0.0093  0.2210 -1.3936
12878SOL    HW240642   8.955   8.248  11.206 -1.0443  0.6866  0.2639
12879SOL     OW40643   9.385   6.447  10.393  0.5644 -0.1087  0.2175
12879SOL    HW140644   9.324   6.520  10.401  1.0008  0.0691  3.4007
12879SOL    HW240645   9.344   6.376  10.443  2.1877 -0.4669  1.1226
12880SOL     OW40646   3.400   5.318   4.128 -0.3843  0.6216  0.1350
12880SOL    HW140647   3.435   5.270   4.202  2.4138  1.2004 -0.6944
12880SOL    HW240648   3.346   5.255   4.081  2.8442 -1.7869 -0.7321
12881SOL     OW40649   3.407   1.231   0.947 -0.6371 -0.2870 -0.1776
12881SOL    HW140650   3.433   1.145   0.913 -0.3486 -0.3945  0.3134
12881SOL    HW240651   3.353   1.211   1.023 -0.5179 -0.0270 -0.0258
12882SOL     OW40652   9.020   1.217   1.675  0.4488 -0.4646 -0.7765
12882SOL    HW140653   9.081   1.218   1.749  0.4322 -1.0260 -0.7526
12882SOL    HW240654   8.966   1.296   1.688  1.4551  0.2860 -1.0481
12883SOL     OW40655   0.008   1.144   3.385 -0.1954 -0.3530  0.4762
12883SOL    HW140656   0.029   1.114   3.473 -3.0449 -1.5071  0.8857
12883SOL    HW240657   0.053   1.227   3.376  3.7493 -2.1686  1.3182
12884SOL     OW40658  10.684   4.780   4.763  0.2897  0.0099 -0.1405
12884SOL    HW140659  10.749   4.782   4.693 -0.8962  1.0969 -1.2691
12884SOL    HW240660  10.648   4.691   4.760  0.4514 -0.0412 -0.7367
12885SOL     OW40661   3.975   5.032   2.353 -0.0808 -0.5741 -0.2508
12885SOL    HW140662   3.946   4.962   2.295 -0.6503 -1.7451  1.3731
12885SOL    HW240663   3.972   5.111   2.299  0.3318 -1.7366 -2.0641
12886SOL     OW40664   6.325   3.569  10.698 -0.6546  0.0563  0.5166
12886SOL    HW140665   6.280   3.627  10.760  0.2267  2.4790 -1.0132
12886SOL    HW240666   6.410   3.609  10.684  0.6354 -2.4768  0.5176
12887SOL     OW40667   8.027  11.239   1.102 -0.3699  0.2850 -0.0595
12887SOL    HW140668   8.000  11.151   1.078  0.1625  0.3566 -0.9640
12887SOL    HW240669   7.976  11.297   1.045  0.1357  0.5020 -0.3047
12888SOL     OW40670  10.844   5.280   8.812  0.0706  0.4180  0.0262
12888SOL    HW140671  10.821   5.200   8.767  0.0112 -0.1380  1.0136
12888SOL    HW240672  10.900   5.252   8.884  1.6797  1.4749 -0.7688
12889SOL     OW40673  10.317   6.743   3.261  0.7775  0.1856 -0.5169
12889SOL    HW140674  10.248   6.807   3.243 -1.5678 -2.2732 -0.8908
12889SOL    HW240675  10.337   6.754   3.354 -3.3786 -1.7821  0.8395
12890SOL     OW40676   1.173   0.142  10.019 -0.2704 -0.1192  0.4388
12890SOL    HW140677   1.240   0.092   9.973 -1.1003 -1.2470  0.4322
12890SOL    HW240678   1.184   0.231   9.985  1.7369 -0.0820  1.0314
12891SOL     OW40679   3.947   7.358   8.129 -0.5500  0.4791  0.1319
12891SOL    HW140680   3.875   7.394   8.180 -1.3597  1.0193 -1.3370
12891SOL    HW240681   3.922   7.373   8.038  1.2167  0.2686 -0.4269
12892SOL     OW40682   8.718   6.342   8.682  0.1441 -0.3608 -0.2268
12892SOL    HW140683   8.722   6.403   8.756 -4.6555 -0.7435  0.6658
12892SOL    HW240684   8.733   6.256   8.721 -1.3049 -0.4542  0.1828
12893SOL     OW40685   5.361  10.891   6.857 -0.8587  0.1038 -0.3533
12893SOL    HW140686   5.447  10.851   6.850  0.1436  2.1138 -0.2779
12893SOL    HW240687   5.305  10.839   6.799  0.1441 -1.7817  0.2855
12894SOL     OW40688   3.442   7.567   9.888  0.1110 -0.3572  0.3406
12894SOL    HW140689   3.438   7.478   9.922 -0.7606  0.5740  2.9339
12894SOL    HW240690   3.371   7.613   9.933  1.0114  1.8318 -0.3327
12895SOL     OW40691   6.660   4.099   4.490  0.1576  0.4244 -0.3465
12895SOL    HW140692   6.747   4.136   4.508  0.6387 -1.6509  2.2270
12895SOL    HW240693   6.599   4.167   4.519  0.9039  1.5608 -1.3480
12896SOL     OW40694   4.532   0.946   9.427 -0.3871  0.3155 -0.7319
12896SOL    HW140695   4.465   0.919   9.363 -0.3714  1.3655 -1.2051
12896SOL    HW240696   4.576   0.864   9.450  1.2364  0.1155 -3.9137
12897SOL     OW40697   4.626   3.982   4.644 -0.4359 -0.0616  0.1669
12897SOL    HW140698   4.693   4.041   4.610 -0.3209 -0.8010 -0.9383
12897SOL    HW240699   4.543   4.025   4.626 -0.3562 -0.2658 -0.7130
12898SOL     OW40700   0.274   6.902   9.041 -0.1758 -0.3796 -0.0119
12898SOL    HW140701   0.275   6.991   9.005  1.7303 -0.5682 -0.5165
12898SOL    HW240702   0.328   6.907   9.120  0.9276 -1.3081 -0.6755
12899SOL     OW40703   6.604   3.110   6.533 -0.0544 -0.7004  0.3854
12899SOL    HW140704   6.654   3.050   6.476  0.4334  0.8068 -0.8389
12899SOL    HW240705   6.562   3.052   6.597  1.3090 -2.2481 -0.0389
12900SOL     OW40706   0.542   2.242   8.584 -0.0789  0.6031  0.2059
12900SOL    HW140707   0.605   2.182   8.624  0.6162 -1.4085 -3.4696
12900SOL    HW240708   0.457   2.211   8.614  0.3145 -1.8437 -0.9777
12901SOL     OW40709   4.936   7.509   3.598 -0.1029  0.2596 -0.3937
12901SOL    HW140710   4.924   7.572   3.526 -1.9186  0.2794 -0.1399
12901SOL    HW240711   4.850   7.467   3.606  0.7833 -1.5164  0.1410
12902SOL     OW40712   2.953   4.705  10.715 -0.1972  0.0494 -0.5372
12902SOL    HW140713   2.897   4.782  10.714  0.3841  0.5105  0.2875
12902SOL    HW240714   2.932   4.661  10.798  0.2915 -0.0395 -0.4537
12903SOL     OW40715   6.523   5.482  11.080  0.4363 -0.1470  0.4895
12903SOL    HW140716   6.508   5.574  11.059 -0.1008  0.7830  4.2022
12903SOL    HW240717   6.612   5.464  11.051  0.5262  1.5076 -0.3460
12904SOL     OW40718   7.913   4.088   5.958 -0.5518  0.4660 -0.4973
12904SOL    HW140719   7.941   3.998   5.974  1.9421  1.0913 -0.9123
12904SOL    HW240720   7.854   4.081   5.883  2.8500 -0.5068 -3.3333
12905SOL     OW40721   3.241   0.530   7.179  0.2806  0.4108  0.5864
12905SOL    HW140722   3.255   0.464   7.246  0.2503 -0.1378  0.0617
12905SOL    HW240723   3.151   0.515   7.149  0.2152  0.7995  0.5868
12906SOL     OW40724   0.560   2.046  10.941 -0.1999 -0.3457 -0.9754
12906SOL    HW140725   0.583   2.068  10.851  0.9890  1.5786 -0.2454
12906SOL    HW240726   0.620   1.975  10.964 -1.0601 -1.4145 -1.9302
12907SOL     OW40727   9.294  10.781   5.236 -0.7021  0.5903  0.1333
12907SOL    HW140728   9.290  10.837   5.314  0.0159  0.0770  0.5515
12907SOL    HW240729   9.386  10.780   5.212 -0.9224  0.7784 -0.7668
12908SOL     OW40730   8.137   8.636   7.802  0.6075  0.3131  0.0839
12908SOL    HW140731   8.200   8.595   7.742  1.0886 -0.6104  1.1793
12908SOL    HW240732   8.133   8.576   7.877 -1.2671  0.5597  0.2333
12909SOL     OW40733   4.215   8.940   7.285 -0.0081  0.7916 -0.1641
12909SOL    HW140734   4.231   8.919   7.377  1.0214  0.1418 -0.4750
12909SOL    HW240735   4.182   8.858   7.247 -0.9537  1.2054 -0.2663
12910SOL     OW40736   0.616   0.425  10.908  0.3169  0.2840  0.6570
12910SOL    HW140737   0.530   0.443  10.944 -1.3095 -0.8737 -2.2913
12910SOL    HW240738   0.599   0.398  10.818  3.6264 -1.9181  0.5246
12911SOL     OW40739   3.458   3.619   5.933  0.1586 -0.0669  0.0945
12911SOL    HW140740   3.509   3.537   5.934  0.5064  0.1441  1.3692
12911SOL    HW240741   3.382   3.599   5.878  1.3509 -0.5380 -1.4748
12912SOL     OW40742   1.820   7.468   2.428  0.7440  0.3048  0.1429
12912SOL    HW140743   1.794   7.379   2.450  2.1920 -0.2143 -0.0986
12912SOL    HW240744   1.874   7.458   2.349 -0.2063  1.5634 -0.7081
12913SOL     OW40745   4.491   4.604  10.232  0.0350 -0.2718  0.0325
12913SOL    HW140746   4.396   4.601  10.223  0.1167 -0.1635 -0.9608
12913SOL    HW240747   4.512   4.527  10.284 -0.7422  0.6687  1.8573
12914SOL     OW40748   9.802   0.733   9.135  0.0779 -0.5059 -0.1393
12914SOL    HW140749   9.789   0.798   9.066  0.1661 -3.0841 -2.7896
12914SOL    HW240750   9.877   0.765   9.186  1.4847  0.4298 -2.6606
12915SOL     OW40751  10.888   8.258   4.387  0.7327  0.3811 -0.5633
12915SOL    HW140752  10.793   8.274   4.385  0.8246  0.8955 -0.9410
12915SOL    HW240753  10.917   8.276   4.298  1.4212  1.7101 -0.0935
12916SOL     OW40754   3.800   7.216   3.852  0.3208 -0.1013 -0.1795
12916SOL    HW140755   3.830   7.241   3.939  0.9699  0.8512 -0.6550
12916SOL    HW240756   3.706   7.203   3.861  0.5766 -1.3842  0.9562
12917SOL     OW40757   6.458   4.563   6.885  0.7281  0.2493 -0.2706
12917SOL    HW140758   6.424   4.477   6.859  3.9713 -0.8620 -1.2145
12917SOL    HW240759   6.539   4.544   6.932  0.7219  2.7908  0.9408
12918SOL     OW40760   8.118   6.477  10.674  0.3559  0.5964 -0.5947
12918SOL    HW140761   8.113   6.550  10.613 -1.3059 -1.2470 -2.8251
12918SOL    HW240762   8.125   6.399  10.619 -3.3837 -1.3798  1.3477
12919SOL     OW40763   7.277  10.723   0.328  0.1582 -0.1757  0.1558
12919SOL    HW140764   7.308  10.759   0.245  1.6905 -1.3319  0.1633
12919SOL    HW240765   7.321  10.638   0.335  0.9007  0.3150  2.6070
12920SOL     OW40766   6.933   8.779   4.161 -0.0838  0.1485 -0.0324
12920SOL    HW140767   6.993   8.730   4.218 -1.8588 -1.8296  0.2369
12920SOL    HW240768   6.991   8.824   4.099  1.7457 -0.2570  1.2913
12921SOL     OW40769   8.349   7.963   7.743 -0.1716  0.5148 -0.2575
12921SOL    HW140770   8.253   7.967   7.753 -0.1471  1.4268 -0.2465
12921SOL    HW240771   8.378   8.053   7.760  0.4743  0.7747 -2.4313
12922SOL     OW40772   6.101   5.827   8.320  0.2129 -0.1647 -0.0742
12922SOL    HW140773   6.011   5.856   8.302 -0.0454  0.2061  1.6238
12922SOL    HW240774   6.129   5.785   8.239 -1.4745 -0.2369 -0.6683
12923SOL     OW40775   7.629   7.356   8.877  0.0108 -0.3125 -0.5225
12923SOL    HW140776   7.554   7.399   8.917 -0.5467 -0.2687 -1.5665
12923SOL    HW240777   7.621   7.264   8.903 -0.2849 -0.2659 -0.4468
12924SOL     OW40778   4.870   6.709   8.989  0.2332 -0.1522 -0.2135
12924SOL    HW140779   4.944   6.743   9.039 -0.4454  0.7716  0.1988
12924SOL    HW240780   4.880   6.614   8.991 -0.9734 -0.3452  3.6807
12925SOL     OW40781   6.352   1.315   9.134 -0.5837  0.5155 -0.1924
12925SOL    HW140782   6.365   1.321   9.039  0.6712  1.1800 -0.0038
12925SOL    HW240783   6.330   1.223   9.149  0.5599  0.0881 -0.9949
12926SOL     OW40784   7.258   6.225  10.072  0.1827 -0.7648  0.0503
12926SOL    HW140785   7.336   6.224  10.128 -0.5306 -0.0643  1.1048
12926SOL    HW240786   7.287   6.264   9.990  1.0247 -0.8769  0.2826
12927SOL     OW40787   5.466   5.672   8.568  0.1218 -0.6605 -0.2920
12927SOL    HW140788   5.485   5.745   8.628 -0.3557  0.0445 -0.9759
12927SOL    HW240789   5.523   5.601   8.598  0.6835  0.0297  0.3229
12928SOL     OW40790   4.425   8.632   4.874 -0.1332 -0.4056  0.0631
12928SOL    HW140791   4.331   8.648   4.862 -0.0120 -0.8451 -2.0146
12928SOL    HW240792   4.442   8.651   4.966 -2.7198 -2.6181  1.1291
12929SOL     OW40793  10.753  10.431   1.973 -0.2463  0.7090 -0.0264
12929SOL    HW140794  10.800  10.438   1.890  0.1472 -0.6069  0.0638
12929SOL    HW240795  10.815  10.465   2.038  1.5990 -3.0319  0.4024
12930SOL     OW40796   3.032   8.100   5.691  0.0963  0.1103 -0.6247
12930SOL    HW140797   3.089   8.104   5.615  0.4073  2.5378 -0.3329
12930SOL    HW240798   3.008   8.007   5.698  2.9503 -0.7894 -1.4880
12931SOL     OW40799  10.387   8.297   7.784 -0.1890  0.2973 -0.0435
12931SOL    HW140800  10.435   8.379   7.776 -1.0139  0.8483  0.4403
12931SOL    HW240801  10.307   8.312   7.734 -0.2971 -0.2543 -0.0380
12932SOL     OW40802   3.770   3.764   7.371 -0.3943 -0.4313 -0.1677
12932SOL    HW140803   3.796   3.679   7.334  0.0835 -0.3894  0.0554
12932SOL    HW240804   3.676   3.769   7.356 -0.1680 -0.2710 -1.6565
12933SOL     OW40805   4.229   2.317   6.183 -0.7888  0.1607  0.0954
12933SOL    HW140806   4.248   2.231   6.145  1.5204  0.6166  0.0895
12933SOL    HW240807   4.247   2.379   6.113  2.5531  0.9347  1.4236
12934SOL     OW40808   9.071   2.153   2.836  0.2206  0.3233  0.3007
12934SOL    HW140809   9.066   2.073   2.783  3.2582 -0.1479  0.5486
12934SOL    HW240810   9.074   2.122   2.926  3.3393  0.4623  0.3414
12935SOL     OW40811   2.414   5.279   4.742 -0.0911  0.5364 -0.5924
12935SOL    HW140812   2.405   5.374   4.749 -0.4018  0.5107 -0.6349
12935SOL    HW240813   2.436   5.264   4.650 -2.2307  0.4116 -1.1397
12936SOL     OW40814  11.198   0.980   7.382  0.4527  0.9927  0.0714
12936SOL    HW140815  11.149   0.903   7.354  1.2032  0.3922  0.3793
12936SOL    HW240816  11.288   0.961   7.357  0.4478  2.3816 -1.1091
12937SOL     OW40817  10.365   6.573  11.271  0.9870 -0.1885 -0.5244
12937SOL    HW140818  10.308   6.645  11.298  2.8580  0.8757  0.7560
12937SOL    HW240819  10.326   6.542  11.189 -0.0104  2.1597 -1.0338
12938SOL     OW40820   9.952   9.018   2.294 -0.2816  0.4157 -0.0910
12938SOL    HW140821   9.958   9.107   2.329  1.2558  0.0850  0.5402
12938SOL    HW240822  10.004   9.021   2.214 -1.8756  0.5614 -1.1817
12939SOL     OW40823  10.914  10.819   8.423 -0.1103 -0.2514  0.1878
12939SOL    HW140824  10.879  10.757   8.358  1.0075  0.8034 -1.4851
12939SOL    HW240825  10.972  10.766   8.478  0.4795 -0.7986 -0.9306
12940SOL     OW40826   0.556   8.829   8.331 -0.1693  0.4931 -0.7992
12940SOL    HW140827   0.496   8.834   8.257 -0.5575  0.7837 -0.4677
12940SOL    HW240828   0.517   8.764   8.390  0.9984 -1.0107 -1.6074
12941SOL     OW40829   5.712   7.780   1.284  0.2444  0.5090  0.1262
12941SOL    HW140830   5.673   7.806   1.200  0.3265  1.3034  0.3278
12941SOL    HW240831   5.793   7.832   1.290  1.5799 -1.3833 -0.4693
12942SOL     OW40832   0.695   0.419   5.613 -0.3408 -0.2144  0.0169
12942SOL    HW140833   0.728   0.407   5.524 -2.3391 -0.1464 -0.7941
12942SOL    HW240834   0.759   0.375   5.669  1.8210  1.1164 -1.2715
12943SOL     OW40835   4.430   6.326   3.090 -0.2245  0.3428  1.2868
12943SOL    HW140836   4.425   6.417   3.119  3.4461  1.5163 -1.1522
12943SOL    HW240837   4.505   6.290   3.137  0.7425 -0.1731 -0.5676
12944SOL     OW40838   2.272   2.569   2.822 -0.4518  0.5433  0.0050
12944SOL    HW140839   2.274   2.490   2.767  0.0076  0.7876 -0.3361
12944SOL    HW240840   2.278   2.536   2.912 -1.4488  0.1283 -0.0659
12945SOL     OW40841   6.590   9.505   9.106 -1.0572  0.3614  0.0332
12945SOL    HW140842   6.570   9.552   9.025  1.4377  0.4531 -0.6069
12945SOL    HW240843   6.662   9.447   9.083  0.1966  0.8937  2.3270
12946SOL     OW40844   4.077   1.546   7.596 -0.7237 -0.0778  0.2106
12946SOL    HW140845   3.996   1.555   7.546  0.0544 -1.3390 -1.3409
12946SOL    HW240846   4.140   1.601   7.550 -0.3533 -0.1249  0.6467
12947SOL     OW40847   3.523   4.176  11.150 -0.3813  0.1579 -0.0358
12947SOL    HW140848   3.577   4.099  11.169  0.7793  0.1360 -2.9081
12947SOL    HW240849   3.438   4.140  11.126 -0.1882 -0.1720 -0.2379
12948SOL     OW40850   2.467   0.810   7.028 -1.0085  0.6988 -0.2409
12948SOL    HW140851   2.522   0.791   7.104 -2.2244  0.2163  0.5537
12948SOL    HW240852   2.505   0.758   6.957 -1.2802 -0.7775  0.6514
12949SOL     OW40853   6.447   4.868   0.213 -0.2115  0.0535 -0.2057
12949SOL    HW140854   6.406   4.839   0.131  4.0918  1.9748 -3.4508
12949SOL    HW240855   6.500   4.793   0.241 -2.3418 -0.9225  1.5752
12950SOL     OW40856   9.845   4.619   2.825  0.7391 -0.5643 -0.2917
12950SOL    HW140857   9.861   4.619   2.919 -2.7624 -0.8513  0.4399
12950SOL    HW240858   9.778   4.552   2.813 -1.5019  1.8592 -2.4201
12951SOL     OW40859   3.657   5.245   4.013  0.7121  0.6059  0.3412
12951SOL    HW140860   3.587   5.305   4.038  0.3817 -0.3175  1.7787
12951SOL    HW240861   3.615   5.183   3.953 -0.1543 -0.8325  2.3377
12952SOL     OW40862   7.886   7.034   1.211 -0.0156  0.3465  0.1124
12952SOL    HW140863   7.820   6.983   1.165 -0.6851  1.0863  0.2330
12952SOL    HW240864   7.843   7.063   1.292  0.5248  0.6445  0.3030
12953SOL     OW40865   5.324   3.759   6.266 -0.6480  0.1522  0.4410
12953SOL    HW140866   5.357   3.843   6.295  1.5160 -0.4584 -0.0997
12953SOL    HW240867   5.255   3.737   6.329  0.0419  1.4557  1.6957
12954SOL     OW40868   4.629   4.843  11.186  0.1788 -0.4145 -0.0851
12954SOL    HW140869   4.548   4.792  11.191  0.1970 -0.7019 -2.0791
12954SOL    HW240870   4.602   4.926  11.147  0.5307  0.3197  1.1583
12955SOL     OW40871   8.002   6.087   8.754 -0.5564  0.5484  0.0022
12955SOL    HW140872   7.964   6.154   8.697  0.3499  0.8083 -0.3032
12955SOL    HW240873   7.946   6.088   8.832 -1.3867  0.6730 -0.5866
12956SOL     OW40874   6.666   4.548   7.502  0.2185 -0.6859  0.0428
12956SOL    HW140875   6.604   4.484   7.537 -0.3942 -0.2936 -0.3091
12956SOL    HW240876   6.625   4.633   7.519 -2.2179 -0.4162 -5.1651
12957SOL     OW40877   8.066   4.942   5.319 -0.5985 -0.2021 -0.2519
12957SOL    HW140878   8.151   4.984   5.308 -0.6613 -0.1102 -0.3908
12957SOL    HW240879   8.044   4.909   5.231 -1.7031  1.6677 -0.7161
12958SOL     OW40880   2.609   7.476   6.698  0.6096  0.4221  0.3490
12958SOL    HW140881   2.583   7.519   6.779 -0.7515 -0.7256  0.5496
12958SOL    HW240882   2.698   7.507   6.683 -0.0034  2.6714  0.8942
12959SOL     OW40883   4.801   6.170   9.560 -0.3679 -0.0359 -0.0816
12959SOL    HW140884   4.791   6.082   9.524 -0.8940  0.2129 -0.5600
12959SOL    HW240885   4.724   6.182   9.616 -1.7618  1.0930 -2.1051
12960SOL     OW40886   6.934  10.964   2.593 -0.1211  0.1585  0.0321
12960SOL    HW140887   6.901  11.013   2.667  0.4063 -0.3306  0.6007
12960SOL    HW240888   6.922  10.872   2.617  0.3575 -0.0071 -0.3352
12961SOL     OW40889   1.543   6.562   0.937  0.0548  0.1330 -0.3289
12961SOL    HW140890   1.577   6.579   1.025  0.1153  0.5705 -0.4345
12961SOL    HW240891   1.495   6.641   0.914  0.0823  0.0404 -0.7144
12962SOL     OW40892   8.778   0.352   4.367 -0.0900  0.1295  0.4287
12962SOL    HW140893   8.733   0.429   4.334 -0.1193 -0.8627 -2.0698
12962SOL    HW240894   8.735   0.333   4.450 -2.1137  1.0715 -0.3333
12963SOL     OW40895   6.382   5.330   1.808 -0.3028 -0.6027 -0.6139
12963SOL    HW140896   6.466   5.319   1.853 -1.0913  0.0273  1.1214
12963SOL    HW240897   6.364   5.244   1.768  0.8100 -0.9556 -0.3806
12964SOL     OW40898   2.182   1.396   4.947 -0.2048 -0.0852 -0.3884
12964SOL    HW140899   2.100   1.365   4.908 -0.1406 -0.1917 -0.4395
12964SOL    HW240900   2.248   1.336   4.913  0.1698  1.0448 -1.7231
12965SOL     OW40901   5.816  10.090   8.707  0.4561  0.0957 -0.4124
12965SOL    HW140902   5.780  10.151   8.643  0.6019  0.3721 -0.2345
12965SOL    HW240903   5.883  10.141   8.753  2.4061 -0.9005 -1.9632
12966SOL     OW40904   7.885  10.246   3.798  0.4391 -0.5236  0.0980
12966SOL    HW140905   7.849  10.159   3.816  0.5885 -0.3181  1.4820
12966SOL    HW240906   7.944  10.263   3.871  0.7640  0.5622 -0.3948
12967SOL     OW40907   4.034   3.191   9.841  0.3856 -0.2551  0.0454
12967SOL    HW140908   4.072   3.270   9.805 -0.3641  0.2653  0.3759
12967SOL    HW240909   3.944   3.214   9.861  0.0276 -1.3190 -0.2516
12968SOL     OW40910   0.175   0.254   9.015  0.5201 -0.1612  0.5697
12968SOL    HW140911   0.204   0.306   9.090 -1.0105 -0.7408  1.6246
12968SOL    HW240912   0.255   0.230   8.969  1.3537  2.1316  0.6969
12969SOL     OW40913   8.168   6.716  10.249 -0.7944 -0.4897 -1.0220
12969SOL    HW140914   8.162   6.810  10.260  1.9291 -0.3727  0.4482
12969SOL    HW240915   8.202   6.704  10.160 -0.5375 -0.0156 -0.9898
12970SOL     OW40916   0.027   4.748   7.912 -0.3907  0.4692  0.2069
12970SOL    HW140917  -0.014   4.735   7.826  1.0347  1.7566 -0.7208
12970SOL    HW240918   0.039   4.842   7.919  1.8763  0.2017  0.6621
12971SOL     OW40919   9.144   7.148   2.368  0.0564 -0.6992  0.6007
12971SOL    HW140920   9.171   7.068   2.415  0.6121 -0.7395  0.2172
12971SOL    HW240921   9.203   7.216   2.402  0.5648 -0.7592 -0.1407
12972SOL     OW40922   8.981   8.674   5.981 -0.3785 -0.2951  0.4719
12972SOL    HW140923   8.935   8.660   6.064 -3.2806  2.9659 -0.3516
12972SOL    HW240924   9.031   8.754   5.994  1.8419 -1.5111 -0.0350
12973SOL     OW40925   8.188   3.325   0.513  0.3706 -0.7112  0.0156
12973SOL    HW140926   8.233   3.334   0.429  0.5593 -2.5641 -0.1192
12973SOL    HW240927   8.096   3.311   0.490 -0.0848  1.4847  0.2473
12974SOL     OW40928   2.733   7.546   6.970 -0.1770  0.4638  0.2182
12974SOL    HW140929   2.828   7.560   6.970 -0.3972  2.2340  0.4858
12974SOL    HW240930   2.710   7.545   7.063 -0.5918  1.6829  0.1522
12975SOL     OW40931   0.261   8.058   0.553  0.1454  0.4958 -0.0339
12975SOL    HW140932   0.280   8.063   0.646 -0.2288  1.7339 -0.0011
12975SOL    HW240933   0.247   8.149   0.526  0.2195  0.1624 -1.2934
12976SOL     OW40934  10.204   3.149   6.553 -0.9400 -0.1594  0.1683
12976SOL    HW140935  10.187   3.057   6.573 -0.4637 -0.3817 -0.4184
12976SOL    HW240936  10.178   3.159   6.462 -0.3809  0.1279  0.0359
12977SOL     OW40937   9.390   5.418  10.959  0.0512  0.3623 -0.0036
12977SOL    HW140938   9.350   5.337  10.990 -2.9461  1.2328 -1.1934
12977SOL    HW240939   9.452   5.390  10.891 -1.6500 -0.9403 -1.1005
12978SOL     OW40940   7.148   7.364   6.854 -0.4023 -0.2849  0.2873
12978SOL    HW140941   7.176   7.331   6.769 -2.2595  1.2735 -1.0141
12978SOL    HW240942   7.226   7.404   6.892  0.0096  0.8114 -1.6105
12979SOL     OW40943   1.756   6.888   9.247  0.1952  0.1633 -0.1237
12979SOL    HW140944   1.783   6.834   9.173 -2.1382  1.2707 -1.9212
12979SOL    HW240945   1.764   6.830   9.323  0.8639 -1.6335 -1.4873
12980SOL     OW40946   2.869   4.824   7.185 -0.2419  0.4907  0.1490
12980SOL    HW140947   2.909   4.758   7.128 -1.9021  0.1405 -0.6865
12980SOL    HW240948   2.924   4.824   7.263  2.3340  1.2189 -1.5253
12981SOL     OW40949   6.328  10.618   7.550 -0.8926 -0.8106  0.5429
12981SOL    HW140950   6.355  10.526   7.557  0.7252 -0.4564 -0.4471
12981SOL    HW240951   6.241  10.614   7.511 -0.9452 -1.9350  0.7225
12982SOL     OW40952   8.094   9.739   7.655  0.0095 -0.2615 -0.4892
12982SOL    HW140953   8.023   9.675   7.662 -0.8099  0.3413 -2.5194
12982SOL    HW240954   8.088   9.791   7.736 -2.2493  0.1340 -0.8486
12983SOL     OW40955   5.921   2.720   2.864 -0.5737  0.3007 -0.1783
12983SOL    HW140956   5.951   2.655   2.928  0.6627 -0.0270 -1.0599
12983SOL    HW240957   5.840   2.682   2.828 -1.2912  0.4959  1.1644
12984SOL     OW40958   4.380   9.983   4.646  0.5311  0.5873 -0.0986
12984SOL    HW140959   4.421   9.897   4.644  0.4533  0.5495 -2.1964
12984SOL    HW240960   4.453  10.045   4.640  0.4716  0.5878 -0.9626
12985SOL     OW40961  10.910   8.457   5.738  0.2423  0.1926 -0.1876
12985SOL    HW140962  10.907   8.545   5.778  0.4265  0.4960 -0.8321
12985SOL    HW240963  10.912   8.397   5.813 -1.1280  0.6915  0.2797
12986SOL     OW40964   2.205   5.923   2.508 -0.0878 -0.2332 -0.0733
12986SOL    HW140965   2.187   5.980   2.583 -2.7583  0.4987 -1.1608
12986SOL    HW240966   2.126   5.928   2.454  0.6706 -2.8619 -1.6057
12987SOL     OW40967   9.471   6.470  11.107  0.0975 -0.3258 -0.1743
12987SOL    HW140968   9.387   6.485  11.065  0.1720  0.5709 -0.0136
12987SOL    HW240969   9.487   6.376  11.096 -0.4729 -0.3271 -1.0255
12988SOL     OW40970  10.637   1.815   4.623  0.0021  0.6474  0.2822
12988SOL    HW140971  10.563   1.840   4.678  0.9128  0.5956  1.5654
12988SOL    HW240972  10.683   1.898   4.605 -0.9288  0.8408 -1.4123
12989SOL     OW40973   7.394   7.513   8.779  0.3828 -0.1549 -0.3729
12989SOL    HW140974   7.382   7.604   8.754  1.8746 -0.2877 -1.7721
12989SOL    HW240975   7.348   7.504   8.863  0.4996  1.9567 -0.0389
12990SOL     OW40976   3.237   1.586   0.872  0.2865 -0.4410  0.2591
12990SOL    HW140977   3.205   1.676   0.863 -0.4190 -0.6466  0.6112
12990SOL    HW240978   3.161   1.532   0.850  0.9195 -0.9586 -0.6969
12991SOL     OW40979  10.137   4.690   7.836 -0.1429 -0.2471  0.7432
12991SOL    HW140980  10.171   4.744   7.765  1.8155 -1.4185  0.7219
12991SOL    HW240981  10.127   4.751   7.909  0.1536  0.5175  0.1659
12992SOL     OW40982  10.682   2.248   4.215  0.2713 -0.1223  0.0405
12992SOL    HW140983  10.594   2.227   4.244  0.0653  1.2979  0.5129
12992SOL    HW240984  10.728   2.277   4.294  1.2785 -1.1482 -0.1318
12993SOL     OW40985   6.344   8.867   0.534 -0.0508  0.1793  0.3946
12993SOL    HW140986   6.384   8.928   0.472  0.6372 -0.1827  0.4713
12993SOL    HW240987   6.250   8.880   0.522  0.0679  0.2681 -0.5800
12994SOL     OW40988  11.125   7.538   2.449  0.4413 -0.1638 -0.6453
12994SOL    HW140989  11.112   7.446   2.473 -3.6235 -0.4641 -3.1370
12994SOL    HW240990  11.180   7.534   2.370  1.1839 -0.3256 -0.1308
12995SOL     OW40991   9.133   0.549   9.047  0.3849  0.9250  0.1424
12995SOL    HW140992   9.158   0.465   9.085  0.3739  0.2386 -1.2813
12995SOL    HW240993   9.214   0.583   9.009 -0.2414 -0.1680 -2.3789
12996SOL     OW40994   0.526   2.195   0.272  0.0909  0.5460 -0.7903
12996SOL    HW140995   0.586   2.270   0.268  0.1695  0.4277 -2.5317
12996SOL    HW240996   0.551   2.141   0.198 -1.9952  0.3599 -1.4130
12997SOL     OW40997   8.133   6.301  11.141  0.1984  0.2304  0.6744
12997SOL    HW140998   8.219   6.278  11.106 -0.4018 -2.0880  0.6117
12997SOL    HW240999   8.133   6.269  11.231 -1.5070 -2.4306 -0.1498
12998SOL     OW41000   2.604   0.326   3.894  0.5131  0.2153  0.1479
12998SOL    HW141001   2.548   0.309   3.819 -1.8118 -1.1633  2.0241
12998SOL    HW241002   2.551   0.383   3.951  2.1039  1.0401  0.8779
12999SOL     OW41003   8.500   8.182   0.226 -0.3666 -0.3706  0.0765
12999SOL    HW141004   8.439   8.204   0.295  0.5627  0.6133  0.6094
12999SOL    HW241005   8.491   8.087   0.214 -1.0161 -0.4361  1.0669
13000SOL     OW41006  10.783   4.747   5.272 -0.0414 -0.1929  0.4260
13000SOL    HW141007  10.820   4.769   5.187 -0.0550 -0.2699  0.3997
13000SOL    HW241008  10.689   4.761   5.261  0.1511  1.9313  1.0824
13001SOL     OW41009   7.668   6.355   5.355  0.5702 -0.1315 -0.2412
13001SOL    HW141010   7.606   6.288   5.325  0.7671 -0.5571  0.2844
13001SOL    HW241011   7.644   6.370   5.447  2.3980 -1.6755  0.5593
13002SOL     OW41012   5.066  10.696   7.513  0.0150 -0.4390 -0.4483
13002SOL    HW141013   5.053  10.601   7.518  0.4329 -0.4616  0.3910
13002SOL    HW241014   5.079  10.723   7.604 -2.4302  0.7856 -0.3824
13003SOL     OW41015   6.604  10.362  10.915 -0.2568  0.2606  0.2678
13003SOL    HW141016   6.687  10.407  10.932 -1.0876  1.2812  1.9282
13003SOL    HW241017   6.628  10.286  10.862  1.8376  0.1508  1.2619
13004SOL     OW41018   1.274   1.199   6.283 -0.1838  0.1037  0.3553
13004SOL    HW141019   1.231   1.225   6.365  0.9125  0.3899  0.8541
13004SOL    HW241020   1.291   1.281   6.237 -2.5195 -0.1327 -1.1046
13005SOL     OW41021   3.324   3.309   6.337  0.2401 -0.6489  0.2640
13005SOL    HW141022   3.297   3.392   6.298  0.4927 -2.0372 -3.2113
13005SOL    HW241023   3.402   3.330   6.387 -0.2421  1.3516  0.2620
13006SOL     OW41024  10.697  10.466   2.476 -0.0833 -0.1664 -0.5835
13006SOL    HW141025  10.760  10.537   2.486 -1.3924  1.0351 -0.5250
13006SOL    HW241026  10.733  10.411   2.407  2.3428 -1.0271  1.2356
13007SOL     OW41027   5.585   8.991   3.261 -0.1705 -0.1549 -0.0379
13007SOL    HW141028   5.550   8.979   3.172 -1.9295  0.0365  0.5762
13007SOL    HW241029   5.678   8.971   3.253 -0.4676 -1.1401 -1.7240
13008SOL     OW41030   6.998   5.591   4.498 -0.3966  0.3599  0.0574
13008SOL    HW141031   7.057   5.530   4.455 -0.2470  1.8456 -1.9590
13008SOL    HW241032   6.995   5.560   4.589  0.2393 -2.1584 -0.6885
13009SOL     OW41033   9.067   9.135   2.098  0.3607  0.1625  0.3566
13009SOL    HW141034   9.084   9.074   2.169  0.5983 -0.5447 -0.2962
13009SOL    HW241035   8.992   9.098   2.052  2.4785 -1.5136 -2.0389
13010SOL     OW41036   6.428   7.419   2.162  0.2813  0.1281 -0.5843
13010SOL    HW141037   6.447   7.387   2.250 -1.2977 -1.0316 -0.6131
13010SOL    HW241038   6.418   7.340   2.109 -0.3596  0.7602 -1.4411
13011SOL     OW41039   1.009   7.762   4.521 -0.3979 -0.5306 -0.7975
13011SOL    HW141040   0.957   7.696   4.475  0.3069 -0.1600 -2.1718
13011SOL    HW241041   0.959   7.844   4.509  0.1694 -0.2900 -1.5927
13012SOL     OW41042   3.364   3.888   8.133 -0.1200  0.2077  0.1416
13012SOL    HW141043   3.423   3.935   8.191  1.4956 -0.3678 -0.9322
13012SOL    HW241044   3.382   3.925   8.046 -1.3007 -0.0436 -0.2233
13013SOL     OW41045   6.738   6.172   5.497  0.4455  0.0099 -0.8586
13013SOL    HW141046   6.683   6.242   5.462  1.8517  1.9889  0.5863
13013SOL    HW241047   6.823   6.186   5.455  0.2950 -2.0965 -1.9871
13014SOL     OW41048   0.885   6.244   2.218  0.4320 -0.1876  0.3802
13014SOL    HW141049   0.913   6.330   2.250 -1.0825  0.2920  0.4982
13014SOL    HW241050   0.925   6.237   2.131 -1.7418  1.9817 -0.9439
13015SOL     OW41051   5.691   9.433   7.099 -0.6224 -0.5528 -0.3541
13015SOL    HW141052   5.732   9.515   7.071  1.6307 -0.7161  2.1116
13015SOL    HW241053   5.746   9.364   7.060  1.8677 -0.7731  3.0516
13016SOL     OW41054   3.506   0.431   4.422 -0.8670 -0.1390 -0.3156
13016SOL    HW141055   3.476   0.508   4.374  0.5918  0.6182 -0.0908
13016SOL    HW241056   3.478   0.357   4.369  0.4661  0.6661 -2.2543
13017SOL     OW41057   4.077   5.906   3.429  0.8293 -0.8109  0.1639
13017SOL    HW141058   3.988   5.933   3.408  0.5830 -2.0640 -0.4661
13017SOL    HW241059   4.088   5.927   3.522 -1.0683 -3.1477  0.9993
13018SOL     OW41060   8.444   1.389   3.922 -0.4975 -1.1294 -0.3866
13018SOL    HW141061   8.498   1.379   3.844  0.9381  4.3183 -0.4807
13018SOL    HW241062   8.505   1.417   3.990 -2.3676 -1.0103  1.3288
13019SOL     OW41063   3.908   9.425   9.860 -0.5451 -0.4235  0.4151
13019SOL    HW141064   3.873   9.387   9.941 -0.5826 -1.6118 -0.1262
13019SOL    HW241065   3.833   9.430   9.802 -1.5631  4.4640  1.7093
13020SOL     OW41066   5.898   3.008   5.199 -0.5605 -0.0515 -0.0700
13020SOL    HW141067   5.927   3.066   5.269 -0.3009  1.0773 -1.0842
13020SOL    HW241068   5.806   2.991   5.218 -0.1073 -1.0677  1.4036
13021SOL     OW41069   6.781   1.702   9.701 -0.5313 -0.1734  0.3362
13021SOL    HW141070   6.757   1.773   9.642  0.4992  0.0405  0.1594
13021SOL    HW241071   6.698   1.663   9.728 -1.1235  1.2987  0.6940
13022SOL     OW41072  10.304   8.593   1.538 -0.6629  0.3478 -0.2402
13022SOL    HW141073  10.293   8.581   1.633 -0.3105 -3.8217 -0.5137
13022SOL    HW241074  10.393   8.627   1.529 -1.4164  2.8622  0.8870
13023SOL     OW41075   9.641   2.674   8.141 -0.5108  0.2535 -0.1541
13023SOL    HW141076   9.670   2.765   8.148 -0.5374  0.3173 -0.8584
13023SOL    HW241077   9.640   2.656   8.047 -1.9953  0.0208 -0.1161
13024SOL     OW41078   9.038   9.092   8.108 -0.2481 -0.2358  0.4505
13024SOL    HW141079   8.992   9.156   8.053 -0.1534 -1.7761 -1.5680
13024SOL    HW241080   8.998   9.101   8.194 -0.5325  2.2043  0.1345
13025SOL     OW41081   2.338   8.533   2.002 -0.3324 -0.3986  0.0964
13025SOL    HW141082   2.268   8.594   2.026  1.2542  1.3744  0.4833
13025SOL    HW241083   2.394   8.529   2.079 -0.2322 -2.1700 -0.0330
13026SOL     OW41084   6.269   5.905   5.778  0.3741 -0.1115  0.0132
13026SOL    HW141085   6.218   5.825   5.786  0.5416 -0.1596  0.7142
13026SOL    HW241086   6.289   5.913   5.685  3.3960 -2.8066  0.2439
13027SOL     OW41087   8.253   8.481   8.122 -0.2078  0.8517  0.2009
13027SOL    HW141088   8.338   8.442   8.102 -0.9006 -1.0340  0.6704
13027SOL    HW241089   8.195   8.448   8.054 -0.7052  1.6312  0.2335
13028SOL     OW41090   3.649   7.560   4.019 -0.2527 -0.1404  0.0289
13028SOL    HW141091   3.712   7.521   3.959 -0.9892 -1.4226  0.0583
13028SOL    HW241092   3.592   7.488   4.044 -0.7931  0.6665  1.2089
13029SOL     OW41093   3.664   0.453   0.401  0.0717 -0.2533 -0.2835
13029SOL    HW141094   3.682   0.427   0.492  2.6076  1.0428 -0.3306
13029SOL    HW241095   3.728   0.404   0.349  0.3699  0.9399 -1.0792
13030SOL     OW41096   5.784   5.666   2.079 -0.1430  0.2972 -0.2368
13030SOL    HW141097   5.689   5.662   2.065 -0.0831  1.5723 -1.1787
13030SOL    HW241098   5.813   5.740   2.027  1.4040 -0.1188 -0.0254
13031SOL     OW41099   7.547   0.350   3.493 -0.1884 -0.4076 -0.5757
13031SOL    HW141100   7.495   0.271   3.476  0.5672 -0.7053 -1.5992
13031SOL    HW241101   7.501   0.419   3.447 -1.0077 -0.1661  0.5525
13032SOL     OW41102   6.388   5.437   5.215  0.2278 -0.2428 -0.1164
13032SOL    HW141103   6.358   5.511   5.268 -0.5791 -1.3157  1.0019
13032SOL    HW241104   6.462   5.400   5.265  1.6615  0.6993 -1.4484
13033SOL     OW41105   3.019   7.125   9.783  0.1007 -0.4581  0.4455
13033SOL    HW141106   3.070   7.069   9.725  0.9326  1.3133 -0.6255
13033SOL    HW241107   2.945   7.071   9.810  1.2294 -2.2886  0.0719
13034SOL     OW41108   1.809   2.509   3.985 -0.1421  0.1497  0.6241
13034SOL    HW141109   1.833   2.487   3.895  1.7628 -1.6771  1.5045
13034SOL    HW241110   1.806   2.604   3.986 -0.3807  0.2120 -1.3862
13035SOL     OW41111   3.347   2.911   4.331 -0.1987  0.3006  0.0093
13035SOL    HW141112   3.436   2.935   4.354 -0.0748 -0.6775  0.6128
13035SOL    HW241113   3.354   2.879   4.241  0.4473 -1.5736  0.6678
13036SOL     OW41114  10.480   6.292   5.720  0.4090  0.0085 -0.1930
13036SOL    HW141115  10.535   6.276   5.643 -1.1003 -0.4226 -1.2332
13036SOL    HW241116  10.401   6.333   5.685  0.4221  1.5087  1.3721
13037SOL     OW41117   9.553   4.101   0.601 -0.2877 -0.2233 -0.0428
13037SOL    HW141118   9.580   4.085   0.510  0.0217  2.1448 -0.4443
13037SOL    HW241119   9.625   4.069   0.654  0.2202 -0.2364 -0.7339
13038SOL     OW41120   8.711   4.040   7.386 -0.3363 -0.3302  1.0458
13038SOL    HW141121   8.756   4.118   7.354 -2.7351  1.0737  0.8498
13038SOL    HW241122   8.771   4.002   7.450  2.1562 -0.0290 -0.9698
13039SOL     OW41123  10.352   1.332   3.917  0.4080  0.0029  0.2327
13039SOL    HW141124  10.365   1.278   3.996  1.0330  1.3004  1.0426
13039SOL    HW241125  10.435   1.377   3.905 -0.2252  1.1001 -0.1836
13040SOL     OW41126  10.962   4.697   3.755 -0.5480  0.6688 -0.2126
13040SOL    HW141127  11.004   4.764   3.701 -2.7040  1.9379 -0.4263
13040SOL    HW241128  10.874   4.731   3.771 -1.3652 -1.6565  0.5709
13041SOL     OW41129   3.220   8.426   1.729 -0.0210 -0.0611 -0.3147
13041SOL    HW141130   3.276   8.439   1.805 -1.9810  1.5955  0.9601
13041SOL    HW241131   3.193   8.334   1.734 -1.6727  0.4429  2.2451
13042SOL     OW41132  10.639   6.371   2.867 -0.2358  0.2821 -0.1108
13042SOL    HW141133  10.594   6.302   2.917 -1.3670  0.3000 -1.0574
13042SOL    HW241134  10.670   6.432   2.934  3.4192 -2.4798  1.0632
13043SOL     OW41135   3.267   9.570   8.371 -0.4930  0.2130 -0.3773
13043SOL    HW141136   3.329   9.541   8.303  0.6285 -1.4735  1.2578
13043SOL    HW241137   3.278   9.665   8.374  2.3298 -0.0144  0.0073
13044SOL     OW41138  11.213   5.789   8.564  0.2029 -0.4808 -0.5132
13044SOL    HW141139  11.198   5.880   8.538  0.5091 -0.1597  0.4007
13044SOL    HW241140  11.305   5.773   8.545 -0.2152 -1.1278 -2.1808
13045SOL     OW41141   0.237   1.665   3.995  0.4743  0.3879 -0.3030
13045SOL    HW141142   0.197   1.729   3.935 -0.0723  0.1739 -0.1714
13045SOL    HW241143   0.166   1.640   4.054 -1.3567 -5.0143 -4.0005
13046SOL     OW41144   0.132   9.435  10.446 -0.0711  0.4961  0.4147
13046SOL    HW141145   0.119   9.345  10.475 -0.6313  0.3624 -0.2051
13046SOL    HW241146   0.218   9.459  10.478 -0.4670  0.2024  1.7396
13047SOL     OW41147   5.764   1.298   5.262  0.2855 -0.0463 -0.2782
13047SOL    HW141148   5.790   1.215   5.301 -2.0335 -0.8698 -0.3390
13047SOL    HW241149   5.738   1.353   5.335 -1.7009 -0.7218 -0.4247
13048SOL     OW41150   1.429  10.747   6.258 -0.5621 -0.0033 -0.3339
13048SOL    HW141151   1.509  10.781   6.218 -1.2346  2.1536 -0.0040
13048SOL    HW241152   1.404  10.673   6.204  0.4625  0.6608 -1.7741
13049SOL     OW41153   4.605   5.205   9.196 -0.1746  0.1578  0.1421
13049SOL    HW141154   4.534   5.145   9.218 -0.7495  0.8395  0.1894
13049SOL    HW241155   4.598   5.217   9.101  0.5337 -0.5789 -0.0110
13050SOL     OW41156  10.356   8.005   1.951  0.4158  0.0522  0.6334
13050SOL    HW141157  10.293   8.074   1.928  0.3076  0.6114  2.4155
13050SOL    HW241158  10.317   7.963   2.028  1.0897 -1.2008  0.3109
13051SOL     OW41159   6.977  10.716   3.820  0.1659  0.5877  0.3154
13051SOL    HW141160   6.937  10.636   3.854  0.9573  0.4350  0.9053
13051SOL    HW241161   6.916  10.786   3.846 -0.3942  0.2132  0.0254
13052SOL     OW41162   2.176   2.447   9.600  0.2323 -0.7145 -0.5343
13052SOL    HW141163   2.217   2.451   9.514  2.8313 -0.9826  0.5773
13052SOL    HW241164   2.168   2.354   9.619  1.4073 -0.6919  0.2052
13053SOL     OW41165   5.939   7.413   0.140 -0.0440 -0.1869 -0.1266
13053SOL    HW141166   6.016   7.428   0.194  0.4767  0.0272 -0.9215
13053SOL    HW241167   5.899   7.499   0.132 -1.4621 -0.5775  1.8623
13054SOL     OW41168   2.885   8.995   9.889 -0.1057  0.1185  0.4470
13054SOL    HW141169   2.949   9.039   9.832  0.5097 -3.4592 -1.9666
13054SOL    HW241170   2.800   9.016   9.849  0.2120 -1.0808 -0.9518
13055SOL     OW41171   8.610   3.190   4.381  0.0161 -0.0129  0.0940
13055SOL    HW141172   8.634   3.152   4.466 -1.2030 -1.6525 -0.2508
13055SOL    HW241173   8.534   3.244   4.399  0.1637  0.1823  0.1424
13056SOL     OW41174   3.348   8.415   4.433  0.4057  0.2311 -0.4656
13056SOL    HW141175   3.412   8.460   4.377  0.9106  1.9952  1.4083
13056SOL    HW241176   3.265   8.460   4.416 -0.1494 -1.2712 -2.0067
13057SOL     OW41177   0.595   5.635  10.833 -0.1895  0.0826  0.3421
13057SOL    HW141178   0.566   5.662  10.919 -0.4123 -0.8396  0.5701
13057SOL    HW241179   0.516   5.632  10.780 -0.4615 -1.6946  0.7663
13058SOL     OW41180   4.727   8.779   7.288  0.3645  0.0319 -0.2460
13058SOL    HW141181   4.686   8.841   7.227  0.5345  0.8004  0.4171
13058SOL    HW241182   4.792   8.733   7.234 -0.8237 -0.6818 -1.1286
13059SOL     OW41183   4.961   9.258   6.125  0.2546  0.6511  0.8384
13059SOL    HW141184   4.888   9.317   6.145 -0.1076  0.7286 -0.6015
13059SOL    HW241185   4.968   9.259   6.030 -0.5802 -2.5840  0.6097
13060SOL     OW41186   0.062   5.293  10.033  0.0547  0.6817  0.5957
13060SOL    HW141187   0.059   5.361   9.966 -1.1486  0.5366  0.4878
13060SOL    HW241188   0.054   5.341  10.116  0.3374  0.7578  0.5812
13061SOL     OW41189   0.772   0.479   4.438 -0.6975 -0.8603 -0.2472
13061SOL    HW141190   0.681   0.502   4.458 -0.9385 -2.1198  0.1936
13061SOL    HW241191   0.802   0.432   4.515  0.4333 -0.2355 -0.2820
13062SOL     OW41192   2.209   2.400   0.205 -0.6463  0.3549 -0.9592
13062SOL    HW141193   2.183   2.338   0.137 -1.3251  0.2823 -0.6492
13062SOL    HW241194   2.167   2.366   0.284 -1.2676  1.3568 -0.8437
13063SOL     OW41195   1.413   7.559   4.490  0.0276 -0.1648  0.6079
13063SOL    HW141196   1.435   7.534   4.400 -1.5542 -0.6632  0.3393
13063SOL    HW241197   1.435   7.482   4.542  1.0127  0.1490  0.6813
13064SOL     OW41198   1.000   6.769   1.380 -0.5585 -0.6251 -0.1644
13064SOL    HW141199   1.017   6.824   1.303  0.3470 -1.6671 -0.7333
13064SOL    HW241200   0.980   6.831   1.450 -4.0979  0.3461 -1.7908
13065SOL     OW41201   6.260   7.604   2.503  0.4463 -0.2162  0.3855
13065SOL    HW141202   6.201   7.588   2.576  1.0258 -0.7456  0.7517
13065SOL    HW241203   6.229   7.545   2.434 -2.1829  2.6012 -1.0663
13066SOL     OW41204  11.094   9.358  10.471  0.0617  0.5776  0.1673
13066SOL    HW141205  11.003   9.327  10.468 -0.5096  2.0964  0.4033
13066SOL    HW241206  11.100   9.418  10.396  0.2412  1.9960  1.2689
13067SOL     OW41207   0.416  10.225   0.362 -0.0760 -0.8737  0.5965
13067SOL    HW141208   0.425  10.282   0.286  1.7267 -0.3053  1.1781
13067SOL    HW241209   0.327  10.242   0.394  0.1541  1.1365  0.3513
13068SOL     OW41210   4.727   1.540   8.342 -0.2207  0.6306  0.6012
13068SOL    HW141211   4.636   1.566   8.355 -0.0933  1.1915  0.3928
13068SOL    HW241212   4.722   1.475   8.271 -0.2873  2.0088 -0.7176
13069SOL     OW41213  10.726   4.111   4.332  0.1360 -0.1024 -0.3221
13069SOL    HW141214  10.635   4.135   4.345  0.9650  3.2650  0.2394
13069SOL    HW241215  10.766   4.120   4.419  1.0193 -1.6448 -0.5255
13070SOL     OW41216   3.545   2.029   4.677  0.0837  0.6693 -0.4545
13070SOL    HW141217   3.545   1.936   4.653  0.4086  0.3124  0.8603
13070SOL    HW241218   3.453   2.054   4.676 -0.0715  0.1251 -0.0749
13071SOL     OW41219   0.386   6.499   3.156 -0.5454  0.3511 -0.0571
13071SOL    HW141220   0.431   6.570   3.202 -0.5417 -0.6959  1.6408
13071SOL    HW241221   0.302   6.537   3.131 -0.0970  1.2924 -0.2046
13072SOL     OW41222   9.379   7.803   0.229 -0.0770 -0.2651  0.0851
13072SOL    HW141223   9.300   7.804   0.282  1.7923  0.0945  3.1421
13072SOL    HW241224   9.428   7.880   0.259  2.3121 -1.5969 -0.1837
13073SOL     OW41225   4.180   6.945   4.331  0.0888 -0.3466 -0.7288
13073SOL    HW141226   4.210   6.858   4.304  0.7023  0.2588 -2.0152
13073SOL    HW241227   4.137   6.929   4.416  0.8030 -1.7868 -0.6069
13074SOL     OW41228   6.919   0.679   0.387 -0.6797  0.7549 -0.4078
13074SOL    HW141229   6.888   0.698   0.475 -1.5170  0.8418 -0.7071
13074SOL    HW241230   6.880   0.747   0.333  1.2656  1.7826 -0.6103
13075SOL     OW41231   1.908   0.533   5.158  0.4200 -0.2364  0.4495
13075SOL    HW141232   1.888   0.440   5.147 -0.1035 -0.0807  0.0170
13075SOL    HW241233   1.984   0.549   5.103  0.2569 -0.3264  0.1938
13076SOL     OW41234   4.888   8.868   9.781  0.5167  0.5634 -0.3004
13076SOL    HW141235   4.946   8.925   9.731  0.4177  1.8183  0.9726
13076SOL    HW241236   4.802   8.909   9.773  0.4646  0.6619  0.7283
13077SOL     OW41237   2.388  10.192   3.011 -0.0350 -0.1861  0.8780
13077SOL    HW141238   2.433  10.164   3.091  0.9192 -0.9649  0.0867
13077SOL    HW241239   2.457  10.197   2.945 -1.1682 -1.9811 -0.5353
13078SOL     OW41240   3.276   2.864   9.439 -0.1249 -0.7162 -0.6981
13078SOL    HW141241   3.304   2.956   9.445  0.5915 -0.8026 -2.2855
13078SOL    HW241242   3.206   2.856   9.504  2.1822  0.0081  2.0895
13079SOL     OW41243   5.215   6.155  10.956 -0.6143  0.3630 -0.2673
13079SOL    HW141244   5.273   6.117  10.890  1.2890  2.7700 -0.1565
13079SOL    HW241245   5.242   6.115  11.038  1.0808  1.5176 -0.2054
13080SOL     OW41246   9.064   3.185   3.975  0.0479 -0.4737 -0.5628
13080SOL    HW141247   9.057   3.117   4.042 -0.2648 -2.8677 -2.8848
13080SOL    HW241248   8.974   3.211   3.957  0.2022  1.2854  0.9143
13081SOL     OW41249   3.835   9.102   1.161 -0.5782 -0.4171 -0.1819
13081SOL    HW141250   3.889   9.159   1.106 -1.7181 -1.4323 -2.5055
13081SOL    HW241251   3.776   9.161   1.207  1.0277  0.5412  0.7490
13082SOL     OW41252   4.252   2.120   4.092  0.1148 -0.4577 -0.1709
13082SOL    HW141253   4.202   2.116   4.173  1.7443 -1.2732  0.8503
13082SOL    HW241254   4.330   2.066   4.109  1.0772  0.3146 -1.8636
13083SOL     OW41255   0.922   6.291   7.293  0.8440  0.0908 -0.3712
13083SOL    HW141256   0.837   6.249   7.277  0.5577  0.3948  0.2956
13083SOL    HW241257   0.914   6.326   7.382  1.7214 -0.0021 -0.2512
13084SOL     OW41258   0.083   9.627   1.130  0.0827 -0.1565  0.0634
13084SOL    HW141259   0.058   9.658   1.218 -1.4444  3.3717 -1.4060
13084SOL    HW241260   0.001   9.597   1.091  0.5807 -0.8026 -0.5025
13085SOL     OW41261   1.892  11.099   6.259  0.4325 -0.1721 -0.1970
13085SOL    HW141262   1.811  11.055   6.284 -0.7139  1.7372 -0.4103
13085SOL    HW241263   1.911  11.068   6.171  1.0827 -2.1490  0.5757
13086SOL     OW41264   8.252   1.994   8.787 -0.5195 -0.2597  0.0071
13086SOL    HW141265   8.347   1.983   8.784 -0.5397 -2.0446  2.5064
13086SOL    HW241266   8.222   1.927   8.848 -2.9590  2.5747  2.2817
13087SOL     OW41267  10.527   0.176   8.449  0.3139  0.1281 -0.5057
13087SOL    HW141268  10.533   0.115   8.376  0.3027  0.3003 -0.6495
13087SOL    HW241269  10.525   0.120   8.527 -0.5397 -0.0934 -0.6733
13088SOL     OW41270   4.944   4.962   4.741 -0.8070 -0.5979 -0.8342
13088SOL    HW141271   4.993   4.934   4.664  0.0053  0.1502 -0.6055
13088SOL    HW241272   5.006   4.956   4.813 -1.2957 -0.4227 -0.3923
13089SOL     OW41273   1.808   0.267   0.518 -0.0729  0.1536 -0.6331
13089SOL    HW141274   1.775   0.233   0.601 -0.1475  1.2195 -0.2098
13089SOL    HW241275   1.856   0.194   0.479 -1.1024 -0.7452 -0.2477
13090SOL     OW41276  10.999   6.453   4.798 -0.4759 -0.2906 -0.3607
13090SOL    HW141277  11.076   6.491   4.757  0.8692  0.5383  2.6504
13090SOL    HW241278  10.931   6.520   4.790 -0.0848  0.0584 -0.7525
13091SOL     OW41279   0.305   3.689   6.580 -0.3363 -0.1751 -0.1093
13091SOL    HW141280   0.322   3.760   6.641 -0.1280 -0.1514 -0.1963
13091SOL    HW241281   0.221   3.653   6.608  0.5374 -1.2520  1.2327
13092SOL     OW41282   4.716   7.338   4.423  0.0513  0.2184 -1.4476
13092SOL    HW141283   4.809   7.315   4.410  0.2723  0.6249 -0.6456
13092SOL    HW241284   4.693   7.296   4.506  0.3456  2.4742 -0.1459
13093SOL     OW41285   6.100   4.215  10.539 -0.1381 -0.4575  0.0387
13093SOL    HW141286   6.171   4.151  10.531  0.1593 -0.1931  0.4844
13093SOL    HW241287   6.020   4.164  10.531  0.1008 -0.8541  0.1674
13094SOL     OW41288  11.209   5.604  11.059 -0.0434  0.5954 -0.3358
13094SOL    HW141289  11.282   5.542  11.059 -1.1765 -0.8306 -1.6545
13094SOL    HW241290  11.239   5.675  11.002  0.4421  0.1913 -0.5990
13095SOL     OW41291   3.608   0.232  10.312 -0.3891 -0.1345 -0.2362
13095SOL    HW141292   3.559   0.310  10.342  0.5866  1.0859 -1.6981
13095SOL    HW241293   3.700   0.258  10.317 -0.0425 -1.2063 -0.7581
13096SOL     OW41294   1.563   6.031   8.910  0.0490 -0.0164  0.0853
13096SOL    HW141295   1.590   5.990   8.828 -0.5767 -0.9867  0.3431
13096SOL    HW241296   1.616   6.111   8.916  0.3908 -0.1437 -1.0535
13097SOL     OW41297   6.899   0.146   8.574  0.1210  0.2152 -0.5121
13097SOL    HW141298   6.960   0.208   8.535 -0.2588  0.9373  0.0260
13097SOL    HW241299   6.815   0.193   8.579  0.4523  0.7093  2.4618
13098SOL     OW41300   2.305   4.847  11.133 -0.0319  0.0970 -0.5638
13098SOL    HW141301   2.339   4.935  11.153 -1.5273  0.3079  1.3448
13098SOL    HW241302   2.252   4.824  11.209  1.5952 -3.1674 -0.2516
13099SOL     OW41303   9.169   2.534   4.027 -1.1253 -0.2804 -0.3956
13099SOL    HW141304   9.093   2.559   3.976 -0.9232 -0.3822 -0.7463
13099SOL    HW241305   9.238   2.518   3.963 -0.0526  2.2438 -0.0045
13100SOL     OW41306   3.254   4.617   7.054 -0.1216 -0.3215 -0.0660
13100SOL    HW141307   3.165   4.625   7.020 -0.5220 -0.9033  0.8226
13100SOL    HW241308   3.286   4.707   7.057 -1.6973  0.2715  2.2325
13101SOL     OW41309   3.913   8.806   5.100 -0.1334 -0.2781  0.5246
13101SOL    HW141310   3.905   8.744   5.028  0.7164  0.1802  0.0194
13101SOL    HW241311   4.006   8.807   5.121  0.5125  3.1688 -1.6441
13102SOL     OW41312   7.537   0.774   1.566 -0.5742 -0.5972  0.7500
13102SOL    HW141313   7.482   0.814   1.633 -1.4770  0.4654 -0.5789
13102SOL    HW241314   7.533   0.835   1.492  1.1947 -1.2352  0.0666
13103SOL     OW41315   5.509   7.353   3.264 -0.1349  0.1920  0.2119
13103SOL    HW141316   5.424   7.380   3.298 -0.2798 -1.5318  1.3535
13103SOL    HW241317   5.573   7.399   3.318 -0.3664 -0.0551  0.7048
13104SOL     OW41318   2.259   4.255   3.971  0.2537  0.2184  0.4028
13104SOL    HW141319   2.286   4.176   3.924 -0.2979  0.5959 -0.5952
13104SOL    HW241320   2.170   4.236   4.001 -0.3797  0.8705 -0.9272
13105SOL     OW41321   0.352   1.042   3.438 -0.1756  0.0479  0.6327
13105SOL    HW141322   0.446   1.056   3.425 -0.8310  3.0343 -1.8947
13105SOL    HW241323   0.326   0.984   3.367 -0.5528  0.8056  0.1452
13106SOL     OW41324   1.851   7.901   8.033 -0.0749 -0.0890 -0.2079
13106SOL    HW141325   1.769   7.935   8.068 -0.5592 -1.4190 -0.0269
13106SOL    HW241326   1.846   7.807   8.045  1.1395 -0.2693 -0.9269
13107SOL     OW41327   8.395   1.008   4.686  0.2640  0.3604  0.1172
13107SOL    HW141328   8.477   1.052   4.710  0.8887 -0.1506 -1.0236
13107SOL    HW241329   8.336   1.080   4.663 -0.2034  0.8501  2.5383
13108SOL     OW41330   5.714   3.224   0.127 -0.4941  0.4221 -0.3175
13108SOL    HW141331   5.809   3.229   0.117 -0.3470 -1.1068  0.1911
13108SOL    HW241332   5.685   3.315   0.120  0.9772  0.8919 -0.6612
13109SOL     OW41333   7.782   5.660   1.645 -0.8680  0.6264  0.2126
13109SOL    HW141334   7.872   5.627   1.643 -1.3507 -0.7258 -0.6186
13109SOL    HW241335   7.729   5.583   1.664 -1.8657  1.3896  0.5980
13110SOL     OW41336   4.072   5.990   6.903  0.0059 -0.0693 -0.1195
13110SOL    HW141337   3.994   6.017   6.855  0.0128 -0.8870 -0.6049
13110SOL    HW241338   4.146   6.017   6.848  0.0588  0.3451  0.1500
13111SOL     OW41339   0.732   7.783   7.037 -0.4452 -0.9009  0.1409
13111SOL    HW141340   0.805   7.763   6.979 -0.9428 -1.2705 -0.3779
13111SOL    HW241341   0.659   7.803   6.978 -0.1299  2.1122  0.6039
13112SOL     OW41342   9.539  11.057   4.692  0.2978  0.5182  0.0532
13112SOL    HW141343   9.455  11.052   4.737 -0.7478 -0.5433 -1.8516
13112SOL    HW241344   9.598  11.003   4.744 -0.5181  0.3112  0.7832
13113SOL     OW41345   8.848   8.670   7.868  0.1290 -0.7648  0.3486
13113SOL    HW141346   8.913   8.657   7.936 -0.5003 -2.4000  0.6904
13113SOL    HW241347   8.768   8.693   7.915  0.5747  2.1827 -0.1096
13114SOL     OW41348   2.699   4.062   7.133 -0.2324 -0.0863 -0.1983
13114SOL    HW141349   2.691   4.047   7.039 -0.7343  1.1769 -0.3849
13114SOL    HW241350   2.792   4.053   7.151  0.1403  1.4130 -1.1744
13115SOL     OW41351   6.004   7.534   3.030 -0.2840 -0.1177  0.9894
13115SOL    HW141352   6.055   7.500   3.103  0.8981  1.0689  0.7644
13115SOL    HW241353   6.030   7.479   2.955 -0.4877 -0.4854  1.1884
13116SOL     OW41354   5.811   0.785  10.961 -0.7247  0.1409  0.0671
13116SOL    HW141355   5.884   0.847  10.953 -0.1882 -0.0502  2.4653
13116SOL    HW241356   5.765   0.814  11.040 -1.3599 -1.5988  0.3736
13117SOL     OW41357   1.687   8.336  10.388 -0.0268 -0.3262 -1.0895
13117SOL    HW141358   1.733   8.418  10.372 -0.5921 -0.1928 -2.0352
13117SOL    HW241359   1.595   8.361  10.395  0.0625 -0.4575  1.7345
13118SOL     OW41360   1.400   4.348   3.495 -0.7795  0.4153 -0.2891
13118SOL    HW141361   1.358   4.418   3.545 -3.1818  0.8770 -2.7055
13118SOL    HW241362   1.343   4.272   3.506 -2.1611  0.8900 -3.1654
13119SOL     OW41363   3.317   4.193   6.068  0.1239  0.1615 -0.2480
13119SOL    HW141364   3.237   4.194   6.122 -1.0399 -1.0804 -1.8340
13119SOL    HW241365   3.310   4.271   6.014 -0.7338 -0.6051 -1.2941
13120SOL     OW41366   5.392   3.589  10.244  0.0742  0.1163  0.0620
13120SOL    HW141367   5.357   3.537  10.317  2.5207  0.8981  1.9382
13120SOL    HW241368   5.457   3.533  10.203 -1.3656 -0.3548 -1.6693
13121SOL     OW41369   2.461   9.901   2.919  0.1930 -0.2927 -0.1501
13121SOL    HW141370   2.448   9.970   2.854  0.4708 -2.6730 -2.9624
13121SOL    HW241371   2.550   9.870   2.903  0.2656 -0.9565  1.4070
13122SOL     OW41372  10.086   9.833   0.471 -0.3040 -0.0596 -0.1845
13122SOL    HW141373  10.069   9.866   0.559 -1.3211 -1.7336  0.2749
13122SOL    HW241374  10.134   9.751   0.485  1.1110  0.5320 -1.2658
13123SOL     OW41375   5.533   6.853   6.132  0.5389  0.5545  0.3309
13123SOL    HW141376   5.481   6.847   6.053  1.3664  1.3955 -0.3030
13123SOL    HW241377   5.502   6.781   6.188 -0.4305  0.3015 -0.5190
13124SOL     OW41378   9.867   9.086   7.584 -0.6729  0.0994  0.0678
13124SOL    HW141379   9.942   9.075   7.526 -1.3700 -1.2778 -0.6186
13124SOL    HW241380   9.845   8.998   7.613 -2.7828  0.2899 -0.7543
13125SOL     OW41381   9.567   9.049   5.021 -0.2100  0.0708  0.4962
13125SOL    HW141382   9.625   8.999   5.079  1.4750  1.7835  0.3656
13125SOL    HW241383   9.494   9.076   5.078 -1.1215 -2.3656  0.5874
13126SOL     OW41384   0.150   8.722   9.704 -0.3578  0.3273 -0.1878
13126SOL    HW141385   0.141   8.816   9.715 -0.0826  0.2051  1.3653
13126SOL    HW241386   0.147   8.687   9.793 -4.0646 -1.4710 -0.7798
13127SOL     OW41387   8.700   7.144   2.943  0.4402  0.3982 -0.2389
13127SOL    HW141388   8.698   7.219   2.884  1.5996  0.2029 -0.5633
13127SOL    HW241389   8.793   7.133   2.963  0.0205  0.9182  2.2255
13128SOL     OW41390   2.638   7.265   8.178  0.1838  0.3686 -0.0701
13128SOL    HW141391   2.637   7.335   8.243 -2.0077  1.2253 -0.9192
13128SOL    HW241392   2.709   7.289   8.118 -0.2707  1.6797 -0.1196
13129SOL     OW41393   2.615   3.442   3.523  0.1335  0.8143  0.7557
13129SOL    HW141394   2.622   3.355   3.484  1.9055  0.0397  2.5932
13129SOL    HW241395   2.528   3.444   3.563  1.3497 -1.6859  3.9408
13130SOL     OW41396   7.226  11.121   2.415 -0.6503 -0.1185 -0.8118
13130SOL    HW141397   7.212  11.089   2.504 -1.2417  0.7884 -0.5701
13130SOL    HW241398   7.148  11.091   2.367 -0.3068 -0.6518 -1.0456
13131SOL     OW41399   7.883   6.130   5.686  0.2706  0.5656  0.6070
13131SOL    HW141400   7.928   6.124   5.770  0.3047  1.1094  0.6255
13131SOL    HW241401   7.888   6.041   5.650  0.9511  0.5151  0.8159
13132SOL     OW41402   9.985   6.434   8.603  0.3977  0.1993  0.6849
13132SOL    HW141403   9.938   6.360   8.640  1.4551 -0.5835  0.5106
13132SOL    HW241404   9.925   6.508   8.612 -0.0812 -0.3510  2.2489
13133SOL     OW41405   8.863   4.252   3.386  0.2553  0.5637  0.5153
13133SOL    HW141406   8.857   4.301   3.468 -1.1437 -0.9917  1.3834
13133SOL    HW241407   8.775   4.218   3.371  1.3528 -2.5988  0.5630
13134SOL     OW41408   4.788   6.076   8.792  0.1944 -0.1913 -0.3257
13134SOL    HW141409   4.785   5.983   8.770  0.9486 -0.2259 -0.2822
13134SOL    HW241410   4.702   6.094   8.830  0.2238 -0.9765  0.1215
13135SOL     OW41411   9.076   8.813   6.815  0.2167  0.1365 -0.2985
13135SOL    HW141412   9.123   8.852   6.889 -0.5911  0.3539  0.1176
13135SOL    HW241413   9.068   8.883   6.751 -2.1966  1.0869  0.8956
13136SOL     OW41414   8.610   1.550   7.309  0.1008 -0.3016  0.3755
13136SOL    HW141415   8.636   1.459   7.294 -0.3237 -0.2314 -0.9945
13136SOL    HW241416   8.658   1.599   7.243 -1.2652  0.1860 -0.2962
13137SOL     OW41417   4.839   7.450  10.149  0.2469 -0.4760  0.2958
13137SOL    HW141418   4.782   7.488  10.082  0.1106 -2.1664 -0.5959
13137SOL    HW241419   4.906   7.402  10.100 -0.2976 -2.3929  1.3393
13138SOL     OW41420   2.298   1.949   8.347 -0.2441 -0.9664  0.5373
13138SOL    HW141421   2.389   1.941   8.318 -0.1622  1.4011 -0.0955
13138SOL    HW241422   2.251   1.980   8.269 -0.8862  1.1785  1.6860
13139SOL     OW41423   2.788   1.270   9.266 -0.4240  0.4271 -0.2803
13139SOL    HW141424   2.878   1.240   9.269 -1.0408 -1.4704  0.6020
13139SOL    HW241425   2.771   1.287   9.173  1.5410  3.3043 -0.2274
13140SOL     OW41426   9.449   4.994   0.530 -0.0686  0.2782  0.3984
13140SOL    HW141427   9.482   5.071   0.483 -0.6879  0.6824  0.6216
13140SOL    HW241428   9.360   5.017   0.554 -0.1922 -0.4403  0.6382
13141SOL     OW41429   9.552   4.764   2.422  0.0215  0.0803  0.5705
13141SOL    HW141430   9.594   4.813   2.351  1.6668 -2.0642 -0.0777
13141SOL    HW241431   9.528   4.681   2.381 -1.3301 -0.2370  1.9449
13142SOL     OW41432   8.513   5.765   0.852  0.1057  1.0084  0.3700
13142SOL    HW141433   8.440   5.740   0.909  0.2428 -1.6030 -0.4893
13142SOL    HW241434   8.566   5.686   0.844  1.3922  1.9757 -1.4874
13143SOL     OW41435   8.021   8.410   7.933 -0.0573 -0.3679  0.2012
13143SOL    HW141436   8.002   8.316   7.922 -2.5899  0.1278 -0.5471
13143SOL    HW241437   7.934   8.450   7.943  1.0411  1.7529  2.0124
13144SOL     OW41438   6.358   2.709   8.861  0.0037  0.8271 -0.1068
13144SOL    HW141439   6.307   2.660   8.926  2.4055  0.6975  1.8406
13144SOL    HW241440   6.383   2.790   8.906 -0.7825  2.2023 -2.0019
13145SOL     OW41441  10.513   5.382   1.720  0.0129  0.3087 -0.1716
13145SOL    HW141442  10.530   5.413   1.631 -0.3277 -1.1558 -0.7741
13145SOL    HW241443  10.600   5.373   1.759  0.3117 -0.9664 -1.0569
13146SOL     OW41444  11.080   4.445   9.873 -0.6848  0.8997  0.1786
13146SOL    HW141445  11.111   4.533   9.895 -2.2807  1.4228  0.4581
13146SOL    HW241446  11.068   4.446   9.778  0.4777  0.5542  0.0041
13147SOL     OW41447   0.629   6.889   8.075 -0.3871  0.4761  0.6269
13147SOL    HW141448   0.588   6.917   8.157 -0.5234  0.5252  0.5421
13147SOL    HW241449   0.556   6.875   8.015 -0.3570 -0.6051  0.8366
13148SOL     OW41450   8.531   8.247   9.015 -0.5545  0.4265 -0.0533
13148SOL    HW141451   8.452   8.301   9.006  0.1369  1.4355 -0.2229
13148SOL    HW241452   8.551   8.249   9.109  0.7344  2.3516 -0.3322
13149SOL     OW41453   0.272   7.327  10.511  0.0907  0.0059  0.0194
13149SOL    HW141454   0.246   7.301  10.599  0.9633  1.0050  0.5944
13149SOL    HW241455   0.207   7.285  10.454 -2.1525  1.5359  1.2828
13150SOL     OW41456   7.158   5.043   5.383 -0.2903 -0.3365  0.5477
13150SOL    HW141457   7.204   4.962   5.406  3.5170  1.0655 -1.2981
13150SOL    HW241458   7.131   5.031   5.292 -0.0943  0.2779  0.4027
13151SOL     OW41459   8.911   6.364   5.317 -0.0793  0.0698  0.2876
13151SOL    HW141460   8.941   6.285   5.273  1.0259  0.3184  0.5352
13151SOL    HW241461   8.889   6.424   5.246  0.9220  0.1906  0.0580
13152SOL     OW41462   6.454   9.630   6.574  0.0590 -0.3402 -0.3057
13152SOL    HW141463   6.475   9.642   6.667  1.0305 -1.1360 -0.4014
13152SOL    HW241464   6.479   9.712   6.533 -0.1030 -0.0871  0.0906
13153SOL     OW41465   7.042   9.210   1.693  0.3363  0.6934 -0.0602
13153SOL    HW141466   7.063   9.249   1.777  2.0697 -0.7233  0.2346
13153SOL    HW241467   6.971   9.148   1.712 -0.6057  1.7621 -0.0369
13154SOL     OW41468   6.255   3.965  10.800 -0.1886 -0.3489 -0.2579
13154SOL    HW141469   6.214   3.879  10.786 -1.1229 -0.0008  0.2574
13154SOL    HW241470   6.183   4.021  10.829  0.4412  0.5788 -0.4571
13155SOL     OW41471   0.649   8.211   9.990  0.2042  0.5368  0.0397
13155SOL    HW141472   0.695   8.128   9.984  0.5267  0.7945 -1.4740
13155SOL    HW241473   0.715   8.273  10.021  0.0008  0.2777  1.0271
13156SOL     OW41474   4.780   0.066   5.690  0.0206  0.4464  0.0765
13156SOL    HW141475   4.731   0.093   5.613  1.4285 -0.9703 -1.3986
13156SOL    HW241476   4.725  -0.002   5.731 -0.6280  1.0502  0.2326
13157SOL     OW41477  10.259   2.284   2.921  0.3226  0.1766  0.8262
13157SOL    HW141478  10.193   2.222   2.951 -1.0454  0.9257 -0.4423
13157SOL    HW241479  10.208   2.356   2.884  1.8565  0.8267 -0.1217
13158SOL     OW41480   2.851   3.161   4.493 -0.8450 -0.6092  0.0910
13158SOL    HW141481   2.928   3.160   4.436 -1.5618  0.4938 -0.9582
13158SOL    HW241482   2.871   3.226   4.560 -1.2262  0.3789 -0.7374
13159SOL     OW41483   1.369  10.084   0.589  0.3985  0.7327 -0.2289
13159SOL    HW141484   1.449  10.038   0.616 -0.7075 -1.7701 -0.8647
13159SOL    HW241485   1.324  10.104   0.671  0.4827 -0.1687  0.0474
13160SOL     OW41486   4.404   6.166   4.087 -0.2556  0.1572  0.0980
13160SOL    HW141487   4.448   6.135   4.166 -2.0389 -3.6895 -0.1719
13160SOL    HW241488   4.311   6.163   4.108 -0.6890  1.6688 -1.3609
13161SOL     OW41489   5.447  10.282   3.791 -0.0058 -0.0869  0.2517
13161SOL    HW141490   5.530  10.275   3.743  0.5166  0.0188  1.1273
13161SOL    HW241491   5.393  10.340   3.737  0.6613  0.2230 -0.0938
13162SOL     OW41492   9.209   7.100   9.518 -0.3449  0.9640 -0.1419
13162SOL    HW141493   9.235   7.113   9.427 -0.5537  3.7364  0.1108
13162SOL    HW241494   9.292   7.092   9.565 -0.2322 -0.1636 -0.4851
13163SOL     OW41495   1.067   2.509   3.204  0.5548 -0.0479  0.4059
13163SOL    HW141496   1.118   2.429   3.210  1.9061  0.6638 -0.9981
13163SOL    HW241497   1.086   2.556   3.286  0.1371 -0.9162  1.0117
13164SOL     OW41498  10.652   2.144   5.762  0.7870  0.4093  0.3532
13164SOL    HW141499  10.601   2.064   5.748 -1.0721  1.6981 -0.7562
13164SOL    HW241500  10.716   2.144   5.691  0.7548 -0.0769  0.3222
13165SOL     OW41501   7.141   1.202  10.023  0.3854  0.3005 -0.0744
13165SOL    HW141502   7.164   1.258  10.097  0.4606  0.5538 -0.2889
13165SOL    HW241503   7.099   1.125  10.063 -2.4432  1.8122  0.0974
13166SOL     OW41504   3.902   4.489   9.537  0.1465  0.6667 -0.0025
13166SOL    HW141505   3.815   4.513   9.569  0.4028  1.1721  0.3308
13166SOL    HW241506   3.961   4.554   9.575  0.5213  1.0441 -1.1642
13167SOL     OW41507   9.653   8.483  11.198 -0.0234  0.2869  0.3006
13167SOL    HW141508   9.668   8.415  11.264 -0.9172  0.9174  1.1958
13167SOL    HW241509   9.564   8.467  11.167 -0.3411  1.1692  0.7026
13168SOL     OW41510   6.220   9.534   3.456 -0.0828 -0.5399 -0.5519
13168SOL    HW141511   6.266   9.598   3.511  0.4805 -1.2387 -0.1894
13168SOL    HW241512   6.175   9.587   3.391  0.5941  0.2189 -0.4255
13169SOL     OW41513   9.600  11.039   8.103 -0.4069  0.4268 -0.5432
13169SOL    HW141514   9.622  11.080   8.020 -2.2899 -0.3956 -1.5314
13169SOL    HW241515   9.580  10.948   8.080 -0.4999  0.0575  0.8870
13170SOL     OW41516  10.145   5.275   2.055  0.7195 -0.5166  0.0725
13170SOL    HW141517  10.204   5.229   1.996  0.2404 -0.5326 -0.4017
13170SOL    HW241518  10.201   5.338   2.100  0.6637  1.5759 -2.5132
13171SOL     OW41519   2.485   4.566   1.528 -0.2687  0.2871  0.1260
13171SOL    HW141520   2.493   4.549   1.434 -1.4025 -0.2872  0.1097
13171SOL    HW241521   2.434   4.491   1.561  1.5690 -0.4296  1.5057
13172SOL     OW41522   8.172   6.057   1.246 -0.2433 -0.2214  1.1209
13172SOL    HW141523   8.100   6.076   1.185  1.0239  1.3668  0.0097
13172SOL    HW241524   8.161   6.121   1.316 -0.2609 -0.3789  1.2618
13173SOL     OW41525   1.078   6.353   2.033  0.3698  0.2419  0.2786
13173SOL    HW141526   1.127   6.387   2.108  1.9064 -1.0093 -0.1249
13173SOL    HW241527   1.102   6.261   2.027  0.7834  0.4364 -2.1265
13174SOL     OW41528   5.608   3.287   6.366  0.1712  0.1943  0.1320
13174SOL    HW141529   5.629   3.195   6.352  0.0906  0.3287 -0.9962
13174SOL    HW241530   5.529   3.286   6.420  0.8194 -0.3674  1.0885
13175SOL     OW41531   8.231   1.634   1.671  0.5337 -0.1537 -0.3818
13175SOL    HW141532   8.164   1.701   1.655 -0.6496 -1.2595 -0.1956
13175SOL    HW241533   8.238   1.588   1.587 -0.0521 -1.0043  0.0263
13176SOL     OW41534   6.237   1.644   0.697  0.2177  0.0456 -0.0908
13176SOL    HW141535   6.310   1.585   0.679  1.6465  1.6112  0.3589
13176SOL    HW241536   6.238   1.706   0.624 -1.7151 -0.8256 -0.9409
13177SOL     OW41537   6.873   1.257   6.581  1.2637 -0.1483  0.3438
13177SOL    HW141538   6.894   1.207   6.659  0.8161 -0.6239  0.1628
13177SOL    HW241539   6.902   1.346   6.601 -0.3915  0.1353  1.7384
13178SOL     OW41540   2.051   8.307   7.775 -0.6555  0.2633  0.3256
13178SOL    HW141541   1.986   8.240   7.798 -1.5693 -0.1492 -2.9825
13178SOL    HW241542   2.009   8.360   7.707  1.8647  0.9977 -0.8003
13179SOL     OW41543   1.208   7.966   2.784 -0.2087  0.0060 -0.0343
13179SOL    HW141544   1.189   7.939   2.695  4.2608  0.0069 -1.2169
13179SOL    HW241545   1.205   7.885   2.835 -1.3868 -0.2125 -0.4192
13180SOL     OW41546   4.172  10.356   0.029  0.8219 -0.3161 -0.4821
13180SOL    HW141547   4.080  10.336   0.012  0.6347  1.1018 -1.2036
13180SOL    HW241548   4.171  10.413   0.106  1.1918 -1.1037  0.1302
13181SOL     OW41549   3.126   4.681   3.319  0.0780 -0.4710  0.0507
13181SOL    HW141550   3.046   4.641   3.284 -1.3121  0.8026  1.6291
13181SOL    HW241551   3.188   4.675   3.247 -1.7663 -0.4999 -1.6365
13182SOL     OW41552   8.873   8.581  11.073 -0.6666  0.2482  0.2439
13182SOL    HW141553   8.952   8.608  11.026 -0.5015  1.7705  1.3162
13182SOL    HW241554   8.868   8.487  11.058  0.5976  0.3214 -0.9564
13183SOL     OW41555  10.690   1.299   6.983 -0.0845 -0.0642 -0.0516
13183SOL    HW141556  10.642   1.256   7.054 -2.1423  0.4232 -1.0766
13183SOL    HW241557  10.691   1.392   7.009  2.2588 -0.3066  0.9908
13184SOL     OW41558   0.699   5.917   3.501 -0.7737 -0.4285 -0.1473
13184SOL    HW141559   0.753   5.981   3.456 -0.2113 -0.4396  0.4945
13184SOL    HW241560   0.635   5.969   3.550 -3.5505 -0.4025 -3.3759
13185SOL     OW41561   3.133   0.459   1.781  0.1804 -0.1772 -0.5123
13185SOL    HW141562   3.136   0.374   1.736 -0.7148 -0.5470  0.0910
13185SOL    HW241563   3.047   0.494   1.757  0.4870  0.5051 -0.6362
13186SOL     OW41564   5.857   1.438   9.449  0.1014 -0.3283  0.4494
13186SOL    HW141565   5.935   1.483   9.482  0.2145  0.8665 -1.3162
13186SOL    HW241566   5.795   1.508   9.429 -0.8059 -1.1577  0.2556
13187SOL     OW41567   3.425   8.110   7.250  0.1940 -0.9025  0.3600
13187SOL    HW141568   3.512   8.069   7.250  0.7354  0.2058 -0.4272
13187SOL    HW241569   3.409   8.132   7.159  0.0891  0.9522  0.7862
13188SOL     OW41570   2.950   4.951   1.733 -0.0970  0.4715 -0.6665
13188SOL    HW141571   2.895   4.984   1.804 -1.0448  0.0150 -1.1742
13188SOL    HW241572   3.039   4.951   1.769 -0.5458  0.3919  0.4551
13189SOL     OW41573   7.469   8.804   4.263  0.2946  0.0541  0.2344
13189SOL    HW141574   7.453   8.717   4.299  0.0577  0.7961  1.9767
13189SOL    HW241575   7.383   8.835   4.235 -0.2931  1.1340  2.9571
13190SOL     OW41576   3.256   1.994   5.366  0.2993 -0.2003  0.5452
13190SOL    HW141577   3.282   2.005   5.457 -0.0769 -0.4966  0.6885
13190SOL    HW241578   3.166   1.962   5.369  0.3026 -0.2732  0.0742
13191SOL     OW41579   3.144   2.379   3.031 -0.7667 -0.2128 -0.1678
13191SOL    HW141580   3.118   2.403   2.942 -4.2660 -0.8916  0.5286
13191SOL    HW241581   3.197   2.453   3.060 -1.7834  1.3037 -1.9275
13192SOL     OW41582   0.996   6.479   3.057 -0.4045 -0.0594  0.4153
13192SOL    HW141583   0.986   6.572   3.038 -1.5981 -0.4014 -0.7846
13192SOL    HW241584   0.944   6.435   2.990 -0.8033 -1.5532  1.6446
13193SOL     OW41585   6.229   2.786   5.717  0.1019 -0.2944 -0.1735
13193SOL    HW141586   6.173   2.823   5.786 -0.2443 -0.7100 -0.2222
13193SOL    HW241587   6.171   2.726   5.670 -0.2499  1.4608 -2.1039
13194SOL     OW41588   6.547   3.811   9.677  0.5364 -0.4395  0.3142
13194SOL    HW141589   6.634   3.850   9.665  0.3887 -0.2132 -0.0250
13194SOL    HW241590   6.486   3.882   9.660  0.2971  0.0781  2.9835
13195SOL     OW41591   6.464  11.134  10.581 -0.2994 -0.0999 -0.7004
13195SOL    HW141592   6.496  11.218  10.613 -2.2023  0.3101  0.2051
13195SOL    HW241593   6.518  11.116  10.504  0.5854  1.6062 -0.5196
13196SOL     OW41594   0.427   6.497   5.937 -0.3376  0.8657  0.3063
13196SOL    HW141595   0.433   6.496   5.841 -2.7594 -0.2271  0.1076
13196SOL    HW241596   0.336   6.521   5.955 -0.1486  0.1894  2.3276
13197SOL     OW41597   4.271   8.967   3.411  0.1371  0.0690  0.4326
13197SOL    HW141598   4.203   8.938   3.472 -0.5053  0.4444 -0.0904
13197SOL    HW241599   4.240   8.939   3.325  0.0851  1.2326  0.0579
13198SOL     OW41600   9.840   9.002   4.491  0.4665 -0.1057 -0.0022
13198SOL    HW141601   9.877   9.031   4.407  1.2677  0.0596  0.3993
13198SOL    HW241602   9.807   9.083   4.530 -0.9622 -0.3488 -0.6561
13199SOL     OW41603   6.103   0.802   2.841 -0.0047 -0.4648  0.0610
13199SOL    HW141604   6.108   0.895   2.818 -1.0779 -0.5082 -0.4111
13199SOL    HW241605   6.168   0.791   2.910  0.8785  0.4117 -0.5987
13200SOL     OW41606   7.118  10.726   7.589 -0.7707  0.0968 -1.0510
13200SOL    HW141607   7.037  10.727   7.537 -1.1451 -1.9200 -0.5677
13200SOL    HW241608   7.092  10.694   7.675  0.1944  1.5411 -0.1674
13201SOL     OW41609   5.883  10.892   5.743 -0.0084 -0.6101  0.3154
13201SOL    HW141610   5.831  10.893   5.823  0.1133 -1.0817  0.4078
13201SOL    HW241611   5.873  10.803   5.710  1.9099 -1.1947  1.1285
13202SOL     OW41612   7.981   5.391   8.655 -0.8241 -0.2235 -0.3212
13202SOL    HW141613   7.968   5.449   8.730  1.0977  0.6257 -0.5928
13202SOL    HW241614   7.960   5.444   8.578  0.0410 -0.1631 -0.5230
13203SOL     OW41615   9.887   9.848   0.299 -0.1127  0.0359 -0.5363
13203SOL    HW141616   9.947   9.810   0.363 -2.0400 -0.7725  0.8582
13203SOL    HW241617   9.921   9.937   0.285  1.7178 -0.5789 -0.2559
13204SOL     OW41618   9.213   5.051   6.362  0.0185 -0.3138  0.5730
13204SOL    HW141619   9.154   5.102   6.418  0.4468  0.7105  0.1129
13204SOL    HW241620   9.160   5.027   6.286  0.1370  0.4595  0.2400
13205SOL     OW41621  10.845   7.519   3.468  0.1095 -0.1109 -0.5307
13205SOL    HW141622  10.924   7.467   3.482 -0.9822 -2.8613 -3.3165
13205SOL    HW241623  10.875   7.595   3.417  1.0506 -0.9317 -1.2481
13206SOL     OW41624   5.242   1.893   9.046 -0.7513  0.2851 -0.0843
13206SOL    HW141625   5.257   1.827   8.980  1.5346  1.1177 -0.4736
13206SOL    HW241626   5.183   1.851   9.109 -0.2475 -1.7151 -0.8741
13207SOL     OW41627   2.006   4.353   8.473 -0.0324  0.0622 -0.1747
13207SOL    HW141628   1.972   4.408   8.402 -1.6485 -1.7189 -0.8584
13207SOL    HW241629   2.021   4.415   8.545  0.8999  1.7913 -1.7632
13208SOL     OW41630   8.264   9.619   4.141 -0.0322 -0.2353  0.0267
13208SOL    HW141631   8.338   9.560   4.126 -1.8910 -3.0527  1.1766
13208SOL    HW241632   8.236   9.644   4.053  2.2805  0.9994 -0.4252
13209SOL     OW41633   1.182   5.004   4.361 -0.2366  0.3427  0.5444
13209SOL    HW141634   1.230   5.011   4.444 -1.4977  0.0586  1.3334
13209SOL    HW241635   1.235   4.945   4.308  0.5157  0.3871  1.2244
13210SOL     OW41636   2.296   0.811   1.653  0.5640 -0.6521 -0.3472
13210SOL    HW141637   2.313   0.726   1.613  1.7353 -0.8715  0.5531
13210SOL    HW241638   2.325   0.875   1.588 -1.0358 -0.9062 -1.3392
13211SOL     OW41639   1.200   1.764   3.161 -0.4517  0.5190  0.0501
13211SOL    HW141640   1.287   1.760   3.200 -0.5062 -0.9420  0.1080
13211SOL    HW241641   1.158   1.838   3.203  0.4656  0.7040  0.6779
13212SOL     OW41642   5.927   3.090   3.978 -0.9031  0.6570 -0.5252
13212SOL    HW141643   5.972   3.173   3.963  1.0378 -0.4873 -1.5304
13212SOL    HW241644   5.871   3.078   3.902 -1.4732  1.2139 -0.1945
13213SOL     OW41645   3.990   1.504   6.480  0.2698  0.1309  0.5355
13213SOL    HW141646   4.001   1.496   6.385 -1.0158 -3.7415  0.4983
13213SOL    HW241647   4.064   1.456   6.517 -0.2128  0.0396  1.4068
13214SOL     OW41648   1.482   7.749   3.872  0.9451 -0.3025 -0.1443
13214SOL    HW141649   1.400   7.704   3.852 -0.8701  3.2235 -1.4190
13214SOL    HW241650   1.510   7.712   3.956 -2.7618 -0.6505  1.0848
13215SOL     OW41651   9.404   4.164   9.024 -0.3728  0.5023  0.2111
13215SOL    HW141652   9.361   4.203   9.101 -0.2760 -1.4035  1.2895
13215SOL    HW241653   9.444   4.238   8.979  0.4396  1.5907  2.5656
13216SOL     OW41654   7.250   8.903   5.061  0.8020  0.2250 -0.7092
13216SOL    HW141655   7.317   8.907   5.129  0.5675 -0.7968 -0.3894
13216SOL    HW241656   7.299   8.887   4.980  0.9160 -1.5834 -0.3301
13217SOL     OW41657   6.052   9.206   3.355  0.0590  0.3378 -0.3083
13217SOL    HW141658   6.016   9.265   3.289 -0.7132  0.4388  0.1938
13217SOL    HW241659   6.137   9.245   3.377  0.7567 -0.1904 -1.8825
13218SOL     OW41660   7.181   7.470   0.341  0.0511 -0.2172 -0.4795
13218SOL    HW141661   7.230   7.422   0.407  0.2221  0.3828 -0.1660
13218SOL    HW241662   7.103   7.502   0.387 -1.6571 -2.7119 -1.3879
13219SOL     OW41663   4.076   3.311  10.169  0.3777  0.2754 -0.0994
13219SOL    HW141664   4.141   3.329  10.236  0.0783 -0.4306  0.4057
13219SOL    HW241665   4.032   3.231  10.200 -0.0492  0.1782 -0.9246
13220SOL     OW41666   6.039   1.736   0.073  0.4413  0.1984  0.8553
13220SOL    HW141667   6.121   1.706   0.112  1.0929 -0.9763 -1.2451
13220SOL    HW241668   6.056   1.828   0.050  1.7915 -0.4495 -0.9574
13221SOL     OW41669   3.779   6.377   7.638 -0.8954  0.2527  0.8061
13221SOL    HW141670   3.728   6.334   7.706 -0.7014 -0.9255  0.2199
13221SOL    HW241671   3.864   6.395   7.679 -0.4693 -1.2517  0.6369
13222SOL     OW41672   2.600   0.730   6.208 -0.2621 -0.4380  0.6867
13222SOL    HW141673   2.695   0.743   6.205 -0.0562 -1.7140  1.3980
13222SOL    HW241674   2.565   0.808   6.164  1.1437 -0.4538 -0.5478
13223SOL     OW41675   8.297   3.738   7.506  0.0554 -0.2828  0.5976
13223SOL    HW141676   8.279   3.722   7.598 -1.9103 -0.5281  0.2211
13223SOL    HW241677   8.271   3.830   7.492 -0.6418 -0.5391  0.1059
13224SOL     OW41678   1.905   6.893   2.550 -0.0829  0.2843  0.1160
13224SOL    HW141679   1.843   6.926   2.485 -0.5329 -0.2709  0.2502
13224SOL    HW241680   1.851   6.870   2.625  0.1774 -0.9544 -0.0549
13225SOL     OW41681   1.288   5.972  10.795  0.5166  0.0967  0.2678
13225SOL    HW141682   1.204   5.938  10.763 -0.2494 -0.1318  2.4027
13225SOL    HW241683   1.271   6.065  10.811  1.2517  0.4879 -1.0857
13226SOL     OW41684   8.243   4.912   0.591 -0.3452 -0.5021 -0.0979
13226SOL    HW141685   8.165   4.966   0.597 -0.2523  0.0443 -2.6384
13226SOL    HW241686   8.220   4.830   0.635 -1.7294  0.2764  0.6672
13227SOL     OW41687   0.609   9.957   0.263  0.1681 -0.5129  0.0826
13227SOL    HW141688   0.601   9.996   0.350  0.8418 -1.2092  0.4735
13227SOL    HW241689   0.559  10.015   0.206 -0.8145 -0.3828  1.0355
13228SOL     OW41690  10.872   4.819   4.140 -0.0780 -0.2478  0.1646
13228SOL    HW141691  10.922   4.879   4.085  0.9083 -1.9504 -0.8616
13228SOL    HW241692  10.808   4.876   4.184 -1.6455  1.1397 -3.4687
13229SOL     OW41693   1.429   5.198   6.122 -0.3721  0.1361  0.0512
13229SOL    HW141694   1.489   5.144   6.071 -0.0657  0.9733 -0.4912
13229SOL    HW241695   1.456   5.288   6.104 -1.0714  0.4888  0.6949
13230SOL     OW41696   4.077  11.007   6.262 -0.4133  0.5253 -0.1170
13230SOL    HW141697   3.992  10.970   6.241  0.4979 -1.0495 -1.2670
13230SOL    HW241698   4.078  11.013   6.358 -1.3609 -0.5941 -0.0211
13231SOL     OW41699   5.495   0.380   1.785  0.3791 -0.6774 -0.3958
13231SOL    HW141700   5.572   0.434   1.767 -0.5873  0.3344 -1.7511
13231SOL    HW241701   5.451   0.371   1.700 -0.9713 -1.2647  0.3211
13232SOL     OW41702  10.225   5.499   6.873 -0.5677 -0.5595  0.5528
13232SOL    HW141703  10.158   5.479   6.939 -1.0476 -0.7673  0.0142
13232SOL    HW241704  10.176   5.507   6.791 -0.3447  2.2793  0.6047
13233SOL     OW41705   8.748   5.533  10.907  0.3154  0.6673  0.0257
13233SOL    HW141706   8.777   5.571  10.990  1.9359  1.1956 -0.7664
13233SOL    HW241707   8.826   5.527  10.853  0.3641 -4.2417  0.1965
13234SOL     OW41708   8.844   4.392   6.564  0.4946  0.1458  0.0113
13234SOL    HW141709   8.773   4.333   6.540  1.1610 -0.1706 -1.2693
13234SOL    HW241710   8.857   4.448   6.488 -0.3885  2.2724  1.3540
13235SOL     OW41711   6.068   3.937   3.668 -0.1200 -0.4814  0.5519
13235SOL    HW141712   5.975   3.952   3.685  0.1549  2.6289 -0.1540
13235SOL    HW241713   6.111   3.956   3.752 -0.0145 -1.0499  0.6350
13236SOL     OW41714   1.090   5.877   3.493  0.4712  0.5337  0.0933
13236SOL    HW141715   1.149   5.947   3.466  0.6445  0.5737  0.5687
13236SOL    HW241716   1.008   5.896   3.446  1.1942 -0.2382 -1.5647
13237SOL     OW41717   2.810   4.300   5.377  0.5521 -0.0809  0.0384
13237SOL    HW141718   2.747   4.367   5.351 -0.1558 -0.2340  1.2679
13237SOL    HW241719   2.834   4.256   5.295 -1.6621 -0.6383 -0.3786
13238SOL     OW41720   5.223   8.317   9.804 -0.2392  0.1854  0.4972
13238SOL    HW141721   5.243   8.393   9.750  0.0456 -0.7148 -0.7016
13238SOL    HW241722   5.150   8.274   9.761  0.3513 -0.8564  0.4967
13239SOL     OW41723   6.334   8.280   3.604 -0.0377 -0.0895 -0.2900
13239SOL    HW141724   6.315   8.305   3.694 -1.1124 -0.0272 -0.5282
13239SOL    HW241725   6.423   8.313   3.588 -0.7695  2.1477 -0.0630
13240SOL     OW41726   6.359   3.718   9.244 -0.2129 -0.1705  0.2284
13240SOL    HW141727   6.371   3.688   9.334 -0.2925  1.1688  0.7005
13240SOL    HW241728   6.265   3.729   9.234 -0.0953  1.4637  0.6107
13241SOL     OW41729   4.496   7.377   9.854  0.1597  0.3886  0.1011
13241SOL    HW141730   4.499   7.457   9.802  1.1828  0.6917  0.5914
13241SOL    HW241731   4.585   7.367   9.888  0.1391 -1.1240 -0.1951
13242SOL     OW41732   5.091   1.080   7.959 -0.3707 -0.2473 -0.0342
13242SOL    HW141733   5.097   1.006   8.020  0.8111 -0.0134  0.1664
13242SOL    HW241734   5.182   1.099   7.936 -0.6568  1.1664 -0.0621
13243SOL     OW41735   7.717   4.459   7.784  0.5603 -0.9083  1.2109
13243SOL    HW141736   7.801   4.487   7.748  0.4196 -0.5352  1.1696
13243SOL    HW241737   7.670   4.423   7.709  0.0680  0.3287  0.8901
13244SOL     OW41738   4.954   7.304   9.292  0.1872 -0.1458  0.8527
13244SOL    HW141739   4.911   7.237   9.345  0.3141 -1.4354 -0.6250
13244SOL    HW241740   4.895   7.321   9.219  0.6683  0.5296  0.6002
13245SOL     OW41741   2.297  10.517   5.677 -0.7270  0.1275 -0.1010
13245SOL    HW141742   2.251  10.506   5.760 -0.5906  1.1993  0.1315
13245SOL    HW241743   2.315  10.611   5.672 -0.4741  0.0306 -1.2059
13246SOL     OW41744   3.893   5.526   3.159  0.1237  0.3102 -0.0857
13246SOL    HW141745   3.942   5.586   3.103  3.4647 -0.9556  1.2053
13246SOL    HW241746   3.945   5.445   3.158 -2.6804 -1.6412  0.4558
13247SOL     OW41747   8.942   4.037   1.104  0.4244  0.2700 -0.3485
13247SOL    HW141748   8.959   4.054   1.011 -0.9882 -0.5479 -0.7851
13247SOL    HW241749   8.952   3.943   1.113 -0.5512  0.2044  0.0768
13248SOL     OW41750  10.000   6.227   2.806 -0.9002  0.3605 -0.2134
13248SOL    HW141751  10.046   6.310   2.812  1.9673 -1.0676 -0.3980
13248SOL    HW241752   9.957   6.217   2.890  1.6922  0.5093  1.2410
13249SOL     OW41753   4.841   4.298   4.510 -0.3009 -0.0504  0.5929
13249SOL    HW141754   4.835   4.380   4.461 -0.4617 -0.4281 -0.0325
13249SOL    HW241755   4.835   4.230   4.443 -0.3641 -0.5745  1.1244
13250SOL     OW41756   2.798   1.500   4.859  0.3183  0.2036  0.5959
13250SOL    HW141757   2.826   1.480   4.948  0.8312  3.2069  1.2325
13250SOL    HW241758   2.875   1.482   4.805 -1.0881 -5.5281 -0.1358
13251SOL     OW41759   0.095   5.884   5.135 -0.2014 -0.5026  0.4759
13251SOL    HW141760   0.095   5.963   5.188  1.7827  0.3571 -0.7116
13251SOL    HW241761   0.061   5.911   5.050 -1.9886 -1.5545  0.7938
13252SOL     OW41762   6.206   4.443  10.867  0.5277 -0.1197  0.5950
13252SOL    HW141763   6.238   4.453  10.777  1.5469 -0.0699  0.9471
13252SOL    HW241764   6.111   4.439  10.858  0.5241  1.3683 -0.3427
13253SOL     OW41765   7.311   6.070   9.728  1.0464 -0.0338 -0.4517
13253SOL    HW141766   7.300   6.020   9.809 -0.6232 -1.1759 -1.3001
13253SOL    HW241767   7.400   6.106   9.733  1.1745 -0.5186  1.6115
13254SOL     OW41768   7.921   9.698   5.088 -0.2082  0.1108 -1.0094
13254SOL    HW141769   7.910   9.640   5.012  2.1774  0.3000 -1.5898
13254SOL    HW241770   7.985   9.763   5.060  1.6061 -0.4384  1.4571
13255SOL     OW41771   4.460   1.043   8.089  0.0302 -0.0381  0.0871
13255SOL    HW141772   4.486   1.052   7.997  0.7203  0.5779  0.3352
13255SOL    HW241773   4.369   1.072   8.090 -0.1145 -0.4462 -0.4710
13256SOL     OW41774   7.043   5.711   0.074  0.0824 -0.4583 -1.0701
13256SOL    HW141775   7.047   5.790   0.021 -0.0986  0.8907  0.8332
13256SOL    HW241776   7.111   5.722   0.140  1.1611 -2.6662 -1.6957
13257SOL     OW41777   4.213  10.353   3.274  0.5171 -0.3202  0.6515
13257SOL    HW141778   4.291  10.310   3.308  1.5315 -0.0387 -1.1836
13257SOL    HW241779   4.143  10.289   3.288  1.3173 -1.0992  1.1946
13258SOL     OW41780   1.535   2.735   0.682 -0.2139 -0.3499  0.2838
13258SOL    HW141781   1.541   2.668   0.614 -1.6436  1.4857 -1.7775
13258SOL    HW241782   1.594   2.804   0.654 -0.3642  0.1962  1.2617
13259SOL     OW41783  10.197   1.417   5.396  0.1827 -0.4288 -0.3502
13259SOL    HW141784  10.206   1.505   5.358 -1.9361 -0.2461 -0.5686
13259SOL    HW241785  10.278   1.372   5.371  1.7324  1.6867  0.4955
13260SOL     OW41786   2.610   3.403   9.036  0.0394 -0.3636 -0.4025
13260SOL    HW141787   2.651   3.316   9.025  1.3421 -0.1329  1.8782
13260SOL    HW241788   2.638   3.452   8.959  0.9110 -1.3941 -0.7797
13261SOL     OW41789   8.309   2.481   6.901  0.3556 -0.0714  0.4876
13261SOL    HW141790   8.239   2.417   6.912  2.0604 -1.7640  2.4623
13261SOL    HW241791   8.369   2.464   6.973  2.8511  1.2502 -1.1088
13262SOL     OW41792   3.339   7.624   5.768  0.5782 -0.7640 -0.2551
13262SOL    HW141793   3.275   7.693   5.750  0.7522 -1.2150 -3.0498
13262SOL    HW241794   3.301   7.574   5.841 -1.4224 -0.0176 -0.7385
13263SOL     OW41795   4.408   8.882   5.954  0.0485 -0.3108  0.0408
13263SOL    HW141796   4.448   8.809   6.001 -0.3276  0.3646  1.4593
13263SOL    HW241797   4.475   8.951   5.956 -0.2952  0.0178  0.3667
13264SOL     OW41798   6.490   9.939   3.807  0.3170  0.3100  0.2074
13264SOL    HW141799   6.534   9.878   3.866 -3.4735  0.8893  4.0645
13264SOL    HW241800   6.527  10.025   3.830 -0.8678  0.4840  1.5957
13265SOL     OW41801   0.424   8.287   8.971  0.6870 -0.2363  0.2608
13265SOL    HW141802   0.334   8.267   8.947  0.6933  0.5664 -0.4554
13265SOL    HW241803   0.476   8.249   8.900  0.8138  0.5893 -0.0998
13266SOL     OW41804   0.464   8.421   2.837 -0.5905 -0.0931 -0.5505
13266SOL    HW141805   0.391   8.448   2.781 -0.5869 -2.0888 -1.6298
13266SOL    HW241806   0.443   8.331   2.861 -0.0371  0.3617  1.8280
13267SOL     OW41807   1.543   4.209  10.005 -0.1873 -0.2116 -0.2248
13267SOL    HW141808   1.516   4.247   9.921 -0.7726  1.4532  0.6752
13267SOL    HW241809   1.496   4.261  10.071  0.4160 -1.3550  1.1485
13268SOL     OW41810   9.013   2.767   6.148  0.2882  0.2051  1.2091
13268SOL    HW141811   9.007   2.791   6.055 -1.2021 -0.7637  1.0297
13268SOL    HW241812   9.060   2.684   6.149 -2.2463 -1.3574  0.9701
13269SOL     OW41813   3.933   7.100   4.666  0.3340  0.2903 -0.0797
13269SOL    HW141814   3.970   7.161   4.729  2.9202  0.5623 -1.7354
13269SOL    HW241815   3.927   7.149   4.584 -3.4564  0.1153 -0.0854
13270SOL     OW41816   9.952   6.469   5.193  0.3985 -0.1339  0.2022
13270SOL    HW141817   9.936   6.557   5.227 -2.7395 -0.4680 -0.1171
13270SOL    HW241818   9.893   6.413   5.244  1.1035 -1.7860 -0.7297
13271SOL     OW41819   0.287   7.958   1.921  0.6117  0.6916 -0.2931
13271SOL    HW141820   0.293   8.051   1.942 -0.6403  0.7046  0.0988
13271SOL    HW241821   0.196   7.946   1.894  1.3460  0.0618 -2.7841
13272SOL     OW41822   5.058   7.510   1.206 -0.4824 -0.3575  0.2333
13272SOL    HW141823   4.970   7.494   1.243 -0.6515 -0.9013 -0.3903
13272SOL    HW241824   5.118   7.484   1.276 -0.8077  1.3142  1.1881
13273SOL     OW41825   6.394  11.052   3.273  0.0374 -0.3884 -0.1696
13273SOL    HW141826   6.432  11.133   3.308  0.4995  0.4845 -2.5000
13273SOL    HW241827   6.422  10.984   3.334  0.7557  1.0117  1.1375
13274SOL     OW41828   6.352   2.291   5.614 -0.3940  0.1972  0.2062
13274SOL    HW141829   6.339   2.199   5.638  0.6646 -0.0277 -0.0333
13274SOL    HW241830   6.393   2.330   5.692 -1.0281  0.5129  0.3814
13275SOL     OW41831   1.631   5.009   3.493 -0.5838  0.0900 -0.4162
13275SOL    HW141832   1.649   5.015   3.399 -0.1530  0.6855 -0.3003
13275SOL    HW241833   1.543   4.972   3.498  0.1816 -2.0202 -1.0242
13276SOL     OW41834   6.960  10.498  11.226  0.3471  0.0786  0.4612
13276SOL    HW141835   7.021  10.504  11.300  2.2491 -1.2159 -0.8998
13276SOL    HW241836   6.950  10.404  11.212  1.9368  0.2278 -2.3353
13277SOL     OW41837   5.729   9.119   9.951 -0.3071 -0.7347 -0.2926
13277SOL    HW141838   5.806   9.174   9.937 -1.3001  0.5047 -1.2589
13277SOL    HW241839   5.758   9.030   9.932  0.2482  0.0176 -3.5825
13278SOL     OW41840   5.487   2.309   9.462 -0.4135  0.6329 -0.0439
13278SOL    HW141841   5.397   2.331   9.484 -0.5430  0.0697  0.0036
13278SOL    HW241842   5.533   2.307   9.546 -0.4755  0.3949 -0.0156
13279SOL     OW41843   0.289  10.987   5.787  0.3226 -0.0927  0.3838
13279SOL    HW141844   0.294  11.012   5.879  0.1579 -2.2493  1.0366
13279SOL    HW241845   0.212  10.931   5.781 -0.0849  0.5639 -1.2365
13280SOL     OW41846  10.736   6.777   3.976  1.3967 -0.0623 -0.0650
13280SOL    HW141847  10.743   6.726   3.895 -0.1485 -0.0022 -0.2558
13280SOL    HW241848  10.767   6.865   3.951 -0.5759  0.4006 -1.0513
13281SOL     OW41849   6.720   3.194  10.397  0.9585 -0.1589 -0.4353
13281SOL    HW141850   6.676   3.145  10.328 -0.7490 -0.5277  0.8323
13281SOL    HW241851   6.662   3.185  10.473  2.8236  0.0928  1.0992
13282SOL     OW41852   7.863   0.893   9.573 -0.1650  0.2028 -0.0329
13282SOL    HW141853   7.796   0.960   9.561 -1.0510 -0.6061  0.2784
13282SOL    HW241854   7.820   0.811   9.547  0.6817 -0.3395  0.2367
13283SOL     OW41855   0.007   5.475  10.230 -0.0887 -0.6704 -0.4589
13283SOL    HW141856  -0.057   5.545  10.218  1.5781  0.6739 -2.1424
13283SOL    HW241857   0.077   5.515  10.281  0.1124 -1.6701  0.0718
13284SOL     OW41858   0.977  11.100   4.515  0.2728 -0.2100  0.5500
13284SOL    HW141859   0.981  11.099   4.610 -0.6766 -0.9791  0.5972
13284SOL    HW241860   1.068  11.105   4.487  0.5084  1.7845  1.4880
13285SOL     OW41861   7.811   8.816   0.787  0.4833 -0.3484 -0.3992
13285SOL    HW141862   7.906   8.824   0.777  0.3306  0.7303 -1.2177
13285SOL    HW241863   7.793   8.723   0.772  1.4683 -0.7142  0.4950
13286SOL     OW41864   9.751   1.218   6.483 -0.7156  0.4660 -0.1576
13286SOL    HW141865   9.728   1.205   6.575 -1.4720  0.3197 -0.3651
13286SOL    HW241866   9.748   1.130   6.444  2.5034  0.0312  0.2989
13287SOL     OW41867   2.378   9.889   2.498 -0.5506  0.1520  0.0507
13287SOL    HW141868   2.390   9.958   2.563 -2.3642  1.0794 -0.5291
13287SOL    HW241869   2.447   9.904   2.434  1.5865 -1.0796  1.9259
13288SOL     OW41870  11.030   2.838   8.405  0.4855  0.5356  0.2448
13288SOL    HW141871  10.935   2.827   8.406  0.4885  0.4930 -0.0770
13288SOL    HW241872  11.051   2.867   8.494  0.0282  1.7319 -0.0232
13289SOL     OW41873  11.027   6.265   9.055  0.4130 -0.3235  0.5646
13289SOL    HW141874  11.032   6.332   8.987  0.0886 -1.7804 -0.9639
13289SOL    HW241875  10.940   6.277   9.094  0.3648  0.1437  0.3132
13290SOL     OW41876   5.005   5.774  10.696  0.0063 -0.5764  0.0918
13290SOL    HW141877   5.098   5.787  10.679 -0.3560  1.4794 -0.5274
13290SOL    HW241878   4.975   5.717  10.625  0.7726 -1.2061  0.2704
13291SOL     OW41879  10.194   7.567   3.825  0.2256  0.0076 -0.3342
13291SOL    HW141880  10.149   7.609   3.898  1.3282  1.8240 -0.6305
13291SOL    HW241881  10.138   7.584   3.750 -0.6638 -1.4399 -0.0387
13292SOL     OW41882   9.423   2.299   9.463 -0.1960 -0.3536 -0.0652
13292SOL    HW141883   9.433   2.305   9.558  1.0099  0.5403 -0.2238
13292SOL    HW241884   9.358   2.366   9.441 -1.5382 -1.5004  0.2456
13293SOL     OW41885   3.762   9.430   4.267 -0.2968  0.0710  0.4567
13293SOL    HW141886   3.741   9.478   4.187  1.0264 -1.1154 -0.6586
13293SOL    HW241887   3.683   9.378   4.285 -0.5094  0.1511 -0.2274
13294SOL     OW41888   3.874   3.095   8.562  0.8413  0.1923  0.4659
13294SOL    HW141889   3.803   3.099   8.626 -0.9141  4.2365 -1.3787
13294SOL    HW241890   3.838   3.042   8.491  1.3877 -1.2793  1.2550
13295SOL     OW41891   9.636  10.526   6.741  0.3377  0.1262 -0.3243
13295SOL    HW141892   9.564  10.462   6.740  0.5592 -0.1280  0.1568
13295SOL    HW241893   9.715  10.473   6.738  0.5280  0.3688  0.3627
13296SOL     OW41894   0.978   9.617   8.570 -0.1902 -1.2528  0.1157
13296SOL    HW141895   0.922   9.543   8.545 -1.2900 -0.7388  0.9762
13296SOL    HW241896   0.991   9.607   8.664 -1.0642  0.0944  0.4063
13297SOL     OW41897   8.813   2.174   3.154  0.4611 -0.4922  0.3420
13297SOL    HW141898   8.806   2.234   3.228  1.9549 -0.3053  0.3598
13297SOL    HW241899   8.728   2.181   3.110  0.4986  1.4975  0.4664
13298SOL     OW41900   0.764   1.395   4.649  0.6938 -0.5018  0.2497
13298SOL    HW141901   0.751   1.317   4.703  0.2141 -1.8189 -1.6516
13298SOL    HW241902   0.795   1.462   4.710  0.6247 -2.0231  2.0416
13299SOL     OW41903   3.505  10.128   8.503 -0.2120  0.0482  0.0672
13299SOL    HW141904   3.447  10.100   8.573 -1.2752 -0.1961 -0.8672
13299SOL    HW241905   3.578  10.067   8.506 -1.1953 -1.1959 -0.2437
13300SOL     OW41906   5.771   5.875   3.889  0.0042  0.3958 -0.2516
13300SOL    HW141907   5.795   5.950   3.944  1.9497  0.6201 -1.3098
13300SOL    HW241908   5.680   5.891   3.864 -0.8220  0.4919  2.4996
13301SOL     OW41909  10.610   4.877   6.346  0.0166  0.2321  0.0501
13301SOL    HW141910  10.609   4.931   6.425  0.3937  1.2293 -0.6061
13301SOL    HW241911  10.560   4.798   6.370  0.3172  0.4140  1.3365
13302SOL     OW41912   6.176  11.024  11.147 -0.7816  0.7361 -0.2084
13302SOL    HW141913   6.102  10.971  11.176 -0.6053  0.9714  0.7053
13302SOL    HW241914   6.156  11.112  11.179 -1.2722  1.3447 -2.0539
13303SOL     OW41915   5.356   4.595   6.061  0.1671  0.1483 -0.4124
13303SOL    HW141916   5.385   4.663   6.122  2.0685 -0.1070 -0.9748
13303SOL    HW241917   5.297   4.641   6.001 -0.6452  0.6976  0.7704
13304SOL     OW41918  10.150   5.044   1.624  0.2373  0.0156 -0.1955
13304SOL    HW141919  10.215   4.989   1.666  1.0548 -1.3725 -3.0383
13304SOL    HW241920  10.093   5.073   1.696  2.5328 -0.6419  2.0507
13305SOL     OW41921   4.234   5.112   3.083  0.4365 -0.0845  0.1061
13305SOL    HW141922   4.243   5.027   3.040 -0.5557 -0.0292 -0.2452
13305SOL    HW241923   4.284   5.104   3.164 -1.9911 -2.0515  1.5557
13306SOL     OW41924   4.004   8.732   5.866  0.2554  0.1260 -0.1384
13306SOL    HW141925   4.059   8.678   5.809 -0.1268 -0.0707 -0.3234
13306SOL    HW241926   4.018   8.695   5.954  0.3609  0.0261 -0.1972
13307SOL     OW41927   3.873   2.261   7.342  0.3146 -0.5367  0.3042
13307SOL    HW141928   3.922   2.305   7.273 -2.4332  0.9951 -0.8021
13307SOL    HW241929   3.867   2.326   7.412 -0.6826 -0.4232  0.1310
13308SOL     OW41930   5.788   1.040   2.377 -0.0993 -0.8921 -0.5633
13308SOL    HW141931   5.798   0.972   2.444  1.2780 -0.2907 -0.1242
13308SOL    HW241932   5.735   0.998   2.309  0.4911 -2.3242 -0.1921
13309SOL     OW41933   3.983   1.587   6.783  0.6521 -0.5320  0.6075
13309SOL    HW141934   4.049   1.634   6.733  1.1452 -2.3040 -0.5048
13309SOL    HW241935   3.920   1.556   6.717  0.2102 -1.1802  1.3110
13310SOL     OW41936   4.206   2.534   6.007  0.5922 -0.2439  0.0335
13310SOL    HW141937   4.163   2.566   5.927  1.0509 -0.8441 -0.4646
13310SOL    HW241938   4.193   2.604   6.071  2.3958  1.4212 -1.2807
13311SOL     OW41939   3.277   8.107  11.175 -0.2754  0.5471  0.9955
13311SOL    HW141940   3.334   8.078  11.246 -1.9276 -3.0246  1.0940
13311SOL    HW241941   3.301   8.052  11.100 -2.0345  0.4969  0.4061
13312SOL     OW41942   4.570  10.357   6.139 -0.5170  0.5064  0.0082
13312SOL    HW141943   4.636  10.294   6.166 -1.6973 -1.1884 -0.8725
13312SOL    HW241944   4.513  10.365   6.215 -0.7040  0.0237 -0.0755
13313SOL     OW41945   1.727   5.351   7.548  0.1078 -0.4391 -0.0339
13313SOL    HW141946   1.777   5.433   7.537 -0.8550  0.3449  1.1551
13313SOL    HW241947   1.674   5.345   7.468 -0.8630  0.8802  0.4682
13314SOL     OW41948   5.397   9.617   5.870  0.1126 -0.4477 -0.0521
13314SOL    HW141949   5.472   9.650   5.920  0.2060  0.0057 -0.4854
13314SOL    HW241950   5.335   9.586   5.937  0.6440 -0.7429  0.3096
13315SOL     OW41951   8.680   8.196  10.179  0.4147  0.2821  0.1417
13315SOL    HW141952   8.639   8.253  10.115 -1.4476 -1.8147 -0.6588
13315SOL    HW241953   8.753   8.247  10.214  2.4159  1.1517 -4.5330
13316SOL     OW41954   0.154   6.572   5.987 -0.7235  0.2488 -0.4900
13316SOL    HW141955   0.163   6.652   5.935 -0.3167  1.3013  1.1136
13316SOL    HW241956   0.072   6.533   5.956 -2.0983  2.4358  0.1254
13317SOL     OW41957   4.180   5.273   9.865  0.4984 -0.1419  0.3950
13317SOL    HW141958   4.195   5.303   9.955  1.7046 -3.0233  1.3070
13317SOL    HW241959   4.258   5.221   9.845  0.8560  1.4524 -2.8587
13318SOL     OW41960   0.312   9.452   0.599 -0.1514 -0.2803 -0.0726
13318SOL    HW141961   0.401   9.485   0.586 -0.4875  0.0315 -1.9044
13318SOL    HW241962   0.259   9.503   0.537 -1.1088 -2.4130 -1.1175
13319SOL     OW41963   4.364   2.661   6.752  0.7136 -0.4284 -0.2045
13319SOL    HW141964   4.297   2.724   6.726  1.5931  0.2056 -1.0198
13319SOL    HW241965   4.374   2.604   6.675 -0.2988 -1.7946  0.6359
13320SOL     OW41966   3.237  10.166   4.723 -0.4464  0.9036 -0.2466
13320SOL    HW141967   3.295  10.213   4.663 -0.3595  3.8517  1.9218
13320SOL    HW241968   3.178  10.233   4.756 -2.3142 -1.1687  0.8719
13321SOL     OW41969   8.626   5.275   9.285 -0.4915  0.1760  0.6120
13321SOL    HW141970   8.537   5.270   9.321 -1.1141  0.8275 -0.7711
13321SOL    HW241971   8.617   5.245   9.195  0.9414 -0.9562  0.8147
13322SOL     OW41972   4.381   2.945   6.389  0.1362  0.4671  0.0226
13322SOL    HW141973   4.367   3.016   6.452  1.9585  0.0768  0.9333
13322SOL    HW241974   4.443   2.980   6.326  1.9279 -0.5686  1.0908
13323SOL     OW41975   4.350   0.418   9.522 -0.3295  0.3605  0.2371
13323SOL    HW141976   4.323   0.505   9.495 -0.6357 -0.3442 -1.8722
13323SOL    HW241977   4.382   0.377   9.442 -2.0341 -2.1535  0.7341
13324SOL     OW41978   4.852   6.527  10.203 -0.1904 -0.3251  0.2782
13324SOL    HW141979   4.805   6.450  10.171  0.9144 -0.7044 -0.4834
13324SOL    HW241980   4.855   6.586  10.128 -3.1334  1.6054  1.4598
13325SOL     OW41981   6.897   9.617   6.163  0.2177  0.4052  0.7933
13325SOL    HW141982   6.962   9.678   6.128  0.0637 -0.6235 -1.4886
13325SOL    HW241983   6.814   9.646   6.125  0.0642 -0.8661  0.0861
13326SOL     OW41984   8.369   5.149   7.215 -0.1835  0.2277 -0.8200
13326SOL    HW141985   8.297   5.109   7.263  0.9075 -0.2150  0.5205
13326SOL    HW241986   8.394   5.084   7.150  0.1986 -0.4156 -0.0483
13327SOL     OW41987   4.121   1.233  11.124 -0.1439 -0.1721  0.2565
13327SOL    HW141988   4.210   1.218  11.092 -0.0417 -0.8562  0.8465
13327SOL    HW241989   4.123   1.322  11.159  0.5613 -0.4962  1.0771
13328SOL     OW41990  10.276   2.828  10.367 -0.2547  0.4062 -0.3691
13328SOL    HW141991  10.239   2.899  10.313  1.8893  1.3507 -0.7173
13328SOL    HW241992  10.233   2.749  10.335 -1.9934  1.4014 -0.6651
13329SOL     OW41993   6.404   3.698   6.229  0.6955  0.0610 -0.7407
13329SOL    HW141994   6.420   3.769   6.292  1.4633 -0.1507 -0.6982
13329SOL    HW241995   6.316   3.717   6.196  1.0908  1.3543 -1.1344
13330SOL     OW41996   9.156   2.739   2.013  0.4116  0.2755 -0.0434
13330SOL    HW141997   9.064   2.726   2.037  0.9565 -1.8131  1.1379
13330SOL    HW241998   9.153   2.795   1.935 -1.8254  0.5855  0.2121
13331SOL     OW41999   6.605   3.043   4.111 -0.3404 -0.8077  0.0286
13331SOL    HW142000   6.511   3.028   4.104 -0.2726 -1.5927  0.6372
13331SOL    HW242001   6.623   3.116   4.052 -1.6787  0.8030  1.5049
13332SOL     OW42002   3.699   7.288   6.456  0.0132 -0.0348 -0.0641
13332SOL    HW142003   3.772   7.240   6.416 -1.0251 -0.5595 -1.3961
13332SOL    HW242004   3.622   7.257   6.410 -0.9989  0.9861  0.8853
13333SOL     OW42005   5.557   9.673   4.468 -0.2581  0.3830  0.2574
13333SOL    HW142006   5.595   9.602   4.520 -0.7724  0.4068  0.6683
13333SOL    HW242007   5.463   9.663   4.480 -0.3811  0.3691 -0.7066
13334SOL     OW42008   7.633   4.551   6.010  0.1835 -0.1706  0.0721
13334SOL    HW142009   7.592   4.503   5.938  3.1651 -2.1665 -0.4998
13334SOL    HW242010   7.639   4.487   6.081 -1.1269  1.2590  1.5777
13335SOL     OW42011   0.535   2.076   7.905  0.6162 -0.0016 -0.2789
13335SOL    HW142012   0.623   2.047   7.882 -0.1702 -1.1918 -2.0015
13335SOL    HW242013   0.506   2.128   7.830  0.4038  1.7682  0.9642
13336SOL     OW42014   2.909   1.447   4.392 -0.4537 -0.3162  0.0342
13336SOL    HW142015   2.951   1.361   4.390 -0.2123 -0.4116  3.5235
13336SOL    HW242016   2.981   1.507   4.412 -1.1835  0.1268  1.4334
13337SOL     OW42017   3.057   7.827   9.785 -0.7325 -0.1659 -0.0896
13337SOL    HW142018   3.128   7.846   9.846  0.0365  1.4559 -1.4071
13337SOL    HW242019   2.981   7.810   9.841  0.4407 -0.9614  1.3254
13338SOL     OW42020  11.085   9.768   6.123  0.3761  0.1368 -0.0308
13338SOL    HW142021  11.094   9.777   6.029  1.7620 -1.3909 -0.1018
13338SOL    HW242022  11.007   9.713   6.135  0.7909 -0.5394 -0.3623
13339SOL     OW42023   0.634   8.197   3.619 -0.1058 -0.1350 -0.1698
13339SOL    HW142024   0.552   8.197   3.568 -0.3035 -0.6123  0.1431
13339SOL    HW242025   0.624   8.270   3.679  0.3503  0.7638 -1.1603
13340SOL     OW42026   1.131   4.903   3.516 -0.0980 -0.4008 -0.0117
13340SOL    HW142027   1.118   4.956   3.595  0.1241  0.2863 -0.4243
13340SOL    HW242028   1.069   4.939   3.453  2.3342  1.6765 -1.3988
13341SOL     OW42029   9.071   4.678   2.536  0.1295 -0.3196  0.8441
13341SOL    HW142030   9.003   4.745   2.524 -1.1305 -1.3589  1.8796
13341SOL    HW242031   9.144   4.725   2.575  0.9796  1.3066 -2.3343
13342SOL     OW42032   8.175   5.474   0.255 -0.0320  0.0345 -0.0343
13342SOL    HW142033   8.094   5.424   0.244  0.2500 -0.3900 -0.2420
13342SOL    HW242034   8.233   5.441   0.186  0.4745 -0.0013  0.3959
13343SOL     OW42035   5.273   6.187  10.547 -0.0890 -0.2587 -0.4303
13343SOL    HW142036   5.215   6.244  10.497  1.2561  0.0802 -1.6718
13343SOL    HW242037   5.235   6.099  10.537 -1.8227  0.2692  0.9761
13344SOL     OW42038   7.281   8.250   6.515  0.1315  0.1980 -0.1350
13344SOL    HW142039   7.369   8.229   6.548 -0.3896 -0.2507  1.0368
13344SOL    HW242040   7.239   8.165   6.506 -0.3090  0.4365 -0.3238
13345SOL     OW42041   6.037   3.773   5.844 -0.2519 -0.1262  0.1139
13345SOL    HW142042   5.951   3.796   5.878 -0.3533  1.0334 -0.8839
13345SOL    HW242043   6.040   3.811   5.756  2.2115  2.0926  1.0176
13346SOL     OW42044   4.787   9.798   5.382  0.4252 -0.7941  0.8816
13346SOL    HW142045   4.761   9.848   5.460  4.0094  0.0409  1.6947
13346SOL    HW242046   4.714   9.810   5.321 -0.2599  2.9274  2.1673
13347SOL     OW42047  10.463   5.521   3.107 -0.4281  0.7896 -0.3448
13347SOL    HW142048  10.534   5.580   3.133  0.3135 -0.3347  0.2174
13347SOL    HW242049  10.392   5.580   3.082 -0.2908  1.9509  1.7677
13348SOL     OW42050   0.585   4.720   8.673 -0.1858 -0.3063 -0.7382
13348SOL    HW142051   0.602   4.796   8.729  0.1624 -0.8224 -0.1323
13348SOL    HW242052   0.552   4.758   8.591  2.5681  0.6871 -1.5065
13349SOL     OW42053   7.921   9.234   7.724  0.1249  0.1077 -0.5519
13349SOL    HW142054   7.830   9.256   7.708  0.2620  1.2543  0.1029
13349SOL    HW242055   7.919   9.145   7.758 -1.0114  0.8928  1.6203
13350SOL     OW42056   3.819   2.051   2.964  0.3904 -0.2171 -0.8766
13350SOL    HW142057   3.841   2.129   3.016 -2.8640  1.4156 -1.7408
13350SOL    HW242058   3.765   1.998   3.023  0.4966 -0.6011 -1.1234
13351SOL     OW42059   5.288   1.268   7.550 -0.6583 -0.4893  0.3255
13351SOL    HW142060   5.244   1.308   7.625 -0.0727 -1.1690  1.0464
13351SOL    HW242061   5.258   1.177   7.550 -1.7105 -0.1856 -1.0910
13352SOL     OW42062  10.941   0.292   9.783  0.2584  0.2170  0.6475
13352SOL    HW142063  10.950   0.312   9.876  1.8221  2.6102  0.0874
13352SOL    HW242064  10.905   0.203   9.781 -0.5116  0.3483  3.5011
13353SOL     OW42065   9.496   4.886  11.204  0.1225 -0.2595 -0.3476
13353SOL    HW142066   9.406   4.916  11.192 -0.3605 -1.7857 -0.6860
13353SOL    HW242067   9.544   4.925  11.131 -1.0057 -2.2979 -2.2660
13354SOL     OW42068   8.353   3.936   7.148 -0.5649 -0.1038  0.0308
13354SOL    HW142069   8.386   3.902   7.232 -0.4736 -1.4493 -0.5256
13354SOL    HW242070   8.294   3.868   7.116  0.4520 -0.2517 -1.6382
13355SOL     OW42071   8.967   2.171   7.629  0.4101 -1.2871  0.2081
13355SOL    HW142072   8.884   2.124   7.618  0.4985 -1.6310  0.9467
13355SOL    HW242073   8.960   2.211   7.716  0.5358 -0.3315 -0.2177
13356SOL     OW42074   4.714   9.989   1.959  0.3389 -0.4454 -0.2310
13356SOL    HW142075   4.748  10.062   1.906 -1.1191  0.1034 -0.4484
13356SOL    HW242076   4.779   9.979   2.029  0.1478  1.6761  0.3334
13357SOL     OW42077   9.419   2.182   4.872 -0.6966 -0.2707  0.1915
13357SOL    HW142078   9.323   2.181   4.878 -0.7982  2.2196 -0.0684
13357SOL    HW242079   9.437   2.169   4.779 -0.7278 -1.1973  0.3014
13358SOL     OW42080   3.276   3.140  11.104 -0.6636 -0.7811 -0.0017
13358SOL    HW142081   3.329   3.064  11.079 -2.5864 -2.6550  1.2459
13358SOL    HW242082   3.224   3.160  11.026  0.9617  0.3455 -0.8565
13359SOL     OW42083   4.827   5.092   7.538  0.0674  0.1270  0.7047
13359SOL    HW142084   4.782   5.059   7.461 -1.7634 -1.1927  2.2398
13359SOL    HW242085   4.915   5.055   7.533 -0.3073 -0.6673 -0.3068
13360SOL     OW42086   6.763   1.934   7.257  0.4175  0.2469 -0.7029
13360SOL    HW142087   6.672   1.906   7.266  0.3786  0.1987 -1.1876
13360SOL    HW242088   6.768   2.016   7.306 -0.4995  1.4832 -2.5540
13361SOL     OW42089   2.181   5.471   3.472 -0.1859 -0.2636 -0.1022
13361SOL    HW142090   2.126   5.509   3.540  1.0057  0.1606  0.6428
13361SOL    HW242091   2.245   5.417   3.519 -0.0254 -0.8450 -0.9602
13362SOL     OW42092   1.658   9.624   0.548  0.5095  0.0451 -0.0355
13362SOL    HW142093   1.572   9.583   0.543  1.3299 -1.7875 -0.1051
13362SOL    HW242094   1.685   9.636   0.457 -0.1389  1.7180 -0.0268
13363SOL     OW42095   6.787   9.967   6.956  0.2856  0.3529 -0.1465
13363SOL    HW142096   6.748  10.024   6.890  1.3403 -0.7410 -1.7750
13363SOL    HW242097   6.872  10.006   6.974  0.6214 -0.1810 -0.5657
13364SOL     OW42098   2.212   9.231   5.222  0.7129 -0.5150 -0.4324
13364SOL    HW142099   2.201   9.199   5.311  1.2385 -2.5494 -1.0625
13364SOL    HW242100   2.129   9.274   5.201  0.6508  0.1346  1.0745
13365SOL     OW42101   5.918   9.586   9.549  0.6093  0.2347 -0.8751
13365SOL    HW142102   5.872   9.612   9.469  1.8870 -2.4112 -2.6459
13365SOL    HW242103   6.011   9.595   9.526  1.0070  0.3655  0.6957
13366SOL     OW42104   3.940   2.628   4.532  0.1422  0.0667  0.0514
13366SOL    HW142105   4.008   2.694   4.514 -1.2503  1.5483  0.0135
13366SOL    HW242106   3.930   2.630   4.628 -0.9414  1.0250 -0.0651
13367SOL     OW42107   6.355   3.269   1.976 -0.3142 -0.0261 -0.0277
13367SOL    HW142108   6.408   3.278   1.896  1.8022 -3.4841  0.7419
13367SOL    HW242109   6.420   3.258   2.046 -2.0683 -1.0768  1.5211
13368SOL     OW42110   5.232   6.158   0.028  0.1119 -0.0984 -0.1844
13368SOL    HW142111   5.205   6.075  -0.012 -0.0218 -1.2735  2.1612
13368SOL    HW242112   5.325   6.146   0.047 -0.4558 -0.8878  2.5894
13369SOL     OW42113   6.904  10.012   9.214  0.2985  0.4697 -0.3323
13369SOL    HW142114   6.984   9.961   9.198  0.6172  1.1749 -1.0688
13369SOL    HW242115   6.935  10.099   9.236 -0.2677  1.0679 -1.7948
13370SOL     OW42116   1.643   3.308   6.233  0.1911  0.0844 -0.2781
13370SOL    HW142117   1.591   3.371   6.283  2.1954  3.2255 -1.8937
13370SOL    HW242118   1.709   3.277   6.295 -0.3107  0.1682  0.3122
13371SOL     OW42119   2.934   8.828   4.864 -0.0890 -0.0896  0.1546
13371SOL    HW142120   2.886   8.769   4.806  2.6193 -1.1085 -1.2295
13371SOL    HW242121   2.925   8.789   4.951  1.6248 -2.6893 -0.7167
13372SOL     OW42122   6.722   9.311   2.806  0.3875  0.3003  0.1828
13372SOL    HW142123   6.634   9.283   2.831  1.1816 -1.6689  0.9199
13372SOL    HW242124   6.724   9.306   2.711  0.5890 -2.6443  0.2759
13373SOL     OW42125   1.212   4.984   6.856 -0.5658  0.5650 -0.2896
13373SOL    HW142126   1.137   4.964   6.911  0.2947 -1.2986  0.2882
13373SOL    HW242127   1.261   5.051   6.904 -1.3256  1.0790 -0.2142
13374SOL     OW42128   2.390   4.718   7.834  0.5151  0.2601  0.2030
13374SOL    HW142129   2.415   4.647   7.774 -0.5943 -1.8280  2.0831
13374SOL    HW242130   2.463   4.724   7.895 -0.6805 -1.5006  1.9101
13375SOL     OW42131   4.131   3.930   2.503 -0.1320  0.6059  0.4738
13375SOL    HW142132   4.216   3.898   2.473 -1.2455 -0.9753 -1.2016
13375SOL    HW242133   4.086   3.852   2.534 -1.4952  1.1823  0.0003
13376SOL     OW42134   7.829   3.316   5.741  0.1064 -0.2944  0.6766
13376SOL    HW142135   7.845   3.381   5.672  1.3977  0.4129  1.6064
13376SOL    HW242136   7.883   3.242   5.716  0.4352 -0.1084  0.8353
13377SOL     OW42137   0.690   7.743   0.877  0.5796 -0.1453 -0.0582
13377SOL    HW142138   0.721   7.828   0.908  1.8193 -0.4928 -0.3187
13377SOL    HW242139   0.661   7.699   0.957 -1.0727  0.8906 -0.0356
13378SOL     OW42140  11.151   1.321   2.145  0.2019 -0.2154  0.8103
13378SOL    HW142141  11.178   1.312   2.054 -2.6292 -1.4691 -0.0010
13378SOL    HW242142  11.216   1.272   2.195  0.2700 -1.8727 -0.8356
13379SOL     OW42143   1.332   7.336   5.709  0.0752  0.0401 -0.3783
13379SOL    HW142144   1.252   7.385   5.728  0.8512  2.5944 -3.0505
13379SOL    HW242145   1.309   7.283   5.632  0.3530 -0.9252  0.1946
13380SOL     OW42146   4.604   0.666   0.975  0.3250  0.1386  0.1752
13380SOL    HW142147   4.536   0.599   0.975  0.4372 -0.0542 -1.8312
13380SOL    HW242148   4.684   0.619   0.999  0.4190 -0.5178 -1.3051
13381SOL     OW42149   8.599   9.047   0.573 -0.2190  0.3219  0.2649
13381SOL    HW142150   8.675   9.054   0.516 -0.4722  0.3314 -0.0708
13381SOL    HW242151   8.525   9.032   0.514 -0.8180  2.4054  0.3855
13382SOL     OW42152   0.986   1.538   6.264 -0.4723  0.0261  0.5734
13382SOL    HW142153   0.993   1.632   6.282 -0.0801  0.3667 -1.1154
13382SOL    HW242154   0.900   1.513   6.298 -1.3193  1.3913 -0.4600
13383SOL     OW42155  10.571   8.795   6.018  0.4437 -0.2952 -0.2764
13383SOL    HW142156  10.498   8.740   5.990  0.8170 -1.5642  1.0913
13383SOL    HW242157  10.536   8.849   6.089 -0.0154  1.5676 -1.8487
13384SOL     OW42158   0.358   4.366   4.718  0.0454  0.3659 -0.3025
13384SOL    HW142159   0.275   4.332   4.751  1.2322 -1.3818  1.0670
13384SOL    HW242160   0.362   4.336   4.628 -0.9895  0.8840 -0.5431
13385SOL     OW42161   4.751   8.487   7.977 -0.7175 -0.6451 -0.0717
13385SOL    HW142162   4.730   8.537   8.056 -1.8261 -0.6257 -0.3697
13385SOL    HW242163   4.814   8.542   7.930 -0.8260 -0.1867  0.3058
13386SOL     OW42164   2.059   4.843   4.249 -0.2436 -0.2206  0.0575
13386SOL    HW142165   1.994   4.884   4.306 -1.6469 -2.3161  0.0602
13386SOL    HW242166   2.034   4.751   4.245  2.6167 -1.1142 -0.1439
13387SOL     OW42167  10.061   1.888   1.594  0.1704  0.5684 -0.1609
13387SOL    HW142168  10.004   1.940   1.538 -0.5141  0.0644  0.0491
13387SOL    HW242169  10.005   1.818   1.627  0.9082  0.0762  0.0793
13388SOL     OW42170   2.968   4.021   3.708  0.1218  0.5458  0.2748
13388SOL    HW142171   2.922   4.019   3.792 -2.3153 -0.2314 -0.9770
13388SOL    HW242172   2.964   4.113   3.681 -0.9642  0.4653  0.0951
13389SOL     OW42173   7.470   9.628   1.382 -0.2966 -0.1465  0.1972
13389SOL    HW142174   7.394   9.659   1.430  1.4402  3.2896  1.0019
13389SOL    HW242175   7.511   9.706   1.346  3.8936 -1.4887  1.3967
13390SOL     OW42176   4.749   8.402   7.136 -0.0983 -0.2415  0.9855
13390SOL    HW142177   4.670   8.444   7.101 -0.1778 -0.2568  1.1432
13390SOL    HW242178   4.749   8.315   7.097  0.9662  0.4567 -0.6796
13391SOL     OW42179  10.120   1.496   3.785  0.0854 -0.1496 -0.0934
13391SOL    HW142180  10.132   1.590   3.794 -1.7181  0.1379 -0.3321
13391SOL    HW242181  10.174   1.457   3.854 -1.0479  1.1858  1.6242
13392SOL     OW42182   9.346   7.746   0.703  0.3805 -0.0522 -0.0546
13392SOL    HW142183   9.402   7.796   0.762 -0.1963 -0.3389  0.7584
13392SOL    HW242184   9.328   7.806   0.631  1.5436  0.1164 -0.2221
13393SOL     OW42185   0.910   8.067   1.246 -0.0503  0.0028  0.8896
13393SOL    HW142186   0.927   8.060   1.152  0.7363 -1.5968  1.1099
13393SOL    HW242187   0.976   8.128   1.278 -3.4285  4.8521 -0.2424
13394SOL     OW42188   8.593   9.606  11.283  0.0832 -0.2378  0.1592
13394SOL    HW142189   8.550   9.682  11.245  3.5270  1.2577 -1.1274
13394SOL    HW242190   8.622   9.635  11.369  1.2665 -0.0891 -0.2709
13395SOL     OW42191   5.882   1.573   1.931 -0.2749  0.5990 -0.1808
13395SOL    HW142192   5.875   1.651   1.877  0.4053  0.9808  0.2617
13395SOL    HW242193   5.929   1.510   1.876 -0.7278  0.5316 -0.4964
13396SOL     OW42194  10.936   6.666   3.070  0.0191 -0.0361  0.5611
13396SOL    HW142195  10.899   6.581   3.095  1.1062 -0.0852  2.1656
13396SOL    HW242196  10.869   6.729   3.094 -2.4644 -0.5098 -4.0280
13397SOL     OW42197  10.719  10.594   5.068 -0.1813  0.2172  0.7847
13397SOL    HW142198  10.704  10.676   5.020  0.3346 -0.4393 -0.5584
13397SOL    HW242199  10.650  10.535   5.038  0.4586 -0.3686  0.4310
13398SOL     OW42200   8.266   4.161   4.248  0.4164  0.5176  0.3214
13398SOL    HW142201   8.351   4.122   4.271  0.8334  1.8757  1.2082
13398SOL    HW242202   8.285   4.254   4.237 -1.1980  1.1070  1.9897
13399SOL     OW42203   6.201   8.069   8.696 -0.4420  0.7269  0.1335
13399SOL    HW142204   6.191   8.055   8.601  1.0716 -3.6414  0.3660
13399SOL    HW242205   6.293   8.092   8.707  0.2053 -1.7364  0.5756
13400SOL     OW42206   7.416   9.259   1.012 -0.2803 -0.0778  0.2677
13400SOL    HW142207   7.382   9.204   1.082  1.8031  1.2269  2.4512
13400SOL    HW242208   7.433   9.344   1.054  1.2403  0.7047 -1.7572
13401SOL     OW42209   8.393   6.268   2.128 -0.3941 -0.2506 -0.3714
13401SOL    HW142210   8.350   6.234   2.049 -2.5245  0.1347  0.5281
13401SOL    HW242211   8.481   6.232   2.126 -1.2625 -2.5075 -1.5227
13402SOL     OW42212  10.983   8.278  10.721  0.6537 -0.2441  0.6350
13402SOL    HW142213  10.995   8.193  10.679 -0.2553  0.6866 -1.6889
13402SOL    HW242214  11.058   8.330  10.693  0.9788 -0.1156  1.6840
13403SOL     OW42215   6.179   8.713   8.628  0.0401  0.2081 -0.0834
13403SOL    HW142216   6.268   8.701   8.662  0.9262  2.7258 -1.2730
13403SOL    HW242217   6.124   8.713   8.707  0.8043 -2.7013  0.5902
13404SOL     OW42218   5.766   7.658   4.232  0.1994 -0.1474 -0.1905
13404SOL    HW142219   5.800   7.747   4.242  1.0070 -0.5417  0.7696
13404SOL    HW242220   5.741   7.633   4.320  1.7974 -1.5649 -0.0944
13405SOL     OW42221   6.066   3.970   9.355  0.2966 -0.1827  0.2507
13405SOL    HW142222   6.095   3.931   9.273 -1.4615 -0.2744 -0.3697
13405SOL    HW242223   6.067   4.064   9.338 -2.1381 -0.2669 -0.6744
13406SOL     OW42224   4.176   9.255   9.934 -0.4725  0.3273  0.5894
13406SOL    HW142225   4.109   9.261   9.866 -0.4753 -0.3608  0.5199
13406SOL    HW242226   4.169   9.165   9.966 -0.2378  0.5437  1.2626
13407SOL     OW42227   9.142   0.315   9.159 -0.9459  0.1205  0.6640
13407SOL    HW142228   9.117   0.308   9.251 -0.7270  0.1605  0.7274
13407SOL    HW242229   9.226   0.269   9.153 -0.4931  0.9080  0.6784
13408SOL     OW42230   7.240   6.406   2.182  0.3342  0.3409 -0.0414
13408SOL    HW142231   7.175   6.433   2.247  2.0312  1.0294  1.4537
13408SOL    HW242232   7.222   6.313   2.167  0.2155  0.0295  1.8412
13409SOL     OW42233  10.056   1.073   6.459  0.1412  0.1802  0.1726
13409SOL    HW142234  10.120   1.143   6.448  0.5677 -0.4392 -1.6228
13409SOL    HW242235   9.979   1.102   6.410  0.2823 -0.5387 -0.5033
13410SOL     OW42236   3.591   1.638   2.278  0.3369  0.2680  0.0897
13410SOL    HW142237   3.671   1.665   2.233  0.0027  0.0356 -0.6587
13410SOL    HW242238   3.521   1.684   2.232  0.0206  0.3031  0.6013
13411SOL     OW42239  10.831   0.583  10.019  0.3669 -0.1266  0.5317
13411SOL    HW142240  10.768   0.514  10.041  1.7382 -1.6863 -0.2045
13411SOL    HW242241  10.901   0.572  10.083  0.7593  0.3635  0.1889
13412SOL     OW42242   7.282   1.912   7.424  0.4837 -0.3249 -0.3518
13412SOL    HW142243   7.329   1.907   7.341  2.7561  1.6568  0.6797
13412SOL    HW242244   7.201   1.959   7.404  1.7374  1.5838 -1.2597
13413SOL     OW42245   8.504   8.436   7.019 -0.1948  0.4322 -0.3571
13413SOL    HW142246   8.576   8.429   6.957 -0.0664 -0.6600 -0.1039
13413SOL    HW242247   8.444   8.499   6.980  0.9904  1.5422 -0.4640
13414SOL     OW42248   5.892   5.876   8.110 -0.1725 -0.4313 -0.4992
13414SOL    HW142249   5.820   5.816   8.131 -0.3900  0.1782  0.5779
13414SOL    HW242250   5.942   5.830   8.043  0.2694 -2.2927  1.0076
13415SOL     OW42251   8.711   4.456   8.944 -0.1637  0.4732  0.2679
13415SOL    HW142252   8.746   4.541   8.971  0.5394  0.4952 -0.6625
13415SOL    HW242253   8.749   4.441   8.858 -4.4416  1.6723 -2.0931
13416SOL     OW42254   3.251   3.831   4.229 -0.2305  0.0718  0.7439
13416SOL    HW142255   3.200   3.811   4.151  2.0063 -1.1599 -0.4921
13416SOL    HW242256   3.261   3.926   4.229 -0.7657  0.1344 -0.0921
13417SOL     OW42257   4.129   4.304   4.050 -0.8995 -0.2763  0.1411
13417SOL    HW142258   4.075   4.381   4.065  1.6455  1.6781 -0.0839
13417SOL    HW242259   4.148   4.270   4.138 -1.9917 -0.6776  0.2407
13418SOL     OW42260   2.137   3.938  11.060  0.2807 -0.7877 -0.2638
13418SOL    HW142261   2.178   3.988  10.990 -0.5783  1.6909  0.9163
13418SOL    HW242262   2.199   3.943  11.133 -0.2969 -0.4687  0.2188
13419SOL     OW42263   6.013   1.855   5.636 -0.2086  0.5566  0.2229
13419SOL    HW142264   6.020   1.815   5.723 -0.6058  1.8907  0.9051
13419SOL    HW242265   6.104   1.872   5.610 -0.0103 -1.0744 -0.2491
13420SOL     OW42266   6.690   3.847   7.178  0.5493  1.0329 -0.5390
13420SOL    HW142267   6.680   3.788   7.253 -1.0897 -0.2301 -1.6547
13420SOL    HW242268   6.774   3.890   7.192  1.7421 -1.4298  0.4657
13421SOL     OW42269   9.290   6.586   7.171 -0.2663  0.0340  0.2286
13421SOL    HW142270   9.378   6.623   7.183 -0.2255 -0.0273  0.1227
13421SOL    HW242271   9.246   6.601   7.255 -0.5835  1.2034 -0.1178
13422SOL     OW42272   1.466   1.951   5.793  0.0349 -0.1661  0.3007
13422SOL    HW142273   1.427   1.930   5.708  1.2089  0.2664 -0.3631
13422SOL    HW242274   1.538   1.889   5.802 -0.7491 -0.9492  1.5079
13423SOL     OW42275   6.753   9.408   2.292  0.0057 -0.7522  0.5914
13423SOL    HW142276   6.693   9.351   2.245  0.4544 -0.6223 -0.1519
13423SOL    HW242277   6.769   9.481   2.231 -0.1730 -0.0849  1.3272
13424SOL     OW42278   8.456   9.064   6.862  0.2413 -0.0576  0.4258
13424SOL    HW142279   8.443   9.156   6.886 -0.1005 -0.1724  0.6987
13424SOL    HW242280   8.473   9.065   6.768  0.5826  0.3130  0.4899
13425SOL     OW42281   0.079   7.275   8.142 -0.5073  0.3653 -0.5705
13425SOL    HW142282   0.083   7.362   8.182 -0.5194  0.9901 -1.8611
13425SOL    HW242283  -0.009   7.269   8.106 -0.0159  0.4812 -1.8524
13426SOL     OW42284   0.776  10.293   0.459 -0.9265  0.3217 -0.0588
13426SOL    HW142285   0.739  10.238   0.529 -1.9814  1.4685  0.3078
13426SOL    HW242286   0.721  10.275   0.383  2.2557 -3.6198 -1.8155
13427SOL     OW42287   0.958   8.307   9.643 -0.2463 -0.3644  0.2908
13427SOL    HW142288   0.888   8.355   9.689 -1.4282 -1.6703 -0.0649
13427SOL    HW242289   0.911   8.254   9.578  1.2034 -0.3432 -0.8135
13428SOL     OW42290   7.403   0.363   7.530  0.2695  0.3702 -0.1399
13428SOL    HW142291   7.398   0.422   7.454 -1.2369  0.4246 -0.0252
13428SOL    HW242292   7.313   0.337   7.545  0.7137 -0.6034  0.9009
13429SOL     OW42293   0.095   0.750   9.736 -0.3239  0.3272 -0.0586
13429SOL    HW142294   0.112   0.774   9.644 -0.9371  1.3580  0.0781
13429SOL    HW242295   0.028   0.812   9.764 -1.2183 -0.9105  0.6595
13430SOL     OW42296   5.653   7.592   6.724 -0.3290 -0.1418 -0.3006
13430SOL    HW142297   5.629   7.576   6.815 -0.5587  2.3369  0.1447
13430SOL    HW242298   5.577   7.562   6.673 -1.6321  1.4954  0.6059
13431SOL     OW42299   6.413   4.963   9.712  0.1482 -0.0114  0.4496
13431SOL    HW142300   6.334   4.974   9.765 -0.9300  1.4501 -1.3230
13431SOL    HW242301   6.465   5.041   9.733 -0.0133  0.2669 -0.1716
13432SOL     OW42302   8.095   7.466   0.828 -0.3125  0.0123 -0.0711
13432SOL    HW142303   8.133   7.387   0.866 -1.2778 -1.6926 -2.3905
13432SOL    HW242304   8.028   7.494   0.891  1.0395 -0.0872  1.4756
13433SOL     OW42305   6.686   7.474   2.949  0.7408  0.3498 -0.3560
13433SOL    HW142306   6.715   7.384   2.961 -1.9390 -0.4530  0.7935
13433SOL    HW242307   6.655   7.501   3.035 -0.4170  1.6337 -1.1335
13434SOL     OW42308   5.266   5.054   3.165  0.2456  1.0850 -0.4967
13434SOL    HW142309   5.283   4.967   3.201 -1.5362  0.8266 -0.2111
13434SOL    HW242310   5.346   5.076   3.117  0.7101 -0.7374 -0.6212
13435SOL     OW42311   9.634   7.374   5.844  0.2192  0.4319  0.1191
13435SOL    HW142312   9.593   7.346   5.762  1.2454  2.0735 -1.0233
13435SOL    HW242313   9.567   7.357   5.911 -1.5625  1.1404 -1.3749
13436SOL     OW42314   8.412   1.807   3.400 -0.0207 -0.3089 -0.7114
13436SOL    HW142315   8.368   1.848   3.326 -0.2044 -1.0588 -1.0264
13436SOL    HW242316   8.350   1.815   3.473  0.0665  0.2296 -0.6971
13437SOL     OW42317  10.485   2.682   0.495  0.7795  0.0337  0.5706
13437SOL    HW142318  10.517   2.715   0.579  2.2331  1.6612 -0.5423
13437SOL    HW242319  10.437   2.755   0.457 -1.5675 -1.3119  0.7612
13438SOL     OW42320   0.880  10.442   9.264  0.1400  0.0195  0.1021
13438SOL    HW142321   0.896  10.536   9.259 -1.4093  0.3483  0.5043
13438SOL    HW242322   0.930  10.413   9.340  3.0273 -0.1018 -1.7250
13439SOL     OW42323   2.565   4.035   4.524 -0.2433  0.1962  0.6600
13439SOL    HW142324   2.656   4.003   4.529  0.1922  1.3244  0.2314
13439SOL    HW242325   2.519   3.987   4.593  0.9190  0.3745  1.5884
13440SOL     OW42326   0.152   8.607   7.236  0.0082 -0.0357  0.2668
13440SOL    HW142327   0.195   8.555   7.304 -0.1440 -0.7547 -0.1789
13440SOL    HW242328   0.078   8.648   7.281  0.8546  0.8351  0.9260
13441SOL     OW42329   3.344   5.580   4.882 -0.0660  0.1828 -0.3578
13441SOL    HW142330   3.405   5.534   4.824  0.4978  0.4764 -0.0040
13441SOL    HW242331   3.270   5.603   4.825  0.4621  0.4327 -0.9481
13442SOL     OW42332   9.765   2.227   2.246 -0.4254 -0.7325  0.4100
13442SOL    HW142333   9.799   2.165   2.182  0.7470 -0.5781  0.8493
13442SOL    HW242334   9.718   2.293   2.195 -1.2219 -1.6873 -0.1005
13443SOL     OW42335   9.115   2.708   5.213 -0.7170  0.3323 -0.0669
13443SOL    HW142336   9.118   2.760   5.293  0.6940 -0.8220  0.6634
13443SOL    HW242337   9.193   2.653   5.216 -1.0502 -0.3208 -1.8525
13444SOL     OW42338  10.697  10.618   6.683 -0.2923  0.6902 -0.4606
13444SOL    HW142339  10.782  10.655   6.657  0.4557 -1.7157 -1.7302
13444SOL    HW242340  10.672  10.562   6.610 -2.3689  0.3380  0.4723
13445SOL     OW42341   0.987   5.191   8.970  0.1000 -0.0298  0.2625
13445SOL    HW142342   1.048   5.237   8.912 -0.2513 -0.7476 -0.7021
13445SOL    HW242343   0.901   5.204   8.931 -0.5213  1.6713  2.0709
13446SOL     OW42344   4.016   3.344   5.011 -0.4116 -0.3267 -0.6297
13446SOL    HW142345   3.999   3.374   5.101 -0.7269 -0.8030 -0.5247
13446SOL    HW242346   4.110   3.361   4.998 -0.0318 -1.4999  0.2887
13447SOL     OW42347   0.985  10.185   9.618  0.4285  0.2211  0.3413
13447SOL    HW142348   0.965  10.278   9.610  0.3505  0.2407  0.7374
13447SOL    HW242349   0.899  10.142   9.619  0.4432  0.1972  0.7534
13448SOL     OW42350   6.660   8.224   2.466 -0.4196 -0.7334 -0.5782
13448SOL    HW142351   6.589   8.284   2.491  0.1347 -0.4078  0.2589
13448SOL    HW242352   6.738   8.279   2.465  0.0428 -1.3737 -0.1432
13449SOL     OW42353   2.695   0.341   1.859  0.8718  0.4564 -0.1643
13449SOL    HW142354   2.675   0.413   1.919 -0.9788 -0.7673  0.8033
13449SOL    HW242355   2.761   0.377   1.800 -0.1186  3.0171  0.1345
13450SOL     OW42356   2.255   8.532   2.356  0.2118  0.0742  0.0950
13450SOL    HW142357   2.339   8.569   2.328  1.7315 -3.4584 -0.6175
13450SOL    HW242358   2.258   8.537   2.452  1.3923 -0.1965  0.0923
13451SOL     OW42359   0.695   8.361   5.749  0.7622  0.6745 -0.4002
13451SOL    HW142360   0.681   8.436   5.806 -2.7221 -0.4125  0.4035
13451SOL    HW242361   0.692   8.285   5.808  1.1750 -0.2613 -1.5420
13452SOL     OW42362  10.276   3.422   5.682  0.0693  0.4766  0.3838
13452SOL    HW142363  10.294   3.427   5.776  0.3590 -0.5697  0.4019
13452SOL    HW242364  10.205   3.358   5.675  1.2831 -0.8564 -0.2292
13453SOL     OW42365   5.619   5.860   3.556 -0.2068 -0.1873  0.2949
13453SOL    HW142366   5.583   5.882   3.642 -1.0520 -0.4063  0.0004
13453SOL    HW242367   5.644   5.944   3.518 -2.8474  0.2787 -0.5755
13454SOL     OW42368   3.843  10.447   9.046 -0.2442  0.5398  0.6177
13454SOL    HW142369   3.857  10.493   9.129  0.1095 -1.6665  1.8488
13454SOL    HW242370   3.784  10.375   9.069  2.5742 -2.2458 -0.1928
13455SOL     OW42371   3.980  10.485   8.200  0.2660 -0.1131 -0.4108
13455SOL    HW142372   3.912  10.552   8.191  1.7183  1.7392  1.3102
13455SOL    HW242373   4.020  10.479   8.114 -2.4235 -1.7866 -1.6768
13456SOL     OW42374   7.315  10.059   7.739  0.2452 -0.3717 -0.0253
13456SOL    HW142375   7.296  10.135   7.795  0.6068 -0.2455 -0.0682
13456SOL    HW242376   7.268   9.987   7.780  1.2012 -0.4704  0.9442
13457SOL     OW42377  10.214   1.663   3.033  0.5558  0.8301  0.0073
13457SOL    HW142378  10.293   1.653   3.086  0.9763 -0.0797 -0.7609
13457SOL    HW242379  10.216   1.755   3.005 -0.0502  1.5203  2.0975
13458SOL     OW42380   5.462   4.030   8.003  0.1147 -0.1319 -0.1139
13458SOL    HW142381   5.469   4.060   8.094 -1.3055  1.1009 -0.3739
13458SOL    HW242382   5.421   3.944   8.009  0.7855 -0.4225  0.4463
13459SOL     OW42383   8.778   9.922   5.200  0.1551 -0.1909  0.0868
13459SOL    HW142384   8.733   9.852   5.246 -0.6823  0.5170  0.3726
13459SOL    HW242385   8.791   9.991   5.266  0.2738  0.2382 -0.3732
13460SOL     OW42386   8.841   6.340   6.777  0.0612  0.1498  0.8274
13460SOL    HW142387   8.906   6.270   6.768 -2.1009 -2.0653  1.3223
13460SOL    HW242388   8.797   6.321   6.860 -2.0351  0.8113 -0.0647
13461SOL     OW42389   2.868   5.319   7.033 -0.8075 -0.2642  0.3684
13461SOL    HW142390   2.813   5.311   6.955 -0.5247  0.1092  0.1263
13461SOL    HW242391   2.808   5.347   7.103 -1.1529 -1.0864  0.4065
13462SOL     OW42392   1.366   1.774  10.633 -0.1922  0.1818 -0.3733
13462SOL    HW142393   1.325   1.712  10.572  0.9812 -2.1118  1.0358
13462SOL    HW242394   1.301   1.785  10.702  1.2721 -3.5185  1.9006
13463SOL     OW42395   2.883   9.255   0.749 -0.5130 -0.2608  0.3561
13463SOL    HW142396   2.867   9.349   0.753  2.4907  0.3466  0.8157
13463SOL    HW242397   2.924   9.234   0.833 -2.9690 -2.4552  1.1190
13464SOL     OW42398   5.264   2.279   5.517  0.9878 -0.0947  0.3858
13464SOL    HW142399   5.220   2.214   5.571  0.3969  0.4530  0.5693
13464SOL    HW242400   5.324   2.323   5.576  0.3405  0.5052  0.6058
13465SOL     OW42401  10.728   0.741  11.203  0.2987  0.4740  0.3891
13465SOL    HW142402  10.737   0.832  11.178 -0.8956  0.6453  0.5399
13465SOL    HW242403  10.712   0.694  11.121  0.0247  0.5200  0.4174
13466SOL     OW42404   3.622   6.689   6.042  0.2074 -0.1284  0.2053
13466SOL    HW142405   3.656   6.625   5.979  1.1518 -2.4134  2.8554
13466SOL    HW242406   3.539   6.719   6.003  1.9050  0.5807 -3.2800
13467SOL     OW42407   2.912   9.868   4.419 -0.2741  0.0889  0.1314
13467SOL    HW142408   2.972   9.938   4.445 -1.4615  1.6395 -1.1608
13467SOL    HW242409   2.932   9.796   4.480  0.6403  1.6940  1.8251
13468SOL     OW42410   8.994   3.357   2.292  0.2546 -0.8427 -0.6542
13468SOL    HW142411   9.040   3.370   2.375 -0.8317  0.5259 -0.2355
13468SOL    HW242412   8.932   3.286   2.310  0.1644 -0.6905 -0.3528
13469SOL     OW42413   3.345   4.741  10.441  1.0328  0.6693  0.6495
13469SOL    HW142414   3.277   4.687  10.482  0.9163  1.1045  1.0359
13469SOL    HW242415   3.419   4.681  10.430  1.2203  0.6423  1.9031
13470SOL     OW42416   1.530   7.056   9.301 -0.0611  0.2190  1.8441
13470SOL    HW142417   1.595   6.985   9.304  1.1656  1.2497  0.8914
13470SOL    HW242418   1.565   7.117   9.236 -3.0621 -0.1975 -0.3550
13471SOL     OW42419   7.067  10.644   0.146  0.0335  0.0017  0.1558
13471SOL    HW142420   7.044  10.588   0.220  0.2263 -0.9632 -0.4977
13471SOL    HW242421   7.108  10.721   0.185  1.6422 -1.2147  0.9794
13472SOL     OW42422   0.198   0.828  10.145 -0.3280 -0.5061 -0.6177
13472SOL    HW142423   0.241   0.756  10.191  1.0193  0.7329  0.1511
13472SOL    HW242424   0.226   0.818  10.054  2.7177  0.8968  0.0133
13473SOL     OW42425   1.197   5.672   9.857 -0.3286  0.6908  0.1379
13473SOL    HW142426   1.267   5.723   9.817 -1.0395  0.5752 -1.3330
13473SOL    HW242427   1.240   5.591   9.886 -0.0459 -0.0312 -2.0679
13474SOL     OW42428   2.304  11.145   9.837  0.1650  0.0901 -0.0085
13474SOL    HW142429   2.288  11.055   9.864 -3.5993  0.2523 -1.0542
13474SOL    HW242430   2.322  11.138   9.743 -0.7900  0.4171 -0.2284
13475SOL     OW42431   3.262   9.283   5.391 -0.3200  0.1442 -0.7221
13475SOL    HW142432   3.330   9.319   5.449 -0.9187  1.2877 -0.7097
13475SOL    HW242433   3.292   9.306   5.303 -0.2226 -0.1622 -0.7676
13476SOL     OW42434   2.110   7.217   2.766 -0.0643  0.0032 -0.3933
13476SOL    HW142435   2.035   7.261   2.806  0.3215 -0.6828  1.1818
13476SOL    HW242436   2.183   7.236   2.825  1.1554  1.0725 -2.1560
13477SOL     OW42437   8.069   3.856   6.083  0.0008 -0.2027  0.4294
13477SOL    HW142438   8.060   3.851   6.178  0.7530 -0.3424  0.4972
13477SOL    HW242439   8.045   3.768   6.052 -1.1724  0.1090  0.3987
13478SOL     OW42440   4.441   3.941   7.573 -0.3513 -0.2886 -0.7145
13478SOL    HW142441   4.457   4.015   7.632 -0.2735 -0.5938 -0.3477
13478SOL    HW242442   4.519   3.937   7.519  1.2654 -2.2286  1.5567
13479SOL     OW42443   5.141   6.951   9.816 -0.8757  0.1794 -0.2694
13479SOL    HW142444   5.171   6.864   9.844 -0.4226  0.8519  1.4289
13479SOL    HW242445   5.047   6.950   9.835 -0.9347 -0.0525 -0.5632
13480SOL     OW42446   0.433   9.372   3.620  0.1310 -0.1124  0.5911
13480SOL    HW142447   0.377   9.401   3.547  0.0994 -0.2491  0.5620
13480SOL    HW242448   0.517   9.413   3.602  0.9273 -2.2873 -0.9859
13481SOL     OW42449   3.694   6.269   2.744  0.1393 -0.0235  0.0230
13481SOL    HW142450   3.767   6.219   2.782  0.2859  0.3796  0.2800
13481SOL    HW242451   3.669   6.331   2.813 -0.5133 -0.2275 -0.0318
13482SOL     OW42452   7.711   6.921   3.163 -0.1513 -0.5384 -0.4601
13482SOL    HW142453   7.736   6.917   3.255  0.2874 -0.3471 -0.5716
13482SOL    HW242454   7.793   6.911   3.115 -0.4420 -1.1303 -0.8377
13483SOL     OW42455   2.583   9.287  11.227  0.0775  0.6658 -0.2078
13483SOL    HW142456   2.560   9.315  11.315 -0.3789  3.9579 -1.2348
13483SOL    HW242457   2.520   9.331  11.170  1.4267  0.0514 -2.3049
13484SOL     OW42458   0.738   2.618   4.300  0.4535  0.6582 -0.1419
13484SOL    HW142459   0.736   2.624   4.204 -1.7465 -1.0619 -0.3005
13484SOL    HW242460   0.647   2.600   4.324  0.7090  2.2648  2.4101
13485SOL     OW42461   8.544  10.343  10.574  0.1954  0.6940  0.3190
13485SOL    HW142462   8.549  10.261  10.525  1.6615 -0.0424  1.6338
13485SOL    HW242463   8.590  10.407  10.518  1.3892 -0.0140  0.4480
13486SOL     OW42464   3.951  10.598   8.534  0.4656  0.2658 -0.4829
13486SOL    HW142465   3.858  10.585   8.549  0.2920  0.1329 -1.5922
13486SOL    HW242466   3.991  10.583   8.619 -0.6542  1.7453  0.3371
13487SOL     OW42467   2.802   0.943   7.095  0.2986  0.2422 -0.5843
13487SOL    HW142468   2.790   0.856   7.056 -0.7845 -0.1367  0.5316
13487SOL    HW242469   2.835   0.925   7.184 -1.2433  0.8948  0.1482
13488SOL     OW42470   9.451   2.445   3.063  0.1652 -0.2580 -0.7014
13488SOL    HW142471   9.449   2.458   2.968  1.1337 -0.5361 -0.7676
13488SOL    HW242472   9.513   2.374   3.077 -1.7546 -1.9098 -0.0205
13489SOL     OW42473   6.741   5.437   8.573  0.3758  0.3917  0.0441
13489SOL    HW142474   6.811   5.471   8.629 -0.3531  1.1254  0.5375
13489SOL    HW242475   6.737   5.499   8.501 -1.2296  1.6609  1.1528
13490SOL     OW42476   2.147   5.874   3.152  0.4173  0.0958  0.3162
13490SOL    HW142477   2.189   5.788   3.142  0.7251  0.3460 -0.6593
13490SOL    HW242478   2.105   5.870   3.238  3.4781  0.2798  1.9623
13491SOL     OW42479   7.783   5.286   5.754  0.3526 -0.0520 -0.6112
13491SOL    HW142480   7.865   5.289   5.703  0.2296  1.1000 -0.7653
13491SOL    HW242481   7.771   5.193   5.774  0.9490 -0.4160 -1.8110
13492SOL     OW42482   7.081  10.734   7.872  0.1108 -0.3599 -0.0948
13492SOL    HW142483   7.002  10.702   7.916 -0.8155  0.5741 -1.0164
13492SOL    HW242484   7.150  10.725   7.937 -1.1821  0.8675  1.5409
13493SOL     OW42485   2.974   0.042   7.347 -0.7149 -0.0317  0.0310
13493SOL    HW142486   2.923   0.116   7.379  2.9207  2.6042  0.4129
13493SOL    HW242487   3.002  -0.005   7.426 -0.3399  0.1758  0.0248
13494SOL     OW42488   8.526   5.668   9.245 -0.2701 -0.4613 -0.3913
13494SOL    HW142489   8.601   5.620   9.211 -0.1908  0.4248 -1.5283
13494SOL    HW242490   8.560   5.717   9.320  0.7175  1.1664 -1.8348
13495SOL     OW42491   7.661   2.725   3.052  0.1822  0.1604 -0.6984
13495SOL    HW142492   7.596   2.790   3.076 -0.3014 -1.0603  1.5928
13495SOL    HW242493   7.727   2.730   3.121  0.7056 -0.9836 -1.0804
13496SOL     OW42494   0.038   8.696  10.226 -0.1085 -0.3322 -0.1594
13496SOL    HW142495   0.074   8.616  10.263 -0.9015 -0.3630  0.6071
13496SOL    HW242496  -0.033   8.667  10.169  1.2810 -0.2976 -1.9829
13497SOL     OW42497   1.939  11.098   8.066 -0.3039  0.5349  0.5425
13497SOL    HW142498   1.852  11.060   8.068 -0.9512  1.9384  2.2584
13497SOL    HW242499   1.994  11.034   8.111  0.4499 -2.0106 -3.4543
13498SOL     OW42500   9.229   7.132  10.635 -0.1567 -0.5140  0.0797
13498SOL    HW142501   9.289   7.115  10.708  0.3077  1.3886  0.1877
13498SOL    HW242502   9.273   7.198  10.582 -1.7077  0.1661 -0.4120
13499SOL     OW42503   6.886   0.191   7.042  0.2940  0.2620 -0.6617
13499SOL    HW142504   6.890   0.225   6.952 -0.4261  3.0997  0.2612
13499SOL    HW242505   6.901   0.268   7.097  1.6067 -1.5460  1.6884
13500SOL     OW42506   1.276   4.420   5.043  0.8350  0.5304  0.1163
13500SOL    HW142507   1.225   4.500   5.053 -0.4116 -0.1022 -0.8386
13500SOL    HW242508   1.229   4.355   5.096  1.9838  0.4622  1.1043
13501SOL     OW42509   2.268   6.867   3.279  0.8805  0.4522 -0.7977
13501SOL    HW142510   2.237   6.796   3.336 -0.1729  1.0048 -0.6516
13501SOL    HW242511   2.188   6.914   3.255  1.2802  0.2473 -2.7397
13502SOL     OW42512   8.317   5.935   0.140 -1.4801 -0.2096  0.4703
13502SOL    HW142513   8.282   5.899   0.221 -0.2241 -2.1468  0.2267
13502SOL    HW242514   8.412   5.928   0.151 -1.2643  0.6558 -0.6833
13503SOL     OW42515   9.344   5.913   1.511  0.1540 -0.0031  0.0100
13503SOL    HW142516   9.346   5.966   1.431  0.6363  0.6801  0.4674
13503SOL    HW242517   9.292   5.965   1.573  2.6893  1.1733  1.2913
13504SOL     OW42518   4.228   5.734   1.892  0.0478 -0.6966 -0.1250
13504SOL    HW142519   4.165   5.670   1.859 -0.1604 -0.8723  0.5974
13504SOL    HW242520   4.174   5.806   1.926  0.2876  0.1533 -1.4593
13505SOL     OW42521   1.094   3.612   2.254  0.3990 -0.2216 -0.0537
13505SOL    HW142522   1.136   3.637   2.171 -2.1565  0.4274 -1.2577
13505SOL    HW242523   1.037   3.686   2.275  0.7259 -0.5359  2.1302
13506SOL     OW42524   2.466   0.981   1.497  0.0618 -0.0722  0.1796
13506SOL    HW142525   2.462   0.961   1.404 -0.2036 -0.2299  0.2254
13506SOL    HW242526   2.507   1.067   1.501  2.0146 -0.9388  0.0256
13507SOL     OW42527   4.836   2.685   3.809  0.7303  0.4412  0.3542
13507SOL    HW142528   4.749   2.646   3.815  0.2311  1.4637 -0.1010
13507SOL    HW242529   4.840   2.721   3.721  1.4753  0.7285  0.4986
13508SOL     OW42530  11.124   6.797   5.540  0.7387  0.3638  0.1554
13508SOL    HW142531  11.034   6.816   5.513  0.2902  0.2239  1.4942
13508SOL    HW242532  11.165   6.883   5.547  0.5602  0.4592  0.0464
13509SOL     OW42533   2.727   6.338   7.101 -0.3690 -0.2866 -0.0761
13509SOL    HW142534   2.800   6.277   7.089 -0.0797 -0.4662  2.1347
13509SOL    HW242535   2.754   6.393   7.174 -1.8330  0.6555 -0.2079
13510SOL     OW42536   3.706   8.020   8.164  0.0798 -0.3898 -0.1014
13510SOL    HW142537   3.731   8.077   8.091 -1.3345 -1.1468 -1.2311
13510SOL    HW242538   3.610   8.019   8.161 -0.0422 -4.9172 -1.9376
13511SOL     OW42539   3.062   8.379   0.051 -0.1577  0.2781 -0.1115
13511SOL    HW142540   3.154   8.387   0.075 -0.1528 -0.3929  0.1157
13511SOL    HW242541   3.062   8.316  -0.021 -0.4135  0.4537 -0.2644
13512SOL     OW42542   7.498  10.465   9.924 -0.0613  0.4990 -0.4345
13512SOL    HW142543   7.482  10.545   9.875  1.1337  0.1425 -1.4541
13512SOL    HW242544   7.467  10.395   9.866  3.5123 -0.1134 -1.8541
13513SOL     OW42545  10.351   3.516  11.160 -0.2268  0.0449 -0.0740
13513SOL    HW142546  10.345   3.592  11.103  0.8039  0.9666  1.0002
13513SOL    HW242547  10.386   3.447  11.104 -0.2989  0.6129 -0.8307
13514SOL     OW42548   7.057   3.739   7.533 -0.3893 -0.4676  0.2780
13514SOL    HW142549   7.126   3.674   7.524 -1.6525 -1.7311 -0.7277
13514SOL    HW242550   6.980   3.699   7.492 -1.8699  0.6869  1.7758
13515SOL     OW42551   6.904   5.961   8.852  0.2172  0.0443  0.0548
13515SOL    HW142552   6.836   5.894   8.840 -0.1379  0.1478  1.2706
13515SOL    HW242553   6.964   5.949   8.778 -1.4827  0.4092 -1.4485
13516SOL     OW42554   6.640   2.693   3.236 -0.4581  0.1489  0.0494
13516SOL    HW142555   6.615   2.786   3.241 -0.2368  0.1688  0.8104
13516SOL    HW242556   6.723   2.688   3.282 -0.3338 -0.3865 -0.2295
13517SOL     OW42557   3.033   2.592   8.410 -0.1714  0.0893  0.1888
13517SOL    HW142558   2.994   2.527   8.351  1.4221 -1.9355  1.2102
13517SOL    HW242559   3.065   2.661   8.352 -1.0671 -0.5133 -1.0565
13518SOL     OW42560   4.532   0.755   9.887  0.4811  0.0691 -0.8326
13518SOL    HW142561   4.558   0.732   9.798  1.4252 -2.2838 -0.0404
13518SOL    HW242562   4.438   0.736   9.891  0.2091  1.1974 -1.5885
13519SOL     OW42563  10.344   9.783   5.571  0.4307  0.2329  0.0935
13519SOL    HW142564  10.347   9.878   5.563 -0.7600  0.3088  0.3642
13519SOL    HW242565  10.338   9.751   5.481 -0.3934  0.4911  0.0428
13520SOL     OW42566   9.736   2.032   4.151  0.6133  0.0783  0.0190
13520SOL    HW142567   9.749   1.964   4.218  2.3815  1.4347  1.1386
13520SOL    HW242568   9.820   2.039   4.107 -0.0411  0.4147 -1.2375
13521SOL     OW42569   1.006   8.387   2.433 -0.1258 -0.1926 -0.1311
13521SOL    HW142570   1.036   8.470   2.395 -0.4921  0.3082  0.6527
13521SOL    HW242571   0.926   8.410   2.481 -0.4403 -1.0728 -0.2145
13522SOL     OW42572  11.253   2.228   9.581  0.0643 -0.7351  0.4332
13522SOL    HW142573  11.171   2.219   9.630 -0.6004  1.1297 -0.2698
13522SOL    HW242574  11.306   2.288   9.633 -0.5255  1.0168 -0.9012
13523SOL     OW42575   3.923   3.043   0.703  0.0606  0.2018 -0.0161
13523SOL    HW142576   3.911   2.990   0.782  0.8172  1.6992  1.1529
13523SOL    HW242577   3.986   2.993   0.651 -0.1475 -0.6235  0.4896
13524SOL     OW42578   8.663   4.105   3.289 -0.5800  0.5142  0.1034
13524SOL    HW142579   8.619   4.081   3.371  2.1608  0.0788  1.5723
13524SOL    HW242580   8.607   4.068   3.221 -2.4120 -0.0613  1.8060
13525SOL     OW42581   5.594   1.221   6.813 -0.1490 -0.7469 -0.5685
13525SOL    HW142582   5.567   1.130   6.818 -0.2259 -0.6721  0.9404
13525SOL    HW242583   5.560   1.252   6.730  0.3712 -2.2376 -1.3705
13526SOL     OW42584   4.979   2.895   0.037 -0.5584 -0.3595 -0.3486
13526SOL    HW142585   5.055   2.846   0.005 -0.5862  0.8652 -2.4678
13526SOL    HW242586   5.012   2.983   0.055 -1.0556 -0.3867  0.7764
13527SOL     OW42587   0.925   7.998   5.677  0.1156  0.0354 -0.1011
13527SOL    HW142588   0.872   8.066   5.635 -0.1675  0.8459  1.4858
13527SOL    HW242589   1.016   8.025   5.662  0.0050  0.7730  0.4816
13528SOL     OW42590   9.949  10.423   1.088  0.2953 -0.4491 -0.0437
13528SOL    HW142591   9.948  10.470   1.005  0.1000 -0.3558  0.0126
13528SOL    HW242592   9.909  10.483   1.150  1.3310 -0.1260  0.3300
13529SOL     OW42593  10.269   2.413   5.406  0.0051 -0.2266 -0.2726
13529SOL    HW142594  10.205   2.475   5.442  1.6661 -0.0952  2.8380
13529SOL    HW242595  10.217   2.338   5.378 -1.7346  1.0175 -0.4999
13530SOL     OW42596  10.219   4.422   1.252 -0.1688  0.1863 -0.0718
13530SOL    HW142597  10.282   4.350   1.251  1.0728  1.1608  1.7933
13530SOL    HW242598  10.133   4.380   1.256  0.4439 -1.1677 -0.7319
13531SOL     OW42599   8.775   7.063   9.384  0.1668  0.4326 -0.4552
13531SOL    HW142600   8.697   7.014   9.356  0.7652 -0.3102 -0.8686
13531SOL    HW242601   8.799   7.023   9.468 -0.3179  1.1557  0.0358
13532SOL     OW42602   1.632   8.105  10.499  0.1656  0.9346  0.2369
13532SOL    HW142603   1.652   8.189  10.459 -0.1982  0.4840 -0.9410
13532SOL    HW242604   1.692   8.098  10.573  1.4884  1.4191 -0.7508
13533SOL     OW42605   4.832  10.502   9.229 -0.1687  0.0111 -0.1922
13533SOL    HW142606   4.898  10.438   9.202 -1.2316 -1.5929  0.9093
13533SOL    HW242607   4.822  10.559   9.152  0.1511 -1.6852 -1.5446
13534SOL     OW42608   5.018   4.837  10.528 -0.0083 -0.6090 -0.5190
13534SOL    HW142609   5.092   4.890  10.498  0.5583 -0.6963  0.6555
13534SOL    HW242610   5.058   4.768  10.581 -0.9458 -0.4558  0.4228
13535SOL     OW42611  11.149   3.801   7.202 -0.4626 -0.0709 -0.0372
13535SOL    HW142612  11.223   3.774   7.147 -1.0082  0.7966 -1.2640
13535SOL    HW242613  11.112   3.876   7.155 -1.6899 -0.0558  0.9267
13536SOL     OW42614   5.483   7.157  11.234 -0.0164  0.4529 -0.9014
13536SOL    HW142615   5.541   7.181  11.306  0.9588  0.4123 -1.6365
13536SOL    HW242616   5.403   7.125  11.276  0.0430  1.5952  0.1279
13537SOL     OW42617   4.568   3.632   3.841 -0.2456 -0.6220 -0.2982
13537SOL    HW142618   4.548   3.576   3.766  1.4299 -0.5379 -0.8530
13537SOL    HW242619   4.602   3.571   3.908 -0.6568 -0.5509 -0.0200
13538SOL     OW42620   4.249   4.478   7.375  0.7889  0.3068 -0.3631
13538SOL    HW142621   4.318   4.471   7.309 -1.3220 -0.9771 -2.5966
13538SOL    HW242622   4.173   4.509   7.326 -0.4204  1.0146  1.8640
13539SOL     OW42623   4.138   2.098   5.741  0.2358 -0.0874 -0.0509
13539SOL    HW142624   4.129   2.006   5.767  0.3134  0.1956  0.9799
13539SOL    HW242625   4.114   2.098   5.648  0.1508 -1.1347 -0.0432
13540SOL     OW42626   8.759  10.811   3.801 -0.0841  0.1159  0.2337
13540SOL    HW142627   8.805  10.891   3.776  1.2602 -0.4643  0.7083
13540SOL    HW242628   8.786  10.795   3.891  2.7731 -2.8155 -0.9145
13541SOL     OW42629   4.998  10.490   6.024 -0.5015 -0.5253 -0.3443
13541SOL    HW142630   5.077  10.457   6.065 -1.0443 -0.6039  0.6753
13541SOL    HW242631   4.939  10.509   6.097 -1.1509  0.2342 -1.0396
13542SOL     OW42632   6.705   0.384   2.303  0.0868 -0.1958 -0.0561
13542SOL    HW142633   6.670   0.402   2.390  0.6751 -0.4177  0.2335
13542SOL    HW242634   6.701   0.289   2.295  0.6652 -0.2298  0.0042
13543SOL     OW42635   6.245   5.641   4.611  0.1044 -0.6882  0.3081
13543SOL    HW142636   6.262   5.727   4.651 -0.1081 -0.9569  0.9986
13543SOL    HW242637   6.189   5.596   4.675 -3.2985  0.1518 -1.7720
13544SOL     OW42638   0.609   4.458   8.709 -0.1835 -0.2065 -0.6494
13544SOL    HW142639   0.697   4.425   8.727 -0.1305 -0.6132 -1.5980
13544SOL    HW242640   0.622   4.550   8.688 -0.2118  0.2044  0.9957
13545SOL     OW42641   6.624   4.843   1.959  0.2169 -0.4759  0.2478
13545SOL    HW142642   6.695   4.779   1.962 -0.5600 -1.5377 -1.6859
13545SOL    HW242643   6.595   4.841   1.867  0.0014  2.5234  0.1753
13546SOL     OW42644   1.883   6.274  10.776 -0.0452 -0.5161  0.0717
13546SOL    HW142645   1.827   6.341  10.817  0.1323  0.0546 -0.5997
13546SOL    HW242646   1.964   6.321  10.755 -0.5266 -0.4956 -1.9311
13547SOL     OW42647   5.156   5.443   2.283 -0.4769 -0.0155  0.6833
13547SOL    HW142648   5.246   5.464   2.306 -0.4664  0.2591  0.3985
13547SOL    HW242649   5.143   5.482   2.196 -0.3158 -1.5904 -0.0806
13548SOL     OW42650   2.266   8.264   2.285  0.1373  0.7253  0.1110
13548SOL    HW142651   2.232   8.353   2.290  0.3948  0.9528 -1.7277
13548SOL    HW242652   2.221   8.225   2.210 -0.5576 -0.9729  1.3387
13549SOL     OW42653   9.314   6.719   0.100  0.6988  0.6106 -0.4674
13549SOL    HW142654   9.289   6.639   0.146  1.0434  1.2793  0.9304
13549SOL    HW242655   9.310   6.695   0.007  2.2152 -1.4628 -0.0693
13550SOL     OW42656   7.205  10.000   9.247  0.4124 -0.4742 -0.0132
13550SOL    HW142657   7.242  10.082   9.215  1.3573 -0.8467  0.0752
13550SOL    HW242658   7.214   9.939   9.174  0.2053 -0.6379  0.0971
13551SOL     OW42659   2.402   9.118   7.387 -0.2433 -0.0631  0.3329
13551SOL    HW142660   2.342   9.044   7.382  0.2900 -0.4882  0.0398
13551SOL    HW242661   2.425   9.136   7.295  1.2765 -0.9247  0.4974
13552SOL     OW42662   5.307   1.995   5.402  0.2450 -0.7996 -0.2908
13552SOL    HW142663   5.286   2.082   5.434  2.4015 -0.6711  0.9372
13552SOL    HW242664   5.319   2.007   5.307  2.0038  0.5859  0.0648
13553SOL     OW42665   1.153   6.488   3.409  0.3448 -0.0092  0.0899
13553SOL    HW142666   1.132   6.410   3.459  1.1656  0.1544  0.7238
13553SOL    HW242667   1.083   6.496   3.345 -1.4814  0.5164  2.0655
13554SOL     OW42668   1.662   9.770   1.357  1.1729 -0.3415 -0.3880
13554SOL    HW142669   1.726   9.825   1.402 -0.3487  0.9744  0.2840
13554SOL    HW242670   1.657   9.806   1.268 -3.2671  4.1468  1.2020
13555SOL     OW42671   2.475  10.912   1.898  0.3022  0.2037  0.3488
13555SOL    HW142672   2.416  10.973   1.854  1.1302  0.7913  0.0412
13555SOL    HW242673   2.554  10.912   1.845  0.8885  0.0455  1.1989
13556SOL     OW42674   8.010   5.968  11.101 -0.0695  0.4585  0.2942
13556SOL    HW142675   7.930   5.983  11.152 -0.4031  0.1947 -0.1373
13556SOL    HW242676   8.005   6.031  11.029  0.8965  1.5198  1.1256
13557SOL     OW42677  10.676   9.558   4.715 -0.3163 -0.7615  0.0182
13557SOL    HW142678  10.685   9.628   4.780  3.6480 -1.3484  0.3510
13557SOL    HW242679  10.630   9.600   4.642  0.7885  1.8629  0.6901
13558SOL     OW42680   2.960   2.927   0.137  0.5312  0.0694  0.1949
13558SOL    HW142681   2.925   2.984   0.205 -0.4238  0.4258 -0.5724
13558SOL    HW242682   3.055   2.927   0.152  0.7455  3.0049 -0.6204
13559SOL     OW42683   0.753   2.044   8.693  0.5020  0.1357 -0.5608
13559SOL    HW142684   0.821   2.091   8.741  0.5330  0.1682 -0.6355
13559SOL    HW242685   0.782   2.048   8.602 -0.9564  2.6028 -1.0325
13560SOL     OW42686   5.120  10.077   8.567 -0.0753 -0.5786  0.1448
13560SOL    HW142687   5.121  10.026   8.486  0.0301  0.8440 -0.7775
13560SOL    HW242688   5.204  10.123   8.569 -0.4582  0.1245  0.5855
13561SOL     OW42689  10.445   9.049   8.452 -0.1541  0.5095  0.3451
13561SOL    HW142690  10.423   9.121   8.511  0.6798  1.4870 -0.4945
13561SOL    HW242691  10.537   9.031   8.470  0.2472  1.1389 -0.9415
13562SOL     OW42692   6.692   2.003   0.128 -0.5917  0.2804 -0.0241
13562SOL    HW142693   6.636   1.931   0.100  2.3086 -2.3537  0.4671
13562SOL    HW242694   6.728   2.038   0.047 -0.2840 -0.3404 -0.1609
13563SOL     OW42695   1.473   0.700   4.344  0.4952 -0.1571  0.4997
13563SOL    HW142696   1.394   0.696   4.399 -0.2784  0.5544 -0.5276
13563SOL    HW242697   1.444   0.673   4.257  1.2350  0.6895 -0.0330
13564SOL     OW42698   4.188   1.594   4.527  0.1210 -0.1145 -0.4855
13564SOL    HW142699   4.174   1.654   4.600 -0.0292 -0.9846  0.2209
13564SOL    HW242700   4.158   1.509   4.559  0.8526 -0.6879 -1.2575
13565SOL     OW42701   1.483   1.765   1.794 -0.4029  0.2061 -0.1707
13565SOL    HW142702   1.432   1.727   1.866  0.0396 -2.8105 -1.3086
13565SOL    HW242703   1.426   1.757   1.717  0.5247 -0.1305 -0.8369
13566SOL     OW42704   6.321   0.476   2.699 -0.0588  0.3091  0.0020
13566SOL    HW142705   6.329   0.395   2.649  1.3684  0.5207 -0.1484
13566SOL    HW242706   6.238   0.467   2.745 -0.7951 -0.4430 -1.4021
13567SOL     OW42707   3.938   2.245   5.359 -0.5489  1.0532  0.1969
13567SOL    HW142708   3.924   2.195   5.279  0.4059  3.8113 -1.8432
13567SOL    HW242709   3.885   2.323   5.349 -0.5889  1.3799  2.4161
13568SOL     OW42710   2.147   4.791   2.474 -0.2863  0.9205  0.1465
13568SOL    HW142711   2.090   4.717   2.454 -1.2591  1.8541 -0.6198
13568SOL    HW242712   2.106   4.866   2.431  0.9151  1.8331  0.5313
13569SOL     OW42713   4.169  10.784   3.304 -0.0882 -0.2011  0.1074
13569SOL    HW142714   4.162  10.707   3.248 -2.3219 -0.8395  1.1501
13569SOL    HW242715   4.171  10.749   3.393  0.4904  0.8904  0.5431
13570SOL     OW42716   9.830   6.681   0.167  0.2913 -0.4476  0.0730
13570SOL    HW142717   9.742   6.708   0.192  0.4173 -0.2871  0.3412
13570SOL    HW242718   9.849   6.730   0.087 -0.1323 -1.0028 -0.3681
13571SOL     OW42719   3.072   6.280   4.817 -0.2908 -0.1872  0.7323
13571SOL    HW142720   3.140   6.341   4.788  0.5373 -1.4751 -0.1213
13571SOL    HW242721   3.087   6.271   4.911 -0.7058  1.2245  0.9672
13572SOL     OW42722   5.070  10.269   0.137  0.3799 -0.3393  0.4103
13572SOL    HW142723   5.088  10.293   0.227  2.4531  0.8183 -0.2564
13572SOL    HW242724   4.999  10.327   0.110 -0.7972 -1.2308  1.4877
13573SOL     OW42725   6.627   3.347   4.327 -0.3975 -0.1696 -0.2363
13573SOL    HW142726   6.615   3.390   4.411  1.3654 -2.1954  1.1334
13573SOL    HW242727   6.591   3.260   4.339 -1.1190 -0.1640 -1.9816
13574SOL     OW42728   1.058   6.282   8.469  0.1774  0.5642 -0.2346
13574SOL    HW142729   1.113   6.284   8.547  0.1825 -2.5904 -0.0204
13574SOL    HW242730   0.991   6.348   8.486  2.3141  2.6631  0.6611
13575SOL     OW42731   3.142   5.029   0.998 -0.4530  0.6295  0.0485
13575SOL    HW142732   3.166   5.016   0.907 -0.6983  2.1294 -0.2595
13575SOL    HW242733   3.216   5.077   1.036  0.5204 -1.6011  1.1772
13576SOL     OW42734   7.388   6.820   1.732  0.2086 -0.2888  0.1752
13576SOL    HW142735   7.357   6.908   1.752  1.2090 -0.0957  0.9483
13576SOL    HW242736   7.467   6.810   1.784  0.6593 -1.2817 -0.6596
13577SOL     OW42737   8.431   0.753   8.496 -0.4443  0.6854 -0.0018
13577SOL    HW142738   8.340   0.745   8.468  0.0211  1.9646 -2.1201
13577SOL    HW242739   8.482   0.743   8.415  1.5972 -3.2736  1.5154
13578SOL     OW42740   4.893   4.104   6.193  0.8114 -0.0766 -0.3318
13578SOL    HW142741   4.903   4.194   6.162  0.7664  1.0330  2.6098
13578SOL    HW242742   4.959   4.055   6.145  0.6877  1.4317 -2.1680
13579SOL     OW42743   0.788   1.441   5.538  0.3037 -0.3099 -0.2074
13579SOL    HW142744   0.762   1.533   5.538  0.3068 -0.2608 -2.6562
13579SOL    HW242745   0.720   1.397   5.488  0.1298 -1.7440  1.2098
13580SOL     OW42746   0.054   8.150   4.645  1.0951 -0.0635 -0.4185
13580SOL    HW142747   0.032   8.121   4.733 -0.2895  1.2540 -0.3084
13580SOL    HW242748   0.086   8.240   4.656 -1.3299  1.0105 -1.4416
13581SOL     OW42749   5.305   8.283   2.735  0.0604 -0.3662  0.2844
13581SOL    HW142750   5.241   8.323   2.676 -0.7942 -0.7333  0.9588
13581SOL    HW242751   5.255   8.222   2.789  1.2484 -2.0831 -0.4328
13582SOL     OW42752   8.015   9.336   8.523 -0.0487 -0.3092 -0.4544
13582SOL    HW142753   8.035   9.300   8.437 -0.2487 -2.5914  0.4005
13582SOL    HW242754   8.034   9.265   8.585  1.6283  1.7493  1.5896
13583SOL     OW42755   6.628   2.257   5.086 -0.0213 -0.2032  0.4387
13583SOL    HW142756   6.662   2.314   5.155  2.3192  0.0668 -0.8443
13583SOL    HW242757   6.705   2.228   5.038 -1.5653  0.2518 -2.5919
13584SOL     OW42758   6.685   1.558  10.106 -0.0653  0.1239 -0.0090
13584SOL    HW142759   6.694   1.641  10.058 -0.8509 -0.0952 -0.5711
13584SOL    HW242760   6.623   1.578  10.176 -1.0353 -0.2079 -0.7418
13585SOL     OW42761   3.848  11.020   0.854 -0.2072 -0.0716 -0.2379
13585SOL    HW142762   3.943  11.014   0.865 -0.1746 -0.9103 -0.8832
13585SOL    HW242763   3.835  11.033   0.760 -0.7118  0.6868 -0.0693
13586SOL     OW42764   2.688   1.322   4.565  0.1039  0.7127 -0.4928
13586SOL    HW142765   2.755   1.369   4.515  0.9381  0.1786  0.0904
13586SOL    HW242766   2.660   1.250   4.508  0.3428  0.6799 -0.5678
13587SOL     OW42767   4.700   6.223   0.516 -0.2149  0.7945 -0.3418
13587SOL    HW142768   4.681   6.225   0.423 -0.5715 -0.0547 -0.3041
13587SOL    HW242769   4.633   6.279   0.556 -1.8612 -1.0350 -0.3516
13588SOL     OW42770   2.006   7.684   1.839  0.4253  0.0241 -0.6020
13588SOL    HW142771   2.018   7.757   1.900 -1.2411  1.0509 -1.4191
13588SOL    HW242772   2.094   7.652   1.822  1.1305  1.3080  0.4493
13589SOL     OW42773   4.857   0.240   3.725 -0.2336  0.3735  0.5839
13589SOL    HW142774   4.844   0.185   3.647 -2.8455  2.2703 -0.4844
13589SOL    HW242775   4.933   0.295   3.703 -1.5448  1.6103 -1.1954
13590SOL     OW42776  11.208   2.573   8.478  0.5205 -0.9775  0.0110
13590SOL    HW142777  11.139   2.631   8.509  0.3730 -2.1628  2.0822
13590SOL    HW242778  11.288   2.625   8.487  0.3558 -0.9300  1.5376
13591SOL     OW42779  11.176   5.142   7.375  0.2510 -0.4673 -0.1534
13591SOL    HW142780  11.188   5.205   7.304 -0.4199 -0.6560 -0.4494
13591SOL    HW242781  11.083   5.119   7.371  0.1907 -0.4427  0.8289
13592SOL     OW42782   8.767   6.768   5.500  0.8867  0.2798  0.7055
13592SOL    HW142783   8.779   6.700   5.566  0.4115  0.4723  0.9913
13592SOL    HW242784   8.679   6.803   5.516  0.5407 -0.0435 -0.3633
13593SOL     OW42785   3.517  10.682   9.389 -0.3662  0.9292  0.5631
13593SOL    HW142786   3.489  10.672   9.299 -2.0761  4.7257  0.4918
13593SOL    HW242787   3.437  10.673   9.441  0.5131 -0.7503  1.7455
13594SOL     OW42788   2.622   2.901   0.816 -0.7891  0.1572  0.3331
13594SOL    HW142789   2.593   2.858   0.735 -0.0255  0.8804 -0.3347
13594SOL    HW242790   2.567   2.861   0.884  0.4441 -2.5031 -0.1030
13595SOL     OW42791   5.505  10.781   9.566  0.1817 -0.5156  0.2624
13595SOL    HW142792   5.544  10.743   9.488 -1.6608 -0.2280 -0.8521
13595SOL    HW242793   5.562  10.855   9.587  0.5304 -0.3983 -0.9966
13596SOL     OW42794  10.471   8.680   5.277 -0.0772 -0.3493  0.4984
13596SOL    HW142795  10.477   8.740   5.351 -0.2431  1.0644 -0.5831
13596SOL    HW242796  10.498   8.595   5.312  1.3167  0.5891  1.8028
13597SOL     OW42797   2.613   7.124   4.797 -0.5735  0.2387 -0.1792
13597SOL    HW142798   2.604   7.052   4.860  0.3796 -0.0328 -0.3362
13597SOL    HW242799   2.701   7.113   4.761 -1.0390  0.4821 -1.4375
13598SOL     OW42800   2.949   1.245   2.220 -0.2744  0.1423  0.1668
13598SOL    HW142801   2.862   1.205   2.230  0.0874 -0.7629 -0.2411
13598SOL    HW242802   2.999   1.181   2.169  1.4569 -0.6097  2.6306
13599SOL     OW42803  10.665   8.096   9.918  0.2614  0.4564  0.3009
13599SOL    HW142804  10.577   8.117   9.950  0.5228 -1.3340  2.3722
13599SOL    HW242805  10.654   8.085   9.823 -1.9090 -0.5072  0.6187
13600SOL     OW42806   8.521  11.032   9.284  0.0816  0.0242  0.0065
13600SOL    HW142807   8.491  11.009   9.196  0.6847 -3.1896  0.5007
13600SOL    HW242808   8.480  11.116   9.303 -1.9535 -0.3083 -2.4327
13601SOL     OW42809   2.666   3.948   3.887  0.5586  0.6235 -0.1357
13601SOL    HW142810   2.592   4.009   3.884 -0.5581 -0.7117 -1.1317
13601SOL    HW242811   2.701   3.957   3.975  2.2083  4.6641 -0.9598
13602SOL     OW42812  10.026   9.717   2.227  0.1193  0.4817  0.6232
13602SOL    HW142813   9.977   9.655   2.281 -1.0385 -1.4621 -2.4362
13602SOL    HW242814   9.964   9.787   2.207 -1.4964 -1.7236 -2.8276
13603SOL     OW42815   8.160   8.237   5.078 -0.0156 -0.2949  0.4061
13603SOL    HW142816   8.247   8.272   5.099  0.1436 -0.5888  0.2576
13603SOL    HW242817   8.162   8.226   4.983  0.5967 -2.3511  0.5921
13604SOL     OW42818   8.499   6.067   9.043  0.5771 -0.6045 -0.0830
13604SOL    HW142819   8.591   6.041   9.043  1.4601  2.1141  0.7867
13604SOL    HW242820   8.480   6.090   9.134 -0.5220  0.2653 -0.5052
13605SOL     OW42821   0.867  10.174   7.340 -0.2493  0.2820 -0.4270
13605SOL    HW142822   0.891  10.255   7.294 -1.4981  0.9882  0.0994
13605SOL    HW242823   0.900  10.187   7.429  2.4817 -1.2324 -1.1006
13606SOL     OW42824   1.347   4.015   9.007  0.0779 -0.3377  0.1604
13606SOL    HW142825   1.380   4.025   8.918  0.7878 -2.4882  0.1262
13606SOL    HW242826   1.269   3.960   8.998  1.7424 -3.0344  1.0336
13607SOL     OW42827   5.859  10.581   9.923  0.0310  0.4062  0.7518
13607SOL    HW142828   5.919  10.622   9.861 -1.4769 -1.0343 -1.7969
13607SOL    HW242829   5.778  10.632   9.915 -0.1221  0.3413  1.7466
13608SOL     OW42830   5.149   7.868   6.666 -0.3695  0.4857 -0.1937
13608SOL    HW142831   5.133   7.915   6.585  1.5157 -0.1883 -1.0074
13608SOL    HW242832   5.242   7.846   6.663 -0.8699 -2.0500  0.8038
13609SOL     OW42833   4.626   0.306   9.008  0.6416  0.3840  0.4637
13609SOL    HW142834   4.556   0.324   8.946  2.5828  2.4602 -1.3166
13609SOL    HW242835   4.663   0.223   8.978 -1.1714 -0.9313  1.6523
13610SOL     OW42836   1.536   6.119  10.887  0.5940  0.3380  0.2218
13610SOL    HW142837   1.447   6.147  10.866 -0.1628 -1.7562  0.4295
13610SOL    HW242838   1.526   6.063  10.965  1.9412 -0.6929 -0.3027
13611SOL     OW42839  10.486   7.341   4.435  0.5632  0.1498 -0.4278
13611SOL    HW142840  10.430   7.306   4.504  2.2897 -0.4018  0.7368
13611SOL    HW242841  10.558   7.279   4.428  1.3127  1.0953 -1.5452
13612SOL     OW42842   1.145  11.113   7.026 -0.0245  0.3820 -0.0346
13612SOL    HW142843   1.182  11.189   6.982  1.6005  0.3199  1.1271
13612SOL    HW242844   1.210  11.044   7.014  0.5955  0.3977  2.4907
13613SOL     OW42845   0.800   8.247   7.663 -0.5563 -0.2214  0.0733
13613SOL    HW142846   0.842   8.246   7.577 -1.0270  0.7547 -0.1909
13613SOL    HW242847   0.863   8.205   7.721 -0.3054 -1.0681 -0.7735
13614SOL     OW42848   4.114   0.971   6.811  1.2604  0.1297 -0.1095
13614SOL    HW142849   4.020   0.973   6.825  0.9020  2.2960 -2.2660
13614SOL    HW242850   4.130   0.888   6.766  0.4712 -0.4539  0.6626
13615SOL     OW42851   8.147   5.531   7.230 -0.4075  1.1488  0.5411
13615SOL    HW142852   8.179   5.621   7.232  0.2125  0.9367  0.3414
13615SOL    HW242853   8.104   5.519   7.315 -0.2625  1.5484  0.6747
13616SOL     OW42854   1.373   7.164  11.030  0.2217 -0.0033  0.5943
13616SOL    HW142855   1.378   7.093  10.966 -1.6949  1.3936 -1.2272
13616SOL    HW242856   1.435   7.229  10.998  1.5468 -0.5439  1.9448
13617SOL     OW42857   1.943  10.195  11.273  0.7689  0.3282 -0.3252
13617SOL    HW142858   1.933  10.102  11.290 -0.0923  0.4496 -0.1637
13617SOL    HW242859   2.031  10.203  11.236  0.3193 -0.7453 -1.6939
13618SOL     OW42860   5.375   3.894   2.057  0.0429 -0.0135  0.1557
13618SOL    HW142861   5.471   3.898   2.060  0.0029  0.5577  0.8101
13618SOL    HW242862   5.356   3.801   2.047  0.7216  0.0801 -2.9422
13619SOL     OW42863   5.982   9.547   0.854 -0.0883 -0.2316 -0.4822
13619SOL    HW142864   6.002   9.541   0.760  0.1227  0.1159 -0.4647
13619SOL    HW242865   5.956   9.459   0.879  2.1109 -0.9134 -0.3688
13620SOL     OW42866   4.107   7.464   3.716  0.5390  0.3558 -0.4446
13620SOL    HW142867   4.063   7.473   3.800  0.3991  0.2117 -0.5026
13620SOL    HW242868   4.198   7.491   3.734  0.8149 -0.8241  0.0472
13621SOL     OW42869  10.416   4.647  10.856  0.1474  0.0914 -0.3193
13621SOL    HW142870  10.472   4.706  10.806 -1.2717  0.4665 -1.5451
13621SOL    HW242871  10.433   4.561  10.819  0.9939 -0.0365  0.3395
13622SOL     OW42872   3.340   9.005   7.078  0.4792 -0.5322  0.4290
13622SOL    HW142873   3.294   8.982   7.159 -0.2177  1.0524  0.5064
13622SOL    HW242874   3.273   9.044   7.023 -0.0176 -4.7108 -2.4558
13623SOL     OW42875   2.785   5.853   1.934  0.1173 -0.3474  0.5483
13623SOL    HW142876   2.742   5.810   2.008  1.3216 -0.4362  1.2180
13623SOL    HW242877   2.801   5.943   1.964  0.1907 -0.2491  0.2217
13624SOL     OW42878   5.038   0.011   7.539 -0.7346  0.3714  0.3636
13624SOL    HW142879   5.103  -0.056   7.559 -1.1639  0.6138  3.0281
13624SOL    HW242880   4.989  -0.024   7.465  1.4001 -0.5023 -0.7379
13625SOL     OW42881   7.073   7.150   0.180 -0.1677 -0.2594  0.7538
13625SOL    HW142882   6.999   7.159   0.119  0.1990  1.1116  0.4665
13625SOL    HW242883   7.146   7.124   0.125 -0.5117 -2.1879  1.1211
13626SOL     OW42884   5.155   3.117   5.139  0.2262  0.2954  0.4258
13626SOL    HW142885   5.206   3.131   5.219  1.1337 -0.4710 -0.0132
13626SOL    HW242886   5.107   3.036   5.155  1.7747 -0.8509 -0.4649
13627SOL     OW42887   2.330   1.511   6.354  0.5520 -0.4398  0.3894
13627SOL    HW142888   2.284   1.566   6.291 -1.5306  1.1372  3.0720
13627SOL    HW242889   2.418   1.548   6.358  0.0868  0.7732 -0.0979
13628SOL     OW42890  10.068  10.517   7.967 -0.1438  0.2204 -0.6452
13628SOL    HW142891  10.115  10.597   7.991  0.4401 -0.3852  0.3124
13628SOL    HW242892  10.012  10.498   8.042 -0.6472 -0.0058 -1.0697
13629SOL     OW42893   9.160   2.258   8.293  0.4230  0.1335  0.1179
13629SOL    HW142894   9.200   2.189   8.346 -0.6866 -1.6425 -1.2165
13629SOL    HW242895   9.066   2.238   8.297  0.0803  1.5940 -0.2944
13630SOL     OW42896   4.980   1.248   8.353  0.7405 -0.1338 -0.0812
13630SOL    HW142897   4.919   1.228   8.282  0.4212  1.6571 -0.3641
13630SOL    HW242898   5.060   1.275   8.309  1.4606 -1.5705  0.2889
13631SOL     OW42899   2.547   4.744   6.737 -0.8772 -0.4124  0.3619
13631SOL    HW142900   2.603   4.705   6.669 -1.0255 -0.7961  0.4564
13631SOL    HW242901   2.555   4.838   6.723 -0.7354 -0.4816 -0.0515
13632SOL     OW42902   1.697  10.401   8.729  0.0507 -0.6464 -0.2037
13632SOL    HW142903   1.620  10.423   8.781 -0.8202 -1.1878 -1.2118
13632SOL    HW242904   1.726  10.317   8.764  1.0921  0.2382  1.1436
13633SOL     OW42905   8.143   5.808   4.695 -0.0066 -0.4921  0.1057
13633SOL    HW142906   8.171   5.809   4.603 -1.9834  0.0727 -0.5339
13633SOL    HW242907   8.198   5.874   4.737 -0.7567  1.0960 -1.2523
13634SOL     OW42908   6.164   0.985   9.365  0.1660  0.0494  0.6046
13634SOL    HW142909   6.177   0.987   9.270  1.8614  0.6358  0.8200
13634SOL    HW242910   6.074   1.016   9.378 -0.4111 -0.8910 -0.8361
13635SOL     OW42911   5.543   3.190   2.227  0.1320 -0.0373 -0.1375
13635SOL    HW142912   5.455   3.198   2.264  1.2982 -0.0830  2.9420
13635SOL    HW242913   5.557   3.272   2.180 -1.3925  0.1343 -0.3590
13636SOL     OW42914   4.917   8.655   7.011  0.1683 -0.0848  0.3871
13636SOL    HW142915   4.851   8.703   6.960 -0.4047 -2.3403 -1.1705
13636SOL    HW242916   4.992   8.647   6.952 -0.2660 -2.1969  0.0372
13637SOL     OW42917   7.170   7.981   2.802 -0.7041  0.0831  0.6262
13637SOL    HW142918   7.248   8.031   2.826 -0.0867 -0.5339 -0.0535
13637SOL    HW242919   7.141   7.941   2.884 -0.6783  0.8138  1.0013
13638SOL     OW42920   1.908   4.159   7.153  0.3641  0.1983 -0.1163
13638SOL    HW142921   1.824   4.158   7.108  2.0738 -1.4956 -3.7334
13638SOL    HW242922   1.955   4.234   7.115  1.0254  0.2226  0.7129
13639SOL     OW42923  10.197   4.563   5.856 -0.1988  0.5745  0.3140
13639SOL    HW142924  10.272   4.524   5.902 -1.6352 -1.1647  1.3064
13639SOL    HW242925  10.121   4.518   5.892 -1.5003 -0.2692 -3.1980
13640SOL     OW42926   7.327   2.447   6.297  0.0180 -0.3854 -0.2478
13640SOL    HW142927   7.266   2.517   6.321  0.1802  0.0041 -0.9385
13640SOL    HW242928   7.368   2.478   6.216 -0.3712 -1.5617 -0.9166
13641SOL     OW42929   2.480   1.466   9.665 -0.1955 -0.4896 -0.5837
13641SOL    HW142930   2.483   1.440   9.757  0.2737  2.3266  0.2983
13641SOL    HW242931   2.558   1.520   9.653 -1.6926  1.5211 -1.8193
13642SOL     OW42932   5.869   7.858   7.598  0.5058 -0.4621  0.2252
13642SOL    HW142933   5.859   7.789   7.532  2.5451  1.0005 -1.7254
13642SOL    HW242934   5.827   7.935   7.560 -0.7704 -0.2514  1.9020
13643SOL     OW42935   7.178   5.773   1.789  0.0202  0.3462 -0.0885
13643SOL    HW142936   7.197   5.800   1.699  3.4587 -1.1432  0.0295
13643SOL    HW242937   7.202   5.849   1.842 -4.9241  2.4594 -0.3016
13644SOL     OW42938   2.128   6.394  10.667 -0.2542 -0.7538 -0.2819
13644SOL    HW142939   2.112   6.400  10.572  2.5739  0.8895 -0.7590
13644SOL    HW242940   2.189   6.322  10.676 -1.3653 -1.6409  0.5011
13645SOL     OW42941   1.092   2.426   2.056  0.2303  0.7648  0.2025
13645SOL    HW142942   1.037   2.349   2.037  0.1848  0.9752 -0.5534
13645SOL    HW242943   1.163   2.392   2.110  0.0123  0.2615  0.1806
13646SOL     OW42944   2.275   1.689   7.809 -0.1555 -0.8613  0.6051
13646SOL    HW142945   2.360   1.647   7.798  0.2386 -0.2707  1.3246
13646SOL    HW242946   2.232   1.637   7.878 -0.6260 -1.5221 -0.1721
13647SOL     OW42947   0.362   4.577   0.254  0.0036 -0.4308 -0.0999
13647SOL    HW142948   0.278   4.583   0.300  0.4840 -2.8876  1.2246
13647SOL    HW242949   0.414   4.648   0.292 -1.2554  0.8383 -0.6134
13648SOL     OW42950   3.453   4.323   4.135  0.9220  0.2490  0.0511
13648SOL    HW142951   3.382   4.264   4.108  1.0842  0.1341 -0.1223
13648SOL    HW242952   3.531   4.287   4.093  0.9348  0.9009 -0.4799
13649SOL     OW42953   5.125  10.485   5.701  0.0415 -0.9945  0.2636
13649SOL    HW142954   5.160  10.482   5.612 -1.3538 -1.3104 -0.3056
13649SOL    HW242955   5.061  10.556   5.699  0.6570 -0.3910  1.2859
13650SOL     OW42956   2.847   0.059   2.085 -0.0743  0.0784 -0.2709
13650SOL    HW142957   2.878   0.100   2.004 -0.5530 -0.4718 -0.7344
13650SOL    HW242958   2.781  -0.004   2.057  1.0280 -1.4176  0.3846
13651SOL     OW42959   8.090   2.646   3.252 -0.3032 -0.3930  0.2587
13651SOL    HW142960   8.163   2.600   3.212  0.3578  1.2048 -0.4612
13651SOL    HW242961   8.108   2.642   3.346  1.0603  0.5105  0.0553
13652SOL     OW42962   0.854   7.719   9.186  0.2346 -0.1442  0.4887
13652SOL    HW142963   0.905   7.693   9.109  1.9995 -1.8015  2.1086
13652SOL    HW242964   0.884   7.808   9.206  3.2499 -1.3121  1.8127
13653SOL     OW42965   0.331   9.883   8.058 -0.5984 -0.5313 -0.3075
13653SOL    HW142966   0.373   9.957   8.014  0.5775  0.1473  1.7822
13653SOL    HW242967   0.345   9.900   8.151 -2.0747 -2.3792  0.3185
13654SOL     OW42968   9.163   8.855   6.077  0.1451 -0.5893 -0.3322
13654SOL    HW142969   9.150   8.849   6.171 -0.9378 -0.4515 -0.4571
13654SOL    HW242970   9.255   8.833   6.063  0.1566 -1.2211  0.6904
13655SOL     OW42971   2.915   5.802   7.857  0.3726 -0.3177 -0.3364
13655SOL    HW142972   2.972   5.726   7.847  1.0713 -0.3061  2.6325
13655SOL    HW242973   2.969   5.868   7.900 -1.7594 -0.3050  2.6325
13656SOL     OW42974   7.426   7.344   5.705  0.1417  0.1634  0.5160
13656SOL    HW142975   7.362   7.397   5.753  0.9312  0.9588  0.7187
13656SOL    HW242976   7.415   7.369   5.613  0.3809  0.5565  0.5894
13657SOL     OW42977   2.043   5.919   1.638 -0.2624 -0.6678 -0.2789
13657SOL    HW142978   2.020   5.940   1.548  0.6646  2.5316  0.1031
13657SOL    HW242979   2.118   5.975   1.657 -0.1580 -1.5743  2.3617
13658SOL     OW42980   6.374   1.752  10.101 -0.7529  0.3708 -0.3076
13658SOL    HW142981   6.383   1.831  10.155 -1.0725  0.6366 -0.6389
13658SOL    HW242982   6.388   1.679  10.162  0.5363  0.6934 -0.1819
13659SOL     OW42983   1.090   3.622   9.700  0.3150  0.3620  0.2160
13659SOL    HW142984   1.012   3.677   9.697  0.3530  0.5402  1.7184
13659SOL    HW242985   1.059   3.535   9.678  0.2988  0.9662 -2.4637
13660SOL     OW42986   1.296   8.211   1.598  0.5569  0.0493 -0.2655
13660SOL    HW142987   1.386   8.242   1.596  1.1987 -1.7138 -0.3623
13660SOL    HW242988   1.266   8.231   1.687  1.2464  0.1485 -0.0494
13661SOL     OW42989   9.258   3.443  10.373 -0.4224 -0.5757 -0.5537
13661SOL    HW142990   9.295   3.371  10.323 -3.1226 -3.1277  0.7859
13661SOL    HW242991   9.163   3.436  10.358 -0.8383  2.5160 -0.0477
13662SOL     OW42992   3.591   5.263   5.619  0.1680  0.8478  0.0661
13662SOL    HW142993   3.568   5.353   5.594  0.6250  0.5832 -1.4107
13662SOL    HW242994   3.516   5.211   5.591  0.6520  0.5539 -0.7129
13663SOL     OW42995   6.930   1.995   0.330 -0.2907 -0.1875 -0.9536
13663SOL    HW142996   6.989   2.036   0.394  0.4163 -0.0740 -1.6514
13663SOL    HW242997   6.942   2.047   0.251 -1.2539 -0.2478 -1.1402
13664SOL     OW42998   6.470   4.485  11.202  0.4735 -0.1548  0.3263
13664SOL    HW142999   6.565   4.469  11.202  0.2777 -1.5338  1.6735
13664SOL    HW243000   6.438   4.438  11.125  0.8200 -0.0061  0.0852
13665SOL     OW43001  10.550  10.030   1.584  0.4383 -0.2056  0.7798
13665SOL    HW143002  10.500   9.950   1.602 -1.6293  0.9064  0.3824
13665SOL    HW243003  10.533  10.048   1.491  1.7863  0.1212  0.5822
13666SOL     OW43004   9.372   0.916   7.990 -0.4154  0.2808 -0.2064
13666SOL    HW143005   9.312   0.977   7.948  0.5255  2.1418  0.9887
13666SOL    HW243006   9.459   0.955   7.978  0.1901 -0.6530  0.8625
13667SOL     OW43007   4.401   0.479   9.242  0.3295  0.3709 -0.1078
13667SOL    HW143008   4.377   0.540   9.172  2.5036  1.7772  0.2893
13667SOL    HW243009   4.362   0.395   9.215 -2.5736  1.8160 -0.7824
13668SOL     OW43010   0.240   4.244   2.637 -0.4360  0.0144  0.3307
13668SOL    HW143011   0.233   4.154   2.670  0.6490 -0.5590 -0.9177
13668SOL    HW243012   0.150   4.269   2.617 -0.6510 -1.2534 -0.4029
13669SOL     OW43013   2.052   7.379  11.054 -0.6899  0.3108  0.3502
13669SOL    HW143014   2.088   7.402  11.139  2.2467  0.1007 -0.7109
13669SOL    HW243015   2.063   7.458  11.001  2.1616 -0.9107 -1.1150
13670SOL     OW43016   0.693   7.298   3.642  0.4890  0.7542 -0.0444
13670SOL    HW143017   0.641   7.379   3.637  1.5714  1.5609  1.1077
13670SOL    HW243018   0.689   7.273   3.734 -0.6955 -1.1392 -0.5570
13671SOL     OW43019   2.344   9.392  11.098  0.4061  0.0969  0.1170
13671SOL    HW143020   2.296   9.461  11.144 -0.7868 -0.9898  0.5716
13671SOL    HW243021   2.314   9.311  11.139  1.2455 -0.7428 -0.8735
13672SOL     OW43022   4.508   7.950   6.913 -0.9688  0.2903 -0.2681
13672SOL    HW143023   4.588   7.995   6.887 -0.1679 -1.7515 -1.6031
13672SOL    HW243024   4.450   7.961   6.838 -1.2347  0.1338 -0.0857
13673SOL     OW43025   4.214   9.581   8.988 -0.1720 -0.5995 -0.4757
13673SOL    HW143026   4.242   9.490   8.974  0.1507 -0.4267 -0.9887
13673SOL    HW243027   4.238   9.626   8.907  1.3619  0.3644  0.4706
13674SOL     OW43028   5.316   2.466   8.234 -0.0921 -0.3352 -0.2073
13674SOL    HW143029   5.285   2.376   8.237  2.6677 -1.3852  0.7073
13674SOL    HW243030   5.403   2.460   8.195  0.8519  1.6653  1.3709
13675SOL     OW43031   5.359   6.018  10.268  0.2533 -0.4929 -0.5968
13675SOL    HW143032   5.284   6.074  10.249 -1.1904 -1.4283  1.9305
13675SOL    HW243033   5.324   5.929  10.265  1.4424 -0.9989 -0.0947
13676SOL     OW43034   0.568   1.302   2.489  0.4405  0.2826 -0.2626
13676SOL    HW143035   0.586   1.359   2.414  1.4853  1.2237  0.6651
13676SOL    HW243036   0.654   1.268   2.514 -0.0675 -1.0436 -0.2728
13677SOL     OW43037   3.386   9.055   4.991 -1.1424 -0.5330  0.0126
13677SOL    HW143038   3.296   9.042   4.959 -1.6179 -0.5641  1.2669
13677SOL    HW243039   3.421   9.125   4.937 -0.8891 -2.3996 -2.4278
13678SOL     OW43040   9.393   7.466   0.373  0.2719 -0.5259  0.2681
13678SOL    HW143041   9.460   7.523   0.334 -0.7699 -0.2177 -1.1622
13678SOL    HW243042   9.386   7.496   0.464 -0.5175  1.9740 -0.5217
13679SOL     OW43043   5.235   2.127   2.574 -0.5970  0.2766 -0.6927
13679SOL    HW143044   5.264   2.192   2.637  0.2010  0.4126 -1.1866
13679SOL    HW243045   5.316   2.087   2.542 -1.0832 -1.7949  0.4479
13680SOL     OW43046   3.787   3.526   6.552  0.0073 -0.2237 -0.4002
13680SOL    HW143047   3.758   3.617   6.540  1.5092  0.3392 -0.0271
13680SOL    HW243048   3.766   3.507   6.644  0.2967 -0.0088 -0.2862
13681SOL     OW43049   2.459   5.215   9.030  0.0487  0.2846  0.1584
13681SOL    HW143050   2.455   5.121   9.012  0.6457  0.8703 -4.5101
13681SOL    HW243051   2.368   5.243   9.035 -0.4283 -0.0418 -3.6039
13682SOL     OW43052  10.223   3.844   2.145 -0.3637  0.0761  0.0410
13682SOL    HW143053  10.299   3.853   2.087  0.2822 -0.7331  0.7331
13682SOL    HW243054  10.206   3.750   2.147 -0.3533  0.0887  1.1808
13683SOL     OW43055   1.754   8.318   2.209 -0.1315 -0.4244  0.9550
13683SOL    HW143056   1.665   8.292   2.187  0.3858 -1.4003 -0.1059
13683SOL    HW243057   1.777   8.384   2.144  0.5653 -1.5840 -0.0291
13684SOL     OW43058   4.811  10.601   4.003 -0.3790 -0.1096 -0.4182
13684SOL    HW143059   4.815  10.505   4.006  0.1687 -0.0673  0.2821
13684SOL    HW243060   4.717  10.620   4.010 -0.4599 -0.5792 -0.1407
13685SOL     OW43061   0.786   6.123  11.141 -0.3481 -0.2052 -0.1880
13685SOL    HW143062   0.721   6.176  11.094  1.8801  3.0092 -0.0166
13685SOL    HW243063   0.822   6.183  11.207  0.4269 -2.9110  2.0119
13686SOL     OW43064   2.693   7.030   2.655  1.0227 -0.1234  0.2207
13686SOL    HW143065   2.625   7.019   2.590 -2.2639 -1.0389  3.4771
13686SOL    HW243066   2.715   6.941   2.683 -0.7223  0.2463  3.1118
13687SOL     OW43067   8.238   3.778   4.823 -0.1403  0.1301 -0.1668
13687SOL    HW143068   8.296   3.709   4.854  0.4616  0.2207 -1.0435
13687SOL    HW243069   8.259   3.854   4.877  0.7578  0.2369 -0.6585
13688SOL     OW43070   3.233   9.998   5.722  1.0103  0.0630  0.0913
13688SOL    HW143071   3.320  10.024   5.690  1.2933 -1.8000 -0.8341
13688SOL    HW243072   3.190  10.080   5.745  2.5663  1.1299 -0.6248
13689SOL     OW43073   7.790   9.186  10.646 -0.7206 -0.7731  0.0687
13689SOL    HW143074   7.697   9.205  10.631 -0.4052 -0.5890 -1.7978
13689SOL    HW243075   7.803   9.098  10.610 -0.1857 -0.8575  0.4508
13690SOL     OW43076   2.152   4.704   6.975  0.3103  0.2621 -0.0514
13690SOL    HW143077   2.216   4.686   7.043  0.3378  0.2411 -0.0824
13690SOL    HW243078   2.108   4.620   6.961  0.6332  0.1472 -0.3963
13691SOL     OW43079   4.993   8.246   4.804  0.2635  0.1748  0.7580
13691SOL    HW143080   5.052   8.273   4.874  0.8235  1.1312 -0.0499
13691SOL    HW243081   5.002   8.151   4.800 -1.0746 -0.1303  3.0894
13692SOL     OW43082   4.093   5.488   1.803 -0.0875 -0.1118  0.3949
13692SOL    HW143083   4.116   5.444   1.722 -1.1841  1.2234 -0.6981
13692SOL    HW243084   4.125   5.430   1.872  4.8707  0.6955 -0.8565
13693SOL     OW43085   8.468   0.564   3.182 -0.3618  0.2126 -0.7717
13693SOL    HW143086   8.552   0.521   3.196  0.1521  1.4281  0.0208
13693SOL    HW243087   8.404   0.507   3.225  0.5261  1.1064  1.9209
13694SOL     OW43088   4.716   7.412   2.886  0.2507 -0.5298 -0.4575
13694SOL    HW143089   4.791   7.376   2.934  0.0699 -0.2791  0.0170
13694SOL    HW243090   4.755   7.465   2.817  0.5307  0.6298  0.5491
13695SOL     OW43091  10.684   4.541   4.973 -0.6998  0.8534  0.1469
13695SOL    HW143092  10.615   4.597   5.008 -0.0689  0.6431  1.8397
13695SOL    HW243093  10.696   4.474   5.041 -1.3592 -1.2942 -1.7415
13696SOL     OW43094   7.451   4.267   2.888  0.1548  0.1748 -0.5687
13696SOL    HW143095   7.413   4.244   2.803  2.9661  1.9058 -2.4734
13696SOL    HW243096   7.531   4.214   2.894  1.1881  1.7340 -0.1007
13697SOL     OW43097   7.719   3.096   6.094 -0.0443  0.5156  0.3529
13697SOL    HW143098   7.784   3.038   6.134  1.5959  1.1086 -1.2991
13697SOL    HW243099   7.769   3.174   6.069 -1.8361  1.8869  0.8999
13698SOL     OW43100   7.357   1.750   1.001  0.0850 -0.3956  0.1072
13698SOL    HW143101   7.313   1.730   0.918 -0.9433  0.8031  0.3223
13698SOL    HW243102   7.348   1.670   1.053  0.7930 -1.1811 -0.9414
13699SOL     OW43103   0.689   5.284  10.452 -0.0547 -0.3611 -0.2558
13699SOL    HW143104   0.783   5.282  10.469  0.3541 -0.1878 -2.2422
13699SOL    HW243105   0.658   5.199  10.482  0.6190 -0.1997  0.9597
13700SOL     OW43106   3.642   3.959  11.255  0.2396 -0.2918 -0.6434
13700SOL    HW143107   3.703   3.896  11.294 -0.2109 -0.9549 -0.9915
13700SOL    HW243108   3.565   3.956  11.311 -1.0607 -2.4378 -2.3806
13701SOL     OW43109   0.621   3.393   0.939 -0.2821  0.7929  0.0861
13701SOL    HW143110   0.533   3.355   0.942  0.0594 -1.1727 -5.0027
13701SOL    HW243111   0.679   3.318   0.948  0.9254  1.8724  1.8252
13702SOL     OW43112   8.771   3.615   3.909  0.2817 -0.3718  0.6303
13702SOL    HW143113   8.690   3.664   3.899  1.1222  1.2326  1.2349
13702SOL    HW243114   8.799   3.595   3.820 -0.3390 -0.1990  0.3930
13703SOL     OW43115   5.919   4.905   3.786 -0.4848 -0.8306  0.7702
13703SOL    HW143116   5.973   4.849   3.842 -1.1826 -2.7988 -0.4109
13703SOL    HW243117   5.872   4.962   3.847 -0.7007 -2.4237  2.1754
13704SOL     OW43118   0.687   1.304   6.234 -0.0009  0.1160 -0.0373
13704SOL    HW143119   0.625   1.284   6.304  0.4707  1.1980  0.7321
13704SOL    HW243120   0.760   1.243   6.248 -1.3110 -1.9532 -1.6351
13705SOL     OW43121   1.003   6.782   7.512  0.0746 -0.1920  0.7148
13705SOL    HW143122   0.987   6.695   7.547  0.9573 -0.1646  1.2176
13705SOL    HW243123   1.054   6.826   7.580  2.0474 -0.2086 -0.6675
13706SOL     OW43124   1.805   8.752   8.280  0.4237  0.1262  0.8470
13706SOL    HW143125   1.828   8.843   8.265  0.7093 -0.1828 -0.7109
13706SOL    HW243126   1.869   8.702   8.230 -1.8326 -0.8225 -1.2874
13707SOL     OW43127  10.110  10.382   8.738 -0.3117  0.1799 -0.2802
13707SOL    HW143128  10.081  10.293   8.757  0.9748 -0.5498 -1.4962
13707SOL    HW243129  10.037  10.423   8.692 -1.9703  0.7126  2.6120
13708SOL     OW43130   5.327   4.091   9.119 -0.5441  0.9829 -0.1953
13708SOL    HW143131   5.284   4.080   9.034  0.2850  1.9037 -0.7568
13708SOL    HW243132   5.409   4.135   9.098 -0.6772  1.9136  1.1623
13709SOL     OW43133  10.137   3.059   5.081  0.0191  0.5306 -0.0280
13709SOL    HW143134  10.218   3.099   5.049 -1.5912  3.3074 -0.9041
13709SOL    HW243135  10.123   3.097   5.168 -0.9038  0.9488 -0.3471
13710SOL     OW43136   0.469   0.004   6.131  0.3623  0.4531 -0.4497
13710SOL    HW143137   0.516  -0.079   6.138  0.3217  0.4213 -0.5476
13710SOL    HW243138   0.481   0.046   6.216  0.8120  0.5719 -0.5692
13711SOL     OW43139   0.223   1.718  10.721  0.0064  0.0752 -0.6143
13711SOL    HW143140   0.209   1.689  10.811 -0.6966 -1.1992 -1.1189
13711SOL    HW243141   0.228   1.814  10.728 -1.5104  0.1177  0.6108
13712SOL     OW43142  10.824   2.032   6.266  0.8407 -0.1490 -0.4551
13712SOL    HW143143  10.783   2.076   6.341  1.7297 -1.9488  1.1851
13712SOL    HW243144  10.782   2.070   6.189 -1.2845  0.6439  1.0191
13713SOL     OW43145   3.165   2.782  11.188  0.2623 -0.0976  0.2587
13713SOL    HW143146   3.244   2.818  11.148 -0.7866 -0.4201 -2.2780
13713SOL    HW243147   3.124   2.731  11.119 -1.0526 -1.8025  2.1621
13714SOL     OW43148   3.298   6.887   2.693  0.1157 -0.1936  0.2619
13714SOL    HW143149   3.240   6.832   2.641  2.2604 -0.7365 -1.7340
13714SOL    HW243150   3.354   6.825   2.741  0.5917  0.2672  0.3174
13715SOL     OW43151   0.912   8.293   9.123 -0.3162 -0.3053 -0.1055
13715SOL    HW143152   0.887   8.219   9.068 -1.6469 -2.4486  3.0643
13715SOL    HW243153   0.829   8.324   9.160  0.6598 -1.0405  2.9904
13716SOL     OW43154   5.762  10.350   2.584 -0.6360 -0.6460  0.0560
13716SOL    HW143155   5.687  10.393   2.627  0.2389 -0.7359  1.7667
13716SOL    HW243156   5.743  10.356   2.491  0.2425  5.3095 -0.1472
13717SOL     OW43157   2.408   8.143   4.562  0.1256 -0.7474  0.4508
13717SOL    HW143158   2.386   8.213   4.623  3.3214 -0.7957  1.8493
13717SOL    HW243159   2.335   8.081   4.568 -3.3272  2.6849 -1.5552
13718SOL     OW43160   2.197   3.456   4.348  0.1995 -0.1181 -0.3975
13718SOL    HW143161   2.223   3.476   4.438 -0.0885 -0.2885 -0.2713
13718SOL    HW243162   2.102   3.468   4.348  0.2503  0.2920 -0.7926
13719SOL     OW43163   4.763   1.700  11.210  0.1858 -0.4041 -0.0406
13719SOL    HW143164   4.698   1.741  11.266 -1.2427 -0.9251 -1.2284
13719SOL    HW243165   4.846   1.712  11.255 -0.8885 -0.8287  2.1831
13720SOL     OW43166   4.885   0.493   2.116  0.1444  0.0265 -0.8388
13720SOL    HW143167   4.906   0.583   2.139 -0.8962  0.0861 -0.0339
13720SOL    HW243168   4.951   0.468   2.052 -0.0319  1.6233 -1.6896
13721SOL     OW43169   5.307   4.148   2.368  0.6150  0.7594 -0.0798
13721SOL    HW143170   5.300   4.244   2.365  3.3966  1.0446 -0.6131
13721SOL    HW243171   5.285   4.126   2.458 -2.5470  1.5390 -0.5415
13722SOL     OW43172   7.505   3.220   7.913  0.1978 -0.0635  0.6001
13722SOL    HW143173   7.437   3.239   7.976 -0.1397 -0.5380  0.3887
13722SOL    HW243174   7.525   3.127   7.927  0.8634  0.0951  0.7222
13723SOL     OW43175   8.401   3.924   8.230  0.0620 -0.4703 -0.8175
13723SOL    HW143176   8.478   3.871   8.250 -0.7418 -1.6825 -0.8311
13723SOL    HW243177   8.340   3.863   8.189 -3.0301 -0.9897  3.8105
13724SOL     OW43178   7.110   1.000   6.450 -0.2394 -0.2235 -0.6167
13724SOL    HW143179   7.158   1.077   6.419  0.3837  0.1023  1.0251
13724SOL    HW243180   7.156   0.925   6.412  1.1144  0.1193  0.2908
13725SOL     OW43181  10.786   3.122   1.327  0.0496  0.7748  0.4832
13725SOL    HW143182  10.773   3.190   1.393  0.1291  1.6350 -0.3548
13725SOL    HW243183  10.863   3.152   1.278  1.1685 -0.8249  1.1984
13726SOL     OW43184   2.951   2.023   5.159  0.0537  0.6349 -0.7154
13726SOL    HW143185   2.959   1.962   5.085 -1.0738  0.6437 -0.8547
13726SOL    HW243186   2.899   1.975   5.223  3.0994 -0.3991  1.2152
13727SOL     OW43187   4.678   4.405   0.206  0.3367 -0.0039  0.4023
13727SOL    HW143188   4.665   4.390   0.113 -1.2686  2.8817  0.0345
13727SOL    HW243189   4.606   4.359   0.249 -0.9730  1.4337 -0.1519
13728SOL     OW43190   3.909   8.136   4.407  0.3485 -0.6307 -0.3299
13728SOL    HW143191   3.850   8.193   4.359 -0.3105 -1.0622 -0.0459
13728SOL    HW243192   3.918   8.058   4.352 -0.2059 -1.0179  0.1172
13729SOL     OW43193  10.107   9.816   5.706  0.6854  0.1610 -0.1731
13729SOL    HW143194  10.180   9.777   5.658 -0.2568 -1.0753 -0.6699
13729SOL    HW243195  10.031   9.801   5.649 -0.5822 -1.8581  1.8865
13730SOL     OW43196   8.702   5.312   7.607 -0.2079  0.1168 -0.6744
13730SOL    HW143197   8.674   5.403   7.599  0.4817  0.2991 -1.0955
13730SOL    HW243198   8.621   5.261   7.596 -0.4406  0.6467 -1.5124
13731SOL     OW43199  10.636   7.873   4.385 -0.4613  0.0205 -0.1051
13731SOL    HW143200  10.666   7.903   4.299  0.6830 -0.7550 -0.0104
13731SOL    HW243201  10.544   7.898   4.389 -0.6276 -0.2224 -1.6918
13732SOL     OW43202   3.985   2.705   7.781  0.0275  0.0954 -0.1159
13732SOL    HW143203   4.003   2.704   7.875 -4.5001  3.7746  1.1314
13732SOL    HW243204   4.050   2.764   7.744  1.3466 -0.7604  0.7327
13733SOL     OW43205   6.793   4.070   6.048  0.1027 -0.1907 -0.1158
13733SOL    HW143206   6.754   3.987   6.075 -1.1393  0.4641  0.1596
13733SOL    HW243207   6.807   4.060   5.954 -2.9664  0.3926 -0.7163
13734SOL     OW43208   1.154   8.650   6.689 -0.1619  0.3523  0.5971
13734SOL    HW143209   1.164   8.615   6.778  1.0321 -3.3209 -0.7732
13734SOL    HW243210   1.217   8.722   6.684  2.0778 -1.4146  1.8634
13735SOL     OW43211   2.366   8.061   9.922 -0.2300  0.1835 -0.7293
13735SOL    HW143212   2.368   7.996   9.992 -1.5068 -0.1363 -0.9671
13735SOL    HW243213   2.344   8.143   9.966 -3.4467 -0.4166 -0.9471
13736SOL     OW43214   8.828   1.366   8.621  0.1658 -0.8686 -0.4415
13736SOL    HW143215   8.777   1.444   8.643  1.9554  0.9886 -2.3061
13736SOL    HW243216   8.909   1.401   8.584  0.6922 -3.6340 -2.1761
13737SOL     OW43217   7.219  10.363   8.568 -0.0887 -0.4049 -0.1883
13737SOL    HW143218   7.154  10.307   8.609 -0.5049  1.1372  1.3798
13737SOL    HW243219   7.205  10.449   8.608  2.8126  0.0305  0.1099
13738SOL     OW43220   5.080   8.401   4.584 -0.4239  0.4103  0.1408
13738SOL    HW143221   5.124   8.412   4.667  0.9498 -0.0182 -0.5018
13738SOL    HW243222   4.987   8.400   4.606 -0.0755 -2.4209  2.0414
13739SOL     OW43223   4.831   0.863   2.955 -0.3501 -0.2764  0.4385
13739SOL    HW143224   4.762   0.800   2.937  0.1116 -0.3986 -0.9619
13739SOL    HW243225   4.784   0.940   2.990 -1.0905 -0.6906  0.3802
13740SOL     OW43226   2.264   2.529   9.270  0.0912  0.4658 -0.2315
13740SOL    HW143227   2.195   2.499   9.210 -0.7915  0.5283  0.7193
13740SOL    HW243228   2.331   2.461   9.264  0.0516  0.4925 -1.3191
13741SOL     OW43229   1.843  11.164   0.052 -0.2195  0.1400  0.0788
13741SOL    HW143230   1.788  11.153  -0.026 -0.0366  0.4712 -0.0982
13741SOL    HW243231   1.912  11.099   0.043  0.4931  0.9712 -0.6438
13742SOL     OW43232   5.506   7.509   0.140  0.7506  0.8435 -0.0250
13742SOL    HW143233   5.600   7.507   0.158  0.4858  2.7974  2.0297
13742SOL    HW243234   5.493   7.585   0.085  0.2912  1.0863  0.4054
13743SOL     OW43235   8.069   3.389   0.136  1.4047 -0.0605 -1.0560
13743SOL    HW143236   8.077   3.353   0.224 -2.4606  0.0941 -0.4709
13743SOL    HW243237   8.059   3.312   0.080  1.9227 -0.1098 -1.0815
13744SOL     OW43238   9.874   7.223   6.523  0.0746 -0.4240  0.6204
13744SOL    HW143239   9.935   7.161   6.483 -0.3792 -0.4238 -0.0953
13744SOL    HW243240   9.793   7.172   6.534  0.3569 -0.5954  2.0948
13745SOL     OW43241   9.366   1.772   7.937 -0.3099 -0.5870  0.0711
13745SOL    HW143242   9.329   1.757   7.849  1.2238  2.4512 -1.2434
13745SOL    HW243243   9.435   1.707   7.945  0.5242 -0.0092 -1.7082
13746SOL     OW43244   9.365   0.750   2.500  0.1172 -0.0847 -0.2390
13746SOL    HW143245   9.394   0.689   2.432 -1.0746 -2.2487  1.0666
13746SOL    HW243246   9.440   0.757   2.559  0.2769 -0.2861 -0.4154
13747SOL     OW43247   2.470   1.308   0.850 -0.1167  0.1886  0.0998
13747SOL    HW143248   2.444   1.216   0.838  0.7746 -0.2373  1.2475
13747SOL    HW243249   2.447   1.350   0.767 -0.8700 -0.9910 -0.3183
13748SOL     OW43250   4.315   3.436   0.215 -0.1720 -0.1140  0.0367
13748SOL    HW143251   4.366   3.410   0.138 -0.2723  1.2669 -0.5271
13748SOL    HW243252   4.355   3.518   0.244 -0.7308 -0.1272  0.8795
13749SOL     OW43253   7.940   9.292   1.793  0.8208 -0.5593  0.4581
13749SOL    HW143254   7.928   9.337   1.877 -0.6276 -0.2682  0.1168
13749SOL    HW243255   8.020   9.331   1.758  0.5942  0.4556  1.0026
13750SOL     OW43256  10.490   1.816   1.917  0.1479  0.0020  0.1422
13750SOL    HW143257  10.399   1.828   1.945 -0.1869 -0.5321 -0.6886
13750SOL    HW243258  10.526   1.751   1.977  0.0270  0.3270  0.5674
13751SOL     OW43259   4.856   5.494  10.664  0.1367 -0.0290  0.5385
13751SOL    HW143260   4.814   5.545  10.734  1.5444  0.7510  0.8543
13751SOL    HW243261   4.943   5.473  10.699  0.3789 -0.7624 -0.4691
13752SOL     OW43262   2.874   0.298   9.023 -0.0859  0.9679  0.1082
13752SOL    HW143263   2.841   0.212   8.996 -1.1732  1.5167 -0.3551
13752SOL    HW243264   2.928   0.327   8.949 -2.1322  1.9643 -1.0747
13753SOL     OW43265   4.360   8.447   9.069 -0.0657 -0.3644 -0.4260
13753SOL    HW143266   4.400   8.495   9.142  0.3843 -0.0532 -0.8683
13753SOL    HW243267   4.286   8.502   9.042 -0.8747 -0.9904  0.4593
13754SOL     OW43268   1.444   8.098   0.654 -0.1146  0.2065  0.5910
13754SOL    HW143269   1.447   8.146   0.571 -0.6478  0.5322  0.7579
13754SOL    HW243270   1.372   8.035   0.643 -0.0767  0.1367  0.7461
13755SOL     OW43271   4.351  10.402   4.886 -0.6517  0.1290 -0.0340
13755SOL    HW143272   4.324  10.336   4.822 -1.0673  0.1441  0.1279
13755SOL    HW243273   4.384  10.475   4.832  0.8388 -0.6262 -0.2047
13756SOL     OW43274   7.454   0.112   7.220  0.1020 -0.5039  0.2675
13756SOL    HW143275   7.463   0.086   7.312  0.5996 -1.9269 -0.1605
13756SOL    HW243276   7.525   0.175   7.206 -1.6320  1.9357  1.5404
13757SOL     OW43277   9.167   0.024   9.327  0.0714  0.3149 -0.7797
13757SOL    HW143278   9.119  -0.055   9.353 -2.2430  1.7343 -0.3910
13757SOL    HW243279   9.194   0.064   9.409  2.0913 -0.5029 -1.0008
13758SOL     OW43280   3.658  10.011   1.480 -0.0150  0.2166 -0.3455
13758SOL    HW143281   3.666   9.991   1.573  0.0859 -1.5510 -0.7054
13758SOL    HW243282   3.586  10.074   1.475 -0.5560 -0.2778  0.8488
13759SOL     OW43283   2.821   9.086   4.426 -0.4007 -0.3923 -0.3311
13759SOL    HW143284   2.878   9.025   4.472 -2.0603 -1.5239  0.3345
13759SOL    HW243285   2.733   9.051   4.439 -1.3011  1.4594 -1.0234
13760SOL     OW43286   2.716   0.492   1.487 -0.4135  0.1760 -0.3205
13760SOL    HW143287   2.710   0.495   1.391  0.1082 -3.7297 -0.6075
13760SOL    HW243288   2.626   0.477   1.516 -0.1531 -1.9500 -0.5016
13761SOL     OW43289   9.264   8.345   1.167 -0.0374  0.0508 -0.1871
13761SOL    HW143290   9.172   8.360   1.187  0.7772  2.6263  2.5447
13761SOL    HW243291   9.288   8.268   1.218 -0.5785 -0.3826 -0.5825
13762SOL     OW43292   4.735   0.228   5.919 -0.1417  0.3927 -0.2557
13762SOL    HW143293   4.661   0.273   5.879 -1.7718 -2.5286 -0.8532
13762SOL    HW243294   4.773   0.177   5.847  1.7347  0.8775  0.3288
13763SOL     OW43295   3.394   4.763   8.025 -0.0595 -0.1184 -1.1665
13763SOL    HW143296   3.443   4.793   7.948 -0.3094  0.8845 -0.9473
13763SOL    HW243297   3.396   4.838   8.085  2.5042 -1.7402  0.9960
13764SOL     OW43298   5.800   7.900   4.367  0.5240  0.1944  0.5125
13764SOL    HW143299   5.808   7.996   4.368  1.1573  0.1397  1.0858
13764SOL    HW243300   5.751   7.879   4.446  1.9918 -0.0731  1.3925
13765SOL     OW43301   6.902   3.669   6.945 -0.1074  0.0723  0.0166
13765SOL    HW143302   6.913   3.728   7.020 -0.0523  1.4475 -1.0434
13765SOL    HW243303   6.981   3.615   6.946  0.4501  0.8754  0.2810
13766SOL     OW43304   7.446   6.897   6.216 -0.6734 -0.0195  0.4923
13766SOL    HW143305   7.443   6.908   6.311  0.3939  0.4529  0.4850
13766SOL    HW243306   7.483   6.810   6.203  2.0854  1.0307  0.5497
13767SOL     OW43307   1.556   1.509   3.709  0.4212  0.3934  0.4858
13767SOL    HW143308   1.486   1.444   3.708 -0.5343  1.4001  0.2250
13767SOL    HW243309   1.607   1.490   3.631 -0.0693  0.1795  0.2099
13768SOL     OW43310   1.064   3.381  10.872 -0.4316 -0.1150 -0.0821
13768SOL    HW143311   1.087   3.453  10.815 -2.8872  1.0993  0.3062
13768SOL    HW243312   1.076   3.416  10.961  0.3962 -0.9376  0.1471
13769SOL     OW43313   7.720  10.007   0.378  0.1997 -0.2160  0.2107
13769SOL    HW143314   7.752  10.097   0.369  1.1119 -0.5877 -0.4906
13769SOL    HW243315   7.626  10.016   0.395 -0.1239  0.8502 -1.7924
13770SOL     OW43316   0.006   7.219   2.276 -0.9281 -0.8537 -0.0733
13770SOL    HW143317  -0.008   7.243   2.368  0.7456 -0.3501  0.0742
13770SOL    HW243318  -0.061   7.268   2.228 -2.5376 -1.9571  0.9424
13771SOL     OW43319  11.170   3.805   8.614  0.1003 -0.2058  0.3130
13771SOL    HW143320  11.126   3.881   8.578  0.0247 -0.2137  0.3853
13771SOL    HW243321  11.237   3.841   8.672  1.0188 -0.1770 -0.7377
13772SOL     OW43322   4.941   0.717   3.304  0.2284 -0.3117 -0.4987
13772SOL    HW143323   5.001   0.715   3.379  0.3720  1.7945 -0.5028
13772SOL    HW243324   4.955   0.632   3.261  0.1364 -1.5979  1.8025
13773SOL     OW43325   6.765   8.639   8.837 -0.3463 -0.4735 -0.0039
13773SOL    HW143326   6.778   8.549   8.808 -1.4367 -0.7676  0.3819
13773SOL    HW243327   6.737   8.632   8.928  0.6327  0.3222  0.3765
13774SOL     OW43328  11.181  10.473   9.054 -0.0992 -1.0947  0.1381
13774SOL    HW143329  11.194  10.529   9.131  1.9023  2.9151 -2.7278
13774SOL    HW243330  11.268  10.438   9.035 -0.1297 -0.4895 -1.2376
13775SOL     OW43331   6.122   1.838   6.861 -0.4232 -0.3487 -0.3627
13775SOL    HW143332   6.208   1.871   6.835  0.0082  0.5208  1.9659
13775SOL    HW243333   6.061   1.905   6.830 -0.0002  0.3083  0.1897
13776SOL     OW43334   2.183   9.565   4.711  0.1934 -0.2273 -0.8476
13776SOL    HW143335   2.221   9.596   4.629  1.5400 -2.2957 -1.0733
13776SOL    HW243336   2.255   9.566   4.773 -0.7781  1.1621  0.3050
13777SOL     OW43337   6.675   1.694   0.307 -0.6568 -0.0004  0.4721
13777SOL    HW143338   6.687   1.656   0.220 -1.4335  0.0544  0.3383
13777SOL    HW243339   6.590   1.661   0.337 -0.9004  0.8555  0.7552
13778SOL     OW43340   0.771   4.620   7.362 -0.2184 -0.0455 -0.4747
13778SOL    HW143341   0.741   4.699   7.318 -0.1778  1.2637  1.6918
13778SOL    HW243342   0.866   4.621   7.352  0.3123  2.6674  3.1751
13779SOL     OW43343   0.475   0.702   2.841 -0.1814 -0.2536  0.2117
13779SOL    HW143344   0.475   0.615   2.882  0.4144 -0.0905  0.5772
13779SOL    HW243345   0.473   0.763   2.915 -2.7506  0.0815 -0.0438
13780SOL     OW43346   3.330  10.938   7.462 -0.6486  0.3519  0.3491
13780SOL    HW143347   3.373  10.854   7.479 -0.6514 -0.1869 -2.0004
13780SOL    HW243348   3.349  10.957   7.370 -1.8144  2.2552  0.4467
13781SOL     OW43349   3.341  10.059   0.382 -0.0014  0.0785 -0.2114
13781SOL    HW143350   3.385  10.015   0.310 -1.1212 -0.4350 -0.6044
13781SOL    HW243351   3.277  10.116   0.340 -1.4063 -1.0069  0.3601
13782SOL     OW43352   9.440   0.093   2.018 -0.1086 -0.1542 -0.2618
13782SOL    HW143353   9.458   0.009   2.060  1.2958 -0.1495 -0.8076
13782SOL    HW243354   9.456   0.076   1.925 -1.9062  0.1709 -0.6676
13783SOL     OW43355   4.226   9.433   6.970 -0.0080 -0.8502  0.2295
13783SOL    HW143356   4.184   9.420   6.884 -0.7756 -0.2677  0.5073
13783SOL    HW243357   4.164   9.396   7.032 -0.3310  0.4416  0.6888
13784SOL     OW43358  11.173   8.823  10.442  0.0164 -0.2584  0.3666
13784SOL    HW143359  11.218   8.766  10.379 -0.7255 -1.4395  0.8830
13784SOL    HW243360  11.110   8.872  10.389 -0.2583 -0.8791  0.1088
13785SOL     OW43361   8.798   8.387   4.195 -0.3170 -0.3351  0.1655
13785SOL    HW143362   8.711   8.415   4.225 -0.8282 -0.3460 -1.2467
13785SOL    HW243363   8.803   8.295   4.222 -1.9507 -1.2138 -2.1200
13786SOL     OW43364   9.692   5.662   0.397 -0.1500 -0.1051 -0.1159
13786SOL    HW143365   9.680   5.740   0.344  1.5287  0.0652 -0.2981
13786SOL    HW243366   9.728   5.694   0.480 -1.7534 -0.4714  0.7448
13787SOL     OW43367   5.881  11.235   9.955  0.2487  0.0791  0.5597
13787SOL    HW143368   5.848  11.147   9.936 -2.3254  0.5161  2.3524
13787SOL    HW243369   5.893  11.275   9.869  0.4063 -1.6307 -0.2696
13788SOL     OW43370   0.922   0.889   3.129 -0.0782 -0.4366 -0.1375
13788SOL    HW143371   0.913   0.892   3.224 -0.9311  0.4091 -0.2331
13788SOL    HW243372   0.921   0.796   3.108  0.3701 -0.6405  0.6928
13789SOL     OW43373   8.493   0.627  10.301  1.1827  0.0861 -0.0691
13789SOL    HW143374   8.540   0.583  10.230  0.4809  1.4967 -1.4841
13789SOL    HW243375   8.401   0.601  10.288  0.9715  0.7961 -0.0577
13790SOL     OW43376   3.205   6.083   5.018  0.1422 -0.6198 -0.2041
13790SOL    HW143377   3.245   6.007   4.976  0.0901 -1.3017  0.9229
13790SOL    HW243378   3.113   6.059   5.028  0.1691 -0.5088  0.3456
13791SOL     OW43379   5.961   1.272   2.928  0.2382 -0.3568 -0.2397
13791SOL    HW143380   5.871   1.299   2.950  0.2069 -1.0220  0.4922
13791SOL    HW243381   6.014   1.348   2.949 -0.3354  0.7651 -2.4861
13792SOL     OW43382   8.828  10.003   2.129  0.0891 -0.7329 -0.2379
13792SOL    HW143383   8.852   9.913   2.105 -0.4168 -0.9184 -0.0590
13792SOL    HW243384   8.843  10.053   2.049 -0.4587 -1.1373 -0.6094
13793SOL     OW43385   1.157   3.960   6.314  0.1672 -0.3561 -0.1987
13793SOL    HW143386   1.210   3.930   6.388 -2.8314 -1.3288  1.7685
13793SOL    HW243387   1.188   3.909   6.239  2.2140 -0.5502  0.7264
13794SOL     OW43388   4.597   3.728  11.194 -0.1573 -0.4804  0.4550
13794SOL    HW143389   4.642   3.667  11.135  0.1191 -0.1687  0.3366
13794SOL    HW243390   4.658   3.801  11.202 -1.1343  0.5105 -0.6846
13795SOL     OW43391   6.921   6.803   4.353 -0.3418 -0.1324  0.2047
13795SOL    HW143392   6.999   6.851   4.326  0.9424 -0.9573  2.2088
13795SOL    HW243393   6.908   6.827   4.444 -1.0853 -1.7368  0.5638
13796SOL     OW43394  10.238   5.992   6.099  0.0159  0.2006  0.6090
13796SOL    HW143395  10.166   5.962   6.044  0.2089 -3.5959  2.0967
13796SOL    HW243396  10.315   5.992   6.041 -0.6026  1.3578 -0.2571
13797SOL     OW43397   8.317   0.376   9.650  0.5074 -0.7875  0.0387
13797SOL    HW143398   8.228   0.353   9.678  0.1740  0.5353  0.1469
13797SOL    HW243399   8.325   0.339   9.563 -1.1553  1.3026 -1.0906
13798SOL     OW43400  11.057   0.551  10.708 -0.5797 -0.1338  0.3966
13798SOL    HW143401  11.070   0.564  10.802 -2.6741  1.2737  0.5477
13798SOL    HW243402  10.962   0.543  10.698 -0.4121 -0.0010 -1.6403
13799SOL     OW43403   2.165   3.803   8.360 -0.3968 -0.0291  0.1752
13799SOL    HW143404   2.253   3.839   8.359 -0.1961 -0.5151 -0.1173
13799SOL    HW243405   2.122   3.842   8.284  0.1820 -1.2463 -0.8334
13800SOL     OW43406   8.496   0.783   7.595  0.1879  0.0547 -0.5816
13800SOL    HW143407   8.581   0.755   7.562  0.0655 -0.0315 -0.8236
13800SOL    HW243408   8.501   0.768   7.690  0.3934 -0.0725 -0.6131
13801SOL     OW43409  10.594   6.931   4.985  0.2455 -0.0328 -0.9970
13801SOL    HW143410  10.618   7.000   5.047 -2.5522  2.7069 -2.6790
13801SOL    HW243411  10.515   6.891   5.023  0.1083 -0.2137 -1.4571
13802SOL     OW43412   9.297   5.960   0.122  0.5864  0.4763 -0.5931
13802SOL    HW143413   9.311   5.970   0.028  1.2377  0.0111 -0.5484
13802SOL    HW243414   9.233   6.028   0.144 -0.7690 -0.4084 -1.6570
13803SOL     OW43415   1.432  10.838  10.763  0.4697 -0.1364  0.5243
13803SOL    HW143416   1.376  10.893  10.818  2.3892  1.2388  1.2147
13803SOL    HW243417   1.386  10.754  10.759 -0.9108  0.4690  2.2602
13804SOL     OW43418   8.440   0.894   1.968 -0.2590 -0.3973 -0.6015
13804SOL    HW143419   8.489   0.813   1.954 -0.0263 -0.1745 -1.1074
13804SOL    HW243420   8.465   0.950   1.894  2.5641  1.5883  1.6164
13805SOL     OW43421   2.027   0.888   8.569 -0.0790  0.9517 -0.0270
13805SOL    HW143422   2.026   0.854   8.659  0.2220  0.0791 -0.3458
13805SOL    HW243423   1.935   0.902   8.548 -0.0985  2.3083  0.8298
13806SOL     OW43424   0.636   5.182   6.341 -0.1267  0.6094  0.2937
13806SOL    HW143425   0.610   5.143   6.258 -1.4857  0.6351  0.6822
13806SOL    HW243426   0.696   5.119   6.380 -0.0868  0.2398 -0.3586
13807SOL     OW43427   1.151   2.341   6.625  0.0919  0.6509  0.5574
13807SOL    HW143428   1.093   2.293   6.684 -0.1618 -0.6625 -0.7062
13807SOL    HW243429   1.105   2.422   6.607  0.3249  1.2485  2.3834
13808SOL     OW43430   6.813   4.080   9.817  0.0938 -0.4843 -0.2705
13808SOL    HW143431   6.901   4.095   9.851 -0.3890  0.0847  0.7802
13808SOL    HW243432   6.786   4.163   9.779  1.3926 -1.5970 -4.0857
13809SOL     OW43433   3.709   4.505   1.643  0.2458  0.1099  0.4280
13809SOL    HW143434   3.637   4.559   1.673  0.0123 -0.2854  0.5799
13809SOL    HW243435   3.777   4.568   1.618  0.9872  0.4601  3.0382
13810SOL     OW43436   3.922   8.889   1.299 -0.0347 -0.5500 -0.5471
13810SOL    HW143437   3.881   8.975   1.290  1.5290  0.0680 -2.5381
13810SOL    HW243438   3.854   8.828   1.271 -1.2848 -0.0331  1.2178
13811SOL     OW43439   1.455   4.098   2.222  0.3460  0.5095 -0.5306
13811SOL    HW143440   1.496   4.088   2.135  2.7599  0.5468  0.5174
13811SOL    HW243441   1.492   4.179   2.256 -0.0090  0.1134  0.8359
13812SOL     OW43442   1.369   1.503   0.336 -0.6159 -0.0385  0.0446
13812SOL    HW143443   1.442   1.537   0.285  0.0960  0.4231  1.3335
13812SOL    HW243444   1.392   1.521   0.427 -2.3937  0.2463  0.4821
13813SOL     OW43445  11.280   3.152   3.232 -0.1328  0.5488 -0.1203
13813SOL    HW143446  11.349   3.150   3.299  1.4528 -1.8849 -1.6922
13813SOL    HW243447  11.327   3.154   3.149 -1.7684 -2.8041 -1.3134
13814SOL     OW43448   8.571   3.016   8.287 -0.0530  0.3725 -0.3398
13814SOL    HW143449   8.564   2.947   8.353 -3.8089  1.1365  0.3017
13814SOL    HW243450   8.543   2.974   8.206 -1.7766  0.9001 -0.0610
13815SOL     OW43451   4.186   4.195   1.609 -1.0177 -0.2618 -0.4023
13815SOL    HW143452   4.164   4.236   1.526 -0.7679  0.4575 -0.1183
13815SOL    HW243453   4.208   4.105   1.586 -0.5354  0.0433 -1.1734
13816SOL     OW43454   0.469   6.736   3.236 -0.8159  0.3808 -0.1727
13816SOL    HW143455   0.413   6.720   3.311  0.6811  1.2069  1.1742
13816SOL    HW243456   0.522   6.812   3.260  1.6527 -0.9913 -0.9047
13817SOL     OW43457   0.237   4.837   7.315 -0.2664 -0.7003 -0.0219
13817SOL    HW143458   0.235   4.878   7.229  0.2271  1.2851  0.8718
13817SOL    HW243459   0.329   4.811   7.327  0.4036  1.9279  1.1488
13818SOL     OW43460   0.906   7.735   8.883 -0.1549  0.1184  0.0170
13818SOL    HW143461   0.902   7.829   8.895 -0.5974 -0.0143  1.0208
13818SOL    HW243462   0.953   7.723   8.801 -0.9832  1.2367 -0.6559
13819SOL     OW43463   8.284   1.727   7.107 -0.3453 -0.3557  0.4269
13819SOL    HW143464   8.270   1.634   7.121 -4.0243 -0.0590 -0.1769
13819SOL    HW243465   8.275   1.766   7.194  0.1511 -0.4487  0.5241
13820SOL     OW43466   8.043   9.054   6.935  0.5843 -1.3131  0.4537
13820SOL    HW143467   7.948   9.052   6.920  0.3793 -1.1409  1.6614
13820SOL    HW243468   8.073   8.967   6.906  0.2912 -0.8992 -1.2328
13821SOL     OW43469   5.844   7.654   0.099  0.1443 -1.0185 -0.0696
13821SOL    HW143470   5.789   7.647   0.021 -2.8742  1.2078  1.6745
13821SOL    HW243471   5.900   7.730   0.082 -0.8214 -0.2633  0.0847
13822SOL     OW43472   7.554   9.726   2.237  0.2948  0.6329 -0.1247
13822SOL    HW143473   7.604   9.698   2.314 -1.5186  1.0692  1.2591
13822SOL    HW243474   7.619   9.770   2.182  1.7307 -0.0789  0.9243
13823SOL     OW43475   5.520   8.217  10.847  0.0885  0.0688 -0.5673
13823SOL    HW143476   5.486   8.214  10.936 -0.4429  0.4290 -0.7506
13823SOL    HW243477   5.596   8.275  10.852  2.5681 -2.9985  0.4359
13824SOL     OW43478   1.673   1.074   0.044 -0.0524 -0.2440  0.1868
13824SOL    HW143479   1.650   0.983   0.028  2.4387 -1.0968  1.0261
13824SOL    HW243480   1.769   1.076   0.040  0.1553  1.7253  3.1116
13825SOL     OW43481   5.172   8.562   3.731 -0.0077  0.6455  0.4112
13825SOL    HW143482   5.237   8.630   3.713  1.0988 -0.8424 -1.5078
13825SOL    HW243483   5.145   8.531   3.645 -0.3783 -1.4395  1.2265
13826SOL     OW43484   0.592   0.687   6.009 -0.2192 -0.3442  0.4506
13826SOL    HW143485   0.578   0.594   6.026  2.5622 -1.0679 -0.7860
13826SOL    HW243486   0.684   0.694   5.985 -0.6478  2.5584 -0.7682
13827SOL     OW43487   9.379  10.145   7.893 -0.0852  0.5132  0.2038
13827SOL    HW143488   9.468  10.114   7.910 -0.3853 -0.5009  0.0046
13827SOL    HW243489   9.387  10.198   7.814  0.4025  0.7028  0.3783
13828SOL     OW43490   1.727   0.706   5.290 -0.5634 -0.1598 -0.1245
13828SOL    HW143491   1.815   0.683   5.259  0.6455  2.1444  1.2722
13828SOL    HW243492   1.704   0.634   5.350  0.1405 -1.0450 -0.8751
13829SOL     OW43493  10.234   2.611   5.100 -0.1069 -0.6330 -0.3405
13829SOL    HW143494  10.193   2.629   5.184  0.1720  0.0479 -0.3387
13829SOL    HW243495  10.328   2.618   5.117 -0.0625  1.3540 -1.0525
13830SOL     OW43496   1.341   4.563   0.798 -0.1863  0.6833 -0.0929
13830SOL    HW143497   1.314   4.592   0.710  0.5581 -0.3429 -0.6871
13830SOL    HW243498   1.403   4.492   0.781 -1.1507 -0.5271  1.2950
13831SOL     OW43499   7.483  10.828  10.322  0.6738  0.7932  0.3289
13831SOL    HW143500   7.409  10.875  10.283  0.9670 -0.1704 -1.4487
13831SOL    HW243501   7.446  10.786  10.400 -0.1084  2.0885  0.7010
13832SOL     OW43502   8.081   2.449  10.430 -0.1048  0.8347 -0.0990
13832SOL    HW143503   8.010   2.453  10.366 -1.0442 -1.1316  0.7539
13832SOL    HW243504   8.038   2.455  10.515  0.6309 -1.0982  0.4578
13833SOL     OW43505   8.862   2.015   1.653 -0.0273  0.9249  0.0706
13833SOL    HW143506   8.772   1.983   1.648 -0.0177  1.0880 -1.6205
13833SOL    HW243507   8.854   2.103   1.690 -0.6556  1.2071 -0.6961
13834SOL     OW43508   4.595  10.913   5.208  0.6218 -0.1812  1.2893
13834SOL    HW143509   4.529  10.849   5.233 -0.5032 -0.2488 -1.5158
13834SOL    HW243510   4.552  10.968   5.143  2.8024  0.9060  0.6582
13835SOL     OW43511   5.683   7.476   1.747 -0.0980 -0.6011  0.3799
13835SOL    HW143512   5.650   7.477   1.657 -0.0225  2.5087  0.2685
13835SOL    HW243513   5.750   7.409   1.748 -0.6787 -1.2744 -1.6548
13836SOL     OW43514   1.389   0.547   2.864  0.3890  0.1532  0.0427
13836SOL    HW143515   1.319   0.582   2.919  1.4270  0.7976  0.9822
13836SOL    HW243516   1.362   0.458   2.844  0.3430 -0.3845  2.2589
13837SOL     OW43517  10.916   4.167   4.136 -0.4817  0.2882  0.6906
13837SOL    HW143518  10.880   4.141   4.220  0.0810 -1.0377  0.5417
13837SOL    HW243519  10.998   4.211   4.157 -1.4019  1.9708  0.9378
13838SOL     OW43520   5.107   2.528  10.371 -0.4604  0.5768  0.1321
13838SOL    HW143521   5.019   2.550  10.339 -0.6383  1.1316  0.9706
13838SOL    HW243522   5.118   2.435  10.348 -1.5060  0.3329  0.5458
13839SOL     OW43523   5.837   0.443   7.919 -0.4589  0.2213  0.2144
13839SOL    HW143524   5.792   0.382   7.860  0.9198 -1.2843  0.6263
13839SOL    HW243525   5.787   0.524   7.913 -0.6096  0.0308 -2.7329
13840SOL     OW43526   3.541   1.666   5.476 -0.3046  0.7416  0.5688
13840SOL    HW143527   3.631   1.676   5.443 -0.1167 -0.4055  0.6771
13840SOL    HW243528   3.551   1.667   5.571 -0.0382 -1.8339  0.6375
13841SOL     OW43529   0.338   7.224   0.241  0.6655 -0.0131 -0.1404
13841SOL    HW143530   0.299   7.310   0.228 -0.3922 -0.1322  1.8581
13841SOL    HW243531   0.283   7.164   0.191  1.0143  0.3780 -1.0034
13842SOL     OW43532  10.233   6.123   5.114 -0.2255  0.1328  0.4178
13842SOL    HW143533  10.178   6.187   5.067 -1.0314 -1.0530 -0.3218
13842SOL    HW243534  10.172   6.080   5.174  0.5777  0.8904  1.8160
13843SOL     OW43535  10.956   1.032   0.875  0.0760  0.2269  0.1215
13843SOL    HW143536  11.034   1.042   0.929 -1.0013  1.5025  1.5446
13843SOL    HW243537  10.908   0.960   0.915 -0.3501  0.6628  0.4081
13844SOL     OW43538   3.513   1.138   8.735 -0.0107 -0.1118  0.8175
13844SOL    HW143539   3.524   1.135   8.830 -0.6064  0.4540  0.9137
13844SOL    HW243540   3.484   1.050   8.711 -1.1089  0.0930  1.3351
13845SOL     OW43541   9.123   7.110   8.970  0.2725  0.3229 -0.1082
13845SOL    HW143542   9.042   7.090   9.018  0.4727  0.8127  0.4516
13845SOL    HW243543   9.102   7.090   8.879  0.7339 -3.3986  0.4461
13846SOL     OW43544   7.493   5.760   9.019  0.5775 -0.2984  0.1802
13846SOL    HW143545   7.576   5.742   9.063  0.4209 -0.0017  0.5971
13846SOL    HW243546   7.518   5.784   8.930  0.9992  0.6822  0.5578
13847SOL     OW43547  10.547   0.754   6.541 -0.4537 -0.1468  0.0355
13847SOL    HW143548  10.462   0.781   6.505  0.1396  0.5255 -0.9007
13847SOL    HW243549  10.609   0.818   6.506  0.5764 -1.1182  0.0321
13848SOL     OW43550   9.200   3.951   0.513 -0.2877  0.5810  0.5883
13848SOL    HW143551   9.238   3.917   0.595 -2.5571 -1.1226  1.0398
13848SOL    HW243552   9.180   3.872   0.462  0.1025  1.5792 -1.1882
13849SOL     OW43553   4.003  10.377   0.901 -0.5642 -0.4131  0.2941
13849SOL    HW143554   3.960  10.346   0.981  0.0721  0.6764  1.0794
13849SOL    HW243555   3.935  10.425   0.855 -0.7231 -0.3669  0.5711
13850SOL     OW43556   2.288   4.508   8.514 -0.4404 -0.0612  0.1484
13850SOL    HW143557   2.250   4.538   8.431 -0.3306 -1.9854 -0.6512
13850SOL    HW243558   2.224   4.447   8.550  1.1711 -2.2993 -0.5490
13851SOL     OW43559   3.645   0.207   5.756  0.0823 -0.0248  0.4288
13851SOL    HW143560   3.689   0.259   5.689  0.3261  0.8787  1.2565
13851SOL    HW243561   3.582   0.153   5.708 -0.2395  1.0974 -0.4530
13852SOL     OW43562   9.320   4.575   6.065 -0.0808 -0.2664  0.2103
13852SOL    HW143563   9.270   4.497   6.089 -1.8038  1.3655  2.2906
13852SOL    HW243564   9.268   4.617   5.997  0.6501 -0.6899 -0.6330
13853SOL     OW43565   9.604   9.816   4.605 -0.7141  0.1722  0.4069
13853SOL    HW143566   9.688   9.835   4.563 -1.3484  0.2269 -0.8770
13853SOL    HW243567   9.620   9.833   4.698  1.4166 -2.3002  0.5995
13854SOL     OW43568   6.357   0.944   1.714 -0.3119  0.1602  0.2219
13854SOL    HW143569   6.357   0.976   1.805 -1.0475 -0.5654  0.4946
13854SOL    HW243570   6.348   0.849   1.723 -0.8598  0.1275 -0.6219
13855SOL     OW43571   0.486  10.654  11.004 -0.6203  0.8453  0.2143
13855SOL    HW143572   0.394  10.665  11.026 -0.8311 -0.1119 -0.1410
13855SOL    HW243573   0.494  10.690  10.915 -0.7114  0.6610  0.1321
13856SOL     OW43574   1.944   7.940  10.346  0.2094 -0.1079  0.2186
13856SOL    HW143575   1.971   8.019  10.391 -1.0712 -0.0347  0.8914
13856SOL    HW243576   1.872   7.905  10.399  0.0434 -1.1353 -0.6491
13857SOL     OW43577   3.056  10.329   9.140  0.2508 -0.6327 -0.2768
13857SOL    HW143578   3.025  10.356   9.054 -1.2280 -2.0189 -0.2415
13857SOL    HW243579   3.061  10.234   9.135 -1.4844 -0.8981  1.6264
13858SOL     OW43580   0.219   7.317   4.987 -0.0517 -0.6947  0.2553
13858SOL    HW143581   0.282   7.354   5.049  0.3363 -0.4429 -0.2734
13858SOL    HW243582   0.210   7.384   4.920 -3.2922  0.6361  1.8521
13859SOL     OW43583   9.260   1.810   3.508  0.2234  0.2308 -0.0431
13859SOL    HW143584   9.190   1.874   3.523 -1.4692 -1.2196 -1.3343
13859SOL    HW243585   9.259   1.755   3.587  0.5753  0.7725  0.3490
13860SOL     OW43586   5.040   7.657  11.285 -0.4244  0.6491  0.5100
13860SOL    HW143587   5.101   7.586  11.266 -2.2250 -1.5595  2.2733
13860SOL    HW243588   5.093   7.725  11.325  1.4480  0.5646 -1.6280
13861SOL     OW43589   8.015   2.913   2.703 -0.1083 -0.3591 -0.0507
13861SOL    HW143590   7.998   2.904   2.609 -0.6663  0.3480 -0.0265
13861SOL    HW243591   7.929   2.905   2.744 -0.5286  3.3040  0.0844
13862SOL     OW43592   4.604   0.385  10.150  0.3053 -0.0791  0.1098
13862SOL    HW143593   4.628   0.464  10.103  1.6641 -0.3125  0.3723
13862SOL    HW243594   4.683   0.330  10.148  0.1470 -0.4411  1.9253
13863SOL     OW43595   3.838   0.370   1.144 -0.3993  0.2811  0.1579
13863SOL    HW143596   3.812   0.444   1.199  0.8206 -0.3444  1.6182
13863SOL    HW243597   3.873   0.305   1.205 -2.0751 -1.8331 -0.9890
13864SOL     OW43598   0.297   2.233   2.923  0.8290 -0.1270  0.1470
13864SOL    HW143599   0.300   2.311   2.978 -1.4577 -2.4747  4.1212
13864SOL    HW243600   0.218   2.244   2.870  0.9228  0.5243  0.1297
13865SOL     OW43601   8.816   8.871   9.261  0.0707  0.5774 -0.1980
13865SOL    HW143602   8.817   8.932   9.335 -0.4160  1.3504 -0.7974
13865SOL    HW243603   8.723   8.854   9.247  0.0732  1.3983 -1.3686
13866SOL     OW43604   7.223   9.278   4.740 -0.2004  0.4894 -0.5551
13866SOL    HW143605   7.259   9.344   4.682  0.9447  0.5579  0.2029
13866SOL    HW243606   7.215   9.199   4.686 -2.6671  1.4760 -1.7935
13867SOL     OW43607   4.409   8.935   1.143 -0.5852 -0.6333 -0.1728
13867SOL    HW143608   4.497   8.911   1.114 -0.6786 -2.1627  0.7138
13867SOL    HW243609   4.351   8.901   1.074 -0.7207 -3.2120  1.0909
13868SOL     OW43610   6.578   4.507   5.529  0.1293 -0.0481  0.1061
13868SOL    HW143611   6.620   4.457   5.599  0.6794 -0.0665 -0.2320
13868SOL    HW243612   6.498   4.541   5.569  0.9507  0.8265  1.0681
13869SOL     OW43613   5.418   5.884  11.190 -0.3496  0.0562  0.7874
13869SOL    HW143614   5.462   5.799  11.185 -1.9434 -0.8118  0.6771
13869SOL    HW243615   5.479   5.946  11.150  1.7781 -0.6104  2.7956
13870SOL     OW43616  10.495  11.032   6.534 -0.0912 -0.3082  0.0683
13870SOL    HW143617  10.439  10.964   6.571  1.3038 -1.0923  0.8680
13870SOL    HW243618  10.579  11.021   6.581  0.9376  0.3603 -1.5304
13871SOL     OW43619   3.710   5.124   3.084 -0.4582 -0.0858 -0.0540
13871SOL    HW143620   3.760   5.046   3.061  0.9025  0.8013 -0.2525
13871SOL    HW243621   3.749   5.154   3.166 -3.3078 -1.5480  1.9755
13872SOL     OW43622   4.764   0.085   0.725 -0.0738  0.0616 -0.2556
13872SOL    HW143623   4.811   0.164   0.749  0.7987 -0.5205 -0.0293
13872SOL    HW243624   4.694   0.116   0.667 -0.9192  1.2231  1.2997
13873SOL     OW43625  10.997   8.763  10.754  0.3995 -1.0968 -0.5888
13873SOL    HW143626  10.907   8.771  10.785  0.9701  4.1466  0.7496
13873SOL    HW243627  11.045   8.725  10.827 -0.2723 -0.9435 -0.0593
13874SOL     OW43628   0.613   8.867   5.069  0.6868 -0.2483 -0.7306
13874SOL    HW143629   0.692   8.882   5.016 -1.0188  3.6959 -2.5283
13874SOL    HW243630   0.543   8.910   5.021 -2.3713 -2.2005  1.5920
13875SOL     OW43631   8.479   6.899   5.528  0.3700 -0.2584  0.5223
13875SOL    HW143632   8.422   6.824   5.543 -0.1788  0.2013  0.7632
13875SOL    HW243633   8.448   6.936   5.445  2.3546 -1.8440 -1.0566
13876SOL     OW43634   6.853   0.420   2.715 -0.0823 -0.2774 -0.4805
13876SOL    HW143635   6.886   0.508   2.729  1.9998 -0.8333 -1.3890
13876SOL    HW243636   6.846   0.382   2.802  0.3932  0.3269 -0.1742
13877SOL     OW43637   4.672   1.450  11.082 -0.6061 -0.3947  0.3986
13877SOL    HW143638   4.645   1.398  11.158 -2.4473  0.2200  0.2156
13877SOL    HW243639   4.681   1.539  11.116 -1.3943 -0.1239 -0.0747
13878SOL     OW43640   5.235   7.549   7.825 -1.0931  0.1002  0.2575
13878SOL    HW143641   5.289   7.484   7.781 -0.6532  0.2460  0.5649
13878SOL    HW243642   5.162   7.500   7.862 -0.6974 -0.2482  0.5988
13879SOL     OW43643   0.128   7.921   9.721 -1.1809  0.6915  0.1234
13879SOL    HW143644   0.039   7.956   9.726 -0.1324  3.6764  5.2236
13879SOL    HW243645   0.144   7.883   9.807  2.2896 -0.3610 -0.8242
13880SOL     OW43646   9.895   0.230   0.394 -0.1340  0.3617  0.0564
13880SOL    HW143647   9.880   0.295   0.326  1.1364  1.7156  1.0085
13880SOL    HW243648   9.814   0.179   0.397 -0.5593  0.8506 -1.7990
13881SOL     OW43649   1.280   2.546   6.122  0.4725  0.1552 -0.0755
13881SOL    HW143650   1.342   2.534   6.193  1.9208  0.0025 -1.3240
13881SOL    HW243651   1.329   2.524   6.043 -1.4926 -1.1232 -1.0369
13882SOL     OW43652   5.110   4.766   5.318  0.4724 -0.0614 -0.4839
13882SOL    HW143653   5.044   4.733   5.379  0.0555  0.7130 -0.5056
13882SOL    HW243654   5.061   4.795   5.241  0.9649 -0.7180 -1.0615
13883SOL     OW43655   6.471   2.632  10.268  0.1342 -0.1856  0.5770
13883SOL    HW143656   6.515   2.653  10.185 -1.4437 -1.3280 -0.6226
13883SOL    HW243657   6.517   2.555  10.300 -1.3754 -1.9149 -1.1219
13884SOL     OW43658   2.466   5.590   4.756 -0.6133  0.8163  0.6240
13884SOL    HW143659   2.423   5.567   4.838 -3.0594  2.8062  0.0084
13884SOL    HW243660   2.395   5.610   4.696  1.0820  4.1505 -0.5346
13885SOL     OW43661   9.637   5.668   3.430 -0.0705  0.4808 -0.3106
13885SOL    HW143662   9.597   5.635   3.349  1.2160 -0.0857 -0.7569
13885SOL    HW243663   9.578   5.641   3.500  0.2233 -1.5896 -0.8101
13886SOL     OW43664   2.043   5.784   8.828  0.8263 -0.1583  0.5904
13886SOL    HW143665   1.951   5.781   8.856  0.2764 -1.9158 -1.1624
13886SOL    HW243666   2.069   5.692   8.823  2.1423  0.2445 -0.5949
13887SOL     OW43667   4.288   3.289   5.482 -0.8525 -0.0961  0.1391
13887SOL    HW143668   4.286   3.365   5.424  1.3227 -0.4316 -0.4437
13887SOL    HW243669   4.376   3.289   5.520 -0.8958 -2.1517  0.3677
13888SOL     OW43670   6.168   4.363   8.143  0.2436 -0.1895 -0.5846
13888SOL    HW143671   6.100   4.393   8.082 -0.7754  0.1937  0.6945
13888SOL    HW243672   6.147   4.407   8.225  1.4400 -0.8956  0.1205
13889SOL     OW43673   6.143   3.088  10.431  0.4011  0.6614 -0.4231
13889SOL    HW143674   6.100   3.160  10.385 -0.8792  0.3242  0.1957
13889SOL    HW243675   6.212   3.130  10.482  1.3309  1.1312 -1.9829
13890SOL     OW43676   6.410   2.799   3.530  0.2020 -0.1794  0.0155
13890SOL    HW143677   6.433   2.854   3.455 -0.7421 -0.2058 -0.3065
13890SOL    HW243678   6.318   2.778   3.516  0.1266 -0.5088  0.9868
13891SOL     OW43679  10.835   3.060  10.142  0.4110  0.3231  0.2795
13891SOL    HW143680  10.930   3.057  10.133  0.6023 -0.1920  2.0900
13891SOL    HW243681  10.804   3.097  10.059  2.1728  0.4604 -0.3551
13892SOL     OW43682   1.247   4.017   3.965 -0.0966  0.4761 -0.2090
13892SOL    HW143683   1.159   4.017   4.003  0.0233 -2.0927  0.2788
13892SOL    HW243684   1.305   4.039   4.039 -0.1423 -0.9129  0.2767
13893SOL     OW43685  10.425   5.715   2.300 -1.0265 -0.4651 -0.1132
13893SOL    HW143686  10.479   5.691   2.375  0.3934 -1.6231 -1.4481
13893SOL    HW243687  10.396   5.804   2.319  2.2456  0.6661  0.2001
13894SOL     OW43688   3.110   7.705   7.526  0.1857  0.6450  0.2586
13894SOL    HW143689   3.080   7.634   7.470  1.6588 -0.1421  0.4265
13894SOL    HW243690   3.069   7.687   7.611  2.5077 -1.5359  1.0423
13895SOL     OW43691   3.057   3.559  10.224  0.1312  0.1881  0.8374
13895SOL    HW143692   3.099   3.632  10.179 -0.1781  0.0686  0.3433
13895SOL    HW243693   3.127   3.497  10.240  0.1543 -0.0071  0.0230
13896SOL     OW43694   4.317   1.831   1.076  0.3559 -0.0240 -0.4201
13896SOL    HW143695   4.282   1.912   1.038  1.5296  0.4934 -0.4492
13896SOL    HW243696   4.248   1.801   1.135  0.1068  1.2984 -0.0008
13897SOL     OW43697   8.033   5.771  10.389 -0.0322 -0.5580  0.1929
13897SOL    HW143698   8.003   5.807  10.305  0.0052 -0.3289  0.2765
13897SOL    HW243699   7.994   5.829  10.455 -1.2480 -1.5882  0.4106
13898SOL     OW43700   6.964   5.692   2.296 -0.1041 -0.2509 -0.5171
13898SOL    HW143701   7.055   5.715   2.279 -0.6715  1.5841 -1.3055
13898SOL    HW243702   6.967   5.599   2.319  1.7687 -0.6310 -2.0241
13899SOL     OW43703   9.763   9.269   0.588  0.0649 -0.4229 -0.5095
13899SOL    HW143704   9.714   9.240   0.665  0.1010 -1.6105 -0.9028
13899SOL    HW243705   9.855   9.259   0.612  0.0800 -0.4984 -0.5967
13900SOL     OW43706   9.947   2.340   0.698 -0.2999  0.5513  0.2643
13900SOL    HW143707  10.033   2.348   0.739 -1.6518  1.1166  3.2125
13900SOL    HW243708   9.951   2.399   0.622  2.4068 -0.7745 -0.7446
13901SOL     OW43709   3.203   3.863   3.720  0.0655  0.0762  0.2282
13901SOL    HW143710   3.129   3.920   3.700 -0.5512 -1.1601 -1.1497
13901SOL    HW243711   3.175   3.814   3.797 -0.8622 -0.8489 -0.6616
13902SOL     OW43712   4.749   2.288  10.304  0.6105  0.3852 -0.0854
13902SOL    HW143713   4.843   2.274  10.317  0.5271  0.2864  0.4688
13902SOL    HW243714   4.737   2.286  10.209  1.5817  2.9822 -0.3536
13903SOL     OW43715   5.739   0.998   9.292 -0.1897  0.0416 -0.5577
13903SOL    HW143716   5.710   1.064   9.230  1.0498  0.3527 -0.8319
13903SOL    HW243717   5.744   0.917   9.241  1.3458  0.4039 -1.0433
13904SOL     OW43718  11.016   0.304   7.799  0.7771  0.8713 -0.0558
13904SOL    HW143719  11.018   0.358   7.720  0.1659  0.1327 -0.5948
13904SOL    HW243720  11.023   0.214   7.767 -1.1460  0.4355  0.5624
13905SOL     OW43721   6.127   2.348   6.370  0.0273  0.0176 -0.3510
13905SOL    HW143722   6.048   2.400   6.360 -2.0003 -2.9067 -0.9502
13905SOL    HW243723   6.113   2.298   6.450  1.0555 -0.8821 -0.7025
13906SOL     OW43724   8.132   0.472   8.066  0.4132 -0.3008  0.6811
13906SOL    HW143725   8.097   0.541   8.123  1.6702  0.4099  0.6328
13906SOL    HW243726   8.166   0.518   7.990 -0.8852 -1.2099 -0.5121
13907SOL     OW43727   2.874   0.523   0.620  0.5813 -0.6019  0.9731
13907SOL    HW143728   2.857   0.436   0.655  4.1030 -0.7811  2.6916
13907SOL    HW243729   2.843   0.583   0.688  1.7713 -0.7339  1.6678
13908SOL     OW43730   9.006   8.156   8.938  0.2353 -0.1008 -0.2001
13908SOL    HW143731   9.099   8.132   8.926  0.3481 -0.3626  1.0291
13908SOL    HW243732   8.992   8.230   8.880  1.6525  0.9515  0.7359
13909SOL     OW43733  10.170   0.706   6.200 -0.5857 -0.5978 -0.4417
13909SOL    HW143734  10.197   0.645   6.131 -0.8730 -0.8176 -0.3648
13909SOL    HW243735  10.149   0.649   6.275 -1.1072 -0.4247 -0.4533
13910SOL     OW43736   7.611   2.286   2.954  0.2053  0.0944 -0.4032
13910SOL    HW143737   7.702   2.271   2.930 -0.1624 -0.4014 -1.5757
13910SOL    HW243738   7.571   2.322   2.874 -1.0867 -1.6351 -0.5891
13911SOL     OW43739   2.707   8.239   6.446  1.0434  0.2515 -0.6341
13911SOL    HW143740   2.697   8.334   6.440 -0.6841  0.0963 -0.9201
13911SOL    HW243741   2.652   8.214   6.521  1.8694 -0.4830 -0.2559
13912SOL     OW43742   4.604   1.380   1.117  0.7664  0.4362 -0.2623
13912SOL    HW143743   4.566   1.467   1.107 -0.7907 -0.4484 -3.2966
13912SOL    HW243744   4.663   1.371   1.042 -0.4725 -1.7056 -1.0682
13913SOL     OW43745   7.523   3.961  10.235 -0.3579 -0.2540 -0.2794
13913SOL    HW143746   7.593   3.899  10.215  0.8296  0.3707  1.6620
13913SOL    HW243747   7.546   3.996  10.321 -1.0295  2.8255 -1.2388
13914SOL     OW43748   1.504  11.083   1.680 -0.4029 -0.3101 -0.4078
13914SOL    HW143749   1.572  11.041   1.627 -1.2979 -1.4161 -0.7448
13914SOL    HW243750   1.534  11.172   1.693  0.6325 -0.4972 -1.3897
13915SOL     OW43751   7.432   9.818   0.471 -0.0829  0.5778 -0.0920
13915SOL    HW143752   7.356   9.820   0.529  0.3573  2.7181  0.4640
13915SOL    HW243753   7.507   9.810   0.530  0.2717  1.0111 -0.4808
13916SOL     OW43754   1.524   6.176   7.445  0.0914 -0.4308  0.8488
13916SOL    HW143755   1.441   6.193   7.490 -0.5932 -1.9113  0.2288
13916SOL    HW243756   1.503   6.105   7.384  1.7178 -0.5282  0.3763
13917SOL     OW43757   9.775   3.411   5.322 -0.3570  0.2935 -0.0021
13917SOL    HW143758   9.720   3.341   5.357 -0.8687  0.8072  0.2189
13917SOL    HW243759   9.774   3.397   5.227 -0.1383 -0.2245  0.0620
13918SOL     OW43760  10.152   1.773   3.858  0.3633  0.1882 -0.2439
13918SOL    HW143761  10.203   1.853   3.868  0.0519  0.6043 -1.7036
13918SOL    HW243762  10.203   1.706   3.905  0.6628  1.2002  0.9207
13919SOL     OW43763   2.740   5.867   9.403 -0.0855 -0.0840 -0.3944
13919SOL    HW143764   2.720   5.845   9.312 -0.9753  0.6076 -0.3820
13919SOL    HW243765   2.663   5.915   9.433  1.0399  1.4839  0.1053
13920SOL     OW43766   0.910   3.534   6.199  0.4562  0.3812  0.2470
13920SOL    HW143767   0.889   3.502   6.287  0.6789 -1.6186 -0.3960
13920SOL    HW243768   0.879   3.625   6.199  0.2444  0.3527  2.3048
13921SOL     OW43769   4.211  10.666   8.933  0.5416  0.0661  0.1454
13921SOL    HW143770   4.175  10.629   9.013  0.2127 -1.4783 -0.6711
13921SOL    HW243771   4.156  10.630   8.863  0.6954  1.5243 -0.7820
13922SOL     OW43772   9.859   4.422   7.382 -0.0816  1.4426 -0.3450
13922SOL    HW143773   9.799   4.350   7.401  1.2708 -0.1033 -1.6577
13922SOL    HW243774   9.890   4.450   7.468 -0.0945 -0.0144  0.1570
13923SOL     OW43775   9.217  10.572   4.269  0.3093  0.0967 -0.6961
13923SOL    HW143776   9.215  10.631   4.345  1.3513  0.5222 -0.9766
13923SOL    HW243777   9.189  10.488   4.303  0.9652  0.2331  0.2240
13924SOL     OW43778   3.853   9.725   9.166 -0.1527  0.2071  0.2449
13924SOL    HW143779   3.916   9.782   9.212 -1.2228  1.5552  0.1102
13924SOL    HW243780   3.773   9.731   9.218 -1.1636  1.1809 -1.3266
13925SOL     OW43781   6.912   6.770   2.526 -0.0872  0.7315 -0.2437
13925SOL    HW143782   6.842   6.833   2.510  1.1169  2.3718  0.7388
13925SOL    HW243783   6.992   6.814   2.498  0.6915 -0.7312 -0.4291
13926SOL     OW43784   7.713  11.267   2.068  0.6136 -0.1153  0.0156
13926SOL    HW143785   7.628  11.263   2.024  0.2741  1.8625  0.3706
13926SOL    HW243786   7.752  11.349   2.037  2.9105 -1.4725 -0.9526
13927SOL     OW43787   3.234   1.210   4.042 -0.4273 -0.4318 -0.0554
13927SOL    HW143788   3.160   1.268   4.023 -1.4731 -1.9923 -0.9379
13927SOL    HW243789   3.308   1.250   3.996 -0.8637  0.7827  0.2693
13928SOL     OW43790   7.851   5.958   5.902 -0.1245  0.1965 -0.5353
13928SOL    HW143791   7.871   6.051   5.912 -1.7302  0.4094  1.1139
13928SOL    HW243792   7.921   5.913   5.949 -0.0347  0.6255 -0.2506
13929SOL     OW43793   1.508  10.332   0.797  0.1727  0.1852  0.4174
13929SOL    HW143794   1.572  10.263   0.784  0.6566  0.3251  1.8550
13929SOL    HW243795   1.425  10.286   0.807 -0.0280  0.0169 -1.6673
13930SOL     OW43796   6.061   4.691   0.504 -0.4902  0.4237  0.3030
13930SOL    HW143797   6.154   4.696   0.528 -0.6121 -0.0918  0.9041
13930SOL    HW243798   6.028   4.779   0.518  0.3351  1.1127 -1.7647
13931SOL     OW43799  10.129   0.724   8.089  0.9231  0.9311 -0.0927
13931SOL    HW143800  10.150   0.772   8.169 -0.6191  1.7512 -0.1342
13931SOL    HW243801  10.181   0.644   8.095 -0.6733 -0.0368  2.7686
13932SOL     OW43802  10.249   0.911   9.566  0.0322  0.2166 -0.0624
13932SOL    HW143803  10.166   0.950   9.595 -0.2061 -0.0217 -0.4175
13932SOL    HW243804  10.316   0.966   9.606 -0.2998  0.8965 -0.4284
13933SOL     OW43805   6.360   2.139   1.140 -0.1299 -0.7699  0.1933
13933SOL    HW143806   6.355   2.092   1.057  0.6125 -1.5896  0.5966
13933SOL    HW243807   6.303   2.091   1.199 -0.1736 -0.5538  0.3282
13934SOL     OW43808   7.501   7.361   7.331  0.1566 -0.1222  0.2681
13934SOL    HW143809   7.484   7.440   7.279 -1.2613 -1.0852 -0.8076
13934SOL    HW243810   7.517   7.293   7.266 -2.1628 -1.4906  1.0000
13935SOL     OW43811   2.511   7.057   2.897  0.5224 -0.1042 -0.0425
13935SOL    HW143812   2.578   7.023   2.838  1.9253 -0.8584  1.8638
13935SOL    HW243813   2.549   7.137   2.933 -0.3147  0.3613 -0.1758
13936SOL     OW43814   9.482   1.498  10.055 -0.3058 -0.0143 -0.1698
13936SOL    HW143815   9.523   1.417  10.086 -1.4914  0.0737  1.8228
13936SOL    HW243816   9.533   1.568  10.097  0.0316  0.2612 -1.0100
13937SOL     OW43817   3.530   8.275  10.366  0.0635  0.1598  0.3354
13937SOL    HW143818   3.596   8.228  10.314 -0.4502  0.2020 -0.3705
13937SOL    HW243819   3.581   8.328  10.427  0.6597 -1.1577  1.0244
13938SOL     OW43820   7.736   6.203   0.905 -0.1942  0.2802  0.2145
13938SOL    HW143821   7.731   6.264   0.978 -0.3192  0.0688  0.3856
13938SOL    HW243822   7.678   6.240   0.838 -0.6076  0.1287  0.4833
13939SOL     OW43823   6.178   2.083   4.682  0.1595 -0.6501 -0.4998
13939SOL    HW143824   6.191   2.053   4.592  2.7307 -0.5082 -0.2640
13939SOL    HW243825   6.190   2.178   4.678 -1.6288 -0.3951 -0.2737
13940SOL     OW43826   0.583   4.707   0.409 -0.4155  0.7094 -0.7339
13940SOL    HW143827   0.671   4.724   0.375  0.5124 -1.4451  0.4538
13940SOL    HW243828   0.588   4.731   0.501 -0.7183 -0.5305 -0.3850
13941SOL     OW43829   1.418   7.213  10.385 -0.0946  0.0529  0.4444
13941SOL    HW143830   1.352   7.144  10.392  0.4754 -0.9096 -2.3951
13941SOL    HW243831   1.400   7.271  10.459 -2.9834 -1.1138  0.7874
13942SOL     OW43832   4.265   2.999   9.028  0.4232 -0.1749  0.7268
13942SOL    HW143833   4.213   2.924   9.057  0.3087  0.2051  1.5625
13942SOL    HW243834   4.242   3.068   9.090 -0.6014  1.0123 -0.9166
13943SOL     OW43835   7.760   1.583   2.441 -0.2741 -0.2162  0.4106
13943SOL    HW143836   7.827   1.522   2.412 -0.4982  0.1840 -1.0501
13943SOL    HW243837   7.681   1.529   2.449  0.0924 -0.5948  1.6667
13944SOL     OW43838   1.657   7.886   9.977  0.7553  0.4066  0.4655
13944SOL    HW143839   1.665   7.975   9.943 -1.0094  0.2728 -0.4535
13944SOL    HW243840   1.649   7.831   9.899 -1.3370 -0.1482  1.0002
13945SOL     OW43841   3.892   1.460  10.747  0.0856  0.1363  0.5263
13945SOL    HW143842   3.861   1.538  10.701  1.0085 -0.0601 -0.4879
13945SOL    HW243843   3.815   1.402  10.750 -0.5826  1.0305  1.2217
13946SOL     OW43844   1.226   0.706   1.824 -0.4126  0.2107  0.1694
13946SOL    HW143845   1.236   0.797   1.853 -0.8488 -0.1562  1.5503
13946SOL    HW243846   1.136   0.683   1.847 -0.0694 -0.8105  0.5600
13947SOL     OW43847   3.367   5.125   3.580  0.4711 -0.0383 -0.1514
13947SOL    HW143848   3.280   5.126   3.540  0.0044  0.3155  0.8604
13947SOL    HW243849   3.425   5.156   3.510 -0.1909 -0.3811 -0.8694
13948SOL     OW43850   4.180   2.048   9.984  0.6221 -0.0399 -0.2320
13948SOL    HW143851   4.085   2.043   9.972  0.7356  1.2853 -2.1952
13948SOL    HW243852   4.215   1.992   9.915  1.2742  0.9421 -0.7162
13949SOL     OW43853  10.586   2.299   1.901  0.4322  0.8369 -0.0593
13949SOL    HW143854  10.673   2.260   1.901  0.9901  2.0304  0.3603
13949SOL    HW243855  10.551   2.279   1.988  0.9086  1.6395  0.3334
13950SOL     OW43856   8.110  10.255   2.161  0.9556 -0.0905 -0.0309
13950SOL    HW143857   8.142  10.305   2.236  0.9146 -2.7523  1.9175
13950SOL    HW243858   8.181  10.195   2.140 -0.7406 -2.6708  1.1156
13951SOL     OW43859   4.963  10.349  10.898  1.0012  0.1244 -0.5621
13951SOL    HW143860   4.986  10.436  10.928  2.6032  0.0371 -1.3993
13951SOL    HW243861   4.884  10.362  10.845 -0.6115  0.5647  1.7827
13952SOL     OW43862   2.067   4.215   3.074 -0.0312  0.2866  0.3794
13952SOL    HW143863   2.030   4.197   3.161 -0.1657 -0.4841  0.1668
13952SOL    HW243864   2.125   4.290   3.088  0.3583 -0.1632  1.2430
13953SOL     OW43865  11.069   7.695   3.001  0.6278 -0.0961  0.4875
13953SOL    HW143866  11.131   7.737   2.942  0.8971 -0.3005  0.6202
13953SOL    HW243867  11.121   7.674   3.079 -0.2356  2.3379  1.8269
13954SOL     OW43868   2.602   3.130   7.553  0.1856 -0.5653 -0.3887
13954SOL    HW143869   2.602   3.067   7.625  3.2448 -0.8194 -0.4640
13954SOL    HW243870   2.576   3.079   7.476 -1.0633 -0.7906  0.1672
13955SOL     OW43871   6.069   0.590   5.089 -0.1907 -0.0417  0.2998
13955SOL    HW143872   6.062   0.571   4.996  0.9119  0.0706  0.1781
13955SOL    HW243873   6.162   0.581   5.108 -0.3543  0.3006  1.3152
13956SOL     OW43874   5.910   9.680   4.514  0.1716 -0.8955  0.2759
13956SOL    HW143875   5.962   9.639   4.445  1.5696 -1.1787  1.4649
13956SOL    HW243876   5.854   9.609   4.547 -1.4203 -0.4768 -1.3299
13957SOL     OW43877   8.410   5.772   1.219 -0.0702  0.3113  0.1096
13957SOL    HW143878   8.506   5.772   1.227 -0.2177  0.1648  3.2424
13957SOL    HW243879   8.387   5.865   1.215  0.1803  0.3570 -0.3499
13958SOL     OW43880   1.593  10.878   1.312  0.1203  0.3612  0.0876
13958SOL    HW143881   1.631  10.802   1.268  0.0472  0.1203  0.4413
13958SOL    HW243882   1.504  10.884   1.276  0.5266  1.0190 -0.8574
13959SOL     OW43883   1.788   2.383   4.212  0.0299 -0.2010  0.2187
13959SOL    HW143884   1.803   2.435   4.133  1.0114 -1.0263 -0.1590
13959SOL    HW243885   1.712   2.424   4.254 -1.6052 -0.7605 -2.0311
13960SOL     OW43886   6.554   7.512   0.616  0.2380 -0.1663  1.2016
13960SOL    HW143887   6.591   7.564   0.687 -2.0008  2.9123  0.3656
13960SOL    HW243888   6.575   7.561   0.537  0.3344 -2.0391  0.0021
13961SOL     OW43889   9.507   9.967   0.213  0.2335  0.0513  0.1410
13961SOL    HW143890   9.579  10.012   0.258 -2.1461  2.2962  1.9827
13961SOL    HW243891   9.508  10.003   0.124  1.1585  0.2951  0.2355
13962SOL     OW43892   1.124   4.554   9.198 -0.0781  0.3884  0.1274
13962SOL    HW143893   1.097   4.582   9.111 -1.8873 -2.9840 -0.5423
13962SOL    HW243894   1.218   4.538   9.190 -0.0194  1.1516 -0.8466
13963SOL     OW43895   5.577   5.822   3.127  0.0740  0.1899  0.9061
13963SOL    HW143896   5.625   5.854   3.050 -0.7175  0.1773  0.3912
13963SOL    HW243897   5.492   5.866   3.122 -0.7553 -1.3518  0.6223
13964SOL     OW43898   7.690   9.664   0.289 -0.9144 -0.5551  0.2342
13964SOL    HW143899   7.705   9.582   0.243  0.6609  0.6234 -1.5010
13964SOL    HW243900   7.746   9.659   0.367 -0.3619 -0.8752 -0.1823
13965SOL     OW43901   2.713   1.562   9.372  0.2369 -0.1082 -0.0135
13965SOL    HW143902   2.623   1.592   9.361  0.5485  0.3709 -1.5093
13965SOL    HW243903   2.710   1.468   9.351 -0.3972 -0.8229  2.8352
13966SOL     OW43904   3.775   6.935  10.072  0.2661 -0.0673 -0.6775
13966SOL    HW143905   3.742   6.901  10.155 -0.3360 -0.4980 -1.0747
13966SOL    HW243906   3.870   6.933  10.081  0.2885 -2.2753 -0.8061
13967SOL     OW43907   1.456   8.808   6.335  0.1384 -0.2717 -0.5842
13967SOL    HW143908   1.495   8.888   6.369 -0.3874 -1.2269  2.6810
13967SOL    HW243909   1.380   8.837   6.285  0.5049  1.3080 -0.2725
13968SOL     OW43910   8.788   3.360   2.658  0.3554 -0.1395 -0.1635
13968SOL    HW143911   8.853   3.426   2.635  0.3063  0.4601  1.2831
13968SOL    HW243912   8.733   3.353   2.581 -0.5372  2.6196  0.1007
13969SOL     OW43913  10.231   6.410   5.688  0.4580  0.0788  0.3993
13969SOL    HW143914  10.198   6.494   5.656  0.6956 -0.3098 -0.8905
13969SOL    HW243915  10.178   6.393   5.767 -0.8797  0.5488 -0.3584
13970SOL     OW43916   4.356   5.798   0.273  0.3952  0.0605  0.3084
13970SOL    HW143917   4.413   5.875   0.285  0.4617  0.3059 -1.2957
13970SOL    HW243918   4.401   5.728   0.319  0.3628  0.9574  1.7621
13971SOL     OW43919   8.899   5.494   4.132 -0.1060 -0.7577 -0.2112
13971SOL    HW143920   8.855   5.433   4.073  0.7172 -0.2210 -1.4260
13971SOL    HW243921   8.881   5.580   4.096  0.9448 -0.4580 -0.0565
13972SOL     OW43922   8.404   1.273   3.386 -0.2992  0.2195  0.8673
13972SOL    HW143923   8.317   1.313   3.386 -0.5013 -0.2064  0.3479
13972SOL    HW243924   8.464   1.346   3.369 -0.1582  1.2543  4.8111
13973SOL     OW43925   1.270   2.842   4.333  0.2775 -0.3871 -0.0698
13973SOL    HW143926   1.187   2.887   4.348 -0.3038 -0.9170 -1.5382
13973SOL    HW243927   1.252   2.751   4.357  0.6860 -0.3577  0.3704
13974SOL     OW43928   1.444   0.649  10.371  0.4995  0.2322  0.0146
13974SOL    HW143929   1.425   0.656  10.278 -1.6475 -0.5723  0.3215
13974SOL    HW243930   1.456   0.740  10.400  0.4140  0.5461 -0.9010
13975SOL     OW43931   0.527   1.464   1.935  0.0298 -0.1437  0.3264
13975SOL    HW143932   0.582   1.424   2.003 -0.9474  1.2222  2.0075
13975SOL    HW243933   0.462   1.515   1.984 -1.9738 -0.6907 -1.6103
13976SOL     OW43934   7.223  10.636   9.926 -0.1445  0.4923 -0.5381
13976SOL    HW143935   7.213  10.547   9.960 -0.3920  0.1156 -1.5574
13976SOL    HW243936   7.159  10.688   9.974  0.8805  0.4131  0.9958
13977SOL     OW43937   6.556   1.939   2.362  0.0768  0.0119 -0.1221
13977SOL    HW143938   6.575   1.882   2.287 -0.2162  0.8373 -0.8421
13977SOL    HW243939   6.619   2.010   2.354  1.4064 -0.9132  1.5971
13978SOL     OW43940   9.880   1.689   0.740 -1.4186 -0.0875 -0.0581
13978SOL    HW143941   9.845   1.727   0.820 -0.1976  0.5751  0.1873
13978SOL    HW243942   9.951   1.631   0.769  1.9820  3.3282 -0.7098
13979SOL     OW43943   9.481   0.448   9.727  0.4692 -0.4035  0.7701
13979SOL    HW143944   9.548   0.400   9.678 -1.7221 -1.3594 -1.5295
13979SOL    HW243945   9.478   0.404   9.812  1.6255 -1.3982  0.3393
13980SOL     OW43946   2.811   2.202   1.396  1.2074  0.2926 -0.0305
13980SOL    HW143947   2.847   2.283   1.433  1.7353 -0.2587  0.7090
13980SOL    HW243948   2.863   2.186   1.317  2.4038 -0.3115  0.8434
13981SOL     OW43949   6.506  10.849   0.414  0.1188 -0.0886  0.2323
13981SOL    HW143950   6.430  10.906   0.427 -0.6828 -0.9556 -0.5275
13981SOL    HW243951   6.579  10.900   0.448 -0.2376  2.2417 -2.1345
13982SOL     OW43952   6.212   9.362   0.459  1.2362  0.0530  0.1411
13982SOL    HW143953   6.187   9.451   0.434 -1.0912 -0.4507  0.3962
13982SOL    HW243954   6.301   9.351   0.425  1.3501  2.2454 -0.4287
13983SOL     OW43955   6.683   5.350   5.881  0.5736  0.2331 -0.2654
13983SOL    HW143956   6.758   5.303   5.843  0.6140  1.6214 -2.0537
13983SOL    HW243957   6.621   5.280   5.904  2.5544 -0.9777  1.7231
13984SOL     OW43958   6.341   2.772   6.147 -0.1006  0.7123  0.3251
13984SOL    HW143959   6.255   2.793   6.185  0.6763  1.0516  1.9893
13984SOL    HW243960   6.358   2.682   6.176  1.4797  1.7209  2.8064
13985SOL     OW43961   6.707   7.689   7.135 -0.6106 -0.0892 -0.2822
13985SOL    HW143962   6.757   7.656   7.061  0.1198 -0.4703  0.3627
13985SOL    HW243963   6.620   7.650   7.125  0.3556 -2.7583  0.7292
13986SOL     OW43964   9.195   5.724   2.271  0.2526 -0.1058 -0.1668
13986SOL    HW143965   9.148   5.808   2.273 -1.3800 -1.0056  0.0942
13986SOL    HW243966   9.271   5.742   2.214 -0.2759  1.4337 -0.4508
13987SOL     OW43967   5.796   5.118  10.871  0.2009  0.6266 -0.4609
13987SOL    HW143968   5.790   5.166  10.954 -0.0508 -0.1530 -0.0152
13987SOL    HW243969   5.777   5.183  10.804  0.1808  1.2175  0.1094
13988SOL     OW43970   3.007   9.477  10.368  0.6975 -0.1209  0.7206
13988SOL    HW143971   3.075   9.523  10.319  0.7156 -0.0228  0.8385
13988SOL    HW243972   3.031   9.488  10.459  2.4725 -3.0221  0.7333
13989SOL     OW43973   3.236   0.335   8.891  0.8720  0.1856  0.0584
13989SOL    HW143974   3.153   0.333   8.843  0.6300 -0.5994  0.4980
13989SOL    HW243975   3.299   0.295   8.831  1.1102  1.4830 -0.5827
13990SOL     OW43976   4.083   1.928   4.974 -0.0275 -0.0617 -0.0426
13990SOL    HW143977   4.063   1.990   5.043  1.3395  0.2597  0.0990
13990SOL    HW243978   4.038   1.962   4.897  1.5181  1.7040 -0.2200
13991SOL     OW43979   5.907   8.630   4.469  0.0013 -0.1805 -0.2780
13991SOL    HW143980   5.816   8.602   4.471  0.0851 -0.4182  0.5530
13991SOL    HW243981   5.950   8.576   4.536  0.5362  0.6550  0.0701
13992SOL     OW43982   6.190   9.947   8.006  0.0221 -0.0455  0.1557
13992SOL    HW143983   6.171   9.854   7.995  3.2057 -0.7759 -0.3801
13992SOL    HW243984   6.269   9.962   7.953 -0.2884  2.9390  0.3476
13993SOL     OW43985  10.376   6.574   1.688 -0.0539  0.0834 -0.5438
13993SOL    HW143986  10.434   6.615   1.751 -0.3768  0.6023 -0.5833
13993SOL    HW243987  10.296   6.626   1.690 -0.2827 -0.2389 -0.9594
13994SOL     OW43988   6.667   9.854   7.231 -1.0253  0.6145  0.2258
13994SOL    HW143989   6.693   9.765   7.253 -1.7189  0.0062 -1.2831
13994SOL    HW243990   6.742   9.889   7.182 -1.9598 -0.2884 -1.9724
13995SOL     OW43991  10.921  10.827   0.300  0.0610  0.0067  0.4857
13995SOL    HW143992  11.001  10.822   0.353 -0.0203 -1.0365  0.5314
13995SOL    HW243993  10.951  10.857   0.214  0.4214  0.1103  0.6436
13996SOL     OW43994   1.516   4.404   4.881 -0.3568  0.2408  0.1508
13996SOL    HW143995   1.494   4.311   4.881  0.1576  0.0683  1.9789
13996SOL    HW243996   1.443   4.445   4.927  0.4142  0.4181  1.2619
13997SOL     OW43997   4.301   6.894   0.080  0.5072 -0.0734 -0.6717
13997SOL    HW143998   4.330   6.972   0.033 -0.1666  1.5801  1.4935
13997SOL    HW243999   4.212   6.914   0.106  0.4138 -1.4803  0.1762
13998SOL     OW44000   0.818   6.872   8.424  0.1572 -0.4441 -0.1111
13998SOL    HW144001   0.727   6.894   8.444  0.4199 -0.4435  1.1464
13998SOL    HW244002   0.816   6.778   8.405  0.0238 -0.6400  0.8195
13999SOL     OW44003   9.267   7.086   9.253  0.0041  0.3028  0.3036
13999SOL    HW144004   9.304   7.103   9.166  0.0026 -1.0446  0.0097
13999SOL    HW244005   9.173   7.080   9.239 -0.0030  0.1547  0.4045
14000SOL     OW44006   5.538   0.662   5.408  0.4544 -0.1289  0.9754
14000SOL    HW144007   5.451   0.641   5.442 -0.4390  0.5324 -0.7479
14000SOL    HW244008   5.541   0.616   5.323  1.6388  0.1683  0.8497
14001SOL     OW44009   4.837   9.150   2.351 -0.0594 -0.2496  0.1578
14001SOL    HW144010   4.878   9.226   2.392  2.5810 -0.3054 -2.1482
14001SOL    HW244011   4.798   9.102   2.425  0.7509  1.7934  2.0243
14002SOL     OW44012   2.293   1.605   1.347 -0.3407  0.8187 -0.2037
14002SOL    HW144013   2.241   1.627   1.425  3.5060 -1.1675  3.3517
14002SOL    HW244014   2.378   1.647   1.362  0.4536  0.7575 -3.7164
14003SOL     OW44015   0.362   9.975   3.023  0.0692 -0.3874 -0.8087
14003SOL    HW144016   0.285   9.919   3.026 -0.7721  0.6972 -1.3452
14003SOL    HW244017   0.395   9.968   2.933 -0.1895  0.1570 -0.9508
14004SOL     OW44018  10.835   5.580   4.001 -0.5670  0.3674 -0.2314
14004SOL    HW144019  10.819   5.500   3.951  0.8958  0.0494 -0.2105
14004SOL    HW244020  10.850   5.647   3.935  0.7853  0.0669 -0.2590
14005SOL     OW44021   6.243   2.466   3.884 -0.1174  0.4464 -0.1497
14005SOL    HW144022   6.297   2.389   3.868 -0.9775 -0.0306 -0.8296
14005SOL    HW244023   6.170   2.458   3.823 -1.0290  1.0065  0.8232
14006SOL     OW44024   1.169   3.340   4.742  0.1038  0.0325 -0.0657
14006SOL    HW144025   1.090   3.294   4.713  0.3710 -0.2856 -0.2955
14006SOL    HW244026   1.240   3.278   4.724  0.4473  0.4728 -0.2262
14007SOL     OW44027   7.227   5.672   2.207 -0.1133  0.1466  0.0761
14007SOL    HW144028   7.283   5.750   2.202  2.8131 -1.7236  0.7179
14007SOL    HW244029   7.281   5.602   2.170 -2.7784 -1.5646 -0.8737
14008SOL     OW44030   2.558   4.685   7.536  0.1232 -0.1632  0.4291
14008SOL    HW144031   2.639   4.634   7.526  0.6720  0.4450  1.6196
14008SOL    HW244032   2.583   4.759   7.590 -0.8194  1.0292 -0.7073
14009SOL     OW44033   6.817   6.620   0.584  0.1485  0.1230 -0.7430
14009SOL    HW144034   6.729   6.620   0.621 -0.1649  1.4987 -1.4268
14009SOL    HW244035   6.834   6.528   0.565 -1.3565 -0.1193 -1.0916
14010SOL     OW44036  10.451   4.576   6.419 -0.3014  0.2054  0.6504
14010SOL    HW144037  10.508   4.517   6.370 -1.3640 -1.1997  1.0346
14010SOL    HW244038  10.390   4.611   6.354 -0.2361  0.1788  0.5750
14011SOL     OW44039   8.339   8.607   6.785  0.8467  0.0650  0.3601
14011SOL    HW144040   8.406   8.631   6.721  0.4376  0.9628  0.2509
14011SOL    HW244041   8.315   8.690   6.827 -3.7214  0.8925 -2.9904
14012SOL     OW44042  10.911   0.960   3.071  0.3198  0.1887  0.1580
14012SOL    HW144043  10.875   1.048   3.086 -0.6702 -0.5660  2.7294
14012SOL    HW244044  10.837   0.910   3.036  0.0435 -0.2725  1.3401
14013SOL     OW44045   4.808   4.108   4.296 -0.5997 -0.1173 -0.2972
14013SOL    HW144046   4.768   4.022   4.283  0.8349 -0.6136 -1.6468
14013SOL    HW244047   4.782   4.158   4.219  0.5230 -0.1429 -0.7178
14014SOL     OW44048   8.846   9.952   2.742  0.4697 -0.0550 -0.0574
14014SOL    HW144049   8.779  10.019   2.755  1.2572  0.5658  0.8932
14014SOL    HW244050   8.862   9.952   2.647 -0.7132 -0.0837 -0.2734
14015SOL     OW44051   0.380  11.060   9.427  0.1724  0.1972  0.1100
14015SOL    HW144052   0.386  11.002   9.502 -0.2247  0.1957  0.1386
14015SOL    HW244053   0.441  11.022   9.362 -1.1941 -1.1109 -0.4558
14016SOL     OW44054   1.064  11.036   1.048 -0.3950 -0.2458 -0.2639
14016SOL    HW144055   1.035  11.037   0.957 -1.5877 -3.1098  0.0063
14016SOL    HW244056   0.983  11.035   1.100  0.2423  2.0459  0.9565
14017SOL     OW44057   3.362   4.691   2.817  0.0527  0.1665 -0.3472
14017SOL    HW144058   3.275   4.731   2.817 -2.0060 -3.8865 -0.8753
14017SOL    HW244059   3.401   4.721   2.899 -1.3073  2.9899 -0.6050
14018SOL     OW44060   6.393   4.977   1.053 -0.9022  1.0213  0.4514
14018SOL    HW144061   6.363   4.915   1.120  2.9235 -0.5232  1.0519
14018SOL    HW244062   6.389   5.062   1.095 -1.5316  0.4865  1.5150
14019SOL     OW44063   0.372   9.934   9.250 -0.1499  0.5039 -0.1609
14019SOL    HW144064   0.388  10.028   9.258  1.7426  0.1677  0.6655
14019SOL    HW244065   0.439   9.894   9.307 -1.7125 -1.2933  0.5072
14020SOL     OW44066   7.990   7.453  10.605 -0.7405  0.5020 -0.0442
14020SOL    HW144067   7.995   7.470  10.511 -0.1245 -3.5866 -0.9621
14020SOL    HW244068   8.080   7.459  10.636 -0.6168 -0.3047 -0.2292
14021SOL     OW44069   9.065  10.788   8.196  0.5818 -0.6073  0.3180
14021SOL    HW144070   8.986  10.814   8.150  1.0797 -1.1312 -0.8699
14021SOL    HW244071   9.088  10.864   8.250  0.0841  0.0944 -0.4476
14022SOL     OW44072   0.063   3.748   3.736  0.2586  0.4466  0.3106
14022SOL    HW144073   0.050   3.742   3.642 -0.4496  0.3637  0.4096
14022SOL    HW244074   0.040   3.838   3.758  0.7858  0.5758  0.3550
14023SOL     OW44075   7.567   4.268   3.329  0.0208  0.4358  0.2781
14023SOL    HW144076   7.563   4.264   3.424 -1.9449  0.4155  0.2310
14023SOL    HW244077   7.571   4.177   3.301  1.0512  0.4526  0.3272
14024SOL     OW44078   1.430   5.273   9.509 -0.5062  0.1283 -0.1290
14024SOL    HW144079   1.452   5.292   9.601 -1.7971  0.2506  0.1743
14024SOL    HW244080   1.493   5.205   9.483 -1.0010 -0.9369  1.3002
14025SOL     OW44081   8.968   4.201   4.888  0.1075  0.1954  0.5627
14025SOL    HW144082   8.990   4.217   4.796  0.2054 -1.5858  0.2299
14025SOL    HW244083   9.008   4.116   4.907  1.4388  1.2214  2.7286
14026SOL     OW44084   8.083   2.032   1.791 -0.2124 -0.1102 -0.2244
14026SOL    HW144085   8.037   2.116   1.788 -1.4293 -0.7727 -0.8176
14026SOL    HW244086   8.016   1.970   1.819  0.6006 -0.9403 -0.0935
14027SOL     OW44087   5.551   7.671   2.447  0.6317  0.3039  0.5309
14027SOL    HW144088   5.583   7.718   2.525 -0.9397  0.3356  1.1909
14027SOL    HW244089   5.532   7.583   2.479 -0.5592  0.4741  0.3339
14028SOL     OW44090   6.665   7.673   8.971 -0.4526  0.2310 -0.0770
14028SOL    HW144091   6.619   7.608   8.918 -0.3814  0.2375 -0.1478
14028SOL    HW244092   6.732   7.709   8.912 -0.7296  0.6293 -0.1479
14029SOL     OW44093  10.717   6.037   0.890 -0.0162 -0.2242  0.1989
14029SOL    HW144094  10.687   6.049   0.799 -0.3332 -1.2041  0.1585
14029SOL    HW244095  10.648   6.078   0.943  0.8164  1.5500 -0.0134
14030SOL     OW44096   1.044   8.415   0.066  0.0407  0.2184  0.5679
14030SOL    HW144097   1.048   8.320   0.072 -1.0867 -0.0809 -2.0654
14030SOL    HW244098   0.975   8.439   0.128  2.0212 -0.3033  3.1703
14031SOL     OW44099   4.959   9.793   1.041 -0.1228  0.2173  0.5055
14031SOL    HW144100   5.005   9.827   0.964 -1.5116  0.9618 -0.0457
14031SOL    HW244101   4.971   9.860   1.108  0.5631 -0.1365  0.7381
14032SOL     OW44102   1.801   1.671   4.784  0.0497  0.2596  0.2551
14032SOL    HW144103   1.792   1.694   4.691  0.7882  1.7977  0.5178
14032SOL    HW244104   1.877   1.722   4.813  0.0273 -0.4560  1.6280
14033SOL     OW44105   7.553   6.157   1.255  0.1995  0.3583  0.0090
14033SOL    HW144106   7.561   6.107   1.174 -0.1416 -0.4339  0.4521
14033SOL    HW244107   7.525   6.244   1.226 -0.9644 -0.2144 -0.6574
14034SOL     OW44108  10.053  10.761   1.217 -0.6816 -0.5216  0.1163
14034SOL    HW144109  10.064  10.854   1.198 -2.7257 -0.6841 -2.4448
14034SOL    HW244110   9.968  10.738   1.179  0.0671 -3.5939 -0.0186
14035SOL     OW44111   2.497   3.087  10.830 -0.7852  0.3207 -0.3476
14035SOL    HW144112   2.472   3.161  10.885 -0.1730 -1.0687  1.9079
14035SOL    HW244113   2.415   3.059  10.789 -1.4066  0.9089  0.4710
14036SOL     OW44114   5.494   7.752   9.377  0.2591 -0.4394 -0.2006
14036SOL    HW144115   5.534   7.831   9.415 -2.1171 -0.0997  1.8472
14036SOL    HW244116   5.541   7.740   9.294  1.6487  2.3210  0.0403
14037SOL     OW44117   0.205   1.464   2.922  0.1142 -0.1065  0.3593
14037SOL    HW144118   0.295   1.494   2.936  0.3854 -1.1428  0.9597
14037SOL    HW244119   0.169   1.525   2.858  0.6785  1.4130  1.4121
14038SOL     OW44120   1.563   2.903   8.030  0.0923 -0.1411  0.0582
14038SOL    HW144121   1.639   2.848   8.012  0.8524  1.2285 -1.1251
14038SOL    HW244122   1.524   2.919   7.944 -0.3925  0.7575  0.4332
14039SOL     OW44123   3.824   3.264   1.967  0.3952  0.1834 -0.2975
14039SOL    HW144124   3.909   3.225   1.988  1.7886  3.8369  1.8647
14039SOL    HW244125   3.832   3.291   1.875  1.0025 -0.8288 -0.5548
14040SOL     OW44126   1.252   3.744   2.576 -0.7205  0.3047 -0.1966
14040SOL    HW144127   1.168   3.789   2.582  0.2457  2.0618  1.0586
14040SOL    HW244128   1.281   3.759   2.486 -0.9942  1.1464 -0.1518
14041SOL     OW44129   9.834   3.263   7.058 -0.1216 -0.5676 -0.4015
14041SOL    HW144130   9.809   3.289   6.970  1.3445  2.2407 -0.0972
14041SOL    HW244131   9.915   3.213   7.046 -1.0733 -2.1016 -0.7369
14042SOL     OW44132   6.234   1.676  10.510  0.1099 -0.5739 -0.3015
14042SOL    HW144133   6.147   1.642  10.492 -1.6428  3.8263 -1.3184
14042SOL    HW244134   6.250   1.655  10.602 -2.8149 -0.0732  0.4182
14043SOL     OW44135   0.377   2.013   6.173 -0.1377  0.3364 -0.3589
14043SOL    HW144136   0.469   2.014   6.199 -0.7659  1.0476  2.1169
14043SOL    HW244137   0.355   1.921   6.166  0.7678  0.1596 -1.1082
14044SOL     OW44138   0.164   6.309   2.053 -0.1094 -0.1481  0.3049
14044SOL    HW144139   0.204   6.305   2.140 -1.4865  2.0357  1.1032
14044SOL    HW244140   0.072   6.328   2.069  0.0294  2.7668 -1.6397
14045SOL     OW44141  11.085   9.484   7.723 -0.5141  0.7893 -0.2057
14045SOL    HW144142  11.082   9.388   7.731 -3.4634  0.6597 -1.7417
14045SOL    HW244143  11.037   9.516   7.799  0.9973  1.1454  0.6424
14046SOL     OW44144   7.671   6.388   9.364  0.1641 -0.8693 -0.3718
14046SOL    HW144145   7.672   6.309   9.418 -1.1050 -1.1097 -0.6702
14046SOL    HW244146   7.579   6.417   9.366  0.1450 -0.7301 -2.1613
14047SOL     OW44147   9.648   9.854   1.347  0.0019 -0.1876  0.3842
14047SOL    HW144148   9.611   9.766   1.359 -1.6343  0.4451  0.1979
14047SOL    HW244149   9.733   9.850   1.391  0.8835 -2.4518 -1.2720
14048SOL     OW44150   8.225   7.331   5.866 -0.6238  0.2671  0.0877
14048SOL    HW144151   8.311   7.290   5.863 -0.9658 -0.6695  1.7839
14048SOL    HW244152   8.167   7.262   5.899 -1.3318  1.8869  2.4730
14049SOL     OW44153   3.545   6.482   0.705  0.0543 -0.1280  0.3100
14049SOL    HW144154   3.461   6.436   0.708 -0.0352  0.0051 -0.1167
14049SOL    HW244155   3.609   6.415   0.731 -0.0334 -0.6191 -0.6851
14050SOL     OW44156   7.925   0.078   6.699 -0.1742 -0.2853 -0.1923
14050SOL    HW144157   7.985   0.017   6.741  2.1423  1.7354 -0.2877
14050SOL    HW244158   7.982   0.150   6.670 -2.9099  2.9506  1.7671
14051SOL     OW44159   9.368  10.641   7.082 -0.0692  0.2982  0.6751
14051SOL    HW144160   9.358  10.638   7.177  2.5177 -1.2262  0.9986
14051SOL    HW244161   9.458  10.611   7.066 -0.1071  1.3643 -2.2157
14052SOL     OW44162   7.655   9.389   2.156 -0.0065 -0.3421 -0.2773
14052SOL    HW144163   7.739   9.342   2.159  0.5465  0.6590  1.1048
14052SOL    HW244164   7.618   9.377   2.244  0.0181  1.5013  0.0317
14053SOL     OW44165   2.997   2.656   9.095  0.0507  0.3199 -0.1538
14053SOL    HW144166   3.058   2.607   9.039 -1.8595 -1.5507 -0.7482
14053SOL    HW244167   2.993   2.743   9.056  2.7143  0.6946  0.2499
14054SOL     OW44168   0.515   1.093   7.560  0.0026 -0.0305  0.0663
14054SOL    HW144169   0.546   1.166   7.614  0.1485  0.0251 -0.0887
14054SOL    HW244170   0.565   1.102   7.478 -0.4677  0.0959 -0.2122
14055SOL     OW44171   2.446   5.640   9.274  0.5232  0.6845  0.7598
14055SOL    HW144172   2.485   5.726   9.264 -0.1487  1.0772  1.4116
14055SOL    HW244173   2.351   5.656   9.272  0.3913  0.0076  1.1956
14056SOL     OW44174   2.657   7.887   7.945  0.0464  0.0579 -0.4370
14056SOL    HW144175   2.602   7.902   8.022  0.2219 -0.9966 -0.0891
14056SOL    HW244176   2.715   7.815   7.971  2.2674  1.7349 -0.4364
14057SOL     OW44177   0.661  10.673   1.112  0.1326  0.1767 -0.6238
14057SOL    HW144178   0.646  10.621   1.034 -2.9718  0.2516 -0.1748
14057SOL    HW244179   0.752  10.704   1.103 -0.0865  0.1677 -4.1358
14058SOL     OW44180   7.948   9.774   3.373 -0.2201  0.2860 -0.3651
14058SOL    HW144181   7.981   9.690   3.404 -2.2000 -0.7173 -0.8777
14058SOL    HW244182   7.999   9.839   3.423  0.4991 -1.2061  0.9290
14059SOL     OW44183   3.714   4.957  10.353  0.3921  0.3751 -0.3173
14059SOL    HW144184   3.623   4.987  10.357  0.9693  2.1674  0.7385
14059SOL    HW244185   3.758   5.020  10.297  1.0305 -0.4269 -0.7477
14060SOL     OW44186   9.669   1.194   3.154 -0.0299 -0.1635  0.1807
14060SOL    HW144187   9.697   1.176   3.243 -1.6006 -0.3325  0.6756
14060SOL    HW244188   9.711   1.126   3.101 -0.2047 -0.9236  1.0017
14061SOL     OW44189   1.697   4.994   8.886 -0.0596  0.4602 -0.1423
14061SOL    HW144190   1.638   5.042   8.944  0.3840  0.3333  0.4236
14061SOL    HW244191   1.699   5.045   8.805 -3.1944 -1.0008 -1.2893
14062SOL     OW44192   3.223  10.509   7.606 -0.2506 -0.3197  0.4040
14062SOL    HW144193   3.129  10.518   7.591  0.0860 -0.2239 -1.8640
14062SOL    HW244194   3.246  10.423   7.571  0.6927  0.1212 -0.1041
14063SOL     OW44195   1.647   4.770   0.816  0.0201  0.4128 -0.3170
14063SOL    HW144196   1.679   4.821   0.891 -0.2930  2.5483 -1.5817
14063SOL    HW244197   1.704   4.795   0.744 -0.8344 -0.2427 -1.2379
14064SOL     OW44198   1.669   1.202   8.135 -0.1138  0.2806  0.0266
14064SOL    HW144199   1.620   1.275   8.172  0.7979  0.7146  0.4274
14064SOL    HW244200   1.709   1.238   8.055 -0.7144 -0.1654 -0.4840
14065SOL     OW44201   1.088   5.744   6.888  0.3036  0.1537  0.2685
14065SOL    HW144202   1.101   5.817   6.949 -0.3343  1.2005 -0.8110
14065SOL    HW244203   1.007   5.765   6.841  0.6484 -0.7319 -0.7780
14066SOL     OW44204   3.738   0.405   5.541 -0.2698  0.2188 -0.1778
14066SOL    HW144205   3.724   0.496   5.566 -2.3092  0.2618 -1.2969
14066SOL    HW244206   3.813   0.408   5.483  0.4088  1.0025  0.7008
14067SOL     OW44207   8.265   3.723   9.395  0.1997  0.5493 -0.1465
14067SOL    HW144208   8.202   3.655   9.416  0.7442 -0.1603 -0.7802
14067SOL    HW244209   8.307   3.743   9.479  0.7677 -0.6392 -0.1302
14068SOL     OW44210   3.803   5.138   5.717  0.2415 -0.1650 -0.4854
14068SOL    HW144211   3.792   5.151   5.811  0.1870 -1.2229 -0.3327
14068SOL    HW244212   3.725   5.179   5.678 -1.2941 -2.2562  0.1633
14069SOL     OW44213   7.856  11.032   3.234  0.2627  0.7121  0.7111
14069SOL    HW144214   7.887  11.066   3.150 -0.3981 -2.7106 -1.0843
14069SOL    HW244215   7.761  11.044   3.232  0.2286  0.4853  0.8971
14070SOL     OW44216   0.401  10.995  10.370 -0.3851 -0.4123  0.8554
14070SOL    HW144217   0.491  10.978  10.399 -0.6579 -1.7913  0.9453
14070SOL    HW244218   0.363  11.046  10.442 -0.0872 -1.0165  1.4520
14071SOL     OW44219   7.965  10.409   5.208  0.7853  0.2433 -0.0037
14071SOL    HW144220   8.052  10.443   5.227  1.8369 -1.4154 -1.5252
14071SOL    HW244221   7.921  10.479   5.160  1.0611  1.2721  1.1851
14072SOL     OW44222   1.577  11.026   5.809 -0.1354 -0.3186  0.1182
14072SOL    HW144223   1.620  11.108   5.784 -0.8074 -0.4879 -1.7638
14072SOL    HW244224   1.493  11.027   5.763 -0.1917 -2.0422  0.0906
14073SOL     OW44225   8.064   4.023   5.180 -0.3155 -0.0507  0.1281
14073SOL    HW144226   8.081   4.043   5.088 -0.9302  0.2665  0.0835
14073SOL    HW244227   8.128   4.076   5.228 -0.1020 -0.0915 -0.1086
14074SOL     OW44228   8.199   5.508   7.967 -0.1598 -0.0749  0.4453
14074SOL    HW144229   8.176   5.593   7.929  1.0882  0.6509  1.2270
14074SOL    HW244230   8.209   5.450   7.892 -1.0875  0.4484 -0.1033
14075SOL     OW44231   0.119   5.323   0.855  0.1613 -0.2557  0.4572
14075SOL    HW144232   0.154   5.375   0.783  1.4475  0.0927  1.2948
14075SOL    HW244233   0.152   5.234   0.840  0.0634 -0.2801  0.3836
14076SOL     OW44234  10.753   7.558   3.728  0.3666  0.3627 -0.2140
14076SOL    HW144235  10.657   7.548   3.726  0.2631  1.2565 -1.9884
14076SOL    HW244236  10.778   7.565   3.636  1.9659  1.7112  0.2622
14077SOL     OW44237  10.027   8.655   4.210  0.0536  0.5895  0.1741
14077SOL    HW144238  10.035   8.684   4.119  1.1483  2.1108  0.7258
14077SOL    HW244239   9.952   8.704   4.244  0.8914  1.5686  0.6450
14078SOL     OW44240   8.198   3.750   0.740 -0.2534  0.1120 -0.2983
14078SOL    HW144241   8.235   3.706   0.663  1.8052  2.0566 -0.5482
14078SOL    HW244242   8.273   3.763   0.798 -1.2389  1.1639  0.7900
14079SOL     OW44243   3.474   2.395   2.728  0.0947 -0.3053 -0.4642
14079SOL    HW144244   3.415   2.440   2.789  1.3825 -1.2147  1.5535
14079SOL    HW244245   3.450   2.303   2.736 -0.8396 -0.3255 -2.6837
14080SOL     OW44246   3.054   4.831   7.732  0.1486 -0.0894  0.0016
14080SOL    HW144247   3.095   4.752   7.767 -1.2084  0.0338  2.0014
14080SOL    HW244248   3.097   4.903   7.778 -2.5865  0.0168  2.6396
14081SOL     OW44249   9.984   4.523   8.889  0.3928 -0.6930  0.4487
14081SOL    HW144250   9.977   4.588   8.958 -0.6570 -1.1720  0.8074
14081SOL    HW244251   9.932   4.449   8.920 -0.0063 -0.9611 -0.7941
14082SOL     OW44252   3.874   2.450   7.739  0.0418  0.5962  0.2674
14082SOL    HW144253   3.908   2.539   7.733 -0.7519  0.9304  0.5861
14082SOL    HW244254   3.834   2.445   7.826  0.2553 -0.1339  0.3329
14083SOL     OW44255   6.377   9.330   9.509  0.1261 -0.3905 -0.0462
14083SOL    HW144256   6.297   9.279   9.526  1.6908 -1.8603  4.0771
14083SOL    HW244257   6.391   9.380   9.589  2.1959  1.6115 -1.5379
14084SOL     OW44258   7.096   8.722   0.362 -0.2260  0.6246  0.5486
14084SOL    HW144259   7.018   8.767   0.329  0.7834  1.7141 -0.4632
14084SOL    HW244260   7.149   8.791   0.401  1.2834  0.3518 -0.8855
14085SOL     OW44261  10.966   3.256  10.670  0.4051  0.4904 -0.9037
14085SOL    HW144262  10.954   3.328  10.609 -1.0378  2.3872  1.4387
14085SOL    HW244263  10.902   3.272  10.739  0.6809 -2.5544  0.1930
14086SOL     OW44264   7.969   5.191   9.752  0.1543 -0.0914 -0.3113
14086SOL    HW144265   7.990   5.278   9.716  0.6635 -0.9958 -2.3286
14086SOL    HW244266   7.882   5.171   9.718 -2.0840  1.3989  3.7704
14087SOL     OW44267   0.548   8.750   7.378  0.1071 -0.0420 -0.1149
14087SOL    HW144268   0.574   8.836   7.410 -0.0103  0.2838 -0.8821
14087SOL    HW244269   0.587   8.689   7.440  0.1717  0.5609  0.4517
14088SOL     OW44270   5.564   8.356   9.759 -0.1895 -0.6865  0.3082
14088SOL    HW144271   5.613   8.300   9.819  0.7093  0.0322  0.2688
14088SOL    HW244272   5.537   8.298   9.688  0.9373 -1.0380  0.1473
14089SOL     OW44273   1.191  10.122   8.125 -0.3125  0.1373  0.4801
14089SOL    HW144274   1.149  10.036   8.122 -1.5429  0.6912  1.1076
14089SOL    HW244275   1.211  10.142   8.033 -0.9815 -0.3672  0.2119
14090SOL     OW44276  10.592   6.753   4.203 -0.1336 -0.0006  0.2109
14090SOL    HW144277  10.523   6.819   4.199  1.0292  1.4756  2.4599
14090SOL    HW244278  10.657   6.781   4.139 -0.9306 -0.6432 -0.9266
14091SOL     OW44279  10.665   2.374   2.454 -0.0207 -0.1969 -0.0721
14091SOL    HW144280  10.585   2.322   2.454  0.1458 -0.6102  2.7169
14091SOL    HW244281  10.635   2.463   2.475  0.2151 -0.3425  0.9253
14092SOL     OW44282   5.726   2.073   3.514 -0.4247 -0.5315  0.0668
14092SOL    HW144283   5.817   2.061   3.539 -0.0599  0.2090 -0.8321
14092SOL    HW244284   5.692   2.137   3.576 -1.0005 -2.4542  1.8198
14093SOL     OW44285   7.221  10.071  10.686 -0.2598  0.2246  0.6089
14093SOL    HW144286   7.251  10.128  10.757  0.0053 -0.6341  1.1988
14093SOL    HW244287   7.152  10.018  10.725  0.2813 -0.6603  0.3883
14094SOL     OW44288   1.426   4.132   0.696 -0.7665 -0.2765 -0.0102
14094SOL    HW144289   1.338   4.164   0.714 -0.3900  0.5297  0.4216
14094SOL    HW244290   1.460   4.104   0.782 -0.0600  0.8182  0.0927
14095SOL     OW44291   7.741  10.777   0.541 -0.3877  0.5397 -0.1251
14095SOL    HW144292   7.788  10.745   0.618  1.2896 -0.7308 -1.5839
14095SOL    HW244293   7.654  10.739   0.549 -0.9679  2.1262  2.1445
14096SOL     OW44294   0.349   6.164   6.367 -0.7944 -0.1163  0.5139
14096SOL    HW144295   0.414   6.201   6.308  0.1455 -1.3205  0.7413
14096SOL    HW244296   0.270   6.214   6.350  0.1788  1.4139  0.2365
14097SOL     OW44297   9.625   8.276   8.686  0.4264 -0.0280 -0.4576
14097SOL    HW144298   9.699   8.225   8.717  1.7222  2.4182  0.7793
14097SOL    HW244299   9.592   8.322   8.763 -2.1738 -0.6919 -1.0482
14098SOL     OW44300   0.624   9.768   6.893 -0.2491  0.5776 -0.1733
14098SOL    HW144301   0.627   9.687   6.841 -1.5754  0.2098  0.2715
14098SOL    HW244302   0.637   9.838   6.829  2.2304  0.0222 -0.4017
14099SOL     OW44303   6.325   7.745   2.899 -0.5672  0.8881 -0.2703
14099SOL    HW144304   6.368   7.661   2.888  0.4685  1.3025  0.4858
14099SOL    HW244305   6.257   7.747   2.831 -0.8208 -0.6837 -0.0794
14100SOL     OW44306   3.826   2.847   0.874 -0.1860  0.1562 -0.0981
14100SOL    HW144307   3.882   2.774   0.900 -1.3939 -0.4372  0.9707
14100SOL    HW244308   3.785   2.819   0.792  1.2259  0.7060 -1.0343
14101SOL     OW44309   4.336  10.992  11.235 -0.1631  0.0524  0.6364
14101SOL    HW144310   4.280  10.994  11.156 -1.2444  0.5618  1.3909
14101SOL    HW244311   4.423  11.015  11.203 -0.4472 -0.3866 -0.5174
14102SOL     OW44312   6.745   8.180   4.122 -0.3289 -0.0780  0.3458
14102SOL    HW144313   6.823   8.135   4.089 -0.0891  0.0940  0.6764
14102SOL    HW244314   6.701   8.115   4.176 -0.9275 -0.4866 -0.6118
14103SOL     OW44315   1.636  10.478   7.652  1.2070  0.0903 -0.0103
14103SOL    HW144316   1.664  10.569   7.650  1.8987 -0.0558  1.6955
14103SOL    HW244317   1.562  10.477   7.712 -1.2003  0.0817 -2.7511
14104SOL     OW44318   2.937   7.274   8.117  0.1031 -0.0849 -0.2298
14104SOL    HW144319   2.891   7.345   8.162 -1.5092 -0.3237 -1.4211
14104SOL    HW244320   2.996   7.238   8.183 -2.6914 -0.9621  2.0237
14105SOL     OW44321   6.648   9.109   0.957 -0.4594  0.5931 -0.3014
14105SOL    HW144322   6.734   9.148   0.945 -0.8772  1.4131 -0.6621
14105SOL    HW244323   6.657   9.056   1.036  0.9649 -1.0333 -1.4613
14106SOL     OW44324   2.706   5.399   1.378  0.6843  0.0816  0.4369
14106SOL    HW144325   2.641   5.364   1.317 -0.3852  3.0408 -0.3352
14106SOL    HW244326   2.684   5.360   1.462 -1.5750  0.2890  0.0111
14107SOL     OW44327   9.370   1.060   6.691 -0.3054 -1.1821 -0.4588
14107SOL    HW144328   9.344   0.980   6.647 -0.6776 -0.5306 -1.4604
14107SOL    HW244329   9.376   1.125   6.621  1.9454 -0.7726  0.0252
14108SOL     OW44330   2.761   3.442   3.264 -0.4075 -0.4160 -0.0962
14108SOL    HW144331   2.694   3.462   3.199 -0.7430 -0.0037  0.3671
14108SOL    HW244332   2.730   3.483   3.344  0.6478  0.2156  0.0133
14109SOL     OW44333   1.048   1.956   5.530 -0.4460 -0.6221 -0.8757
14109SOL    HW144334   1.115   1.978   5.594 -1.1766 -1.4930  0.2121
14109SOL    HW244335   0.994   2.034   5.524  0.7531  0.1752 -1.9350
14110SOL     OW44336   1.287   2.878   8.946 -0.0099 -0.3929  0.6910
14110SOL    HW144337   1.228   2.811   8.981 -1.8241  0.2007 -1.0630
14110SOL    HW244338   1.246   2.906   8.864  0.3384  3.3009  1.6227
14111SOL     OW44339   1.989   3.735   8.796 -0.0128 -0.2794 -0.4795
14111SOL    HW144340   2.031   3.697   8.719 -0.0820 -0.6432 -0.3381
14111SOL    HW244341   2.010   3.675   8.867 -0.8035 -0.4909 -0.4157
14112SOL     OW44342   1.292   4.761   0.539 -0.7633  0.9601  0.5755
14112SOL    HW144343   1.308   4.806   0.455 -0.7423  0.1533  0.1376
14112SOL    HW244344   1.228   4.816   0.583 -1.2854  1.0522 -0.2669
14113SOL     OW44345   7.522   5.788   3.855  0.7021 -0.5828 -0.3138
14113SOL    HW144346   7.557   5.702   3.880 -1.2815 -0.9752  1.4008
14113SOL    HW244347   7.528   5.841   3.934 -2.3352 -0.6720  0.1088
14114SOL     OW44348   0.181   2.857   0.921  0.0043  0.6998  0.1786
14114SOL    HW144349   0.139   2.803   0.988 -0.5220 -1.7620 -1.9672
14114SOL    HW244350   0.274   2.833   0.926 -0.2065 -0.3605 -0.6737
14115SOL     OW44351   2.559   2.840   2.395  0.3862 -0.3176  1.0475
14115SOL    HW144352   2.614   2.855   2.471  0.2019  0.6333  1.0027
14115SOL    HW244353   2.607   2.878   2.322 -1.3233  2.7426  1.3534
14116SOL     OW44354   1.652   9.660   3.178  0.3588 -0.6366 -0.1804
14116SOL    HW144355   1.662   9.575   3.222  0.5945 -0.1034  0.8377
14116SOL    HW244356   1.598   9.712   3.239  1.4658  0.4280 -0.0743
14117SOL     OW44357   1.050   5.180   4.693  0.2620  0.3419 -0.6711
14117SOL    HW144358   0.960   5.174   4.722 -0.0366 -0.1560 -1.6642
14117SOL    HW244359   1.082   5.262   4.731 -0.7325  0.7353 -0.6473
14118SOL     OW44360  10.369   7.213   7.898  0.1830 -0.0001  0.0259
14118SOL    HW144361  10.423   7.210   7.977 -1.5605  1.5762  1.3787
14118SOL    HW244362  10.375   7.303   7.868  3.1109 -1.1490 -3.4655
14119SOL     OW44363   9.058   9.117  11.076  0.7339  0.1817  0.1390
14119SOL    HW144364   9.014   9.083  10.997  0.8345  1.0346 -0.2930
14119SOL    HW244365   9.113   9.045  11.105  0.0192 -0.4621 -0.0523
14120SOL     OW44366   3.443   5.206   7.622  0.0875  0.2613  0.4907
14120SOL    HW144367   3.476   5.200   7.533 -0.3520  1.0519  0.2651
14120SOL    HW244368   3.489   5.281   7.660 -1.3935  1.3890  0.1641
14121SOL     OW44369   5.148  11.144   6.163 -0.0428  0.5881  0.4134
14121SOL    HW144370   5.121  11.061   6.124  1.0248  1.6812 -3.0333
14121SOL    HW244371   5.075  11.204   6.144 -0.2230  0.7764  1.6529
14122SOL     OW44372   4.632   2.004  10.516  0.6007  0.4774  0.4585
14122SOL    HW144373   4.562   1.963  10.466  1.8978 -1.0815 -0.1720
14122SOL    HW244374   4.648   2.087  10.471  2.3723 -1.2765 -2.4827
14123SOL     OW44375   4.029   2.921   6.016  0.0812  0.5389  0.2972
14123SOL    HW144376   4.050   2.981   6.088  0.4182  1.4842 -0.5763
14123SOL    HW244377   4.034   2.834   6.056 -1.1543  1.0991  1.7696
14124SOL     OW44378   2.663   6.191   9.392  0.2176 -0.5249 -0.0745
14124SOL    HW144379   2.612   6.257   9.345  0.0504 -1.1298 -0.7607
14124SOL    HW244380   2.750   6.230   9.400  0.6640 -0.9595 -2.1839
14125SOL     OW44381   8.484   5.606   6.894 -0.3648  0.1587  0.1356
14125SOL    HW144382   8.432   5.564   6.962 -0.4117  0.3190  0.1990
14125SOL    HW244383   8.440   5.583   6.812 -0.7622  0.6186  0.2174
14126SOL     OW44384   2.948   7.378   5.054  0.0301  0.2231 -0.5558
14126SOL    HW144385   2.861   7.393   5.018  0.4249 -0.3819 -1.8045
14126SOL    HW244386   3.004   7.366   4.978  0.9460 -0.7866  0.2412
14127SOL     OW44387   3.622   4.424  10.823  0.2612  0.3839 -0.0340
14127SOL    HW144388   3.611   4.518  10.837  0.1597  0.2139  1.1604
14127SOL    HW244389   3.699   4.401  10.875 -1.7748 -0.7991  2.7124
14128SOL     OW44390   5.873   7.500  10.647  0.3120 -0.1266  0.2161
14128SOL    HW144391   5.842   7.422  10.693 -0.0503  0.4010  0.8825
14128SOL    HW244392   5.968   7.496  10.656  0.3445 -0.8757 -0.3911
14129SOL     OW44393  11.124   5.198   0.319 -0.0712 -0.0264  0.0275
14129SOL    HW144394  11.178   5.186   0.240 -0.6111 -0.9885 -0.2093
14129SOL    HW244395  11.037   5.170   0.293 -0.3513  0.0579  0.8535
14130SOL     OW44396   6.224   0.836   6.208  0.6976  0.3453 -0.5938
14130SOL    HW144397   6.145   0.884   6.182  0.4157  0.3342  0.2087
14130SOL    HW244398   6.226   0.760   6.151 -0.1738  0.0655 -0.2747
14131SOL     OW44399   9.438   8.468   8.083  0.0935 -0.0676 -0.3944
14131SOL    HW144400   9.393   8.521   8.017 -1.3504  0.4138  0.9331
14131SOL    HW244401   9.372   8.408   8.115  1.0421 -0.9538 -0.0430
14132SOL     OW44402   8.570   3.780   3.828 -0.3627  0.3625 -0.5751
14132SOL    HW144403   8.643   3.842   3.820  0.6230 -0.6414  0.3334
14132SOL    HW244404   8.528   3.803   3.910  1.6540 -1.7650  1.2092
14133SOL     OW44405   5.373   5.649   8.266 -0.0473  0.4635 -0.0480
14133SOL    HW144406   5.404   5.671   8.354 -0.6848  2.8277 -0.3509
14133SOL    HW244407   5.386   5.554   8.259  2.5264  0.6022  1.5792
14134SOL     OW44408   5.042   7.706   8.413 -0.3890 -0.5928  0.3021
14134SOL    HW144409   5.052   7.726   8.320 -2.0764 -0.4635  0.1279
14134SOL    HW244410   5.063   7.613   8.420  1.1033 -0.2976  0.0385
14135SOL     OW44411   5.973   0.970   6.222 -0.1154  0.5322 -0.4720
14135SOL    HW144412   5.937   1.059   6.227  1.3170  1.0976  0.7344
14135SOL    HW244413   5.915   0.924   6.161 -1.3657  2.0598 -0.5193
14136SOL     OW44414   0.058   6.715   1.160  0.2084  0.0240 -0.2796
14136SOL    HW144415   0.131   6.711   1.221  1.5433 -0.2515 -1.8242
14136SOL    HW244416   0.085   6.660   1.086 -1.8468 -0.6137 -0.6210
14137SOL     OW44417   3.024   9.002   0.083 -0.3907  0.4984 -0.0104
14137SOL    HW144418   3.113   8.984   0.055  0.0816  0.0656  1.6779
14137SOL    HW244419   3.033   9.075   0.145 -1.2758  0.7540 -0.1634
14138SOL     OW44420  10.337   6.285   9.188  0.0719 -0.3306 -0.7739
14138SOL    HW144421  10.311   6.325   9.105  0.8197 -0.8024 -1.2517
14138SOL    HW244422  10.346   6.192   9.168  1.4755 -0.2839 -0.4947
14139SOL     OW44423   6.159   7.724  10.522 -0.1923 -0.0393  0.1670
14139SOL    HW144424   6.193   7.642  10.557 -0.9373  0.2421  1.6312
14139SOL    HW244425   6.113   7.765  10.596 -0.3550  1.4099 -0.6887
14140SOL     OW44426   4.771   2.775   5.639 -0.1548 -0.1881  1.0177
14140SOL    HW144427   4.754   2.868   5.654  0.5185  0.1268 -0.0773
14140SOL    HW244428   4.737   2.732   5.717  0.2806  1.0556  1.9242
14141SOL     OW44429   1.313   0.940   6.551 -0.6683 -0.5737  0.2541
14141SOL    HW144430   1.296   0.899   6.467 -1.7761 -2.7422  1.4463
14141SOL    HW244431   1.302   1.034   6.535  1.9665 -0.5937 -2.5926
14142SOL     OW44432   6.847   3.104   4.727 -0.0337  0.1853  0.4071
14142SOL    HW144433   6.865   3.014   4.702  0.0205  0.8196 -2.0351
14142SOL    HW244434   6.826   3.099   4.821 -0.0240 -2.3315  0.3363
14143SOL     OW44435   1.740   7.718   6.976  0.3469  0.0348 -0.0617
14143SOL    HW144436   1.804   7.655   7.010  0.0733  0.3396  1.0766
14143SOL    HW244437   1.698   7.753   7.054  1.2729  2.4980 -0.6015
14144SOL     OW44438  11.175   3.582   2.325 -0.5810  0.1530 -0.3094
14144SOL    HW144439  11.092   3.608   2.287  0.0224 -0.1933 -1.9297
14144SOL    HW244440  11.179   3.487   2.313  0.1543  0.1993 -0.5110
14145SOL     OW44441   8.231   4.222   5.255 -0.0647 -0.0150  0.0354
14145SOL    HW144442   8.318   4.225   5.216  0.4724 -1.9919  0.9519
14145SOL    HW244443   8.238   4.273   5.336 -0.3279  1.4328 -0.8123
14146SOL     OW44444   7.914   2.027   8.384 -0.5414 -0.2497  0.0916
14146SOL    HW144445   7.860   1.965   8.335 -0.7963 -0.1151  0.2062
14146SOL    HW244446   7.934   1.981   8.465  3.0202 -2.0889 -1.5741
14147SOL     OW44447  10.235   1.063   6.064  0.0800  0.1076  0.4762
14147SOL    HW144448  10.291   1.026   5.995  1.1376  1.1809  0.7179
14147SOL    HW244449  10.159   1.096   6.017  1.5332  2.3573 -0.5031
14148SOL     OW44450   4.411   1.069   4.412  0.0318 -0.2776 -0.3603
14148SOL    HW144451   4.457   1.153   4.423  0.3790 -0.5720  0.5261
14148SOL    HW244452   4.470   1.016   4.359 -0.7765  0.4748 -2.0915
14149SOL     OW44453   4.272   4.441   9.447 -0.0511  0.4116 -0.2749
14149SOL    HW144454   4.237   4.416   9.362 -0.7562  3.1783 -0.8642
14149SOL    HW244455   4.206   4.410   9.510  1.2540 -3.1599 -0.4432
14150SOL     OW44456   9.405   2.867   1.650 -0.0402  0.2131  0.2729
14150SOL    HW144457   9.313   2.890   1.663 -0.9776 -0.3761 -3.8138
14150SOL    HW244458   9.425   2.806   1.721 -3.5230 -1.2964  0.1704
14151SOL     OW44459   8.589   9.649   4.886 -0.5234  0.3517 -0.6461
14151SOL    HW144460   8.631   9.576   4.932 -2.7817 -1.6777 -1.5447
14151SOL    HW244461   8.655   9.718   4.884  2.1180 -1.9996 -0.5653
14152SOL     OW44462   7.469   1.189   7.692  0.2621  0.3096 -0.7760
14152SOL    HW144463   7.455   1.212   7.784  0.3118 -1.9197 -0.1370
14152SOL    HW244464   7.381   1.182   7.655  0.1689 -0.2950 -0.4582
14153SOL     OW44465  10.633   3.290   1.750  0.0544 -0.0505 -0.1716
14153SOL    HW144466  10.587   3.212   1.779  0.9362 -0.7969 -0.7200
14153SOL    HW244467  10.722   3.281   1.785 -0.1527  1.3211  0.8032
14154SOL     OW44468   0.842   1.683   7.681 -0.0277 -0.0165 -0.5225
14154SOL    HW144469   0.804   1.656   7.765 -2.2115  2.1206 -0.7311
14154SOL    HW244470   0.891   1.763   7.701 -0.7660  0.6415 -1.3204
14155SOL     OW44471   2.785   6.645   0.824 -0.0222 -0.5579 -0.0641
14155SOL    HW144472   2.777   6.557   0.786 -0.5943 -0.2993 -0.5586
14155SOL    HW244473   2.772   6.631   0.918 -0.4196 -0.9642 -0.1721
14156SOL     OW44474   5.922   3.343   7.919 -0.8710 -0.1662 -0.2123
14156SOL    HW144475   5.912   3.404   7.993 -3.3816  0.3915 -0.9212
14156SOL    HW244476   5.999   3.375   7.873  0.1890  0.0555  1.5841
14157SOL     OW44477   7.399   8.843   7.703  0.2966  0.1671  0.3595
14157SOL    HW144478   7.489   8.813   7.687  0.4232  1.4305 -1.5506
14157SOL    HW244479   7.353   8.825   7.622 -2.0255 -3.0105  2.1482
14158SOL     OW44480   5.266  11.074   7.842  0.2315 -0.6845 -0.5533
14158SOL    HW144481   5.191  11.130   7.860  1.0991  1.1810 -2.3472
14158SOL    HW244482   5.322  11.083   7.919 -0.4771 -0.5867 -0.0386
14159SOL     OW44483   6.157   9.745   8.220 -0.0378 -0.6409 -0.3107
14159SOL    HW144484   6.150   9.814   8.287  0.9675 -0.4107 -0.4315
14159SOL    HW244485   6.199   9.672   8.264 -1.0345 -1.1760 -0.2063
14160SOL     OW44486   9.582   2.915   9.441  0.6627  0.0385  0.7860
14160SOL    HW144487   9.560   2.853   9.510  2.7920 -0.4080  1.1171
14160SOL    HW244488   9.640   2.979   9.482  0.8413  0.5772 -0.2570
14161SOL     OW44489   6.900   5.748   1.863 -0.3813 -0.0766 -0.4932
14161SOL    HW144490   6.895   5.702   1.780  2.6497 -0.9377 -0.3303
14161SOL    HW244491   6.947   5.687   1.921 -1.0022  1.1352  1.3778
14162SOL     OW44492   6.549   1.066   4.616 -0.3248  0.3899  0.1566
14162SOL    HW144493   6.476   1.046   4.558 -0.7430  0.7267  0.5552
14162SOL    HW244494   6.513   1.055   4.704  0.6881 -1.5605  0.3890
14163SOL     OW44495   8.756   4.056   5.483 -0.4628  0.2222  0.3113
14163SOL    HW144496   8.667   4.093   5.477 -1.7024 -2.6059 -0.2904
14163SOL    HW244497   8.789   4.059   5.393 -0.8561 -0.7362  0.1265
14164SOL     OW44498   1.342   9.418   7.621  0.0802  0.1472 -0.5535
14164SOL    HW144499   1.387   9.407   7.704  1.2920  0.6922 -1.1242
14164SOL    HW244500   1.254   9.384   7.637  0.3736  0.0155  0.8692
14165SOL     OW44501   3.815   7.817   7.167  0.2038 -0.0004  0.2063
14165SOL    HW144502   3.774   7.737   7.198 -0.6627 -0.1113 -1.1802
14165SOL    HW244503   3.889   7.788   7.114 -0.4377  0.0946 -0.7500
14166SOL     OW44504   1.262   2.589   4.035 -0.4422  0.0799  0.0629
14166SOL    HW144505   1.167   2.601   4.035 -0.4410  0.0979  0.3844
14166SOL    HW244506   1.274   2.496   4.016 -0.4778  0.3758 -1.5083
14167SOL     OW44507   5.574   7.010   4.470  0.0546  0.0638 -0.3264
14167SOL    HW144508   5.531   6.927   4.492 -0.6041  0.6595  0.7215
14167SOL    HW244509   5.502   7.074   4.469  0.6667  0.7575 -0.3323
14168SOL     OW44510   2.233   1.128   9.962  0.3532  0.4289  0.0774
14168SOL    HW144511   2.300   1.154   9.899  0.4461  0.5688  0.2317
14168SOL    HW244512   2.196   1.211   9.992 -1.5064  0.3407 -1.7222
14169SOL     OW44513   4.752  10.705   7.559  0.5901  0.4264  0.1351
14169SOL    HW144514   4.836  10.743   7.585  0.9836 -0.0636 -0.3985
14169SOL    HW244515   4.688  10.749   7.615  0.9660  2.1850 -0.7269
14170SOL     OW44516   3.488   1.746   0.126 -0.5375 -0.7677  0.2292
14170SOL    HW144517   3.457   1.684   0.192 -2.4461 -1.2006 -0.9862
14170SOL    HW244518   3.500   1.693   0.047 -1.0263  0.2013 -0.5096
14171SOL     OW44519  10.457   4.482   0.738  0.4693  0.2198  0.8326
14171SOL    HW144520  10.469   4.537   0.816  2.0711  2.6263 -0.9362
14171SOL    HW244521  10.364   4.488   0.719  0.1048 -0.1618  2.3722
14172SOL     OW44522   5.549  10.005   5.856  0.2773 -0.3500 -0.2626
14172SOL    HW144523   5.515   9.964   5.777  2.8297 -2.5203 -0.3501
14172SOL    HW244524   5.543  10.099   5.839  0.1889 -0.7491 -2.7795
14173SOL     OW44525   3.680   9.849   4.698 -0.1223  0.4386  0.3826
14173SOL    HW144526   3.711   9.760   4.679  2.1360  0.7932  1.9878
14173SOL    HW244527   3.748   9.906   4.663 -0.9263  1.4960  0.5117
14174SOL     OW44528   1.059   9.894   8.047  0.5334  0.2526 -0.1701
14174SOL    HW144529   1.037   9.821   8.105  0.3676 -1.3442 -2.1426
14174SOL    HW244530   0.976   9.917   8.005  0.8880  0.4769 -0.7577
14175SOL     OW44531   4.495   9.746   2.808 -0.6840  0.0555 -0.1982
14175SOL    HW144532   4.572   9.801   2.792 -1.5801  1.3511 -0.2621
14175SOL    HW244533   4.518   9.692   2.883  0.1200  0.7647  0.0735
14176SOL     OW44534   1.057   9.058   0.735  0.2247  0.0590  0.7232
14176SOL    HW144535   1.152   9.049   0.743  0.4679  2.6868  2.2186
14176SOL    HW244536   1.044   9.144   0.696 -1.5454 -0.2739  0.4850
14177SOL     OW44537   1.109   1.734   5.309  0.3908  0.3371 -0.7072
14177SOL    HW144538   1.197   1.699   5.316  0.5006  0.9287  1.7486
14177SOL    HW244539   1.104   1.801   5.377 -1.0601  2.3707 -2.6406
14178SOL     OW44540   7.225   0.583   9.605  0.0616 -0.6738 -0.1762
14178SOL    HW144541   7.209   0.672   9.573 -0.7784 -0.7529 -0.0025
14178SOL    HW244542   7.178   0.527   9.543  1.4629 -1.0783 -0.9050
14179SOL     OW44543   4.741   2.199   0.160  0.0009 -0.0254 -0.6292
14179SOL    HW144544   4.781   2.284   0.176  1.4494 -0.7128 -0.4258
14179SOL    HW244545   4.802   2.155   0.100  0.0155 -1.4338  0.3653
14180SOL     OW44546  10.289   5.310   8.048 -0.0283  0.1212 -0.1793
14180SOL    HW144547  10.197   5.338   8.049 -0.7785 -1.9719  2.4907
14180SOL    HW244548  10.299   5.259   8.128  3.3719 -0.1834 -0.6529
14181SOL     OW44549   1.728   8.586   1.739 -0.2751  0.1939  0.0131
14181SOL    HW144550   1.762   8.670   1.707  0.9698 -0.3697 -0.1976
14181SOL    HW244551   1.758   8.522   1.675  1.0716 -0.7727  1.5247
14182SOL     OW44552  10.708  11.140   0.422  0.0760  0.3298  0.2717
14182SOL    HW144553  10.793  11.155   0.465 -0.1493  0.6772  0.6066
14182SOL    HW244554  10.692  11.220   0.372 -0.0596  0.2693  0.2189
14183SOL     OW44555   9.244  11.013   0.335  0.4522 -0.4390  0.6478
14183SOL    HW144556   9.178  11.042   0.398  2.6685  0.9940  2.4527
14183SOL    HW244557   9.242  11.080   0.267 -0.4321 -0.8020  0.3020
14184SOL     OW44558   0.930   1.049   6.578  0.4783  0.3311  0.1072
14184SOL    HW144559   0.865   1.111   6.609  0.2198 -0.5648  1.4366
14184SOL    HW244560   1.007   1.103   6.557 -0.0191  1.1821  0.4298
14185SOL     OW44561   1.639   0.196  10.524 -0.1216  0.5413  0.2518
14185SOL    HW144562   1.669   0.111  10.555 -0.3751  0.6743  0.8835
14185SOL    HW244563   1.638   0.251  10.602 -0.9955  0.8224  0.0596
14186SOL     OW44564  11.268  11.243   0.881  0.2259  0.1535 -0.1468
14186SOL    HW144565  11.301  11.239   0.791 -1.1715 -0.3416 -0.6570
14186SOL    HW244566  11.282  11.155   0.916 -0.5552 -0.0722 -0.3809
14187SOL     OW44567   6.744  10.088   6.170  0.4794 -0.6592 -0.0598
14187SOL    HW144568   6.714  10.044   6.090  0.5951 -0.8273 -0.0117
14187SOL    HW244569   6.823  10.135   6.143 -0.1398  0.2601 -0.3250
14188SOL     OW44570  11.127   8.800  11.114  0.9736  0.6505  0.1830
14188SOL    HW144571  11.204   8.798  11.058 -1.4153  2.8549 -3.6200
14188SOL    HW244572  11.115   8.892  11.136 -0.7239  0.4076  0.4473
14189SOL     OW44573   4.665   1.743  10.746 -0.0623  0.3234 -0.2840
14189SOL    HW144574   4.680   1.655  10.711  0.4950  0.5890 -0.7326
14189SOL    HW244575   4.618   1.729  10.828  0.4826 -0.4167 -0.0981
14190SOL     OW44576   4.604   2.127   5.517  0.4613  0.2604  0.2146
14190SOL    HW144577   4.665   2.080   5.461  1.3255 -2.2648  3.0013
14190SOL    HW244578   4.658   2.191   5.563  0.4571 -0.0225  0.6191
14191SOL     OW44579   0.854   4.632   1.169 -0.4465  0.1470  0.1038
14191SOL    HW144580   0.832   4.557   1.114  0.0792 -1.1138  1.5469
14191SOL    HW244581   0.950   4.630   1.173 -0.4961 -0.2275  1.6100
14192SOL     OW44582   8.921   9.824   8.801  0.2298  0.0474  0.1710
14192SOL    HW144583   8.975   9.879   8.745 -0.2593  0.3884  0.0237
14192SOL    HW244584   8.836   9.869   8.804  0.1113 -0.2003  0.8150
14193SOL     OW44585   6.243   4.126   3.523  0.2429 -0.3437  0.8416
14193SOL    HW144586   6.163   4.077   3.542 -0.2924 -0.1781 -0.8373
14193SOL    HW244587   6.300   4.063   3.479 -0.4668  0.4943 -1.3713
14194SOL     OW44588   6.043   1.331   1.225  0.9263  0.0003  0.0741
14194SOL    HW144589   5.978   1.312   1.158  1.2137  0.2864 -0.2940
14194SOL    HW244590   6.127   1.328   1.179  1.7887 -5.0962  1.3455
14195SOL     OW44591  11.142   5.912   3.336 -1.0030 -0.0543 -0.6420
14195SOL    HW144592  11.191   5.981   3.292  0.5318 -1.0033 -0.4881
14195SOL    HW244593  11.202   5.877   3.401 -2.2411 -0.6106  0.2449
14196SOL     OW44594   9.747   5.758   0.047  0.1438  0.3765  0.2561
14196SOL    HW144595   9.798   5.743   0.126 -1.0113 -0.7418  0.8238
14196SOL    HW244596   9.704   5.674   0.030 -2.0798  1.4409  0.2488
14197SOL     OW44597   2.514   5.687   5.407 -0.9982 -0.1659  0.0811
14197SOL    HW144598   2.519   5.783   5.413 -0.6956 -0.1305 -0.6504
14197SOL    HW244599   2.601   5.657   5.434 -1.1400 -0.2468  0.4554
14198SOL     OW44600   1.956   9.068   2.043  0.0522 -0.1114 -0.5697
14198SOL    HW144601   1.917   9.151   2.014 -0.4099 -0.5186 -1.1264
14198SOL    HW244602   1.905   9.000   1.999 -0.8869 -0.7860  1.4329
14199SOL     OW44603   3.560   7.549   3.526 -0.4270  0.3396 -0.0021
14199SOL    HW144604   3.644   7.595   3.533  0.2395 -0.5017 -1.7092
14199SOL    HW244605   3.548   7.536   3.432 -2.5238  0.4813  0.2073
14200SOL     OW44606   9.617   8.225   1.344 -0.7270 -0.5833  0.0728
14200SOL    HW144607   9.614   8.230   1.249 -0.4415 -2.8250 -0.0871
14200SOL    HW244608   9.624   8.317   1.372 -0.3548  0.0911 -2.0579
14201SOL     OW44609   4.863   2.804   2.958  0.2673  0.1209  0.4055
14201SOL    HW144610   4.836   2.729   3.011 -0.4489  0.2969  0.2949
14201SOL    HW244611   4.791   2.866   2.965 -0.5965 -0.4658 -1.9993
14202SOL     OW44612   0.582   2.987   3.061  0.2131 -0.2412  0.4644
14202SOL    HW144613   0.576   2.930   3.138 -2.7878 -1.2109 -0.3722
14202SOL    HW244614   0.522   3.059   3.079  0.1627 -0.0014 -0.6054
14203SOL     OW44615   8.542   9.133   3.896  0.6817  0.1787  0.5741
14203SOL    HW144616   8.604   9.060   3.888 -1.4310 -1.8558  1.4682
14203SOL    HW244617   8.498   9.136   3.811 -0.4538 -0.8204  1.1033
14204SOL     OW44618   9.571   4.484   4.766 -0.0936  0.0336 -0.4164
14204SOL    HW144619   9.624   4.474   4.687 -0.2868 -0.8477 -0.4465
14204SOL    HW244620   9.595   4.570   4.800  0.0015  0.4232 -1.4224
14205SOL     OW44621   2.650   5.565   3.201  0.2489 -0.0484 -0.3480
14205SOL    HW144622   2.566   5.535   3.236  1.2122 -0.5686  1.6496
14205SOL    HW244623   2.640   5.660   3.193 -0.9923 -0.2406 -1.5862
14206SOL     OW44624   3.780   0.766   5.934  0.3385  0.4632 -0.3405
14206SOL    HW144625   3.707   0.704   5.934  0.9628 -0.2850 -0.5915
14206SOL    HW244626   3.786   0.795   6.025 -0.5443  0.8672 -0.3997
14207SOL     OW44627   4.595   6.749   7.618  0.3980 -0.7450 -0.1696
14207SOL    HW144628   4.604   6.655   7.602 -0.3230 -1.4164  2.7961
14207SOL    HW244629   4.524   6.777   7.559  0.2573 -2.1474 -0.7038
14208SOL     OW44630   6.718   2.897   5.547  0.3459 -0.5758  0.3852
14208SOL    HW144631   6.779   2.825   5.562 -0.1294 -0.4486  3.6270
14208SOL    HW244632   6.638   2.870   5.592 -1.4134  0.1216 -2.0876
14209SOL     OW44633   0.896   0.203   0.661  0.1607  0.2819  0.3161
14209SOL    HW144634   0.863   0.117   0.685  3.6882 -0.9383  1.5672
14209SOL    HW244635   0.849   0.264   0.717 -2.5717 -0.7065 -0.7594
14210SOL     OW44636   5.186   7.419  10.053 -0.2792 -0.4197 -0.5300
14210SOL    HW144637   5.204   7.335  10.011 -0.4341 -0.3942 -0.6480
14210SOL    HW244638   5.190   7.482   9.982  0.4934 -0.2380 -0.3320
14211SOL     OW44639   7.177   0.439   2.905  0.6909 -0.7608  0.3823
14211SOL    HW144640   7.175   0.533   2.887 -1.3805 -0.8784 -0.2895
14211SOL    HW244641   7.256   0.408   2.860  0.9125  0.5156 -0.1566
14212SOL     OW44642   9.067   7.492   4.064 -0.2393 -0.5744  0.1261
14212SOL    HW144643   9.017   7.443   4.130  0.3090  0.2337  1.1918
14212SOL    HW244644   9.138   7.532   4.114 -0.3073  0.7756 -0.8067
14213SOL     OW44645   3.815   5.399  10.562 -0.0687 -0.6890  0.0903
14213SOL    HW144646   3.875   5.324  10.556 -1.0146 -1.4830  0.3076
14213SOL    HW244647   3.729   5.360  10.578 -0.3842  0.4999  1.4989
14214SOL     OW44648   8.850  10.356   5.946  0.1221 -0.2265  0.0782
14214SOL    HW144649   8.906  10.279   5.958  0.3335  0.0173  0.6550
14214SOL    HW244650   8.823  10.381   6.034  1.1920  1.2039  0.0257
14215SOL     OW44651  10.274   7.725   0.547  0.6186 -0.4376  0.3821
14215SOL    HW144652  10.352   7.670   0.540  1.3156  0.6499 -1.1134
14215SOL    HW244653  10.287   7.793   0.480 -1.8272 -0.5043 -0.2708
14216SOL     OW44654  10.966   5.373   7.881 -0.4790 -0.1798  0.0645
14216SOL    HW144655  10.978   5.279   7.889  2.6012  0.2122  1.1081
14216SOL    HW244656  10.873   5.383   7.861 -1.2860 -3.3129  1.6084
14217SOL     OW44657   3.237  10.963   2.185 -0.1573  0.8560 -0.1713
14217SOL    HW144658   3.311  10.956   2.125  0.2976  3.1122  0.0257
14217SOL    HW244659   3.171  10.904   2.148  0.6538  1.0271 -2.0403
14218SOL     OW44660   5.964  10.290   2.944  0.2550  0.5171 -0.6149
14218SOL    HW144661   5.951  10.240   3.024 -1.8491  1.0701 -0.5433
14218SOL    HW244662   5.967  10.381   2.972  0.4942  0.6616 -1.0805
14219SOL     OW44663   2.939   9.877   5.349 -0.1341  0.2829  0.1385
14219SOL    HW144664   2.881   9.938   5.395 -1.0012 -1.5058  1.5359
14219SOL    HW244665   2.884   9.801   5.332  1.4689 -0.9446  0.3041
14220SOL     OW44666   5.329   2.384   3.393 -0.3006  0.2864  0.8919
14220SOL    HW144667   5.292   2.305   3.434 -0.8955  0.1816  0.1840
14220SOL    HW244668   5.311   2.454   3.455  1.3757 -0.3092  2.1486
14221SOL     OW44669   9.403   2.838   2.176 -0.6500 -0.6222 -0.3971
14221SOL    HW144670   9.380   2.746   2.160  0.7667 -0.8877 -1.1570
14221SOL    HW244671   9.414   2.875   2.089 -2.7857  0.7570 -0.1429
14222SOL     OW44672   2.683   9.019   5.215  0.0857 -0.1990 -0.7978
14222SOL    HW144673   2.618   9.087   5.231  1.1091  0.3727  1.3356
14222SOL    HW244674   2.648   8.942   5.258  1.3160  0.4458  1.4924
14223SOL     OW44675   8.417   8.365  10.572  0.2417  0.0178  0.3309
14223SOL    HW144676   8.323   8.346  10.582  0.2934 -2.0135 -1.9416
14223SOL    HW244677   8.435   8.346  10.480  2.9106  0.3437  0.7111
14224SOL     OW44678   9.535   2.230   8.637  0.1488  0.4339  0.3499
14224SOL    HW144679   9.499   2.289   8.703  1.1350 -0.0591  1.3713
14224SOL    HW244680   9.596   2.175   8.685 -0.7678 -1.4702 -0.5543
14225SOL     OW44681   4.381   8.627   1.533  0.3045 -0.1413  0.1440
14225SOL    HW144682   4.301   8.584   1.502  0.1933  0.3765 -0.2953
14225SOL    HW244683   4.373   8.625   1.629 -0.6720  0.6770  0.1090
14226SOL     OW44684   3.341  10.661  10.093 -0.0037 -0.4167  0.2321
14226SOL    HW144685   3.261  10.698  10.130 -0.8296 -0.4315 -1.4568
14226SOL    HW244686   3.411  10.695  10.149 -0.7936  2.8918 -0.6009
14227SOL     OW44687   3.628   6.317   3.344  0.1766  0.1938  0.2470
14227SOL    HW144688   3.616   6.342   3.436  0.7529  1.1055  0.0871
14227SOL    HW244689   3.692   6.246   3.347 -0.0774 -0.0265  0.5732
14228SOL     OW44690   1.853   9.018   4.079  0.1315 -0.4729  1.4786
14228SOL    HW144691   1.817   9.011   4.168 -0.9890  1.0967  1.1903
14228SOL    HW244692   1.946   9.000   4.089  0.2923  1.0265  3.2338
14229SOL     OW44693   3.774   4.116   2.666  0.1465 -0.2404  0.3444
14229SOL    HW144694   3.773   4.036   2.614  0.4433  0.7676 -1.2864
14229SOL    HW244695   3.781   4.086   2.756  0.1079 -2.0473 -0.2136
14230SOL     OW44696   8.658   3.716   9.972  1.3947 -0.5885 -0.3494
14230SOL    HW144697   8.689   3.793  10.020  1.3049 -1.0169  0.4146
14230SOL    HW244698   8.682   3.734   9.881  2.2609 -0.0983 -0.0462
14231SOL     OW44699   0.805   8.792   3.987  0.6575  0.2371  0.2008
14231SOL    HW144700   0.774   8.866   4.039  0.5637  0.6981 -0.4830
14231SOL    HW244701   0.901   8.801   3.986  0.5898  1.1609 -0.9922
14232SOL     OW44702   3.514   8.602   9.623  0.2905  0.0944  0.2394
14232SOL    HW144703   3.560   8.665   9.568  3.0828  0.4616  2.7253
14232SOL    HW244704   3.526   8.634   9.712 -0.3182 -2.6340  1.4166
14233SOL     OW44705  10.432  10.748   8.791  0.0196  0.7237  0.1115
14233SOL    HW144706  10.481  10.669   8.769 -2.8035 -0.9981 -0.4638
14233SOL    HW244707  10.484  10.819   8.754  2.1566 -0.9197 -0.2467
14234SOL     OW44708   4.677   1.767   9.639  0.4395 -0.1550 -0.4718
14234SOL    HW144709   4.727   1.757   9.720  1.3670  0.7058 -0.9245
14234SOL    HW244710   4.674   1.679   9.602 -0.4850 -0.6807  0.7568
14235SOL     OW44711   7.456   0.496   1.371 -0.3205  0.0462 -0.4879
14235SOL    HW144712   7.549   0.518   1.377 -0.1644 -0.3345 -1.3263
14235SOL    HW244713   7.430   0.474   1.460 -0.3994  3.1924  0.3652
14236SOL     OW44714  10.705   7.886   0.885 -0.0857 -0.3781 -0.4038
14236SOL    HW144715  10.712   7.927   0.798 -0.5476 -1.1378 -0.8126
14236SOL    HW244716  10.612   7.867   0.895 -0.0370 -0.2871  0.2694
14237SOL     OW44717   3.300   4.207   3.698 -0.2724 -0.9147 -0.2959
14237SOL    HW144718   3.293   4.173   3.608  2.2377 -2.6797  0.0709
14237SOL    HW244719   3.300   4.302   3.687  2.2209 -1.0362 -2.4923
14238SOL     OW44720   4.312   7.516   6.881  0.7739 -0.5895  0.7152
14238SOL    HW144721   4.234   7.553   6.840  0.3560 -0.8166  1.2968
14238SOL    HW244722   4.367   7.489   6.807  1.2716  1.5228  0.2577
14239SOL     OW44723  11.057   9.445   3.602 -0.0670  0.0872  0.1075
14239SOL    HW144724  11.038   9.364   3.649  1.0056  0.4406  1.2061
14239SOL    HW244725  10.974   9.471   3.563 -0.5621 -1.2002  0.2870
14240SOL     OW44726   0.751   6.463  10.652 -0.5971 -0.1255 -0.0808
14240SOL    HW144727   0.786   6.374  10.645  1.4809  0.4361  1.8541
14240SOL    HW244728   0.663   6.451  10.687  0.0022 -1.4316  1.0876
14241SOL     OW44729   1.918  10.067   2.939 -0.2865 -0.0221  0.0338
14241SOL    HW144730   1.996  10.114   2.968 -0.5177 -0.0897  0.8025
14241SOL    HW244731   1.951   9.995   2.886  0.1598  0.1204  0.1166
14242SOL     OW44732   7.742   7.386   5.804 -0.0093 -0.5391  0.1047
14242SOL    HW144733   7.725   7.480   5.801 -0.5252 -0.3882  3.5480
14242SOL    HW244734   7.827   7.375   5.760 -0.0595  1.4916 -0.5549
14243SOL     OW44735   4.052   8.932   9.746 -0.4522 -0.5315  0.0036
14243SOL    HW144736   4.012   8.950   9.832  3.4981  0.0931  1.9398
14243SOL    HW244737   4.066   9.018   9.707  2.1082 -0.3777  1.0587
14244SOL     OW44738  10.473   7.447   3.300 -0.1047 -0.4681 -0.4311
14244SOL    HW144739  10.436   7.528   3.266  0.7876  0.4209  0.6508
14244SOL    HW244740  10.546   7.427   3.241 -1.1783 -1.3015 -1.5460
14245SOL     OW44741   2.097   0.521   2.869  0.1112 -0.2423  0.3099
14245SOL    HW144742   2.179   0.478   2.894  0.8580  0.2246 -1.2309
14245SOL    HW244743   2.050   0.454   2.819  1.0447  0.4752 -1.6388
14246SOL     OW44744   9.466  10.457   7.886 -0.7898 -0.0975 -0.1464
14246SOL    HW144745   9.509  10.445   7.971  1.2126  0.2582 -1.0533
14246SOL    HW244746   9.418  10.540   7.895  2.2345  1.8265 -0.3702
14247SOL     OW44747   1.966   0.321   4.442  0.6203 -0.4969  0.2137
14247SOL    HW144748   1.958   0.359   4.530  0.8913 -1.0474  0.4830
14247SOL    HW244749   1.961   0.396   4.383 -1.5911 -0.2999  0.5738
14248SOL     OW44750   4.780   7.822   6.479 -0.5738 -0.9772 -0.7737
14248SOL    HW144751   4.871   7.849   6.472 -0.8127  0.2941  0.5068
14248SOL    HW244752   4.755   7.799   6.390  0.5271  0.2651 -1.4387
14249SOL     OW44753   4.231   6.962   9.825  0.9913 -0.2370 -0.3872
14249SOL    HW144754   4.301   6.938   9.885  0.5918  1.2933  0.7633
14249SOL    HW244755   4.267   6.947   9.738  1.7790 -1.9969  0.2107
14250SOL     OW44756   8.646  10.549   8.656  0.2264 -0.2155  0.3666
14250SOL    HW144757   8.706  10.582   8.589 -0.2409  1.1089  0.5515
14250SOL    HW244758   8.663  10.605   8.733  0.2231 -1.2092  1.1152
14251SOL     OW44759   4.243   8.634   8.800  0.1539 -0.1238 -0.3239
14251SOL    HW144760   4.217   8.576   8.729 -1.1628 -1.3397  1.0956
14251SOL    HW244761   4.204   8.596   8.878  0.6067  1.7988  0.9103
14252SOL     OW44762   6.102   3.861   5.565  0.0681  0.0622 -0.0923
14252SOL    HW144763   6.081   3.943   5.609  0.5126  0.6682 -0.9655
14252SOL    HW244764   6.052   3.865   5.483  0.3913 -0.3657 -0.3155
14253SOL     OW44765   4.438   9.077   8.575 -0.5822  0.1987  0.0697
14253SOL    HW144766   4.444   9.170   8.553  0.8135  0.0203 -0.3414
14253SOL    HW244767   4.510   9.062   8.636 -0.0619 -0.8725 -0.7885
14254SOL     OW44768   7.344   2.810   5.167 -0.0451  0.0197 -0.3209
14254SOL    HW144769   7.331   2.853   5.082  2.1708 -1.3041 -1.4048
14254SOL    HW244770   7.279   2.851   5.225 -0.6164  2.0086 -2.2579
14255SOL     OW44771   2.840   8.283   2.416  0.1296  0.1247  0.4732
14255SOL    HW144772   2.769   8.226   2.388 -0.6535  2.2934 -2.4257
14255SOL    HW244773   2.818   8.307   2.506 -1.5791 -0.9932  0.3945
14256SOL     OW44774   0.178   9.269   2.278  0.2952 -0.0579  0.3250
14256SOL    HW144775   0.204   9.310   2.195 -2.2476 -2.0341 -1.6497
14256SOL    HW244776   0.152   9.343   2.334  2.1158  1.3415 -0.5655
14257SOL     OW44777   6.567   7.610   0.340 -0.7071  0.2263  0.1774
14257SOL    HW144778   6.504   7.668   0.297 -0.0342  1.9228  1.3630
14257SOL    HW244779   6.604   7.558   0.269 -0.0855  2.4802 -1.2840
14258SOL     OW44780  10.919   5.410   9.815  1.0522 -0.8937 -0.2231
14258SOL    HW144781  10.996   5.355   9.803  0.5415 -2.1806  1.9746
14258SOL    HW244782  10.944   5.472   9.885  1.5550  1.6994 -2.5008
14259SOL     OW44783   6.691   4.670   4.515  0.4913 -0.3241  0.2235
14259SOL    HW144784   6.666   4.758   4.487  1.0178 -0.3340 -0.2910
14259SOL    HW244785   6.612   4.636   4.557 -0.3281 -0.2830 -1.1962
14260SOL     OW44786   1.242   5.661   4.733 -0.5288 -0.7000  0.4659
14260SOL    HW144787   1.192   5.730   4.691  0.1069 -1.2629 -1.2758
14260SOL    HW244788   1.249   5.689   4.825 -1.0400  1.0802 -0.0098
14261SOL     OW44789   5.899   6.305   3.534  0.1877  0.3977  0.0455
14261SOL    HW144790   5.911   6.322   3.627 -0.6911  1.2385  0.0261
14261SOL    HW244791   5.964   6.239   3.513 -1.6585 -2.2272  1.9624
14262SOL     OW44792   4.567  11.093   2.357 -0.5952 -0.3690  0.1428
14262SOL    HW144793   4.569  11.093   2.261  5.0353  0.7750 -0.0613
14262SOL    HW244794   4.609  11.011   2.382  1.8285  1.1216  1.3385
14263SOL     OW44795   3.021   1.704   3.801 -0.4164 -0.2064  0.4809
14263SOL    HW144796   2.984   1.713   3.889 -1.6691  1.0342 -0.1294
14263SOL    HW244797   3.111   1.734   3.810  0.5940 -3.2995  2.0161
14264SOL     OW44798  10.339   8.017   7.750 -0.5028  0.2051  0.2230
14264SOL    HW144799  10.352   8.112   7.753  2.6041 -0.0369 -1.3853
14264SOL    HW244800  10.252   8.006   7.712 -1.2062  2.3723  1.0662
14265SOL     OW44801   2.397   7.589   6.983  0.0168 -0.1839 -0.2993
14265SOL    HW144802   2.467   7.637   6.939  1.3954 -0.7144  1.1983
14265SOL    HW244803   2.394   7.627   7.071 -1.0546 -0.6907 -0.1082
14266SOL     OW44804  11.091   4.617   2.491 -0.2920  0.5452 -0.5697
14266SOL    HW144805  11.008   4.664   2.505 -0.0030  0.9775 -0.2710
14266SOL    HW244806  11.126   4.605   2.579 -0.1772  0.0979 -0.6759
14267SOL     OW44807   6.168  10.881   4.040 -0.9679  0.1736 -0.1610
14267SOL    HW144808   6.204  10.954   3.989  0.4910  0.7772  1.5930
14267SOL    HW244809   6.202  10.802   3.997 -1.2212  0.5822 -1.1381
14268SOL     OW44810   1.495   5.577   8.808 -0.0990 -0.2910  0.5277
14268SOL    HW144811   1.466   5.485   8.807  0.4267 -0.4651  0.8258
14268SOL    HW244812   1.563   5.581   8.741  2.5422 -1.0410  2.9532
14269SOL     OW44813   7.475   8.641   4.958 -0.3769  0.1867  0.0313
14269SOL    HW144814   7.424   8.616   5.036 -0.5683  0.0407 -0.1386
14269SOL    HW244815   7.458   8.570   4.895 -0.5014  0.4792 -0.2669
14270SOL     OW44816   4.485   6.570   5.753 -0.1773 -0.0757 -0.2866
14270SOL    HW144817   4.538   6.615   5.687 -1.0187  1.4433  0.0368
14270SOL    HW244818   4.458   6.638   5.814 -0.1730 -1.2954  1.1537
14271SOL     OW44819   0.949   1.794   0.029 -0.7260 -0.2354 -0.4981
14271SOL    HW144820   1.001   1.862  -0.013  1.4758 -2.3623 -1.4779
14271SOL    HW244821   0.945   1.723  -0.035  0.0475 -2.3703  1.6421
14272SOL     OW44822   5.261   2.176   4.756  0.0530 -0.4402 -0.4677
14272SOL    HW144823   5.294   2.096   4.797  0.5740  0.1725  0.3505
14272SOL    HW244824   5.277   2.244   4.821 -2.2124  0.0157 -0.2837
14273SOL     OW44825  11.206  10.465   6.828 -0.0675 -0.6546 -0.3431
14273SOL    HW144826  11.242  10.516   6.901 -0.8079 -0.8529  0.1689
14273SOL    HW244827  11.281  10.418   6.793  0.2652 -0.6785  0.3919
14274SOL     OW44828   2.747   7.598  10.179  0.0303 -0.4608  0.3210
14274SOL    HW144829   2.772   7.641  10.097  1.1057 -2.2708 -0.3842
14274SOL    HW244830   2.829   7.561  10.212 -0.6065 -0.8098  1.5838
14275SOL     OW44831   4.115  10.635   4.452 -0.5511  0.2841  0.1854
14275SOL    HW144832   4.049  10.566   4.457 -1.0236  0.6276 -0.8543
14275SOL    HW244833   4.135  10.656   4.543  1.5073 -2.9753  0.6415
14276SOL     OW44834   0.378   0.097   8.482  0.8003 -0.6942 -0.1041
14276SOL    HW144835   0.422   0.182   8.477  1.1836 -0.9521 -1.6530
14276SOL    HW244836   0.292   0.113   8.443  0.2478 -0.6634  1.0781
14277SOL     OW44837   4.580   2.346   9.034  0.7746  0.2914 -0.1938
14277SOL    HW144838   4.499   2.335   9.084  0.3311  1.6962 -0.5676
14277SOL    HW244839   4.573   2.284   8.962  1.9191 -2.6024  1.9751
14278SOL     OW44840   5.649  11.255   0.596  0.1636 -0.2350 -0.0141
14278SOL    HW144841   5.652  11.237   0.690  0.9996 -2.0401 -0.3409
14278SOL    HW244842   5.570  11.307   0.584  0.3197  0.4828  1.7489
14279SOL     OW44843   2.882   5.972   7.594 -0.1468  0.0272 -0.2789
14279SOL    HW144844   2.969   6.005   7.572 -0.2542 -0.2848 -1.1991
14279SOL    HW244845   2.891   5.938   7.683  0.2056  1.6570  0.3556
14280SOL     OW44846  10.808   2.482   6.551  0.6996  0.1986 -0.7163
14280SOL    HW144847  10.790   2.446   6.464 -0.0647 -0.0246 -0.4749
14280SOL    HW244848  10.807   2.577   6.539 -2.0469  0.2909 -0.5098
14281SOL     OW44849   5.502   8.057  10.179 -0.3221 -0.2480 -0.4755
14281SOL    HW144850   5.435   8.053  10.111 -0.6323  1.8656 -0.3667
14281SOL    HW244851   5.584   8.045  10.132 -0.6350 -0.7822 -0.9092
14282SOL     OW44852   8.254   4.103   4.908 -0.1598  0.5516 -0.7995
14282SOL    HW144853   8.301   4.062   4.835 -0.0399 -0.1606 -0.3340
14282SOL    HW244854   8.320   4.156   4.952  0.6903 -1.5890  0.7386
14283SOL     OW44855   0.161   4.215   8.073  0.1678  0.1960  0.3180
14283SOL    HW144856   0.159   4.307   8.046  0.7920  0.7437  2.0005
14283SOL    HW244857   0.069   4.188   8.071 -0.0057  0.7891 -0.3757
14284SOL     OW44858   6.559   9.307  10.903  0.5617 -0.0171 -0.5587
14284SOL    HW144859   6.625   9.351  10.956  1.8476 -1.6185 -0.7929
14284SOL    HW244860   6.506   9.258  10.966 -1.9110  2.8883 -0.0730
14285SOL     OW44861  10.729   6.809   9.145 -0.4851 -0.0196  0.4333
14285SOL    HW144862  10.769   6.896   9.153 -0.0764 -0.2756  1.2635
14285SOL    HW244863  10.705   6.802   9.052 -2.5844  1.8780  0.7428
14286SOL     OW44864   5.960   8.961   9.548  0.9803  0.5242  0.0490
14286SOL    HW144865   5.867   8.971   9.528  0.8392 -0.1873  0.3550
14286SOL    HW244866   5.968   8.873   9.584  1.5746  1.0465  1.2218
14287SOL     OW44867   5.112   1.650  10.878 -0.1063 -0.0804  0.6167
14287SOL    HW144868   5.040   1.587  10.875 -1.7685  1.7188  1.0029
14287SOL    HW244869   5.128   1.663  10.971 -0.6379  0.9555  0.5824
14288SOL     OW44870   3.829   1.297   6.429 -0.1432  0.2999 -0.7180
14288SOL    HW144871   3.881   1.372   6.458 -1.0502  0.3986  0.7658
14288SOL    HW244872   3.822   1.308   6.334 -0.1967  2.0639 -0.5389
14289SOL     OW44873   8.703   4.197   7.913 -0.2157  0.0234  0.4059
14289SOL    HW144874   8.616   4.177   7.948  0.1895  0.1211  1.5064
14289SOL    HW244875   8.686   4.248   7.835 -1.2496 -2.5575 -1.1942
14290SOL     OW44876   0.054   5.326  11.061 -0.2171  0.0554 -0.0574
14290SOL    HW144877   0.069   5.366  10.976 -0.7265 -0.3399 -0.3374
14290SOL    HW244878   0.061   5.232  11.044 -2.5182 -0.1587 -0.1321
14291SOL     OW44879   0.222   8.618   6.945 -0.3061 -0.7983  0.0268
14291SOL    HW144880   0.313   8.612   6.975 -0.3112 -1.2017 -0.0333
14291SOL    HW244881   0.170   8.607   7.024 -0.3062 -0.6489  0.0486
14292SOL     OW44882  11.263   4.717   5.709 -0.5837 -0.2340 -0.4387
14292SOL    HW144883  11.257   4.679   5.797  6.9936  0.9811  1.2982
14292SOL    HW244884  11.290   4.645   5.653  0.0877 -0.0232 -0.3962
14293SOL     OW44885   5.424  11.034   1.305 -0.4482  0.6766  0.3258
14293SOL    HW144886   5.470  11.067   1.381 -0.4506  1.1212  0.1355
14293SOL    HW244887   5.353  11.096   1.291  0.3752  1.4056 -0.8686
14294SOL     OW44888   5.901   5.594   1.452 -0.1665  0.2733 -0.3104
14294SOL    HW144889   5.951   5.675   1.440 -0.2345  0.2422 -0.8090
14294SOL    HW244890   5.938   5.555   1.531 -0.2174  0.8544  0.0094
14295SOL     OW44891   8.257  10.520   1.529  0.3002 -0.1298  0.2214
14295SOL    HW144892   8.278  10.565   1.447 -0.7551 -1.4449 -0.8292
14295SOL    HW244893   8.213  10.586   1.582  3.3448  1.5249  0.8963
14296SOL     OW44894   1.767   1.542   0.975  0.4134  0.1808  0.5151
14296SOL    HW144895   1.792   1.602   1.045  1.1612 -0.9607  1.2653
14296SOL    HW244896   1.803   1.457   1.003 -0.4822 -0.5790 -0.5794
14297SOL     OW44897   0.914   4.448   4.737  0.2884  0.3519  0.0259
14297SOL    HW144898   0.930   4.538   4.708 -0.2076  0.2358 -0.6346
14297SOL    HW244899   0.819   4.438   4.732  0.4557 -0.8227 -1.8563
14298SOL     OW44900   1.423   9.160   9.087 -0.1083  0.0282 -0.5938
14298SOL    HW144901   1.390   9.096   9.024 -3.2210  1.1747 -0.3087
14298SOL    HW244902   1.392   9.128   9.172  0.0075  0.8823 -0.2203
14299SOL     OW44903   0.467   9.551  10.082 -0.1037 -0.7934 -1.1775
14299SOL    HW144904   0.405   9.618  10.110  1.4005  0.2111 -0.1072
14299SOL    HW244905   0.528   9.597  10.025  0.5979 -1.3770 -0.9195
14300SOL     OW44906   2.796   7.786   1.746  0.5614 -0.2750 -0.1070
14300SOL    HW144907   2.752   7.850   1.690 -2.8589 -1.8923  0.4548
14300SOL    HW244908   2.839   7.838   1.813 -0.9081  1.5325 -0.4759
14301SOL     OW44909  10.022   0.307   4.909 -0.0666  0.0728 -0.1678
14301SOL    HW144910   9.929   0.293   4.924  0.3936 -2.3577  0.8416
14301SOL    HW244911  10.038   0.396   4.939 -2.2858  1.0517 -1.6458
14302SOL     OW44912   1.049   1.964   9.181  0.1900 -0.0840  0.0767
14302SOL    HW144913   1.022   1.988   9.093 -0.0446  0.7127  0.3624
14302SOL    HW244914   1.130   2.013   9.196  0.9807 -1.2715 -0.2002
14303SOL     OW44915   1.726   3.895   5.280  0.3897  0.7443  0.0967
14303SOL    HW144916   1.732   3.951   5.202  0.0162  0.3821 -0.1947
14303SOL    HW244917   1.751   3.953   5.352 -2.2177  2.0173  0.1175
14304SOL     OW44918  11.114  10.072   8.345 -0.6463 -0.1428 -0.2143
14304SOL    HW144919  11.148  10.093   8.431  1.2682  1.1658 -1.2219
14304SOL    HW244920  11.178  10.012   8.307 -1.0299 -0.0643 -1.0136
14305SOL     OW44921   1.350   9.566   4.830 -0.1881  0.2896  0.1307
14305SOL    HW144922   1.434   9.606   4.806 -0.0877  0.7204  1.1616
14305SOL    HW244923   1.290   9.640   4.840 -0.5072  0.0361  0.1159
14306SOL     OW44924   6.946   0.038   2.094  0.1876  0.3327 -0.3312
14306SOL    HW144925   6.956   0.108   2.158 -1.6801 -1.3800  2.0245
14306SOL    HW244926   6.973   0.077   2.011  0.3567  3.4289  1.0529
14307SOL     OW44927   2.102   9.970   1.117  0.0998  0.5057 -0.0047
14307SOL    HW144928   2.072  10.020   1.041 -1.6538  0.0385  0.3388
14307SOL    HW244929   2.028   9.970   1.177  0.9893 -0.2719  1.1422
14308SOL     OW44930   1.407   9.597   2.500 -0.0343 -0.2223 -0.1049
14308SOL    HW144931   1.344   9.534   2.464  0.5878 -2.8714  2.9656
14308SOL    HW244932   1.492   9.559   2.478  0.4191  0.8899 -0.2934
14309SOL     OW44933   3.921   0.393   4.889  0.3839 -0.0251  0.3897
14309SOL    HW144934   3.910   0.298   4.899 -3.8052  0.4036  1.8813
14309SOL    HW244935   3.967   0.420   4.968  1.5064 -0.7733  0.0103
14310SOL     OW44936   5.166   8.028   2.739  0.0876 -0.0589 -0.0245
14310SOL    HW144937   5.173   7.941   2.779 -1.4240  0.2093  0.9073
14310SOL    HW244938   5.073   8.050   2.745 -0.1040  0.3649 -3.0190
14311SOL     OW44939   3.865  10.691   7.573  0.1121  0.1541 -0.3807
14311SOL    HW144940   3.897  10.602   7.585 -0.1722 -0.1862 -2.0082
14311SOL    HW244941   3.788  10.683   7.517  0.4666  1.4677 -1.1085
14312SOL     OW44942   3.286   7.176   1.177 -0.0300 -0.0168  0.5426
14312SOL    HW144943   3.246   7.124   1.246  1.2530  0.1080  1.4197
14312SOL    HW244944   3.293   7.117   1.102 -1.3781 -0.1697  0.5039
14313SOL     OW44945   8.393   9.032   1.004  0.1627  0.0712  0.0055
14313SOL    HW144946   8.312   8.985   1.019 -0.8221  1.2061 -1.5068
14313SOL    HW244947   8.438   8.983   0.936 -0.4918  0.8468 -1.0043
14314SOL     OW44948   8.478   6.448   4.272  0.5178 -0.0444 -0.6853
14314SOL    HW144949   8.552   6.509   4.261  0.7816 -0.2020  0.0968
14314SOL    HW244950   8.451   6.460   4.363  1.4646 -2.0577 -0.0785
14315SOL     OW44951   0.284   0.680   9.917 -0.1378  0.1529  0.0847
14315SOL    HW144952   0.362   0.734   9.905  1.3402 -2.3353 -3.1395
14315SOL    HW244953   0.224   0.709   9.848  0.7052 -2.1340 -1.7364
14316SOL     OW44954   9.324   9.798   1.878 -0.0839 -0.1584 -0.3734
14316SOL    HW144955   9.229   9.797   1.888  0.1299  0.3341  2.6251
14316SOL    HW244956   9.354   9.720   1.925  1.0644  0.2015 -0.4795
14317SOL     OW44957   1.790   2.413   1.321  0.5227 -0.2311 -0.1450
14317SOL    HW144958   1.784   2.463   1.403 -0.3847  1.2428 -1.0757
14317SOL    HW244959   1.877   2.433   1.287  0.8262 -0.6880  0.3524
14318SOL     OW44960   9.872   6.149   7.590  0.2174  0.2128 -0.2862
14318SOL    HW144961   9.847   6.241   7.597  1.0291  0.3662  0.9958
14318SOL    HW244962   9.857   6.127   7.498 -2.3245  0.9095 -0.1182
14319SOL     OW44963   5.378   1.560   4.714 -0.3933  0.1178 -0.5155
14319SOL    HW144964   5.285   1.555   4.736  0.0225 -1.0482  1.1373
14319SOL    HW244965   5.423   1.525   4.790  1.4094  0.3875 -1.3976
14320SOL     OW44966   5.018   3.686   9.841  0.3774  0.4044 -0.2680
14320SOL    HW144967   5.097   3.719   9.884 -0.1471  2.0251 -0.5194
14320SOL    HW244968   5.051   3.644   9.761  1.3776 -2.7338  1.6107
14321SOL     OW44969   5.629   0.990  10.359 -0.8426  0.6236 -0.3755
14321SOL    HW144970   5.696   0.981  10.292 -0.6338 -0.4038 -0.0497
14321SOL    HW244971   5.650   0.922  10.423 -1.6706  0.8795  0.1838
14322SOL     OW44972   7.446   0.487   6.280 -0.2630  0.2214 -0.3865
14322SOL    HW144973   7.538   0.465   6.294  0.1062  2.0231  0.3212
14322SOL    HW244974   7.412   0.506   6.367 -0.8213  1.2777 -0.8118
14323SOL     OW44975   0.784   7.390  10.167 -0.2497  0.5741  0.0805
14323SOL    HW144976   0.872   7.427  10.176  1.6312 -2.6801 -2.5030
14323SOL    HW244977   0.725   7.465  10.179  3.0186  3.7549 -1.7209
14324SOL     OW44978   6.884   8.201   3.117  0.1613  0.3876  0.2752
14324SOL    HW144979   6.899   8.239   3.031  1.2831  1.7587  1.0336
14324SOL    HW244980   6.794   8.226   3.140 -0.9218 -1.7374 -1.2996
14325SOL     OW44981   9.794   8.067   2.538 -0.5626  0.3073 -0.6429
14325SOL    HW144982   9.889   8.079   2.549 -0.9750  1.7046  1.9798
14325SOL    HW244983   9.770   8.002   2.604 -1.0560 -2.6565 -3.4542
14326SOL     OW44984   4.999   3.315   8.596 -0.9029  0.1020  0.2051
14326SOL    HW144985   4.959   3.238   8.637 -0.3872  0.3061  1.1128
14326SOL    HW244986   4.967   3.313   8.506 -1.0849 -1.0463  0.2745
14327SOL     OW44987   4.677   4.347   4.731  0.1918 -0.3495 -0.3586
14327SOL    HW144988   4.742   4.340   4.661  0.8069  2.0220 -0.0960
14327SOL    HW244989   4.596   4.370   4.685  0.4429  0.5456 -0.3651
14328SOL     OW44990   2.502   7.927   4.442  0.9669  0.0125 -0.5080
14328SOL    HW144991   2.459   7.889   4.518  0.6533 -0.2140 -0.7938
14328SOL    HW244992   2.506   8.021   4.461  0.2168  0.0587 -0.5303
14329SOL     OW44993   7.935   2.399   3.241  0.9337  0.4914 -0.4159
14329SOL    HW144994   7.954   2.492   3.252 -0.5704  1.0444 -1.9721
14329SOL    HW244995   7.947   2.361   3.328  0.6836  2.3090  0.4570
14330SOL     OW44996   8.031   2.358   9.629  0.3825 -0.4360  0.0967
14330SOL    HW144997   8.009   2.267   9.606 -0.6618  0.0436 -0.8824
14330SOL    HW244998   7.948   2.395   9.661  1.1047 -0.1870  1.7644
14331SOL     OW44999   5.824   3.238   5.405 -1.1436 -0.0167 -0.8517
14331SOL    HW145000   5.746   3.187   5.385 -1.7512  0.5935 -0.0499
14331SOL    HW245001   5.796   3.304   5.468 -0.2053  0.8422 -1.2882
14332SOL     OW45002   7.819   7.509   3.544  0.6761  0.3246  0.6623
14332SOL    HW145003   7.867   7.584   3.580 -0.5798  1.4468  0.0745
14332SOL    HW245004   7.843   7.436   3.602  4.6186  0.2824 -0.6857
14333SOL     OW45005   7.701   4.141   7.652  0.8317 -0.1758  0.4456
14333SOL    HW145006   7.656   4.056   7.647  0.8883 -0.2952  1.6321
14333SOL    HW245007   7.653   4.197   7.591  0.9893 -1.1450 -0.6001
14334SOL     OW45008  10.360   2.412   4.193 -0.0141 -0.3283 -0.7020
14334SOL    HW145009  10.345   2.355   4.118 -0.8024 -1.7109  0.4438
14334SOL    HW245010  10.316   2.367   4.266  0.0596  1.3453  0.4208
14335SOL     OW45011   8.967   6.769   3.207 -1.0353 -0.2679  0.1832
14335SOL    HW145012   8.998   6.743   3.120 -1.7729  2.1680 -0.9097
14335SOL    HW245013   9.001   6.858   3.218 -1.8503 -0.1397  1.9514
14336SOL     OW45014   7.268   7.330   6.525 -0.4446  0.6610 -0.3816
14336SOL    HW145015   7.351   7.378   6.521 -0.5768  1.1244  1.4006
14336SOL    HW245016   7.268   7.276   6.447  1.3727  0.9253 -0.6141
14337SOL     OW45017   3.573   9.609   4.124  0.1514 -0.3655  0.6023
14337SOL    HW145018   3.599   9.645   4.039  1.0122 -0.6146  0.7518
14337SOL    HW245019   3.479   9.596   4.117  0.0952  0.3340 -0.0471
14338SOL     OW45020   3.838   2.982   9.854  0.5252  0.6580  0.5538
14338SOL    HW145021   3.875   3.043   9.791 -1.1016 -0.1313 -1.2835
14338SOL    HW245022   3.765   3.030   9.894  0.3597  0.5171  0.4219
14339SOL     OW45023   1.943   2.861   5.733  0.3260 -0.2752 -0.0697
14339SOL    HW145024   1.879   2.799   5.768 -0.7657  0.3591 -0.8751
14339SOL    HW245025   1.935   2.938   5.790  0.8962 -0.4492  0.2581
14340SOL     OW45026   7.010   5.245   8.679  0.1488 -1.1415 -0.7647
14340SOL    HW145027   7.027   5.173   8.618 -0.3546 -1.8256 -0.1266
14340SOL    HW245028   6.960   5.204   8.750 -3.2711  0.4500 -2.0083
14341SOL     OW45029   7.927   6.011  10.538  0.1041  0.0243  0.1812
14341SOL    HW145030   7.884   6.065  10.605  0.7803  1.2210 -0.3244
14341SOL    HW245031   7.926   6.065  10.459 -2.0097 -1.9113 -1.2709
14342SOL     OW45032   1.767   0.640   9.118 -0.4900  0.3603  0.3773
14342SOL    HW145033   1.777   0.647   9.023 -0.3798 -1.4649  0.2119
14342SOL    HW245034   1.675   0.619   9.131 -0.0757 -1.6112  0.4630
14343SOL     OW45035   5.644   1.559   2.849 -0.5854 -0.2734  0.1551
14343SOL    HW145036   5.718   1.548   2.789 -0.6548 -2.1844  0.3573
14343SOL    HW245037   5.566   1.556   2.792 -0.5694  0.4544  0.0845
14344SOL     OW45038   8.539   7.829   7.976  0.2590  0.4846 -0.5647
14344SOL    HW145039   8.482   7.859   7.906 -0.8142  3.2129  1.3139
14344SOL    HW245040   8.627   7.851   7.947 -0.0752  0.6383 -1.4779
14345SOL     OW45041   5.119  10.917   6.380  0.1760 -0.5755  0.7729
14345SOL    HW145042   5.154  11.006   6.384  0.8203 -0.8064  0.4664
14345SOL    HW245043   5.194  10.863   6.355 -0.2683 -1.1713  0.7003
14346SOL     OW45044   6.875   6.785   6.100 -0.1297 -0.3125  0.3996
14346SOL    HW145045   6.816   6.798   6.025 -1.9206 -2.3423  1.3518
14346SOL    HW245046   6.955   6.832   6.076 -0.7735 -0.5496 -2.6005
14347SOL     OW45047   1.058   7.216  10.582  0.0732 -0.3271 -0.7323
14347SOL    HW145048   1.075   7.293  10.528  0.2643 -0.3153 -0.6565
14347SOL    HW245049   0.975   7.234  10.625 -2.2483 -1.9846 -4.0233
14348SOL     OW45050  10.259   9.535   4.388  0.4188  0.6132  0.2158
14348SOL    HW145051  10.172   9.526   4.349  0.1227 -0.6878  1.1360
14348SOL    HW245052  10.307   9.458   4.358  0.0133 -0.7265  2.7402
14349SOL     OW45053   6.021   3.256   3.548 -0.4450 -0.2700 -0.0714
14349SOL    HW145054   6.060   3.321   3.489 -0.1807  0.8797  1.3277
14349SOL    HW245055   6.009   3.178   3.493  1.1145  0.2919 -1.2778
14350SOL     OW45056   3.082   6.764   3.545  0.0134 -0.2087 -0.5569
14350SOL    HW145057   3.013   6.698   3.542 -1.2742  1.1091 -1.2446
14350SOL    HW245058   3.035   6.847   3.545  1.5751  0.7196  0.7936
14351SOL     OW45059   0.525   8.359   5.333  0.0482  0.1349  0.2702
14351SOL    HW145060   0.436   8.395   5.340 -0.9713 -1.8047 -1.4647
14351SOL    HW245061   0.513   8.264   5.334  2.2769 -0.1984  1.3850
14352SOL     OW45062   2.039   4.984   9.769  0.8647 -0.4447 -0.0990
14352SOL    HW145063   1.990   4.903   9.785 -1.1572  0.3150 -2.0095
14352SOL    HW245064   2.011   5.042   9.840 -4.5282  1.3795 -3.1889
14353SOL     OW45065   7.544   7.503   2.650 -0.2947  0.5472  0.6035
14353SOL    HW145066   7.501   7.586   2.627  0.1578  0.3731 -1.0182
14353SOL    HW245067   7.605   7.525   2.720 -1.1078  1.3166  1.0883
14354SOL     OW45068   8.797   4.710   8.972  0.0630  0.2127 -0.1084
14354SOL    HW145069   8.887   4.734   8.946 -0.1785 -0.5688 -1.7633
14354SOL    HW245070   8.776   4.773   9.042  2.0825  0.0569  0.7388
14355SOL     OW45071   2.871   1.668   0.707  0.4662 -0.4202 -0.2849
14355SOL    HW145072   2.868   1.631   0.796 -2.0252  0.8675  0.2574
14355SOL    HW245073   2.899   1.759   0.720  1.6375 -0.6481 -1.0451
14356SOL     OW45074   7.792   5.128   1.689  0.3661  0.1649  0.2409
14356SOL    HW145075   7.830   5.155   1.772  2.6160  0.4761 -0.8013
14356SOL    HW245076   7.724   5.193   1.670  0.9338  1.0110  1.0676
14357SOL     OW45077  10.231   1.717   6.582 -0.3018  0.7566  0.0562
14357SOL    HW145078  10.153   1.765   6.557 -0.7140 -0.0388 -0.2196
14357SOL    HW245079  10.224   1.706   6.677  0.3703  2.2142  0.3063
14358SOL     OW45080  10.794   6.980   0.824  0.9557 -0.2190  0.2451
14358SOL    HW145081  10.847   6.977   0.745 -0.6352 -0.3218 -0.8775
14358SOL    HW245082  10.838   6.922   0.885  2.1829 -0.2036 -0.5934
14359SOL     OW45083   5.385   5.075   1.725 -0.0507 -0.8928  0.3269
14359SOL    HW145084   5.317   5.135   1.696 -0.7316 -0.2690  2.9376
14359SOL    HW245085   5.467   5.123   1.712 -0.3914 -0.3531  0.1406
14360SOL     OW45086   6.631   4.269   0.181  0.3851  0.7685 -0.3124
14360SOL    HW145087   6.549   4.284   0.229  0.5564  1.2295 -0.1600
14360SOL    HW245088   6.688   4.341   0.208  0.8581  0.4257 -0.3862
14361SOL     OW45089   9.913   9.264   2.125  0.1991  0.0626 -0.0009
14361SOL    HW145090   9.980   9.204   2.095  0.4539 -0.2124  1.0720
14361SOL    HW245091   9.901   9.325   2.053  1.3057 -0.1310 -0.3652
14362SOL     OW45092   4.343   2.334   7.811  0.3031  0.2095 -0.4868
14362SOL    HW145093   4.267   2.341   7.753 -0.9299  0.2615  1.0626
14362SOL    HW245094   4.383   2.251   7.787 -1.1447 -0.5742 -0.3504
14363SOL     OW45095   7.522   5.205   9.495 -0.3228  0.2919 -0.4025
14363SOL    HW145096   7.494   5.201   9.404 -0.1263  0.2704 -0.4618
14363SOL    HW245097   7.471   5.136   9.539  1.5531 -1.5606 -1.0141
14364SOL     OW45098   9.798  11.220   2.892 -0.5757  0.6235 -0.2404
14364SOL    HW145099   9.832  11.163   2.962 -0.0582  1.6200  0.3450
14364SOL    HW245100   9.857  11.206   2.819  1.1485  2.3032  0.7537
14365SOL     OW45101  10.471   0.090   8.706 -0.0615  0.1508 -0.7099
14365SOL    HW145102  10.555   0.119   8.740  0.2640 -0.8291 -0.6311
14365SOL    HW245103  10.445   0.018   8.764 -1.3439  0.9572 -0.2484
14366SOL     OW45104   4.779  10.699   0.509  0.4426 -0.0070 -0.6070
14366SOL    HW145105   4.780  10.794   0.515  0.4028 -0.1022  2.1211
14366SOL    HW245106   4.870  10.672   0.518  0.2935 -0.2500  0.3284
14367SOL     OW45107   5.772   9.986   6.151 -0.1511 -0.2460 -0.4199
14367SOL    HW145108   5.806  10.071   6.179 -0.0261 -0.2380 -0.5908
14367SOL    HW245109   5.839   9.923   6.179  0.5010 -0.1262 -1.6476
14368SOL     OW45110   4.572   7.298   1.865  0.1783  0.0893  0.8066
14368SOL    HW145111   4.533   7.215   1.893  1.5266 -0.4981  1.0510
14368SOL    HW245112   4.498   7.352   1.838 -0.7875 -0.9388  1.3189
14369SOL     OW45113  10.600   6.008   1.876 -0.8267  1.0084 -0.5129
14369SOL    HW145114  10.557   5.961   1.805  1.0901 -0.5915 -0.7101
14369SOL    HW245115  10.598   6.100   1.849 -1.7228  0.6552 -1.7378
14370SOL     OW45116   7.799   3.217   5.369  1.0639 -0.5506  0.7193
14370SOL    HW145117   7.855   3.201   5.293 -0.3195  1.7388 -0.9355
14370SOL    HW245118   7.857   3.256   5.434  1.6792  0.5777 -0.4634
14371SOL     OW45119   9.097   1.075   3.100 -0.0648  0.6342  0.3306
14371SOL    HW145120   9.064   1.143   3.041 -2.1217 -0.3344  0.2933
14371SOL    HW245121   9.154   1.021   3.046 -0.3944  0.8881 -0.2765
14372SOL     OW45122   4.154   0.642   8.399  0.3784 -0.0137  0.6482
14372SOL    HW145123   4.199   0.559   8.384  3.0344  1.5648 -0.9726
14372SOL    HW245124   4.145   0.681   8.312 -0.8035  1.4168  1.3564
14373SOL     OW45125  10.156   7.087   8.752  0.3288  0.1366  0.2882
14373SOL    HW145126  10.155   7.071   8.847 -0.8092  1.8800  0.6242
14373SOL    HW245127  10.069   7.063   8.722  0.1752  1.0359 -0.0213
14374SOL     OW45128   3.056  11.180   5.882  0.2982  0.2542 -0.5316
14374SOL    HW145129   3.060  11.111   5.948 -0.6044 -1.3504 -2.0498
14374SOL    HW245130   3.142  11.222   5.885  0.2176  0.3280  1.7106
14375SOL     OW45131   8.966   6.823   1.305  0.2208  0.7110  0.2216
14375SOL    HW145132   8.911   6.899   1.320 -1.8857 -0.6910  0.0212
14375SOL    HW245133   9.035   6.830   1.370 -0.2841  2.4394  0.6178
14376SOL     OW45134   1.027   7.498   4.670 -0.4969 -0.1419  0.1586
14376SOL    HW145135   1.009   7.589   4.645 -2.0723 -0.7275 -1.0306
14376SOL    HW245136   1.007   7.494   4.763 -0.2018  0.7761  0.2735
14377SOL     OW45137   9.984   4.127   5.996 -0.4258 -0.1291  0.1451
14377SOL    HW145138  10.077   4.120   6.017 -0.0728  3.2847  0.2463
14377SOL    HW245139   9.939   4.083   6.069  1.0378 -1.6584  0.1802
14378SOL     OW45140  11.080   4.665   2.105  0.3934  0.1140  0.0527
14378SOL    HW145141  11.079   4.726   2.031  0.1415  0.2138  0.1405
14378SOL    HW245142  11.128   4.711   2.173 -0.2301  0.4135  0.2925
14379SOL     OW45143   2.378   0.405   4.962  0.4378 -0.0080 -0.4235
14379SOL    HW145144   2.451   0.391   5.021  0.6694 -1.4286 -1.0154
14379SOL    HW245145   2.377   0.328   4.905 -3.9683 -2.2306  2.0936
14380SOL     OW45146   9.142   5.629   5.338 -0.3151  0.1691 -0.3465
14380SOL    HW145147   9.110   5.552   5.292  0.1960 -0.9179  1.0516
14380SOL    HW245148   9.237   5.617   5.343 -0.2477  0.7880  0.0534
14381SOL     OW45149   1.455   8.370   2.355 -0.2164 -0.3257  0.1695
14381SOL    HW145150   1.400   8.325   2.292 -1.0157 -1.5531  1.6775
14381SOL    HW245151   1.394   8.418   2.411  0.3061 -0.8085  1.1835
14382SOL     OW45152   6.181   7.239   1.715 -0.5277  0.0614 -0.0525
14382SOL    HW145153   6.270   7.228   1.747 -0.5462 -0.7749 -0.2606
14382SOL    HW245154   6.131   7.267   1.792 -0.0928  0.5534  0.0605
14383SOL     OW45155   7.657   0.171   8.201 -0.2602 -0.3505  0.2629
14383SOL    HW145156   7.608   0.092   8.223 -0.4726 -0.1831  0.4074
14383SOL    HW245157   7.735   0.140   8.155  0.3014 -0.7233  1.4495
14384SOL     OW45158  11.152   9.298   5.145 -1.3008  0.0559  0.6830
14384SOL    HW145159  11.241   9.269   5.164 -1.1758 -1.2620 -1.6080
14384SOL    HW245160  11.102   9.218   5.132 -2.2133  0.7910 -0.6082
14385SOL     OW45161   7.899   1.771   0.173 -0.3735  0.4614 -0.5181
14385SOL    HW145162   7.980   1.779   0.224 -0.8464  3.6469 -0.0436
14385SOL    HW245163   7.882   1.860   0.142 -2.6931 -0.4883 -2.2193
14386SOL     OW45164   9.662  10.227   8.836  0.4055 -0.1902 -0.0114
14386SOL    HW145165   9.728  10.263   8.895  1.8690 -0.5422 -1.3556
14386SOL    HW245166   9.579  10.255   8.873  1.3647  2.3539  0.4419
14387SOL     OW45167   1.230   5.998   5.307  0.1648 -0.1932 -0.4117
14387SOL    HW145168   1.311   5.950   5.290  2.2573  2.4924  1.0800
14387SOL    HW245169   1.249   6.048   5.386 -1.8262  2.9587 -1.7598
14388SOL     OW45170   4.784   4.028   5.797  0.5106 -1.6282 -1.0382
14388SOL    HW145171   4.701   4.014   5.843  0.5412  1.4836  0.2214
14388SOL    HW245172   4.764   4.012   5.705 -1.5787 -0.6829 -0.7927
14389SOL     OW45173  10.543   2.725   1.156  0.2809 -0.3898 -0.1918
14389SOL    HW145174  10.528   2.780   1.234 -1.0269 -2.0072  0.7605
14389SOL    HW245175  10.608   2.661   1.184 -0.4803 -1.2180 -0.2723
14390SOL     OW45176   4.750   1.086   8.908  0.3036  0.2044 -0.2889
14390SOL    HW145177   4.812   1.154   8.933 -0.5094  1.1151 -0.7293
14390SOL    HW245178   4.713   1.055   8.992  1.4495 -0.4716 -0.0098
14391SOL     OW45179   7.802   5.689   9.583  0.2318 -0.5825 -0.1667
14391SOL    HW145180   7.844   5.626   9.524  1.0939  0.1744 -0.3858
14391SOL    HW245181   7.812   5.774   9.539  0.7351 -0.0275  0.9721
14392SOL     OW45182   3.703   6.943   6.155 -0.0199  0.2542  0.2800
14392SOL    HW145183   3.688   6.853   6.125 -2.4557  0.8478 -0.5500
14392SOL    HW245184   3.683   6.941   6.249  1.1827 -0.2869  0.5439
14393SOL     OW45185  10.164   6.773  10.007 -0.2566  0.4503 -0.1049
14393SOL    HW145186  10.219   6.836   9.960  0.9610 -0.3705  0.1726
14393SOL    HW245187  10.155   6.699   9.946  0.5515 -0.2256  0.5734
14394SOL     OW45188   9.302   3.067  10.002 -0.6867 -0.0280 -0.4550
14394SOL    HW145189   9.384   3.117  10.003  0.1748 -1.3059  2.2006
14394SOL    HW245190   9.238   3.125  10.042 -0.5160  0.1809 -0.4838
14395SOL     OW45191  10.421   3.354  10.970 -0.7783  0.0949  0.3169
14395SOL    HW145192  10.488   3.359  10.902 -0.1034  1.1634  1.0317
14395SOL    HW245193  10.384   3.266  10.961  1.4064 -0.9088  0.5492
14396SOL     OW45194  10.956   4.260   7.922  0.6359 -0.6433  0.0058
14396SOL    HW145195  10.897   4.327   7.889  1.9186  0.0261 -1.0059
14396SOL    HW245196  10.955   4.192   7.854  1.1765 -0.5415 -0.1024
14397SOL     OW45197   0.874   9.789   3.157  0.2014 -0.1362 -0.0197
14397SOL    HW145198   0.946   9.821   3.102  0.9367  0.7938  1.3917
14397SOL    HW245199   0.918   9.740   3.227 -0.3941  1.1600  1.3463
14398SOL     OW45200   4.288   6.723   1.142  0.5530  0.2084 -0.5830
14398SOL    HW145201   4.354   6.656   1.127  1.9364  1.5616 -0.7785
14398SOL    HW245202   4.307   6.790   1.077 -0.9236  0.7187 -0.5270
14399SOL     OW45203  11.117   8.040   2.047 -0.3687 -0.2289 -0.7586
14399SOL    HW145204  11.086   8.053   2.136 -0.1510  2.1875 -0.9501
14399SOL    HW245205  11.156   7.953   2.047 -2.3001 -1.1692  0.8939
14400SOL     OW45206   0.363   7.614   1.585 -0.0047 -0.3914  0.5562
14400SOL    HW145207   0.310   7.688   1.557  1.1978  0.0127 -0.8096
14400SOL    HW245208   0.438   7.654   1.630 -1.7331 -1.0102  4.3520
14401SOL     OW45209   4.234   0.765   5.506  0.2269  0.0224 -0.3238
14401SOL    HW145210   4.146   0.729   5.494  0.3435  0.4670 -3.2825
14401SOL    HW245211   4.260   0.737   5.594 -2.6501 -0.5245  0.4470
14402SOL     OW45212   3.510  10.564  11.238 -0.2000  0.2784 -0.4154
14402SOL    HW145213   3.595  10.569  11.194  0.2229  2.3509  0.5315
14402SOL    HW245214   3.531  10.568  11.331 -1.3846  2.4716 -0.1957
14403SOL     OW45215   5.937  10.285   0.654  0.2236  0.5673 -0.4926
14403SOL    HW145216   5.923  10.330   0.571  1.7521  0.8505 -0.6246
14403SOL    HW245217   5.945  10.193   0.630 -1.7152  0.3358 -0.3599
14404SOL     OW45218   8.665  10.583   1.245 -0.4675 -0.9186 -0.2500
14404SOL    HW145219   8.659  10.559   1.338  0.4742 -1.1179 -0.2320
14404SOL    HW245220   8.746  10.633   1.239 -0.3424 -1.2140 -1.0338
14405SOL     OW45221   9.351  10.209   5.576  0.2036  0.7503  0.5147
14405SOL    HW145222   9.344  10.278   5.510  0.2320  0.7192  0.4792
14405SOL    HW245223   9.266  10.211   5.621 -0.1008  0.2578 -0.0261
14406SOL     OW45224   3.163   0.336   3.825  0.2490  0.2964 -0.2705
14406SOL    HW145225   3.220   0.337   3.902 -0.7707 -0.5684  0.5262
14406SOL    HW245226   3.074   0.333   3.860 -0.5491  4.3945 -1.4148
14407SOL     OW45227   9.388   2.208  10.372  0.3815 -0.5508  0.1974
14407SOL    HW145228   9.419   2.260  10.446  0.6727 -0.4256 -0.0093
14407SOL    HW245229   9.294   2.197  10.387  0.6470 -1.6227  1.2719
14408SOL     OW45230   9.119   8.119   4.479 -0.1234 -0.8210 -0.9663
14408SOL    HW145231   9.071   8.077   4.407  0.6437 -0.4344 -1.7198
14408SOL    HW245232   9.068   8.198   4.498  0.3213 -0.3010 -1.9076
14409SOL     OW45233   2.974   5.015   2.779  0.3111  0.0636 -0.0161
14409SOL    HW145234   2.978   5.109   2.761 -0.2439 -0.2027 -1.7032
14409SOL    HW245235   2.917   4.979   2.710 -0.4782 -1.3478  1.3045
14410SOL     OW45236   2.283   2.724   5.046 -0.0483 -0.3076 -0.0611
14410SOL    HW145237   2.291   2.697   4.955 -1.4928 -1.1722  0.0302
14410SOL    HW245238   2.373   2.725   5.079  0.8956  3.0983 -2.2690
14411SOL     OW45239   7.985   9.480   2.342  0.1550 -0.1183 -0.0769
14411SOL    HW145240   7.925   9.498   2.414 -1.2983  2.3452 -1.7985
14411SOL    HW245241   7.944   9.408   2.294 -0.0388 -0.2152  0.2282
14412SOL     OW45242   4.658   8.703   3.510 -0.4567 -0.1208  0.5558
14412SOL    HW145243   4.685   8.795   3.507 -1.3129  0.1225 -0.5354
14412SOL    HW245244   4.735   8.656   3.539  0.4837  0.7704 -0.4029
14413SOL     OW45245   6.682   4.070   0.591 -0.3201 -0.4633  0.6081
14413SOL    HW145246   6.603   4.078   0.538 -0.2232 -1.1628  0.3481
14413SOL    HW245247   6.752   4.055   0.527  0.0792  0.4385  0.8114
14414SOL     OW45248   2.526   3.604   8.188  0.1441  0.4322 -0.0404
14414SOL    HW145249   2.611   3.600   8.143 -0.4364 -1.3013 -1.0816
14414SOL    HW245250   2.481   3.524   8.161 -0.5344 -0.3975  3.1458
14415SOL     OW45251   5.034   2.844  10.092  0.3206  0.7026 -0.1442
14415SOL    HW145252   5.022   2.815  10.002  1.7788 -1.0471  0.1687
14415SOL    HW245253   5.099   2.784  10.128 -0.5638  1.0654  2.2192
14416SOL     OW45254   2.607   0.035   8.842  0.6634 -0.1752 -0.1846
14416SOL    HW145255   2.512   0.026   8.831  0.6125 -0.6406  0.5649
14416SOL    HW245256   2.624   0.001   8.929  1.5652 -0.3661 -0.4271
14417SOL     OW45257   1.484   0.970   8.373  0.1992  0.0421 -0.1253
14417SOL    HW145258   1.465   0.883   8.339  0.2186  0.8746 -2.3960
14417SOL    HW245259   1.567   0.960   8.420  0.4657 -1.0452 -0.8021
14418SOL     OW45260   1.995   8.203   9.610  0.0526 -0.5512  0.5142
14418SOL    HW145261   2.053   8.195   9.686  1.2774 -1.3081 -0.4495
14418SOL    HW245262   2.030   8.278   9.562 -0.0721 -0.7081  0.1796
14419SOL     OW45263   9.966  10.395   0.280 -0.6501 -0.6351 -0.1553
14419SOL    HW145264  10.019  10.335   0.332 -0.5510 -1.0280 -0.7005
14419SOL    HW245265   9.893  10.341   0.250 -0.4845 -0.5232 -0.7665
14420SOL     OW45266   3.305   1.465   9.172  0.1337  0.7728  0.0368
14420SOL    HW145267   3.348   1.547   9.196  0.6269  0.1698  1.2832
14420SOL    HW245268   3.377   1.404   9.157 -0.0920  1.0912 -3.2495
14421SOL     OW45269   1.792   9.650   8.923  0.0274  0.0750 -0.0357
14421SOL    HW145270   1.771   9.600   8.844  2.8031 -0.6165 -0.4488
14421SOL    HW245271   1.846   9.723   8.892 -0.5782  1.0115  1.0287
14422SOL     OW45272  10.402   5.329   7.819  0.4239 -0.0925  0.0887
14422SOL    HW145273  10.327   5.322   7.878 -0.5291 -0.0961 -1.1037
14422SOL    HW245274  10.413   5.423   7.806 -0.9620 -0.1299 -1.6801
14423SOL     OW45275  11.251   7.875   5.425  0.1366 -0.1459  0.2646
14423SOL    HW145276  11.333   7.856   5.380 -0.1470 -0.1065 -0.2768
14423SOL    HW245277  11.272   7.945   5.486  0.6784 -0.6506  0.6705
14424SOL     OW45278   3.871  10.845   1.316 -0.5401 -0.4456  0.4818
14424SOL    HW145279   3.831  10.860   1.231 -0.1789  0.3564  0.4388
14424SOL    HW245280   3.799  10.816   1.372 -0.9578 -0.1033  0.1274
14425SOL     OW45281   6.000   0.637   1.319 -0.0879 -0.1390 -0.2391
14425SOL    HW145282   6.054   0.645   1.398  0.9378 -0.1869 -0.9244
14425SOL    HW245283   5.921   0.591   1.349  0.1219  0.1615  0.8301
14426SOL     OW45284   4.657   8.862   8.300 -0.3795  0.3035 -0.4187
14426SOL    HW145285   4.582   8.854   8.359 -0.6743  1.5471 -0.6022
14426SOL    HW245286   4.695   8.774   8.297  0.4286  0.4147  2.6356
14427SOL     OW45287   4.204   4.782   0.732  0.6014 -0.4079 -0.0360
14427SOL    HW145288   4.188   4.704   0.785 -1.3513  1.0157  1.6235
14427SOL    HW245289   4.248   4.843   0.791  0.8597  0.2490 -0.8807
14428SOL     OW45290   8.457  11.096   6.026  0.4655  0.2680 -0.5364
14428SOL    HW145291   8.457  11.105   5.931 -0.9509 -2.0412 -0.8279
14428SOL    HW245292   8.419  11.010   6.042  0.4071  0.7056  2.1519
14429SOL     OW45293   3.130  10.841  11.078  0.5053 -0.4154 -0.5036
14429SOL    HW145294   3.205  10.798  11.120  0.6320 -1.7363 -1.9887
14429SOL    HW245295   3.124  10.926  11.121  1.1227 -1.3634  1.5879
14430SOL     OW45296   4.726   2.039   8.540 -0.1936  0.3492 -0.0213
14430SOL    HW145297   4.651   2.089   8.573  0.3253  1.4152 -0.4111
14430SOL    HW245298   4.759   1.991   8.616 -1.6202 -0.6188  0.0276
14431SOL     OW45299   5.510  11.042   9.747 -0.1534 -0.1613 -0.3855
14431SOL    HW145300   5.562  11.121   9.761  1.0963 -1.0259  0.0375
14431SOL    HW245301   5.419  11.072   9.749  0.2908  1.2259 -0.0352
14432SOL     OW45302   4.483   0.320   5.898  0.4259 -0.0006 -0.0978
14432SOL    HW145303   4.417   0.259   5.930  0.4741  0.8564  1.7837
14432SOL    HW245304   4.434   0.382   5.843 -0.2827  0.3285  0.8688
14433SOL     OW45305   8.591   9.785   7.425 -0.0034 -0.2574  0.3844
14433SOL    HW145306   8.648   9.783   7.347  1.9205  1.4078  1.6319
14433SOL    HW245307   8.619   9.710   7.477 -1.5655 -1.6066 -0.6490
14434SOL     OW45308   8.580   4.467   6.069  0.1880 -0.2684 -0.0679
14434SOL    HW145309   8.485   4.468   6.072  0.1027  1.4030 -1.8016
14434SOL    HW245310   8.602   4.394   6.011  0.0710 -1.5107  1.3773
14435SOL     OW45311  11.101   8.751   2.707 -0.2620 -0.0942  0.0217
14435SOL    HW145312  11.105   8.759   2.612 -0.7695 -0.1160 -0.0062
14435SOL    HW245313  11.185   8.715   2.732  0.0077  0.2412 -0.3886
14436SOL     OW45314   8.216   2.330   5.571  0.2568 -0.2757 -0.2173
14436SOL    HW145315   8.239   2.405   5.626  2.8519  1.0452 -2.8031
14436SOL    HW245316   8.129   2.349   5.538  0.4112  1.0396  0.0902
14437SOL     OW45317   3.055   0.256   0.730 -0.2640  0.0321  0.3905
14437SOL    HW145318   3.112   0.193   0.774 -0.0893  0.2397  0.4607
14437SOL    HW245319   3.112   0.329   0.708 -0.2581 -0.2416 -0.5510
14438SOL     OW45320   1.123   8.382   0.629  0.2484  0.1135  0.3036
14438SOL    HW145321   1.111   8.466   0.584  1.2876  0.2945  0.3538
14438SOL    HW245322   1.089   8.318   0.566 -0.5304  0.5506  0.2540
14439SOL     OW45323   1.717   8.036   7.346  0.0110  0.6225  0.2606
14439SOL    HW145324   1.765   8.013   7.426  0.6782 -0.3727 -0.4024
14439SOL    HW245325   1.781   8.084   7.293 -0.9534  2.9463  1.0320
14440SOL     OW45326   4.892   8.085   4.068 -0.0272 -0.0971 -0.5115
14440SOL    HW145327   4.980   8.107   4.100  0.3722 -1.3084 -0.7104
14440SOL    HW245328   4.900   8.090   3.973 -0.3188  0.2853 -0.5172
14441SOL     OW45329   5.990   1.157   4.444 -0.6300 -0.3745 -0.9046
14441SOL    HW145330   5.913   1.154   4.388  0.5318  0.7281 -2.6486
14441SOL    HW245331   6.041   1.080   4.419 -0.6630 -0.5364 -0.4901
14442SOL     OW45332  10.599   6.425   7.932  0.2041 -0.5052 -1.0483
14442SOL    HW145333  10.652   6.476   7.993 -0.1998  0.1845 -1.2574
14442SOL    HW245334  10.654   6.416   7.854 -0.2294  0.8330 -1.5398
14443SOL     OW45335   1.931   6.518   0.625 -0.1555 -0.2223 -0.1513
14443SOL    HW145336   1.844   6.559   0.625  0.3610  0.9311  0.6523
14443SOL    HW245337   1.985   6.577   0.678  0.2590 -2.7951  2.5041
14444SOL     OW45338  10.168   2.865   3.174  0.0620  0.2945 -0.2475
14444SOL    HW145339  10.091   2.809   3.181 -1.1308  2.0276  2.2429
14444SOL    HW245340  10.233   2.822   3.229 -0.2426  0.4085  0.2122
14445SOL     OW45341   4.070   7.949  10.561 -0.1732 -0.2235  0.9285
14445SOL    HW145342   4.085   8.023  10.503 -0.0259 -0.8915  0.0873
14445SOL    HW245343   4.092   7.982  10.648  1.6655  0.2204  0.3433
14446SOL     OW45344   3.147   0.731   1.615  0.1246  0.0451  0.3694
14446SOL    HW145345   3.239   0.737   1.639  0.3291  0.0279 -0.3933
14446SOL    HW245346   3.142   0.656   1.556 -0.6854 -1.0836  1.7864
14447SOL     OW45347   2.463  10.026   6.292  0.2119 -0.1055  0.4254
14447SOL    HW145348   2.402  10.046   6.221 -1.3965  0.5456  1.9089
14447SOL    HW245349   2.524  10.100   6.292 -0.4226  0.4330  0.3609
14448SOL     OW45350   5.135   3.293   5.652  0.1800  1.0903 -0.3195
14448SOL    HW145351   5.193   3.349   5.704 -2.3986  1.2019  2.7616
14448SOL    HW245352   5.083   3.354   5.599 -1.7639  1.6820  2.1046
14449SOL     OW45353   1.577   1.202   5.716  0.1012  0.1085 -0.7091
14449SOL    HW145354   1.531   1.286   5.716 -0.0804  0.0122 -1.2745
14449SOL    HW245355   1.662   1.221   5.674  0.4475  0.2142  0.0288
14450SOL     OW45356   3.426   9.592   1.996 -0.4250  0.0776 -0.9419
14450SOL    HW145357   3.355   9.650   2.021 -1.1488 -0.7189 -1.1014
14450SOL    HW245358   3.397   9.504   2.021  1.1195 -0.1204  0.3262
14451SOL     OW45359   9.741   1.944   6.515  0.6356 -0.1396 -0.0287
14451SOL    HW145360   9.693   1.869   6.550 -2.2206  1.3424 -0.4060
14451SOL    HW245361   9.710   1.953   6.425  0.1457  1.9529  0.2721
14452SOL     OW45362   8.617   3.125   5.672 -0.2228  0.7858 -0.6595
14452SOL    HW145363   8.671   3.204   5.677  0.8656 -0.0055  2.2960
14452SOL    HW245364   8.626   3.096   5.581  4.0602  0.9933 -0.5292
14453SOL     OW45365   2.609   0.047   3.874 -0.2048 -0.0190 -0.7089
14453SOL    HW145366   2.693   0.009   3.902 -0.4031  0.0886  0.0494
14453SOL    HW245367   2.610   0.136   3.911 -0.6114  0.0121 -0.7757
14454SOL     OW45368   9.581   3.219  10.179  0.5715 -0.1312  0.0583
14454SOL    HW145369   9.586   3.209  10.275  2.0805 -1.9725 -0.1509
14454SOL    HW245370   9.651   3.280  10.158  0.3202  0.1771  0.1044
14455SOL     OW45371   5.426   9.507   1.976  0.0511 -0.4799  0.6452
14455SOL    HW145372   5.421   9.415   2.001  0.0338 -0.3272  1.2093
14455SOL    HW245373   5.336   9.532   1.956 -0.5450  0.3379  3.8649
14456SOL     OW45374   9.188   8.315   9.620 -0.7455  0.3168  0.1565
14456SOL    HW145375   9.213   8.370   9.694 -0.5881  1.1310 -0.4858
14456SOL    HW245376   9.263   8.258   9.605  0.9121  2.7756 -1.7950
14457SOL     OW45377   3.410   3.079   6.151  0.1262  0.6652  0.1288
14457SOL    HW145378   3.400   3.113   6.240  0.4021 -0.1181  0.4643
14457SOL    HW245379   3.355   3.137   6.098 -0.1343  1.0709  0.8178
14458SOL     OW45380  10.410   4.405   8.656  0.0495 -0.0502  0.3627
14458SOL    HW145381  10.499   4.438   8.648  0.3318 -0.8477  0.0843
14458SOL    HW245382  10.363   4.473   8.705  0.5720  0.7952 -0.2829
14459SOL     OW45383  11.021   6.440   6.936 -0.2814  0.1079 -0.1647
14459SOL    HW145384  11.022   6.514   6.875 -2.9824 -1.4415 -2.3183
14459SOL    HW245385  11.078   6.375   6.896  2.3154  0.9497  1.8652
14460SOL     OW45386   0.284   6.622  10.563  0.2646  0.0905 -0.2016
14460SOL    HW145387   0.246   6.590  10.481  1.2594 -2.1213  0.1175
14460SOL    HW245388   0.211   6.622  10.625 -0.0405 -0.3093 -0.5575
14461SOL     OW45389   1.990   9.796   2.871  0.2728 -0.0994 -0.6038
14461SOL    HW145390   1.906   9.755   2.853  0.2319  0.9267 -3.2067
14461SOL    HW245391   2.008   9.776   2.963 -2.9359 -0.0667  0.1239
14462SOL     OW45392   6.117   8.424   0.288  0.1466  0.1404 -0.3791
14462SOL    HW145393   6.075   8.339   0.292 -2.2212  1.0577 -2.6193
14462SOL    HW245394   6.210   8.405   0.289 -0.1987 -2.1860  2.4302
14463SOL     OW45395   2.153   8.249   4.012  0.4362  0.2824 -0.0212
14463SOL    HW145396   2.083   8.197   3.974  0.7541 -1.1362  1.2239
14463SOL    HW245397   2.232   8.219   3.967  0.3087  1.7017 -1.2488
14464SOL     OW45398   2.001   6.709   6.252  0.6630 -0.3374  0.5090
14464SOL    HW145399   1.927   6.670   6.204  0.8749  0.4703 -0.5219
14464SOL    HW245400   2.002   6.664   6.336 -0.2131 -1.2619  0.0446
14465SOL     OW45401  10.128   7.858   5.143  0.5541 -0.8623  0.4704
14465SOL    HW145402  10.034   7.849   5.157  0.4992  0.1180  0.8312
14465SOL    HW245403  10.146   7.950   5.161  1.2356 -0.5097 -1.6799
14466SOL     OW45404   7.889   9.930   5.813  0.2321  0.0468 -0.3267
14466SOL    HW145405   7.901  10.008   5.760 -0.2118  0.1615 -0.2658
14466SOL    HW245406   7.960   9.872   5.787  0.0282  0.1013 -1.0485
14467SOL     OW45407   0.429   2.511  10.905 -0.1939  0.1261 -0.2037
14467SOL    HW145408   0.523   2.503  10.892 -0.2535 -1.2723  0.0819
14467SOL    HW245409   0.394   2.425  10.882 -1.6546  1.1680 -2.2247
14468SOL     OW45410   5.151   5.591   6.618 -0.0694 -0.1533 -0.1475
14468SOL    HW145411   5.095   5.594   6.541 -0.1732  1.5961 -0.0460
14468SOL    HW245412   5.208   5.668   6.610  1.4441 -1.1686  0.4117
14469SOL     OW45413   2.763   7.655   1.420 -0.2156  0.5438 -0.6235
14469SOL    HW145414   2.677   7.645   1.461 -0.3240 -1.4928 -1.2260
14469SOL    HW245415   2.823   7.607   1.477  0.2832  0.8374 -0.8926
14470SOL     OW45416   6.300   1.541   8.085 -0.3814 -0.2181 -0.4512
14470SOL    HW145417   6.378   1.543   8.030  0.3423  0.2363  0.5516
14470SOL    HW245418   6.314   1.611   8.149 -1.9402  0.3319 -0.6745
14471SOL     OW45419   0.261   6.209   6.670  0.4253  0.7189 -0.9814
14471SOL    HW145420   0.270   6.294   6.625  1.2401  1.1880  0.0447
14471SOL    HW245421   0.311   6.219   6.751 -0.3080 -0.4125 -0.3679
14472SOL     OW45422  10.632   4.080   6.761  0.1379 -0.5201 -0.0989
14472SOL    HW145423  10.589   4.089   6.846 -0.5864 -0.3682 -0.4669
14472SOL    HW245424  10.715   4.126   6.771  0.8416 -1.9501  1.0419
14473SOL     OW45425   5.322   1.478   8.413  0.0434  0.5740  0.7082
14473SOL    HW145426   5.270   1.407   8.375 -1.1722  0.4056  2.5366
14473SOL    HW245427   5.257   1.545   8.436  0.6484  0.5294  2.6977
14474SOL     OW45428   2.517   7.886   4.766 -0.1610  0.2755 -0.0300
14474SOL    HW145429   2.572   7.952   4.809  1.4145 -0.3823 -0.9197
14474SOL    HW245430   2.570   7.857   4.691 -0.9817 -1.6914  0.0998
14475SOL     OW45431   2.387   4.146   6.297  0.4610 -0.0204  0.4665
14475SOL    HW145432   2.294   4.149   6.321  0.4641 -2.0996  0.9673
14475SOL    HW245433   2.421   4.231   6.322 -1.1930  0.5769  0.8202
14476SOL     OW45434   5.770   4.262   4.454 -0.8528  0.3433  0.3917
14476SOL    HW145435   5.811   4.182   4.423 -1.2251  0.6743 -1.0403
14476SOL    HW245436   5.752   4.313   4.375 -2.1460  1.1049  1.1211
14477SOL     OW45437   6.230   6.463  10.731  0.1370  0.1792 -0.3790
14477SOL    HW145438   6.222   6.558  10.731 -0.2879  0.1837 -2.4203
14477SOL    HW245439   6.314   6.446  10.775  0.3081  1.4934 -0.1678
14478SOL     OW45440   0.449   2.544   0.408  0.7009  0.1340  0.0592
14478SOL    HW145441   0.458   2.558   0.314  2.8622  0.6059  0.3024
14478SOL    HW245442   0.530   2.500   0.434  0.2961  0.3308  1.7627
14479SOL     OW45443   9.320   0.815   1.059  0.0299  0.1520 -0.9517
14479SOL    HW145444   9.376   0.741   1.083 -0.8094 -0.9148 -2.1000
14479SOL    HW245445   9.242   0.805   1.114  1.5642  2.6464  1.9379
14480SOL     OW45446   6.631   3.441   9.158  0.0110 -0.6128 -0.0059
14480SOL    HW145447   6.572   3.509   9.191 -0.8983 -2.0350  1.4322
14480SOL    HW245448   6.710   3.450   9.211  0.4894  0.2540 -0.8373
14481SOL     OW45449   9.043   1.949   4.607 -0.2895 -0.1472  1.0653
14481SOL    HW145450   9.076   1.979   4.522 -1.9589 -0.5588  0.2241
14481SOL    HW245451   9.078   1.860   4.615  0.7933  0.2934  1.3509
14482SOL     OW45452   8.069   4.984   3.560 -0.1297 -0.2051 -0.5068
14482SOL    HW145453   7.975   4.986   3.545 -0.2762 -1.6003  0.1347
14482SOL    HW245454   8.084   4.906   3.613  1.3800  0.0461 -0.5147
14483SOL     OW45455   3.989   8.299   9.739  0.0308 -0.3897  0.8600
14483SOL    HW145456   4.013   8.368   9.801 -0.4064  0.0906  0.5007
14483SOL    HW245457   3.977   8.221   9.794  0.6312 -0.2116  1.2543
14484SOL     OW45458   0.973   1.459   0.710 -0.5897  0.0316  0.1685
14484SOL    HW145459   1.050   1.468   0.766  0.2698  2.8590 -1.3060
14484SOL    HW245460   1.001   1.403   0.638 -0.0892  0.5690 -0.0574
14485SOL     OW45461   4.596   4.092   9.596  0.0169  0.0392  0.4875
14485SOL    HW145462   4.564   4.090   9.686  0.1219 -0.0746  0.5225
14485SOL    HW245463   4.691   4.099   9.605 -0.0220  0.8816  0.3852
14486SOL     OW45464   0.627   6.671   9.853  0.0257 -0.0738  0.3564
14486SOL    HW145465   0.682   6.611   9.903  1.5342  1.8265  1.1252
14486SOL    HW245466   0.563   6.703   9.916  0.1738  0.2337  0.3538
14487SOL     OW45467   8.082   1.068   0.438 -0.9195  0.0160 -0.4936
14487SOL    HW145468   8.057   1.010   0.510  2.0855  1.0838  1.6338
14487SOL    HW245469   8.106   1.010   0.366 -1.6094 -1.1857  0.2199
14488SOL     OW45470   1.847   2.836   9.970 -0.3186 -0.8271  0.3781
14488SOL    HW145471   1.861   2.776   9.897 -1.9927 -1.8088  0.8011
14488SOL    HW245472   1.856   2.923   9.931 -1.2303 -1.3291 -1.0517
14489SOL     OW45473   4.628   9.243   4.923  0.3413 -0.1293 -0.5126
14489SOL    HW145474   4.548   9.269   4.878  1.0953  1.0629 -1.2178
14489SOL    HW245475   4.650   9.157   4.888 -0.8087 -0.6368 -0.0406
14490SOL     OW45476   6.400   4.202   8.301 -0.0353 -0.1125 -0.4432
14490SOL    HW145477   6.488   4.206   8.263  0.9340  2.0822  1.7608
14490SOL    HW245478   6.355   4.278   8.265 -0.0510  0.3678  0.5582
14491SOL     OW45479   8.853   2.758   5.477  0.6501 -0.3141 -0.2362
14491SOL    HW145480   8.850   2.684   5.537 -2.9064 -3.6040 -3.8519
14491SOL    HW245481   8.925   2.737   5.417 -0.2156 -0.9018 -1.1242
14492SOL     OW45482   5.512   8.087   4.931 -0.2886 -0.3667 -0.4120
14492SOL    HW145483   5.520   8.009   4.875 -0.6694 -0.6143 -0.1229
14492SOL    HW245484   5.501   8.159   4.870  2.2849 -0.2178 -0.7989
14493SOL     OW45485  11.231   9.647   3.551 -0.3601 -1.2044  0.7690
14493SOL    HW145486  11.193   9.697   3.479  1.5543  0.4858  0.8473
14493SOL    HW245487  11.166   9.578   3.569 -1.4810 -0.9004 -1.6722
14494SOL     OW45488   0.046   5.057   2.411  0.1956 -0.2305  0.5008
14494SOL    HW145489   0.014   5.011   2.333  1.6452  0.7841 -0.7395
14494SOL    HW245490   0.091   4.990   2.462  1.1697 -0.4950 -0.6570
14495SOL     OW45491   7.754   6.861   5.415 -0.2003 -0.0631 -0.5819
14495SOL    HW145492   7.757   6.790   5.479  0.3661  0.6082  0.1611
14495SOL    HW245493   7.846   6.883   5.399 -0.3867  1.3865  0.2145
14496SOL     OW45494   9.370   4.085  10.067 -0.4179 -0.3573  0.3722
14496SOL    HW145495   9.331   4.143  10.132  0.0371  0.7933 -0.3470
14496SOL    HW245496   9.297   4.056  10.013 -0.4449  1.0934 -0.4347
14497SOL     OW45497   1.080   3.230   9.380 -0.5776 -0.3954 -0.2612
14497SOL    HW145498   1.070   3.157   9.319 -0.8716  0.0199 -0.7174
14497SOL    HW245499   1.172   3.255   9.371 -1.1147  1.1153 -2.2394
14498SOL     OW45500   6.962   3.117   1.441 -0.6983 -0.0393 -0.1708
14498SOL    HW145501   6.945   3.026   1.467 -1.9705  0.3018  0.2669
14498SOL    HW245502   7.007   3.155   1.517  1.4048 -0.7131 -0.9981
14499SOL     OW45503   5.972   8.117   3.026  0.3033  0.2640 -0.5230
14499SOL    HW145504   6.061   8.087   3.048  1.2522  3.8404  1.4685
14499SOL    HW245505   5.938   8.153   3.108 -2.5371  0.1341 -1.5336
14500SOL     OW45506  10.164   9.771   9.206 -0.6596 -0.2492 -0.3198
14500SOL    HW145507  10.222   9.707   9.247 -0.5647  0.0269 -0.0221
14500SOL    HW245508  10.095   9.786   9.270  0.6716  1.8638  0.7234
14501SOL     OW45509  10.714   3.392   3.420 -0.4515  0.0827 -0.2075
14501SOL    HW145510  10.632   3.346   3.401 -0.0433 -0.8528  0.2286
14501SOL    HW245511  10.782   3.330   3.394  0.1142  0.7224 -0.2471
14502SOL     OW45512   5.807  11.017   4.410  0.2581 -0.2145  0.0786
14502SOL    HW145513   5.714  11.003   4.429 -0.0042  1.8411  0.5971
14502SOL    HW245514   5.812  11.015   4.314 -0.0913 -1.4356  0.0636
14503SOL     OW45515   7.038   8.004  10.949  0.3459 -0.4191  0.3733
14503SOL    HW145516   6.996   8.069  10.893  1.3692  3.1905  3.4111
14503SOL    HW245517   6.968   7.944  10.974 -1.1792  0.7948 -0.7937
14504SOL     OW45518   3.547  10.043   0.164  0.3273  0.7584 -0.1208
14504SOL    HW145519   3.577  10.114   0.221  1.8578  2.2497 -2.5991
14504SOL    HW245520   3.525  10.086   0.082 -3.3850 -1.0708 -0.2897
14505SOL     OW45521   7.906   7.216   1.508  0.4050 -0.5038 -0.3330
14505SOL    HW145522   7.931   7.131   1.546 -2.5174 -0.9518  0.8912
14505SOL    HW245523   7.827   7.197   1.457  0.5120  1.2712 -1.2340
14506SOL     OW45524   7.679   5.101   5.463 -0.0190 -0.4784  0.2712
14506SOL    HW145525   7.647   5.115   5.552 -0.1441 -1.6443  0.4319
14506SOL    HW245526   7.602   5.112   5.407 -0.0166 -0.1056  0.3389
14507SOL     OW45527   9.387   0.759   1.756  0.2976 -0.0709  0.6182
14507SOL    HW145528   9.386   0.699   1.830  1.1770 -0.0815  0.6276
14507SOL    HW245529   9.336   0.715   1.688 -1.9634  0.6593  1.7502
14508SOL     OW45530   4.926   9.519   8.663 -0.9202  0.2483 -0.0340
14508SOL    HW145531   4.985   9.444   8.655 -1.7544 -0.2546 -2.0713
14508SOL    HW245532   4.901   9.520   8.755 -0.1230 -1.3816  0.2436
14509SOL     OW45533   2.885   5.207   5.785  0.4981 -0.1093 -0.2352
14509SOL    HW145534   2.896   5.284   5.842  1.7900  1.4225 -2.3956
14509SOL    HW245535   2.809   5.161   5.821  1.1232  0.8362  2.5836
14510SOL     OW45536   1.221   0.696   3.543 -0.0784  0.2618 -0.3496
14510SOL    HW145537   1.274   0.772   3.521  0.6158 -0.2497 -0.4699
14510SOL    HW245538   1.228   0.639   3.467 -0.1245 -0.1810 -0.0279
14511SOL     OW45539   4.868   1.639   1.207  0.4629 -0.2689 -0.4436
14511SOL    HW145540   4.881   1.611   1.116 -3.6045 -1.7883 -0.7719
14511SOL    HW245541   4.880   1.559   1.258  0.8401  0.1648  0.1591
14512SOL     OW45542  10.643   0.786   9.964 -0.0024 -0.2500 -0.1518
14512SOL    HW145543  10.709   0.722   9.991 -1.0107 -1.3872 -0.2860
14512SOL    HW245544  10.576   0.782  10.032  0.4511  1.5321  0.4443
14513SOL     OW45545   2.955   9.353   5.964  0.4412 -0.4085  0.2766
14513SOL    HW145546   2.893   9.305   5.908 -0.5353  0.3643  0.6674
14513SOL    HW245547   3.031   9.296   5.969  0.4131 -0.6702 -1.5485
14514SOL     OW45548   5.198   8.709   6.031  0.0153 -0.1962 -0.0336
14514SOL    HW145549   5.122   8.699   5.974 -0.9145  4.2626  0.0205
14514SOL    HW245550   5.271   8.671   5.982 -1.0249  1.9054 -3.5754
14515SOL     OW45551   9.229   5.022   9.137 -0.3817 -0.0757  0.3143
14515SOL    HW145552   9.152   5.076   9.118 -0.3180 -0.2419 -0.4590
14515SOL    HW245553   9.302   5.083   9.138 -0.2254 -0.2108 -1.1581
14516SOL     OW45554   1.390   5.251   0.344 -0.0694  0.3193 -0.4327
14516SOL    HW145555   1.398   5.158   0.366 -0.3760  0.2187 -0.7394
14516SOL    HW245556   1.463   5.293   0.389  1.4601 -0.3941 -2.1546
14517SOL     OW45557   4.095   9.277   8.924  0.0043 -0.2795  0.0294
14517SOL    HW145558   4.160   9.242   8.984  0.3991  0.2122 -0.1010
14517SOL    HW245559   4.012   9.269   8.971  0.2532 -0.2729  0.4765
14518SOL     OW45560   3.957  11.069   6.509 -0.6812 -0.8880  0.3069
14518SOL    HW145561   4.019  11.072   6.581  1.6338 -1.5870 -1.5295
14518SOL    HW245562   3.891  11.135   6.530  1.2273  0.6061  1.8666
14519SOL     OW45563   5.482   0.964   9.072 -0.0920  0.3460  0.7495
14519SOL    HW145564   5.512   1.050   9.099 -1.8783  0.9801  0.8667
14519SOL    HW245565   5.391   0.978   9.045 -0.1538 -1.3476 -0.0378
14520SOL     OW45566   1.196  10.588   5.323 -0.4711 -0.7448 -0.6717
14520SOL    HW145567   1.245  10.585   5.406 -0.2764  1.9682 -0.6019
14520SOL    HW245568   1.144  10.508   5.324  0.5091 -1.4524  1.4469
14521SOL     OW45569   4.789   2.595   1.114  0.3152 -0.3165 -0.2829
14521SOL    HW145570   4.875   2.556   1.129  0.6323  0.8586  1.2597
14521SOL    HW245571   4.803   2.656   1.042  1.0108  0.4396  0.4566
14522SOL     OW45572   4.055   6.637   6.011 -0.1526  0.1959 -0.0377
14522SOL    HW145573   4.038   6.547   5.985 -0.7646 -0.0122  1.0262
14522SOL    HW245574   4.107   6.631   6.091 -0.5825  0.7628  0.3021
14523SOL     OW45575   4.185   9.689   7.783 -0.7633  0.5905 -0.1059
14523SOL    HW145576   4.268   9.737   7.783 -0.3802  0.0148 -1.7852
14523SOL    HW245577   4.119   9.754   7.806  0.2447  0.8092  2.3900
14524SOL     OW45578   2.882   0.560   1.765 -0.0085  0.1043  0.1245
14524SOL    HW145579   2.809   0.586   1.821 -1.7707  1.0638 -2.4209
14524SOL    HW245580   2.861   0.599   1.680  1.5399 -2.7782 -1.7207
14525SOL     OW45581   2.905   6.585   5.354  0.6818  0.7332  0.6172
14525SOL    HW145582   2.914   6.490   5.351  0.2274  0.6844  0.7087
14525SOL    HW245583   2.962   6.617   5.284  0.8847  0.3989  0.6274
14526SOL     OW45584   5.001   3.159   9.842 -0.6227  0.6673  1.1033
14526SOL    HW145585   5.074   3.142   9.782 -2.4208 -3.3207 -0.2689
14526SOL    HW245586   4.955   3.234   9.803  0.8699  1.1879  0.2369
14527SOL     OW45587   1.504  10.365  11.203  0.5525  0.2521  0.5286
14527SOL    HW145588   1.526  10.278  11.169 -3.9081 -1.0989  0.4982
14527SOL    HW245589   1.532  10.362  11.295 -1.6697 -2.3043  1.2620
14528SOL     OW45590   7.390   5.036   5.021 -0.8697  0.0231 -0.2923
14528SOL    HW145591   7.462   5.095   4.996 -0.3775  0.4170  1.8085
14528SOL    HW245592   7.311   5.080   4.991 -0.3525  0.5593 -0.9054
14529SOL     OW45593  10.340   9.560   8.658  0.1041 -0.3837 -0.0805
14529SOL    HW145594  10.385   9.626   8.710  1.0956 -2.0885  1.3388
14529SOL    HW245595  10.247   9.576   8.675  0.3008  0.8977 -0.1221
14530SOL     OW45596   2.456   4.829   1.295 -0.1366 -0.4563  0.4047
14530SOL    HW145597   2.523   4.878   1.343 -0.0803 -0.9142  0.8074
14530SOL    HW245598   2.463   4.740   1.331 -1.8761 -0.2195  1.4177
14531SOL     OW45599   1.402   2.305  10.533 -0.1912 -0.3937  0.0778
14531SOL    HW145600   1.468   2.341  10.474 -0.4848  0.2861  0.1518
14531SOL    HW245601   1.426   2.213  10.543  0.1387 -0.4078 -0.7239
14532SOL     OW45602   0.730   8.241   8.317 -0.6228 -0.5842  0.0494
14532SOL    HW145603   0.703   8.294   8.392 -0.0165 -0.2061  0.0077
14532SOL    HW245604   0.824   8.260   8.307 -0.5765 -1.0639 -0.4534
14533SOL     OW45605   3.715   5.870   7.423 -0.3192 -0.1650 -0.6808
14533SOL    HW145606   3.769   5.890   7.346  0.2187 -1.0786 -0.5604
14533SOL    HW245607   3.775   5.824   7.483 -0.1402  2.3066  1.1882
14534SOL     OW45608   5.895   0.697   4.044  0.0439 -0.1570 -0.0997
14534SOL    HW145609   5.957   0.680   3.974 -1.4152  0.3830 -1.5896
14534SOL    HW245610   5.948   0.732   4.116  1.4878 -0.1253 -1.1489
14535SOL     OW45611   8.425   4.029   6.040  0.0441  0.5867  0.3000
14535SOL    HW145612   8.367   4.033   6.116 -1.0803 -0.0370 -0.4909
14535SOL    HW245613   8.471   4.113   6.040  1.1715  0.0334  2.4765
14536SOL     OW45614   6.708   8.403   1.579  0.1429  0.0133 -0.3210
14536SOL    HW145615   6.722   8.321   1.533  1.1794 -1.1540  1.9169
14536SOL    HW245616   6.681   8.377   1.667  1.2744  2.0377  0.6864
14537SOL     OW45617   1.295   9.184   7.178  0.2179  0.0210 -0.0463
14537SOL    HW145618   1.209   9.156   7.206 -0.8395 -0.1664 -3.0900
14537SOL    HW245619   1.347   9.103   7.176  0.8015  0.2561  2.5908
14538SOL     OW45620   7.549   1.223   1.423 -0.2632 -0.2123 -0.3515
14538SOL    HW145621   7.593   1.171   1.356 -1.9023 -1.3194 -0.6380
14538SOL    HW245622   7.456   1.220   1.399 -1.1776 -2.0201  2.7907
14539SOL     OW45623   4.599   0.877   3.210 -0.1101 -0.5756  0.4771
14539SOL    HW145624   4.511   0.913   3.227  0.3365 -0.6064  3.3613
14539SOL    HW245625   4.658   0.940   3.250  1.0338 -1.7263  0.6565
14540SOL     OW45626  10.888   2.550   2.454 -0.1867 -0.0967  0.0024
14540SOL    HW145627  10.848   2.592   2.530 -0.8250 -0.9559  0.1534
14540SOL    HW245628  10.835   2.472   2.439  1.7220 -1.5840  0.5454
14541SOL     OW45629   0.282   8.341   2.624 -0.2609 -0.4233 -0.6894
14541SOL    HW145630   0.268   8.267   2.683  0.0961 -0.3910 -0.5644
14541SOL    HW245631   0.256   8.308   2.538  1.5295 -1.2594 -0.9447
14542SOL     OW45632   5.765  10.880   7.674 -0.5303  0.3561  0.1280
14542SOL    HW145633   5.810  10.852   7.753  1.7098 -0.4805 -1.3324
14542SOL    HW245634   5.836  10.907   7.615 -1.8736 -1.3346 -2.4462
14543SOL     OW45635   1.665   7.800  10.817 -0.1770 -0.3877  0.2391
14543SOL    HW145636   1.682   7.887  10.851  0.0690 -0.8347  1.2866
14543SOL    HW245637   1.683   7.741  10.890  2.4642 -1.5674 -1.2152
14544SOL     OW45638   0.770   1.396  11.157 -0.7298 -0.4715 -0.2796
14544SOL    HW145639   0.808   1.315  11.121  0.1114 -0.2900  0.1743
14544SOL    HW245640   0.767   1.382  11.251 -1.0579 -0.1648 -0.2413
14545SOL     OW45641   6.748   0.088   6.418  0.3155  0.2923 -0.4039
14545SOL    HW145642   6.692   0.162   6.441 -0.6330 -0.1237 -1.2992
14545SOL    HW245643   6.829   0.104   6.467 -0.4251  1.1059  0.6316
14546SOL     OW45644   0.308   4.048   4.345 -1.1417 -0.2609  0.3393
14546SOL    HW145645   0.251   4.077   4.416 -1.0667 -0.1822  0.3685
14546SOL    HW245646   0.362   3.980   4.384 -1.2219 -0.3405  0.3102
14547SOL     OW45647   3.224   7.005   1.904 -0.1094  0.2320  0.2594
14547SOL    HW145648   3.266   7.088   1.927 -0.0846  0.4082 -0.4046
14547SOL    HW245649   3.291   6.957   1.856  0.7644 -1.2466  2.7554
14548SOL     OW45650   9.941   3.608   8.278  0.1223  0.5323  0.4948
14548SOL    HW145651  10.007   3.678   8.282 -0.0428  0.6676  0.9591
14548SOL    HW245652   9.992   3.528   8.268  0.3857  0.6014  1.2224
14549SOL     OW45653   5.056   1.942   2.447  0.1014 -0.2565 -0.2793
14549SOL    HW145654   5.110   2.003   2.498 -0.2694 -0.0349 -0.1533
14549SOL    HW245655   5.109   1.923   2.369  0.7520 -0.7496  0.2738
14550SOL     OW45656   9.803   8.254   7.913 -0.6563  0.0617  0.2867
14550SOL    HW145657   9.870   8.226   7.851  0.5473 -2.6827  2.5806
14550SOL    HW245658   9.846   8.320   7.967 -0.2634 -0.5473  0.7445
14551SOL     OW45659   3.712   0.923  10.902  0.5292  0.1558  0.0607
14551SOL    HW145660   3.620   0.926  10.930  0.3853 -0.9464 -0.2088
14551SOL    HW245661   3.762   0.923  10.983  0.3893  2.2359  0.2000
14552SOL     OW45662   8.801   8.495   6.591 -0.3210 -0.0074  0.3068
14552SOL    HW145663   8.870   8.436   6.561  0.1518 -0.4431  2.1057
14552SOL    HW245664   8.758   8.448   6.662 -2.2543  0.4224 -0.5103
14553SOL     OW45665  10.981   3.331   9.333  0.1877 -0.0316 -0.2634
14553SOL    HW145666  10.920   3.350   9.405  1.7935  1.7916  0.7236
14553SOL    HW245667  11.065   3.315   9.377  1.4572  2.1377 -1.6853
14554SOL     OW45668   7.924   4.286   5.033  1.1897  0.2331  0.4115
14554SOL    HW145669   7.965   4.233   4.965 -0.2672 -1.0701  0.4828
14554SOL    HW245670   7.830   4.270   5.023  0.4195  4.1378 -0.6654
14555SOL     OW45671   1.567   4.285   6.124  0.0812  0.0617 -0.0681
14555SOL    HW145672   1.490   4.236   6.096  1.3250 -0.3064 -3.1841
14555SOL    HW245673   1.559   4.370   6.080  0.9161  0.4394  0.4669
14556SOL     OW45674   1.685   0.500   4.334 -0.2527  0.4694  0.2215
14556SOL    HW145675   1.599   0.542   4.330 -0.9407 -0.9268 -0.6247
14556SOL    HW245676   1.726   0.523   4.250 -0.8037 -0.8202 -0.4331
14557SOL     OW45677   0.920   2.633   9.466  0.2294  0.1126  0.0735
14557SOL    HW145678   0.846   2.672   9.512  0.0765  0.3570 -0.3784
14557SOL    HW245679   0.894   2.541   9.453  0.9842 -0.4216  1.9735
14558SOL     OW45680   9.286   8.461   6.443  0.0260  0.0464 -0.2064
14558SOL    HW145681   9.375   8.496   6.441 -0.0738  0.3293  0.1171
14558SOL    HW245682   9.260   8.455   6.351  1.0120 -1.7017 -0.4089
14559SOL     OW45683   2.266   0.103  10.741 -0.1945 -0.2653  0.0398
14559SOL    HW145684   2.225   0.142  10.818  1.9444  0.3070  0.9773
14559SOL    HW245685   2.210   0.127  10.668 -1.5533  0.3398  1.2463
14560SOL     OW45686   0.890   3.727   3.954 -0.0735 -0.3112 -0.2200
14560SOL    HW145687   0.800   3.695   3.959 -0.7870  0.7592 -3.4216
14560SOL    HW245688   0.889   3.786   3.878  3.0537  0.7473  0.4412
14561SOL     OW45689   6.767   0.927   8.535 -0.0758 -0.3020 -0.5511
14561SOL    HW145690   6.857   0.909   8.509 -0.2057 -0.2540 -1.0350
14561SOL    HW245691   6.725   0.841   8.539  0.0870 -0.3615  0.0520
14562SOL     OW45692   9.453   1.859   5.883  0.0397 -0.2950  0.7288
14562SOL    HW145693   9.519   1.926   5.870  2.9272 -2.2654  3.6928
14562SOL    HW245694   9.480   1.787   5.826 -3.7991  1.1402 -3.5165
14563SOL     OW45695   4.591   9.675   7.043 -0.0052  0.4988  0.0539
14563SOL    HW145696   4.542   9.604   7.085  1.4636 -1.4018 -1.2823
14563SOL    HW245697   4.610   9.642   6.956  2.1230  1.8872 -0.0604
14564SOL     OW45698   8.460   6.601   0.006 -0.2581 -0.4278  0.0010
14564SOL    HW145699   8.520   6.588  -0.068 -0.4463 -1.9219  0.0718
14564SOL    HW245700   8.405   6.675  -0.020  1.7841  1.2133  0.0782
14565SOL     OW45701  10.336   6.956   3.613  0.0526  0.3042 -0.4904
14565SOL    HW145702  10.248   6.993   3.624 -0.7816 -1.4187 -1.0770
14565SOL    HW245703  10.387   6.997   3.683 -1.4840  0.5238  0.5610
14566SOL     OW45704  10.339   6.284   8.593 -0.2358  0.0127 -0.4354
14566SOL    HW145705  10.291   6.266   8.512 -0.3796 -0.0632 -0.3353
14566SOL    HW245706  10.430   6.265   8.572 -0.5675 -2.5224  0.1465
14567SOL     OW45707   3.445   5.583   6.943 -0.2136  0.3769  0.1695
14567SOL    HW145708   3.485   5.648   7.000 -2.5515  1.9810  0.1477
14567SOL    HW245709   3.418   5.632   6.865 -0.8261 -0.8849 -0.4519
14568SOL     OW45710   0.433   6.298   1.211  0.0162  0.8241  0.5287
14568SOL    HW145711   0.389   6.290   1.296 -1.5996  0.6356 -0.2853
14568SOL    HW245712   0.457   6.209   1.188  1.5226  1.0082  1.3020
14569SOL     OW45713   4.316   0.590   6.931  0.8421  0.6649 -0.4634
14569SOL    HW145714   4.389   0.584   6.993 -0.1550 -0.7651  0.6576
14569SOL    HW245715   4.241   0.614   6.984 -0.7219 -3.5491 -0.3280
14570SOL     OW45716   0.537   4.327   4.922 -0.4870 -0.1462 -0.9530
14570SOL    HW145717   0.479   4.335   4.846 -0.1691  0.9317 -1.0956
14570SOL    HW245718   0.612   4.277   4.890 -0.9884 -0.8966 -0.9704
14571SOL     OW45719   3.809  11.146   7.619 -0.6368  0.0751 -0.2345
14571SOL    HW145720   3.798  11.240   7.609 -2.1111  0.0785  1.0604
14571SOL    HW245721   3.871  11.136   7.691 -0.9319  0.0660  0.0209
14572SOL     OW45722   0.459   2.795  10.752 -0.1398  0.6899 -0.7644
14572SOL    HW145723   0.368   2.772  10.766 -0.0249  0.6934  0.0535
14572SOL    HW245724   0.498   2.717  10.711  0.0197 -0.2614  1.0697
14573SOL     OW45725  10.235   9.960   3.469 -0.2006  0.7380 -0.2305
14573SOL    HW145726  10.229  10.006   3.386  1.3951  0.2630 -0.6368
14573SOL    HW245727  10.188   9.878   3.455 -2.9068  2.0352  0.4450
14574SOL     OW45728   3.810   5.315   1.801 -0.1560 -0.1889 -0.5619
14574SOL    HW145729   3.747   5.384   1.780 -0.2423 -0.7562 -2.2534
14574SOL    HW245730   3.791   5.293   1.893 -1.6057  0.4896 -0.6733
14575SOL     OW45731   7.455   1.350   6.949  0.1529 -0.1970 -0.2000
14575SOL    HW145732   7.507   1.339   7.029 -1.4395 -0.7726  0.7988
14575SOL    HW245733   7.519   1.342   6.878  1.3752 -1.3176  0.9572
14576SOL     OW45734   8.711  11.210  10.498 -0.0474 -0.3060 -0.0859
14576SOL    HW145735   8.762  11.249  10.426 -1.6020  0.4948 -0.8187
14576SOL    HW245736   8.638  11.167  10.454 -1.3785  0.7392  1.0202
14577SOL     OW45737  10.732   0.849   4.629 -0.4069  0.8597  0.1003
14577SOL    HW145738  10.670   0.851   4.557  0.7560  1.3480 -0.9372
14577SOL    HW245739  10.816   0.827   4.588 -0.3244 -2.7186  1.8142
14578SOL     OW45740   4.586   8.281   5.863  0.2661 -0.0303  0.1249
14578SOL    HW145741   4.618   8.246   5.779 -1.7538 -0.7886 -0.3793
14578SOL    HW245742   4.535   8.359   5.839 -3.3246 -2.1693  0.1280
14579SOL     OW45743   3.623   3.048   5.400 -0.0747  0.8807 -0.0422
14579SOL    HW145744   3.706   3.000   5.407  0.0233  1.2779  1.9911
14579SOL    HW245745   3.613   3.063   5.306  0.6818 -1.6908 -0.6286
14580SOL     OW45746   0.050   1.803  10.484 -0.1192  0.2562  0.1761
14580SOL    HW145747  -0.044   1.788  10.495 -0.5199  0.8542 -2.0485
14580SOL    HW245748   0.087   1.784  10.570 -2.3129  0.4026  1.2213
14581SOL     OW45749   9.695   0.027   7.194  0.2405 -0.1414 -0.4047
14581SOL    HW145750   9.747   0.071   7.262 -0.4749 -0.1700  0.1719
14581SOL    HW245751   9.606   0.030   7.227 -0.0670 -0.4699 -1.1932
14582SOL     OW45752   6.087   3.613   3.948 -0.3053  0.3571  0.0049
14582SOL    HW145753   6.007   3.628   3.897 -0.9897 -1.3857  0.5042
14582SOL    HW245754   6.070   3.655   4.032 -0.6164  0.1834  0.0308
14583SOL     OW45755   9.662   3.598   8.170 -0.4825 -0.0697 -1.0417
14583SOL    HW145756   9.756   3.578   8.169 -1.0706 -3.3546 -2.7269
14583SOL    HW245757   9.632   3.564   8.255  0.0237  2.7822  0.4238
14584SOL     OW45758   5.845   2.331   4.177  0.7329  0.3419 -0.1343
14584SOL    HW145759   5.864   2.378   4.258  0.0871 -0.8989  0.7692
14584SOL    HW245760   5.795   2.393   4.124  0.5253  0.9210  0.7217
14585SOL     OW45761   2.940   5.213  10.515  0.1390  0.9218 -0.4445
14585SOL    HW145762   2.854   5.181  10.540  0.6852  1.4001  2.3488
14585SOL    HW245763   2.932   5.234  10.422 -1.6721 -2.4583 -1.2084
14586SOL     OW45764  10.834   2.636   9.669  0.1594 -0.4006  0.1227
14586SOL    HW145765  10.786   2.622   9.587 -2.9291 -0.2078  1.7606
14586SOL    HW245766  10.812   2.560   9.722  1.3810 -0.0757  1.1246
14587SOL     OW45767   8.909   5.920   3.099  0.6021 -0.5018  0.0365
14587SOL    HW145768   8.958   5.991   3.057 -0.5470 -1.1864 -2.6544
14587SOL    HW245769   8.925   5.844   3.044  0.7962 -2.1022  2.1516
14588SOL     OW45770   8.374   9.751  11.169 -0.3198  0.3215  0.1613
14588SOL    HW145771   8.421   9.803  11.105 -2.2175  0.0289 -1.5907
14588SOL    HW245772   8.326   9.816  11.222  0.2112  0.5068  0.4176
14589SOL     OW45773  10.165  10.637   4.033 -0.3016  0.4446 -0.2275
14589SOL    HW145774  10.141  10.667   3.945 -0.7143  2.7007  0.5710
14589SOL    HW245775  10.195  10.716   4.077  0.4808 -0.7573  1.4922
14590SOL     OW45776   4.389   6.601   3.863  0.2869  0.2170  0.4332
14590SOL    HW145777   4.345   6.598   3.947  0.1100  2.4041  0.4893
14590SOL    HW245778   4.472   6.645   3.880  1.1308 -1.0403 -0.2277
14591SOL     OW45779   3.875   0.111   7.554 -0.1263  0.1368  0.4624
14591SOL    HW145780   3.947   0.155   7.598 -0.5673  0.9338  0.4134
14591SOL    HW245781   3.916   0.049   7.494  0.4978  0.0269  1.0026
14592SOL     OW45782   8.892   9.904  10.319 -0.1372  0.4699  0.3568
14592SOL    HW145783   8.916   9.931  10.230 -1.1574  0.4170  0.0451
14592SOL    HW245784   8.868   9.985  10.363 -2.3992  0.2364 -0.3233
14593SOL     OW45785   8.632   7.059   3.180 -0.3044 -0.3381 -0.0665
14593SOL    HW145786   8.632   7.066   3.084 -0.8546  0.3682 -0.0263
14593SOL    HW245787   8.715   7.098   3.207  0.0385 -0.9148 -0.2727
14594SOL     OW45788   6.228   3.085  11.280 -0.2554  0.0533 -0.3533
14594SOL    HW145789   6.287   3.054  11.349  0.5825 -0.4206 -1.2448
14594SOL    HW245790   6.287   3.106  11.207 -1.3596 -3.4136 -2.4353
14595SOL     OW45791   1.924   2.443   9.894 -0.2049  0.3508 -0.7314
14595SOL    HW145792   1.942   2.349   9.904  0.7702  0.6462  0.5937
14595SOL    HW245793   1.835   2.447   9.860  0.0642 -1.0687 -1.7046
14596SOL     OW45794   9.209   8.031   3.866 -0.0023 -0.0705 -0.4823
14596SOL    HW145795   9.217   7.974   3.790  2.3652 -1.1850  0.5081
14596SOL    HW245796   9.127   8.005   3.907  0.1658 -1.5631 -1.0327
14597SOL     OW45797   7.301  10.909   9.750  0.8455 -0.1639 -0.3990
14597SOL    HW145798   7.216  10.869   9.733  0.1135  1.3824 -0.5058
14597SOL    HW245799   7.338  10.925   9.664  0.6274  0.4202 -0.3886
14598SOL     OW45800   5.833   6.173   9.664 -0.4393 -0.2713 -0.0818
14598SOL    HW145801   5.742   6.202   9.671  0.3889  2.1223  3.1826
14598SOL    HW245802   5.879   6.246   9.623  0.3362 -0.6045  0.1668
14599SOL     OW45803   2.512   7.339   3.023 -0.5629  0.3564 -0.1195
14599SOL    HW145804   2.603   7.338   3.054 -0.7356  0.7011  0.4098
14599SOL    HW245805   2.480   7.427   3.045 -0.7067  0.6019 -1.2508
14600SOL     OW45806   8.100   1.337   8.852 -0.4197  0.1763  0.1141
14600SOL    HW145807   8.147   1.312   8.772 -1.1453 -2.6809  0.4775
14600SOL    HW245808   8.016   1.290   8.846 -0.3382 -0.4686  2.6997
14601SOL     OW45809   7.944   3.001   6.211  0.0671  0.0998  0.2222
14601SOL    HW145810   7.945   2.910   6.240 -0.7285 -0.0189 -0.1057
14601SOL    HW245811   8.010   3.044   6.266 -0.7853 -0.3082  1.5999
14602SOL     OW45812   3.976   1.358   4.537 -0.1022 -0.8403  0.2494
14602SOL    HW145813   3.990   1.273   4.495  3.8612 -0.4462  0.3621
14602SOL    HW245814   3.943   1.336   4.624 -1.8004 -2.0447 -0.6503
14603SOL     OW45815   7.712   4.096   4.366  0.5080  0.3053  0.4407
14603SOL    HW145816   7.737   4.129   4.280 -0.2093 -0.5037 -0.0984
14603SOL    HW245817   7.726   4.001   4.360  1.7667  0.3758  1.6850
14604SOL     OW45818   9.669   6.442   0.151 -0.1563 -0.2271 -0.0504
14604SOL    HW145819   9.685   6.535   0.165 -1.9212  0.3501 -1.4661
14604SOL    HW245820   9.713   6.398   0.224  1.6136  1.6197  0.0609
14605SOL     OW45821   7.161   2.244  10.487 -0.3930 -0.0773  0.1954
14605SOL    HW145822   7.195   2.180  10.549 -0.4214  0.9185  1.2849
14605SOL    HW245823   7.066   2.246  10.503 -0.4250  0.0583  0.0017
14606SOL     OW45824  10.167   2.949   5.394  0.1336  0.3155 -0.1095
14606SOL    HW145825  10.147   2.898   5.316  1.1278  1.4546 -1.1471
14606SOL    HW245826  10.128   3.035   5.378  3.4466  1.8029 -1.1214
14607SOL     OW45827   0.962   1.692   2.143  0.4514  0.2220 -0.5166
14607SOL    HW145828   0.879   1.698   2.096  0.6254  0.4544 -0.7948
14607SOL    HW245829   1.028   1.726   2.082  0.7208  0.2547 -0.2143
14608SOL     OW45830   0.469   5.513   9.826 -0.3679 -0.2106 -0.7354
14608SOL    HW145831   0.424   5.548   9.749  0.6872  3.5818  0.1403
14608SOL    HW245832   0.561   5.533   9.811 -0.1057  0.3859  1.3131
14609SOL     OW45833  10.372   2.195   6.655  0.3685  0.7927  0.3666
14609SOL    HW145834  10.303   2.142   6.696 -2.0769  2.1627 -1.7155
14609SOL    HW245835  10.348   2.285   6.677  1.5077  1.3038 -0.4307
14610SOL     OW45836   6.785   0.246   9.840 -0.0020  0.6113  1.1106
14610SOL    HW145837   6.871   0.283   9.821  0.1646 -0.4794 -0.4589
14610SOL    HW245838   6.723   0.318   9.824  0.4061  0.6179 -0.7068
14611SOL     OW45839   5.826   5.153   2.266 -0.5390  0.2578  0.0882
14611SOL    HW145840   5.847   5.231   2.214 -1.2159  0.6518  0.3842
14611SOL    HW245841   5.881   5.161   2.343 -0.5991  0.4454  0.1140
14612SOL     OW45842   2.269   6.027   1.691 -0.4359 -0.1938  0.3208
14612SOL    HW145843   2.352   5.999   1.653 -0.6554 -1.6010  0.8219
14612SOL    HW245844   2.281   6.120   1.709  1.2983 -0.5346  1.0729
14613SOL     OW45845   3.840  10.988  11.112 -1.1241 -0.7052 -0.8580
14613SOL    HW145846   3.849  11.034  11.196  0.1247 -0.3108 -1.1798
14613SOL    HW245847   3.912  10.925  11.112 -1.0906 -0.6735 -1.6391
14614SOL     OW45848   4.187   9.462  10.970 -0.0808  0.5701  0.0634
14614SOL    HW145849   4.282   9.452  10.961 -0.2387  0.0967 -1.5143
14614SOL    HW245850   4.175   9.550  11.005  0.9204  1.0123 -0.6552
14615SOL     OW45851  10.095   6.679   3.648  1.0175 -0.5196  0.0824
14615SOL    HW145852  10.059   6.732   3.578 -0.2240 -1.0743  0.2825
14615SOL    HW245853  10.174   6.640   3.610  0.2024 -1.0641 -1.1195
14616SOL     OW45854  10.670   1.398   4.273  0.2227 -0.2038  0.8929
14616SOL    HW145855  10.690   1.315   4.230 -0.3723 -0.3394  0.8690
14616SOL    HW245856  10.696   1.465   4.210  0.4754 -0.3784  0.8110
14617SOL     OW45857   2.691   6.665   2.501 -0.1455 -0.2697  0.0484
14617SOL    HW145858   2.690   6.698   2.411  0.1884  2.5120  0.9838
14617SOL    HW245859   2.781   6.635   2.514  1.1593  3.5079  0.7506
14618SOL     OW45860   3.132   9.021   4.923  0.4896  0.3205 -0.1018
14618SOL    HW145861   3.125   9.112   4.952  1.0526 -0.1176  1.5555
14618SOL    HW245862   3.042   8.993   4.910  0.2931  0.9979 -0.2387
14619SOL     OW45863   3.588   0.874   4.433 -0.8178  0.5496 -0.2622
14619SOL    HW145864   3.618   0.810   4.497 -2.5825 -0.0777 -0.0171
14619SOL    HW245865   3.560   0.949   4.486 -3.0664 -0.2871 -0.1515
14620SOL     OW45866  10.597   7.496  10.349 -0.6612  0.1445  0.0482
14620SOL    HW145867  10.622   7.553  10.421  0.9449  0.4352 -0.6859
14620SOL    HW245868  10.651   7.418  10.359 -0.0688  0.3849 -1.0751
14621SOL     OW45869   5.034   8.556   9.529 -0.2221  0.0087 -0.1727
14621SOL    HW145870   5.105   8.597   9.579 -1.1087  2.2221 -0.6143
14621SOL    HW245871   5.006   8.481   9.583  3.0098 -1.5603 -0.4370
14622SOL     OW45872   1.386  11.031   0.158  0.1285  0.1853  1.3037
14622SOL    HW145873   1.301  11.056   0.121  0.4547  0.0647  0.4527
14622SOL    HW245874   1.384  11.064   0.248  0.6060  3.4334  0.2419
14623SOL     OW45875   2.439  11.221  10.536  0.0268 -0.1932 -0.0277
14623SOL    HW145876   2.414  11.223  10.443  0.1117  0.9983 -0.0374
14623SOL    HW245877   2.357  11.231  10.583  0.1325  0.6465 -0.0080
14624SOL     OW45878   1.096   9.090   7.341  0.0592 -0.4736  0.1277
14624SOL    HW145879   1.131   9.051   7.421 -0.9592  0.8625  1.2733
14624SOL    HW245880   1.033   9.155   7.371 -0.5243 -0.0814 -1.7785
14625SOL     OW45881   2.873   2.083   8.781 -0.1691 -0.9458  0.5090
14625SOL    HW145882   2.833   2.030   8.850  0.4844 -1.2000  0.7107
14625SOL    HW245883   2.921   2.151   8.828 -1.5981  0.2969  0.2321
14626SOL     OW45884   7.884   7.970   5.973 -0.0048 -0.2534 -0.3632
14626SOL    HW145885   7.815   7.959   6.038  2.1215 -1.0181  1.9513
14626SOL    HW245886   7.886   7.887   5.925  1.3347 -1.5409  1.7768
14627SOL     OW45887   4.118   6.165   3.121 -1.3222 -0.0912  0.6602
14627SOL    HW145888   4.159   6.178   3.207  0.4638 -0.1274 -0.1607
14627SOL    HW245889   4.189   6.138   3.064 -2.5094 -0.1672 -0.8377
14628SOL     OW45890   3.485   3.759  10.708  0.1773 -0.0854 -0.2628
14628SOL    HW145891   3.528   3.817  10.771 -0.9035  0.3234  0.1172
14628SOL    HW245892   3.439   3.694  10.761 -0.1713 -0.1562 -0.6394
14629SOL     OW45893   4.128   7.723   6.704  0.1139 -0.4784  0.7605
14629SOL    HW145894   4.097   7.656   6.643  1.4381 -2.2466  1.9684
14629SOL    HW245895   4.153   7.796   6.647  1.3298 -2.0626 -0.8513
14630SOL     OW45896   7.403  10.171   6.036 -0.1852  0.4283  0.3302
14630SOL    HW145897   7.369  10.081   6.032 -2.5754  1.2789 -0.1255
14630SOL    HW245898   7.375  10.203   6.122 -1.7321  1.5669 -0.5569
14631SOL     OW45899   3.697   3.277  10.636  0.0700 -0.0551 -0.0510
14631SOL    HW145900   3.718   3.224  10.714 -1.3331  1.3882  1.3873
14631SOL    HW245901   3.783   3.299  10.599  0.7302 -1.8460  0.2965
14632SOL     OW45902   7.455   2.030   1.283  0.2693  0.1703  0.2616
14632SOL    HW145903   7.484   2.097   1.345 -0.4257 -0.0448  0.8409
14632SOL    HW245904   7.376   1.994   1.323  0.0962 -0.3292 -0.5133
14633SOL     OW45905   0.801   0.941   8.335 -0.2416 -0.4716 -0.0291
14633SOL    HW145906   0.804   0.875   8.267 -2.3391 -1.7956  1.0571
14633SOL    HW245907   0.737   1.005   8.304  0.6702  0.2858 -0.3981
14634SOL     OW45908   3.645   2.278   6.779 -0.2088  0.2433  0.4833
14634SOL    HW145909   3.617   2.298   6.868  1.4539 -0.3193  1.1758
14634SOL    HW245910   3.706   2.348   6.757  1.8546 -1.2858  1.0505
14635SOL     OW45911   7.515   3.543  10.401 -0.5877 -0.0012 -0.6374
14635SOL    HW145912   7.549   3.483  10.468  0.8308  1.0899 -0.3282
14635SOL    HW245913   7.591   3.596  10.375 -1.8191  1.8088 -0.7385
14636SOL     OW45914   4.894  10.580   5.045 -0.0764 -0.0236  0.2557
14636SOL    HW145915   4.931  10.504   5.091  0.0352 -0.3919 -0.4344
14636SOL    HW245916   4.799  10.571   5.055 -0.0307  0.2952  1.0351
14637SOL     OW45917  10.103  10.175   4.553  0.0366  0.3211  0.2439
14637SOL    HW145918  10.089  10.127   4.635 -0.6823  0.3681  0.1568
14637SOL    HW245919  10.154  10.115   4.499  0.5763  0.3169  0.7465
14638SOL     OW45920   5.503   6.358   3.910  0.6457  0.0784 -0.4832
14638SOL    HW145921   5.465   6.363   3.822 -0.0588  1.7232 -0.1296
14638SOL    HW245922   5.454   6.289   3.954 -2.1670  2.2102 -0.0037
14639SOL     OW45923   4.977  10.154   5.286 -0.1222 -0.4096  0.3001
14639SOL    HW145924   5.041  10.154   5.215 -1.0999  1.2680 -0.6455
14639SOL    HW245925   5.026  10.184   5.363  0.7738 -1.5319  0.1854
14640SOL     OW45926  10.169   4.606  10.054  0.7863  0.5382 -0.0887
14640SOL    HW145927  10.101   4.544  10.025  0.0853  0.5200  1.5044
14640SOL    HW245928  10.218   4.626   9.974 -0.9606  0.3947 -1.2590
14641SOL     OW45929   6.538   1.473   3.470  0.0791  0.0832  0.8170
14641SOL    HW145930   6.557   1.567   3.473  1.6721 -0.2160  3.4070
14641SOL    HW245931   6.474   1.459   3.540 -0.7507 -0.6821 -0.0633
14642SOL     OW45932   7.678   9.382   6.686  0.1381  0.6650 -0.1858
14642SOL    HW145933   7.751   9.321   6.703 -0.7613 -0.3978  0.0030
14642SOL    HW245934   7.719   9.468   6.681  1.0760  0.5736  3.1859
14643SOL     OW45935   6.491   3.496   1.445 -0.0624  0.8323  0.1800
14643SOL    HW145936   6.482   3.402   1.430 -1.2359  0.8548  0.6251
14643SOL    HW245937   6.536   3.529   1.367 -0.3140  0.0104 -0.3197
14644SOL     OW45938   1.193   2.581  10.181 -0.5154 -0.0899  0.2952
14644SOL    HW145939   1.177   2.498  10.136  1.4364  0.1804 -1.0508
14644SOL    HW245940   1.215   2.556  10.271 -1.0145 -0.9263  0.1937
14645SOL     OW45941   3.090   9.026   0.829  0.3242 -0.3752 -0.1943
14645SOL    HW145942   3.141   9.033   0.910 -0.8759  0.0780  0.5416
14645SOL    HW245943   3.156   9.027   0.760  1.4726 -2.1044  0.7962
14646SOL     OW45944   0.739   4.219  11.099  0.0912 -0.3322  0.2910
14646SOL    HW145945   0.671   4.217  11.033  0.1568  0.4446  0.1853
14646SOL    HW245946   0.789   4.138  11.086  0.0454 -0.2275 -0.5445
14647SOL     OW45947   7.315   7.172   6.318 -0.5961  0.7111  0.2308
14647SOL    HW145948   7.386   7.131   6.269 -1.1566 -0.4617  0.3856
14647SOL    HW245949   7.258   7.210   6.250 -1.4180 -0.9870 -0.0841
14648SOL     OW45950   7.674   2.757   0.932 -0.3627  0.3975  0.1409
14648SOL    HW145951   7.649   2.828   0.991 -1.0602 -0.3852  0.8141
14648SOL    HW245952   7.649   2.788   0.845 -2.0382  0.3997  0.5908
14649SOL     OW45953   2.435   6.758   4.753  0.1089  0.2795 -0.4155
14649SOL    HW145954   2.366   6.803   4.705 -1.1771 -1.5828 -0.3812
14649SOL    HW245955   2.462   6.686   4.696 -0.3172 -1.0027  0.9255
14650SOL     OW45956   6.103  10.419   2.268  0.1318  0.2462 -0.6035
14650SOL    HW145957   6.016  10.407   2.230 -0.3276  0.8826  0.2051
14650SOL    HW245958   6.098  10.376   2.353  0.8697 -0.4010 -0.8743
14651SOL     OW45959   9.920   0.104   9.444 -0.3533 -0.0766  0.5173
14651SOL    HW145960   9.924   0.076   9.535 -0.3686 -1.0370  0.2298
14651SOL    HW245961   9.941   0.025   9.394  3.9053  1.2686 -0.2560
14652SOL     OW45962  11.104   0.594   5.932 -0.8394 -0.1572  0.0243
14652SOL    HW145963  11.089   0.564   5.842  0.6992 -0.1390 -0.2690
14652SOL    HW245964  11.132   0.516   5.979  2.1623  0.4659 -0.4921
14653SOL     OW45965   5.233   8.762   4.357  0.1148  0.0739  0.3941
14653SOL    HW145966   5.274   8.848   4.361  1.1917 -0.4650  3.0625
14653SOL    HW245967   5.305   8.700   4.361 -0.7699 -0.9215  1.6745
14654SOL     OW45968   5.395   4.704   9.816  0.3694 -0.4186 -0.2228
14654SOL    HW145969   5.443   4.704   9.733  1.1814 -0.5357  0.2370
14654SOL    HW245970   5.358   4.616   9.822 -2.7715  0.5871 -2.1622
14655SOL     OW45971   7.897   1.212   8.457  0.1411 -0.5648 -0.3570
14655SOL    HW145972   7.876   1.122   8.433 -1.5829 -0.6576  1.3168
14655SOL    HW245973   7.815   1.260   8.443 -0.1753 -0.1008  2.5929
14656SOL     OW45974   9.998   4.409   7.109 -0.3630  0.2367 -0.3859
14656SOL    HW145975   9.946   4.356   7.168 -0.5640  0.3570 -0.4533
14656SOL    HW245976  10.006   4.356   7.029  2.8411 -1.4655  0.9020
14657SOL     OW45977   5.748   2.275  11.036  0.3383  0.2343  0.8988
14657SOL    HW145978   5.798   2.205  10.995  1.5002  0.3567  2.0357
14657SOL    HW245979   5.788   2.286  11.123 -2.5227 -0.6172  2.4692
14658SOL     OW45980   0.904   1.561   5.240 -0.6223  0.4077 -0.0209
14658SOL    HW145981   0.851   1.593   5.313  0.7278  1.6691  0.4491
14658SOL    HW245982   0.979   1.620   5.237 -1.2003  1.1656 -3.2285
14659SOL     OW45983   1.004   7.991   1.959  0.6635  0.3720 -0.0526
14659SOL    HW145984   0.985   8.072   1.912 -2.5710  1.9137  3.4662
14659SOL    HW245985   0.921   7.943   1.959  2.4637 -3.1420 -1.9927
14660SOL     OW45986   3.925   2.458   3.934 -0.2555 -0.0501 -0.0019
14660SOL    HW145987   3.866   2.460   4.010  0.3919  0.0480  0.5079
14660SOL    HW245988   3.898   2.532   3.881 -1.2845 -0.6286 -0.3089
14661SOL     OW45989   7.819   4.638   6.521 -0.3891 -0.3417  0.6104
14661SOL    HW145990   7.808   4.559   6.468  0.4176 -0.6399  0.8853
14661SOL    HW245991   7.830   4.605   6.610 -1.3743  0.1437  0.9311
14662SOL     OW45992   7.712   2.817   9.458 -0.3148 -0.5418  0.1871
14662SOL    HW145993   7.636   2.863   9.494 -0.5047 -0.2463 -0.5733
14662SOL    HW245994   7.772   2.886   9.431  0.2186 -0.7744  0.7489
14663SOL     OW45995  10.969   9.427   2.379 -0.6973 -0.2860  0.4716
14663SOL    HW145996  10.938   9.352   2.428 -1.0304  0.9625  2.2887
14663SOL    HW245997  11.029   9.391   2.314  0.7635 -1.9598  2.6279
14664SOL     OW45998   3.112   4.562   9.612 -0.1347 -0.5472 -0.2800
14664SOL    HW145999   3.156   4.509   9.545 -1.7271  1.0041 -2.7264
14664SOL    HW246000   3.021   4.566   9.583 -0.9520  0.0253  2.1606
14665SOL     OW46001   6.215  10.922   8.620 -0.4262  0.5918  0.3152
14665SOL    HW146002   6.278  10.852   8.637  0.6623  1.9387  2.4021
14665SOL    HW246003   6.196  10.958   8.707 -1.2484  2.6089 -0.6393
14666SOL     OW46004   2.859   0.973   4.639  0.0507 -0.1478  0.3305
14666SOL    HW146005   2.946   1.009   4.655  0.5218 -1.2513  0.3906
14666SOL    HW246006   2.803   1.049   4.623  0.8590  0.6203  1.0732
14667SOL     OW46007   7.128   4.611   0.004  0.1786  0.0410 -0.5398
14667SOL    HW146008   7.063   4.554  -0.038 -1.3917  0.9900  0.4947
14667SOL    HW246009   7.157   4.562   0.081 -0.3512  0.1716 -0.2520
14668SOL     OW46010   0.071   6.291   4.689  0.1013 -0.3251 -0.5816
14668SOL    HW146011   0.026   6.243   4.759  0.4483 -0.8757 -0.7237
14668SOL    HW246012   0.091   6.224   4.624  0.2566  0.0894 -0.9647
14669SOL     OW46013   1.304   6.151   0.019  0.4145 -0.0501 -0.2224
14669SOL    HW146014   1.397   6.131   0.008  0.3141 -0.0424 -1.2269
14669SOL    HW246015   1.291   6.231  -0.033 -0.4287 -0.8507 -1.2984
14670SOL     OW46016   9.915   6.464   1.794  0.9593 -0.5185  0.2771
14670SOL    HW146017   9.902   6.421   1.709  0.8594  1.5214 -0.7998
14670SOL    HW246018   9.829   6.462   1.835 -0.1020  2.1119 -1.5336
14671SOL     OW46019  10.884   2.387   1.310  0.4140  0.4644 -0.0519
14671SOL    HW146020  10.850   2.304   1.345  2.0299  0.2210  1.0652
14671SOL    HW246021  10.911   2.365   1.221  1.0628 -0.3151  0.3162
14672SOL     OW46022   3.701   5.276   6.600  0.5927 -0.1500 -0.2330
14672SOL    HW146023   3.701   5.183   6.623  1.2913  0.1947  1.3125
14672SOL    HW246024   3.758   5.317   6.666 -0.4699  1.4992 -0.2771
14673SOL     OW46025   2.185   2.105   0.716 -0.0851 -0.0749  0.4224
14673SOL    HW146026   2.161   2.080   0.805 -1.6489 -2.0814 -0.4921
14673SOL    HW246027   2.281   2.105   0.717 -0.0360  1.7406  2.5220
14674SOL     OW46028   8.458  10.649  10.123 -0.2516 -0.1652 -0.4958
14674SOL    HW146029   8.531  10.710  10.114  0.9518 -0.9596  2.7230
14674SOL    HW246030   8.380  10.705  10.116  0.7517  1.3885  0.1787
14675SOL     OW46031   3.715   5.978   6.498 -0.0048  0.1459 -0.4997
14675SOL    HW146032   3.718   6.060   6.448  0.3679 -0.7970 -2.1188
14675SOL    HW246033   3.803   5.942   6.490 -0.0530 -0.2170  0.5284
14676SOL     OW46034   4.948   6.261   0.048 -0.1063 -0.4297  0.0515
14676SOL    HW146035   4.921   6.221   0.131  1.2663  0.1114  0.7821
14676SOL    HW246036   5.042   6.246   0.044 -0.5488 -3.7591 -3.2221
14677SOL     OW46037   9.742   0.544   5.728  0.3217 -1.0571 -0.2995
14677SOL    HW146038   9.812   0.494   5.685 -0.3581 -2.3371  0.0547
14677SOL    HW246039   9.677   0.557   5.659  0.8034  0.0030 -0.5866
14678SOL     OW46040   6.845   4.210   1.842 -0.2824  0.5360  0.2349
14678SOL    HW146041   6.816   4.270   1.911 -2.5949 -0.1078 -0.0775
14678SOL    HW246042   6.905   4.261   1.789  0.2937  1.5509  1.7829
14679SOL     OW46043   4.538  10.499   1.493 -0.3808 -0.0262  0.5753
14679SOL    HW146044   4.610  10.438   1.478 -0.7080 -1.0460  2.6839
14679SOL    HW246045   4.579  10.582   1.516  0.1552 -0.5470  1.5585
14680SOL     OW46046   8.915   4.507   8.727 -0.1525 -0.1772  0.4406
14680SOL    HW146047   8.977   4.557   8.780  0.5135 -1.0805  0.5375
14680SOL    HW246048   8.924   4.546   8.639  1.0381 -0.6908  0.3044
14681SOL     OW46049   2.038   8.012   8.700  0.1665 -0.1060  0.2177
14681SOL    HW146050   1.953   7.982   8.665  0.9228 -1.8053 -0.2685
14681SOL    HW246051   2.062   8.086   8.644 -0.9072  0.3004  0.2642
14682SOL     OW46052   9.806   0.107   8.548 -0.1156  0.1423  0.6192
14682SOL    HW146053   9.874   0.048   8.582  0.5523  0.0550 -0.8168
14682SOL    HW246054   9.756   0.133   8.626 -1.7793 -3.8993  1.1258
14683SOL     OW46055   4.752   1.855   1.297  0.4457 -0.5076  0.6763
14683SOL    HW146056   4.707   1.815   1.372  0.1544 -0.9565  0.2641
14683SOL    HW246057   4.811   1.787   1.265  0.7252 -0.2446  0.6233
14684SOL     OW46058   3.477   4.321  10.347  0.7106  0.5737  0.4293
14684SOL    HW146059   3.506   4.233  10.324 -1.9935 -0.5366  0.9125
14684SOL    HW246060   3.463   4.318  10.442 -0.6848  1.0736  0.2712
14685SOL     OW46061  11.056   2.282   4.216  0.2832  0.4280 -0.4037
14685SOL    HW146062  10.997   2.312   4.286  0.1212 -0.1063 -0.3111
14685SOL    HW246063  11.016   2.202   4.184  0.7536  0.2781 -0.6128
14686SOL     OW46064   2.757   7.234   3.080 -0.2322  0.3949 -0.0147
14686SOL    HW146065   2.843   7.239   3.122  1.1136  0.1212 -2.5536
14686SOL    HW246066   2.746   7.142   3.057 -0.6633  0.6257 -0.7761
14687SOL     OW46067   8.691   1.005   4.841  0.3935 -0.3434 -0.0395
14687SOL    HW146068   8.764   1.022   4.900 -0.8275  0.8927  1.2005
14687SOL    HW246069   8.635   1.082   4.850 -1.7144 -1.8050  0.0544
14688SOL     OW46070   6.893   4.208   3.955 -0.5275 -0.2779  0.0642
14688SOL    HW146071   6.988   4.214   3.961 -0.6395 -0.1937  2.2401
14688SOL    HW246072   6.869   4.143   4.021 -2.0344  0.1181 -0.0623
14689SOL     OW46073   3.014   1.170   8.034 -0.2256 -0.8976  0.1553
14689SOL    HW146074   3.095   1.220   8.027 -0.7486 -0.1387 -0.8974
14689SOL    HW246075   2.947   1.230   8.000 -1.3035 -1.3343  1.4376
14690SOL     OW46076   3.590   7.326   7.998 -0.2250 -0.7553  0.5107
14690SOL    HW146077   3.638   7.290   8.072 -1.5478 -2.7441  0.4766
14690SOL    HW246078   3.516   7.266   7.986  0.7497 -1.4542 -3.3790
14691SOL     OW46079   1.035   8.016   0.867 -0.3542  0.4144 -0.0419
14691SOL    HW146080   0.987   8.087   0.823  0.0345  1.4775  1.2004
14691SOL    HW246081   1.068   8.055   0.947  0.5965 -0.9609  0.2731
14692SOL     OW46082   1.245   9.510   4.438 -0.7435 -0.6512 -0.7644
14692SOL    HW146083   1.328   9.552   4.415 -0.5835 -0.0079  0.8227
14692SOL    HW246084   1.181   9.550   4.380 -0.3131  0.6048 -0.4102
14693SOL     OW46085   9.052  10.638  10.103  0.1071  0.9130 -0.0277
14693SOL    HW146086   9.097  10.631  10.018  0.0085 -1.1669  0.0218
14693SOL    HW246087   9.021  10.728  10.107  1.6312  1.5533 -1.4218
14694SOL     OW46088   0.670  10.309   4.881 -0.2642 -0.6041 -0.3724
14694SOL    HW146089   0.660  10.403   4.865 -3.2703 -1.0967 -2.1860
14694SOL    HW246090   0.638  10.297   4.971 -3.3070 -0.2020 -1.2856
14695SOL     OW46091   9.683   3.467   3.453 -0.3853 -0.1177 -0.6725
14695SOL    HW146092   9.635   3.501   3.377 -0.2953 -1.3199 -1.2915
14695SOL    HW246093   9.626   3.486   3.528 -3.5629 -4.3370 -1.6619
14696SOL     OW46094   6.143   6.594   4.832 -0.4405 -0.6515 -0.0148
14696SOL    HW146095   6.163   6.536   4.759 -1.9812 -0.3107 -0.7552
14696SOL    HW246096   6.147   6.538   4.909 -2.3675 -1.9058 -0.7607
14697SOL     OW46097   3.478   0.002   4.080  0.3549 -1.0801  0.5632
14697SOL    HW146098   3.525   0.040   4.006 -0.9731  1.4059  0.9053
14697SOL    HW246099   3.426  -0.068   4.041  0.8024 -0.8012 -0.5926
14698SOL     OW46100   4.212   5.339   1.588  0.3490 -0.2250 -0.2220
14698SOL    HW146101   4.259   5.374   1.512  0.0743  0.8536  0.0873
14698SOL    HW246102   4.231   5.245   1.587  0.1996 -0.2590 -1.7201
14699SOL     OW46103   9.229   4.460   8.815  0.1403  0.2153 -0.5780
14699SOL    HW146104   9.199   4.403   8.886 -3.2651  2.2293 -0.1917
14699SOL    HW246105   9.256   4.541   8.859  3.3559 -0.3382 -1.2590
14700SOL     OW46106   4.397   5.767   5.883  0.0252 -0.3626  0.0301
14700SOL    HW146107   4.369   5.796   5.969 -1.7141  0.2307 -0.7024
14700SOL    HW246108   4.479   5.813   5.867 -0.4451  0.7403  0.7251
14701SOL     OW46109  10.188   6.526   0.724 -0.2835 -0.8158 -0.0230
14701SOL    HW146110  10.108   6.476   0.704 -0.9041 -0.6975  1.9461
14701SOL    HW246111  10.258   6.462   0.719 -0.7480 -1.3403  0.0707
14702SOL     OW46112   1.542   8.900   5.341 -0.1201  0.8700 -0.1676
14702SOL    HW146113   1.552   8.963   5.270  1.7550  0.9478  0.1148
14702SOL    HW246114   1.475   8.938   5.398  0.8198  2.5120 -0.1159
14703SOL     OW46115   4.487  10.091   5.205  0.4174  0.4585 -0.4671
14703SOL    HW146116   4.432  10.166   5.181  0.9239  0.7966 -0.5747
14703SOL    HW246117   4.495  10.096   5.300  0.0183  0.2352 -0.4184
14704SOL     OW46118   2.481   2.614   0.515  0.2347 -0.4459  0.5732
14704SOL    HW146119   2.539   2.542   0.542 -0.5763 -1.1222  0.5449
14704SOL    HW246120   2.500   2.626   0.422 -0.1423 -1.1177  0.4057
14705SOL     OW46121   8.186  10.332   1.867  0.3424 -0.2062 -0.5536
14705SOL    HW146122   8.191  10.392   1.942 -1.1480 -0.9599  0.2063
14705SOL    HW246123   8.225  10.251   1.899 -2.3783 -1.3013  0.3157
14706SOL     OW46124   7.455   1.576   2.735 -0.2403  0.2615 -0.4489
14706SOL    HW146125   7.542   1.570   2.775 -0.6047  0.2899  0.3464
14706SOL    HW246126   7.402   1.625   2.798 -0.3402  1.9756 -1.7738
14707SOL     OW46127   5.651   8.599   6.317 -0.3679  0.6062 -0.4173
14707SOL    HW146128   5.577   8.539   6.324 -1.9392  2.4955  0.2347
14707SOL    HW246129   5.719   8.560   6.372 -1.1217 -0.8238 -0.4618
14708SOL     OW46130   1.369   4.371   8.570  0.5010 -0.4684  0.0612
14708SOL    HW146131   1.451   4.419   8.559  0.0464  0.2440 -0.2853
14708SOL    HW246132   1.385   4.287   8.526  1.8813 -1.3798  2.1221
14709SOL     OW46133   8.122   1.698   7.971  0.3874 -0.2388  0.3230
14709SOL    HW146134   8.187   1.682   7.903  1.0557  0.7256  0.7115
14709SOL    HW246135   8.117   1.615   8.019  0.3211 -0.7485 -0.5403
14710SOL     OW46136   9.538   6.484   3.465  0.3786  0.2142 -0.6096
14710SOL    HW146137   9.541   6.419   3.536  0.1184  0.0985 -0.7033
14710SOL    HW246138   9.444   6.497   3.449  0.4259  0.6586 -0.5492
14711SOL     OW46139   9.678   6.083  10.623 -0.4750  0.6232  0.0064
14711SOL    HW146140   9.637   6.164  10.593 -0.9255 -0.1769 -1.6918
14711SOL    HW246141   9.623   6.054  10.696  0.3394  2.3736  1.3962
14712SOL     OW46142   4.895   1.453  10.931  0.2082  0.5769  0.4255
14712SOL    HW146143   4.875   1.414  10.845  0.1931 -0.0109  0.6899
14712SOL    HW246144   4.812   1.449  10.979  0.6213 -0.6673  1.0655
14713SOL     OW46145   6.424   3.598   2.949 -0.5348  0.1601  0.0505
14713SOL    HW146146   6.483   3.524   2.963  0.6411  1.3655  1.9793
14713SOL    HW246147   6.450   3.633   2.863 -2.2845 -2.5800 -1.7415
14714SOL     OW46148   6.067   4.135   2.493 -0.2143  0.4132  0.4123
14714SOL    HW146149   6.105   4.054   2.460  0.2209  0.7315  0.1345
14714SOL    HW246150   5.973   4.118   2.495 -0.4679  0.9716 -2.6561
14715SOL     OW46151   1.540  10.645   5.544  0.1805  0.3296  0.0409
14715SOL    HW146152   1.563  10.577   5.481  0.7934  0.4577  0.1140
14715SOL    HW246153   1.621  10.660   5.594  0.4405  1.9932 -0.8021
14716SOL     OW46154   3.310   5.031   4.598 -0.0033 -0.4882 -0.7120
14716SOL    HW146155   3.377   5.017   4.665 -1.1595  0.3992  0.6869
14716SOL    HW246156   3.353   5.087   4.533  0.5361  0.2972  0.2939
14717SOL     OW46157   1.030   3.427   5.297  0.3071 -0.3597 -0.0970
14717SOL    HW146158   0.935   3.427   5.297  0.2487 -2.7413  1.1417
14717SOL    HW246159   1.055   3.354   5.240  1.3454 -0.8814  0.9925
14718SOL     OW46160   6.807   5.193   3.852 -0.1966 -0.6961 -0.0700
14718SOL    HW146161   6.712   5.193   3.859 -0.1512  1.2793  1.3735
14718SOL    HW246162   6.836   5.256   3.918  1.9694  0.7907 -2.2779
14719SOL     OW46163   6.833   3.608   3.846 -0.4514  0.3656  0.3206
14719SOL    HW146164   6.800   3.613   3.936 -1.1865 -3.8825  0.5009
14719SOL    HW246165   6.925   3.631   3.853 -0.9441  2.1548  1.7430
14720SOL     OW46166   2.818   3.214   2.330 -0.2872 -0.0901  0.2316
14720SOL    HW146167   2.841   3.245   2.418 -0.1786 -0.8526  0.4809
14720SOL    HW246168   2.839   3.121   2.332  1.0190  0.1415 -1.0312
14721SOL     OW46169   6.156   6.056   0.451 -0.4190 -0.3916  0.3622
14721SOL    HW146170   6.175   6.145   0.480 -0.6933  0.2766 -1.4368
14721SOL    HW246171   6.178   6.002   0.527  0.7199  1.0932  1.1530
14722SOL     OW46172  10.024   0.628   6.866 -0.3460 -0.3359 -0.3305
14722SOL    HW146173  10.046   0.720   6.856 -0.5681  0.0769  2.2677
14722SOL    HW246174   9.960   0.610   6.796  0.3570  1.1970 -1.4152
14723SOL     OW46175   9.204   7.697   4.421 -0.9262 -0.7568  0.1795
14723SOL    HW146176   9.109   7.711   4.415 -1.3796 -3.2720  0.3765
14723SOL    HW246177   9.219   7.617   4.370  0.7614 -1.5739  1.8736
14724SOL     OW46178   1.147   0.516   7.258 -0.5869 -0.1713 -0.3528
14724SOL    HW146179   1.125   0.465   7.336  1.2601 -1.5307 -0.6561
14724SOL    HW246180   1.241   0.532   7.265 -0.3661 -0.3651 -2.3287
14725SOL     OW46181   0.893  10.513   3.126  0.0775  0.1805  0.0624
14725SOL    HW146182   0.977  10.529   3.168 -0.6069  2.8356  0.6023
14725SOL    HW246183   0.911  10.446   3.061  2.8989  1.4714 -0.6293
14726SOL     OW46184   5.218   0.511   1.121  0.1836  0.4954  0.5254
14726SOL    HW146185   5.168   0.593   1.117 -1.4870 -0.5251 -0.8433
14726SOL    HW246186   5.298   0.528   1.071 -0.2256  1.2361  0.1187
14727SOL     OW46187   6.220   4.257   4.114  0.4250 -0.1591 -0.1866
14727SOL    HW146188   6.226   4.262   4.019 -0.5526 -0.9212 -0.3118
14727SOL    HW246189   6.131   4.225   4.131  0.9038 -1.0029  0.9371
14728SOL     OW46190   7.648   0.556   4.573 -0.2982  0.2373 -0.0331
14728SOL    HW146191   7.712   0.517   4.513 -0.0815  0.3317  0.1321
14728SOL    HW246192   7.589   0.484   4.595  1.1044 -0.4680  1.6079
14729SOL     OW46193   9.663   1.930   9.430 -0.2213  0.6287 -0.0480
14729SOL    HW146194   9.590   1.987   9.452 -0.1837  1.0264 -0.8977
14729SOL    HW246195   9.663   1.862   9.497 -1.3505  0.6421 -0.0295
14730SOL     OW46196   9.611   9.812   4.287 -0.4017 -0.4083 -0.1055
14730SOL    HW146197   9.617   9.842   4.378  3.2202 -0.8686 -0.0374
14730SOL    HW246198   9.685   9.752   4.277 -2.5929 -3.0055 -2.5114
14731SOL     OW46199   0.200   9.537   4.132 -0.4675  0.1229 -0.5531
14731SOL    HW146200   0.109   9.525   4.162 -0.6416 -0.5319 -1.3068
14731SOL    HW246201   0.194   9.532   4.037  0.5245 -1.1161 -0.5629
14732SOL     OW46202   1.157   5.115   0.413  0.7124  0.1176  0.1631
14732SOL    HW146203   1.110   5.061   0.477  0.6389  1.2043  1.0550
14732SOL    HW246204   1.206   5.052   0.360  1.5438 -0.7795  1.9137
14733SOL     OW46205   6.268   2.774   7.375  0.0092 -0.0741  0.3912
14733SOL    HW146206   6.270   2.712   7.302 -0.2093 -0.6492  0.8658
14733SOL    HW246207   6.244   2.857   7.335  0.1745 -0.3209 -0.2350
14734SOL     OW46208   0.362   0.821   2.186 -0.1462 -0.4195 -0.3857
14734SOL    HW146209   0.406   0.847   2.105 -0.2109 -1.5511 -0.7997
14734SOL    HW246210   0.420   0.755   2.225  1.4510  2.2052  2.0990
14735SOL     OW46211   3.516   1.233   9.288  0.3786  0.3495  0.0933
14735SOL    HW146212   3.555   1.154   9.325  0.4389 -1.3529 -3.1859
14735SOL    HW246213   3.438   1.249   9.341  0.7400 -1.5044  1.2716
14736SOL     OW46214   9.275   2.119  10.004 -0.0333  0.3230  0.1057
14736SOL    HW146215   9.202   2.149   9.949  0.7169 -1.6470 -2.1357
14736SOL    HW246216   9.259   2.026  10.016  1.4209  0.1304  0.6931
14737SOL     OW46217  10.670  10.507   7.460  0.1914  0.4354  0.0034
14737SOL    HW146218  10.744  10.548   7.504 -0.2169  2.9012 -1.4068
14737SOL    HW246219  10.622  10.462   7.530  1.7358  0.7586  1.3209
14738SOL     OW46220  11.212   2.462   4.532 -0.8912 -0.4707 -0.0992
14738SOL    HW146221  11.179   2.497   4.450 -2.1327 -1.8436 -0.2281
14738SOL    HW246222  11.283   2.522   4.557 -1.5824  0.9120 -1.3016
14739SOL     OW46223   5.969   6.340   4.202 -0.2308 -0.5380  0.5676
14739SOL    HW146224   6.033   6.269   4.199  1.3148  0.7604 -2.7448
14739SOL    HW246225   5.888   6.298   4.231  1.1542 -3.1150  0.9915
14740SOL     OW46226   4.581   9.635   4.295 -0.1292  0.2569 -0.1021
14740SOL    HW146227   4.623   9.680   4.222 -1.6546  0.6214 -0.7922
14740SOL    HW246228   4.653   9.591   4.340  1.3114  2.5495  0.0177
14741SOL     OW46229   6.116   3.034   7.606 -0.3812  0.7180 -0.3062
14741SOL    HW146230   6.114   3.104   7.541  1.0339  1.6008  0.5568
14741SOL    HW246231   6.202   2.993   7.595 -1.0232 -0.6453 -0.5178
14742SOL     OW46232   4.039   7.560   7.401  0.9572  0.1189 -0.2531
14742SOL    HW146233   4.123   7.605   7.407  0.5553  0.7792  0.8713
14742SOL    HW246234   4.036   7.526   7.312  2.9542 -1.0325  0.0541
14743SOL     OW46235   7.246   2.704   2.498 -0.2852  0.1190 -0.0811
14743SOL    HW146236   7.217   2.767   2.432 -0.9858 -0.1768 -0.0587
14743SOL    HW246237   7.167   2.658   2.524  0.0895 -0.2006  0.5135
14744SOL     OW46238   2.038   1.097   2.390 -0.0490  0.0786  0.4266
14744SOL    HW146239   1.962   1.152   2.412 -1.2846 -0.6482 -1.7004
14744SOL    HW246240   2.008   1.008   2.408 -0.5759 -0.4121 -2.3710
14745SOL     OW46241   4.059   6.959   0.186  0.5392 -0.1756  0.4314
14745SOL    HW146242   4.056   7.004   0.270 -0.6736 -1.5376  1.1501
14745SOL    HW246243   3.968   6.932   0.170  0.5699  0.7260 -1.7116
14746SOL     OW46244   2.733   2.331   7.598 -0.0122  0.3832  0.1428
14746SOL    HW146245   2.729   2.247   7.645 -0.8791  0.5215  0.3237
14746SOL    HW246246   2.701   2.311   7.510 -1.9595  0.8569  0.6922
14747SOL     OW46247   0.979   2.296   9.394  0.2624 -0.1722 -0.4301
14747SOL    HW146248   1.064   2.327   9.425 -0.4328  2.4145 -0.8999
14747SOL    HW246249   0.997   2.261   9.307  0.7957  0.8146 -0.7325
14748SOL     OW46250   9.309   3.722   2.049 -1.1147 -0.0797 -0.1196
14748SOL    HW146251   9.235   3.723   1.988 -0.8380 -0.5272 -0.4676
14748SOL    HW246252   9.272   3.692   2.132 -1.6197  1.1235  0.1216
14749SOL     OW46253   1.078   4.821   2.947  0.0179 -0.8103 -0.3324
14749SOL    HW146254   1.165   4.799   2.980  0.5761  1.5076 -0.0871
14749SOL    HW246255   1.085   4.808   2.852  0.1975 -1.8991 -0.1868
14750SOL     OW46256   4.408   5.415   9.202  0.4280  0.1745  0.0222
14750SOL    HW146257   4.484   5.363   9.226  0.3870 -0.8501 -1.9263
14750SOL    HW246258   4.353   5.415   9.281  1.4057 -0.9526  0.7285
14751SOL     OW46259   9.503   9.236   3.847 -0.0406  0.3211 -0.2394
14751SOL    HW146260   9.584   9.287   3.834 -1.0176  1.7415 -0.9860
14751SOL    HW246261   9.534   9.148   3.867  1.7874  1.3860  2.2221
14752SOL     OW46262   5.444   0.998   4.068 -0.5851 -0.3185 -0.4579
14752SOL    HW146263   5.395   1.050   4.132  0.5089  0.4713 -0.2255
14752SOL    HW246264   5.494   0.936   4.121  0.6953  0.6553 -0.4699
14753SOL     OW46265   8.206   7.579   8.776 -0.0522  0.5740  0.0881
14753SOL    HW146266   8.217   7.636   8.852  1.3084 -0.9839  1.1208
14753SOL    HW246267   8.295   7.560   8.746 -0.5277  0.2363 -1.2015
14754SOL     OW46268  10.510   6.326  11.131  0.6648 -0.0989 -0.0772
14754SOL    HW146269  10.603   6.318  11.107  0.5473 -1.1214 -0.2332
14754SOL    HW246270  10.510   6.388  11.204  1.6043 -0.8864  0.6211
14755SOL     OW46271   2.414   3.821  11.091  0.2329 -0.0257 -0.3587
14755SOL    HW146272   2.350   3.807  11.160 -0.1416  1.4406 -0.3777
14755SOL    HW246273   2.496   3.784  11.126 -0.2701 -0.5485  0.2810
14756SOL     OW46274   3.990   0.160   5.485  0.0230 -0.0757  0.1877
14756SOL    HW146275   4.045   0.084   5.468  1.7972  1.3223 -0.5800
14756SOL    HW246276   4.035   0.233   5.443 -0.4160  1.8289  2.7632
14757SOL     OW46277   0.796   9.412   1.205 -0.1715  0.3407 -0.2477
14757SOL    HW146278   0.702   9.394   1.208  0.0317 -0.7352  0.3271
14757SOL    HW246279   0.817   9.412   1.111 -0.7541  0.7060 -0.3864
14758SOL     OW46280   9.577   7.376   9.317  0.1224  0.5339 -0.2230
14758SOL    HW146281   9.488   7.409   9.330 -0.4636 -0.5152 -1.2612
14758SOL    HW246282   9.571   7.283   9.343 -0.0650 -0.5176 -3.5513
14759SOL     OW46283   3.163   0.476   9.097  0.2361 -0.2890  1.0021
14759SOL    HW146284   3.163   0.435   9.010 -0.4952  0.4356  0.6395
14759SOL    HW246285   3.185   0.406   9.157  1.7707 -0.6045  0.1427
14760SOL     OW46286   6.164   3.823   8.959 -0.0210  0.0940  0.1294
14760SOL    HW146287   6.143   3.797   9.049  2.2555 -0.8797  0.4361
14760SOL    HW246288   6.220   3.753   8.926  0.3266  1.1213 -1.5937
14761SOL     OW46289   6.629   3.841   4.539  0.5275 -0.2117  0.0318
14761SOL    HW146290   6.718   3.814   4.561  0.7884  2.2104  2.5543
14761SOL    HW246291   6.640   3.923   4.492 -0.3643 -0.1795 -0.1379
14762SOL     OW46292   2.201   4.848   8.360  0.2789 -0.2878 -0.3438
14762SOL    HW146293   2.257   4.864   8.436 -0.3269  1.3175 -0.1946
14762SOL    HW246294   2.241   4.773   8.317  0.9367 -0.9105  1.2635
14763SOL     OW46295   8.190   1.040   9.113  0.0718 -0.0040 -0.2289
14763SOL    HW146296   8.240   1.033   9.032  0.0985  0.3963 -0.2491
14763SOL    HW246297   8.104   1.004   9.091  0.4227 -0.9230 -0.1250
14764SOL     OW46298   7.924   1.199   3.840 -0.1653 -0.0627  0.0483
14764SOL    HW146299   7.985   1.250   3.787 -0.3435 -1.2791 -1.4089
14764SOL    HW246300   7.971   1.180   3.921  0.2426  1.5654  0.2239
14765SOL     OW46301   8.692   8.197   5.382 -0.6259  0.3136 -0.1015
14765SOL    HW146302   8.728   8.286   5.380 -0.3988  0.2174 -1.6605
14765SOL    HW246303   8.724   8.161   5.464  1.9854  0.6256 -0.8641
14766SOL     OW46304   3.587   6.490   8.639  0.2829 -0.1210  0.3548
14766SOL    HW146305   3.641   6.524   8.567  0.4383 -1.4136 -0.1553
14766SOL    HW246306   3.650   6.456   8.703  0.1546 -2.8582 -0.8335
14767SOL     OW46307   9.576   9.369   6.449 -0.3525 -0.3092  0.2022
14767SOL    HW146308   9.578   9.408   6.361  0.0904  0.8329  0.6985
14767SOL    HW246309   9.485   9.379   6.477 -0.0388  1.4059  0.7419
14768SOL     OW46310  10.311   3.557   7.522  0.5601  0.1965 -0.2450
14768SOL    HW146311  10.347   3.514   7.444 -0.4191 -0.3065 -0.4396
14768SOL    HW246312  10.387   3.592   7.568  1.3404 -1.2664 -0.3764
14769SOL     OW46313   4.630   5.944  11.217  0.2298 -0.0673  0.1814
14769SOL    HW146314   4.584   6.017  11.177 -0.8114 -0.1929  1.1113
14769SOL    HW246315   4.615   5.870  11.158  0.3278  0.1938 -0.1728
14770SOL     OW46316   4.421   5.523  11.129  0.4393  0.1850  0.0762
14770SOL    HW146317   4.395   5.431  11.130  2.6017 -0.5182 -1.0309
14770SOL    HW246318   4.383   5.558  11.048 -2.1513  0.9151  1.5112
14771SOL     OW46319   8.112   3.620   2.478 -0.1698 -0.6097  0.1612
14771SOL    HW146320   8.028   3.580   2.499  0.1847 -1.5332 -0.1210
14771SOL    HW246321   8.156   3.556   2.423  0.9450 -0.3951  0.7641
14772SOL     OW46322   4.259   1.397   2.002  0.3002 -0.5837  0.4548
14772SOL    HW146323   4.190   1.338   1.971  0.1311  0.8139 -2.0976
14772SOL    HW246324   4.239   1.481   1.961  1.2311  0.9950  2.9679
14773SOL     OW46325  10.907   0.142   3.145  0.0400 -0.3020  0.8010
14773SOL    HW146326  10.989   0.157   3.098  0.2238 -2.4619  0.3593
14773SOL    HW246327  10.929   0.080   3.214 -1.4286 -1.9318 -0.1216
14774SOL     OW46328   6.648   2.493   2.006 -0.4454 -0.2283 -0.0968
14774SOL    HW146329   6.689   2.409   2.024  1.3487  0.0158 -2.5140
14774SOL    HW246330   6.558   2.471   1.981 -0.9074 -1.0800  2.0574
14775SOL     OW46331   5.693   5.460   0.033 -0.2696  0.3349  0.1761
14775SOL    HW146332   5.627   5.393   0.055 -0.0774 -0.2601 -0.9740
14775SOL    HW246333   5.705   5.450  -0.061  2.3754 -0.4190  0.5249
14776SOL     OW46334   9.311   8.988   0.078 -0.0559  0.1133 -0.4968
14776SOL    HW146335   9.294   9.077   0.107  1.3228  0.1517  0.2703
14776SOL    HW246336   9.294   8.934   0.155  3.5259  0.2068  0.5398
14777SOL     OW46337   8.156   0.947   0.199  0.3217 -0.0903 -0.4500
14777SOL    HW146338   8.136   0.899   0.119 -0.4806  0.4963 -0.6153
14777SOL    HW246339   8.251   0.958   0.198  0.6728 -2.4948  0.0856
14778SOL     OW46340   6.620   8.036   4.993 -0.2264  1.0554  0.1664
14778SOL    HW146341   6.706   8.001   5.016 -1.1049 -1.4851 -0.0331
14778SOL    HW246342   6.596   8.093   5.066  0.7880  0.2086  1.1811
14779SOL     OW46343   8.765   3.972   1.397 -0.3221  0.1924 -0.4254
14779SOL    HW146344   8.841   4.029   1.381 -0.7060  0.4690 -1.3182
14779SOL    HW246345   8.690   4.029   1.385 -0.6925 -0.2311 -0.1474
14780SOL     OW46346   9.879   7.266   0.618 -0.8912 -0.2849  0.5869
14780SOL    HW146347   9.833   7.315   0.550 -2.6941 -1.4386  0.9088
14780SOL    HW246348   9.840   7.296   0.700  1.0233  0.8455  1.1552
14781SOL     OW46349   5.367   0.688   0.643 -0.1055  0.2032 -0.1758
14781SOL    HW146350   5.345   0.721   0.556 -1.4926 -1.7716 -0.6648
14781SOL    HW246351   5.289   0.705   0.696 -0.1919 -0.6697  0.0055
14782SOL     OW46352   6.553  10.761  11.106 -0.0139 -0.0747  0.6735
14782SOL    HW146353   6.627  10.702  11.123  0.6744  0.5027 -0.2320
14782SOL    HW246354   6.537  10.752  11.012 -1.4064 -0.5352  0.9366
14783SOL     OW46355   1.267   8.469   9.540  0.1668 -0.1894  0.7724
14783SOL    HW146356   1.207   8.544   9.538 -1.1657 -1.2252 -0.3996
14783SOL    HW246357   1.215   8.397   9.576  0.7993 -1.0323  0.0579
14784SOL     OW46358  10.562   4.017   3.639  0.0613  1.0940 -0.2386
14784SOL    HW146359  10.556   3.951   3.708 -2.5110 -0.1445 -1.5100
14784SOL    HW246360  10.599   4.094   3.682  0.7659 -0.3514  1.9049
14785SOL     OW46361   5.754   2.136   4.704 -0.5612  0.2801 -1.1629
14785SOL    HW146362   5.725   2.066   4.645 -2.1927 -0.1079  0.0207
14785SOL    HW246363   5.677   2.191   4.716 -0.5569 -0.1076  1.2025
14786SOL     OW46364   6.398   0.969   3.581  0.2679  0.0817 -1.0015
14786SOL    HW146365   6.376   0.914   3.656  2.1026 -1.0790 -1.2544
14786SOL    HW246366   6.468   1.026   3.612 -0.2375  0.8966 -1.3250
14787SOL     OW46367   9.693   8.333  10.098 -0.0810 -0.0624 -0.1791
14787SOL    HW146368   9.618   8.389  10.113 -1.3318 -1.9618  1.1098
14787SOL    HW246369   9.692   8.271  10.170  1.2541 -1.6916 -1.4657
14788SOL     OW46370   7.881   3.304   9.593  0.2217  0.5378 -0.1129
14788SOL    HW146371   7.943   3.356   9.540 -1.1045 -0.4280 -2.7982
14788SOL    HW246372   7.832   3.253   9.529 -2.1134 -0.1273  2.0516
14789SOL     OW46373   4.691   3.223   3.559 -0.0408 -0.2880  0.2119
14789SOL    HW146374   4.651   3.137   3.569  1.1900 -0.8561  0.4273
14789SOL    HW246375   4.774   3.207   3.513  0.5014  0.6834  0.7882
14790SOL     OW46376   7.669   7.967   7.049  0.1155 -0.9520 -0.4914
14790SOL    HW146377   7.629   8.012   6.975  1.1895  0.7205 -0.1310
14790SOL    HW246378   7.676   7.876   7.021 -2.2954 -0.9871 -1.2003
14791SOL     OW46379   3.889   7.929   1.131  0.5518  0.5783 -0.1037
14791SOL    HW146380   3.807   7.924   1.181 -0.2951  3.8901 -0.9069
14791SOL    HW246381   3.945   7.987   1.183  2.1980 -1.0375  0.0537
14792SOL     OW46382   7.379   8.374   7.643 -0.9403 -0.4042 -0.0074
14792SOL    HW146383   7.303   8.354   7.589 -0.9016 -1.3265  0.2592
14792SOL    HW246384   7.454   8.361   7.585 -0.9694  0.2569 -0.1989
14793SOL     OW46385  10.461   8.843   4.775  0.1461  0.6724  0.3890
14793SOL    HW146386  10.431   8.814   4.861 -2.9070  0.2671 -0.6791
14793SOL    HW246387  10.478   8.937   4.785  0.2797  0.5331  1.5213
14794SOL     OW46388   4.321   9.671  10.764  0.3051  0.2948 -0.0189
14794SOL    HW146389   4.340   9.761  10.790 -0.9945  1.0191 -1.4480
14794SOL    HW246390   4.239   9.650  10.807  1.2347 -0.7216  1.3603
14795SOL     OW46391   8.580   5.148   9.044 -0.2717  0.1111 -0.2583
14795SOL    HW146392   8.663   5.187   9.018 -0.0507  0.0047  0.2582
14795SOL    HW246393   8.584   5.058   9.011  0.0618 -0.0637  0.2354
14796SOL     OW46394   4.949   5.107   5.773 -0.3018 -0.1012  0.1750
14796SOL    HW146395   4.957   5.129   5.866 -0.8295  1.0757 -0.0302
14796SOL    HW246396   4.861   5.138   5.749  0.8566  2.3095 -1.3696
14797SOL     OW46397   3.320   2.707   1.800 -0.7156  0.0195 -0.4604
14797SOL    HW146398   3.369   2.683   1.722  1.8875  0.6804  0.8432
14797SOL    HW246399   3.313   2.802   1.797 -2.4174 -0.0864 -0.8446
14798SOL     OW46400   4.339   9.576   0.278  0.1421 -0.1418  0.2095
14798SOL    HW146401   4.422   9.577   0.325  0.1738 -0.1750  0.1540
14798SOL    HW246402   4.306   9.486   0.289 -0.2916  0.0980  0.9450
14799SOL     OW46403   3.761   6.356   7.014 -0.5755  0.1012 -0.4775
14799SOL    HW146404   3.729   6.299   6.944  0.7057 -0.5462 -0.5625
14799SOL    HW246405   3.682   6.382   7.061 -1.1783 -2.1220 -0.1352
14800SOL     OW46406   6.084   4.485   7.680  0.6527  0.1874  0.4907
14800SOL    HW146407   6.060   4.406   7.631  0.5728  1.2342 -1.2583
14800SOL    HW246408   6.041   4.556   7.633  3.9247  1.7425 -0.4660
14801SOL     OW46409   9.413   1.066   5.212 -0.2628 -0.7108  0.3211
14801SOL    HW146410   9.349   1.108   5.156 -0.7666 -2.9311 -0.9023
14801SOL    HW246411   9.488   1.049   5.155 -0.3582 -2.0509  0.5556
14802SOL     OW46412   8.904   3.909   2.085 -0.4140  0.6182  0.5572
14802SOL    HW146413   8.837   3.949   2.030 -0.0406 -0.8753 -1.0669
14802SOL    HW246414   8.898   3.815   2.065  2.9479  0.5158 -0.5825
14803SOL     OW46415   2.483   0.323   1.641  0.2220 -0.0233  0.3608
14803SOL    HW146416   2.403   0.306   1.692  0.1793 -0.4367  0.1566
14803SOL    HW246417   2.550   0.268   1.681 -0.0458 -1.1011 -0.6336
14804SOL     OW46418   3.603   8.895   8.548  0.1543 -0.0194 -0.0029
14804SOL    HW146419   3.685   8.932   8.581  0.2519 -1.9249  2.1634
14804SOL    HW246420   3.537   8.923   8.612 -0.2346 -1.2848  0.1874
14805SOL     OW46421  10.343   4.312   9.157  0.6805 -0.2845  0.2682
14805SOL    HW146422  10.315   4.375   9.223  1.6259  0.7241 -0.2751
14805SOL    HW246423  10.303   4.229   9.185 -0.0055  0.3937  1.3712
14806SOL     OW46424   1.821   9.383   9.484 -0.1227  0.0271  0.3017
14806SOL    HW146425   1.845   9.320   9.416  1.8603  2.1649 -1.1122
14806SOL    HW246426   1.892   9.378   9.548  0.5382  1.3850 -0.2805
14807SOL     OW46427   1.671   1.036  10.027  0.1928 -0.4295  0.3477
14807SOL    HW146428   1.579   1.025  10.000 -0.3632  2.6303  0.6067
14807SOL    HW246429   1.666   1.084  10.109  2.0616 -1.7786  1.3205
14808SOL     OW46430   4.102  10.700   9.943 -0.0656  0.1190 -0.1156
14808SOL    HW146431   4.101  10.795   9.932 -0.0022 -0.0212 -1.5148
14808SOL    HW246432   4.010  10.676   9.952 -0.0255  0.3966  1.2622
14809SOL     OW46433   8.381   7.387   0.319 -0.4712 -0.3103  0.2440
14809SOL    HW146434   8.351   7.316   0.376  0.9863 -1.2592 -0.0819
14809SOL    HW246435   8.407   7.457   0.379 -1.0308 -0.4227  0.6239
14810SOL     OW46436   7.615   2.261  10.975  0.1848  0.0863  0.2155
14810SOL    HW146437   7.673   2.195  10.937  0.3009  1.1216 -1.5372
14810SOL    HW246438   7.667   2.302  11.043  1.8010  1.3458 -1.6612
14811SOL     OW46439   5.204   9.061   2.050 -0.3519  0.2567 -0.4457
14811SOL    HW146440   5.276   9.012   2.091  1.6703 -0.5790 -4.4419
14811SOL    HW246441   5.131   8.999   2.048  0.2426 -0.4737 -0.1798
14812SOL     OW46442  11.064   4.815   0.177  0.4964  0.1753 -0.1544
14812SOL    HW146443  11.025   4.836   0.262 -0.1643  0.5404 -0.5433
14812SOL    HW246444  10.997   4.837   0.113  0.2153 -1.9685 -0.6657
14813SOL     OW46445   1.710   0.654   7.564 -0.5472 -0.5827  0.3914
14813SOL    HW146446   1.760   0.728   7.599 -1.1799 -0.7984  1.7910
14813SOL    HW246447   1.738   0.648   7.472  1.6276 -0.4029  0.9945
14814SOL     OW46448   8.455   7.172   5.906 -0.4176 -0.5521  0.1291
14814SOL    HW146449   8.487   7.109   5.841 -0.9327 -1.3222  0.6054
14814SOL    HW246450   8.533   7.197   5.956  0.0142  0.1735 -0.8731
14815SOL     OW46451   9.289   6.328   7.455 -0.1238 -0.2269  0.5084
14815SOL    HW146452   9.314   6.408   7.408 -2.4648  1.4291  1.8221
14815SOL    HW246453   9.328   6.339   7.542  0.2671 -0.9410  0.4238
14816SOL     OW46454  10.316   3.016   7.053  0.5482 -0.0325  0.2067
14816SOL    HW146455  10.374   3.087   7.080 -1.0632  0.9791  1.1731
14816SOL    HW246456  10.371   2.937   7.058  1.8722  0.8895  0.9085
14817SOL     OW46457   7.312   1.026   9.877  0.4646 -0.2650  0.1941
14817SOL    HW146458   7.346   1.018   9.966  1.3445  1.6126  0.0681
14817SOL    HW246459   7.247   1.097   9.882  0.0877 -0.5442 -0.5381
14818SOL     OW46460   6.558   4.429   2.236  0.4641  0.1826  0.0786
14818SOL    HW146461   6.507   4.508   2.217  1.4347  0.9649  0.6591
14818SOL    HW246462   6.634   4.461   2.285  1.5861 -0.9496 -0.8933
14819SOL     OW46463   6.212   3.246   0.300 -0.5821 -0.1652 -0.4348
14819SOL    HW146464   6.165   3.222   0.380  0.5939 -0.3654  0.2200
14819SOL    HW246465   6.295   3.200   0.307  0.5684  1.8016 -0.5667
14820SOL     OW46466   7.976   1.768   8.219  0.7351  0.4102 -0.1636
14820SOL    HW146467   8.062   1.738   8.249  0.2502 -1.2572 -0.3313
14820SOL    HW246468   7.988   1.783   8.125  1.9921  4.6887  0.4437
14821SOL     OW46469   7.365   4.966   6.600  0.0128  0.2897  0.1950
14821SOL    HW146470   7.299   5.031   6.576  0.0376  0.6031  0.9438
14821SOL    HW246471   7.321   4.910   6.664  0.3248  0.2212  0.3519
14822SOL     OW46472   7.918   1.835   6.560  0.7698  0.7350 -0.0264
14822SOL    HW146473   7.966   1.762   6.599 -2.3823 -1.2610  0.3952
14822SOL    HW246474   7.880   1.799   6.480 -3.7455  0.5929  1.9046
14823SOL     OW46475  11.124   5.770   1.058  0.1282 -0.7210  0.5075
14823SOL    HW146476  11.190   5.809   1.115  1.1822 -1.8832  0.1143
14823SOL    HW246477  11.160   5.779   0.969 -1.9023  1.9306 -0.1808
14824SOL     OW46478   6.613   3.083   0.607 -0.0503  0.3111 -0.4469
14824SOL    HW146479   6.622   3.137   0.528  1.5358 -0.3986 -0.7914
14824SOL    HW246480   6.647   2.997   0.581 -2.4832 -0.8891  0.0877
14825SOL     OW46481   6.030   1.459   8.470 -0.4696 -0.6123  0.3918
14825SOL    HW146482   6.115   1.488   8.503 -0.1018  0.7174 -1.5817
14825SOL    HW246483   6.004   1.526   8.407 -2.3125 -1.7349 -0.1178
14826SOL     OW46484   8.114   3.757  10.851 -0.2466  0.1750 -0.5358
14826SOL    HW146485   8.136   3.664  10.856 -1.9604 -0.3247 -1.4504
14826SOL    HW246486   8.024   3.759  10.817 -0.2311  2.1727 -0.6031
14827SOL     OW46487   5.460   5.844   1.899  0.1330 -0.5084  0.1105
14827SOL    HW146488   5.472   5.816   1.990 -0.7571 -0.5554  0.2197
14827SOL    HW246489   5.399   5.780   1.863 -0.1241 -0.0323 -0.3000
14828SOL     OW46490   4.654  10.827   9.465 -0.2090  0.1949  0.3465
14828SOL    HW146491   4.597  10.758   9.499  0.7657  0.0555  1.7979
14828SOL    HW246492   4.595  10.899   9.444 -0.9870 -0.1803  1.2024
14829SOL     OW46493   3.112   4.686   8.070  0.2293  0.1805  0.3814
14829SOL    HW146494   3.103   4.634   7.990  1.2939  0.2979  0.1670
14829SOL    HW246495   3.206   4.704   8.076  0.1932 -0.0278  1.7853
14830SOL     OW46496   2.259   9.082   2.933  0.1246  0.7073 -0.3333
14830SOL    HW146497   2.255   9.138   3.011  1.4300 -1.3839  1.3335
14830SOL    HW246498   2.324   9.125   2.876  1.9555  0.4066  1.4085
14831SOL     OW46499   7.977   7.709   7.637  0.2873  0.0585  0.2907
14831SOL    HW146500   8.011   7.692   7.550  0.5943 -1.6199  0.7098
14831SOL    HW246501   8.045   7.759   7.681  1.0410 -0.8921  0.2279
14832SOL     OW46502   2.948  10.569   1.284  0.6377 -0.5787  0.5110
14832SOL    HW146503   2.982  10.560   1.195  1.9728 -3.0785  1.1907
14832SOL    HW246504   2.856  10.544   1.276  0.5601 -0.0894 -0.2747
14833SOL     OW46505   1.793   8.097   5.579  0.2720 -0.3229  0.2037
14833SOL    HW146506   1.755   8.099   5.667  3.0825  0.9735  1.4958
14833SOL    HW246507   1.879   8.058   5.590  1.1687  0.9522 -1.7442
14834SOL     OW46508  10.799  10.282   5.844 -0.7636 -0.4169 -0.0395
14834SOL    HW146509  10.754  10.282   5.928 -0.0557 -3.3110  0.4351
14834SOL    HW246510  10.881  10.329   5.860 -0.9306 -0.3715  0.6901
14835SOL     OW46511   9.656   4.625  10.154  1.2050  0.0961  0.1259
14835SOL    HW146512   9.588   4.626  10.221  0.9208  1.6388 -0.1529
14835SOL    HW246513   9.712   4.551  10.178 -0.7098 -1.4163  0.1727
14836SOL     OW46514   5.293   1.997   5.109 -0.0406  0.8554 -0.1058
14836SOL    HW146515   5.204   2.017   5.079 -0.0297  0.6997 -0.2405
14836SOL    HW246516   5.295   1.902   5.115  0.0529  0.8706  0.0968
14837SOL     OW46517   4.933   5.457   7.051  0.2321  0.1758 -0.7943
14837SOL    HW146518   4.853   5.427   7.008 -0.0250 -0.1223 -0.1238
14837SOL    HW246519   4.998   5.390   7.031  0.3129  0.4049 -1.3167
14838SOL     OW46520   9.349  10.690  10.845 -0.0107  0.4872 -0.0112
14838SOL    HW146521   9.418  10.756  10.855 -0.1750  1.1463 -2.4196
14838SOL    HW246522   9.386  10.626  10.784 -2.0562  1.8729 -2.9640
14839SOL     OW46523   6.615   3.394   4.898 -0.0206  0.4293 -0.1029
14839SOL    HW146524   6.532   3.366   4.860  0.9686 -2.4439 -0.4237
14839SOL    HW246525   6.648   3.317   4.944  1.9502  1.8252  0.9879
14840SOL     OW46526   1.762   3.870   5.692 -0.0048  0.8820 -0.1271
14840SOL    HW146527   1.823   3.805   5.658 -1.5179 -0.7437  0.1469
14840SOL    HW246528   1.759   3.854   5.786 -0.0144  1.6975  0.0217
14841SOL     OW46529   8.883   3.487   9.060  0.3321 -0.1132 -0.3717
14841SOL    HW146530   8.816   3.463   9.124  0.7956  0.2305  0.2637
14841SOL    HW246531   8.922   3.404   9.034 -1.1843 -0.4504 -1.7365
14842SOL     OW46532   8.011   0.912   4.526 -0.1219  0.1525 -0.0563
14842SOL    HW146533   8.019   0.993   4.577 -3.3785  1.5935 -1.5542
14842SOL    HW246534   7.938   0.866   4.566  0.3067 -1.0056 -0.5753
14843SOL     OW46535  10.369   8.279   2.639 -0.1488  0.0411 -0.1521
14843SOL    HW146536  10.301   8.256   2.704 -1.0549 -0.7304 -1.3222
14843SOL    HW246537  10.393   8.369   2.660 -1.2714  0.2053  0.5286
14844SOL     OW46538   8.399   9.694  10.638 -0.1943  0.5739  0.9912
14844SOL    HW146539   8.308   9.664  10.632 -0.3762  0.9194  1.8640
14844SOL    HW246540   8.396   9.785  10.610 -0.0005  0.4076  0.4075
14845SOL     OW46541   5.642   6.994   2.232  0.3004  0.2787  0.7820
14845SOL    HW146542   5.639   6.900   2.212 -1.5458  0.6414 -0.9425
14845SOL    HW246543   5.734   7.017   2.222  0.4164 -0.8624 -1.4030
14846SOL     OW46544   4.394   0.397   2.597 -0.3564 -0.2346 -0.2998
14846SOL    HW146545   4.403   0.434   2.509 -0.1290 -1.0748 -0.6424
14846SOL    HW246546   4.327   0.329   2.587  0.1453 -0.7833  0.0260
14847SOL     OW46547   9.853   8.274   9.876 -0.3208  0.4443 -0.7568
14847SOL    HW146548   9.912   8.227   9.936 -0.8087  0.9308  0.1168
14847SOL    HW246549   9.790   8.318   9.933 -1.1839  0.4080 -1.6572
14848SOL     OW46550   3.089   3.939   8.597 -0.5959  0.3002 -0.5930
14848SOL    HW146551   3.041   3.985   8.666 -0.4939  0.4058 -0.5924
14848SOL    HW246552   3.129   4.009   8.545  1.2368  0.1772  0.5851
14849SOL     OW46553   6.652   9.062   9.756 -0.2295  1.0631 -0.5358
14849SOL    HW146554   6.683   8.991   9.812  0.2851  1.0807 -0.7905
14849SOL    HW246555   6.597   9.019   9.691  2.6096  0.3748 -2.6855
14850SOL     OW46556   8.029   8.661   5.320  0.3499  0.5694  0.2269
14850SOL    HW146557   8.054   8.725   5.386 -0.6944  2.0706 -0.7521
14850SOL    HW246558   7.948   8.696   5.282  1.1054 -0.0241 -2.0809
14851SOL     OW46559   8.010   9.415   4.762  0.1924 -0.0955  0.4263
14851SOL    HW146560   8.026   9.322   4.747  5.3037  0.7704 -1.6274
14851SOL    HW246561   7.987   9.449   4.675 -2.0531  0.6001  1.2357
14852SOL     OW46562   0.512   6.995   6.485  0.1669  0.1499 -0.1969
14852SOL    HW146563   0.431   7.035   6.452 -1.3383 -1.2337  1.6261
14852SOL    HW246564   0.512   6.907   6.448  0.4868 -0.0879  0.3692
14853SOL     OW46565   2.649   8.189   9.497  0.0149 -0.5588 -0.0761
14853SOL    HW146566   2.583   8.242   9.542  0.1396 -1.3118  1.0203
14853SOL    HW246567   2.604   8.106   9.478  0.0759 -0.3847 -1.0363
14854SOL     OW46568   9.378   3.324   9.231 -0.6549  0.5333 -0.0845
14854SOL    HW146569   9.431   3.395   9.195  0.0083  0.7486  1.2622
14854SOL    HW246570   9.292   3.334   9.188 -0.4829  1.9648 -0.1357
14855SOL     OW46571   1.635  10.485   5.324 -0.3106  0.5212 -0.4767
14855SOL    HW146572   1.642  10.390   5.332  1.7862  0.5573 -1.3536
14855SOL    HW246573   1.693  10.507   5.252 -1.4778  2.3988 -0.9074
14856SOL     OW46574   0.722   8.629  10.293  0.3084  0.0964  0.0959
14856SOL    HW146575   0.751   8.710  10.335  0.3454  0.6704 -1.0183
14856SOL    HW246576   0.634   8.614  10.329  0.7187  0.0232  1.1193
14857SOL     OW46577   1.223  11.090   7.324 -0.0177  0.2147  0.9034
14857SOL    HW146578   1.175  11.060   7.401  0.0625  0.0386  0.8857
14857SOL    HW246579   1.161  11.078   7.251  0.3641 -0.9099  0.7345
14858SOL     OW46580   3.682   3.288   2.697  0.0707  1.0233 -0.3251
14858SOL    HW146581   3.599   3.335   2.707 -3.0379 -3.4637 -1.7732
14858SOL    HW246582   3.694   3.279   2.603  0.0637 -1.4940 -0.1619
14859SOL     OW46583   8.869   2.985   3.645 -0.1547 -0.4065 -0.3422
14859SOL    HW146584   8.827   3.069   3.625  3.0253  1.4441 -0.0850
14859SOL    HW246585   8.809   2.919   3.612 -1.2426  2.0571 -3.9307
14860SOL     OW46586   5.133   3.646   7.134 -0.5767 -0.0830 -0.5430
14860SOL    HW146587   5.040   3.662   7.119 -0.3321  1.6867 -0.3798
14860SOL    HW246588   5.135   3.570   7.193 -2.0167  0.9638  0.9565
14861SOL     OW46589   7.179   6.918   5.859  0.0648 -0.1908 -0.3653
14861SOL    HW146590   7.148   6.970   5.933  0.2862 -1.9215  1.0169
14861SOL    HW246591   7.111   6.929   5.792 -2.5375 -2.0548  1.7346
14862SOL     OW46592   7.803   3.173   6.994 -0.1320 -0.4187  0.2317
14862SOL    HW146593   7.884   3.222   6.985 -0.6364  0.3022 -0.5969
14862SOL    HW246594   7.771   3.163   6.904  0.6731 -3.5742  0.1817
14863SOL     OW46595   8.727   4.044   0.885  0.0729 -0.2262  0.3218
14863SOL    HW146596   8.806   4.025   0.833 -0.8482 -1.2953 -0.7668
14863SOL    HW246597   8.750   4.019   0.974  1.2219  0.2187  0.1614
14864SOL     OW46598   9.774   9.002   4.792  0.8335  0.2134 -0.1661
14864SOL    HW146599   9.848   8.974   4.846 -0.5643  0.0538  1.7510
14864SOL    HW246600   9.797   8.972   4.704  2.2241 -1.4421  0.6821
14865SOL     OW46601   4.581   6.544   3.396  0.1883 -0.4575  1.0517
14865SOL    HW146602   4.622   6.459   3.409  2.4654  0.5577  1.0793
14865SOL    HW246603   4.505   6.544   3.453 -2.3245 -3.9119 -1.8335
14866SOL     OW46604   1.369   4.446   9.159 -0.4083  0.1270 -0.0956
14866SOL    HW146605   1.408   4.359   9.163  1.3719  0.9100  0.9922
14866SOL    HW246606   1.406   4.484   9.079  0.5326  0.6083  0.5487
14867SOL     OW46607   6.132   6.360   7.303 -0.1829 -0.2583  0.3940
14867SOL    HW146608   6.061   6.306   7.338 -1.2880  0.2288 -1.0059
14867SOL    HW246609   6.093   6.446   7.289  0.3556 -0.2512 -1.3962
14868SOL     OW46610   9.629   5.959   6.328 -0.4422 -0.2595  0.7718
14868SOL    HW146611   9.645   5.967   6.422 -0.4287 -1.5069  0.8855
14868SOL    HW246612   9.678   5.881   6.302  1.9843  1.6493 -0.8515
14869SOL     OW46613   0.022   3.487   1.629  0.3640 -0.4762 -0.5868
14869SOL    HW146614  -0.038   3.448   1.692  0.7352  0.6331  0.5020
14869SOL    HW246615  -0.033   3.546   1.577 -0.1341 -2.1247 -2.0207
14870SOL     OW46616   7.739   3.525   3.096  0.1438  0.9667  0.2580
14870SOL    HW146617   7.736   3.449   3.154  1.6953  0.6257 -0.0578
14870SOL    HW246618   7.746   3.600   3.155 -0.4405  0.8070  0.5449
14871SOL     OW46619   8.845  11.029   4.048  0.2002 -0.3169  0.1076
14871SOL    HW146620   8.776  11.072   4.098 -0.2220 -0.8144 -0.0456
14871SOL    HW246621   8.895  11.101   4.010  1.3257  0.1212  2.2753
14872SOL     OW46622  11.147   4.622   1.035 -0.5096  0.4156 -0.1025
14872SOL    HW146623  11.056   4.602   1.013 -0.3792 -1.4683  0.8651
14872SOL    HW246624  11.181   4.541   1.072  1.8554  0.8032 -1.2497
14873SOL     OW46625   9.180  10.111   5.815 -0.2776  0.1664 -0.0251
14873SOL    HW146626   9.211  10.105   5.905 -1.6678  1.6532  0.6014
14873SOL    HW246627   9.162  10.020   5.790  0.1723 -0.2724  1.1721
14874SOL     OW46628   8.360   2.308   8.137 -0.0972 -0.6147 -0.0714
14874SOL    HW146629   8.364   2.314   8.233  1.3296 -0.5442 -0.1240
14874SOL    HW246630   8.267   2.322   8.117 -0.4684 -0.8770  1.3102
14875SOL     OW46631   5.401  11.241   8.214 -1.0686  0.2633 -0.2863
14875SOL    HW146632   5.447  11.235   8.131 -0.6643  0.8682 -0.1125
14875SOL    HW246633   5.334  11.173   8.210 -1.3165  0.5517 -1.2693
14876SOL     OW46634   9.885   8.417   2.853 -0.1143  0.5127  0.0564
14876SOL    HW146635   9.827   8.346   2.825  0.9346  0.0296 -0.9845
14876SOL    HW246636   9.949   8.425   2.782 -0.4609  2.8151 -0.0734
14877SOL     OW46637   7.357   3.854  11.255  0.2044 -0.3074 -0.3719
14877SOL    HW146638   7.340   3.924  11.193  1.3612  0.3101 -0.0154
14877SOL    HW246639   7.436   3.881  11.301 -0.3011 -1.0296  0.9735
14878SOL     OW46640   7.256   8.869  10.372 -0.5467  0.0434  0.0429
14878SOL    HW146641   7.214   8.797  10.418 -1.7471 -0.1443 -1.2609
14878SOL    HW246642   7.337   8.831  10.338  0.7070  0.3688  2.4562
14879SOL     OW46643   5.417   0.534   2.514  0.2096  0.1720  0.2645
14879SOL    HW146644   5.506   0.571   2.512  0.4632 -0.4250  0.3801
14879SOL    HW246645   5.388   0.537   2.422 -0.5375  2.4475  0.5118
14880SOL     OW46646   9.250   0.137   1.155  0.3544 -0.4488  0.2077
14880SOL    HW146647   9.256   0.136   1.251  1.9020  0.5394  0.1656
14880SOL    HW246648   9.291   0.220   1.130  0.3189 -0.8709 -1.3361
14881SOL     OW46649   1.868   1.588   6.671 -0.7523  0.4089  0.0811
14881SOL    HW146650   1.907   1.640   6.601 -1.3977  0.2065 -0.4383
14881SOL    HW246651   1.912   1.503   6.665 -1.0477  0.2798 -0.3077
14882SOL     OW46652   7.382  10.826   0.093  0.2176 -0.1393 -0.0783
14882SOL    HW146653   7.323  10.853   0.023  0.1435  1.1496  0.4488
14882SOL    HW246654   7.469  10.822   0.053  0.2600  1.1205 -0.1289
14883SOL     OW46655   4.307   1.979   9.712 -0.2447  0.5379  0.3006
14883SOL    HW146656   4.305   1.950   9.621 -0.6988 -2.3450  1.1059
14883SOL    HW246657   4.401   1.988   9.732 -0.1222  0.5754 -0.2912
14884SOL     OW46658   5.246  10.817   2.802  0.2888 -0.3700 -0.0779
14884SOL    HW146659   5.299  10.892   2.827  0.3208 -0.3816 -0.1111
14884SOL    HW246660   5.159  10.853   2.785  0.5975 -0.1446 -1.3114
14885SOL     OW46661   0.328   1.323  10.406 -0.4951 -0.1179  0.0752
14885SOL    HW146662   0.327   1.388  10.336  0.1725  0.4515  0.5775
14885SOL    HW246663   0.415   1.284  10.402 -1.4013 -2.1840 -1.2576
14886SOL     OW46664   7.156   8.950  11.078 -0.0937 -0.0304  0.1924
14886SOL    HW146665   7.225   8.998  11.031 -0.4603  0.1272 -0.1945
14886SOL    HW246666   7.177   8.962  11.170 -0.3455  1.1380  0.1172
14887SOL     OW46667   7.846   7.010   6.862 -0.3597  0.1956 -0.1596
14887SOL    HW146668   7.919   7.063   6.892  0.1594 -0.3357 -0.4781
14887SOL    HW246669   7.885   6.928   6.834 -0.6841  0.8855 -2.9960
14888SOL     OW46670   9.110   0.773   4.790 -0.2124 -0.2531  0.2866
14888SOL    HW146671   9.088   0.683   4.767  2.5275 -1.3542  1.5272
14888SOL    HW246672   9.050   0.795   4.861 -0.7304 -1.2091  0.1525
14889SOL     OW46673   9.834   2.602   5.776  0.1361 -0.1954  0.7475
14889SOL    HW146674   9.757   2.604   5.720  1.1028 -0.3884 -0.6304
14889SOL    HW246675   9.802   2.629   5.862 -1.0442  1.9751 -0.2935
14890SOL     OW46676   7.172   6.380   6.009  0.8394 -0.2668  0.3779
14890SOL    HW146677   7.165   6.420   6.096 -1.3513  0.5053 -0.0805
14890SOL    HW246678   7.085   6.391   5.971  1.2606 -2.1102 -1.2777
14891SOL     OW46679  10.470   9.417   7.974 -0.2199 -0.1536 -0.3263
14891SOL    HW146680  10.421   9.412   7.892  1.8250  0.8639 -1.6915
14891SOL    HW246681  10.513   9.331   7.982 -0.7346 -0.3958 -0.0731
14892SOL     OW46682   9.002   1.318  10.337 -0.1730  0.7924  0.5807
14892SOL    HW146683   9.000   1.286  10.247  0.9595  0.4135  0.6816
14892SOL    HW246684   9.045   1.249  10.387 -1.1525  0.8128  1.5031
14893SOL     OW46685   0.211   4.006   4.829 -0.2950  0.0023  0.0696
14893SOL    HW146686   0.130   3.958   4.847 -0.2505 -0.2863 -0.4865
14893SOL    HW246687   0.278   3.938   4.821 -0.0064  0.2355  0.4539
14894SOL     OW46688   8.019   8.351   6.433 -0.2980 -0.3931 -0.3138
14894SOL    HW146689   8.059   8.430   6.470  0.8660 -0.6351 -1.0173
14894SOL    HW246690   8.084   8.317   6.371 -1.6844 -0.6516 -1.7112
14895SOL     OW46691   0.948   5.617  11.040 -0.2430  0.0328  0.7244
14895SOL    HW146692   0.969   5.704  11.006 -0.6538  0.1895  0.8655
14895SOL    HW246693   1.013   5.560  11.000 -0.7812  0.1956 -0.4234
14896SOL     OW46694   8.253   0.969   9.382 -0.0073 -0.0208 -0.2606
14896SOL    HW146695   8.232   0.940   9.293 -0.1573  0.2766 -0.3221
14896SOL    HW246696   8.309   1.045   9.370 -0.2802  0.2072 -0.1024
14897SOL     OW46697   0.793   5.260   0.588  0.2013 -0.0767  0.5176
14897SOL    HW146698   0.790   5.285   0.495  0.8077  0.9753  0.7665
14897SOL    HW246699   0.722   5.311   0.629  1.0395  0.8124  0.9157
14898SOL     OW46700   7.535  11.130   6.299 -0.0131 -0.8494 -0.1377
14898SOL    HW146701   7.544  11.038   6.273  1.5609 -1.2624  1.6489
14898SOL    HW246702   7.624  11.164   6.300 -0.6436  1.0499 -1.7343
14899SOL     OW46703   9.090   9.913   3.910  0.2510  0.6659  0.7138
14899SOL    HW146704   9.083   9.916   4.005  1.9738 -0.8399  0.9422
14899SOL    HW246705   9.162   9.852   3.893 -1.2371 -0.5988 -1.6045
14900SOL     OW46706   4.210   9.706   2.892  0.0708  0.2970 -0.4266
14900SOL    HW146707   4.232   9.620   2.925  0.5974 -0.7566 -3.2057
14900SOL    HW246708   4.293   9.742   2.861 -0.5776  0.4137 -2.1567
14901SOL     OW46709   1.575   1.289   0.194 -0.6978 -0.6715  0.3274
14901SOL    HW146710   1.587   1.214   0.135 -1.1951 -0.3521 -0.1839
14901SOL    HW246711   1.605   1.364   0.143  1.2377 -0.6804  1.3651
14902SOL     OW46712   5.431   8.791   9.480 -0.6806  0.1344  0.2810
14902SOL    HW146713   5.416   8.794   9.385 -0.0746  3.4035  0.1868
14902SOL    HW246714   5.500   8.725   9.490 -0.8244 -0.3694 -1.5183
14903SOL     OW46715  11.021   5.452   1.721 -0.4310  0.0921 -0.8892
14903SOL    HW146716  11.015   5.357   1.718 -0.5831  0.1365 -2.5961
14903SOL    HW246717  10.940   5.483   1.682 -0.5080  0.9444 -0.1018
14904SOL     OW46718   9.926   6.650   5.834  0.3819 -0.7165  0.5500
14904SOL    HW146719   9.841   6.644   5.789  0.2622  1.0353  0.4425
14904SOL    HW246720   9.980   6.583   5.794 -0.3196 -0.4665 -0.8696
14905SOL     OW46721   8.485   8.679   6.562  0.0543  0.9559 -0.2978
14905SOL    HW146722   8.559   8.623   6.535 -1.0480 -1.1343  0.7289
14905SOL    HW246723   8.469   8.735   6.487  2.6693  1.5202 -0.5580
14906SOL     OW46724  11.149   7.061  10.889 -0.2832  0.4329 -0.8745
14906SOL    HW146725  11.223   7.035  10.835  1.7959 -2.2564  2.8403
14906SOL    HW246726  11.183   7.129  10.946 -1.3977  0.7926 -0.6048
14907SOL     OW46727   4.126   7.400   2.658  0.3056  0.5804  0.6071
14907SOL    HW146728   4.069   7.432   2.587  2.0420  1.6088 -0.3964
14907SOL    HW246729   4.213   7.395   2.618  0.7660 -1.9929  1.7987
14908SOL     OW46730   5.919   8.176   5.772 -0.1655 -0.2131  1.2545
14908SOL    HW146731   6.000   8.129   5.790  0.4025  0.5634  0.7947
14908SOL    HW246732   5.945   8.268   5.766 -0.9628 -0.0240  0.4300
14909SOL     OW46733   2.721   8.617   9.512 -0.0174  0.5415 -0.1060
14909SOL    HW146734   2.739   8.563   9.435 -1.2738  0.6611 -0.5076
14909SOL    HW246735   2.638   8.660   9.492  0.1489  1.3711  0.8937
14910SOL     OW46736   8.381   5.859   4.897 -0.3286  0.2655 -0.5531
14910SOL    HW146737   8.408   5.879   4.987  0.2642 -0.6959 -0.5026
14910SOL    HW246738   8.326   5.781   4.907 -1.9109  1.2986 -0.8231
14911SOL     OW46739   7.687   9.822   0.630  0.4284  0.1792 -0.3802
14911SOL    HW146740   7.713   9.914   0.626 -1.4279  0.7709  0.0450
14911SOL    HW246741   7.758   9.779   0.677  0.3308  1.8066  1.3474
14912SOL     OW46742   1.584   5.709   5.707 -0.1922 -0.2811  0.8639
14912SOL    HW146743   1.498   5.743   5.732 -1.1841 -1.1800 -1.0928
14912SOL    HW246744   1.605   5.755   5.626 -0.0059 -1.8197 -0.0013
14913SOL     OW46745   5.588   1.687   4.565  0.1708 -0.0852 -0.8832
14913SOL    HW146746   5.519   1.655   4.624 -0.0166 -1.3875 -1.7776
14913SOL    HW246747   5.625   1.762   4.611  1.3275 -2.1355  1.8692
14914SOL     OW46748   7.158   5.382   1.439  0.2317  0.4192  0.2424
14914SOL    HW146749   7.072   5.346   1.417  0.0005  0.2457  1.3799
14914SOL    HW246750   7.147   5.477   1.430  0.6516  0.2973 -2.0881
14915SOL     OW46751  10.104   0.980   7.973 -0.4219  0.3796 -0.1253
14915SOL    HW146752  10.107   0.897   8.019 -2.7980  0.8866  1.1102
14915SOL    HW246753  10.188   0.985   7.927 -0.0552 -2.4904  0.0374
14916SOL     OW46754   5.455   4.356   5.930  0.1024 -0.2206 -0.5087
14916SOL    HW146755   5.417   4.443   5.947 -0.0915 -0.3049 -0.5023
14916SOL    HW246756   5.548   4.373   5.915 -0.0805  0.0973 -1.3481
14917SOL     OW46757   0.960   0.542   5.364 -0.6681  0.3329  0.3200
14917SOL    HW146758   0.955   0.637   5.369 -0.5348  0.2998  1.1547
14917SOL    HW246759   1.030   0.518   5.425 -1.9527 -0.4299  1.5494
14918SOL     OW46760   8.039   8.037   5.237  0.2426  0.4583  0.6441
14918SOL    HW146761   8.066   8.121   5.275  1.5655  0.8806 -1.0898
14918SOL    HW246762   7.951   8.023   5.270  0.7725  1.5022  2.6239
14919SOL     OW46763   7.310   7.391   4.932  0.4125 -0.0786 -0.6219
14919SOL    HW146764   7.307   7.414   5.025 -0.9885 -1.3400 -0.3232
14919SOL    HW246765   7.294   7.474   4.887  2.3352  0.8030  0.1691
14920SOL     OW46766   2.124  11.111   1.998  0.2348  0.0111 -0.2702
14920SOL    HW146767   2.147  11.153   1.915 -0.4561 -0.9999 -0.9887
14920SOL    HW246768   2.052  11.052   1.976 -1.2435  1.0937  1.3943
14921SOL     OW46769   5.995  10.274   8.311 -0.1336 -0.3189  0.8039
14921SOL    HW146770   6.059  10.218   8.266 -1.2497  0.1934 -1.5767
14921SOL    HW246771   6.043  10.310   8.385  2.4578  0.1972 -0.9760
14922SOL     OW46772   1.428   1.139   1.483  0.5145  0.2301  0.5956
14922SOL    HW146773   1.503   1.198   1.492  0.6745  0.4917 -1.7077
14922SOL    HW246774   1.365   1.170   1.547  1.9530  0.6708  1.8579
14923SOL     OW46775   4.242   4.479  10.353  0.0000  1.1649 -0.2235
14923SOL    HW146776   4.198   4.429  10.422  0.4976 -1.2120 -1.5022
14923SOL    HW246777   4.171   4.524  10.307 -0.5861  0.8922  0.3947
14924SOL     OW46778   8.958   4.188   2.029 -0.3748  0.5222 -0.3011
14924SOL    HW146779   9.019   4.245   2.075 -1.0756  0.4559  0.7317
14924SOL    HW246780   9.014   4.135   1.971  0.5947  0.1363  0.9502
14925SOL     OW46781   2.046   7.144   3.826 -0.1960 -0.1471  0.2100
14925SOL    HW146782   2.122   7.164   3.771  0.8669 -2.4588  0.7228
14925SOL    HW246783   1.981   7.110   3.766 -0.4851  0.8895 -0.0891
14926SOL     OW46784   7.639   5.507   7.417  0.0097 -0.3661  0.2064
14926SOL    HW146785   7.578   5.451   7.368 -0.6632  1.5552 -1.3009
14926SOL    HW246786   7.582   5.568   7.464  0.7324 -0.6643  1.5149
14927SOL     OW46787   2.155   3.693   5.388  0.1848 -0.2054  0.0727
14927SOL    HW146788   2.217   3.644   5.442 -1.7887 -2.5449  0.3840
14927SOL    HW246789   2.156   3.647   5.304 -2.6348 -1.7098  0.7632
14928SOL     OW46790   2.363   3.613   2.903  0.2279 -0.4131 -0.2291
14928SOL    HW146791   2.327   3.524   2.900 -2.8118  0.7182 -0.7972
14928SOL    HW246792   2.334   3.652   2.820 -0.7858  1.8764  1.1320
14929SOL     OW46793   0.798   9.545   4.117 -0.4692  0.0069 -0.7642
14929SOL    HW146794   0.841   9.533   4.032  2.1186 -0.5053  0.5018
14929SOL    HW246795   0.820   9.634   4.143  2.7684 -1.2114  1.2749
14930SOL     OW46796  10.738   9.479  10.058  0.2903  0.0308  0.0650
14930SOL    HW146797  10.647   9.495  10.033  1.5237  1.9205 -4.3574
14930SOL    HW246798  10.771   9.564  10.087  0.8271 -0.4656  0.9422
14931SOL     OW46799   1.989   0.054  10.453  0.2227  0.0297 -0.4528
14931SOL    HW146800   1.939   0.109  10.393  0.4764  0.9092  0.1062
14931SOL    HW246801   1.924   0.020  10.514  0.1356  0.1598 -0.4728
14932SOL     OW46802   5.984   2.686   8.931  0.1245 -0.2993  0.0343
14932SOL    HW146803   6.055   2.666   8.870 -1.6888 -0.1577 -2.2858
14932SOL    HW246804   5.972   2.606   8.982  0.2892 -1.2598 -1.3597
14933SOL     OW46805   8.521   2.380   0.603  0.0341  0.2358  0.0574
14933SOL    HW146806   8.548   2.377   0.511  0.3971 -0.1622  0.1713
14933SOL    HW246807   8.564   2.459   0.637  1.3565 -0.5516  0.3110
14934SOL     OW46808   8.544   5.463   4.034  0.6914  1.0679 -0.0868
14934SOL    HW146809   8.593   5.448   3.953 -0.4671 -0.0497 -0.6270
14934SOL    HW246810   8.460   5.497   4.004  0.5440  1.4275  0.7213
14935SOL     OW46811   4.892   3.559   3.896 -0.0908  0.1820  0.1228
14935SOL    HW146812   4.980   3.549   3.933  0.2908 -0.9892 -1.0254
14935SOL    HW246813   4.832   3.536   3.967  0.5713 -0.6203  0.4281
14936SOL     OW46814   5.542   1.564  10.893  0.3411  0.2300 -0.2710
14936SOL    HW146815   5.627   1.554  10.850  0.5011 -0.6875  0.2270
14936SOL    HW246816   5.550   1.515  10.975 -0.6513  0.1589 -0.1947
14937SOL     OW46817   5.549   0.285   9.390 -0.6454  0.8254  0.1921
14937SOL    HW146818   5.555   0.380   9.385  2.8487  0.7362  0.0910
14937SOL    HW246819   5.507   0.258   9.309 -1.1320  2.2479 -0.0444
14938SOL     OW46820   2.684   3.348   0.974  0.3297 -0.2902 -0.6458
14938SOL    HW146821   2.693   3.253   0.970  0.9612 -0.2711  0.0345
14938SOL    HW246822   2.767   3.378   1.013 -0.3706  0.4343  0.3383
14939SOL     OW46823   6.318   3.101  10.106 -0.1785  0.5000  0.5853
14939SOL    HW146824   6.255   3.103  10.178 -1.2051  0.5514 -0.3061
14939SOL    HW246825   6.303   3.018  10.062  0.7434  0.2742  0.6598
14940SOL     OW46826   2.501   9.070   9.350  0.5898  0.2174  0.1803
14940SOL    HW146827   2.451   9.011   9.406  1.1974  0.7503  1.3124
14940SOL    HW246828   2.441   9.143   9.332  0.4418  0.1081  0.2323
14941SOL     OW46829   0.403  10.348   8.700  0.7743  0.0815  0.0176
14941SOL    HW146830   0.439  10.298   8.626 -1.0127 -0.8431 -0.2744
14941SOL    HW246831   0.371  10.429   8.661  0.2855 -0.1895 -0.1543
14942SOL     OW46832   7.937   6.714   2.466  0.8821 -0.2259  0.7300
14942SOL    HW146833   7.973   6.802   2.463 -0.3704  0.3065 -1.9026
14942SOL    HW246834   7.850   6.722   2.425  0.7525 -2.6719  0.3512
14943SOL     OW46835   8.488   3.369  10.139 -0.2091  0.2616  0.3624
14943SOL    HW146836   8.432   3.380  10.062 -0.3636 -1.3179  0.2228
14943SOL    HW246837   8.577   3.387  10.107 -0.3629  0.3885  0.0042
14944SOL     OW46838   9.543   0.311   4.185  0.0134  0.1256 -0.0662
14944SOL    HW146839   9.493   0.393   4.185  0.2154  0.2475 -0.2693
14944SOL    HW246840   9.631   0.336   4.212 -0.5486 -0.4100  2.5598
14945SOL     OW46841  10.163   5.240  11.113 -0.2523  0.1528  0.2985
14945SOL    HW146842  10.115   5.237  11.030 -0.7251  0.5315  0.5552
14945SOL    HW246843  10.098   5.266  11.178 -0.6748 -3.0899  1.3587
14946SOL     OW46844   2.602   1.012  10.829  0.5505 -0.6764  0.7621
14946SOL    HW146845   2.535   1.080  10.832  2.3272  1.2981 -0.9516
14946SOL    HW246846   2.681   1.054  10.863  1.9052 -1.5663 -1.0672
14947SOL     OW46847   6.255   5.673   2.077 -0.2609  0.2395 -0.1312
14947SOL    HW146848   6.291   5.675   1.988  1.2987  5.6959  0.2569
14947SOL    HW246849   6.175   5.726   2.071 -0.9234 -0.5201  1.5114
14948SOL     OW46850   2.226   7.014   2.603 -0.0943  0.0594 -0.1206
14948SOL    HW146851   2.225   7.096   2.652 -0.8644  0.2084 -0.3730
14948SOL    HW246852   2.134   6.987   2.600  0.1900 -0.9642  0.2071
14949SOL     OW46853   6.771  10.464   9.274  0.0090 -0.4754 -0.1371
14949SOL    HW146854   6.842  10.515   9.234  0.1998  1.4470  2.4335
14949SOL    HW246855   6.816  10.394   9.321  0.1844  0.1803  0.7031
14950SOL     OW46856   2.820  10.194   1.666 -0.3911  0.2619  0.8404
14950SOL    HW146857   2.860  10.109   1.688 -1.5458 -1.1914 -2.0948
14950SOL    HW246858   2.888  10.241   1.618 -1.0770 -0.9012 -1.3800
14951SOL     OW46859   6.340   4.140   6.974 -0.1733  0.3366 -0.0155
14951SOL    HW146860   6.349   4.126   7.069 -0.8425  0.7652  0.1195
14951SOL    HW246861   6.262   4.194   6.966 -1.1676 -1.1797 -0.9430
14952SOL     OW46862   5.597   3.702   7.535  0.6719 -0.2777  0.9445
14952SOL    HW146863   5.505   3.708   7.560  0.3636  0.3915 -0.2754
14952SOL    HW246864   5.633   3.788   7.555 -0.0304  0.9270 -2.4602
14953SOL     OW46865   6.654   0.165   7.753 -0.0179  0.2746 -0.4908
14953SOL    HW146866   6.745   0.177   7.780 -0.0222 -0.5527 -0.1007
14953SOL    HW246867   6.633   0.245   7.704  0.2120  1.5074  1.3166
14954SOL     OW46868   7.962   0.106   2.166 -0.0596 -0.1538  0.0767
14954SOL    HW146869   7.972   0.135   2.257  1.8581 -0.1737 -0.0732
14954SOL    HW246870   7.907   0.027   2.172 -0.8400  0.4360  1.0799
14955SOL     OW46871   9.132   2.584  10.458 -0.5348 -0.4746 -0.5629
14955SOL    HW146872   9.131   2.489  10.442 -2.0087 -0.9315  1.8057
14955SOL    HW246873   9.104   2.622  10.374  2.0009 -1.9355 -2.1998
14956SOL     OW46874   0.541   0.185   1.844 -0.0661 -0.0816  0.4036
14956SOL    HW146875   0.490   0.262   1.818 -1.0940 -0.8212  0.1808
14956SOL    HW246876   0.582   0.211   1.927 -0.4416  0.6847  0.3641
14957SOL     OW46877   3.809   2.409   1.424 -0.5403 -0.0246 -0.0653
14957SOL    HW146878   3.814   2.462   1.344 -0.5625 -2.4519 -1.7853
14957SOL    HW246879   3.722   2.369   1.421 -0.6157 -0.0038  1.3070
14958SOL     OW46880   0.422   5.409  10.476  0.4263 -0.3129 -0.1165
14958SOL    HW146881   0.424   5.397  10.571  1.9766 -0.1104 -0.0926
14958SOL    HW246882   0.510   5.383  10.447 -0.0714 -0.5087 -1.5142
14959SOL     OW46883   9.392   1.547  11.164  0.3557  0.3122 -0.8659
14959SOL    HW146884   9.484   1.523  11.152  0.4097  0.5957 -1.0477
14959SOL    HW246885   9.395   1.622  11.224  0.1674 -0.3368 -0.0349
14960SOL     OW46886   7.222   5.666   6.267  0.0650  0.2419  0.6197
14960SOL    HW146887   7.303   5.658   6.319  0.5020 -0.4787 -0.1341
14960SOL    HW246888   7.153   5.678   6.332  0.6932  0.1445  1.3261
14961SOL     OW46889   0.855  11.132   6.782 -0.0684 -0.8245  0.1940
14961SOL    HW146890   0.886  11.214   6.820  0.4883  0.3591 -2.5756
14961SOL    HW246891   0.934  11.087   6.754 -0.4572 -1.6652  0.4017
14962SOL     OW46892   3.699   2.783  10.917  0.4100 -0.7755  0.8060
14962SOL    HW146893   3.699   2.809  11.009 -0.1547 -0.0887  0.6228
14962SOL    HW246894   3.697   2.688  10.918  0.8834 -0.7795  1.5052
14963SOL     OW46895   9.565   9.931   5.566  0.3451 -0.0813  0.2500
14963SOL    HW146896   9.472   9.926   5.545  0.6472 -0.9765 -1.0048
14963SOL    HW246897   9.572  10.006   5.625 -1.3519 -0.8111  1.4860
14964SOL     OW46898   8.458   4.181   6.809  0.1623  0.2601  0.6217
14964SOL    HW146899   8.455   4.094   6.847  0.5109  0.2234  0.5694
14964SOL    HW246900   8.367   4.202   6.790  0.1180 -0.2756  0.2181
14965SOL     OW46901   8.382   1.178   2.651  0.2276  0.3824 -0.4113
14965SOL    HW146902   8.296   1.198   2.686  0.3850  1.3558 -0.5471
14965SOL    HW246903   8.412   1.261   2.613  1.9722  0.5666  1.2121
14966SOL     OW46904   6.010   1.663   8.201  0.3146  0.3889  0.0972
14966SOL    HW146905   5.993   1.579   8.158 -0.9110  1.2918 -1.3055
14966SOL    HW246906   5.954   1.662   8.279 -4.1362  1.9395 -2.6868
14967SOL     OW46907   4.021   5.356  11.125  0.3981  0.2526 -0.3813
14967SOL    HW146908   3.981   5.394  11.203 -0.1466 -0.6059 -0.2265
14967SOL    HW246909   4.005   5.262  11.133 -1.5394  0.2979 -2.5362
14968SOL     OW46910   7.499   2.158   6.579  0.4982  0.2449 -0.0918
14968SOL    HW146911   7.571   2.107   6.615 -0.6525 -2.3504 -1.2247
14968SOL    HW246912   7.540   2.220   6.519  1.8141 -0.7731 -0.2697
14969SOL     OW46913  10.322   5.611   1.020  0.7085  0.2110  0.2774
14969SOL    HW146914  10.381   5.652   1.083  3.3289  2.1618 -3.1273
14969SOL    HW246915  10.351   5.519   1.017  0.9488  0.2355  1.3956
14970SOL     OW46916   2.001  10.674   8.688 -0.1937  0.2993  0.2713
14970SOL    HW146917   1.960  10.720   8.761 -0.1338  1.8683 -0.6123
14970SOL    HW246918   1.928  10.645   8.633 -0.2160 -0.2301  0.5751
14971SOL     OW46919   4.084   3.563  10.488 -0.2503  0.1626 -0.0872
14971SOL    HW146920   4.178   3.551  10.498 -0.1829  1.7627  2.1752
14971SOL    HW246921   4.075   3.643  10.436 -0.3454  0.3062  0.1487
14972SOL     OW46922   0.654   2.503   1.868  0.0818 -0.0272 -0.2640
14972SOL    HW146923   0.693   2.494   1.781 -0.6387  1.0166 -0.7166
14972SOL    HW246924   0.600   2.424   1.878 -2.0222  1.0857 -1.9586
14973SOL     OW46925  11.147   3.344   5.592  0.3378  0.0192 -0.5502
14973SOL    HW146926  11.069   3.336   5.648 -0.0185  1.6250 -0.7649
14973SOL    HW246927  11.177   3.434   5.605  2.5801 -0.7489  0.0213
14974SOL     OW46928  11.057   9.983   0.524 -0.3851 -0.5110 -0.4626
14974SOL    HW146929  10.974   9.937   0.513  0.4422 -1.5385 -3.1182
14974SOL    HW246930  11.090   9.952   0.609 -2.8264  0.2514  0.8705
14975SOL     OW46931   1.371   1.950  11.042  0.2836 -0.4100  0.2396
14975SOL    HW146932   1.411   1.864  11.056  2.0447  0.3649  0.1960
14975SOL    HW246933   1.422   1.989  10.972 -1.2927  0.2160 -0.6177
14976SOL     OW46934   9.508   7.819   4.289 -0.3761 -0.2348 -0.2443
14976SOL    HW146935   9.457   7.744   4.320 -1.7803 -0.0877 -2.0265
14976SOL    HW246936   9.489   7.889   4.352  0.2098 -1.0894  0.9042
14977SOL     OW46937  10.846   8.571   9.154  0.3531 -0.3913 -0.4724
14977SOL    HW146938  10.935   8.537   9.145  0.3277 -0.9103  1.0242
14977SOL    HW246939  10.842   8.644   9.092  0.7936 -2.2825 -2.8715
14978SOL     OW46940   4.971   8.003   2.965  0.1253 -0.3699  0.0861
14978SOL    HW146941   4.894   8.059   2.967  1.1072  1.0147  0.9249
14978SOL    HW246942   4.938   7.915   2.983 -1.4185 -0.0396 -0.9326
14979SOL     OW46943   2.384   0.043   3.298 -0.7560 -0.6143  0.6358
14979SOL    HW146944   2.406  -0.033   3.353 -2.2835 -0.2154  1.8643
14979SOL    HW246945   2.352   0.005   3.216 -0.9880 -1.2868  1.0322
14980SOL     OW46946  10.736   8.778   4.118  0.2259  0.5782 -0.2044
14980SOL    HW146947  10.669   8.841   4.091 -0.5080  0.2312  0.7613
14980SOL    HW246948  10.767   8.811   4.203 -0.8330 -0.8342  0.7696
14981SOL     OW46949   8.236  11.149   2.931  0.0696 -0.0140  1.1657
14981SOL    HW146950   8.156  11.139   2.983 -0.0930 -0.1172  0.8998
14981SOL    HW246951   8.276  11.062   2.933  0.9202  0.3827  2.4813
14982SOL     OW46952   4.767   2.900  10.179 -0.1328  0.0379  0.1868
14982SOL    HW146953   4.726   2.908  10.093  0.3464 -1.7057 -0.2606
14982SOL    HW246954   4.858   2.877  10.161 -0.1108 -0.7282  1.1348
14983SOL     OW46955   5.636   5.131   6.007 -0.1363  0.1996 -0.3766
14983SOL    HW146956   5.667   5.133   6.098  1.5069  1.8579 -0.9292
14983SOL    HW246957   5.570   5.200   6.003  1.4646  1.7736 -0.9454
14984SOL     OW46958   3.235   6.231   5.645  0.8062  0.9645 -0.1832
14984SOL    HW146959   3.271   6.314   5.613 -1.5790  2.4098  0.6029
14984SOL    HW246960   3.187   6.255   5.724 -0.1527 -1.1468 -0.0608
14985SOL     OW46961   4.032   3.119   3.851  0.2197 -0.4152 -0.1221
14985SOL    HW146962   3.941   3.096   3.867  0.5597 -0.4809  1.8885
14985SOL    HW246963   4.042   3.111   3.756 -1.6390 -1.1786 -0.2926
14986SOL     OW46964   9.828   6.294   8.405 -0.6251 -0.2302  0.0336
14986SOL    HW146965   9.755   6.282   8.466 -0.5709  1.0162  0.3512
14986SOL    HW246966   9.869   6.376   8.430 -0.3753  0.1359 -1.4449
14987SOL     OW46967  10.864   9.043   7.378 -0.4826 -0.3622 -0.0253
14987SOL    HW146968  10.866   8.955   7.341  0.0865 -1.0703  1.5984
14987SOL    HW246969  10.771   9.062   7.389 -0.6351 -2.0170  2.3269
14988SOL     OW46970   0.963   8.298   7.444  0.2334 -0.0834  0.3601
14988SOL    HW146971   1.044   8.247   7.453 -0.5367 -1.4338 -0.1144
14988SOL    HW246972   0.968   8.336   7.356  0.3273 -0.2148  0.3076
14989SOL     OW46973   8.783   3.355   1.981  0.5660  0.3656  0.6295
14989SOL    HW146974   8.868   3.311   1.977  0.2605 -0.1513 -0.4826
14989SOL    HW246975   8.804   3.447   2.000  1.2990  0.0557  1.3753
14990SOL     OW46976   7.473   4.192   0.886  0.2998 -0.5134  0.3278
14990SOL    HW146977   7.401   4.225   0.833  0.0406 -0.3465  0.7876
14990SOL    HW246978   7.544   4.179   0.823  0.6821  1.6494  0.2259
14991SOL     OW46979   1.602   3.398   6.630 -0.6160  0.0890 -0.3448
14991SOL    HW146980   1.662   3.336   6.589 -0.6635 -0.1567 -0.0493
14991SOL    HW246981   1.566   3.351   6.705 -0.4240  0.5759  0.0597
14992SOL     OW46982   8.030   9.920   7.429 -0.6372  0.8621 -0.5147
14992SOL    HW146983   7.938   9.894   7.421 -0.7420  1.4739 -1.4263
14992SOL    HW246984   8.072   9.847   7.475 -1.7781  1.0227  0.8552
14993SOL     OW46985   3.032   2.578   0.292 -1.2313  0.7084  1.1874
14993SOL    HW146986   3.038   2.664   0.333  0.7808  1.9189 -1.4116
14993SOL    HW246987   2.987   2.594   0.209 -0.5718 -0.6758  0.5345
14994SOL     OW46988  10.433  10.445   1.399  0.8352  0.2375  0.1792
14994SOL    HW146989  10.463  10.395   1.476 -0.2459 -1.1533 -0.2513
14994SOL    HW246990  10.455  10.389   1.325 -0.9955  0.0551 -0.2831
14995SOL     OW46991   2.350   1.780  11.283 -0.0575  0.1203  0.6445
14995SOL    HW146992   2.434   1.790  11.329  1.2502 -1.1510 -1.2729
14995SOL    HW246993   2.374   1.780  11.190 -2.1494 -0.6977  0.0487
14996SOL     OW46994   8.207   8.201   4.818 -0.4888  0.4358 -0.5009
14996SOL    HW146995   8.289   8.221   4.772 -0.0663 -1.6123 -0.7387
14996SOL    HW246996   8.180   8.116   4.783 -1.5039  0.0094  1.2023
14997SOL     OW46997   3.495   7.388   1.081 -0.2582  0.4511  0.2682
14997SOL    HW146998   3.492   7.452   1.151  1.1701 -0.1659  0.9371
14997SOL    HW246999   3.425   7.326   1.102  1.2118 -0.6868  2.1808
14998SOL     OW47000   0.790   0.498  10.082 -0.4086  0.3268 -0.5302
14998SOL    HW147001   0.783   0.411  10.120 -1.7194  0.4304 -0.4599
14998SOL    HW247002   0.856   0.542  10.135  2.2478 -1.4106 -2.2179
14999SOL     OW47003   6.049   3.443   6.565 -0.4488 -0.8877 -0.8118
14999SOL    HW147004   5.964   3.478   6.538  0.1336  0.1987 -1.3193
14999SOL    HW247005   6.111   3.512   6.543  0.4099 -1.0964  0.8174
15000SOL     OW47006  10.268  10.358   4.693  0.3561  0.4737 -0.2676
15000SOL    HW147007  10.306  10.329   4.775 -1.0937 -1.0655 -0.0747
15000SOL    HW247008  10.241  10.277   4.649 -1.1124  1.3837 -1.1355
15001SOL     OW47009   9.228   5.635   9.510 -0.0033 -0.2500  0.1207
15001SOL    HW147010   9.176   5.703   9.467  0.1073 -1.0995 -1.4149
15001SOL    HW247011   9.170   5.598   9.576 -0.3187  0.7986  0.4550
15002SOL     OW47012   7.876   8.234   0.016 -0.7237  0.1421  0.3062
15002SOL    HW147013   7.809   8.193   0.071  0.2145  0.7843  2.0233
15002SOL    HW247014   7.884   8.176  -0.060 -2.0764 -0.7900  0.8353
15003SOL     OW47015   8.010   7.156   2.142  0.8981  0.6541 -0.0254
15003SOL    HW147016   7.972   7.192   2.222 -1.8378  1.0018 -1.3965
15003SOL    HW247017   7.976   7.066   2.138  1.6319  0.3844 -0.4421
15004SOL     OW47018   7.913   7.240   1.861  0.4884 -0.1840  0.1741
15004SOL    HW147019   7.959   7.236   1.945  0.4727  0.1703  0.2002
15004SOL    HW247020   7.977   7.208   1.797  0.4827 -0.5079  0.3260
15005SOL     OW47021  10.358   6.540   6.298 -0.8315  0.4519 -0.4153
15005SOL    HW147022  10.327   6.473   6.359  1.6213 -1.2690 -0.9084
15005SOL    HW247023  10.313   6.620   6.325 -0.7902 -0.4905  2.8277
15006SOL     OW47024   5.100  10.148   4.374  0.3131 -0.3221  0.6405
15006SOL    HW147025   5.036  10.186   4.435 -0.1687  1.2539 -0.7591
15006SOL    HW247026   5.170  10.213   4.371 -0.5178  0.5606 -1.8091
15007SOL     OW47027   8.512   3.029  10.282  0.2894  0.4391 -0.6074
15007SOL    HW147028   8.436   2.994  10.330  0.2847  1.2940  0.0257
15007SOL    HW247029   8.474   3.088  10.217  0.4185  1.1509 -0.0491
15008SOL     OW47030  10.379   3.151   7.767  0.2376  0.2518  0.3132
15008SOL    HW147031  10.405   3.236   7.801  1.2878  0.1785 -0.2557
15008SOL    HW247032  10.374   3.164   7.672 -0.9126  0.0126  0.3313
15009SOL     OW47033   3.565   4.147  10.840  0.5182 -0.3355 -0.1696
15009SOL    HW147034   3.471   4.147  10.822  0.6950 -1.5611 -1.2229
15009SOL    HW247035   3.585   4.238  10.864 -1.1507 -0.3308  1.3995
15010SOL     OW47036  10.997   9.069   2.340 -0.8048 -0.1299  0.4517
15010SOL    HW147037  11.051   9.115   2.275  1.1983 -0.2717  1.9213
15010SOL    HW247038  10.989   8.980   2.306  0.7474 -0.3723  0.6266
15011SOL     OW47039   3.805   6.132   5.487 -0.1086  0.5514 -0.2159
15011SOL    HW147040   3.874   6.197   5.500 -2.0124  3.0463 -1.5701
15011SOL    HW247041   3.836   6.078   5.414  0.5943  1.3635 -0.5382
15012SOL     OW47042   9.566   2.979   1.452  0.2142  0.0599 -0.3298
15012SOL    HW147043   9.610   3.038   1.514 -0.0048 -1.9491  1.8556
15012SOL    HW247044   9.499   2.934   1.504  0.6538 -2.4195 -1.7362
15013SOL     OW47045   0.672  10.864   0.076 -0.2894  0.7965 -0.2780
15013SOL    HW147046   0.666  10.856  -0.019  0.4993  0.7031 -0.3273
15013SOL    HW247047   0.728  10.940   0.090 -0.4750  0.8616  0.1172
15014SOL     OW47048   2.021   1.893   1.502  0.2685 -0.9650 -0.0756
15014SOL    HW147049   1.939   1.936   1.527  0.5438  0.6649 -1.7654
15014SOL    HW247050   2.089   1.942   1.547  0.5970  0.6167 -2.1413
15015SOL     OW47051   2.330   9.983  10.756  0.5432  0.5081 -0.0290
15015SOL    HW147052   2.421  10.012  10.748  0.6206  0.1473 -0.4463
15015SOL    HW247053   2.285  10.058  10.795  1.2335  0.2818  1.2474
15016SOL     OW47054   2.752   5.669  10.671  0.7575 -0.5160 -0.2570
15016SOL    HW147055   2.692   5.725  10.622 -1.3520 -1.9834  0.5159
15016SOL    HW247056   2.703   5.587  10.684  1.9592 -0.8734  2.6061
15017SOL     OW47057  10.705  10.547   1.372 -0.4059 -0.5436  0.0450
15017SOL    HW147058  10.771  10.542   1.303  0.4401  0.1967  0.7812
15017SOL    HW247059  10.629  10.502   1.336 -0.8581  1.9112 -2.3830
15018SOL     OW47060   0.776   1.389   7.205 -0.3597  0.4736 -0.6784
15018SOL    HW147061   0.795   1.299   7.228  0.9662  0.7031 -0.8236
15018SOL    HW247062   0.681   1.397   7.216 -0.4386 -0.8177 -0.2965
15019SOL     OW47063   0.326   4.045   7.843 -0.0854  0.2256  0.7456
15019SOL    HW147064   0.392   3.978   7.860 -0.0918  0.3536  1.3066
15019SOL    HW247065   0.319   4.093   7.926  3.2703  3.9811 -0.8203
15020SOL     OW47066  10.095   5.891   3.875  0.3497 -0.2549 -0.1253
15020SOL    HW147067  10.025   5.867   3.815  0.5058 -1.2390  0.0686
15020SOL    HW247068  10.070   5.852   3.958  0.1137  1.1384  0.4834
15021SOL     OW47069   7.837   6.969   5.083 -0.0893  0.0075  0.4806
15021SOL    HW147070   7.921   7.014   5.090 -0.1328  0.1637  0.0574
15021SOL    HW247071   7.782   7.029   5.032  0.1339 -0.9133 -0.8921
15022SOL     OW47072   7.766   8.346   4.590  0.3530  0.0169  1.0456
15022SOL    HW147073   7.790   8.340   4.683  0.4935 -0.9152  0.9579
15022SOL    HW247074   7.796   8.264   4.552 -3.6805 -1.7134  1.0673
15023SOL     OW47075   7.415   7.456  10.910  0.0014  0.0254 -0.3550
15023SOL    HW147076   7.463   7.455  10.827  0.2044  0.3723 -0.2423
15023SOL    HW247077   7.413   7.364  10.937 -0.8539 -0.2047 -1.1921
15024SOL     OW47078   2.053   8.773   6.193  0.5760  0.0522 -0.1151
15024SOL    HW147079   1.969   8.735   6.220 -0.2730  1.0525 -1.2545
15024SOL    HW247080   2.042   8.867   6.206  1.4349  0.2154 -0.5411
15025SOL     OW47081   9.498   0.216   4.644 -0.5594  0.4224  0.1912
15025SOL    HW147082   9.532   0.189   4.559 -1.9636  1.3897 -0.7225
15025SOL    HW247083   9.403   0.205   4.637 -0.6348 -0.4407  2.0063
15026SOL     OW47084   4.720   8.480  10.597 -0.3627  0.0167 -0.1559
15026SOL    HW147085   4.713   8.556  10.540  0.1273  0.1857  0.0027
15026SOL    HW247086   4.797   8.433  10.566 -1.0259 -0.7694 -0.6611
15027SOL     OW47087   9.664   5.208   4.820  0.0992 -0.5537 -0.3849
15027SOL    HW147088   9.624   5.294   4.833  1.3929 -0.2225  1.9182
15027SOL    HW247089   9.726   5.221   4.748 -0.6169  0.0910 -0.8974
15028SOL     OW47090   4.845   4.113   5.056  0.1388  0.3216  0.0242
15028SOL    HW147091   4.847   4.060   4.977 -1.0511  1.5989 -0.9243
15028SOL    HW247092   4.766   4.083   5.102  1.5622 -1.3797  1.4907
15029SOL     OW47093   9.374   5.063   5.731 -0.4505  0.0880  0.6216
15029SOL    HW147094   9.371   5.145   5.681  0.2184 -0.7601 -0.8444
15029SOL    HW247095   9.304   5.073   5.796 -1.2356  1.2856 -0.3628
15030SOL     OW47096   7.600   9.795   4.763 -0.5337  0.6176  0.0432
15030SOL    HW147097   7.564   9.722   4.713  0.5379 -0.5131  0.8440
15030SOL    HW247098   7.692   9.799   4.737 -0.0095  0.1623  1.6603
15031SOL     OW47099   1.592   4.817   7.350 -0.2168 -0.1087  0.2953
15031SOL    HW147100   1.497   4.813   7.360 -0.0676 -1.5431  1.3459
15031SOL    HW247101   1.612   4.751   7.284  0.2250 -1.3200  1.6006
15032SOL     OW47102  10.361   2.202   2.395  0.4363 -0.5171  0.0910
15032SOL    HW147103  10.363   2.153   2.477  3.4876  2.3269  1.9835
15032SOL    HW247104  10.282   2.256   2.401 -0.4822 -1.8345  0.1161
15033SOL     OW47105   4.604   2.647  10.060 -0.6271  0.0146 -0.0676
15033SOL    HW147106   4.635   2.694   9.983  0.2246 -0.5399 -0.0818
15033SOL    HW247107   4.509   2.652  10.055 -0.5650  1.5047 -0.1956
15034SOL     OW47108   7.435   3.695   8.207  0.3877  0.3096  0.0063
15034SOL    HW147109   7.479   3.645   8.138 -0.6538 -1.6945  0.7260
15034SOL    HW247110   7.468   3.657   8.288  1.1924  2.2846  0.6624
15035SOL     OW47111   7.282   0.271   3.819  0.4132 -0.0637  0.1990
15035SOL    HW147112   7.241   0.241   3.738  1.7767 -1.5011 -0.0022
15035SOL    HW247113   7.322   0.192   3.856 -3.4303 -0.4388  4.3536
15036SOL     OW47114   8.209   8.938  10.134  0.6023  0.3044  0.2831
15036SOL    HW147115   8.166   9.002  10.077 -0.6377 -1.5033 -0.8940
15036SOL    HW247116   8.147   8.923  10.205 -1.2116 -2.7473 -1.7224
15037SOL     OW47117   5.583   8.329   3.588 -0.8464  0.2013  0.1441
15037SOL    HW147118   5.677   8.344   3.576 -0.9998  2.3247  1.2010
15037SOL    HW247119   5.573   8.234   3.579  1.2683  0.0087 -0.7697
15038SOL     OW47120   4.100   4.265   4.637  0.1201  0.7164  0.3130
15038SOL    HW147121   4.142   4.316   4.706  2.9230 -1.5890  0.5150
15038SOL    HW247122   4.086   4.179   4.677  0.2325 -0.1692 -1.4701
15039SOL     OW47123   1.611   4.925   5.365  0.3182  0.0071  0.0305
15039SOL    HW147124   1.694   4.929   5.318  1.8314 -0.9850  2.3960
15039SOL    HW247125   1.552   4.875   5.309  1.6341 -0.1083 -1.2876
15040SOL     OW47126   0.128   6.765  11.286  0.4388 -0.0826 -0.2315
15040SOL    HW147127   0.186   6.689  11.289  1.3730  0.5003 -1.9141
15040SOL    HW247128   0.140   6.801  11.198 -4.4617 -1.4421 -1.8064
15041SOL     OW47129   2.622  10.034   4.030 -0.3238 -0.2749  0.0770
15041SOL    HW147130   2.661  10.096   4.091 -0.2237 -1.6960  1.5363
15041SOL    HW247131   2.617   9.952   4.080 -0.8211 -1.3295 -1.6342
15042SOL     OW47132  10.399   7.746   7.710 -0.4650  0.5608 -0.4198
15042SOL    HW147133  10.443   7.712   7.632 -0.7561  2.1235 -1.3000
15042SOL    HW247134  10.427   7.837   7.717 -2.3551  1.1834 -0.1495
15043SOL     OW47135  10.388   4.175   2.894 -0.3415 -0.6249  0.6466
15043SOL    HW147136  10.343   4.234   2.954 -0.4828 -0.5322  0.4518
15043SOL    HW247137  10.322   4.153   2.828  0.4319  1.1464 -0.8340
15044SOL     OW47138   1.944  10.443   3.292 -0.9374 -0.6075 -0.1945
15044SOL    HW147139   1.948  10.537   3.310 -1.8097 -0.5135 -0.4378
15044SOL    HW247140   2.032  10.410   3.313 -0.8632  0.1181  0.6679
15045SOL     OW47141   0.153   0.816   5.962 -0.3173 -0.4584 -0.2879
15045SOL    HW147142   0.122   0.905   5.978 -1.4531 -1.0789  1.2537
15045SOL    HW247143   0.236   0.827   5.917  0.1155  1.4069  0.8559
15046SOL     OW47144  10.127   2.676   3.731 -0.0811 -0.2233  0.1858
15046SOL    HW147145  10.123   2.769   3.708  0.3612 -0.6658 -1.8240
15046SOL    HW247146  10.218   2.651   3.717  0.0551 -0.7496  1.7547
15047SOL     OW47147  11.033   0.046   0.537  0.3222 -0.0744 -0.9788
15047SOL    HW147148  11.106   0.066   0.596 -1.0187  0.6261  0.5096
15047SOL    HW247149  10.955   0.068   0.587 -0.9103 -0.1763 -2.7731
15048SOL     OW47150   2.226   7.575   8.306 -0.2111 -0.9275 -0.6037
15048SOL    HW147151   2.269   7.537   8.383 -0.0856 -1.0097 -0.7140
15048SOL    HW247152   2.161   7.634   8.343 -0.8741 -1.7454 -0.4165
15049SOL     OW47153   8.242   6.630   1.053  0.6963  0.6545  0.1836
15049SOL    HW147154   8.159   6.669   1.080 -0.4434 -1.9754  0.6797
15049SOL    HW247155   8.270   6.578   1.128  1.7320 -0.1298 -0.7218
15050SOL     OW47156  10.720  10.477   6.098 -0.7142  0.4915  0.4276
15050SOL    HW147157  10.744  10.452   6.187 -0.6222 -2.2251 -0.2591
15050SOL    HW247158  10.631  10.443   6.086  0.3434 -1.9719 -1.3791
15051SOL     OW47159   5.029   7.785   9.100  0.2548  0.2816  0.2688
15051SOL    HW147160   5.090   7.762   9.030  1.0403  1.2369  0.6244
15051SOL    HW247161   4.977   7.706   9.113  1.1031 -0.3996 -0.3551
15052SOL     OW47162   3.381   2.797  10.420  0.1978 -0.3044  0.0256
15052SOL    HW147163   3.421   2.879  10.391 -1.0384  0.7097  1.1276
15052SOL    HW247164   3.294   2.821  10.451 -0.0623 -1.9789  0.7192
15053SOL     OW47165   9.907   1.224   2.027  0.3017  0.6788 -0.3898
15053SOL    HW147166   9.916   1.318   2.011  1.0397  0.7737  0.4611
15053SOL    HW247167   9.915   1.184   1.940  1.3881  1.3280 -0.6193
15054SOL     OW47168   5.648   0.188   5.539 -0.0059 -0.0334  0.3666
15054SOL    HW147169   5.650   0.093   5.530 -2.0439 -0.0110 -1.3801
15054SOL    HW247170   5.588   0.204   5.611 -2.3284 -0.1533 -1.4033
15055SOL     OW47171   3.894   9.928   5.166  0.2076  0.2415 -0.4105
15055SOL    HW147172   3.828   9.994   5.189  0.2681  0.3795 -0.6378
15055SOL    HW247173   3.843   9.849   5.149 -0.0504  0.7500 -2.2005
15056SOL     OW47174   5.814  10.642   9.183  0.3166 -0.3010  0.6111
15056SOL    HW147175   5.838  10.615   9.272 -1.1769  1.2885  1.5743
15056SOL    HW247176   5.871  10.717   9.165  1.3161 -1.2300 -0.2180
15057SOL     OW47177   1.911   4.163  10.642  0.2469  0.4896  0.2145
15057SOL    HW147178   1.942   4.150  10.553 -0.1176 -1.8022  0.3668
15057SOL    HW247179   1.973   4.114  10.697 -2.1003 -2.1655  0.7306
15058SOL     OW47180  10.112   9.526   1.376  0.4251 -0.5122  0.0756
15058SOL    HW147181  10.098   9.553   1.467  0.1528  1.0690 -0.4022
15058SOL    HW247182  10.125   9.608   1.328 -0.0071 -1.2700 -1.4138
15059SOL     OW47183   3.459   2.185   6.515  0.2847 -0.1933  0.6786
15059SOL    HW147184   3.438   2.236   6.437 -0.9460 -0.8324  0.5681
15059SOL    HW247185   3.375   2.173   6.559  0.7899 -0.8445  1.4922
15060SOL     OW47186   3.520   0.501   7.195 -0.2989 -0.5348  0.1697
15060SOL    HW147187   3.527   0.407   7.214  0.5221 -0.4992  0.0626
15060SOL    HW247188   3.426   0.517   7.189 -0.4502 -1.3249  0.3208
15061SOL     OW47189   3.543   8.309   5.427 -0.0512  0.0318 -0.1015
15061SOL    HW147190   3.594   8.364   5.368  1.0515 -1.9852 -1.1261
15061SOL    HW247191   3.453   8.340   5.417 -0.0657 -0.7783 -3.6023
15062SOL     OW47192   3.804   7.767   2.669 -0.3565 -0.1680 -0.0976
15062SOL    HW147193   3.812   7.837   2.605  0.4372 -1.0592 -1.0008
15062SOL    HW247194   3.711   7.768   2.695 -0.5356  0.6366 -0.7566
15063SOL     OW47195   6.423   3.351  10.130  0.4076 -0.5019 -0.2823
15063SOL    HW147196   6.359   3.406  10.084 -0.7310 -0.2727  1.4738
15063SOL    HW247197   6.396   3.261  10.111 -0.3164 -0.4048  0.2433
15064SOL     OW47198   7.275   3.043   1.610  0.3651 -0.0391 -0.2401
15064SOL    HW147199   7.290   2.988   1.533  2.4522 -1.7330  1.2499
15064SOL    HW247200   7.210   2.995   1.662  1.1034 -0.3838  0.3795
15065SOL     OW47201   7.562   7.439   6.237 -0.0095 -0.0974 -0.0111
15065SOL    HW147202   7.503   7.464   6.309 -0.8397 -0.3705 -0.5890
15065SOL    HW247203   7.504   7.406   6.169  0.9183 -1.6289 -0.0882
15066SOL     OW47204   2.671  10.667   4.964  0.2648  0.8459  0.3766
15066SOL    HW147205   2.633  10.740   4.915 -0.7901 -0.6886 -1.2243
15066SOL    HW247206   2.602  10.640   5.024  0.8875  1.5509  1.4265
15067SOL     OW47207  10.382  10.902   1.616  0.3358  0.6396  0.4236
15067SOL    HW147208  10.413  10.873   1.530 -1.0878  0.6684 -0.1172
15067SOL    HW247209  10.348  10.822   1.657  0.8179  0.6656  0.8868
15068SOL     OW47210   8.582   4.364   8.359 -0.0602  0.6046 -0.0809
15068SOL    HW147211   8.493   4.331   8.371  0.4202 -0.9110 -0.5058
15068SOL    HW247212   8.599   4.413   8.439 -0.6572 -0.5755  0.8141
15069SOL     OW47213   4.009   9.155  11.136 -0.0774 -0.8368 -0.6857
15069SOL    HW147214   4.089   9.135  11.186  0.5063  2.3557 -0.1589
15069SOL    HW247215   4.039   9.208  11.062 -1.3556 -2.6808 -2.6440
15070SOL     OW47216   5.037   6.570   1.082 -0.7571  0.6486  0.6988
15070SOL    HW147217   5.094   6.558   1.158 -1.8563 -1.5944  1.2488
15070SOL    HW247218   4.976   6.639   1.108  0.2660  1.4785  0.9594
15071SOL     OW47219   9.829   0.424   9.334 -0.4292  0.1068  0.6288
15071SOL    HW147220   9.853   0.415   9.426 -1.3979 -2.1789  0.7148
15071SOL    HW247221   9.767   0.497   9.333 -0.8317 -0.1837  1.8849
15072SOL     OW47222   9.246   9.406   7.172 -0.3017  0.1339  0.5313
15072SOL    HW147223   9.180   9.338   7.157 -0.2791  0.1825  0.2001
15072SOL    HW247224   9.196   9.483   7.198 -0.4089  0.2957 -0.1462
15073SOL     OW47225   1.516   1.271   2.261  0.1041 -0.0617  1.0312
15073SOL    HW147226   1.531   1.327   2.184 -2.1585  1.2243  1.4289
15073SOL    HW247227   1.565   1.191   2.242 -0.8099 -0.0497 -2.0834
15074SOL     OW47228   1.653   8.126   8.813  0.3024 -0.7003 -0.1523
15074SOL    HW147229   1.578   8.184   8.822 -0.9971 -2.2542 -0.5241
15074SOL    HW247230   1.709   8.169   8.748  0.1540  0.8709  0.7138
15075SOL     OW47231   2.810   6.404   6.357 -0.2411  0.1671  0.8928
15075SOL    HW147232   2.833   6.414   6.265 -0.3951 -0.5959  0.7632
15075SOL    HW247233   2.886   6.437   6.405  0.2835 -0.4183  0.4817
15076SOL     OW47234   8.588   2.520   3.072 -0.5305  0.6133 -0.0090
15076SOL    HW147235   8.651   2.585   3.104 -0.5887  0.2251  0.9099
15076SOL    HW247236   8.625   2.436   3.097 -1.1756  0.3591  0.1149
15077SOL     OW47237   9.988  10.466   9.443  0.9475 -0.0476  0.0542
15077SOL    HW147238   9.970  10.494   9.533  0.3407 -0.1018 -0.0485
15077SOL    HW247239   9.902  10.446   9.406  1.2722 -1.0502 -0.2038
15078SOL     OW47240   0.764   6.176  10.122  0.5788  0.1733  0.2623
15078SOL    HW147241   0.702   6.165  10.194  0.0976  1.2367  0.0265
15078SOL    HW247242   0.847   6.200  10.165  0.5919 -0.3108  0.5176
15079SOL     OW47243   3.879   5.607  10.004 -0.2163  1.1877 -0.0393
15079SOL    HW147244   3.922   5.545  10.064 -0.4898  1.4588  0.4418
15079SOL    HW247245   3.800   5.562   9.976  0.6122  0.4812 -1.3232
15080SOL     OW47246   4.407   7.272   7.741  0.6041 -0.1553  0.6245
15080SOL    HW147247   4.343   7.237   7.679  0.8609  0.5830 -0.0681
15080SOL    HW247248   4.371   7.356   7.767  0.7897 -0.1989  1.0312
15081SOL     OW47249   7.296   5.048  10.800  0.5505 -0.4718 -0.0323
15081SOL    HW147250   7.214   5.076  10.760  1.6956  1.0517 -1.4663
15081SOL    HW247251   7.347   5.012  10.727  1.7228 -0.0003  0.5368
15082SOL     OW47252   4.033   5.566   8.390  0.3571  0.4824  0.4267
15082SOL    HW147253   4.118   5.573   8.435  0.7985 -0.8062 -0.1496
15082SOL    HW247254   4.031   5.476   8.357 -1.0445  0.6399  0.0256
15083SOL     OW47255   3.521   4.349   9.619 -0.6156 -0.1606  0.1165
15083SOL    HW147256   3.524   4.432   9.572 -0.3577  0.7283  1.6274
15083SOL    HW247257   3.566   4.287   9.562  0.4359  1.0629 -0.4235
15084SOL     OW47258   5.373   7.271  10.664  0.2371  0.3300  0.3759
15084SOL    HW147259   5.441   7.211  10.696 -0.3512 -0.9704 -0.6689
15084SOL    HW247260   5.336   7.225  10.588 -1.3904  1.2876  0.5527
15085SOL     OW47261   6.284   6.574   0.026  0.4617  0.2960  0.2759
15085SOL    HW147262   6.372   6.547   0.054  0.4030  0.2567  0.4232
15085SOL    HW247263   6.299   6.650  -0.030  0.5432  0.7177  0.8631
15086SOL     OW47264   7.863   1.755   5.224  0.1263 -0.7547  0.0766
15086SOL    HW147265   7.803   1.762   5.298 -1.1217 -1.0832 -0.8835
15086SOL    HW247266   7.840   1.828   5.167 -0.7775 -2.0364 -1.2706
15087SOL     OW47267   9.809   8.142   5.303 -0.3862 -0.2032 -0.6505
15087SOL    HW147268   9.841   8.055   5.327  1.7578  0.6340 -0.2851
15087SOL    HW247269   9.716   8.128   5.285 -0.5908 -2.1658  1.4504
15088SOL     OW47270   1.371   3.922   5.544  0.0891 -0.0696 -0.5548
15088SOL    HW147271   1.287   3.956   5.574 -0.1439  0.5658 -1.8556
15088SOL    HW247272   1.432   3.994   5.558  0.3549 -0.3999  0.0319
15089SOL     OW47273   1.810   5.588   3.947  1.1956  0.5120 -0.2799
15089SOL    HW147274   1.781   5.622   4.032  0.9626 -1.1351  0.3295
15089SOL    HW247275   1.902   5.615   3.940  1.8830 -1.1423  1.5123
15090SOL     OW47276   6.016   3.086   3.307 -0.3099 -0.2787  0.1664
15090SOL    HW147277   5.925   3.113   3.319  0.0096  1.4052 -0.8052
15090SOL    HW247278   6.014   3.030   3.229 -0.7189 -1.6711  1.1342
15091SOL     OW47279   4.274   2.071   1.315  0.2015  0.5216 -0.2586
15091SOL    HW147280   4.183   2.084   1.341  0.0087 -0.1600 -0.5773
15091SOL    HW247281   4.270   2.056   1.221  0.6385  0.4307 -0.2653
15092SOL     OW47282   8.284   1.039   3.432 -0.5277 -0.2601 -0.2715
15092SOL    HW147283   8.337   1.117   3.418 -0.1033  0.0031  2.4191
15092SOL    HW247284   8.304   0.983   3.356  2.6161  0.3677 -0.0368
15093SOL     OW47285   5.519   5.677   9.944  0.5548 -0.1264  0.5222
15093SOL    HW147286   5.593   5.738   9.954  1.2307 -0.6220 -1.1290
15093SOL    HW247287   5.476   5.705   9.863 -1.6060  0.6563  1.8641
15094SOL     OW47288   6.623   4.572   5.262 -0.6489  0.1971  0.1316
15094SOL    HW147289   6.578   4.651   5.232  0.5281  1.4453  1.4891
15094SOL    HW247290   6.600   4.565   5.355  2.2754  1.2314  1.0471
15095SOL     OW47291   1.052  10.080  10.883 -0.2972 -0.3556  0.4269
15095SOL    HW147292   1.136  10.069  10.927  0.7190  0.8476 -1.0890
15095SOL    HW247293   1.071  10.065  10.790 -1.9983 -1.1139  0.1695
15096SOL     OW47294   9.360   7.896   3.170 -0.4896 -0.2840  0.1796
15096SOL    HW147295   9.271   7.908   3.139 -0.2951 -0.7498 -0.5979
15096SOL    HW247296   9.390   7.983   3.194 -1.3365 -0.2002  0.9737
15097SOL     OW47297   3.249   6.950   5.049  0.2237  0.0697 -0.4853
15097SOL    HW147298   3.272   7.042   5.034  0.7714  0.2711  1.3629
15097SOL    HW247299   3.326   6.901   5.019  0.7812  0.3717  0.4137
15098SOL     OW47300   8.784   3.310  10.744 -0.4786  0.2150  0.6952
15098SOL    HW147301   8.717   3.379  10.754 -0.3674  0.1301  2.1690
15098SOL    HW247302   8.847   3.327  10.814  0.7102 -0.1172 -0.2594
15099SOL     OW47303   4.585   0.999   7.824  0.0902 -0.0271 -0.2929
15099SOL    HW147304   4.546   1.043   7.749  1.0181 -1.3451 -1.5961
15099SOL    HW247305   4.678   1.019   7.818  0.5394 -2.0403 -0.9038
15100SOL     OW47306   3.209   1.069  11.054  0.9236  0.2904  0.8301
15100SOL    HW147307   3.118   1.051  11.079  0.8065 -1.3936 -0.6323
15100SOL    HW247308   3.260   1.048  11.132 -0.0386  3.9486  2.6799
15101SOL     OW47309   1.986   3.559   9.125 -0.3014 -0.1941  0.0363
15101SOL    HW147310   2.069   3.553   9.171 -0.8570  0.5429  1.1979
15101SOL    HW247311   1.989   3.489   9.060  0.2666 -1.7412  1.6465
15102SOL     OW47312   1.844   1.392   7.167 -0.2661 -0.4792 -0.4130
15102SOL    HW147313   1.750   1.405   7.168 -0.1794  0.1338  0.0970
15102SOL    HW247314   1.858   1.312   7.218 -0.4237  0.0468  0.4719
15103SOL     OW47315   9.356   9.055   0.406  0.2659 -0.3244 -0.1193
15103SOL    HW147316   9.264   9.054   0.377 -0.4580  3.3515  1.4981
15103SOL    HW247317   9.394   9.130   0.361  1.9461 -0.6298  0.7365
15104SOL     OW47318   4.344   7.665   3.610  0.2198 -0.1494  1.2016
15104SOL    HW147319   4.422   7.719   3.624  0.6784 -0.6594  0.6541
15104SOL    HW247320   4.341   7.608   3.687 -0.2803  0.6516  1.7951
15105SOL     OW47321   3.043   2.803   4.108  0.3054  0.8290 -0.8378
15105SOL    HW147322   3.120   2.855   4.085 -0.7292  2.0049 -1.7861
15105SOL    HW247323   3.016   2.761   4.026  0.7182 -0.6923 -0.2289
15106SOL     OW47324   3.658   4.619   3.420 -0.4441  0.2634  0.2309
15106SOL    HW147325   3.617   4.547   3.469  0.9309 -1.7439 -1.4059
15106SOL    HW247326   3.589   4.686   3.415 -2.3963 -1.6053  0.4143
15107SOL     OW47327   0.347   1.019   9.928 -0.0798 -0.2997 -0.3799
15107SOL    HW147328   0.288   1.080   9.973  1.7406  1.0161  0.3043
15107SOL    HW247329   0.298   0.992   9.850 -0.9416  2.0542 -0.7169
15108SOL     OW47330   5.611   3.787   9.558 -0.0137 -0.3803 -0.3156
15108SOL    HW147331   5.698   3.747   9.559  0.3946  0.4813  0.5017
15108SOL    HW247332   5.560   3.734   9.496  1.4032 -0.2396 -1.6546
15109SOL     OW47333   5.188   6.254  10.215 -0.0775 -0.0000 -0.0515
15109SOL    HW147334   5.225   6.302  10.141  1.7870  1.5628  1.7467
15109SOL    HW247335   5.128   6.316  10.256 -1.9150 -1.2171 -0.7572
15110SOL     OW47336   3.324   4.534   4.039 -1.0082 -0.2718  0.2131
15110SOL    HW147337   3.342   4.452   4.084 -0.4381  0.8366  2.0881
15110SOL    HW247338   3.230   4.548   4.052 -1.0141 -0.3960  0.3041
15111SOL     OW47339   7.282   6.578   0.516 -0.1872 -0.4541 -0.2636
15111SOL    HW147340   7.294   6.651   0.577  0.3574 -0.3149 -0.5305
15111SOL    HW247341   7.216   6.610   0.454 -0.0633 -0.2496 -0.2890
15112SOL     OW47342  10.457   1.132  10.137  0.2439  0.0280 -0.2305
15112SOL    HW147343  10.506   1.096  10.063  0.2691  0.5072 -0.4553
15112SOL    HW247344  10.448   1.225  10.116 -2.7562 -0.3946 -1.3609
15113SOL     OW47345  11.086   4.688   3.275 -0.0751  0.1387 -0.1609
15113SOL    HW147346  11.034   4.709   3.197 -1.1569 -0.0177  0.5033
15113SOL    HW247347  11.047   4.608   3.309  1.6869 -0.9732 -0.5861
15114SOL     OW47348   0.749   9.997   8.043  0.3743  0.2200 -0.5067
15114SOL    HW147349   0.774  10.082   8.007  0.3917  0.4118 -0.0416
15114SOL    HW247350   0.713  10.016   8.129 -1.7618  0.0092 -1.2889
15115SOL     OW47351   7.468   8.935   7.188  0.3273  0.0062  0.0870
15115SOL    HW147352   7.409   8.889   7.248 -0.4240  1.4987  0.5625
15115SOL    HW247353   7.426   8.929   7.103 -0.6615  1.2216  0.4581
15116SOL     OW47354   4.664   6.014  10.928 -0.4173 -0.2305 -0.3075
15116SOL    HW147355   4.659   5.944  10.992  0.9361 -0.4656 -0.4288
15116SOL    HW247356   4.756   6.040  10.927  0.0983 -1.6428 -3.6057
15117SOL     OW47357  10.245   2.971   6.311  0.5030 -0.3085  0.1277
15117SOL    HW147358  10.273   2.929   6.392 -0.0107  0.6546  0.8183
15117SOL    HW247359  10.303   2.935   6.244 -0.0789 -2.3004  0.6288
15118SOL     OW47360   3.458   2.052   2.331  0.3209 -0.0106 -0.6063
15118SOL    HW147361   3.373   2.021   2.364 -0.2942  2.1957  0.1075
15118SOL    HW247362   3.507   2.075   2.410  0.9540  0.2676 -1.0768
15119SOL     OW47363   6.356  10.194   8.936 -0.0295 -0.6367  0.3895
15119SOL    HW147364   6.323  10.124   8.992 -2.1995 -0.8602 -1.0504
15119SOL    HW247365   6.318  10.274   8.972 -1.0925 -0.7340 -0.4755
15120SOL     OW47366   8.049   1.088   1.070 -0.2526 -0.3733 -0.4089
15120SOL    HW147367   8.100   1.118   0.995  2.4924 -0.6181  1.2424
15120SOL    HW247368   7.993   1.019   1.035  3.9938 -3.6362 -1.6497
15121SOL     OW47369   7.385   8.793   3.272  0.2847  0.8231  0.3668
15121SOL    HW147370   7.320   8.862   3.282 -1.1056 -0.4787  0.6675
15121SOL    HW247371   7.343   8.727   3.219  1.6777  0.2832 -0.1231
15122SOL     OW47372   9.415   9.622   6.729 -0.0581  0.0217 -0.7700
15122SOL    HW147373   9.371   9.614   6.813  0.7042  1.0097 -0.2671
15122SOL    HW247374   9.367   9.690   6.683 -0.6548 -0.7158 -1.2745
15123SOL     OW47375   5.543   1.579   3.101 -0.2410 -0.2241  0.0326
15123SOL    HW147376   5.459   1.619   3.081 -2.1305 -3.0941  1.4835
15123SOL    HW247377   5.580   1.557   3.016 -0.7862  1.3345 -0.6376
15124SOL     OW47378  10.404   5.334   0.363 -0.5368 -0.4480  0.0760
15124SOL    HW147379  10.455   5.316   0.442 -0.9013  0.9289  0.6496
15124SOL    HW247380  10.434   5.269   0.300  1.7956  0.1563  0.4690
15125SOL     OW47381   0.002   9.290   0.804  0.0222 -0.4548  0.1536
15125SOL    HW147382  -0.088   9.275   0.833  0.5250 -1.4845  1.2948
15125SOL    HW247383  -0.003   9.365   0.745 -1.6318 -0.7612 -0.1215
15126SOL     OW47384   4.713   6.605   8.403 -0.9385  0.0674  0.1317
15126SOL    HW147385   4.689   6.591   8.311  1.6729 -1.7677 -0.3880
15126SOL    HW247386   4.768   6.683   8.401  0.4891 -0.9111 -0.1962
15127SOL     OW47387  10.970   8.098   9.906 -0.5628  0.2619  0.1831
15127SOL    HW147388  10.892   8.055   9.943 -0.7930 -0.2691 -0.8663
15127SOL    HW247389  10.934   8.162   9.844 -0.1745  0.2162 -0.0907
15128SOL     OW47390   8.632   7.216   1.529 -0.4329  0.5920  0.9595
15128SOL    HW147391   8.569   7.169   1.475 -0.5134  2.3223 -0.5639
15128SOL    HW247392   8.629   7.171   1.613 -2.2596 -0.5857  0.3440
15129SOL     OW47393   9.552   8.843   6.542  0.2143 -0.3406 -0.0251
15129SOL    HW147394   9.548   8.758   6.498 -4.5834  0.4444 -1.7423
15129SOL    HW247395   9.522   8.905   6.476  1.4096  2.4231  1.8427
15130SOL     OW47396   2.930   6.585   3.293  0.5155 -0.1375  0.2460
15130SOL    HW147397   2.850   6.566   3.244  0.6780  2.1260 -1.0523
15130SOL    HW247398   2.911   6.557   3.382 -1.4560 -0.3331 -0.1889
15131SOL     OW47399   7.117   7.944   8.536 -0.5603 -0.3057  0.3132
15131SOL    HW147400   7.205   7.979   8.549 -1.5213  1.8345  1.8210
15131SOL    HW247401   7.094   7.967   8.446  0.6989 -1.6961 -0.3999
15132SOL     OW47402   7.580   3.801   2.400  0.5462 -0.2969 -0.1402
15132SOL    HW147403   7.662   3.773   2.358  0.3053  0.5918 -1.2651
15132SOL    HW247404   7.594   3.785   2.493  2.7832  1.6344 -0.0499
15133SOL     OW47405   9.175   4.591   3.860  0.0268  0.0647  0.3271
15133SOL    HW147406   9.155   4.536   3.784 -1.2744 -0.0481  0.7177
15133SOL    HW247407   9.270   4.596   3.862  0.0983 -0.0905 -1.2000
15134SOL     OW47408   8.684   8.677   2.768 -0.3918 -0.5492 -0.2320
15134SOL    HW147409   8.620   8.610   2.745  0.9231 -1.9154 -0.0786
15134SOL    HW247410   8.746   8.677   2.695  0.1739 -0.2420  0.2413
15135SOL     OW47411   5.906   7.612   3.364  0.3108  0.0173  0.3150
15135SOL    HW147412   5.902   7.677   3.294  0.3289  0.9017  1.1120
15135SOL    HW247413   5.959   7.653   3.432  0.9056 -1.1176  0.5639
15136SOL     OW47414   3.175   2.633  10.563 -0.3969 -0.3808  0.3577
15136SOL    HW147415   3.199   2.542  10.546 -0.9870 -0.1736 -1.8794
15136SOL    HW247416   3.250   2.669  10.612  1.3889 -1.2200 -1.6014
15137SOL     OW47417   9.018   7.305  10.538 -0.0315  0.3349 -0.4370
15137SOL    HW147418   9.090   7.271  10.486 -0.3675 -1.1901  0.0455
15137SOL    HW247419   8.983   7.229  10.584 -0.4409  1.4303  1.1716
15138SOL     OW47420   2.973   6.918   1.902 -0.0016 -0.2908 -0.2608
15138SOL    HW147421   3.064   6.947   1.905 -0.4983  1.7160 -1.9323
15138SOL    HW247422   2.978   6.822   1.908  2.1920 -0.2255 -0.1844
15139SOL     OW47423   9.212   0.285  10.341  0.2347 -0.7902 -0.2518
15139SOL    HW147424   9.175   0.353  10.398  0.7066  0.2253 -1.1163
15139SOL    HW247425   9.230   0.330  10.259  1.1261 -1.8336 -0.6498
15140SOL     OW47426   3.671   3.962   5.183  0.1372 -0.0165 -0.6388
15140SOL    HW147427   3.740   4.025   5.202 -0.5009  0.7838 -0.9258
15140SOL    HW247428   3.675   3.900   5.256  2.4786 -1.1979 -1.6756
15141SOL     OW47429   3.860   0.735   9.874 -0.0783  0.3448 -0.0989
15141SOL    HW147430   3.768   0.713   9.886 -0.0626  0.3886  0.1003
15141SOL    HW247431   3.906   0.675   9.933 -0.1052  1.7903  1.4487
15142SOL     OW47432   5.412   6.406   0.265 -0.2682  0.6363 -0.1936
15142SOL    HW147433   5.359   6.442   0.336 -0.7979 -0.2433 -0.1330
15142SOL    HW247434   5.412   6.312   0.280  1.2414  0.5946 -0.2485
15143SOL     OW47435   8.411   0.387   8.050 -0.3525 -0.5938  0.3510
15143SOL    HW147436   8.317   0.386   8.068 -0.6023  1.7424 -0.4053
15143SOL    HW247437   8.452   0.401   8.136 -1.0388  2.6128  0.2799
15144SOL     OW47438   5.867   7.242   2.893  0.0902 -0.5633  0.9350
15144SOL    HW147439   5.773   7.250   2.906 -0.8367 -0.8596 -3.7955
15144SOL    HW247440   5.882   7.148   2.885 -0.0772 -0.4348 -2.0791
15145SOL     OW47441   8.226   2.451  11.176 -0.1183  0.0771 -0.0521
15145SOL    HW147442   8.243   2.520  11.240 -0.8307 -0.6651  0.9920
15145SOL    HW247443   8.135   2.425  11.194 -0.2114 -0.3824 -1.1481
15146SOL     OW47444   7.886  10.619  10.592 -0.3505  0.1680 -0.5310
15146SOL    HW147445   7.951  10.688  10.575 -1.2690  1.1857 -0.0103
15146SOL    HW247446   7.832  10.617  10.513 -0.4435  0.1804 -0.4683
15147SOL     OW47447   9.128   0.717   0.239  0.0332  0.0045 -0.5745
15147SOL    HW147448   9.069   0.766   0.296 -1.5571 -0.5922 -1.6464
15147SOL    HW247449   9.161   0.645   0.294 -1.3044 -0.4352 -0.3179
15148SOL     OW47450   1.913   6.466   7.659 -0.7101 -0.5377  0.0336
15148SOL    HW147451   1.878   6.553   7.676  0.0560  0.1813 -1.8069
15148SOL    HW247452   1.835   6.411   7.647 -1.2372 -0.4996  2.6174
15149SOL     OW47453   2.599   3.555  10.760 -0.1845  0.1020  0.1532
15149SOL    HW147454   2.582   3.639  10.803  1.4218  0.3538  0.3833
15149SOL    HW247455   2.692   3.538  10.778 -0.0911 -0.9742 -1.1902
15150SOL     OW47456   6.933   3.162   2.273 -0.6014  0.2767  0.6417
15150SOL    HW147457   6.876   3.210   2.333 -1.5254  2.9946 -2.1604
15150SOL    HW247458   6.874   3.105   2.224 -0.2601 -0.0378  0.5940
15151SOL     OW47459   1.079   5.435   0.821 -0.0943 -0.1886  0.2921
15151SOL    HW147460   1.137   5.503   0.785 -1.0403  0.2629 -0.4278
15151SOL    HW247461   1.066   5.462   0.912  0.2348  0.1177  0.2536
15152SOL     OW47462   3.941   5.704   8.969  0.4730  0.4657  0.6273
15152SOL    HW147463   4.021   5.653   8.982 -0.2434 -1.0734 -0.6916
15152SOL    HW247464   3.962   5.790   9.004  2.6859  0.0742  0.4220
15153SOL     OW47465   2.824  10.947  10.073  0.2147  0.1788 -0.3033
15153SOL    HW147466   2.729  10.958  10.076  0.3812  1.8922 -0.1548
15153SOL    HW247467   2.842  10.914   9.985 -0.3617  2.1650 -1.2184
15154SOL     OW47468   1.290   5.732   6.694  0.0773  0.2297  0.2483
15154SOL    HW147469   1.229   5.704   6.762  1.2228  0.4132  1.4074
15154SOL    HW247470   1.355   5.661   6.691 -0.4476 -0.2144 -1.3218
15155SOL     OW47471  10.608   2.767   7.250  0.4119  0.1935  0.0439
15155SOL    HW147472  10.663   2.688   7.251  1.1605  0.7003  0.3940
15155SOL    HW247473  10.565   2.766   7.165  1.5724  0.1764 -0.5743
15156SOL     OW47474   9.084  10.921   0.928 -0.2447 -0.1466 -0.1433
15156SOL    HW147475   9.001  10.936   0.972 -0.5055 -2.9267  0.4998
15156SOL    HW247476   9.149  10.923   0.998  0.4570  2.8036 -0.7384
15157SOL     OW47477   3.997   8.844   3.308  0.2683 -0.0114 -0.0057
15157SOL    HW147478   4.009   8.855   3.402 -1.2503 -0.3904  0.2692
15157SOL    HW247479   4.020   8.928   3.270  1.6246 -0.0799  0.6115
15158SOL     OW47480   3.768   9.225  10.396 -0.2115  0.1907  0.1400
15158SOL    HW147481   3.704   9.166  10.435  0.5679 -0.3882  0.5909
15158SOL    HW247482   3.718   9.300  10.366 -0.9943  0.0683  1.1215
15159SOL     OW47483   1.923   3.786   7.168 -0.2790  0.0270  0.7664
15159SOL    HW147484   2.010   3.745   7.173  1.3922  3.1763  0.2952
15159SOL    HW247485   1.897   3.774   7.076  1.5111  2.2461 -0.1370
15160SOL     OW47486   6.606   9.750   9.647 -0.2479 -0.1210  0.1050
15160SOL    HW147487   6.679   9.689   9.648  1.4351  1.8106  0.3664
15160SOL    HW247488   6.646   9.837   9.648 -2.5491  1.0291  0.4965
15161SOL     OW47489   8.257  10.736   9.579  0.5680 -0.1299  0.2230
15161SOL    HW147490   8.209  10.814   9.605  0.4094  0.2531 -1.1268
15161SOL    HW247491   8.227  10.717   9.490  0.4015 -1.9022  0.6166
15162SOL     OW47492   2.282  10.529  10.760  0.5566 -0.0290  0.3880
15162SOL    HW147493   2.367  10.571  10.741 -0.5619  2.5629  0.6292
15162SOL    HW247494   2.304  10.438  10.780  2.8333 -0.5471 -3.4636
15163SOL     OW47495   6.156   7.695   3.544  0.5655  0.2555 -0.4321
15163SOL    HW147496   6.224   7.729   3.485 -0.7455  1.5295 -1.2796
15163SOL    HW247497   6.202   7.676   3.626  1.8565  1.5778 -0.8130
15164SOL     OW47498   9.927   9.440   7.633  0.7402  0.1445  0.3852
15164SOL    HW147499   9.843   9.397   7.647  0.3962  0.3141 -0.9465
15164SOL    HW247500   9.920   9.522   7.682  0.0491  0.2447  0.1313
15165SOL     OW47501   8.908   6.967  10.734  0.0889  0.5613  0.1819
15165SOL    HW147502   8.861   6.986  10.815 -0.6563  1.4157 -0.4268
15165SOL    HW247503   8.842   6.980  10.665 -0.2145 -3.1375 -0.4207
15166SOL     OW47504   7.845   0.181   4.786  0.2800  0.1769  0.1640
15166SOL    HW147505   7.803   0.264   4.808 -0.4308 -0.2900  0.6300
15166SOL    HW247506   7.893   0.157   4.866 -0.1032 -0.2014  0.2873
15167SOL     OW47507  10.845   6.059   7.866  0.1964  0.6868  0.9526
15167SOL    HW147508  10.905   6.088   7.797 -1.0168  1.0977  0.0424
15167SOL    HW247509  10.778   6.009   7.821 -0.5112  0.7791  1.8617
15168SOL     OW47510   5.000   1.953   8.412  0.2553 -0.0443 -0.6504
15168SOL    HW147511   4.905   1.967   8.404 -0.0575 -1.0114  0.9018
15168SOL    HW247512   5.008   1.864   8.445  1.7622 -0.2323 -1.4501
15169SOL     OW47513   6.233   3.456   9.938 -0.2650 -0.1081 -0.7195
15169SOL    HW147514   6.261   3.520   9.873 -0.0797 -2.1843 -2.7904
15169SOL    HW247515   6.146   3.486   9.965  1.0175  2.6621  0.7367
15170SOL     OW47516   5.457   0.964   1.202  0.7285 -0.1024 -0.1316
15170SOL    HW147517   5.500   1.024   1.140 -0.0453  0.3524 -0.2393
15170SOL    HW247518   5.525   0.943   1.266  1.5084 -0.4769 -1.0583
15171SOL     OW47519   9.021  10.149   3.757  0.0694 -0.3221 -0.0324
15171SOL    HW147520   8.992  10.067   3.799 -1.0429 -0.2291 -0.5687
15171SOL    HW247521   8.948  10.173   3.700  0.5027  0.9077 -0.0892
15172SOL     OW47522   4.479   4.994   1.790 -0.5046  0.6058  0.2721
15172SOL    HW147523   4.447   5.064   1.847 -1.7154 -0.0322  0.4184
15172SOL    HW247524   4.469   4.915   1.842 -0.5709  0.1446 -0.4259
15173SOL     OW47525   2.282   2.800   2.255 -0.0510 -0.0751  0.2691
15173SOL    HW147526   2.336   2.735   2.210 -0.7249 -0.8479  0.5376
15173SOL    HW247527   2.344   2.851   2.306  0.9820  2.0444 -2.8402
15174SOL     OW47528   1.230   5.468   8.457  0.2023 -0.1555 -0.3441
15174SOL    HW147529   1.233   5.548   8.405 -1.8035  0.4805  0.4215
15174SOL    HW247530   1.154   5.479   8.513 -2.0748 -3.9121 -2.3223
15175SOL     OW47531   1.701  10.282  10.426  0.0899 -0.4175  0.2116
15175SOL    HW147532   1.652  10.207  10.460 -0.7099 -0.0986 -0.2242
15175SOL    HW247533   1.686  10.351  10.490  0.4272 -0.4761  0.3589
15176SOL     OW47534  10.834   7.777   5.941  0.0443 -0.1230  0.0900
15176SOL    HW147535  10.814   7.684   5.945 -1.7459  0.2755  1.9563
15176SOL    HW247536  10.897   7.791   6.011 -2.1870  0.5255  2.1119
15177SOL     OW47537  11.031   1.521   6.259 -0.8661  0.3587 -0.4853
15177SOL    HW147538  11.028   1.490   6.168 -0.1317  0.0601 -0.4177
15177SOL    HW247539  10.969   1.593   6.262 -1.8187 -0.4192 -0.9221
15178SOL     OW47540  11.144   1.642   9.320 -0.3004  0.5445  0.1950
15178SOL    HW147541  11.195   1.561   9.311 -0.9457 -0.0056  1.3115
15178SOL    HW247542  11.063   1.615   9.362 -0.3134  1.8602  1.0731
15179SOL     OW47543   6.461   6.109   0.695  0.3319  0.0156 -0.2958
15179SOL    HW147544   6.390   6.172   0.705 -1.2575 -1.6541 -0.4897
15179SOL    HW247545   6.471   6.099   0.600 -1.0005 -1.6187 -0.3163
15180SOL     OW47546   2.726   4.031   1.882  1.0765 -0.3675 -0.4937
15180SOL    HW147547   2.678   3.949   1.870  1.0741  0.0079 -3.8774
15180SOL    HW247548   2.806   4.005   1.928 -0.3985 -1.6380  1.5704
15181SOL     OW47549   9.394   0.486   4.681  0.0761  0.1423 -0.4615
15181SOL    HW147550   9.426   0.535   4.757 -2.0647 -0.6873  1.0726
15181SOL    HW247551   9.452   0.410   4.676  1.7468  1.4035 -1.2123
15182SOL     OW47552   7.574   4.535   6.472  0.2424 -0.3003 -0.0974
15182SOL    HW147553   7.509   4.526   6.402  0.3084 -0.4960 -0.1357
15182SOL    HW247554   7.595   4.628   6.474 -1.8921  0.2204  1.5969
15183SOL     OW47555   8.985   6.975   0.523  0.4302 -0.0434 -0.0290
15183SOL    HW147556   8.967   6.957   0.431 -0.6994  0.0265  0.1629
15183SOL    HW247557   9.077   6.954   0.534 -0.1083 -3.0392 -0.4658
15184SOL     OW47558   4.471   4.701   2.311 -0.5742  0.1398 -0.1756
15184SOL    HW147559   4.390   4.669   2.352 -0.3555  1.4131  1.3230
15184SOL    HW247560   4.446   4.786   2.273 -0.0655  0.2740 -0.2084
15185SOL     OW47561   9.039   9.398   1.785  0.2645 -0.6418 -0.1629
15185SOL    HW147562   9.091   9.326   1.821  0.3335  0.2283  1.5548
15185SOL    HW247563   8.949   9.365   1.788  0.3777 -0.9616 -0.1831
15186SOL     OW47564   9.603   2.545  10.909 -0.4934 -0.4735 -0.1420
15186SOL    HW147565   9.669   2.523  10.843 -1.2599 -0.2806 -0.9854
15186SOL    HW247566   9.552   2.616  10.870 -2.1013 -1.5626 -0.1098
15187SOL     OW47567  10.176   9.440   4.118  0.2484  0.3060  0.5829
15187SOL    HW147568  10.243   9.479   4.062  0.8124 -2.6395 -1.0105
15187SOL    HW247569  10.223   9.410   4.196  0.1324  1.2290  1.0135
15188SOL     OW47570   2.297   4.267   7.780 -0.2825 -0.1399  0.2661
15188SOL    HW147571   2.314   4.359   7.757  1.5200 -0.1512  1.4118
15188SOL    HW247572   2.299   4.221   7.696  3.7127  0.1787  0.0119
15189SOL     OW47573   0.210   4.829   8.992  0.0570  0.3806 -0.0575
15189SOL    HW147574   0.214   4.856   8.900  1.0361 -1.1127 -0.5004
15189SOL    HW247575   0.274   4.758   8.998 -0.5937 -0.1040  1.5934
15190SOL     OW47576   3.172   5.446  10.069  0.1667 -0.1594 -0.4481
15190SOL    HW147577   3.189   5.513  10.136  0.3404 -0.9684  0.3455
15190SOL    HW247578   3.186   5.363  10.115  0.0995 -0.7386 -1.4523
15191SOL     OW47579   2.197   9.919   1.392  0.3341  0.7933  0.2947
15191SOL    HW147580   2.110   9.893   1.362  0.7356 -1.1873  0.6679
15191SOL    HW247581   2.258   9.865   1.341  1.2857  1.3113  0.8384
15192SOL     OW47582   5.533   9.443   0.565  0.1868 -0.5245 -0.3228
15192SOL    HW147583   5.452   9.488   0.589  0.6326  0.9830 -1.4844
15192SOL    HW247584   5.543   9.460   0.471  1.4284 -1.3812 -0.3722
15193SOL     OW47585   4.354   2.233   4.378 -0.3171 -0.1819 -0.3672
15193SOL    HW147586   4.435   2.188   4.356  0.9027  1.5406  0.3839
15193SOL    HW247587   4.304   2.169   4.429  2.2518 -0.1073  2.4797
15194SOL     OW47588   3.376   6.014   6.107 -0.2093  0.0475 -0.2935
15194SOL    HW147589   3.419   5.948   6.161  0.1346  0.4296 -0.1013
15194SOL    HW247590   3.385   5.982   6.017  1.0355  0.4372 -0.3196
15195SOL     OW47591   2.108   8.275   4.271 -0.1215 -0.4487 -0.5791
15195SOL    HW147592   2.082   8.191   4.310 -1.3055 -0.5612 -1.5663
15195SOL    HW247593   2.151   8.250   4.190 -1.3757 -0.0916 -1.3802
15196SOL     OW47594   5.725   0.086   4.910 -0.3446 -0.1077 -0.2090
15196SOL    HW147595   5.673   0.118   4.984  3.3198  2.6357  1.4865
15196SOL    HW247596   5.714   0.153   4.843  3.4259  2.5680  1.5003
15197SOL     OW47597   8.970   3.088   2.207 -0.1588 -0.1095  0.0095
15197SOL    HW147598   9.043   3.033   2.236  0.2417  0.6744  0.4984
15197SOL    HW247599   8.900   3.068   2.270 -0.6244 -1.3738 -0.8591
15198SOL     OW47600   5.513   1.538   9.249  0.3935  0.3145 -0.1864
15198SOL    HW147601   5.472   1.487   9.319 -1.5235 -1.2280 -2.2994
15198SOL    HW247602   5.483   1.627   9.264 -0.8205 -0.1681  0.4079
15199SOL     OW47603   6.311   3.524   1.789 -0.5462 -0.1339 -0.6709
15199SOL    HW147604   6.272   3.564   1.711  0.8663 -2.2383 -2.5717
15199SOL    HW247605   6.297   3.589   1.858 -3.5838  1.0203 -2.1648
15200SOL     OW47606   3.947   1.784   6.014 -0.2526  0.6280  0.1440
15200SOL    HW147607   3.960   1.788   6.108  0.5570  1.2191  0.0191
15200SOL    HW247608   3.978   1.697   5.989  0.0786  0.6847  0.3505
15201SOL     OW47609   6.757   3.312   7.537 -0.3318 -0.2358 -0.1766
15201SOL    HW147610   6.768   3.398   7.495 -0.7088 -0.0804  0.0330
15201SOL    HW247611   6.781   3.327   7.629  0.1532 -0.4907 -0.2609
15202SOL     OW47612   7.407   4.105   8.553  0.2483 -0.1142  0.4454
15202SOL    HW147613   7.370   4.178   8.601 -0.9145  0.1162 -0.7421
15202SOL    HW247614   7.494   4.136   8.525  0.4937  0.1303  1.4586
15203SOL     OW47615   5.617   7.833   1.037 -0.4278 -0.1381 -0.3164
15203SOL    HW147616   5.545   7.786   0.997  0.0018 -0.1228 -1.1362
15203SOL    HW247617   5.684   7.838   0.968  1.0851 -1.7238  0.9369
15204SOL     OW47618  10.833   7.153   8.870 -0.3784 -0.1681 -0.0737
15204SOL    HW147619  10.906   7.208   8.899 -1.1141  0.5641  0.4488
15204SOL    HW247620  10.785   7.207   8.807 -1.1193 -0.1962  0.4517
15205SOL     OW47621   2.721   9.809   2.086 -0.0460  0.0220  0.2584
15205SOL    HW147622   2.631   9.833   2.106  0.0039 -0.2186  0.7783
15205SOL    HW247623   2.758   9.780   2.169  0.2100 -0.8310 -0.1335
15206SOL     OW47624  10.411   7.705   3.161 -0.0738  0.2368 -0.0310
15206SOL    HW147625  10.325   7.720   3.122 -0.6143 -2.1059  0.1466
15206SOL    HW247626  10.473   7.736   3.094 -0.9989 -2.5467 -2.3759
15207SOL     OW47627   2.127   0.180   1.599 -0.1579  0.1979  0.5491
15207SOL    HW147628   2.067   0.253   1.579  0.3882  0.0462 -1.8747
15207SOL    HW247629   2.069   0.105   1.610 -0.5334  0.3731 -0.1465
15208SOL     OW47630   7.673   7.486   8.614 -0.8593  0.1990  0.0909
15208SOL    HW147631   7.629   7.468   8.698 -2.2642 -1.0499 -0.8768
15208SOL    HW247632   7.766   7.483   8.635 -1.1724  0.6556  1.7515
15209SOL     OW47633   2.955   2.332   7.968  0.3904  0.7500 -0.4042
15209SOL    HW147634   3.033   2.330   8.024 -0.3245  3.4684  0.8755
15209SOL    HW247635   2.989   2.353   7.881  1.4696 -3.0323 -1.0689
15210SOL     OW47636  10.855   0.199   6.413 -0.0269 -0.1693 -0.6565
15210SOL    HW147637  10.888   0.237   6.332  0.3583  0.6689 -0.1250
15210SOL    HW247638  10.763   0.223   6.415 -0.3580 -1.2860 -1.4485
15211SOL     OW47639  10.730  10.959   6.668 -0.1870  0.0381  0.3206
15211SOL    HW147640  10.799  10.895   6.648 -0.1387  0.2505 -0.2038
15211SOL    HW247641  10.776  11.043   6.674 -0.3435  0.1187  0.3862
15212SOL     OW47642   1.335   7.960  10.367 -0.1907 -0.4715  0.0472
15212SOL    HW147643   1.309   8.051  10.381 -0.0250 -0.6962  2.0616
15212SOL    HW247644   1.429   7.959  10.380 -0.2217 -0.9801  0.2696
15213SOL     OW47645  11.115   6.436   1.050  0.4231  0.0036  0.0698
15213SOL    HW147646  11.190   6.392   1.090  2.0471  1.1847 -1.4992
15213SOL    HW247647  11.082   6.372   0.986  0.5111 -0.2791  0.3057
15214SOL     OW47648   8.072   5.740   6.145 -0.0620  0.0293 -0.4957
15214SOL    HW147649   8.059   5.674   6.076 -0.3006 -1.0537  0.5434
15214SOL    HW247650   8.152   5.712   6.189  0.5951  1.2362 -0.8728
15215SOL     OW47651   0.510   1.211   1.760  0.5617 -0.6968  0.3425
15215SOL    HW147652   0.467   1.296   1.767 -0.2676 -1.2271  2.5340
15215SOL    HW247653   0.580   1.214   1.825  2.1220 -0.8479 -1.2612
15216SOL     OW47654   9.256   2.034   4.216  0.3329 -0.2684  0.9391
15216SOL    HW147655   9.230   1.969   4.151  0.1195  0.9904 -0.2983
15216SOL    HW247656   9.174   2.080   4.237  0.4469 -0.5123  1.9309
15217SOL     OW47657   9.780   7.461   8.313  0.1900  0.4467 -0.4607
15217SOL    HW147658   9.870   7.466   8.280  0.7748  1.7860  1.1892
15217SOL    HW247659   9.745   7.549   8.297 -0.1585  0.5147  0.6685
15218SOL     OW47660   4.043   1.860   7.639  0.8688 -0.7352 -0.4988
15218SOL    HW147661   3.997   1.905   7.568  0.7429 -1.5313 -0.9225
15218SOL    HW247662   4.039   1.768   7.616  0.8607 -1.0020  0.5245
15219SOL     OW47663   1.822   9.892   6.150 -0.4773  0.0902  0.2192
15219SOL    HW147664   1.767   9.864   6.223 -0.1636  0.6280  0.6704
15219SOL    HW247665   1.831   9.814   6.096  1.5774 -1.2040  2.2035
15220SOL     OW47666   3.595   6.282   4.219 -0.1242  0.1640  0.2665
15220SOL    HW147667   3.534   6.299   4.290 -3.4850  0.7049 -2.4778
15220SOL    HW247668   3.570   6.344   4.150  1.2980 -1.8793 -2.2884
15221SOL     OW47669   8.072   3.940   2.155  0.2761 -0.4552 -0.5388
15221SOL    HW147670   8.030   3.925   2.240  0.6098 -1.7337 -0.5892
15221SOL    HW247671   8.079   4.036   2.149 -0.5449 -0.3156  0.4780
15222SOL     OW47672   3.393   2.289   9.911  0.4045  0.0935 -0.0269
15222SOL    HW147673   3.433   2.373   9.893  1.2999 -0.3508 -0.1477
15222SOL    HW247674   3.429   2.263   9.996 -0.9065  0.4416  0.6712
15223SOL     OW47675   5.023   5.728   2.964 -0.2265 -0.1720 -0.2112
15223SOL    HW147676   5.055   5.813   2.995 -1.7776  0.0469  0.9192
15223SOL    HW247677   5.009   5.740   2.870 -0.9039  1.0085  0.0186
15224SOL     OW47678   5.207   7.768   7.091  0.7417  0.1972 -0.8612
15224SOL    HW147679   5.282   7.721   7.055  1.5122 -1.2015  2.2385
15224SOL    HW247680   5.244   7.850   7.124  0.2161  1.0456 -2.2932
15225SOL     OW47681  10.443  11.159   6.953 -0.3020 -0.2197  0.2748
15225SOL    HW147682  10.501  11.085   6.936  0.9979  1.1299 -1.6069
15225SOL    HW247683  10.492  11.214   7.015 -0.5283 -0.1043  0.3524
15226SOL     OW47684   1.823   9.687   7.565  0.6607  0.3127 -0.1347
15226SOL    HW147685   1.859   9.612   7.519 -0.6347 -0.2636 -0.2617
15226SOL    HW247686   1.755   9.650   7.621 -0.2372  1.4240 -0.4562
15227SOL     OW47687   6.374   3.388   9.617  0.0399  0.1000 -0.8240
15227SOL    HW147688   6.431   3.342   9.555  0.0783 -0.9237 -0.0675
15227SOL    HW247689   6.339   3.318   9.672 -0.0222  0.9802  0.2803
15228SOL     OW47690   5.487   2.717   6.997  0.3218 -0.3246 -0.4488
15228SOL    HW147691   5.574   2.715   7.037  1.5870  0.9695 -2.8602
15228SOL    HW247692   5.504   2.734   6.904 -2.5291  0.4041 -0.9457
15229SOL     OW47693   4.550   1.620   7.525  0.4487  0.2811 -0.6838
15229SOL    HW147694   4.540   1.715   7.523 -0.5376  0.2587  1.0338
15229SOL    HW247695   4.545   1.597   7.618  1.9329 -1.3451 -0.9345
15230SOL     OW47696   7.279   9.952   2.197  0.4048 -0.1208  0.4673
15230SOL    HW147697   7.374   9.962   2.208 -0.0008  1.9180  2.8646
15230SOL    HW247698   7.251   9.903   2.274 -0.6404  0.3483  0.3936
15231SOL     OW47699  10.995   5.003   4.908 -0.3763  0.9593  0.5354
15231SOL    HW147700  11.042   5.020   4.826  1.1189 -0.8030  0.9551
15231SOL    HW247701  10.930   4.937   4.886  0.8078 -0.3858  0.9605
15232SOL     OW47702   8.712   9.783  10.735 -0.3447 -0.2447  0.1235
15232SOL    HW147703   8.652   9.844  10.778 -0.3128  1.4295 -2.0443
15232SOL    HW247704   8.795   9.794  10.781 -0.5907  0.6728  0.3697
15233SOL     OW47705   0.786   8.051   0.079 -0.2899  0.0119 -0.1698
15233SOL    HW147706   0.730   8.054   0.001  0.0760  0.3490 -0.4266
15233SOL    HW247707   0.860   7.996   0.053 -1.3316 -1.9212  0.7458
15234SOL     OW47708   5.748   9.220   9.675  0.0410 -0.4245  0.1529
15234SOL    HW147709   5.757   9.165   9.753 -1.3470 -1.4482 -0.3652
15234SOL    HW247710   5.776   9.164   9.603  1.0180  0.4130 -0.1423
15235SOL     OW47711  10.674   2.284  10.298  0.2103 -0.0807  0.1381
15235SOL    HW147712  10.619   2.322  10.229  0.6041  0.1039 -0.0807
15235SOL    HW247713  10.661   2.342  10.373  0.3377  0.1317 -0.0046
15236SOL     OW47714   4.743   6.426   1.603 -0.5802 -0.2477 -0.6074
15236SOL    HW147715   4.741   6.479   1.523 -0.2808 -0.1592 -0.5592
15236SOL    HW247716   4.660   6.445   1.647 -0.5676  0.0185 -0.6963
15237SOL     OW47717   2.696   3.417   2.150 -0.3923 -0.0493 -0.7496
15237SOL    HW147718   2.708   3.341   2.207 -1.7618  0.9094  0.9288
15237SOL    HW247719   2.780   3.426   2.105  0.8765 -0.7393  1.2926
15238SOL     OW47720   6.714   3.460   0.051 -0.6567  0.0677 -0.4128
15238SOL    HW147721   6.808   3.478   0.056 -0.0000 -2.9528  4.5835
15238SOL    HW247722   6.672   3.540   0.081  0.4334  0.7837 -0.7597
15239SOL     OW47723   0.224   1.102   8.464 -0.1214 -0.1463 -0.5091
15239SOL    HW147724   0.255   1.108   8.555  0.1908 -1.1571 -0.5361
15239SOL    HW247725   0.236   1.010   8.441 -3.2450 -0.6294 -0.5175
15240SOL     OW47726   9.962   6.214   4.359 -0.4425 -0.8538  0.9090
15240SOL    HW147727   9.964   6.234   4.453 -0.7264  2.2298  0.3533
15240SOL    HW247728   9.869   6.211   4.337 -0.3679 -0.1757  0.4847
15241SOL     OW47729  10.344   8.770   5.030  0.6397  0.4372  0.0670
15241SOL    HW147730  10.294   8.698   4.992  2.9487 -1.4451  0.3849
15241SOL    HW247731  10.367   8.739   5.118 -0.0486  2.4670  1.0256
15242SOL     OW47732   6.194   6.452   9.186  0.4055  0.7917 -0.0043
15242SOL    HW147733   6.111   6.410   9.210  0.7883 -0.3912 -0.6625
15242SOL    HW247734   6.187   6.468   9.092  1.3577 -0.4199 -0.3148
15243SOL     OW47735   4.431   4.673   9.882  0.6541 -0.3805 -0.1582
15243SOL    HW147736   4.467   4.625   9.807  0.6156 -1.1818  0.3187
15243SOL    HW247737   4.489   4.749   9.892 -1.5373  1.9788 -3.3862
15244SOL     OW47738   9.730   7.244   8.647  0.4195  0.3735  0.3751
15244SOL    HW147739   9.743   7.176   8.714 -1.8241 -0.8023 -0.2665
15244SOL    HW247740   9.759   7.203   8.566 -0.5254  0.3074  0.0546
15245SOL     OW47741   5.330   5.550   5.375 -0.5526  0.0730 -0.2595
15245SOL    HW147742   5.282   5.621   5.418 -1.2458 -0.8423  0.5172
15245SOL    HW247743   5.274   5.523   5.302  0.0255  0.7605 -0.9740
15246SOL     OW47744   3.314   1.213   2.226  0.1308 -0.2269  0.1521
15246SOL    HW147745   3.261   1.154   2.280  0.2376 -0.3717  0.1008
15246SOL    HW247746   3.403   1.179   2.234 -0.0831 -1.2980 -1.4507
15247SOL     OW47747   7.928   4.397   8.763 -0.0367 -0.7905 -0.3686
15247SOL    HW147748   7.953   4.426   8.851 -0.9045 -0.6572 -0.1497
15247SOL    HW247749   7.866   4.464   8.733  2.4786  0.8438 -2.3400
15248SOL     OW47750   5.027   8.924   4.467  0.4689 -0.2443 -0.2846
15248SOL    HW147751   5.100   8.864   4.449  1.3936  0.7785 -0.0194
15248SOL    HW247752   5.062   9.011   4.451 -1.8772  0.2214 -4.4657
15249SOL     OW47753   7.520   9.105   8.002  0.1244 -0.0292 -0.3699
15249SOL    HW147754   7.595   9.108   8.062 -0.1256 -0.2710 -0.0400
15249SOL    HW247755   7.469   9.029   8.032 -0.0821 -0.0610 -0.7960
15250SOL     OW47756   3.011   8.643   5.391 -0.8736  0.1320 -0.6656
15250SOL    HW147757   3.045   8.658   5.479  2.7313 -1.8771 -1.4955
15250SOL    HW247758   3.043   8.717   5.340 -1.0895  0.1981 -0.7046
15251SOL     OW47759   5.340   2.395   9.863  1.0254 -0.3001 -0.7323
15251SOL    HW147760   5.416   2.346   9.893  1.3968  0.6655 -0.0600
15251SOL    HW247761   5.285   2.329   9.820  2.4259 -0.9424 -1.6402
15252SOL     OW47762   5.268   4.915   8.922 -0.2005  0.0770  0.5553
15252SOL    HW147763   5.261   4.820   8.928  0.8423 -0.0684 -0.1808
15252SOL    HW247764   5.240   4.935   8.833  1.8018  0.1735 -0.1168
15253SOL     OW47765   8.994   2.208   8.698  0.6682  0.1322 -0.9617
15253SOL    HW147766   9.052   2.262   8.643 -0.5814  1.8751 -0.6802
15253SOL    HW247767   8.925   2.269   8.725 -0.0593 -1.3071  0.5557
15254SOL     OW47768   4.447   6.313   7.073  0.0145  0.0123 -0.5434
15254SOL    HW147769   4.487   6.341   6.991 -1.9028 -0.6796 -1.7782
15254SOL    HW247770   4.488   6.368   7.140  0.0301  2.1645 -2.2275
15255SOL     OW47771   4.716   0.519   4.996 -0.5597 -0.6789 -1.2030
15255SOL    HW147772   4.649   0.482   5.053 -1.6159  0.1115 -1.8839
15255SOL    HW247773   4.707   0.470   4.914 -0.6637 -0.2257 -1.4655
15256SOL     OW47774  10.500  10.316   9.936  0.3696  0.2936 -0.0439
15256SOL    HW147775  10.451  10.298  10.016 -1.1616 -0.1008 -1.0426
15256SOL    HW247776  10.506  10.412   9.932  2.6146  0.3274  1.7554
15257SOL     OW47777   9.868   9.367   1.841  0.2266 -0.1770  0.7000
15257SOL    HW147778   9.803   9.427   1.803  0.5937 -0.8120 -1.0416
15257SOL    HW247779   9.901   9.318   1.766  1.3235 -1.2242  1.8297
15258SOL     OW47780   4.923   9.509   9.858 -0.0930 -0.2041  0.2762
15258SOL    HW147781   4.898   9.590   9.815  0.6589 -0.1845 -0.1558
15258SOL    HW247782   4.849   9.450   9.845 -0.8042  0.5376  0.9455
15259SOL     OW47783   6.078  10.191   7.903  0.5426  0.0331 -0.6906
15259SOL    HW147784   6.048  10.142   7.827  2.4145 -1.2834 -0.6495
15259SOL    HW247785   6.045  10.142   7.978 -0.2005  0.6071 -0.6270
15260SOL     OW47786   0.370   8.063   7.171  0.4381 -0.2079 -0.0238
15260SOL    HW147787   0.433   8.095   7.235  0.0804  2.1054 -0.7213
15260SOL    HW247788   0.335   8.143   7.130 -1.0720 -1.5140 -1.4249
15261SOL     OW47789   6.978   0.558   7.026  0.4233 -0.5629  0.1627
15261SOL    HW147790   6.931   0.490   6.979  3.2044 -2.3940 -0.2414
15261SOL    HW247791   6.931   0.568   7.109 -0.8691 -1.9468 -0.3658
15262SOL     OW47792   2.643   5.333  10.952 -0.0974 -0.1941  0.3457
15262SOL    HW147793   2.618   5.415  10.996 -2.1443 -0.7158  0.2302
15262SOL    HW247794   2.723   5.306  10.997  0.5749  1.8171  0.4516
15263SOL     OW47795   0.721   1.104   3.255  1.2060 -0.0428  0.0458
15263SOL    HW147796   0.705   1.190   3.295  0.9861  0.5426 -1.2603
15263SOL    HW247797   0.743   1.047   3.329 -2.0258  0.2740  1.4134
15264SOL     OW47798   8.491   3.501   2.177 -0.3364 -0.6353  0.0598
15264SOL    HW147799   8.576   3.519   2.216 -0.7891 -2.1141  1.8779
15264SOL    HW247800   8.488   3.557   2.100  2.0107 -0.0853  0.2848
15265SOL     OW47801   3.334   5.858   4.909 -0.5226  0.2356 -0.4070
15265SOL    HW147802   3.377   5.787   4.957 -1.9401  0.6232  1.5633
15265SOL    HW247803   3.375   5.856   4.822  0.7540 -1.7969  0.1574
15266SOL     OW47804   0.065   0.145   7.735  0.1401  0.6118 -0.3982
15266SOL    HW147805   0.021   0.229   7.748  0.6011  0.9430 -0.9153
15266SOL    HW247806   0.024   0.086   7.799 -1.3260  0.7943 -1.1351
15267SOL     OW47807   9.961   4.136   5.243  0.3206 -0.0286 -0.6003
15267SOL    HW147808  10.012   4.055   5.235  0.4771  0.1716 -1.8594
15267SOL    HW247809   9.956   4.151   5.337  0.4105 -1.4237 -0.3398
15268SOL     OW47810  10.489   8.403   6.108 -0.9214  0.3384 -0.0103
15268SOL    HW147811  10.482   8.310   6.131 -1.0175  0.0490 -1.1466
15268SOL    HW247812  10.442   8.448   6.177 -0.1898 -0.3943  0.9888
15269SOL     OW47813   7.932  10.541   3.907  0.3308 -0.3117  0.0933
15269SOL    HW147814   8.002  10.599   3.936  1.5874 -0.6433 -2.0901
15269SOL    HW247815   7.937  10.465   3.966 -2.0281  2.0131  3.7133
15270SOL     OW47816   0.554   2.843   0.220 -1.0455  0.0076 -0.2547
15270SOL    HW147817   0.610   2.875   0.149  1.6209 -0.3804  1.5345
15270SOL    HW247818   0.525   2.922   0.266 -0.2132  0.1287  0.0617
15271SOL     OW47819   4.229   8.950   5.422 -0.5272 -0.4179  0.6196
15271SOL    HW147820   4.141   8.937   5.458 -2.4299  0.6764 -3.1256
15271SOL    HW247821   4.254   9.038   5.451 -1.9356  0.3794 -0.4360
15272SOL     OW47822   1.473   4.450   5.304 -0.0978 -0.5886 -1.0308
15272SOL    HW147823   1.458   4.357   5.320 -0.8070 -0.3236  0.0007
15272SOL    HW247824   1.494   4.457   5.211 -0.8431 -1.6794 -1.2883
15273SOL     OW47825   5.797   2.130   1.414  0.0417  0.1761 -0.3465
15273SOL    HW147826   5.760   2.212   1.380  0.4990  0.3286 -0.4875
15273SOL    HW247827   5.723   2.070   1.417 -0.6805  1.0808  1.3736
15274SOL     OW47828  10.926   9.987   4.336  0.1828  0.1613  0.9746
15274SOL    HW147829  10.900  10.057   4.277  0.3503 -1.1132 -0.6923
15274SOL    HW247830  10.843   9.948   4.365  0.0851 -0.8724 -0.5645
15275SOL     OW47831   2.787   2.338   8.455  0.0676  0.2831  0.2382
15275SOL    HW147832   2.770   2.244   8.444 -0.9341  0.6056 -1.1368
15275SOL    HW247833   2.799   2.371   8.366  0.0374  1.5360  0.6858
15276SOL     OW47834   4.782   9.531   0.691 -0.4094 -0.0022  0.0045
15276SOL    HW147835   4.805   9.492   0.607 -0.2481  1.5421 -0.6964
15276SOL    HW247836   4.832   9.479   0.755  2.2046  0.8908 -1.1542
15277SOL     OW47837   9.253   1.299   7.410 -0.3542  0.1203  0.3088
15277SOL    HW147838   9.236   1.267   7.498  0.6311 -2.3043 -0.2905
15277SOL    HW247839   9.213   1.234   7.353 -0.9237  1.6084 -1.0693
15278SOL     OW47840   9.679  10.498   2.714 -0.1739 -0.7654 -0.1757
15278SOL    HW147841   9.762  10.469   2.752  0.2944  0.7174  0.0257
15278SOL    HW247842   9.664  10.439   2.641  2.4201  0.4523 -1.8342
15279SOL     OW47843   4.514  10.755   3.521 -0.6670  0.7511  0.1015
15279SOL    HW147844   4.549  10.772   3.434  1.1998 -0.6229  0.5042
15279SOL    HW247845   4.576  10.797   3.581 -0.6885 -0.1768  0.8010
15280SOL     OW47846  11.185   7.080   1.318  0.0382  0.0650 -0.7026
15280SOL    HW147847  11.243   7.123   1.380  0.2412 -0.0919 -0.7829
15280SOL    HW247848  11.102   7.071   1.365  0.3736 -0.6334 -0.2244
15281SOL     OW47849   7.775   0.837   4.898 -0.3576 -0.1855  0.3584
15281SOL    HW147850   7.863   0.875   4.907  1.0572 -3.4508  2.4897
15281SOL    HW247851   7.721   0.889   4.958  0.7741  0.2707  1.0264
15282SOL     OW47852   8.944   4.286  10.009 -0.4581  0.7371  0.7361
15282SOL    HW147853   8.996   4.262   9.932 -1.7408 -1.5368  0.4933
15282SOL    HW247854   8.877   4.345   9.975 -1.7858 -1.2212 -0.2234
15283SOL     OW47855   4.178   2.099   5.284  0.5756  0.3911  0.2083
15283SOL    HW147856   4.099   2.107   5.338  0.3139 -0.9012  0.0369
15283SOL    HW247857   4.158   2.149   5.205 -0.6564 -1.1051 -0.4657
15284SOL     OW47858  10.775  10.497   6.931 -0.8284  0.3334 -0.7042
15284SOL    HW147859  10.723  10.422   6.959 -3.0828  2.4112  1.1004
15284SOL    HW247860  10.717  10.547   6.874 -0.5476  2.2162  0.5667
15285SOL     OW47861   6.150   9.065   8.363 -0.1548 -0.1093 -0.2365
15285SOL    HW147862   6.134   9.077   8.269  0.0387 -2.0160 -0.5526
15285SOL    HW247863   6.078   9.009   8.392 -1.5089  2.2703  1.3005
15286SOL     OW47864   8.675   9.305   6.258  0.2561  0.5602 -0.2350
15286SOL    HW147865   8.704   9.349   6.178  0.1149  0.3641 -0.3933
15286SOL    HW247866   8.579   9.306   6.253  0.0731  3.3968  1.4388
15287SOL     OW47867   2.889   9.810   0.772  0.2355 -0.0765  0.3756
15287SOL    HW147868   2.856   9.885   0.723  1.2293 -0.6291 -1.2231
15287SOL    HW247869   2.852   9.820   0.859 -1.0581  1.3182 -0.2904
15288SOL     OW47870   4.188   7.256   2.894  0.6171  1.1345  0.2934
15288SOL    HW147871   4.277   7.238   2.865  0.5299  0.5801  0.3761
15288SOL    HW247872   4.150   7.307   2.822  0.9605  1.2773  0.2111
15289SOL     OW47873   7.777   4.053   3.713 -0.2667 -0.3828  0.5601
15289SOL    HW147874   7.805   4.116   3.647  1.1511  0.2819  1.7294
15289SOL    HW247875   7.719   4.103   3.771  0.0383 -0.4232  0.9052
15290SOL     OW47876   8.059   8.648   8.877 -0.0064  0.5405 -0.1388
15290SOL    HW147877   7.973   8.615   8.904 -0.0152  2.2224  2.1665
15290SOL    HW247878   8.100   8.574   8.833 -0.9736 -1.7703  2.5504
15291SOL     OW47879   0.553   9.015   7.441  0.1339  0.1305  0.1636
15291SOL    HW147880   0.457   9.010   7.447  0.0487  1.0121 -0.2725
15291SOL    HW247881   0.569   9.090   7.384  1.0448 -1.3431 -1.6230
15292SOL     OW47882   0.790   3.821   2.942  0.4080 -0.2932 -0.8281
15292SOL    HW147883   0.765   3.902   2.987  2.1309 -0.0854 -0.1530
15292SOL    HW247884   0.720   3.806   2.878 -0.4927  1.1315 -0.2261
15293SOL     OW47885   7.987   8.879   8.292 -0.1090 -0.7003 -0.4637
15293SOL    HW147886   7.920   8.854   8.356 -0.1074  0.9787  0.2580
15293SOL    HW247887   7.971   8.824   8.216 -1.1736 -1.5797  0.3755
15294SOL     OW47888   4.556   0.997   6.995 -0.3919  0.3948  0.4147
15294SOL    HW147889   4.640   1.032   6.966  0.4459 -1.3636  0.5727
15294SOL    HW247890   4.530   1.055   7.067  1.2089  0.3747  1.0603
15295SOL     OW47891   1.124   9.600   1.119 -0.2794  0.7100  0.0046
15295SOL    HW147892   1.206   9.598   1.169  0.4692  1.1387 -1.1622
15295SOL    HW247893   1.081   9.517   1.139  1.1536 -0.1858 -0.5250
15296SOL     OW47894   3.570   3.811  11.004  0.0045 -0.1474  0.0914
15296SOL    HW147895   3.505   3.747  11.032  0.2607 -0.3014  0.3447
15296SOL    HW247896   3.584   3.867  11.081  0.1445 -0.0926  0.0277
15297SOL     OW47897   1.108   6.308   6.068 -0.0909 -0.3999  0.5366
15297SOL    HW147898   1.127   6.251   5.993 -3.0008 -1.3603  0.4177
15297SOL    HW247899   1.124   6.254   6.145 -2.4173 -1.3570  0.4297
15298SOL     OW47900  11.092  10.614   5.951 -0.2294  0.3259 -0.7845
15298SOL    HW147901  11.090  10.523   5.980  0.2171  0.8754  1.0797
15298SOL    HW247902  11.132  10.611   5.864  4.4150 -0.8379  1.1276
15299SOL     OW47903  11.077   9.137   1.936 -0.3424 -0.0569  0.4348
15299SOL    HW147904  11.120   9.185   1.866 -0.4035 -0.2071  0.2943
15299SOL    HW247905  10.986   9.128   1.906 -0.3008 -0.3744  0.4012
15300SOL     OW47906   0.521   2.779   3.547 -0.3155 -0.4977 -0.0121
15300SOL    HW147907   0.596   2.793   3.605 -0.6313  0.2734  0.2186
15300SOL    HW247908   0.456   2.736   3.603 -0.0407 -1.2001 -0.2217
15301SOL     OW47909   4.130   4.876   2.901  0.0186  0.3492  0.4843
15301SOL    HW147910   4.052   4.895   2.953 -0.9074 -2.0899  0.1320
15301SOL    HW247911   4.107   4.902   2.812 -0.9478 -1.5404  0.1401
15302SOL     OW47912   9.081   3.124   3.435  0.0742 -0.5912  0.8104
15302SOL    HW147913   9.156   3.076   3.400 -0.1333 -0.2325 -0.1570
15302SOL    HW247914   9.045   3.067   3.503  3.1991  0.6292  3.7730
15303SOL     OW47915   3.689   2.238   7.114 -0.2490 -0.8686 -0.1522
15303SOL    HW147916   3.726   2.198   7.193 -0.0940  0.7146  0.6228
15303SOL    HW247917   3.765   2.253   7.057  0.3340  1.8057  1.1801
15304SOL     OW47918   9.773   9.989   3.938  0.2460 -0.5185  0.8998
15304SOL    HW147919   9.704   9.928   3.912  1.1456 -1.0091 -0.4206
15304SOL    HW247920   9.810  10.021   3.856 -0.5503  2.2803  1.5180
15305SOL     OW47921   7.076  10.545   4.365 -0.4943  0.0412  0.4206
15305SOL    HW147922   7.162  10.540   4.324 -0.3386  0.4411  0.6891
15305SOL    HW247923   7.038  10.626   4.331 -0.3290  0.4233  1.1170
15306SOL     OW47924   8.871   5.191   8.913  0.1603 -0.2113 -0.2072
15306SOL    HW147925   8.867   5.116   8.854 -0.0552  0.8819 -1.6530
15306SOL    HW247926   8.809   5.254   8.875  0.7021  0.8905  0.6684
15307SOL     OW47927   9.388   3.322   6.623 -0.0567 -0.1801 -0.4803
15307SOL    HW147928   9.400   3.245   6.679 -0.7721  0.4681  0.5866
15307SOL    HW247929   9.294   3.322   6.603 -0.0682  0.4338 -0.4385
15308SOL     OW47930   6.339   9.841   6.351 -0.1656  0.1890 -0.2011
15308SOL    HW147931   6.403   9.869   6.417 -0.4345 -1.0619  0.6202
15308SOL    HW247932   6.390   9.794   6.286 -0.0738  0.3518 -0.2477
15309SOL     OW47933   3.440   4.307   2.307 -0.9127  0.0325  0.5043
15309SOL    HW147934   3.391   4.313   2.389 -0.1980 -0.8533  1.0200
15309SOL    HW247935   3.521   4.356   2.324 -0.7076 -0.2601  0.3810
15310SOL     OW47936   3.759   8.874   6.830 -0.0122  0.1851  0.9594
15310SOL    HW147937   3.678   8.853   6.783  0.1201 -0.3726  0.9750
15310SOL    HW247938   3.805   8.790   6.839 -0.2587  0.1731  2.5136
15311SOL     OW47939  10.152   7.401   0.526 -0.2766 -0.8744 -1.0025
15311SOL    HW147940  10.075   7.358   0.490 -0.7275  0.8915 -2.2927
15311SOL    HW247941  10.131   7.415   0.618 -0.0900 -3.3425 -0.5314
15312SOL     OW47942   6.295  10.222   2.822 -0.2267 -0.4570 -0.3325
15312SOL    HW147943   6.223  10.172   2.862 -0.6386  0.9351  0.7379
15312SOL    HW247944   6.270  10.231   2.730 -2.1011  1.0619  0.2520
15313SOL     OW47945   0.869   8.614   4.295 -0.3504  0.5812  0.1635
15313SOL    HW147946   0.933   8.563   4.245  0.2200  3.9600 -2.9910
15313SOL    HW247947   0.784   8.577   4.271  0.1609 -2.3171  2.3939
15314SOL     OW47948   2.680   9.521   4.349 -0.6014  0.4133 -0.0499
15314SOL    HW147949   2.679   9.457   4.278  0.5480 -1.2919  1.3901
15314SOL    HW247950   2.765   9.566   4.339  0.6112 -1.3869  1.4722
15315SOL     OW47951   0.252   5.493  11.141 -0.2410 -0.4278  0.1184
15315SOL    HW147952   0.286   5.478  11.053 -1.2995  0.6716 -0.5145
15315SOL    HW247953   0.198   5.416  11.159  1.9707 -1.8775  0.8741
15316SOL     OW47954   6.188   9.198   1.130 -0.5160  0.4523  0.1399
15316SOL    HW147955   6.147   9.249   1.200  0.6122  2.1541 -0.4080
15316SOL    HW247956   6.192   9.257   1.055 -0.8908 -1.0558 -1.1261
15317SOL     OW47957   8.906   1.386   7.788 -0.4279 -0.1345 -0.1444
15317SOL    HW147958   8.897   1.311   7.847  0.1560  1.2170  1.7716
15317SOL    HW247959   8.860   1.457   7.832  2.3375  1.6539  0.1526
15318SOL     OW47960   1.756   6.405   2.252 -0.1772  0.0210  0.1118
15318SOL    HW147961   1.776   6.499   2.255 -1.6163  0.3364  0.3811
15318SOL    HW247962   1.662   6.400   2.266 -0.3894 -1.3728 -1.5148
15319SOL     OW47963   0.135   0.562   6.903  0.2891 -0.4739  0.6465
15319SOL    HW147964   0.177   0.506   6.837 -1.7611  0.4450 -1.6081
15319SOL    HW247965   0.180   0.646   6.897 -1.4160  0.3929 -1.5019
15320SOL     OW47966   4.375   8.817   4.476 -0.4065 -0.3967  0.7086
15320SOL    HW147967   4.331   8.854   4.399 -0.1785  1.3579  1.3630
15320SOL    HW247968   4.332   8.859   4.550 -1.4655 -2.9688  1.6687
15321SOL     OW47969   2.966   3.820   0.299  0.0340  1.0704 -0.2093
15321SOL    HW147970   2.905   3.770   0.243  1.3958 -1.6746  0.5848
15321SOL    HW247971   2.933   3.807   0.388  1.3408  0.0983  0.1662
15322SOL     OW47972   0.581   9.244   5.749  0.3983  0.0063  0.2405
15322SOL    HW147973   0.599   9.177   5.683  0.6048  0.0512  0.2507
15322SOL    HW247974   0.489   9.232   5.771  0.6323 -0.8050  0.8356
15323SOL     OW47975   3.319   8.018   6.185  0.1297  0.2463  0.0353
15323SOL    HW147976   3.350   8.042   6.272 -3.6158 -0.5733  1.8179
15323SOL    HW247977   3.293   8.101   6.145 -0.1860  0.4413  0.6336
15324SOL     OW47978   8.862   9.495   3.108 -0.0103 -0.6708 -0.0029
15324SOL    HW147979   8.826   9.548   3.037 -0.1549  0.1555  0.6708
15324SOL    HW247980   8.950   9.531   3.123 -0.6400  0.3878  1.4318
15325SOL     OW47981   0.870   7.228   2.145 -0.0687  0.0416 -0.5257
15325SOL    HW147982   0.809   7.217   2.072 -1.9267  2.2684  0.5546
15325SOL    HW247983   0.814   7.221   2.223  0.8087  2.9680  0.4959
15326SOL     OW47984   8.189   0.084   0.485 -0.2245 -0.2635 -0.2079
15326SOL    HW147985   8.275   0.055   0.516  0.4727  1.8487 -0.0491
15326SOL    HW247986   8.204   0.170   0.448 -2.2195 -0.0156 -0.5621
15327SOL     OW47987   5.239   5.453   3.764  0.2671 -0.4592  0.0047
15327SOL    HW147988   5.187   5.500   3.830 -0.0293  1.5471 -1.5554
15327SOL    HW247989   5.248   5.364   3.799 -0.6478  0.2709  2.2884
15328SOL     OW47990   5.125   6.054  10.028  0.0490 -0.0266 -0.6618
15328SOL    HW147991   5.030   6.066  10.026 -0.0955 -0.8456  0.2543
15328SOL    HW247992   5.155   6.104  10.104  0.0112 -1.6447  0.4823
15329SOL     OW47993   7.529   3.003   1.778 -0.4146 -0.3406 -0.0345
15329SOL    HW147994   7.585   2.939   1.732 -1.8194 -0.6125 -1.4407
15329SOL    HW247995   7.440   2.982   1.750 -0.9110  2.5630 -0.9856
15330SOL     OW47996   3.712   8.771   7.587 -0.5618 -0.2915  0.2128
15330SOL    HW147997   3.681   8.780   7.497 -1.3949  1.0247  0.6076
15330SOL    HW247998   3.633   8.756   7.639 -0.4700  1.7927  1.0657
15331SOL     OW47999   2.536   6.224   5.333  0.4986  0.3152  0.0716
15331SOL    HW148000   2.541   6.177   5.250 -0.3345  0.3701 -0.0156
15331SOL    HW248001   2.533   6.316   5.308 -1.2150  0.2912  0.0692
15332SOL     OW48002  10.217   5.313   4.121  0.5874  0.5563  0.3523
15332SOL    HW148003  10.245   5.368   4.047 -0.4312  2.0253  1.0160
15332SOL    HW248004  10.244   5.225   4.096 -0.1701  0.9158 -2.0056
15333SOL     OW48005   8.407   8.397   9.623 -0.3401  0.5043  0.3259
15333SOL    HW148006   8.464   8.470   9.646 -0.3367  0.5626  0.1336
15333SOL    HW248007   8.463   8.319   9.635 -0.0836  0.5892 -0.2697
15334SOL     OW48008   1.318   4.542   0.321  0.1732  0.3155  0.0386
15334SOL    HW148009   1.305   4.451   0.349 -2.3584  1.2291  2.1947
15334SOL    HW248010   1.315   4.593   0.402  0.3064  2.4496 -1.2264
15335SOL     OW48011   5.815   3.246   0.981  0.3258  0.8721 -0.2306
15335SOL    HW148012   5.859   3.244   1.066  1.3343  1.4266 -0.7191
15335SOL    HW248013   5.811   3.338   0.958 -2.6277  1.0378  0.5250
15336SOL     OW48014   8.875   6.691   4.860 -0.2015  0.2957 -0.1041
15336SOL    HW148015   8.788   6.723   4.883 -0.8317 -0.2407 -1.5943
15336SOL    HW248016   8.935   6.760   4.889 -1.2295  1.2291 -0.1349
15337SOL     OW48017  11.221   7.244   9.202  0.4434 -0.4705 -0.3867
15337SOL    HW148018  11.242   7.338   9.195  3.8751 -1.0824 -0.1997
15337SOL    HW248019  11.202   7.231   9.295 -1.0591  0.1571 -0.5765
15338SOL     OW48020   6.168   5.435   4.290 -0.5282 -0.6438 -0.2363
15338SOL    HW148021   6.217   5.507   4.250  0.5748 -0.6240  1.0692
15338SOL    HW248022   6.141   5.469   4.375 -1.1673 -1.3158 -0.1634
15339SOL     OW48023   6.482  10.416   2.913  0.8194  0.4227  0.1191
15339SOL    HW148024   6.401  10.367   2.899 -1.0188  2.9196  1.1204
15339SOL    HW248025   6.509  10.392   3.002  0.2445  0.7945  0.3979
15340SOL     OW48026   0.032   0.804   8.385 -0.2643  0.1731 -0.1232
15340SOL    HW148027   0.009   0.861   8.458  0.6083 -1.8751  1.8664
15340SOL    HW248028  -0.010   0.721   8.406 -3.0412  0.3797 -3.8224
15341SOL     OW48029  10.013   4.859   2.235 -0.1307  0.0486 -0.3779
15341SOL    HW148030   9.948   4.928   2.224 -0.4216 -0.2739 -0.7163
15341SOL    HW248031   9.993   4.822   2.322 -1.2592 -0.9180 -1.0207
15342SOL     OW48032   2.687   5.649   6.118  0.2557  0.3676  0.0604
15342SOL    HW148033   2.731   5.728   6.151 -2.3282  2.6764 -1.5181
15342SOL    HW248034   2.596   5.676   6.105 -0.2035 -2.0573 -3.1167
15343SOL     OW48035   8.353   6.933   3.516 -0.1194  0.1946 -0.0005
15343SOL    HW148036   8.378   6.851   3.558 -0.6568  0.7619  1.4664
15343SOL    HW248037   8.283   6.908   3.456  1.6520 -0.8632 -1.7615
15344SOL     OW48038   0.522   0.431   0.089  0.3312 -0.1799  0.5403
15344SOL    HW148039   0.598   0.429   0.030 -0.7079 -0.4218 -0.8417
15344SOL    HW248040   0.558   0.457   0.174  2.1319 -1.3808  0.1975
15345SOL     OW48041   7.825   8.792   3.489  0.3007  0.6214  0.1989
15345SOL    HW148042   7.887   8.832   3.550  0.0297 -0.1358  0.9870
15345SOL    HW248043   7.762   8.746   3.544  1.3577 -2.0479 -0.6490
15346SOL     OW48044   9.304   2.455   8.412 -0.1508  0.3719 -0.1579
15346SOL    HW148045   9.383   2.449   8.467 -2.5131 -1.5425  3.3680
15346SOL    HW248046   9.294   2.368   8.375  0.1071  1.0129 -1.8115
15347SOL     OW48047   1.868   5.075   9.331 -0.0335 -0.3179  0.5667
15347SOL    HW148048   1.931   5.004   9.318  0.0887 -0.3353  1.2372
15347SOL    HW248049   1.920   5.147   9.367  0.1361  0.6377 -1.4510
15348SOL     OW48050   1.105   0.850   5.535  0.5200 -0.5265  0.1520
15348SOL    HW148051   1.009   0.846   5.540  0.2498 -1.1549 -3.3755
15348SOL    HW248052   1.135   0.794   5.607 -1.5753  1.7500  3.0703
15349SOL     OW48053  10.363   2.328   4.698 -0.0488 -0.4789 -0.0554
15349SOL    HW148054  10.309   2.365   4.628  0.5994 -1.3635 -1.0678
15349SOL    HW248055  10.324   2.242   4.715 -1.7622  0.7075  2.5190
15350SOL     OW48056   4.370   0.501   5.306  0.1409  0.4235 -0.1121
15350SOL    HW148057   4.356   0.472   5.396 -1.6761  1.6576  0.0389
15350SOL    HW248058   4.452   0.458   5.280 -0.8866 -2.4959  1.0297
15351SOL     OW48059   8.476   3.997   3.108  0.3994  0.2590  0.3092
15351SOL    HW148060   8.495   4.001   3.014  2.3931  2.0857  0.7114
15351SOL    HW248061   8.424   3.917   3.118 -1.0217  0.6697 -2.5019
15352SOL     OW48062   8.668   0.789   0.729  0.6389 -0.2378 -0.8222
15352SOL    HW148063   8.708   0.875   0.741  0.0781 -0.0339 -0.3576
15352SOL    HW248064   8.740   0.727   0.740  1.2270  0.1897 -2.0134
15353SOL     OW48065   5.952   0.568   5.948  0.0306 -0.4156 -0.2417
15353SOL    HW148066   6.002   0.513   5.887 -0.8477 -0.0302 -1.3585
15353SOL    HW248067   5.918   0.638   5.893  2.7487  2.4774  1.4336
15354SOL     OW48068   6.492   2.547   4.423 -0.1644  0.1331  0.1648
15354SOL    HW148069   6.576   2.522   4.460  0.1839  1.2500  0.1549
15354SOL    HW248070   6.443   2.583   4.496 -0.3182  0.2637 -0.0007
15355SOL     OW48071  11.178   7.243   3.158 -0.5139  0.3317 -0.1935
15355SOL    HW148072  11.149   7.245   3.067 -3.9714  0.2406  0.7850
15355SOL    HW248073  11.126   7.311   3.201 -1.8255 -2.1444  2.4205
15356SOL     OW48074  10.626   0.254   1.334 -0.1644  0.5181  0.3797
15356SOL    HW148075  10.599   0.221   1.420  0.1683  2.2746  1.2189
15356SOL    HW248076  10.547   0.297   1.300  0.1839  1.4303  0.6707
15357SOL     OW48077   5.261   3.693   9.998 -0.4149 -0.1038 -0.7981
15357SOL    HW148078   5.349   3.673   9.968 -0.3855  0.4700 -1.1043
15357SOL    HW248079   5.253   3.646  10.081  0.1865 -0.1334 -0.7519
15358SOL     OW48080  11.157   4.724   8.442  0.5463  0.0334 -0.4966
15358SOL    HW148081  11.200   4.657   8.495  1.1589 -0.4185 -1.5434
15358SOL    HW248082  11.203   4.722   8.358  0.1718  1.3411 -0.7593
15359SOL     OW48083   6.045  10.688   8.391  0.2984 -0.1019 -0.1360
15359SOL    HW148084   5.988  10.624   8.348  1.1365 -1.6990  1.0121
15359SOL    HW248085   6.058  10.756   8.326 -0.4595 -1.2024 -1.5046
15360SOL     OW48086   4.691   0.306   4.827 -0.5692  0.3770  0.1046
15360SOL    HW148087   4.625   0.238   4.841  0.9956 -1.5213 -1.2464
15360SOL    HW248088   4.714   0.299   4.734 -0.7545  3.1983 -0.2427
15361SOL     OW48089   3.846   8.390   5.700  0.2734 -0.5012  0.5661
15361SOL    HW148090   3.862   8.344   5.618  2.3642 -1.6717  1.5356
15361SOL    HW248091   3.868   8.326   5.768  1.3873  1.2963  1.9908
15362SOL     OW48092   7.901   9.464   3.935  0.2966 -0.1556  0.6771
15362SOL    HW148093   7.833   9.509   3.885 -0.1609 -0.8980  0.6117
15362SOL    HW248094   7.866   9.376   3.948  1.3833 -0.6427  0.3707
15363SOL     OW48095   3.669  11.013   7.037  0.4127 -0.1912  0.1299
15363SOL    HW148096   3.600  11.076   7.060  0.5089  0.0635 -0.2680
15363SOL    HW248097   3.687  11.030   6.945  2.5845  1.2837  0.7364
15364SOL     OW48098   0.270   5.533   6.638  0.0859 -0.4586  0.1710
15364SOL    HW148099   0.272   5.625   6.612 -0.3654 -0.1842  1.0617
15364SOL    HW248100   0.322   5.529   6.718  1.9733 -1.4043 -1.0453
15365SOL     OW48101   4.469   0.741   7.894 -0.0859  0.2407 -0.1892
15365SOL    HW148102   4.536   0.673   7.883  0.4132  0.4317  1.4111
15365SOL    HW248103   4.518   0.823   7.895 -0.2421  0.3530  1.4119
15366SOL     OW48104   4.226   0.727   4.061 -0.0133  1.1652 -0.0660
15366SOL    HW148105   4.262   0.670   4.129  2.9864  1.2240 -1.4383
15366SOL    HW248106   4.262   0.813   4.082 -0.6888  1.5775 -0.6108
15367SOL     OW48107  11.238   9.543   0.614 -0.1617 -0.5072 -0.2208
15367SOL    HW148108  11.266   9.582   0.697  0.8439 -2.6240  0.5166
15367SOL    HW248109  11.282   9.596   0.547 -1.8915  1.9492  0.4618
15368SOL     OW48110   2.340   1.398   3.844  0.5896  0.4495 -0.2311
15368SOL    HW148111   2.270   1.333   3.840 -0.0071  0.8890  1.8212
15368SOL    HW248112   2.415   1.351   3.881  0.5547  0.6039  0.0404
15369SOL     OW48113   1.797   9.180   4.578 -0.4003 -0.2300 -0.0358
15369SOL    HW148114   1.868   9.235   4.611  0.6892 -1.6802  0.1270
15369SOL    HW248115   1.717   9.219   4.615  0.1072  2.2942 -1.3762
15370SOL     OW48116   2.147   0.624   2.025  0.1345  0.0471 -0.3240
15370SOL    HW148117   2.171   0.693   2.087  1.2205  0.9534 -1.7023
15370SOL    HW248118   2.104   0.670   1.953 -1.0054 -0.9744 -0.3259
15371SOL     OW48119   3.607   5.469   0.598  0.0485  0.0623  0.0226
15371SOL    HW148120   3.611   5.545   0.657  0.0951  0.1797 -0.1331
15371SOL    HW248121   3.579   5.396   0.655  1.1341 -0.0574  0.4357
15372SOL     OW48122   4.180   2.758  10.882 -0.4749  0.3157  0.4016
15372SOL    HW148123   4.260   2.716  10.851 -0.1213 -1.0114  2.8851
15372SOL    HW248124   4.117   2.743  10.811  1.2753  1.0025 -1.4143
15373SOL     OW48125   7.120   3.117   5.337 -0.6577  0.7200 -0.8882
15373SOL    HW148126   7.175   3.046   5.368 -0.8679  0.7704 -0.4027
15373SOL    HW248127   7.033   3.097   5.370 -0.5509  1.6649  0.0105
15374SOL     OW48128   4.446  10.299   2.758  0.4160 -0.0217 -0.0396
15374SOL    HW148129   4.352  10.317   2.762  0.9725  3.4480  1.5641
15374SOL    HW248130   4.475  10.304   2.849  2.3423  0.3577 -0.6214
15375SOL     OW48131   0.199   7.057   1.742 -0.1266  0.1603 -0.1552
15375SOL    HW148132   0.168   7.144   1.717  0.0898 -0.1265 -1.5131
15375SOL    HW248133   0.119   7.009   1.766 -0.6795 -0.2068 -2.4841
15376SOL     OW48134   2.260   3.165   8.162 -0.4959  0.1516  0.2050
15376SOL    HW148135   2.176   3.211   8.169 -0.9918 -0.5577 -0.8384
15376SOL    HW248136   2.244   3.079   8.200 -0.2725 -0.0149 -0.0684
15377SOL     OW48137   9.477   8.753   3.568  0.3719  0.5333 -0.1439
15377SOL    HW148138   9.568   8.730   3.549  0.0680 -0.5225 -0.3695
15377SOL    HW248139   9.431   8.741   3.485  0.3766  3.1474 -0.6251
15378SOL     OW48140   2.693   9.028   1.545  0.3176 -0.3474  0.3503
15378SOL    HW148141   2.784   9.022   1.517  0.4308 -2.9678  0.9967
15378SOL    HW248142   2.676   8.944   1.588 -1.7186  0.9853  2.3773
15379SOL     OW48143   7.697   1.942   2.819 -0.0138 -0.5219  0.1446
15379SOL    HW148144   7.735   1.993   2.890 -0.3721  0.7640 -0.5628
15379SOL    HW248145   7.604   1.965   2.819 -0.0589 -0.6768 -0.6019
15380SOL     OW48146   4.653   3.589  10.544  0.0235  0.1683  0.6092
15380SOL    HW148147   4.684   3.605  10.633  0.0521  0.2331  0.5879
15380SOL    HW248148   4.728   3.548  10.499 -0.0017  0.1066  0.6236
15381SOL     OW48149   5.491   2.033   2.477  0.1937  0.0805  0.0763
15381SOL    HW148150   5.546   2.002   2.406 -0.6793  1.3223 -1.1923
15381SOL    HW248151   5.541   2.013   2.556  1.2319 -1.2511 -0.8585
15382SOL     OW48152  10.483   2.716   4.807 -0.7280 -0.1634  0.3030
15382SOL    HW148153  10.500   2.667   4.727  2.5293  2.6539 -0.9674
15382SOL    HW248154  10.396   2.754   4.794 -0.6485 -0.5190 -1.5016
15383SOL     OW48155   4.639   1.584   5.279 -0.1195 -0.0987  0.0622
15383SOL    HW148156   4.727   1.621   5.272  0.5417 -1.7662 -1.3129
15383SOL    HW248157   4.653   1.497   5.317 -1.0643 -0.6775 -0.8565
15384SOL     OW48158  10.183   1.239  10.828  0.0753 -0.0463 -0.0193
15384SOL    HW148159  10.200   1.317  10.881  0.3903  0.7331 -1.2294
15384SOL    HW248160  10.247   1.243  10.757 -0.9484 -0.5154 -1.0173
15385SOL     OW48161   2.425   9.526   7.802  0.3700  0.4038 -0.1161
15385SOL    HW148162   2.480   9.604   7.790  0.3702  0.7027  1.6558
15385SOL    HW248163   2.446   9.471   7.727  0.1505  2.2164 -1.5931
15386SOL     OW48164   8.494   1.864   2.161  0.6514 -0.1580  0.2296
15386SOL    HW148165   8.434   1.893   2.091  2.1359  3.2847  0.1658
15386SOL    HW248166   8.580   1.897   2.133  1.3982  0.8451  3.3559
15387SOL     OW48167   7.926   9.005   5.619  0.0443 -0.0958 -0.0637
15387SOL    HW148168   7.907   8.934   5.557 -0.6710  0.4498 -0.4778
15387SOL    HW248169   7.993   9.057   5.576 -0.5143  0.3326 -0.4273
15388SOL     OW48170   9.388  10.884   3.140  0.0858 -0.2816  0.5847
15388SOL    HW148171   9.299  10.850   3.140 -0.5547  1.3030 -0.0879
15388SOL    HW248172   9.378  10.978   3.153  1.7223 -0.1790  1.3617
15389SOL     OW48173   3.008   1.427   0.556  0.2324 -0.3738 -0.2832
15389SOL    HW148174   2.931   1.483   0.559  0.8066  0.4459 -0.6077
15389SOL    HW248175   3.036   1.419   0.647  0.5413  0.4385 -0.2969
15390SOL     OW48176   9.623   3.330   8.810 -0.0741 -0.3050  0.0771
15390SOL    HW148177   9.704   3.282   8.830  0.7049  1.6014  1.8729
15390SOL    HW248178   9.645   3.422   8.825 -2.0241  0.4742 -1.4391
15391SOL     OW48179   8.113   0.543   4.001  0.4383  0.0312  0.8712
15391SOL    HW148180   8.173   0.615   4.022  0.5562  0.0473  0.4997
15391SOL    HW248181   8.162   0.489   3.939 -0.3319  0.6655 -0.3237
15392SOL     OW48182   8.597   1.471   7.700 -0.5977 -0.2738 -0.1349
15392SOL    HW148183   8.571   1.409   7.768 -0.6297  0.3992  0.4800
15392SOL    HW248184   8.547   1.445   7.623  1.0343 -2.3964 -0.5606
15393SOL     OW48185   5.180   7.406   7.484 -0.0181  0.4071  0.2782
15393SOL    HW148186   5.217   7.388   7.398 -1.2441  1.6854 -0.5708
15393SOL    HW248187   5.256   7.418   7.541  0.8124 -1.9862 -0.2341
15394SOL     OW48188   5.534   9.464   2.677  0.8407 -0.4275  0.0668
15394SOL    HW148189   5.556   9.522   2.751  1.2340 -0.5876  0.0763
15394SOL    HW248190   5.469   9.513   2.627 -1.3715 -1.3214  1.8786
15395SOL     OW48191   7.840  10.969   8.406  0.5821  0.0949  0.1319
15395SOL    HW148192   7.878  10.881   8.409 -1.2875 -0.7533  0.5365
15395SOL    HW248193   7.752  10.955   8.373 -0.1041  1.6835  1.1863
15396SOL     OW48194  10.936   6.452   2.676 -0.3340  0.1219 -0.7048
15396SOL    HW148195  10.944   6.547   2.670 -0.4344  0.0416 -2.6494
15396SOL    HW248196  10.986   6.429   2.755 -1.7601  1.9215  0.8332
15397SOL     OW48197   1.676   0.272   6.883  0.5985  0.7004 -0.2579
15397SOL    HW148198   1.757   0.227   6.909 -0.4660 -1.9061 -1.1102
15397SOL    HW248199   1.705   0.347   6.831  2.4668  0.4509  0.3591
15398SOL     OW48200  10.823   2.173   1.907  0.2155  0.4078 -0.3146
15398SOL    HW148201  10.786   2.101   1.959  1.0954  0.0791 -0.1284
15398SOL    HW248202  10.916   2.172   1.928  0.2514  1.5510 -0.3901
15399SOL     OW48203   2.823   4.459   0.949  0.3615  0.3104  0.0223
15399SOL    HW148204   2.891   4.409   0.903 -1.0774 -1.6283 -0.1307
15399SOL    HW248205   2.805   4.408   1.028  1.1717  2.3991  1.6531
15400SOL     OW48206  10.437  10.077  10.978 -0.2911 -0.1260  0.3964
15400SOL    HW148207  10.511  10.124  11.017 -0.4163  2.1182 -1.7749
15400SOL    HW248208  10.476  10.026  10.907 -0.6630  0.1873 -0.0441
15401SOL     OW48209   9.345   4.647   1.185  0.6845  0.1310 -0.1009
15401SOL    HW148210   9.391   4.568   1.157  0.0271  0.7999 -3.4130
15401SOL    HW248211   9.264   4.648   1.134 -0.2220  1.9933  1.2489
15402SOL     OW48212   1.374   9.205   6.756 -0.0110 -0.4598  0.1651
15402SOL    HW148213   1.470   9.210   6.756 -0.0674  1.7436  0.6329
15402SOL    HW248214   1.353   9.152   6.833  0.8140  0.9339  1.3969
15403SOL     OW48215   0.968   9.520   8.835  0.2734 -0.3721 -0.3044
15403SOL    HW148216   1.051   9.490   8.873  0.1185  0.3029  0.5762
15403SOL    HW248217   0.906   9.450   8.855  0.9373 -1.6458 -2.3314
15404SOL     OW48218   6.914   8.649   3.623  0.3396  0.3908 -0.1502
15404SOL    HW148219   7.003   8.614   3.615  0.2949  0.0204  0.7875
15404SOL    HW248220   6.863   8.599   3.559  1.0803  1.6451 -1.7651
15405SOL     OW48221   4.354   9.297  10.638 -0.4991  0.2284 -0.2595
15405SOL    HW148222   4.384   9.302  10.728 -1.9954  0.4203  0.2554
15405SOL    HW248223   4.430   9.323  10.585  0.0262  1.3421  0.9967
15406SOL     OW48224  10.649   8.839   5.068  0.3891 -0.4241 -0.9368
15406SOL    HW148225  10.599   8.769   5.111  2.0630 -1.4424 -0.5490
15406SOL    HW248226  10.683   8.799   4.988  1.3892 -0.0960 -0.6982
15407SOL     OW48227   8.808   7.435   5.121  0.8256  0.4048 -0.0412
15407SOL    HW148228   8.746   7.363   5.111  0.3813  0.8784 -0.8782
15407SOL    HW248229   8.801   7.484   5.039  0.3881  1.9556  0.8721
15408SOL     OW48230  10.414   5.893   3.415  0.2007  0.2645  0.4572
15408SOL    HW148231  10.367   5.937   3.344  0.6016  0.7628  0.4936
15408SOL    HW248232  10.367   5.919   3.495  0.0731  0.1407  0.4217
15409SOL     OW48233   4.847   2.814   0.945  0.3524 -0.1930  0.6325
15409SOL    HW148234   4.838   2.841   0.854  1.4790  1.1311  0.8671
15409SOL    HW248235   4.788   2.873   0.993 -0.8329 -1.3981  0.7181
15410SOL     OW48236   8.387   0.086  10.083  0.2290 -0.1143 -0.2909
15410SOL    HW148237   8.352   0.030  10.014 -0.9486  0.6890 -0.3598
15410SOL    HW248238   8.462   0.130  10.042 -0.5255  0.4438 -1.1062
15411SOL     OW48239   3.933   7.132   4.967  0.6155 -0.2736  0.0327
15411SOL    HW148240   3.996   7.193   4.928  0.0925  1.5183  1.8103
15411SOL    HW248241   3.965   7.119   5.056 -2.1425  1.7935  1.4744
15412SOL     OW48242   2.760   6.241   7.592  0.0942 -0.0054 -0.4642
15412SOL    HW148243   2.808   6.158   7.590 -0.1184 -0.1335 -0.2874
15412SOL    HW248244   2.771   6.278   7.504  2.2733  0.9680  0.1412
15413SOL     OW48245   6.437   0.165   4.114 -1.0839  0.1852  0.1050
15413SOL    HW148246   6.371   0.177   4.182  0.3326 -1.0132  1.7594
15413SOL    HW248247   6.447   0.070   4.106  1.5395  0.3016  1.0615
15414SOL     OW48248   1.667   3.442   9.777  0.8740  0.2946  0.2231
15414SOL    HW148249   1.640   3.524   9.817  1.1341 -0.1623  1.3780
15414SOL    HW248250   1.684   3.464   9.686 -0.7553  1.1622  0.0807
15415SOL     OW48251   2.781   9.871   1.032 -0.0797  0.6816 -0.1480
15415SOL    HW148252   2.806   9.853   1.122 -1.1711 -0.7267 -0.0902
15415SOL    HW248253   2.691   9.903   1.038 -0.4477 -0.1827 -0.7669
15416SOL     OW48254   6.389  10.871   7.267 -0.0961 -0.4337  0.6488
15416SOL    HW148255   6.444  10.858   7.190  0.9455 -1.5988  1.5493
15416SOL    HW248256   6.420  10.953   7.306 -0.6015  0.1371 -0.1412
15417SOL     OW48257   0.598   6.433   5.086  0.1739  0.2059 -0.0970
15417SOL    HW148258   0.590   6.527   5.106  0.0920 -0.3302  2.7222
15417SOL    HW248259   0.511   6.397   5.106  0.9421 -0.8639  1.5351
15418SOL     OW48260   3.413   1.949   0.280 -0.0383  0.8654  0.0794
15418SOL    HW148261   3.411   1.880   0.214  0.2741  1.1456 -0.2303
15418SOL    HW248262   3.360   2.019   0.242 -0.5723  0.6966  0.5062
15419SOL     OW48263   8.232   8.516   8.674 -0.5976  0.2935  0.0490
15419SOL    HW148264   8.262   8.604   8.697 -0.8233 -0.0670  1.7907
15419SOL    HW248265   8.140   8.528   8.650 -0.1690  0.7801 -1.5182
15420SOL     OW48266   9.834   1.037   8.017  0.4956  0.0081 -0.2019
15420SOL    HW148267   9.790   0.981   7.953  0.8392  0.9848 -1.3355
15420SOL    HW248268   9.927   1.034   7.991  1.1623 -1.8869  2.0405
15421SOL     OW48269  10.252   1.569   7.552 -0.9222 -0.6539 -0.0584
15421SOL    HW148270  10.295   1.653   7.534  0.8410 -1.1869  1.4447
15421SOL    HW248271  10.233   1.533   7.465 -0.7542  0.8049 -0.7323
15422SOL     OW48272   0.161   3.531   7.053  0.5009 -0.0537  0.3028
15422SOL    HW148273   0.199   3.571   6.975 -1.3747 -0.6416 -0.9695
15422SOL    HW248274   0.166   3.599   7.120 -1.1017  1.7945 -1.3340
15423SOL     OW48275   5.775   2.078   0.506 -0.1623  0.3072 -0.2734
15423SOL    HW148276   5.795   2.048   0.418 -0.3310  1.4375 -0.7089
15423SOL    HW248277   5.684   2.053   0.520  1.0993 -4.3975  1.5276
15424SOL     OW48278   9.054   2.750   9.428  0.4448  0.3173 -0.4633
15424SOL    HW148279   9.140   2.790   9.414  1.1040 -0.1170  1.9976
15424SOL    HW248280   9.017   2.797   9.502 -0.2762 -1.2606  0.2183
15425SOL     OW48281   0.165   2.400   3.293  0.5948  0.2450  0.3862
15425SOL    HW148282   0.215   2.481   3.305  0.8506  0.3369 -1.1859
15425SOL    HW248283   0.208   2.355   3.221 -0.3256 -0.6993  0.3996
15426SOL     OW48284  10.507  11.211   4.301 -0.0571  0.0918 -0.4293
15426SOL    HW148285  10.583  11.267   4.314  1.1083 -1.9590  2.5926
15426SOL    HW248286  10.519  11.175   4.213  1.4887  1.1597 -0.7021
15427SOL     OW48287   9.572   0.962   1.820 -0.6162 -0.1523  0.2720
15427SOL    HW148288   9.528   0.877   1.821 -2.7807  0.9021  0.3312
15427SOL    HW248289   9.586   0.980   1.727 -4.3736  1.3443 -0.2119
15428SOL     OW48290   3.756   7.128   2.728 -0.5266  0.9088 -0.5679
15428SOL    HW148291   3.799   7.055   2.683  0.1544  0.2894  1.0081
15428SOL    HW248292   3.827   7.187   2.751 -0.9045  1.3786 -0.6014
15429SOL     OW48293   5.039  10.136   7.554 -0.3765 -0.3628 -0.3698
15429SOL    HW148294   5.024  10.042   7.554  1.4847 -0.7257  1.2945
15429SOL    HW248295   5.133  10.146   7.540 -0.7848  1.3851 -2.4731
15430SOL     OW48296   0.917   1.700   0.326 -0.1787 -0.0609  0.1702
15430SOL    HW148297   0.908   1.632   0.392  0.0942  0.9318  1.2728
15430SOL    HW248298   0.965   1.771   0.371  0.8904  0.2601 -1.3798
15431SOL     OW48299   4.096   6.278   3.987  0.3070 -0.0280  0.3916
15431SOL    HW148300   4.043   6.336   4.042 -0.1339  0.7827 -0.8622
15431SOL    HW248301   4.059   6.286   3.899  1.7377 -0.3848 -0.2794
15432SOL     OW48302   9.101  10.314   3.423 -0.0271  0.4508  0.5786
15432SOL    HW148303   9.017  10.275   3.448  0.3012 -0.4250  0.3697
15432SOL    HW248304   9.164  10.277   3.485  0.7763 -1.6426 -1.3238
15433SOL     OW48305   1.772   2.055   3.904 -0.2046 -0.0013  0.3204
15433SOL    HW148306   1.756   2.030   3.995  1.6427 -0.4729  0.5629
15433SOL    HW248307   1.795   1.973   3.861 -1.8145  0.0953 -0.7892
15434SOL     OW48308   7.312   4.592   0.702 -0.8199 -0.9150 -0.2798
15434SOL    HW148309   7.277   4.503   0.706 -0.9401 -0.9050 -0.9932
15434SOL    HW248310   7.371   4.598   0.777 -1.0429 -1.4922 -0.0522
15435SOL     OW48311   1.200   3.931   8.135 -0.9080  0.3179  0.6820
15435SOL    HW148312   1.149   3.932   8.216  1.5266 -1.0995  2.3722
15435SOL    HW248313   1.291   3.943   8.164 -0.0576  0.9741 -1.9824
15436SOL     OW48314   4.199   0.250   7.022 -0.0246 -0.1499 -0.3000
15436SOL    HW148315   4.263   0.262   6.952 -1.6269 -0.3312 -1.8856
15436SOL    HW248316   4.250   0.254   7.103  1.7131  1.4531 -1.3927
15437SOL     OW48317   2.496   1.187   9.304  1.4103  0.0944  0.1490
15437SOL    HW148318   2.589   1.202   9.318  1.5618 -0.4473 -0.2501
15437SOL    HW248319   2.492   1.113   9.242  0.7080 -0.6888  1.0916
15438SOL     OW48320   2.841   4.875   2.999  0.0287  0.6645 -0.3023
15438SOL    HW148321   2.747   4.863   2.990  0.0375  0.2867  0.0788
15438SOL    HW248322   2.862   4.949   2.941 -0.8739  2.3482  1.4308
15439SOL     OW48323   2.517   3.558   2.427  0.1916 -0.4736  0.3332
15439SOL    HW148324   2.486   3.475   2.462  2.1726 -0.9960  1.0226
15439SOL    HW248325   2.528   3.542   2.333 -0.6176 -0.5878  0.2556
15440SOL     OW48326   0.029   4.411   8.781 -0.5643  0.2702  0.4417
15440SOL    HW148327   0.060   4.329   8.742 -3.4278 -1.3200  1.2180
15440SOL    HW248328   0.065   4.412   8.869 -1.4489 -0.8095  0.8349
15441SOL     OW48329   4.837   1.878   9.089  0.3738  0.1800 -0.1288
15441SOL    HW148330   4.890   1.819   9.143 -0.4494  0.7925  1.3958
15441SOL    HW248331   4.834   1.960   9.138 -0.5927  0.6944 -1.0011
15442SOL     OW48332   5.748   9.513   6.037 -0.5761 -0.2302 -0.0604
15442SOL    HW148333   5.838   9.528   6.010 -1.0056 -0.2809 -1.6074
15442SOL    HW248334   5.715   9.599   6.061  0.2153 -0.3695  1.7617
15443SOL     OW48335   3.323   4.817   9.015  0.7746  0.4441  0.3944
15443SOL    HW148336   3.366   4.734   8.994 -1.0804 -0.0984 -1.5084
15443SOL    HW248337   3.243   4.818   8.963  1.3001  3.9903 -0.6605
15444SOL     OW48338  11.214   7.882   7.917 -0.4250  0.3900 -0.1822
15444SOL    HW148339  11.291   7.935   7.936  0.4859 -0.2245 -1.9530
15444SOL    HW248340  11.248   7.792   7.910 -0.6372  0.4820 -4.1784
15445SOL     OW48341   3.038   3.702   3.272 -0.1220  0.4034  0.2540
15445SOL    HW148342   2.978   3.635   3.238  0.0531 -0.3255  1.3398
15445SOL    HW248343   3.010   3.782   3.228 -0.8087 -0.2365 -0.5284
15446SOL     OW48344   5.642   9.674   6.329 -0.1130 -0.0093 -0.4053
15446SOL    HW148345   5.619   9.720   6.410 -0.2022 -1.6194  0.5332
15446SOL    HW248346   5.564   9.623   6.308  0.4394 -0.7635 -0.6558
15447SOL     OW48347  10.068   8.213   4.404 -0.5579  0.0213  0.0096
15447SOL    HW148348   9.977   8.184   4.413 -0.3929 -0.4380  0.2395
15447SOL    HW248349  10.116   8.163   4.470 -0.0759 -0.0076 -0.3556
15448SOL     OW48350   3.417   7.471   0.429  0.1873 -0.1999  0.4625
15448SOL    HW148351   3.431   7.461   0.523  1.7153 -1.0864  0.1762
15448SOL    HW248352   3.418   7.381   0.395 -0.0480  0.1291 -0.4326
15449SOL     OW48353   2.290   1.069  10.373  0.4640  0.3759  0.4185
15449SOL    HW148354   2.284   0.976  10.394  0.4205  0.7230  2.0729
15449SOL    HW248355   2.384   1.085  10.359  0.3936 -0.0478 -0.6062
15450SOL     OW48356   3.814  10.445   4.254  0.3554 -0.0344 -0.4654
15450SOL    HW148357   3.860  10.423   4.335  1.2207 -0.4950 -1.0602
15450SOL    HW248358   3.824  10.540   4.246  0.0528  0.0459  0.0877
15451SOL     OW48359   6.023   6.095   5.060 -0.2208 -0.2196  0.6549
15451SOL    HW148360   5.955   6.045   5.015  1.2340 -1.3054 -0.4150
15451SOL    HW248361   6.101   6.085   5.006 -0.1528  4.7236 -0.6607
15452SOL     OW48362   5.230   2.739   2.606 -0.0959  0.5264  0.0126
15452SOL    HW148363   5.232   2.834   2.621  2.3240  0.7716 -1.2783
15452SOL    HW248364   5.292   2.703   2.670  0.2685  0.0457 -0.5957
15453SOL     OW48365   6.233   1.586   1.372 -0.4970  0.4394  0.2883
15453SOL    HW148366   6.156   1.535   1.350 -0.5502  1.2315 -1.5680
15453SOL    HW248367   6.209   1.677   1.353  1.0420  0.6473 -0.9302
15454SOL     OW48368   5.136  10.762   2.387  0.5816 -0.4686 -0.8222
15454SOL    HW148369   5.091  10.846   2.385  1.5921  0.2648  1.9483
15454SOL    HW248370   5.225  10.783   2.415  1.0928 -2.3874 -0.8671
15455SOL     OW48371   8.664   8.083   4.941  0.5054  0.3514  0.1627
15455SOL    HW148372   8.569   8.095   4.944  0.5167  0.1465  1.5339
15455SOL    HW248373   8.685   8.031   5.018  1.4641 -1.6783 -1.3659
15456SOL     OW48374   8.820   1.074   0.983 -0.1762  0.4950 -0.0922
15456SOL    HW148375   8.902   1.072   0.934 -1.0466  0.2859 -1.6059
15456SOL    HW248376   8.780   1.158   0.959 -0.7982  0.2126 -0.0569
15457SOL     OW48377  10.280  11.278   9.937 -0.3917 -0.6405 -0.3363
15457SOL    HW148378  10.265  11.197   9.986 -0.5813 -0.6521 -0.4118
15457SOL    HW248379  10.221  11.342   9.978 -0.0814 -0.4835 -0.1334
15458SOL     OW48380   5.365   8.385   6.880 -0.0490  0.0613 -0.1413
15458SOL    HW148381   5.367   8.457   6.943  1.4097  1.8899 -2.1611
15458SOL    HW248382   5.292   8.331   6.909  0.4597  0.8450  3.0304
15459SOL     OW48383   7.369   9.523   8.607 -0.7701 -0.0296  1.0137
15459SOL    HW148384   7.343   9.447   8.659  1.4011 -1.4148  0.2261
15459SOL    HW248385   7.424   9.574   8.666  1.5204 -1.4956  0.3248
15460SOL     OW48386   1.759   2.559   9.268 -0.4227 -0.1876 -0.0192
15460SOL    HW148387   1.794   2.611   9.195 -0.3470  0.4952  0.4939
15460SOL    HW248388   1.800   2.597   9.346  0.0746 -1.3854  0.3263
15461SOL     OW48389   4.674   2.390   4.166  0.4491 -0.5835 -0.3478
15461SOL    HW148390   4.766   2.412   4.177  1.0786 -2.2134 -1.9955
15461SOL    HW248391   4.648   2.352   4.250  1.7223 -1.5264 -0.3477
15462SOL     OW48392   7.255   3.244   1.242 -0.5140 -0.3966  0.5201
15462SOL    HW148393   7.253   3.228   1.336 -0.1410 -1.2230  0.3939
15462SOL    HW248394   7.255   3.157   1.202 -0.3102 -0.0609 -0.2390
15463SOL     OW48395   0.864   5.790   6.752  0.1113 -0.0865  0.3391
15463SOL    HW148396   0.824   5.872   6.779  0.0484 -0.2090  0.6246
15463SOL    HW248397   0.884   5.802   6.659  0.1798  0.2796  0.4006
15464SOL     OW48398   0.989   3.394   2.012 -0.2521  0.8394  0.3617
15464SOL    HW148399   1.068   3.409   2.065 -0.9072  1.6146  1.1713
15464SOL    HW248400   0.966   3.303   2.029 -0.3264  1.0146  1.2653
15465SOL     OW48401   3.928   3.006   6.341 -1.2587  0.1512  0.6034
15465SOL    HW148402   3.992   3.076   6.359 -0.2560 -0.3612 -0.7575
15465SOL    HW248403   3.871   3.044   6.274 -0.4808 -0.4238 -0.4173
15466SOL     OW48404   3.128   5.010   5.405  0.1197 -0.7822 -0.0846
15466SOL    HW148405   3.077   4.969   5.475 -0.4144 -0.8830 -0.5228
15466SOL    HW248406   3.090   4.976   5.324 -0.1426  0.3423 -0.4597
15467SOL     OW48407   2.568   8.360   9.738 -0.0998 -0.1258 -0.2131
15467SOL    HW148408   2.566   8.420   9.813 -0.6741  1.0530 -1.1489
15467SOL    HW248409   2.477   8.352   9.710  0.1900  0.0030 -1.2242
15468SOL     OW48410   6.902   7.655   4.374  0.1285  0.0465  0.0745
15468SOL    HW148411   6.812   7.682   4.356 -0.5985 -1.0560  1.8621
15468SOL    HW248412   6.908   7.652   4.469  1.9826 -0.2070 -0.0121
15469SOL     OW48413   6.532   1.026   8.211 -0.0263 -0.4631  0.0492
15469SOL    HW148414   6.501   1.065   8.292  1.3262  0.1193  0.3173
15469SOL    HW248415   6.517   1.092   8.144 -0.0200 -0.4637  0.0477
15470SOL     OW48416   3.503   0.924   9.727 -0.0370  0.8277  0.0335
15470SOL    HW148417   3.498   0.983   9.802  0.1390  0.6562  0.1788
15470SOL    HW248418   3.457   0.845   9.756 -0.9543  1.1800 -0.4301
15471SOL     OW48419   9.128   4.366   8.346 -0.1461  0.1665  0.4668
15471SOL    HW148420   9.093   4.330   8.427 -1.2993  1.3684  0.5505
15471SOL    HW248421   9.062   4.345   8.279  0.0123  0.5568  0.1780
15472SOL     OW48422  11.207   3.432   5.113  0.0017 -0.4287 -0.1020
15472SOL    HW148423  11.153   3.402   5.186 -0.0225 -0.9030 -0.3111
15472SOL    HW248424  11.170   3.517   5.088 -1.4279 -1.2798 -1.0286
15473SOL     OW48425   5.095   9.893   5.390  0.3708  0.3018  0.1060
15473SOL    HW148426   5.047   9.811   5.379 -1.3975  1.2022  0.6756
15473SOL    HW248427   5.044   9.957   5.342  0.7172  1.3969  1.1571
15474SOL     OW48428   8.418   6.227   1.049  0.0230  1.0440  0.2306
15474SOL    HW148429   8.360   6.243   1.124 -1.0790  2.5992 -0.8816
15474SOL    HW248430   8.377   6.155   1.002 -1.2896  2.3423 -0.7257
15475SOL     OW48431   0.551   1.609   8.969 -0.3862  0.4391  0.3341
15475SOL    HW148432   0.494   1.606   8.893  0.0104 -1.3403  0.0513
15475SOL    HW248433   0.495   1.583   9.042 -0.3193  0.2099  0.3072
15476SOL     OW48434   9.283   5.854  10.241 -0.0152 -1.0032 -0.4600
15476SOL    HW148435   9.221   5.815  10.180 -1.3122 -0.3927  0.4232
15476SOL    HW248436   9.364   5.861  10.191 -1.0990 -0.2621 -2.2279
15477SOL     OW48437   5.375   1.990   7.429  0.4834  0.1316  0.1785
15477SOL    HW148438   5.365   1.898   7.455  0.5901  0.1002  0.1080
15477SOL    HW248439   5.436   1.987   7.355  0.5398  0.2659  0.2206
15478SOL     OW48440  10.364   5.623   7.817 -0.3175  0.5658  0.3532
15478SOL    HW148441  10.330   5.712   7.829 -1.3878  0.5209 -1.9527
15478SOL    HW248442  10.452   5.636   7.781 -0.9479  0.7506 -1.2033
15479SOL     OW48443   5.926  10.258   0.176 -0.1076  0.3077  0.1356
15479SOL    HW148444   5.997  10.322   0.180  1.7404 -1.6747  0.5910
15479SOL    HW248445   5.929  10.224   0.086  2.2096 -2.5248  1.1199
15480SOL     OW48446   4.537   4.214   3.101 -0.2372  0.1084 -0.4178
15480SOL    HW148447   4.483   4.293   3.090  1.3041  1.1069 -1.0568
15480SOL    HW248448   4.620   4.235   3.058  1.7499 -0.3240  2.8920
15481SOL     OW48449   3.188   6.333   4.450  0.0710 -0.3695 -0.0576
15481SOL    HW148450   3.269   6.371   4.415  0.5495 -0.8440  0.5160
15481SOL    HW248451   3.169   6.385   4.528  0.6009 -1.1453  0.5998
15482SOL     OW48452  11.247   9.792   0.065  0.2557  0.4381  0.2435
15482SOL    HW148453  11.193   9.819   0.140 -0.5741 -3.0896  1.0674
15482SOL    HW248454  11.305   9.725   0.101  0.7570 -0.4015 -2.0204
15483SOL     OW48455   2.222   3.428   9.884  0.6999 -0.5713 -0.6102
15483SOL    HW148456   2.194   3.337   9.871 -0.7700 -0.1643 -0.3759
15483SOL    HW248457   2.144   3.474   9.912  1.9681  0.2884  1.8093
15484SOL     OW48458   6.233  10.961   2.558 -0.4540  0.0409 -0.0983
15484SOL    HW148459   6.296  10.893   2.577 -1.9536 -1.3363  0.1644
15484SOL    HW248460   6.279  11.043   2.577  1.1584 -0.9154  0.2568
15485SOL     OW48461   9.050   3.967   3.399  0.1332 -0.2444  0.2815
15485SOL    HW148462   8.985   4.027   3.362  0.6952 -0.3526 -0.9275
15485SOL    HW248463   9.054   3.991   3.491 -2.8460 -1.3535  0.7927
15486SOL     OW48464   2.277   4.119   1.307 -0.1615 -0.3699  0.2649
15486SOL    HW148465   2.213   4.073   1.362 -0.1289  0.7302  1.2617
15486SOL    HW248466   2.298   4.056   1.237  0.1779 -2.0393  1.7716
15487SOL     OW48467   0.344   7.287   0.563 -0.2273  0.1740 -0.1263
15487SOL    HW148468   0.435   7.256   0.567 -1.0737 -2.5457  0.4596
15487SOL    HW248469   0.332   7.315   0.472  0.1563 -3.3170 -1.4173
15488SOL     OW48470   7.374   4.162  10.790  0.3284 -0.7805  0.5331
15488SOL    HW148471   7.356   4.198  10.877  0.5068  0.5174  0.0567
15488SOL    HW248472   7.343   4.072  10.795  0.2659 -0.7096  1.9164
15489SOL     OW48473   1.074   1.105   8.011 -0.1926 -0.4659 -0.5181
15489SOL    HW148474   1.163   1.072   8.003 -0.4758 -1.4633  0.1614
15489SOL    HW248475   1.055   1.099   8.105 -0.9003 -0.0752 -0.6308
15490SOL     OW48476   9.630   1.690  10.220  0.4483  0.0727 -0.3926
15490SOL    HW148477   9.551   1.681  10.273  0.2182 -0.0708 -0.7604
15490SOL    HW248478   9.604   1.745  10.147  0.0096 -2.0120 -1.8679
15491SOL     OW48479   4.025   8.349   6.389  0.3732 -0.1571  0.5290
15491SOL    HW148480   4.032   8.256   6.365  1.9368  0.1621 -0.4053
15491SOL    HW248481   4.030   8.396   6.305  0.3385  0.7986  1.0486
15492SOL     OW48482   8.275   1.811   0.819  0.4374 -0.2087 -0.7339
15492SOL    HW148483   8.263   1.899   0.855 -2.3637 -1.2520  1.1582
15492SOL    HW248484   8.292   1.756   0.895 -1.2841 -1.8158 -1.4484
15493SOL     OW48485  10.557  10.216   3.684  0.0284  0.3256  0.7962
15493SOL    HW148486  10.592  10.214   3.595  1.3347 -2.1725  1.2605
15493SOL    HW248487  10.464  10.200   3.673  0.4749 -2.0821 -0.1108
15494SOL     OW48488  10.080   9.893   1.177  0.1107 -0.2759 -0.1387
15494SOL    HW148489  10.109   9.983   1.160 -1.1602  0.6523  2.2381
15494SOL    HW248490  10.029   9.869   1.100 -0.4024  1.4348 -0.3611
15495SOL     OW48491   8.644   3.780   7.817 -0.8728  0.1835  0.1680
15495SOL    HW148492   8.711   3.804   7.753  0.8526 -0.3829  1.6762
15495SOL    HW248493   8.666   3.831   7.895 -1.1796 -1.2391  1.2280
15496SOL     OW48494   2.506   9.191   2.805  0.0993  0.3754 -0.0109
15496SOL    HW148495   2.536   9.106   2.837  1.0887  1.6503  2.8029
15496SOL    HW248496   2.587   9.237   2.780 -0.1599  1.3378  0.8620
15497SOL     OW48497   4.275  11.252   9.274  0.5962 -0.0362  0.5329
15497SOL    HW148498   4.184  11.253   9.245  0.8444 -0.7215 -0.3164
15497SOL    HW248499   4.295  11.344   9.291 -0.1340  0.1676  0.3457
15498SOL     OW48500   9.519   5.189   9.309 -0.5556  0.1682  0.1809
15498SOL    HW148501   9.562   5.114   9.269  0.1575 -0.1459  1.4695
15498SOL    HW248502   9.479   5.236   9.236  2.5018  0.8450 -1.2339
15499SOL     OW48503   7.773   4.228  10.175 -0.4832 -0.2102  0.1879
15499SOL    HW148504   7.731   4.189  10.099 -1.3678  0.2567  0.4148
15499SOL    HW248505   7.789   4.155  10.235 -3.2869 -0.1600  1.1665
15500SOL     OW48506   5.626   8.538   4.245  0.6882  0.1670  0.7944
15500SOL    HW148507   5.721   8.533   4.241  0.7313  1.4747 -1.1659
15500SOL    HW248508   5.606   8.631   4.253 -0.4255  0.1117 -0.7928
15501SOL     OW48509   6.763   2.423   9.272  0.0795 -0.0023  0.3416
15501SOL    HW148510   6.723   2.351   9.321  0.7315 -0.2290  0.5555
15501SOL    HW248511   6.855   2.399   9.266  0.0454  0.1250 -0.8246
15502SOL     OW48512   7.516  11.191   9.677 -0.5628  0.0166 -0.5278
15502SOL    HW148513   7.435  11.142   9.667 -1.2320  0.2868  2.5062
15502SOL    HW248514   7.585  11.124   9.677 -1.1519 -0.6132  0.3751
15503SOL     OW48515   2.935   6.132   4.415  0.4381 -0.4798  0.0215
15503SOL    HW148516   2.998   6.197   4.450 -0.3833 -0.0599  0.7613
15503SOL    HW248517   2.896   6.175   4.339 -0.0794 -0.1052  0.4898
15504SOL     OW48518   0.563   4.682   5.365 -0.5585 -0.1661 -0.4522
15504SOL    HW148519   0.602   4.741   5.429  0.4248 -1.7040  0.4450
15504SOL    HW248520   0.468   4.695   5.375 -0.4087  0.0581  0.9172
15505SOL     OW48521   1.767  10.181   8.946  0.5632 -0.2310  0.5553
15505SOL    HW148522   1.798  10.270   8.964  2.7809 -1.2024  1.9613
15505SOL    HW248523   1.706  10.161   9.017 -0.4494  0.3316 -0.1170
15506SOL     OW48524   8.559   3.823   0.057  0.1966 -0.2355 -0.3023
15506SOL    HW148525   8.652   3.838   0.073  0.2305 -0.4353 -0.3106
15506SOL    HW248526   8.545   3.851  -0.033  0.0854  0.5168 -0.0592
15507SOL     OW48527   5.142   4.560   8.327  0.2715 -0.5083  0.2826
15507SOL    HW148528   5.054   4.590   8.348  0.8056  0.1250  1.7511
15507SOL    HW248529   5.183   4.634   8.283  1.1223  0.5399  2.6343
15508SOL     OW48530   8.207   6.245   1.444 -0.1809 -0.3307 -0.3070
15508SOL    HW148531   8.261   6.273   1.518 -2.1044 -0.3553  1.1764
15508SOL    HW248532   8.129   6.301   1.448 -1.3271 -1.7867 -0.9759
15509SOL     OW48533   0.097  10.608   6.987  0.4859  0.1576 -0.3123
15509SOL    HW148534   0.086  10.699   7.017 -1.1784  0.4813 -1.7217
15509SOL    HW248535   0.155  10.615   6.911 -0.0475  0.1163 -0.7261
15510SOL     OW48536   2.679   7.491  11.255  0.4311  0.4997  0.0687
15510SOL    HW148537   2.705   7.399  11.262 -0.3082  0.2648 -0.2223
15510SOL    HW248538   2.601   7.498  11.311  0.4937  0.9540  0.1027
15511SOL     OW48539   2.627   6.581   0.477  0.3430  0.2355  0.3065
15511SOL    HW148540   2.672   6.664   0.463 -0.4210  0.7358  0.7172
15511SOL    HW248541   2.684   6.515   0.436  2.0917  0.6589  1.9269
15512SOL     OW48542   5.471   3.755   1.080 -0.0879  0.2693 -0.0329
15512SOL    HW148543   5.386   3.770   1.121 -0.4155  0.4131 -0.7588
15512SOL    HW248544   5.471   3.661   1.059 -2.0178  0.9708 -4.2081
15513SOL     OW48545   6.051   9.382   8.308  0.0766 -0.1276 -0.4011
15513SOL    HW148546   6.041   9.322   8.382 -0.3321  1.9886  1.3887
15513SOL    HW248547   6.082   9.464   8.349 -0.0557  1.0862 -2.6066
15514SOL     OW48548   5.600   5.421   8.569  0.3425  0.3333 -0.0160
15514SOL    HW148549   5.546   5.403   8.646  0.8377  1.7311  0.6681
15514SOL    HW248550   5.682   5.455   8.604  1.8654 -2.0055 -1.0193
15515SOL     OW48551   3.648  10.115   9.578  0.7997 -0.2289 -1.0477
15515SOL    HW148552   3.703  10.065   9.518 -2.9009 -1.7954 -3.5565
15515SOL    HW248553   3.623  10.193   9.528 -0.1334 -0.1440 -0.4726
15516SOL     OW48554  10.536   7.819   2.231  1.1714  0.3290  0.0532
15516SOL    HW148555  10.561   7.748   2.290 -0.2728 -0.9223 -0.7981
15516SOL    HW248556  10.488   7.880   2.287 -2.1477 -1.8933 -0.1079
15517SOL     OW48557   6.430  10.657   7.827  0.0984 -0.3332  0.2866
15517SOL    HW148558   6.417  10.626   7.737 -1.2962 -2.4451  1.1464
15517SOL    HW248559   6.521  10.688   7.829 -0.7731  3.2212 -2.7387
15518SOL     OW48560   1.303   4.350   5.597 -0.3240 -0.2285  0.4053
15518SOL    HW148561   1.241   4.404   5.646 -0.8155  0.7840 -1.2591
15518SOL    HW248562   1.389   4.377   5.629 -0.4956  2.2483 -0.9776
15519SOL     OW48563  10.343   4.795  10.166  0.0769  0.0313  0.0645
15519SOL    HW148564  10.307   4.729  10.108  2.3914  1.7085 -3.6724
15519SOL    HW248565  10.276   4.864  10.169 -0.7015 -0.7277  0.7823
15520SOL     OW48566   4.513   9.060   7.762  0.8658 -0.0027 -0.5149
15520SOL    HW148567   4.598   9.016   7.757  1.1131  0.1316  1.8384
15520SOL    HW248568   4.524   9.138   7.707  1.0431 -1.7346 -3.1497
15521SOL     OW48569   5.597   9.398   8.130 -0.4259 -0.4271  0.4894
15521SOL    HW148570   5.587   9.433   8.042 -0.9400 -3.0989 -0.5931
15521SOL    HW248571   5.540   9.452   8.184 -0.7257  0.7584 -0.9564
15522SOL     OW48572   5.895  11.111   9.527  0.7147  0.2302 -0.7522
15522SOL    HW148573   5.941  11.118   9.442  0.7775  0.0496 -0.7325
15522SOL    HW248574   5.819  11.168   9.517  0.3870 -0.2629 -1.1483
15523SOL     OW48575   9.870   3.286   7.712  0.0293 -0.4491  0.0094
15523SOL    HW148576   9.782   3.287   7.750 -0.6606 -0.0149 -1.5312
15523SOL    HW248577   9.922   3.232   7.773 -0.8782  0.6060  1.7980
15524SOL     OW48578   3.071  10.921   1.248 -0.2037 -0.6563 -0.3045
15524SOL    HW148579   3.060  10.970   1.329 -1.4552  0.3362 -1.0402
15524SOL    HW248580   2.985  10.924   1.206 -0.1876 -3.0151 -0.6610
15525SOL     OW48581   8.641   4.277  10.673 -0.3945  0.8494 -0.4424
15525SOL    HW148582   8.600   4.197  10.707  0.3486 -0.1234 -1.7394
15525SOL    HW248583   8.579   4.347  10.695 -0.5000  0.1321  1.7975
15526SOL     OW48584  11.046   3.376   2.812  0.3718 -0.2362 -0.4392
15526SOL    HW148585  11.068   3.323   2.889  2.6513  0.2040 -0.7147
15526SOL    HW248586  11.129   3.385   2.766 -0.5449  1.2637 -1.8675
15527SOL     OW48587   4.401   7.259   8.805  0.0222  0.3830  0.6383
15527SOL    HW148588   4.372   7.350   8.795 -1.4062 -0.1716 -0.8446
15527SOL    HW248589   4.321   7.207   8.794  1.0360 -1.1088 -0.0551
15528SOL     OW48590   9.762   2.506  10.681  0.1432  0.2100  0.7057
15528SOL    HW148591   9.793   2.558  10.608  0.6497 -2.2124 -0.9293
15528SOL    HW248592   9.836   2.451  10.705 -0.6190 -0.4122  1.7355
15529SOL     OW48593   9.395   5.541   2.845 -0.4549  0.4477  0.0782
15529SOL    HW148594   9.464   5.587   2.798  0.2099  0.6834  1.2391
15529SOL    HW248595   9.336   5.610   2.877 -1.8724  0.1831 -1.8267
15530SOL     OW48596   6.546  10.390   1.545  0.2793  0.1260  0.4610
15530SOL    HW148597   6.624  10.390   1.601  0.1385  1.8945  0.7256
15530SOL    HW248598   6.503  10.307   1.563  0.5292  0.4053  2.6325
15531SOL     OW48599  11.240   8.229   7.467  0.7674 -0.1022  0.4132
15531SOL    HW148600  11.324   8.257   7.503 -0.0955 -0.7040  3.1500
15531SOL    HW248601  11.216   8.152   7.519 -0.5608 -1.2036 -1.6755
15532SOL     OW48602   9.098  10.183   4.072 -0.2141 -0.2953 -0.5926
15532SOL    HW148603   9.102  10.258   4.132 -0.4769 -1.7796  1.3636
15532SOL    HW248604   9.009  10.187   4.036  0.6322  1.8934 -2.7540
15533SOL     OW48605   0.443  10.949   1.027  0.8748 -0.5371  0.2591
15533SOL    HW148606   0.449  11.027   1.082  1.5956  1.2483 -2.1511
15533SOL    HW248607   0.532  10.932   0.998  0.4772 -1.1837 -0.6551
15534SOL     OW48608   7.321   7.251   7.094 -0.7679 -0.1278  0.0956
15534SOL    HW148609   7.394   7.205   7.054  1.1389  0.4672  2.6573
15534SOL    HW248610   7.326   7.340   7.060 -0.0236  0.0088  0.5376
15535SOL     OW48611   6.641   7.763   5.222  0.5778 -0.0085 -0.6320
15535SOL    HW148612   6.687   7.740   5.303 -1.1038 -1.0138  0.0846
15535SOL    HW248613   6.674   7.701   5.157 -0.3769 -1.3374  0.1049
15536SOL     OW48614   2.591   7.100   9.529 -0.5790  0.2140 -0.3419
15536SOL    HW148615   2.522   7.136   9.473  0.2407  3.0654  0.2860
15536SOL    HW248616   2.567   7.127   9.618  0.0004 -1.0670  0.2362
15537SOL     OW48617   3.929   8.435   9.479 -0.1980  0.1715  0.3832
15537SOL    HW148618   3.957   8.356   9.524  0.6827  1.7381  2.8290
15537SOL    HW248619   3.833   8.433   9.481 -0.1698 -0.0975  1.8328
15538SOL     OW48620  10.398   1.467   6.678 -0.0151 -0.5302  0.0778
15538SOL    HW148621  10.361   1.509   6.601 -2.3250 -0.7277  0.9706
15538SOL    HW248622  10.354   1.510   6.752 -0.1097 -2.3236  1.1361
15539SOL     OW48623   9.450   8.099   0.296 -0.3784  0.0097 -0.3464
15539SOL    HW148624   9.492   8.170   0.247 -0.8145  0.2341 -0.4013
15539SOL    HW248625   9.393   8.144   0.358 -1.3148 -0.2981 -0.9603
15540SOL     OW48626   1.707   4.966   5.104  0.5148  0.1283 -0.7409
15540SOL    HW148627   1.619   4.981   5.069  0.6066  0.2777 -0.9063
15540SOL    HW248628   1.739   5.053   5.127  1.5916  0.4180 -2.9944
15541SOL     OW48629   9.166   9.054   7.795  0.0713  0.2489  0.2563
15541SOL    HW148630   9.124   9.000   7.862 -2.4337  0.6106 -0.8898
15541SOL    HW248631   9.169   9.141   7.834  0.9845 -0.0363  0.8375
15542SOL     OW48632   8.772   5.266   3.558 -0.1701 -0.5474 -0.4761
15542SOL    HW148633   8.860   5.230   3.565 -0.5904 -1.7484 -1.0205
15542SOL    HW248634   8.732   5.217   3.486 -0.9962  0.5927 -0.8226
15543SOL     OW48635   5.718   7.807   6.530 -0.1595  0.5034 -0.6351
15543SOL    HW148636   5.642   7.749   6.542  0.5843 -0.5321 -0.7520
15543SOL    HW248637   5.726   7.854   6.612 -1.5468  1.3950 -0.9856
15544SOL     OW48638   2.935   2.813   9.846  0.1553  0.0396 -0.1347
15544SOL    HW148639   2.885   2.763   9.910 -0.8010  0.0107 -0.8828
15544SOL    HW248640   2.967   2.889   9.894  1.4165 -1.1313  0.9551
15545SOL     OW48641   7.199  11.246   0.348 -0.1959  0.7434  1.1721
15545SOL    HW148642   7.240  11.284   0.426  0.2335 -0.2097  1.4190
15545SOL    HW248643   7.163  11.163   0.377 -0.4875  0.6130  0.4677
15546SOL     OW48644   0.479  10.021   6.605 -0.2236 -0.0325 -0.0854
15546SOL    HW148645   0.468  10.111   6.635 -0.7970  0.8851 -2.7806
15546SOL    HW248646   0.574  10.010   6.600 -0.1310  0.1251  0.9282
15547SOL     OW48647   0.493   2.266   1.860 -0.4457 -0.1114 -1.1645
15547SOL    HW148648   0.516   2.184   1.905  0.5519  0.0926 -1.2917
15547SOL    HW248649   0.414   2.244   1.811 -3.1103  0.2788  2.5066
15548SOL     OW48650   3.453   8.224   7.487  0.0847  0.2250 -0.1416
15548SOL    HW148651   3.441   8.170   7.409 -0.4658  0.4569 -0.2216
15548SOL    HW248652   3.529   8.186   7.531 -1.9207 -2.4706  1.3271
15549SOL     OW48653   6.844   1.356   5.643  0.0636  0.8271 -0.2673
15549SOL    HW148654   6.923   1.332   5.595  1.0515  1.1594  1.1248
15549SOL    HW248655   6.788   1.279   5.636  0.5203  0.5670 -1.2329
15550SOL     OW48656   4.658   0.042   9.702  0.2937  0.3758 -0.4711
15550SOL    HW148657   4.583   0.028   9.644 -2.3468 -2.8933  3.1312
15550SOL    HW248658   4.630   0.113   9.760 -0.5200 -1.2747  1.2929
15551SOL     OW48659   2.311   9.610   5.409 -0.1288 -0.4920  0.0205
15551SOL    HW148660   2.309   9.610   5.313  0.7427  0.3900 -0.0161
15551SOL    HW248661   2.348   9.524   5.432  2.2021  0.2717 -0.5617
15552SOL     OW48662   9.767   2.954   1.270 -0.0394 -0.3293  0.5131
15552SOL    HW148663   9.813   3.037   1.256 -0.0907 -0.2999  0.5192
15552SOL    HW248664   9.719   2.967   1.352 -1.7303  0.3978 -0.5396
15553SOL     OW48665   0.959   4.406   4.438 -0.1102  0.1484 -0.1969
15553SOL    HW148666   0.941   4.400   4.532  0.2130  1.5687 -0.0206
15553SOL    HW248667   1.049   4.376   4.429  0.0374  0.5055  0.0355
15554SOL     OW48668   2.485   7.451   0.694  0.3685 -1.0517  0.6139
15554SOL    HW148669   2.436   7.382   0.650  1.4022 -1.8277  0.6565
15554SOL    HW248670   2.572   7.447   0.655  0.5563 -0.0164  0.8910
15555SOL     OW48671   8.864   0.342   9.892  0.9584  0.4449 -0.1606
15555SOL    HW148672   8.956   0.369   9.895  0.9201  0.4934  1.3150
15555SOL    HW248673   8.817   0.416   9.931  0.7049 -1.0884  2.6541
15556SOL     OW48674  11.196   3.499   0.413  0.3313  0.0255  0.2680
15556SOL    HW148675  11.103   3.487   0.432  0.4578 -0.0582  0.8568
15556SOL    HW248676  11.223   3.572   0.469  0.7124 -0.2165  0.4000
15557SOL     OW48677  10.873   6.962  10.881 -0.1494 -0.6960 -0.3291
15557SOL    HW148678  10.966   6.976  10.899 -0.3934  1.0817 -0.2572
15557SOL    HW248679  10.870   6.878  10.835  1.5477 -0.5613 -0.7627
15558SOL     OW48680   3.889   7.894   2.304 -0.2229  0.4327 -0.6017
15558SOL    HW148681   3.879   7.935   2.390  3.0890  0.4129 -0.0577
15558SOL    HW248682   3.887   7.967   2.242  1.7816  1.0643 -0.0009
15559SOL     OW48683   3.231   6.352   9.873  0.1245  0.5032 -0.3669
15559SOL    HW148684   3.214   6.324   9.782  1.9518 -1.1747 -0.2680
15559SOL    HW248685   3.211   6.275   9.925  2.1497  0.3725  0.2935
15560SOL     OW48686   9.967   9.805   8.146 -0.0762 -0.8271 -0.1717
15560SOL    HW148687  10.017   9.885   8.128 -1.9146  0.0273 -1.8817
15560SOL    HW248688  10.016   9.736   8.101  2.0644 -0.9361  2.1238
15561SOL     OW48689   1.162   9.415   3.482  0.0827 -0.5470 -0.9319
15561SOL    HW148690   1.112   9.491   3.452 -1.2149 -0.6657  0.7721
15561SOL    HW248691   1.250   9.450   3.500  0.5178 -0.2079 -3.3917
15562SOL     OW48692   1.486   9.383   8.931  1.0633 -0.3998  0.2502
15562SOL    HW148693   1.405   9.434   8.930  1.5744  0.4769  1.3365
15562SOL    HW248694   1.465   9.305   8.983  0.8191 -0.3602  0.2125
15563SOL     OW48695   4.883   7.200   8.448 -0.4882  0.3527 -0.0253
15563SOL    HW148696   4.903   7.293   8.451  0.9476  0.0462  0.4125
15563SOL    HW248697   4.960   7.157   8.484 -1.2493 -0.9978  0.0782
15564SOL     OW48698   3.918   8.275   7.670  0.4750 -0.0968  0.5204
15564SOL    HW148699   3.931   8.307   7.581 -0.5662  0.3875  0.5356
15564SOL    HW248700   3.993   8.308   7.719  0.7296  0.1623 -0.0398
15565SOL     OW48701   8.794   3.206   4.883 -0.5207  0.0078 -0.0257
15565SOL    HW148702   8.734   3.277   4.861  0.3540  1.1964  1.2789
15565SOL    HW248703   8.878   3.249   4.896  0.6439 -1.6084 -1.7132
15566SOL     OW48704   3.942   1.762   7.327  0.0181 -0.5632 -0.4835
15566SOL    HW148705   3.873   1.798   7.271  1.3718  1.7827 -0.7626
15566SOL    HW248706   3.897   1.736   7.407 -1.1781  1.2629 -0.5077
15567SOL     OW48707   1.056   3.155   5.908  0.9199 -0.2448 -0.4312
15567SOL    HW148708   1.127   3.219   5.914 -2.2687  3.7572 -0.8236
15567SOL    HW248709   1.038   3.131   5.998 -0.5969  3.0837  0.2944
15568SOL     OW48710   1.754   3.071  10.558  0.1995 -0.1796  0.1127
15568SOL    HW148711   1.729   3.076  10.465 -2.2656 -2.1556  0.5453
15568SOL    HW248712   1.844   3.104  10.561  0.5886 -0.6545 -3.0712
15569SOL     OW48713  10.587   4.057   1.459  0.5163  0.6731  0.5037
15569SOL    HW148714  10.623   4.146   1.457  0.5001  0.7229  1.5264
15569SOL    HW248715  10.622   4.020   1.540  4.3506 -1.9146 -1.9915
15570SOL     OW48716   2.118   8.700  10.551  0.1535  1.0071 -0.4465
15570SOL    HW148717   2.110   8.794  10.564 -1.3313  0.9618 -0.7783
15570SOL    HW248718   2.134   8.665  10.638 -1.9707  1.3722  0.1699
15571SOL     OW48719   5.644   0.486   5.181 -0.1747 -0.0646  0.2204
15571SOL    HW148720   5.721   0.530   5.217 -0.5617  0.4480  0.4366
15571SOL    HW248721   5.611   0.546   5.115 -1.1350  0.3322  1.0274
15572SOL     OW48722   7.755   9.849   2.094 -0.2079  0.0093  0.4329
15572SOL    HW148723   7.836   9.800   2.108  1.0727  1.8209 -0.3150
15572SOL    HW248724   7.784   9.937   2.072 -2.4148  0.7948  0.4890
15573SOL     OW48725  10.036   2.402   0.061  0.0515 -0.2739  0.1434
15573SOL    HW148726  10.005   2.489   0.035  2.3753 -0.2553 -3.1782
15573SOL    HW248727   9.997   2.388   0.147 -2.5775  2.9049 -0.3080
15574SOL     OW48728   5.731   3.497   1.395  0.1908 -0.6673  0.3680
15574SOL    HW148729   5.640   3.517   1.414  0.5560  0.1847  1.3123
15574SOL    HW248730   5.729   3.410   1.354 -1.2257  0.2171 -1.5797
15575SOL     OW48731   1.889   8.825  10.277  0.1640 -0.2506  0.4446
15575SOL    HW148732   1.855   8.863  10.196 -0.0270 -0.8055  0.2638
15575SOL    HW248733   1.955   8.888  10.307 -0.5718  0.5269  0.4648
15576SOL     OW48734   5.688   6.116   4.068  1.0481  0.7505  0.3646
15576SOL    HW148735   5.661   6.200   4.106 -0.9474  1.7944 -2.9133
15576SOL    HW248736   5.728   6.140   3.984  2.1799 -1.5275  0.1808
15577SOL     OW48737   8.545   2.216   9.282 -0.5280 -0.6441 -0.5894
15577SOL    HW148738   8.560   2.139   9.336 -1.9101  0.3477  1.3082
15577SOL    HW248739   8.613   2.278   9.309 -1.0403 -0.2529 -0.1814
15578SOL     OW48740   7.878   0.121   0.941 -0.1258  0.1904  0.8699
15578SOL    HW148741   7.902   0.100   0.851 -0.1803  0.0035  0.8988
15578SOL    HW248742   7.867   0.216   0.941  2.2426  0.5049  1.2581
15579SOL     OW48743   4.629   6.789   9.527  0.2134 -0.0338 -0.3188
15579SOL    HW148744   4.670   6.764   9.611 -0.3628  1.7350  0.5298
15579SOL    HW248745   4.539   6.758   9.535 -0.7442  2.7626  1.0808
15580SOL     OW48746   2.309  10.918  10.540 -0.3003  0.5281  0.0525
15580SOL    HW148747   2.251  10.987  10.510 -0.6496 -0.9346 -3.0338
15580SOL    HW248748   2.379  10.915  10.475 -0.6266 -2.3386 -0.3136
15581SOL     OW48749  10.843   4.581   1.016  0.4926  0.4700  0.2009
15581SOL    HW148750  10.816   4.494   1.043  0.6105 -0.3453 -2.1036
15581SOL    HW248751  10.781   4.606   0.948  0.7822  1.9647  0.4455
15582SOL     OW48752   4.083   1.288   3.861 -0.3587  0.4947 -0.3985
15582SOL    HW148753   4.055   1.291   3.952  0.2428  2.2236 -0.2414
15582SOL    HW248754   4.156   1.225   3.860 -1.7764 -1.2307 -0.1442
15583SOL     OW48755   9.023   0.168   2.738 -0.4194  0.3668 -0.2156
15583SOL    HW148756   9.028   0.254   2.697 -1.4883  0.6931  0.3081
15583SOL    HW248757   8.940   0.131   2.706  0.4690 -0.8859 -1.2038
15584SOL     OW48758   8.842   8.295   4.872 -0.2253 -0.4431 -0.7489
15584SOL    HW148759   8.866   8.265   4.784  1.3424 -1.2156 -0.1041
15584SOL    HW248760   8.786   8.226   4.907  1.5643 -1.6363 -0.0936
15585SOL     OW48761   0.268  10.574   8.557  0.3021  0.3971  0.6042
15585SOL    HW148762   0.200  10.529   8.507  1.0970 -0.0053 -0.1500
15585SOL    HW248763   0.221  10.637   8.611 -0.6290  0.5378 -0.3322
15586SOL     OW48764  10.476  10.193   2.360 -0.1667 -0.1233  0.0928
15586SOL    HW148765  10.533  10.160   2.291 -0.9525 -0.7066 -0.2973
15586SOL    HW248766  10.489  10.288   2.358  1.1215 -0.2844  0.3336
15587SOL     OW48767   3.892   0.114   6.423 -0.1191  0.4645  0.1231
15587SOL    HW148768   3.981   0.138   6.448  0.1191  0.5359 -0.7647
15587SOL    HW248769   3.836   0.166   6.481  0.3570 -1.6427  2.6712
15588SOL     OW48770   5.868   5.141   6.617 -0.4803  0.1667 -0.5614
15588SOL    HW148771   5.962   5.126   6.625 -0.1618  1.8357 -0.8560
15588SOL    HW248772   5.860   5.212   6.554 -1.9590 -0.0847 -0.6930
15589SOL     OW48773   5.041   1.575  10.162  0.9456  0.5403  0.0417
15589SOL    HW148774   5.036   1.556  10.256  0.2634  1.1083  0.1311
15589SOL    HW248775   5.010   1.665  10.154 -0.2745  0.0828 -0.8533
15590SOL     OW48776  10.400   4.093   1.941  0.4663 -0.7792  0.1225
15590SOL    HW148777  10.338   4.069   1.871 -3.6191 -0.0536  3.0988
15590SOL    HW248778  10.418   4.010   1.985  0.5472 -0.8112  0.0294
15591SOL     OW48779   2.722   4.677  10.460 -0.1454  0.6700 -0.5966
15591SOL    HW148780   2.784   4.662  10.532 -0.4999 -1.3115 -0.6292
15591SOL    HW248781   2.643   4.710  10.504  0.1993  1.0857 -0.2828
15592SOL     OW48782   2.002   6.216   8.253 -0.3244 -0.2059 -0.0454
15592SOL    HW148783   1.923   6.245   8.206 -0.8073 -0.4333  0.6132
15592SOL    HW248784   2.059   6.293   8.255 -1.4939  0.6671  1.4959
15593SOL     OW48785  11.242   8.703   0.105  0.0723  0.1440  0.6048
15593SOL    HW148786  11.331   8.693   0.139  0.1889 -0.7365  0.0693
15593SOL    HW248787  11.188   8.652   0.166  0.1554 -0.6393  0.0399
15594SOL     OW48788   2.572  10.954   0.074 -0.6553 -0.2033 -0.2770
15594SOL    HW148789   2.507  10.906   0.024  0.6586 -1.4088 -0.9043
15594SOL    HW248790   2.613  10.888   0.130  0.3554  0.4142 -0.2525
15595SOL     OW48791   7.205   8.929   6.562  0.3167 -0.6211 -0.1800
15595SOL    HW148792   7.168   8.915   6.474 -4.5327 -1.3990  1.6468
15595SOL    HW248793   7.133   8.968   6.611  2.7522 -0.4233  3.5739
15596SOL     OW48794   7.681   4.141   0.734  0.0001 -0.2115 -0.4194
15596SOL    HW148795   7.735   4.069   0.766  0.6943 -0.1651 -1.4476
15596SOL    HW248796   7.680   4.130   0.639 -2.1296 -0.4306 -0.4312
15597SOL     OW48797   5.395   8.022   3.887  0.4819 -0.2840 -0.1170
15597SOL    HW148798   5.381   8.101   3.834  1.8352  0.2379  0.2606
15597SOL    HW248799   5.488   8.000   3.874  0.3280 -1.3297  0.4345
15598SOL     OW48800   8.638   5.033   6.748  0.1476  0.0516  0.1413
15598SOL    HW148801   8.587   5.107   6.713 -0.2843  0.5413  1.7019
15598SOL    HW248802   8.639   5.048   6.842  1.4335 -1.0969  0.3363
15599SOL     OW48803  11.273   8.461   5.908  0.0411  0.1869  0.5432
15599SOL    HW148804  11.230   8.451   5.824 -0.3750  1.9830  0.5012
15599SOL    HW248805  11.266   8.375   5.949 -0.5224 -0.4756 -0.8816
15600SOL     OW48806   1.945   5.897   0.251 -0.3734 -0.5192  0.2351
15600SOL    HW148807   2.030   5.936   0.269  0.9365 -2.0499 -2.1396
15600SOL    HW248808   1.908   5.949   0.181  0.3842 -2.0593 -1.3853
15601SOL     OW48809   1.266   9.010   7.989 -0.0471 -0.3056 -0.0327
15601SOL    HW148810   1.320   8.990   7.913  0.3216 -1.4153  0.5001
15601SOL    HW248811   1.180   8.975   7.967 -0.0124 -0.3727 -0.0616
15602SOL     OW48812   7.179   4.470   9.419 -0.0201 -0.1805 -0.2355
15602SOL    HW148813   7.141   4.403   9.476 -2.0117  1.8203  0.9300
15602SOL    HW248814   7.141   4.552   9.450  1.2280  1.3493 -2.5143
15603SOL     OW48815   8.367   4.468   4.026  0.2703 -0.4360  0.4511
15603SOL    HW148816   8.432   4.402   4.000 -1.2523 -2.6645  1.9640
15603SOL    HW248817   8.375   4.472   4.121 -2.4769 -1.5953  0.8053
15604SOL     OW48818   7.504   7.908   4.620  0.7594  0.3385  0.6277
15604SOL    HW148819   7.570   7.839   4.611  0.3502  0.0511 -0.2337
15604SOL    HW248820   7.530   7.955   4.700  1.4488 -0.3639  0.8326
15605SOL     OW48821   2.326   6.441  10.870 -0.0186 -0.8419  0.7993
15605SOL    HW148822   2.386   6.506  10.835 -0.5664 -0.1501  1.1313
15605SOL    HW248823   2.262   6.426  10.801 -0.3545 -0.4282  1.0141
15606SOL     OW48824  10.917   2.190   5.546 -0.2387  0.2739 -0.3673
15606SOL    HW148825  10.925   2.285   5.546  2.5817  0.1387 -0.0646
15606SOL    HW248826  10.940   2.164   5.457 -0.6407 -0.1316 -0.3539
15607SOL     OW48827   4.471   6.246   1.552 -0.1981 -0.4791  0.4321
15607SOL    HW148828   4.405   6.314   1.536  1.3940  1.3019  1.0265
15607SOL    HW248829   4.510   6.229   1.466 -0.9441 -1.0205  0.1976
15608SOL     OW48830   4.449   1.347   8.012 -0.1450  0.3756 -0.1007
15608SOL    HW148831   4.383   1.278   8.009  1.8073 -1.5934 -0.6911
15608SOL    HW248832   4.411   1.415   8.068 -2.8676 -0.3621 -0.9241
15609SOL     OW48833   9.980   2.348   0.341  0.3162  0.0638 -0.2056
15609SOL    HW148834   9.967   2.435   0.379  0.7040 -0.4029  1.0514
15609SOL    HW248835   9.931   2.289   0.399  1.4047 -0.7373 -0.0628
15610SOL     OW48836   7.977   5.806   8.538 -0.2893  0.3955  0.3509
15610SOL    HW148837   7.896   5.856   8.536  0.2961  1.4293 -2.1084
15610SOL    HW248838   7.957   5.725   8.491 -0.1776  0.1407  0.7343
15611SOL     OW48839   7.885  10.642   8.780 -0.1839 -0.2492  0.2602
15611SOL    HW148840   7.877  10.568   8.840 -1.2585 -0.2719  0.1005
15611SOL    HW248841   7.802  10.645   8.734  0.3200  0.2930 -0.6362
15612SOL     OW48842   9.931   0.716   3.880  0.0764  0.0018 -0.0589
15612SOL    HW148843   9.890   0.723   3.966  0.8954 -1.6931  0.5229
15612SOL    HW248844   9.870   0.760   3.821 -0.6429  0.9552  1.3301
15613SOL     OW48845   7.572   6.475   1.355 -0.1242  0.2930 -0.6984
15613SOL    HW148846   7.644   6.530   1.325 -0.3374  1.1283  0.3001
15613SOL    HW248847   7.498   6.500   1.300  0.0597  0.1832 -1.0033
15614SOL     OW48848  10.602   2.585   0.291  0.3393  0.5946  0.4393
15614SOL    HW148849  10.577   2.615   0.378 -2.0645 -1.0475  0.4286
15614SOL    HW248850  10.540   2.628   0.231  1.0378  0.6037 -0.3034
15615SOL     OW48851   2.842   1.328   1.455  0.6157 -0.1539 -0.6487
15615SOL    HW148852   2.783   1.382   1.403 -1.3300 -1.3182  0.2392
15615SOL    HW248853   2.929   1.354   1.428 -0.2457  2.7851 -0.8896
15616SOL     OW48854   7.101   2.383  10.835  0.0616  0.5296 -0.0176
15616SOL    HW148855   7.174   2.423  10.789 -1.6523  1.5839 -2.0116
15616SOL    HW248856   7.141   2.316  10.891  2.3802 -0.8071 -2.9951
15617SOL     OW48857   8.962  11.220   6.300 -0.0471 -0.2704  0.4951
15617SOL    HW148858   9.011  11.166   6.363  0.2410 -1.7619 -0.9477
15617SOL    HW248859   9.029  11.255   6.241 -0.3056  1.1910  1.0133
15618SOL     OW48860   5.453   0.227   4.352  0.0067 -0.3808 -0.2423
15618SOL    HW148861   5.473   0.255   4.262 -1.4263  1.9012  0.0699
15618SOL    HW248862   5.364   0.258   4.367 -0.1478 -1.6157  1.6518
15619SOL     OW48863   7.879   8.580   2.640 -0.4485 -0.0006 -0.0867
15619SOL    HW148864   7.920   8.510   2.690 -1.8686  1.4425  3.4127
15619SOL    HW248865   7.787   8.578   2.666 -0.3208  3.8994  1.3480
15620SOL     OW48866   4.170   6.472   7.261  0.4950  0.1751 -0.4511
15620SOL    HW148867   4.256   6.430   7.252  0.6286  0.7544 -2.4765
15620SOL    HW248868   4.122   6.416   7.321  2.3390 -0.0737  0.8691
15621SOL     OW48869   4.707  11.282   1.254  0.2932  0.2249 -0.0272
15621SOL    HW148870   4.715  11.218   1.184 -4.0334 -1.5040  0.7595
15621SOL    HW248871   4.648  11.348   1.220  1.8393  1.9652  0.4743
15622SOL     OW48872   3.526   8.856   5.120  0.2300 -0.6667  0.5393
15622SOL    HW148873   3.563   8.815   5.042  0.9301 -0.8317  0.9465
15622SOL    HW248874   3.460   8.916   5.086  0.5709 -0.6850 -0.1885
15623SOL     OW48875   2.255   6.145  10.682 -0.1664  0.0001  0.4351
15623SOL    HW148876   2.297   6.104  10.606  0.7542 -1.3537  1.6233
15623SOL    HW248877   2.178   6.090  10.698  0.2276 -0.3616  1.1128
15624SOL     OW48878   5.863   6.783   4.259  0.3181  0.6310  0.7565
15624SOL    HW148879   5.856   6.843   4.333 -2.9339  1.8554 -0.3760
15624SOL    HW248880   5.888   6.699   4.298  2.1828  1.9869  2.7394
15625SOL     OW48881   3.832   0.754   1.637  0.2345 -0.2578  0.3347
15625SOL    HW148882   3.925   0.773   1.622  1.4111 -1.7647  4.4216
15625SOL    HW248883   3.799   0.831   1.683 -0.3061 -0.1581 -0.2057
15626SOL     OW48884  10.986  10.994   9.385  0.6319  0.0336  0.4604
15626SOL    HW148885  10.919  10.927   9.385  1.3447 -0.7332 -1.0179
15626SOL    HW248886  10.947  11.067   9.433 -1.1105 -0.5009 -0.0672
15627SOL     OW48887   5.847  10.752   1.898 -0.4956 -0.3852 -0.3156
15627SOL    HW148888   5.819  10.661   1.887  2.4067 -1.1750 -2.3717
15627SOL    HW248889   5.795  10.801   1.835  1.2486 -1.5397 -2.8345
15628SOL     OW48890   1.950   1.514   2.759 -0.2189  0.5096 -0.3117
15628SOL    HW148891   1.913   1.552   2.679 -0.3100  2.5188  0.6228
15628SOL    HW248892   1.910   1.428   2.766 -2.3251  1.3699 -0.9945
15629SOL     OW48893   0.716   6.719   1.694 -0.1365 -0.1545 -0.7345
15629SOL    HW148894   0.714   6.628   1.666  1.5610 -0.3663 -0.2608
15629SOL    HW248895   0.778   6.721   1.767 -0.5009  1.2981 -0.4272
15630SOL     OW48896   0.839  10.277   4.273  0.1661 -0.1019  0.2304
15630SOL    HW148897   0.827  10.182   4.264 -2.2744 -0.0236  1.7473
15630SOL    HW248898   0.752  10.310   4.294  0.9194  2.5395 -0.4180
15631SOL     OW48899   4.331   2.872   2.520 -0.2625  0.3890 -0.2379
15631SOL    HW148900   4.354   2.790   2.564  2.3074  2.0071  1.6627
15631SOL    HW248901   4.257   2.907   2.570 -1.8126 -0.9435 -1.4480
15632SOL     OW48902   1.471   4.165   5.315  0.2768 -0.6752 -0.2023
15632SOL    HW148903   1.386   4.122   5.329  0.9811 -2.8924 -1.9794
15632SOL    HW248904   1.535   4.099   5.340  1.4330 -0.2189 -1.7942
15633SOL     OW48905   4.528   8.958   5.279  0.3786 -0.0382  0.1757
15633SOL    HW148906   4.616   8.921   5.274  1.1030  1.1482  2.4491
15633SOL    HW248907   4.486   8.910   5.350 -0.4541  0.1077 -0.2075
15634SOL     OW48908   3.014   4.344   2.828  0.0813  0.0644 -0.2549
15634SOL    HW148909   2.942   4.359   2.768  0.7705 -0.1950 -1.1688
15634SOL    HW248910   3.085   4.310   2.773  0.2827 -1.5113  0.9293
15635SOL     OW48911   0.153   2.707   4.910  0.2000  0.0464 -0.4304
15635SOL    HW148912   0.229   2.763   4.893 -0.3491  1.4337  1.2894
15635SOL    HW248913   0.180   2.652   4.984  0.1514 -0.8273 -1.0419
15636SOL     OW48914   5.066   7.609   4.185 -0.1314  0.3748 -0.4772
15636SOL    HW148915   5.094   7.607   4.276 -0.4823  0.0712 -0.3719
15636SOL    HW248916   5.145   7.632   4.136  0.3279 -0.5463 -0.1933
15637SOL     OW48917   7.175   6.979   3.087  0.5001 -0.0116 -0.1144
15637SOL    HW148918   7.146   6.888   3.093  1.6961 -0.3226  1.9308
15637SOL    HW248919   7.116   7.027   3.145  0.1748  0.4396 -0.8141
15638SOL     OW48920   3.616   7.385   7.111  0.4131 -0.4848  0.2400
15638SOL    HW148921   3.711   7.388   7.121  0.5731 -1.6966 -0.7237
15638SOL    HW248922   3.597   7.451   7.044  0.4208  0.5640  1.2320
15639SOL     OW48923   0.596  10.826   4.411 -0.5081  0.0730  0.3954
15639SOL    HW148924   0.683  10.799   4.383 -0.9500 -0.0559 -0.8907
15639SOL    HW248925   0.555  10.864   4.333 -0.5876  2.7962  1.6116
15640SOL     OW48926   7.355   1.148   7.312  0.6109 -0.0590  0.0171
15640SOL    HW148927   7.296   1.148   7.388 -1.5169  2.0152 -1.4834
15640SOL    HW248928   7.310   1.095   7.247  0.6372  1.0462 -0.9386
15641SOL     OW48929   8.779   3.500   1.039  0.4233 -0.1152  0.3153
15641SOL    HW148930   8.848   3.463   0.984  0.8920 -1.4682  1.7546
15641SOL    HW248931   8.741   3.425   1.083  1.3708  1.0217  3.2914
15642SOL     OW48932   9.505   0.122  10.506  0.0262 -0.2083  0.2482
15642SOL    HW148933   9.535   0.169  10.583 -2.1160  0.0377  1.0153
15642SOL    HW248934   9.535   0.032  10.519 -1.1255 -0.3953  1.8957
15643SOL     OW48935   5.143   5.561  11.143  0.4190 -0.6098  0.5164
15643SOL    HW148936   5.164   5.467  11.147 -0.3045 -0.8825 -1.0612
15643SOL    HW248937   5.164   5.586  11.053 -0.5055  0.4583  0.5771
15644SOL     OW48938   1.210  10.440   3.627 -0.0583 -0.4162 -0.2620
15644SOL    HW148939   1.217  10.528   3.664  0.5659 -0.9287  0.8904
15644SOL    HW248940   1.120  10.435   3.595  0.1434  0.9287 -1.1313
15645SOL     OW48941   4.909   6.357   8.340 -0.0419  0.1093 -0.4423
15645SOL    HW148942   4.866   6.282   8.382  1.0996 -0.7802 -0.8036
15645SOL    HW248943   4.846   6.428   8.348  0.0504 -0.0323  2.6431
15646SOL     OW48944   0.282   4.472   9.916  0.3469  0.5030 -0.3522
15646SOL    HW148945   0.261   4.558   9.953  1.2178  0.9572 -0.8665
15646SOL    HW248946   0.368   4.485   9.874 -0.5855  0.0163 -2.5197
15647SOL     OW48947  11.219   7.905  11.021  0.5680  0.0260  0.8939
15647SOL    HW148948  11.190   7.830  11.075  0.8714 -1.1399 -0.4949
15647SOL    HW248949  11.200   7.878  10.931  1.0182  1.5018  0.3303
15648SOL     OW48950   9.658   4.294   0.389  0.5883 -0.4006  0.6240
15648SOL    HW148951   9.667   4.385   0.360  1.1521 -0.5120  0.4354
15648SOL    HW248952   9.633   4.301   0.481  2.3259 -0.0475  1.1099
15649SOL     OW48953   4.444  10.248  10.710 -0.4224  0.5043  0.0498
15649SOL    HW148954   4.473  10.292  10.790 -0.9591 -0.4778  0.8072
15649SOL    HW248955   4.454  10.314  10.641  0.3609  1.2573  0.8652
15650SOL     OW48956   4.256   0.360   3.691 -0.3748  0.3881 -0.0505
15650SOL    HW148957   4.238   0.439   3.742  0.1167  0.1217  0.5519
15650SOL    HW248958   4.312   0.390   3.620 -1.0603  0.7632 -0.4367
15651SOL     OW48959   7.164   9.619   4.823 -0.4328 -0.2331 -1.1173
15651SOL    HW148960   7.194   9.702   4.786 -0.2006  0.4328  0.5036
15651SOL    HW248961   7.224   9.601   4.895 -1.0538 -1.3301 -0.8470
15652SOL     OW48962  11.001   8.911   9.984 -0.6820 -0.3494 -0.1762
15652SOL    HW148963  10.941   8.943   9.917  0.5574 -0.8175 -1.5641
15652SOL    HW248964  11.039   8.989  10.022 -0.6623 -0.0856 -0.7269
15653SOL     OW48965   5.873   1.736   6.144  0.4041  0.1404  0.4641
15653SOL    HW148966   5.818   1.795   6.196 -0.1466  0.3022 -0.2767
15653SOL    HW248967   5.817   1.711   6.070  0.5878 -1.4056  0.8196
15654SOL     OW48968   6.239   2.129   3.263 -0.1634 -0.1582  0.1058
15654SOL    HW148969   6.327   2.101   3.239 -0.8941 -1.9367 -0.7185
15654SOL    HW248970   6.252   2.194   3.331  1.7829 -0.3669 -0.0114
15655SOL     OW48971   5.240   1.010  11.080  0.1568 -0.0094  0.0962
15655SOL    HW148972   5.158   1.003  11.031 -0.5452  1.9858  0.8764
15655SOL    HW248973   5.307   0.985  11.017 -0.8733  0.5650 -1.2959
15656SOL     OW48974  11.221   6.294  10.809  0.1014 -0.0872  0.8022
15656SOL    HW148975  11.141   6.309  10.759  0.8373  1.2195 -0.0163
15656SOL    HW248976  11.252   6.208  10.780  0.9196  0.9496 -1.5928
15657SOL     OW48977   8.894  11.120   9.472 -0.2365  0.1117 -0.1532
15657SOL    HW148978   8.965  11.123   9.537 -1.6977  1.5155  1.4957
15657SOL    HW248979   8.860  11.031   9.478  0.2921 -0.0671  0.2897
15658SOL     OW48980   3.065   9.778   5.813 -1.1325 -0.7394 -0.7797
15658SOL    HW148981   3.073   9.853   5.754 -0.6816 -0.0126  0.1835
15658SOL    HW248982   3.081   9.814   5.900  0.7754 -2.2333 -0.4486
15659SOL     OW48983   2.713   7.273   5.235 -0.0865  0.1564  0.4788
15659SOL    HW148984   2.701   7.228   5.319  0.8724  2.7745  2.1243
15659SOL    HW248985   2.805   7.259   5.213 -0.4419 -0.9048 -0.4274
15660SOL     OW48986   0.095   9.304   6.845 -0.0562 -0.4696  0.8320
15660SOL    HW148987   0.081   9.373   6.909  1.0716  0.1817  0.4054
15660SOL    HW248988   0.064   9.341   6.762  0.2049 -0.6082  0.6691
15661SOL     OW48989   2.796   0.846   3.057  0.6150 -0.0834 -0.9437
15661SOL    HW148990   2.769   0.933   3.084  0.1642 -0.4038 -0.3444
15661SOL    HW248991   2.793   0.848   2.961 -0.6838  0.1629 -0.9128
15662SOL     OW48992   3.548   5.913   2.487  0.5246 -0.7871 -0.0886
15662SOL    HW148993   3.540   5.938   2.579 -0.4095  3.0815 -1.0490
15662SOL    HW248994   3.629   5.861   2.484  1.5207  0.3910  2.6839
15663SOL     OW48995   3.879   6.679   9.272  0.8129  0.1315 -0.3308
15663SOL    HW148996   3.923   6.686   9.187 -1.1959  2.2244 -1.3254
15663SOL    HW248997   3.853   6.587   9.278  1.6523 -0.2228 -1.6211
15664SOL     OW48998   2.742   8.642   4.734 -0.2214  0.2442  0.1722
15664SOL    HW148999   2.717   8.582   4.664 -1.9664  1.8783 -0.7135
15664SOL    HW249000   2.740   8.589   4.813 -0.1416 -1.2178 -0.7687
15665SOL     OW49001   7.526  10.488   1.799 -0.4280 -0.1026 -0.4569
15665SOL    HW149002   7.441  10.452   1.773 -1.3627  0.1546  1.9355
15665SOL    HW249003   7.590  10.424   1.768 -1.8488 -2.6709  1.4429
15666SOL     OW49004   9.628   3.445   0.689 -0.3529 -0.1725  0.5109
15666SOL    HW149005   9.641   3.432   0.595  1.7148 -0.0998  0.7585
15666SOL    HW249006   9.594   3.535   0.696 -1.4509 -0.5056 -0.1951
15667SOL     OW49007   1.803  10.732   1.654 -0.5711 -0.2982  0.4686
15667SOL    HW149008   1.807  10.698   1.743 -3.7617 -0.6900  0.5639
15667SOL    HW249009   1.810  10.655   1.598  0.5546 -0.1430  0.3730
15668SOL     OW49010   3.926   2.247   9.784  0.1595 -0.2515 -0.0643
15668SOL    HW149011   4.006   2.206   9.750  0.2514 -0.4264  0.3504
15668SOL    HW249012   3.859   2.227   9.718  0.4913  0.0400 -0.4989
15669SOL     OW49013   0.706   5.888   0.039 -0.5901 -0.2215  0.5446
15669SOL    HW149014   0.744   5.946  -0.027 -0.5263 -0.3827  0.4393
15669SOL    HW249015   0.685   5.946   0.113  1.8885 -0.4398  1.5171
15670SOL     OW49016   3.747   3.432  10.930  0.2852 -0.5552  0.3659
15670SOL    HW149017   3.734   3.508  10.986  0.4301 -0.0651 -0.2569
15670SOL    HW249018   3.781   3.468  10.848 -1.5506 -1.0643 -0.6760
15671SOL     OW49019   2.372   9.343   2.617 -1.1136 -0.1503 -0.6716
15671SOL    HW149020   2.358   9.305   2.530 -1.9264  1.5238 -1.3276
15671SOL    HW249021   2.402   9.270   2.671 -0.4745 -1.2058 -2.3795
15672SOL     OW49022   3.385   7.283   5.395  0.0308 -0.2868  0.2192
15672SOL    HW149023   3.313   7.230   5.360  2.5387 -2.5657 -1.9285
15672SOL    HW249024   3.391   7.357   5.336  0.3615 -0.8833 -0.5094
15673SOL     OW49025   6.095   1.019   4.902 -0.8262 -0.1692 -0.5696
15673SOL    HW149026   6.087   1.064   4.987 -0.2945 -0.3342 -0.4328
15673SOL    HW249027   6.047   1.075   4.841 -0.5496  0.3488 -0.3121
15674SOL     OW49028   1.287   0.075   8.685 -0.2365 -0.0275  0.1927
15674SOL    HW149029   1.330   0.034   8.760 -0.7839 -1.0481 -0.0359
15674SOL    HW249030   1.261   0.002   8.629 -0.9938  0.6466 -0.3631
15675SOL     OW49031   6.947   8.523   9.211  0.1418  0.1204 -0.0423
15675SOL    HW149032   6.874   8.499   9.154  0.5761 -0.2216 -0.4661
15675SOL    HW249033   7.022   8.531   9.151  0.6422 -0.4208  0.5029
15676SOL     OW49034   7.568   7.862   9.584 -0.5250 -0.0596 -0.6856
15676SOL    HW149035   7.651   7.898   9.554  0.3410  0.1448  1.7363
15676SOL    HW249036   7.537   7.925   9.649 -1.0691 -1.6194  0.6135
15677SOL     OW49037   9.431   0.846   2.203  0.3347  1.0487  0.1787
15677SOL    HW149038   9.504   0.786   2.217  0.6765  1.5565  0.5922
15677SOL    HW249039   9.356   0.788   2.188  0.5649  0.5049  1.0255
15678SOL     OW49040   2.127   3.485   7.941  0.2002 -0.0912 -0.2428
15678SOL    HW149041   2.096   3.454   8.026 -3.8398  0.1930 -1.4199
15678SOL    HW249042   2.116   3.580   7.945  1.1676  0.0509 -0.7020
15679SOL     OW49043   3.525   3.104   7.956  0.8192 -0.5082  0.2056
15679SOL    HW149044   3.601   3.109   7.898  0.7094  0.9302  0.1420
15679SOL    HW249045   3.486   3.191   7.952 -1.1429 -1.3497 -0.1608
15680SOL     OW49046   5.083   2.728   6.263  0.1813 -0.1525  0.7504
15680SOL    HW149047   5.042   2.701   6.345 -1.6776 -0.5663 -0.2698
15680SOL    HW249048   5.054   2.663   6.199  3.5904 -1.2962  0.1841
15681SOL     OW49049   5.914   9.423   7.401 -0.0650 -0.2505  0.3035
15681SOL    HW149050   5.942   9.505   7.360  3.5708  0.9177  4.4357
15681SOL    HW249051   5.818   9.426   7.398 -0.0421  3.0094 -1.6122
15682SOL     OW49052   0.342  10.044   5.725  0.8878  0.2040  0.1699
15682SOL    HW149053   0.276   9.986   5.762 -1.0224  1.3987 -1.1463
15682SOL    HW249054   0.368  10.100   5.797 -1.1387  1.0695  0.2973
15683SOL     OW49055   0.508   9.682   6.455 -0.3814  0.4797 -0.4048
15683SOL    HW149056   0.528   9.753   6.394 -0.9607  1.2379  0.2823
15683SOL    HW249057   0.414   9.689   6.471 -0.0896  0.8516  1.2737
15684SOL     OW49058   8.778   4.598   2.097  0.0859  0.7637  0.0998
15684SOL    HW149059   8.769   4.509   2.061  0.1964 -0.1251  2.1182
15684SOL    HW249060   8.728   4.653   2.037  0.2921 -0.5936 -1.4035
15685SOL     OW49061   9.640   4.710   4.914 -0.6276  0.2091 -0.1470
15685SOL    HW149062   9.607   4.703   5.003 -0.0226  1.4577  0.2023
15685SOL    HW249063   9.604   4.793   4.882  1.4536  1.2280 -0.0268
15686SOL     OW49064  11.256   9.504  10.653 -0.0298 -0.1945 -0.5476
15686SOL    HW149065  11.198   9.459  10.592  0.3161 -2.6006  0.7451
15686SOL    HW249066  11.338   9.514  10.606 -0.6376  0.6873 -1.4453
15687SOL     OW49067   2.960  10.039   1.140  0.2857 -0.0312 -0.0065
15687SOL    HW149068   2.908  10.013   1.217  1.0591 -1.3152  0.1085
15687SOL    HW249069   2.949   9.966   1.078  0.6929  0.4041 -0.5987
15688SOL     OW49070   6.221   9.181  10.424  0.1814 -0.4349  0.1170
15688SOL    HW149071   6.141   9.132  10.441  0.3374 -0.6552  0.2247
15688SOL    HW249072   6.288   9.114  10.411  0.4727 -0.2521  0.6304
15689SOL     OW49073  11.202   9.529   6.435 -0.2755  1.0181  0.0929
15689SOL    HW149074  11.179   9.476   6.359  0.6444  1.1130 -0.2737
15689SOL    HW249075  11.119   9.568   6.464 -0.7779  0.2629 -0.3004
15690SOL     OW49076   7.286  10.783   6.128  0.3448 -0.2410 -0.4436
15690SOL    HW149077   7.241  10.719   6.073  0.6300  0.4362 -1.4896
15690SOL    HW249078   7.216  10.831   6.172  0.0751  0.0654 -1.1993
15691SOL     OW49079   7.685  10.925   5.973 -0.1776  0.0261  0.0399
15691SOL    HW149080   7.712  10.855   5.914 -1.3668  0.0612 -0.5744
15691SOL    HW249081   7.750  10.995   5.959  0.3628 -0.5062 -0.1625
15692SOL     OW49082  11.092   4.239   0.385  0.1478  0.3917 -0.4576
15692SOL    HW149083  11.160   4.273   0.328 -0.5004 -0.2529 -1.6485
15692SOL    HW249084  11.049   4.316   0.421  0.5123  0.7992 -0.8951
15693SOL     OW49085   6.979  10.302   9.074  0.3356 -0.1801 -0.1125
15693SOL    HW149086   6.952  10.394   9.071  0.2911 -0.1978 -0.2635
15693SOL    HW249087   7.074  10.305   9.062  0.3483 -0.1461 -0.0066
15694SOL     OW49088  10.070   7.636   4.047  0.0897 -0.0153 -0.1923
15694SOL    HW149089   9.984   7.625   4.007 -1.1207 -0.3102  2.3436
15694SOL    HW249090  10.074   7.568   4.114  1.3473  1.4672  1.3035
15695SOL     OW49091   2.158   4.815   7.553  0.9716 -0.2861 -0.4877
15695SOL    HW149092   2.147   4.723   7.530  3.9320 -0.9125  0.2837
15695SOL    HW249093   2.235   4.844   7.505  0.4548  1.6563 -0.2529
15696SOL     OW49094   4.993   1.328   3.114 -0.1825  0.1885  0.6083
15696SOL    HW149095   5.012   1.294   3.026 -0.7779 -0.8970  0.8832
15696SOL    HW249096   4.996   1.424   3.103  1.4332  0.0847 -0.2036
15697SOL     OW49097   3.649   5.266   2.054  0.3924 -0.0683  0.2688
15697SOL    HW149098   3.597   5.228   2.125  1.3462 -4.3695 -1.0934
15697SOL    HW249099   3.584   5.309   1.998 -1.2791 -2.1863  0.4621
15698SOL     OW49100   8.828   7.602  10.934  0.3631  0.1435  0.3391
15698SOL    HW149101   8.744   7.636  10.963 -1.0317 -2.2437 -0.5753
15698SOL    HW249102   8.834   7.626  10.841 -0.1085 -1.0435 -0.0180
15699SOL     OW49103   6.901  11.091   0.938 -0.4911  0.0351 -0.6738
15699SOL    HW149104   6.937  11.167   0.892  1.9452 -0.5188  0.1910
15699SOL    HW249105   6.890  11.121   1.028 -2.0461  0.0989 -0.8503
15700SOL     OW49106  11.019   7.000   5.054 -0.1501 -0.1418  0.3171
15700SOL    HW149107  10.980   6.913   5.057  1.1633 -0.8087 -0.7622
15700SOL    HW249108  11.051   7.015   5.143 -1.1822 -0.3543  0.7389
15701SOL     OW49109   7.703   4.292   1.693 -0.1344  0.0695 -0.1350
15701SOL    HW149110   7.788   4.297   1.736  0.4698 -0.5301 -1.2046
15701SOL    HW249111   7.702   4.368   1.634  0.0037 -0.3527 -0.6924
15702SOL     OW49112   8.639   7.873   9.585  0.6947 -0.1351 -0.2459
15702SOL    HW149113   8.714   7.849   9.639  0.9126  0.7814 -0.1181
15702SOL    HW249114   8.571   7.897   9.648  0.5432 -0.2331 -0.3703
15703SOL     OW49115   7.667   4.687   3.151  0.4227 -0.2516 -0.3132
15703SOL    HW149116   7.597   4.654   3.095  0.6870 -0.1083 -0.7347
15703SOL    HW249117   7.712   4.752   3.097  0.3258  0.3048  0.2659
15704SOL     OW49118   0.381  10.417   9.930  0.0228 -0.3734  0.1108
15704SOL    HW149119   0.329  10.462   9.996  0.7293 -0.2930  0.6282
15704SOL    HW249120   0.318  10.390   9.863 -0.5651  0.3950  0.3430
15705SOL     OW49121   5.594   0.487   4.364 -0.2461 -0.1084  0.2042
15705SOL    HW149122   5.640   0.475   4.281 -0.4937  0.0299  0.0479
15705SOL    HW249123   5.503   0.504   4.340  0.3010  3.7097  0.3022
15706SOL     OW49124   6.751   8.973   7.456  1.3030 -0.2679 -0.1697
15706SOL    HW149125   6.773   8.996   7.366 -0.0484  0.9530 -0.2275
15706SOL    HW249126   6.788   9.044   7.509  1.2873 -0.4938  0.1481
15707SOL     OW49127   2.485   3.255   9.862 -0.2226  0.8550 -0.7371
15707SOL    HW149128   2.400   3.271   9.903  0.5828  0.6493  1.1089
15707SOL    HW249129   2.549   3.278   9.930  1.1661 -0.7651 -1.4220
15708SOL     OW49130  10.557  10.996   9.054 -0.1705 -0.3118 -0.0535
15708SOL    HW149131  10.547  11.004   9.149  1.0756 -2.5740  0.3398
15708SOL    HW249132  10.646  11.026   9.037 -0.7643  1.1662 -0.7128
15709SOL     OW49133   7.333   8.609   0.765  0.1447  0.2793 -0.1450
15709SOL    HW149134   7.364   8.581   0.679 -0.1180  1.6596 -0.7200
15709SOL    HW249135   7.405   8.588   0.825 -0.1048 -1.7163 -0.4789
15710SOL     OW49136   7.884  10.935   6.944  0.3682 -0.1568  0.0911
15710SOL    HW149137   7.790  10.940   6.961  0.5548  0.1106  1.0678
15710SOL    HW249138   7.891  10.937   6.848 -0.6791 -1.2755 -0.0293
15711SOL     OW49139   8.554   1.456   8.674 -0.7619 -0.2812  0.5503
15711SOL    HW149140   8.517   1.507   8.602  1.2212 -0.8721 -0.9933
15711SOL    HW249141   8.549   1.514   8.750 -0.5861  1.3765 -0.6374
15712SOL     OW49142   3.361   9.951   2.941  0.4436 -0.3102 -0.0682
15712SOL    HW149143   3.383   9.965   3.033  0.4967 -0.1513 -0.1064
15712SOL    HW249144   3.364   9.855   2.931 -0.2747 -0.3802  0.2740
15713SOL     OW49145   1.599   1.415   1.633 -0.2556  0.5631  0.1422
15713SOL    HW149146   1.605   1.510   1.631 -1.9454  0.7389 -3.0240
15713SOL    HW249147   1.554   1.396   1.716 -0.0094  2.4863  0.7678
15714SOL     OW49148   5.450   2.390  10.469  0.6756  0.3226 -0.2602
15714SOL    HW149149   5.364   2.356  10.494  0.9558 -0.7006 -0.6083
15714SOL    HW249150   5.441   2.485  10.474  0.1543  0.2101  1.8059
15715SOL     OW49151  10.204   6.418   5.166 -0.0030  0.5817  0.6231
15715SOL    HW149152  10.111   6.441   5.164  0.0131  0.6042  0.0263
15715SOL    HW249153  10.230   6.414   5.074  0.8004  1.4394  0.7961
15716SOL     OW49154   4.618   1.494   0.704 -0.4554  0.2699  0.8362
15716SOL    HW149155   4.535   1.475   0.748 -0.2170  1.8760  2.0439
15716SOL    HW249156   4.601   1.572   0.652  0.3905  0.8518  1.4054
15717SOL     OW49157   5.960   3.357   9.584  0.1565 -0.5277  0.2631
15717SOL    HW149158   5.882   3.310   9.556 -0.5670  0.4480  0.5969
15717SOL    HW249159   5.995   3.305   9.656 -1.5926  0.2873  1.7653
15718SOL     OW49160  10.425   2.576   4.549 -0.4294 -0.0638  0.0950
15718SOL    HW149161  10.467   2.496   4.516  0.5487  0.1965  0.6833
15718SOL    HW249162  10.407   2.628   4.471 -0.9706 -0.8040 -0.2831
15719SOL     OW49163   0.313   0.131   1.584  0.2210 -0.3849  0.1102
15719SOL    HW149164   0.232   0.081   1.595  0.4986 -0.6609  0.9433
15719SOL    HW249165   0.299   0.211   1.634  0.0110  0.1082 -0.7246
15720SOL     OW49166   1.166   7.536   8.977 -0.1095  0.0431 -0.5403
15720SOL    HW149167   1.085   7.488   8.990 -0.4575  0.6431 -0.4346
15720SOL    HW249168   1.182   7.580   9.060 -1.1324  2.0871 -1.3629
15721SOL     OW49169   1.677  10.098   6.406 -0.0012 -0.2137  0.0516
15721SOL    HW149170   1.760  10.085   6.451  0.6576  2.1406 -0.3324
15721SOL    HW249171   1.621  10.027   6.438  2.4115 -2.5354 -0.4920
15722SOL     OW49172   1.458   7.735   4.740  0.2686 -0.2663 -0.2053
15722SOL    HW149173   1.394   7.805   4.742  3.0446  3.1191 -5.9169
15722SOL    HW249174   1.439   7.686   4.660  3.5279 -0.2035 -1.1842
15723SOL     OW49175   6.761   5.286   6.201  0.5326 -0.7324 -0.0882
15723SOL    HW149176   6.719   5.369   6.223  0.4648 -0.7215 -0.2530
15723SOL    HW249177   6.793   5.252   6.284  2.2410  0.3648 -0.2543
15724SOL     OW49178   4.739   4.182   7.705  0.3168 -0.0833 -0.7134
15724SOL    HW149179   4.754   4.172   7.611  2.9323 -1.5424 -0.2611
15724SOL    HW249180   4.777   4.267   7.727  0.4551 -0.1047 -0.8691
15725SOL     OW49181   2.439   3.882   5.176  0.2208  0.3568 -0.3084
15725SOL    HW149182   2.380   3.815   5.209 -1.0227  1.4697 -0.1737
15725SOL    HW249183   2.524   3.838   5.167  0.0371 -0.5934  2.0338
15726SOL     OW49184   0.233   8.589   3.036  0.4140 -0.3642  0.1169
15726SOL    HW149185   0.306   8.651   3.032  1.0687 -1.0533  1.0917
15726SOL    HW249186   0.199   8.586   2.946  1.5779 -0.0234 -0.3464
15727SOL     OW49187   8.996   8.044   8.388 -0.4581  0.0203 -0.0416
15727SOL    HW149188   8.943   8.087   8.320 -1.7766 -0.4766  0.6267
15727SOL    HW249189   9.019   8.115   8.449  0.3333  0.3810 -0.7419
15728SOL     OW49190   7.427   8.152   5.066 -0.2605 -0.6443  0.6303
15728SOL    HW149191   7.357   8.204   5.026 -0.4608 -1.7412 -0.5243
15728SOL    HW249192   7.507   8.200   5.046 -0.6240  0.3586  1.5195
15729SOL     OW49193   8.994   0.653   6.744 -0.4161 -0.3434 -0.3039
15729SOL    HW149194   8.901   0.655   6.766 -0.4449 -2.1051 -0.1205
15729SOL    HW249195   8.996   0.671   6.650 -0.9837 -0.6838 -0.3892
15730SOL     OW49196   2.312   0.153   2.972 -0.3732  0.4247  0.0262
15730SOL    HW149197   2.269   0.232   3.004  0.5146  1.1613 -0.5519
15730SOL    HW249198   2.268   0.135   2.889  0.6648  1.4326 -0.7852
15731SOL     OW49199   8.525   7.941  10.357 -0.5815 -0.3338 -0.0888
15731SOL    HW149200   8.450   7.897  10.319 -0.6890 -1.1392  1.0165
15731SOL    HW249201   8.500   7.958  10.448  0.0128  0.7194 -0.1009
15732SOL     OW49202   4.068   0.814   8.163 -0.8139  0.3552 -0.2565
15732SOL    HW149203   4.010   0.749   8.123 -0.7785 -0.3189  0.7518
15732SOL    HW249204   4.013   0.859   8.228 -0.1871 -0.4161  0.8349
15733SOL     OW49205   9.154   9.386   4.203  0.1456 -0.0798 -0.3328
15733SOL    HW149206   9.065   9.361   4.177 -0.8163  2.4244  0.2768
15733SOL    HW249207   9.196   9.303   4.227 -1.5773 -1.4837 -1.8365
15734SOL     OW49208   3.732  10.936   3.227 -0.1925  0.0023  0.3504
15734SOL    HW149209   3.824  10.948   3.252 -0.1009  1.0046 -0.4069
15734SOL    HW249210   3.730  10.953   3.133 -1.3637  1.2626  0.5745
15735SOL     OW49211   1.801   8.860   8.895 -0.4450  0.3558  0.5761
15735SOL    HW149212   1.829   8.933   8.950  0.5001 -0.0039  0.5935
15735SOL    HW249213   1.791   8.898   8.808  2.9244  0.0141 -0.1137
15736SOL     OW49214   3.949   7.073   9.005 -0.2364  0.5219 -0.0782
15736SOL    HW149215   3.995   7.039   9.082 -1.2523 -1.5977 -0.3239
15736SOL    HW249216   4.013   7.129   8.961  2.4065 -2.6979 -0.7241
15737SOL     OW49217   2.165   4.316   9.104  0.7095  0.1752  0.0793
15737SOL    HW149218   2.228   4.356   9.045 -1.0003 -0.0837 -2.0526
15737SOL    HW249219   2.120   4.390   9.145  2.5542  0.3642  1.9022
15738SOL     OW49220   5.489   9.661  10.582  0.5640 -0.3157  0.5430
15738SOL    HW149221   5.537   9.587  10.544  0.2615 -0.2728  0.0691
15738SOL    HW249222   5.418   9.622  10.632 -0.5750 -0.3407 -1.0059
15739SOL     OW49223  10.227   4.618   1.458  0.5600 -0.0280  0.1930
15739SOL    HW149224  10.179   4.612   1.541  0.5354 -0.3331  0.1560
15739SOL    HW249225  10.181   4.559   1.399  1.1654 -0.5657  0.2493
15740SOL     OW49226   6.750   4.329   6.435 -0.0218 -0.2847 -0.0221
15740SOL    HW149227   6.773   4.239   6.461 -0.8186 -0.4710  0.0621
15740SOL    HW249228   6.787   4.338   6.347  0.7368 -0.4225  0.2733
15741SOL     OW49229   7.732  10.544  10.071  0.1451  0.2221 -0.1925
15741SOL    HW149230   7.703  10.557  10.161  0.9212  1.0686 -0.0467
15741SOL    HW249231   7.659  10.498  10.029 -0.5789  0.5631  0.6471
15742SOL     OW49232   2.659   8.374   1.484  0.2173  0.3312  0.0434
15742SOL    HW149233   2.644   8.447   1.544  1.5010  0.9991 -0.3970
15742SOL    HW249234   2.575   8.330   1.477 -0.7906  2.2270 -0.2865
15743SOL     OW49235   1.015   9.256   6.970  1.1415  0.2668 -0.8255
15743SOL    HW149236   1.050   9.259   6.881  0.5023 -0.9085 -1.1417
15743SOL    HW249237   0.924   9.230   6.959  0.3979  2.3169  0.0428
15744SOL     OW49238   9.470   0.791   0.443 -0.1585 -0.5285 -0.1791
15744SOL    HW149239   9.425   0.710   0.465  1.2137 -1.2153  0.1534
15744SOL    HW249240   9.423   0.859   0.492 -0.6497 -1.2615  0.3759
15745SOL     OW49241   9.615   1.527   5.058 -0.0828  0.0785  0.6643
15745SOL    HW149242   9.668   1.447   5.047  2.8959  1.7178  1.9947
15745SOL    HW249243   9.578   1.519   5.145 -3.9008 -1.9179 -0.8874
15746SOL     OW49244   7.045   3.378   8.435 -0.0170  0.1562  0.2773
15746SOL    HW149245   6.983   3.313   8.468 -0.7811  0.3781 -0.7000
15746SOL    HW249246   7.044   3.366   8.340 -0.6896  2.0579  0.0208
15747SOL     OW49247  10.564   4.357  10.298  0.9534 -0.6775  0.0460
15747SOL    HW149248  10.642   4.352  10.243  0.8069 -1.1496 -0.1260
15747SOL    HW249249  10.492   4.333  10.239  0.4021  1.5961 -0.3269
15748SOL     OW49250   7.473   9.848   7.260  0.2901 -0.4379  0.1832
15748SOL    HW149251   7.546   9.827   7.319  1.2676 -1.4506 -1.3374
15748SOL    HW249252   7.408   9.888   7.317  3.0075  2.9743  1.2797
15749SOL     OW49253   4.628   5.761   8.117  0.0107  0.7200  0.2056
15749SOL    HW149254   4.699   5.817   8.148  1.3246 -1.1187  0.7364
15749SOL    HW249255   4.629   5.771   8.022  0.7081  1.0342  0.2397
15750SOL     OW49256   1.929   4.192   6.788 -0.4453  0.1943  0.3976
15750SOL    HW149257   1.885   4.163   6.868 -0.5694  1.0116  0.6407
15750SOL    HW249258   1.870   4.258   6.751  1.2407  2.5352  1.6013
15751SOL     OW49259   5.513   3.333   0.729  0.0789 -0.0874 -0.4357
15751SOL    HW149260   5.437   3.315   0.785 -0.5724  0.4740 -1.1155
15751SOL    HW249261   5.522   3.429   0.732 -1.0596  0.1431 -2.6682
15752SOL     OW49262   0.402   4.442   5.130 -0.1108 -0.2080 -0.9079
15752SOL    HW149263   0.431   4.388   5.057  2.1715 -0.0278 -0.2157
15752SOL    HW249264   0.316   4.474   5.104 -1.2013 -3.4340 -1.7105
15753SOL     OW49265   7.129   2.089   1.529  0.2583 -0.2466 -0.0514
15753SOL    HW149266   7.205   2.134   1.565  0.0303  0.2447 -0.1761
15753SOL    HW249267   7.146   1.997   1.545  0.6399 -0.1037  0.3899
15754SOL     OW49268   7.837  10.592   1.055 -0.4017  0.5206 -0.5489
15754SOL    HW149269   7.914  10.542   1.081  0.2923  0.9577 -1.7072
15754SOL    HW249270   7.865  10.684   1.062 -1.0987  0.7082 -0.1375
15755SOL     OW49271   4.159   0.427   7.893 -0.3294  0.0711 -0.0365
15755SOL    HW149272   4.163   0.488   7.966  1.2648  1.0912 -0.9277
15755SOL    HW249273   4.180   0.479   7.816 -1.5209 -1.0686 -1.2059
15756SOL     OW49274   4.002   7.947   5.732  0.6291  0.1068  0.4058
15756SOL    HW149275   4.037   7.862   5.707  0.0255 -0.4271  1.3113
15756SOL    HW249276   3.938   7.967   5.664  0.0898 -0.6208  0.6774
15757SOL     OW49277   1.337  10.525   8.256 -0.9960 -0.6808 -0.2707
15757SOL    HW149278   1.288  10.464   8.201 -1.7051  0.2511 -0.6989
15757SOL    HW249279   1.337  10.607   8.207  0.2705 -0.4189  0.1195
15758SOL     OW49280  11.193   1.682   3.820 -0.1160 -0.6121 -0.5915
15758SOL    HW149281  11.129   1.684   3.891  0.4451  0.4869 -0.0993
15758SOL    HW249282  11.140   1.675   3.740 -0.8183 -0.3784 -0.1549
15759SOL     OW49283  10.497   2.219   2.157  0.1729  0.3987  0.3834
15759SOL    HW149284  10.459   2.251   2.240 -1.4347  2.3118 -0.9804
15759SOL    HW249285  10.428   2.164   2.119  0.8204 -0.3035  0.2146
15760SOL     OW49286   7.711   2.687  10.912  0.0404 -0.3303  0.4220
15760SOL    HW149287   7.723   2.596  10.940  1.3708  0.5882  3.0619
15760SOL    HW249288   7.783   2.703  10.851  2.2425 -0.0007  2.9292
15761SOL     OW49289   6.896  10.179   7.873  0.0014 -0.1043  0.3500
15761SOL    HW149290   6.969  10.153   7.931  0.7695 -1.4750 -1.1674
15761SOL    HW249291   6.850  10.246   7.923  0.6663 -1.1673  2.5342
15762SOL     OW49292   4.319   5.274  11.243  0.5607  0.7210 -0.1329
15762SOL    HW149293   4.237   5.252  11.286  0.6423  0.3266 -0.1705
15762SOL    HW249294   4.311   5.236  11.156  0.6615  0.9428 -0.2391
15763SOL     OW49295   2.672   9.580   3.404 -0.6946 -0.2675 -0.0923
15763SOL    HW149296   2.613   9.656   3.404 -1.5941 -0.9327  1.0413
15763SOL    HW249297   2.758   9.617   3.385 -1.2870  0.8807 -0.6827
15764SOL     OW49298   9.378   2.432   3.806 -0.8412 -0.0696 -0.3514
15764SOL    HW149299   9.432   2.353   3.814  0.4336  0.9863  3.0503
15764SOL    HW249300   9.438   2.501   3.779 -0.4429  0.9452  2.7099
15765SOL     OW49301  10.327   6.726   2.842 -0.5159  0.3485  0.0945
15765SOL    HW149302  10.291   6.780   2.771  1.9329  1.3822 -0.4797
15765SOL    HW249303  10.309   6.776   2.921 -0.5034  0.7566 -0.1542
15766SOL     OW49304   9.371   0.608  11.020  0.0442  0.4615  0.0539
15766SOL    HW149305   9.410   0.595  10.934  0.0767  1.9525 -0.1777
15766SOL    HW249306   9.278   0.625  11.002 -0.0706  0.1571  0.3597
15767SOL     OW49307  10.051   1.545   5.623 -0.3824 -0.1429 -0.0589
15767SOL    HW149308   9.976   1.597   5.594 -0.4586 -1.3684 -2.3024
15767SOL    HW249309  10.089   1.512   5.542  0.9535 -1.8009  1.1854
15768SOL     OW49310   9.486  10.239   9.391  0.3423  0.0114  0.2679
15768SOL    HW149311   9.506  10.216   9.300 -0.0405 -0.0722  0.2052
15768SOL    HW249312   9.539  10.178   9.443 -0.8951 -1.2484  0.1041
15769SOL     OW49313   3.647   5.122  10.059  0.0954  0.0506 -1.1383
15769SOL    HW149314   3.554   5.105  10.046  0.1469 -0.3002 -1.0379
15769SOL    HW249315   3.662   5.205  10.013 -1.3346  2.9393  3.0438
15770SOL     OW49316   6.562   2.033   5.441 -0.5586  0.1230  0.6937
15770SOL    HW149317   6.621   2.092   5.488 -0.0515 -0.2948  0.6024
15770SOL    HW249318   6.621   1.973   5.396 -1.0596 -1.2114  1.7534
15771SOL     OW49319   0.491   6.738   2.929  0.8057  0.2593 -0.4506
15771SOL    HW149320   0.513   6.739   3.022  0.1028 -2.0378 -0.2030
15771SOL    HW249321   0.457   6.826   2.912 -0.5514  0.2756  1.8562
15772SOL     OW49322   6.315   2.248   7.194 -0.5660  0.4241  0.4594
15772SOL    HW149323   6.230   2.290   7.210 -0.5219  0.9212 -0.5474
15772SOL    HW249324   6.376   2.321   7.184 -0.8953  0.3882 -3.7666
15773SOL     OW49325   2.232   2.844   4.009 -0.1664 -0.2870  0.0666
15773SOL    HW149326   2.280   2.784   4.066  0.3580 -1.2515 -1.3172
15773SOL    HW249327   2.240   2.805   3.922 -2.4006  0.2023 -0.4150
15774SOL     OW49328   6.823  10.453   9.874 -0.3747  0.0320  0.1458
15774SOL    HW149329   6.752  10.425   9.815  0.0779  1.7569 -1.3404
15774SOL    HW249330   6.903  10.427   9.829 -0.0239  1.4533 -0.1268
15775SOL     OW49331   8.796   6.256   1.323  0.4921 -0.3256  0.5720
15775SOL    HW149332   8.720   6.230   1.375 -0.8890  0.1475 -1.1021
15775SOL    HW249333   8.833   6.331   1.370 -0.6029 -0.0293  0.9954
15776SOL     OW49334   3.580   9.867   0.657 -0.6882  0.1847 -0.8231
15776SOL    HW149335   3.648   9.922   0.619 -1.3586  1.6009 -0.0207
15776SOL    HW249336   3.628   9.805   0.712  0.0694 -0.0242 -1.6968
15777SOL     OW49337   6.843   0.949   2.740 -0.5996 -0.4517  0.2016
15777SOL    HW149338   6.762   0.945   2.691  0.4268  0.7742 -1.7302
15777SOL    HW249339   6.862   1.043   2.747  1.2351 -0.7284 -0.4934
15778SOL     OW49340   3.905   0.579   6.870  0.1200 -0.5078 -0.5826
15778SOL    HW149341   3.986   0.606   6.913 -1.1111  1.1668  0.8668
15778SOL    HW249342   3.899   0.485   6.886  0.5604 -0.2290  1.5620
15779SOL     OW49343   5.364   9.015  10.256  0.2345 -0.2863 -0.2601
15779SOL    HW149344   5.423   8.971  10.316  0.2587 -1.1752 -0.9149
15779SOL    HW249345   5.421   9.070  10.202  0.2621  0.1566  0.2083
15780SOL     OW49346   1.137   0.046   6.194 -0.6496  0.6179  0.6464
15780SOL    HW149347   1.139   0.031   6.099 -0.8750 -0.9299  0.8591
15780SOL    HW249348   1.044   0.057   6.214 -0.6637  0.3286  0.7554
15781SOL     OW49349   6.558  10.171  10.501  0.1323 -0.1316  0.3208
15781SOL    HW149350   6.493  10.114  10.459 -0.6354  0.1204  1.1266
15781SOL    HW249351   6.520  10.259  10.494 -1.1723 -0.3079  3.4738
15782SOL     OW49352   5.849  10.168   6.748 -0.4779  0.2115  0.1469
15782SOL    HW149353   5.761  10.194   6.775  0.4516  2.1500  1.5387
15782SOL    HW249354   5.905  10.190   6.823  2.0438  4.1993 -2.5189
15783SOL     OW49355   9.467   8.540   1.834  0.7992 -0.8715 -0.3769
15783SOL    HW149356   9.483   8.568   1.924  0.3505 -0.0364 -0.5459
15783SOL    HW249357   9.544   8.487   1.811 -0.2431 -3.3074  1.3490
15784SOL     OW49358   7.061   5.691   8.069  0.0933 -0.1755  0.4405
15784SOL    HW149359   7.014   5.640   8.136 -0.5458 -0.9505 -0.5665
15784SOL    HW249360   6.993   5.721   8.009  0.8833 -2.0195 -1.5180
15785SOL     OW49361   9.204   9.646   7.425  0.5123  0.5137 -0.3241
15785SOL    HW149362   9.197   9.666   7.332 -0.8809  0.4872 -0.2380
15785SOL    HW249363   9.147   9.710   7.468  0.8215  0.2594  0.4722
15786SOL     OW49364  10.175   3.056   0.421 -0.4655 -0.3308  0.5668
15786SOL    HW149365  10.161   3.082   0.330 -1.9409  1.2843  1.1935
15786SOL    HW249366  10.125   3.120   0.472  1.5155 -0.2825  2.6057
15787SOL     OW49367   3.120   8.734   1.046  0.2655  0.2719 -0.5479
15787SOL    HW149368   3.035   8.736   1.089  0.1249 -1.2877 -0.6997
15787SOL    HW249369   3.165   8.659   1.084  1.4798  0.9076 -0.6688
15788SOL     OW49370   7.181   3.780  11.031  0.8742  0.1915 -0.4722
15788SOL    HW149371   7.216   3.698  10.999  1.6670 -0.5021  1.9489
15788SOL    HW249372   7.239   3.804  11.104 -2.1749  0.2432  2.1565
15789SOL     OW49373   2.406   9.676   4.166 -0.4908  0.5868  0.5814
15789SOL    HW149374   2.417   9.693   4.260 -1.6675  4.6636  0.1665
15789SOL    HW249375   2.336   9.736   4.139  0.3298  0.1100 -3.0576
15790SOL     OW49376   0.163   8.556   2.499 -0.3645  0.0431 -0.0194
15790SOL    HW149377   0.236   8.598   2.454  0.8807 -1.2609  0.6934
15790SOL    HW249378   0.204   8.486   2.550 -1.8126  0.8643  2.4114
15791SOL     OW49379   2.098   4.528   5.611 -0.6437  0.5810 -0.9690
15791SOL    HW149380   2.015   4.482   5.594 -1.7255  2.7162 -1.8463
15791SOL    HW249381   2.164   4.458   5.613 -2.5834 -1.3760  1.2309
15792SOL     OW49382   2.680   7.787   8.576 -0.2090 -0.2887 -0.3130
15792SOL    HW149383   2.713   7.838   8.501 -0.5877  0.5087  0.0592
15792SOL    HW249384   2.758   7.743   8.610  0.2920  0.7122 -0.1202
15793SOL     OW49385   9.801  10.620   1.214  0.2069 -0.2258 -0.1502
15793SOL    HW149386   9.765  10.607   1.301 -0.0216 -0.0761 -0.2195
15793SOL    HW249387   9.725  10.640   1.160  0.2261 -1.2176 -0.5718
15794SOL     OW49388  10.788  10.098   7.061 -0.1997 -0.1811 -0.5650
15794SOL    HW149389  10.861  10.043   7.088  2.0003  2.3538 -0.9798
15794SOL    HW249390  10.777  10.161   7.132 -1.8201 -0.3154 -0.6545
15795SOL     OW49391   2.914   4.307   4.161  0.1911 -0.4304  0.0400
15795SOL    HW149392   2.900   4.312   4.256  0.3865 -0.0435  0.0498
15795SOL    HW249393   2.905   4.397   4.131 -3.4121 -0.9058 -0.8133
15796SOL     OW49394   8.950   5.150   4.026  0.6807 -0.3395 -0.3145
15796SOL    HW149395   8.912   5.090   3.963 -0.5579  0.5975 -0.4974
15796SOL    HW249396   9.010   5.204   3.974  0.9945 -0.7155 -0.3466
15797SOL     OW49397   3.950   6.437   4.174 -0.2505 -0.4067 -0.0314
15797SOL    HW149398   3.897   6.496   4.226 -0.3902 -1.2515  0.8049
15797SOL    HW249399   3.951   6.476   4.086  0.9477  1.6615  0.8475
15798SOL     OW49400   0.209   6.201  10.890  0.0642  0.4821  0.3380
15798SOL    HW149401   0.179   6.144  10.819  0.7003  1.3710 -0.6784
15798SOL    HW249402   0.128   6.237  10.927 -0.6682 -3.4250  3.1858
15799SOL     OW49403  11.120   3.963   0.293  0.6015 -0.0673 -0.6852
15799SOL    HW149404  11.167   4.012   0.226 -0.6310  0.1652 -1.4194
15799SOL    HW249405  11.060   4.027   0.332 -1.1134 -0.9490 -1.7391
15800SOL     OW49406   2.376   7.687   5.720 -0.4950  0.3538 -0.3812
15800SOL    HW149407   2.408   7.676   5.631 -0.0618  1.5009 -0.3861
15800SOL    HW249408   2.443   7.647   5.775  0.5314  1.8781 -0.4485
15801SOL     OW49409   5.698   2.471   2.928  0.5850  0.2356 -0.5183
15801SOL    HW149410   5.696   2.458   2.833 -0.2767 -0.9857 -0.3534
15801SOL    HW249411   5.731   2.389   2.963 -1.1516 -0.1364  0.3506
15802SOL     OW49412   1.632   1.721   2.784  0.5485 -0.5792  0.3851
15802SOL    HW149413   1.581   1.740   2.705  1.3718  0.0562 -0.0135
15802SOL    HW249414   1.637   1.626   2.787  2.0600 -0.6077 -1.3905
15803SOL     OW49415   6.675   1.383   5.264 -0.2943 -0.1925  0.5466
15803SOL    HW149416   6.714   1.456   5.314  2.3451  0.4909 -2.2279
15803SOL    HW249417   6.740   1.313   5.270 -0.5325 -0.5490 -0.7695
15804SOL     OW49418   9.657   0.618   5.375 -0.3031  0.0202 -0.1183
15804SOL    HW149419   9.610   0.601   5.293  1.1065  1.2762 -1.2459
15804SOL    HW249420   9.746   0.585   5.360  0.1836  0.9219  0.6231
15805SOL     OW49421   1.713   1.072   2.626 -0.3241  0.4875  0.2068
15805SOL    HW149422   1.771   0.997   2.640  0.4555  0.9947 -0.2712
15805SOL    HW249423   1.641   1.037   2.574 -0.0568  0.0278  0.1395
15806SOL     OW49424   6.233   7.206   4.500 -0.6667  0.1246 -0.0995
15806SOL    HW149425   6.178   7.269   4.545 -1.2185 -0.6216  0.3029
15806SOL    HW249426   6.286   7.166   4.569 -0.7005 -0.2221 -0.2698
15807SOL     OW49427   8.480   5.262   2.613  0.2846  0.3308  0.2912
15807SOL    HW149428   8.407   5.200   2.610  0.7223 -0.2285  1.0217
15807SOL    HW249429   8.509   5.269   2.522 -0.6941  0.5839 -0.0091
15808SOL     OW49430   4.607   1.498   9.739 -0.1530  0.1394 -0.1066
15808SOL    HW149431   4.513   1.510   9.751  0.1330  3.1281 -0.2566
15808SOL    HW249432   4.647   1.532   9.819  0.8402 -0.8947 -0.1312
15809SOL     OW49433   5.152   9.045   8.332  0.1238 -0.4904 -0.3537
15809SOL    HW149434   5.079   9.026   8.273  1.1420 -0.2560 -1.7446
15809SOL    HW249435   5.114   9.098   8.401 -1.0696 -0.5657 -0.9282
15810SOL     OW49436   9.352   1.016   0.541  0.2531  0.0393 -0.6964
15810SOL    HW149437   9.278   1.017   0.480 -0.5119  1.0504  0.2259
15810SOL    HW249438   9.327   1.075   0.611  1.9773  0.4537 -0.3839
15811SOL     OW49439   7.273   4.967   0.349  0.0379  0.6815 -0.0841
15811SOL    HW149440   7.350   4.942   0.299 -0.2150 -0.5958  0.1310
15811SOL    HW249441   7.216   5.009   0.285  0.5494  0.8653 -0.4251
15812SOL     OW49442   9.822   9.191   3.612 -0.0322  0.4321 -0.7774
15812SOL    HW149443   9.829   9.133   3.536 -0.9109 -0.3498 -0.2679
15812SOL    HW249444   9.749   9.250   3.591  0.5840  1.0981 -1.1067
15813SOL     OW49445   6.939   7.767   4.031  0.3120 -0.3100 -0.5705
15813SOL    HW149446   6.846   7.747   4.034 -0.2331  1.9264  0.4810
15813SOL    HW249447   6.981   7.686   4.004 -2.0006 -1.1117 -2.0654
15814SOL     OW49448   0.580   3.824   6.683 -0.0912  0.2575 -0.2899
15814SOL    HW149449   0.490   3.820   6.715 -0.2424 -1.0098 -0.8089
15814SOL    HW249450   0.580   3.771   6.603  1.3019 -0.5448  0.1924
15815SOL     OW49451  10.003  10.137   8.808 -0.0574  0.5018 -0.4051
15815SOL    HW149452  10.005  10.045   8.782 -1.7031  0.1142  0.6586
15815SOL    HW249453   9.930  10.174   8.758  0.9378  1.4006 -1.2418
15816SOL     OW49454   2.895   4.892   8.089  0.1865  0.1345 -0.6083
15816SOL    HW149455   2.972   4.839   8.069  1.0946  1.1177  0.1181
15816SOL    HW249456   2.879   4.943   8.009 -0.0052 -0.4205 -0.9238
15817SOL     OW49457  10.421   8.165   4.387  0.4081 -0.4478 -0.2392
15817SOL    HW149458  10.368   8.222   4.443  1.6189 -1.1851  1.7809
15817SOL    HW249459  10.400   8.076   4.417  0.3251 -0.9356 -1.6934
15818SOL     OW49460   2.516   5.298   1.199 -0.5182  0.0517 -0.0775
15818SOL    HW149461   2.438   5.328   1.247 -0.7063 -0.9250  0.2609
15818SOL    HW249462   2.495   5.207   1.175  0.1391  0.0887 -0.8155
15819SOL     OW49463  10.910   9.254   7.592 -0.3348 -0.0485  0.1934
15819SOL    HW149464  10.988   9.218   7.633  0.1141  0.5195 -0.1438
15819SOL    HW249465  10.894   9.197   7.517 -1.3597 -1.2952  1.3122
15820SOL     OW49466   2.417   6.772   2.665 -0.1771  0.1016  0.1200
15820SOL    HW149467   2.407   6.865   2.645 -0.1354 -0.1578 -1.2509
15820SOL    HW249468   2.499   6.747   2.622 -1.7351 -1.2375 -2.3036
15821SOL     OW49469   0.362   1.113   8.039 -0.1602 -1.2289  0.0635
15821SOL    HW149470   0.350   1.123   7.945 -1.0413 -0.9151  0.1999
15821SOL    HW249471   0.275   1.127   8.076  0.2857 -0.7930  0.9746
15822SOL     OW49472  10.244  10.234   5.977  0.0923 -0.0644 -0.1551
15822SOL    HW149473  10.233  10.253   6.070 -2.2292  0.5509 -0.4871
15822SOL    HW249474  10.205  10.309   5.932  1.8909  0.0301 -1.6664
15823SOL     OW49475   0.124   6.021  10.146  0.5913  0.2349 -0.8576
15823SOL    HW149476   0.138   5.932  10.178  0.6064 -0.0134 -1.5342
15823SOL    HW249477   0.041   6.016  10.098  0.1788  0.7778 -0.2136
15824SOL     OW49478  10.365   6.898   9.679 -0.0563  0.5598 -0.2104
15824SOL    HW149479  10.375   6.824   9.619  2.1232  0.9865 -0.4858
15824SOL    HW249480  10.363   6.974   9.621 -4.3789  0.7491 -0.0962
15825SOL     OW49481   4.007   2.476  10.617 -0.4121  0.2211 -0.0455
15825SOL    HW149482   3.998   2.519  10.531 -0.8513  0.3808  0.0746
15825SOL    HW249483   3.981   2.544  10.679 -1.3967 -0.2985  0.1347
15826SOL     OW49484  10.212   2.264   8.212  0.0570 -0.8077 -0.2828
15826SOL    HW149485  10.212   2.184   8.159 -0.1161 -0.4664 -0.8054
15826SOL    HW249486  10.231   2.234   8.301 -1.2319 -1.5938 -0.2433
15827SOL     OW49487   4.033   6.975   9.236 -0.1540 -0.5085 -0.0240
15827SOL    HW149488   3.957   6.994   9.291  0.2850  0.9237  0.1345
15827SOL    HW249489   4.109   6.989   9.294  0.4020  2.7229 -1.3105
15828SOL     OW49490   4.662   6.365   9.392 -0.1532  0.3086  0.1030
15828SOL    HW149491   4.596   6.424   9.356 -0.6574  0.4919  1.2844
15828SOL    HW249492   4.710   6.333   9.315 -0.3383  1.6861 -0.6100
15829SOL     OW49493   6.072   0.738   8.107  0.3198  0.2829  0.4065
15829SOL    HW149494   5.980   0.764   8.097  1.3208  4.1499 -0.2318
15829SOL    HW249495   6.075   0.698   8.194 -1.9288  0.0933  0.4796
15830SOL     OW49496   9.783   4.603   8.666 -0.0063  0.7754  0.0528
15830SOL    HW149497   9.752   4.512   8.658  0.8248  0.6056 -2.3764
15830SOL    HW249498   9.876   4.598   8.643  0.3642  2.0859  1.1707
15831SOL     OW49499   0.092   3.094   0.827  0.4163  0.6000  0.3165
15831SOL    HW149500  -0.004   3.090   0.835  0.5039  0.2665  1.4817
15831SOL    HW249501   0.121   3.008   0.858  0.9536 -0.7221 -3.3876
15832SOL     OW49502   8.718   2.632   7.726 -0.4605 -0.0966  0.3110
15832SOL    HW149503   8.744   2.595   7.641 -1.3812 -0.1980  0.0670
15832SOL    HW249504   8.680   2.717   7.705  2.2237  1.3804  0.9223
15833SOL     OW49505  10.494   2.542   9.701 -0.0642 -0.8005 -0.1985
15833SOL    HW149506  10.523   2.607   9.764  1.7579  1.9896 -3.5793
15833SOL    HW249507  10.418   2.581   9.658 -0.0836 -1.7130 -1.0551
15834SOL     OW49508   0.709   2.834   2.399 -0.0029 -0.1618  0.7271
15834SOL    HW149509   0.797   2.871   2.393  0.8601 -2.0337  1.1222
15834SOL    HW249510   0.716   2.765   2.465 -1.8045 -0.2568  0.8645
15835SOL     OW49511   9.642   8.294  10.598 -0.1686 -0.1461  0.9312
15835SOL    HW149512   9.632   8.260  10.509  0.1569  2.0299 -0.0119
15835SOL    HW249513   9.722   8.346  10.595 -0.3508  0.2634  2.4145
15836SOL     OW49514  10.060   7.635   7.861 -0.1385  0.3218 -0.5924
15836SOL    HW149515  10.131   7.611   7.921  0.7722  0.5331 -1.5491
15836SOL    HW249516  10.042   7.555   7.812  0.0107  0.4829 -0.9143
15837SOL     OW49517   5.901   0.990  10.111  0.0037 -0.7077 -0.3055
15837SOL    HW149518   5.983   0.983  10.063  0.9986  0.1311  1.1964
15837SOL    HW249519   5.856   1.064  10.070  2.2383  2.0776  1.8722
15838SOL     OW49520   5.251   0.162   4.664  0.3013 -0.1204  0.0608
15838SOL    HW149521   5.248   0.198   4.753 -1.4234  0.9135 -0.3645
15838SOL    HW249522   5.232   0.069   4.675 -3.0435  0.4989  0.6006
15839SOL     OW49523   1.590   7.822   1.919  0.6937  0.5575  0.2984
15839SOL    HW149524   1.614   7.785   2.004 -1.9986  0.0717  0.9199
15839SOL    HW249525   1.569   7.913   1.937 -0.0851  0.4015  0.2181
15840SOL     OW49526   9.484   4.514   2.300 -0.8064  0.2998  0.8218
15840SOL    HW149527   9.452   4.431   2.335  0.5060 -0.3948  0.4384
15840SOL    HW249528   9.463   4.511   2.207 -0.8516  0.4645  0.8249
15841SOL     OW49529   6.584   5.718  10.946 -0.2670  0.0865  0.6583
15841SOL    HW149530   6.678   5.711  10.961 -0.6231  0.2870  3.6824
15841SOL    HW249531   6.570   5.807  10.916  0.4049  0.6122  1.8252
15842SOL     OW49532   2.382   3.344   2.628 -0.8324  0.0338  0.3210
15842SOL    HW149533   2.417   3.274   2.683  1.1764 -0.9779 -2.0571
15842SOL    HW249534   2.293   3.316   2.606 -0.5596 -1.0550  0.5762
15843SOL     OW49535   2.812   3.617   6.175  0.3656  0.0356 -0.3534
15843SOL    HW149536   2.802   3.569   6.092  0.0497  1.8901 -1.4363
15843SOL    HW249537   2.906   3.625   6.187  0.4339  1.3521 -1.5405
15844SOL     OW49538   6.464   8.914   9.582  0.6537 -0.2302 -0.2586
15844SOL    HW149539   6.385   8.931   9.530  0.7361  1.7095  0.1644
15844SOL    HW249540   6.433   8.914   9.673  1.0008 -0.3789 -0.1408
15845SOL     OW49541   5.500   8.982   2.993  0.5860  0.5790 -0.0193
15845SOL    HW149542   5.518   8.916   2.927 -0.0974 -0.6132  0.9514
15845SOL    HW249543   5.509   9.066   2.947  2.7110 -0.1064 -0.9806
15846SOL     OW49544   5.403   4.024   9.900  0.3562 -0.4215 -0.1080
15846SOL    HW149545   5.337   3.969   9.857 -0.8168  0.0714  1.0006
15846SOL    HW249546   5.426   4.090   9.834  1.4350 -1.8992 -1.2867
15847SOL     OW49547   0.762   9.843   6.153  0.4570  0.1577 -0.1284
15847SOL    HW149548   0.715   9.918   6.116  1.4805  1.0278  0.2930
15847SOL    HW249549   0.842   9.880   6.190  1.0456 -1.1668 -0.0140
15848SOL     OW49550   0.708   4.727   5.827  0.4561  0.3174 -0.4565
15848SOL    HW149551   0.683   4.645   5.869 -0.8464  0.1925 -1.4205
15848SOL    HW249552   0.698   4.711   5.734  0.3503  1.5131 -0.6714
15849SOL     OW49553   8.855  11.156   3.689  0.2524  0.5674  0.3367
15849SOL    HW149554   8.895  11.152   3.776  1.2637  1.3666 -0.0699
15849SOL    HW249555   8.880  11.073   3.647 -0.4533  0.0702  0.8877
15850SOL     OW49556   2.378   8.750   4.478  0.1573 -0.3068 -0.3206
15850SOL    HW149557   2.437   8.810   4.523  0.3180  0.2161 -1.2110
15850SOL    HW249558   2.325   8.806   4.422  0.3407 -1.0054 -1.2088
15851SOL     OW49559   0.199   9.586   1.414  0.0162  0.3847  0.1318
15851SOL    HW149560   0.212   9.615   1.504 -0.3547 -0.5198  0.4987
15851SOL    HW249561   0.112   9.620   1.390  0.6353  1.6920 -0.3470
15852SOL     OW49562   0.144  10.431   3.548 -0.1143 -0.0184  0.2879
15852SOL    HW149563   0.239  10.436   3.539 -0.2355 -0.8230 -2.1945
15852SOL    HW249564   0.130  10.370   3.621  1.2522 -0.1099  0.4941
15853SOL     OW49565   6.405   7.732  10.691  0.1109 -0.2161 -0.6428
15853SOL    HW149566   6.425   7.810  10.639  0.8425 -0.1183 -0.2316
15853SOL    HW249567   6.398   7.662  10.626 -2.2945  0.4552 -1.2123
15854SOL     OW49568   4.924   1.705   8.484 -0.1474 -0.5682  0.5962
15854SOL    HW149569   4.879   1.650   8.421  0.1745 -1.9345  1.5094
15854SOL    HW249570   4.854   1.742   8.538 -0.3508 -0.2726  0.1361
15855SOL     OW49571   5.417   9.611   7.732 -0.2079  0.1307 -1.0585
15855SOL    HW149572   5.462   9.559   7.798 -1.8253  1.0178  0.8282
15855SOL    HW249573   5.444   9.572   7.648  2.6856 -0.4008  0.0113
15856SOL     OW49574   8.772  11.070   9.151 -0.3125 -0.6439 -0.9386
15856SOL    HW149575   8.711  11.027   9.210  0.3557 -1.3618 -0.7701
15856SOL    HW249576   8.837  11.110   9.208 -1.1401  0.9949 -1.0595
15857SOL     OW49577   9.002   2.902   7.099 -0.3670  0.2478 -0.0627
15857SOL    HW149578   9.080   2.953   7.123 -0.5259  0.8507 -0.7908
15857SOL    HW249579   8.942   2.967   7.062 -1.9973  0.1408  2.2116
15858SOL     OW49580   6.095   2.635   5.964  0.0507  0.1073  0.2427
15858SOL    HW149581   6.000   2.636   5.964  0.0234 -0.8058  0.8255
15858SOL    HW249582   6.121   2.727   5.972 -0.7299  0.5892 -2.0393
15859SOL     OW49583   3.821   5.965   3.324 -0.3452  0.1143  0.6364
15859SOL    HW149584   3.817   5.871   3.344 -1.7152  0.4016  1.9599
15859SOL    HW249585   3.798   5.971   3.231 -0.6972 -0.8415  0.6506
15860SOL     OW49586   6.176   4.771   4.362  0.1631  0.4992  0.5112
15860SOL    HW149587   6.119   4.845   4.340 -0.1451  0.0870 -0.1033
15860SOL    HW249588   6.136   4.733   4.440 -1.8684 -1.2574 -1.2579
15861SOL     OW49589   1.865   8.733   0.891  0.0356 -0.0288  0.3745
15861SOL    HW149590   1.804   8.671   0.933 -2.0856  2.1246  0.7208
15861SOL    HW249591   1.929   8.752   0.959 -0.4141 -0.4088  0.9234
15862SOL     OW49592   9.509   2.570   1.496  0.3974 -0.2859 -0.4253
15862SOL    HW149593   9.513   2.554   1.590  1.0910 -0.6403 -0.5056
15862SOL    HW249594   9.449   2.644   1.486  0.3952 -0.1889  0.2989
15863SOL     OW49595   1.463   6.866   9.994  0.0156  0.0414 -0.0889
15863SOL    HW149596   1.419   6.947   9.971 -0.2850 -0.2885 -0.7071
15863SOL    HW249597   1.538   6.893  10.048 -0.5680  0.6514  0.4319
15864SOL     OW49598   6.506   1.494   6.717 -0.2709  0.4697 -0.0601
15864SOL    HW149599   6.508   1.590   6.724 -0.8466  0.3571  3.5304
15864SOL    HW249600   6.412   1.473   6.710 -0.1501  0.1217 -0.7732
15865SOL     OW49601   5.551   4.470   1.041 -0.2937  0.3126 -0.1636
15865SOL    HW149602   5.547   4.423   1.125  0.1332  1.1375  0.3312
15865SOL    HW249603   5.580   4.404   0.978 -0.7947 -0.3654  0.2930
15866SOL     OW49604  10.453   1.796   4.815  0.0826  0.2235  0.6047
15866SOL    HW149605  10.437   1.707   4.846 -0.0910  0.6916  1.9143
15866SOL    HW249606  10.382   1.847   4.854  0.7097  1.0903  0.6195
15867SOL     OW49607   3.126  10.189   0.197 -0.2680 -0.1276 -0.2395
15867SOL    HW149608   3.164  10.129   0.133 -0.3258 -0.0771 -0.3214
15867SOL    HW249609   3.145  10.276   0.163  0.4684 -0.0873  0.2597
15868SOL     OW49610   2.396   0.385   4.093  0.4393  0.1479  0.2359
15868SOL    HW149611   2.310   0.405   4.056 -0.0240 -0.4875  0.9502
15868SOL    HW249612   2.389   0.410   4.185  1.1080  0.3200  0.2486
15869SOL     OW49613   5.936   9.065   2.938 -0.1551  0.4758 -0.3528
15869SOL    HW149614   5.841   9.079   2.942 -0.4936 -1.7078  1.2807
15869SOL    HW249615   5.947   8.993   2.876  0.3403  0.1716  0.0810
15870SOL     OW49616   1.571   8.727   8.924  0.5229  0.6474 -0.1687
15870SOL    HW149617   1.644   8.788   8.928 -0.5010  1.8571  1.1832
15870SOL    HW249618   1.576   8.677   9.005  0.0083  0.5725 -0.1783
15871SOL     OW49619   3.497   2.179  10.675  0.0473 -0.1733  0.1051
15871SOL    HW149620   3.550   2.100  10.661  0.3658 -0.0294  0.4943
15871SOL    HW249621   3.490   2.188  10.770  2.0799  1.6070  0.1637
15872SOL     OW49622  10.415   2.760  10.105  0.8746  0.0769 -0.5260
15872SOL    HW149623  10.406   2.796  10.194  0.8541 -0.6602 -0.2212
15872SOL    HW249624  10.326   2.760  10.070  0.9993  1.1759 -0.8812
15873SOL     OW49625   6.793   6.995   3.574  0.3915 -0.4691  0.6534
15873SOL    HW149626   6.841   6.916   3.548  3.1792  0.5187  2.3329
15873SOL    HW249627   6.783   6.987   3.668  0.2103  0.8952  0.7724
15874SOL     OW49628   7.437  10.749   1.909 -0.3616  0.0560  0.7066
15874SOL    HW149629   7.509  10.782   1.963  1.2016 -0.2090 -1.1189
15874SOL    HW249630   7.447  10.654   1.913  1.8745 -0.0037 -2.5385
15875SOL     OW49631   5.597   5.196   4.841 -1.0558  0.2733 -0.0533
15875SOL    HW149632   5.624   5.115   4.885  0.9560  0.4040 -0.9437
15875SOL    HW249633   5.506   5.209   4.869 -0.7668 -1.1570  1.7627
15876SOL     OW49634   6.885   1.797   0.506  0.6297 -0.0369 -0.0719
15876SOL    HW149635   6.817   1.753   0.454  1.4708  0.1340 -1.3564
15876SOL    HW249636   6.911   1.872   0.453 -1.5688  2.8387  2.5546
15877SOL     OW49637  10.065   3.641   7.082 -0.1206  0.0324 -0.3342
15877SOL    HW149638  10.101   3.687   7.158  0.4551 -0.8526 -0.0531
15877SOL    HW249639  10.131   3.654   7.013 -0.1902  0.0484 -0.3977
15878SOL     OW49640   8.239   8.090   8.203  0.6678 -0.6697 -0.1346
15878SOL    HW149641   8.291   8.170   8.210  1.2283 -0.9031 -1.2556
15878SOL    HW249642   8.294   8.023   8.245  0.8708 -0.7312 -0.4851
15879SOL     OW49643   0.003  10.532   5.246  0.6510  0.0968 -0.1074
15879SOL    HW149644   0.035  10.621   5.260  0.7336 -0.1139  1.1408
15879SOL    HW249645  -0.064  10.541   5.178  0.8541  1.0677 -0.1952
15880SOL     OW49646   3.309  10.629   6.393  0.1154  0.0454  0.3796
15880SOL    HW149647   3.259  10.662   6.468 -0.5397  0.1763 -0.1001
15880SOL    HW249648   3.379  10.577   6.432  1.1291  1.9081  1.1519
15881SOL     OW49649   9.299   9.420   3.945  0.4753 -0.0058  0.0018
15881SOL    HW149650   9.376   9.364   3.936 -0.4941 -1.2698 -0.7053
15881SOL    HW249651   9.249   9.406   3.865 -2.1222 -1.8129  1.7685
15882SOL     OW49652   3.716   5.232  10.889  0.1403  0.1392 -0.5923
15882SOL    HW149653   3.649   5.192  10.833  1.6221  0.2848 -2.5704
15882SOL    HW249654   3.687   5.322  10.899 -0.1013  0.1391 -1.2213
15883SOL     OW49655   4.993   8.930   1.115 -0.0673 -0.9493  0.0527
15883SOL    HW149656   4.984   8.894   1.203 -1.5963  1.2118  0.8788
15883SOL    HW249657   4.950   8.867   1.058 -2.6664 -0.5324  1.4195
15884SOL     OW49658   8.846   3.496   3.307  0.1648 -0.0858 -0.3373
15884SOL    HW149659   8.914   3.562   3.289  0.1915  0.5043  1.6198
15884SOL    HW249660   8.771   3.524   3.255 -0.1994  2.2302  1.2490
15885SOL     OW49661   7.293  10.819   3.648 -0.4065 -1.2385 -0.0851
15885SOL    HW149662   7.273  10.834   3.555 -0.7728 -2.5561 -0.2362
15885SOL    HW249663   7.347  10.740   3.648  0.0508 -0.9349  0.7892
15886SOL     OW49664   6.940   3.729  10.644 -0.2586  1.8311  0.4770
15886SOL    HW149665   6.910   3.723  10.554 -2.1427  1.2552  1.0837
15886SOL    HW249666   7.009   3.794  10.643  0.1729  1.3873 -1.4669
15887SOL     OW49667   2.678  10.764   0.299 -0.7358  0.4699 -0.1311
15887SOL    HW149668   2.604  10.754   0.359 -0.6932  2.2335  0.2624
15887SOL    HW249669   2.716  10.676   0.293 -1.1610  0.0928  1.8848
15888SOL     OW49670   2.535   6.385   8.137 -0.4494 -0.7418  0.7913
15888SOL    HW149671   2.477   6.373   8.063 -0.3245 -0.3283  0.6204
15888SOL    HW249672   2.580   6.301   8.147  1.8214  0.0688 -1.5697
15889SOL     OW49673   3.091   7.890   6.383 -0.3627 -0.3034  0.2021
15889SOL    HW149674   3.024   7.931   6.438  1.1821 -1.1428  2.9384
15889SOL    HW249675   3.110   7.954   6.315 -0.9539  1.7284  1.8590
15890SOL     OW49676   5.828   2.275   2.636 -0.1263 -0.1293 -0.3912
15890SOL    HW149677   5.885   2.203   2.610 -1.1498 -0.4524 -1.8445
15890SOL    HW249678   5.887   2.351   2.645  0.7677 -0.8441 -0.0863
15891SOL     OW49679   5.794   1.936   6.937 -0.0568  0.1971  0.0940
15891SOL    HW149680   5.725   1.889   6.890  0.5522  0.1487 -0.7917
15891SOL    HW249681   5.823   1.875   7.004 -1.1235  0.3653  0.7342
15892SOL     OW49682   9.972   6.122   5.237  0.0076  0.5464 -0.1253
15892SOL    HW149683   9.993   6.183   5.166  1.6264 -0.1381 -0.2847
15892SOL    HW249684   9.888   6.084   5.211  0.6217  0.2116 -1.7734
15893SOL     OW49685   0.323   7.894   6.493  0.1493 -0.4276 -0.6402
15893SOL    HW149686   0.290   7.848   6.571  1.4700 -1.7158 -0.8017
15893SOL    HW249687   0.276   7.977   6.494 -0.1232 -0.5350  1.3615
15894SOL     OW49688   4.737   2.070   6.093 -0.0575 -0.1151 -0.0440
15894SOL    HW149689   4.670   2.137   6.099 -0.1741 -0.2175 -0.1849
15894SOL    HW249690   4.820   2.117   6.100 -0.0771  0.2669 -1.9820
15895SOL     OW49691   5.047   2.027   4.983 -0.0277 -0.4145 -0.0224
15895SOL    HW149692   5.041   2.039   4.888  1.4704  0.5333 -0.0398
15895SOL    HW249693   4.957   2.030   5.013 -0.7481 -2.9702 -1.6195
15896SOL     OW49694   2.748   9.494   3.653 -0.1904 -0.3850  0.6225
15896SOL    HW149695   2.678   9.435   3.682  0.6479 -1.1628  1.1335
15896SOL    HW249696   2.726   9.515   3.562 -1.2428 -0.3768  0.8753
15897SOL     OW49697   5.593   2.917   1.559  0.7501 -0.3885  0.3134
15897SOL    HW149698   5.572   2.952   1.472  1.1682 -1.7070 -0.3518
15897SOL    HW249699   5.664   2.855   1.543  2.1748  0.7662  1.9019
15898SOL     OW49700   7.304   1.480   2.037  0.7915 -0.6114 -0.0839
15898SOL    HW149701   7.215   1.465   2.068  0.2658  0.6116 -0.9180
15898SOL    HW249702   7.325   1.403   1.985 -0.5339 -0.1021 -1.4585
15899SOL     OW49703   7.696   9.433   8.009 -0.1198 -0.1566 -0.0974
15899SOL    HW149704   7.664   9.345   8.028 -0.2231 -0.2581 -0.7293
15899SOL    HW249705   7.619   9.481   7.979 -0.1502  0.2746  0.6324
15900SOL     OW49706   3.739   2.345   3.311 -0.3048  0.2642 -0.3134
15900SOL    HW149707   3.670   2.288   3.275  0.6011 -0.0550 -1.6109
15900SOL    HW249708   3.713   2.433   3.285 -2.2570  0.6836  2.5705
15901SOL     OW49709   0.272   2.856   5.540  0.4418 -0.0116 -0.1837
15901SOL    HW149710   0.364   2.856   5.566  0.1526 -0.9698  0.9239
15901SOL    HW249711   0.257   2.943   5.503  1.2666  0.9017  1.5263
15902SOL     OW49712   5.776   8.990   7.820 -0.3388 -0.3619 -0.2618
15902SOL    HW149713   5.823   9.069   7.792  0.0492  0.3731  2.2094
15902SOL    HW249714   5.695   9.022   7.859  0.4485 -0.9532  2.0772
15903SOL     OW49715   0.760   4.870   0.167  0.2216  0.1150 -0.3131
15903SOL    HW149716   0.826   4.884   0.235  0.1239  1.3576 -0.4609
15903SOL    HW249717   0.802   4.809   0.105  1.0186  0.4550 -0.1128
15904SOL     OW49718   1.103   5.121   3.686  0.8201  0.7189  0.6504
15904SOL    HW149719   1.094   5.209   3.649  0.8461  0.3240 -0.3139
15904SOL    HW249720   1.091   5.134   3.780  0.2742  1.6762  0.4648
15905SOL     OW49721  11.049   2.332  11.099  0.1253 -0.3980 -0.2292
15905SOL    HW149722  11.063   2.419  11.061 -0.0750 -0.0960  0.3819
15905SOL    HW249723  11.138   2.300  11.118  0.1550  0.4055  1.1561
15906SOL     OW49724   2.526   4.926   9.233 -0.6055  0.3456 -0.0864
15906SOL    HW149725   2.569   4.918   9.147  0.1391 -0.4593  0.3442
15906SOL    HW249726   2.433   4.912   9.214 -0.9301  3.3334 -1.2244
15907SOL     OW49727   9.175   9.951   2.201  0.0525 -0.1124 -0.1416
15907SOL    HW149728   9.129   9.947   2.117  0.1700 -1.2102 -0.1597
15907SOL    HW249729   9.106   9.968   2.265 -0.4509 -2.0243 -0.1310
15908SOL     OW49730   7.031   1.750   2.044  0.3002 -0.4614  0.1312
15908SOL    HW149731   6.995   1.664   2.066  0.0873 -0.2015  0.8208
15908SOL    HW249732   7.111   1.757   2.097  0.5621 -0.4134 -0.2622
15909SOL     OW49733   8.168   7.027   7.948  0.1444  0.6710  0.9179
15909SOL    HW149734   8.260   7.032   7.974  0.5660  0.1159 -0.3868
15909SOL    HW249735   8.162   6.946   7.897 -0.7640  1.3784 -0.1359
15910SOL     OW49736   1.868   0.091   6.949 -0.4287  0.4423  0.2111
15910SOL    HW149737   1.822   0.081   7.032 -0.3402 -0.9380  0.1144
15910SOL    HW249738   1.939   0.153   6.968  0.1169 -0.5075  1.4021
15911SOL     OW49739  10.241   2.031   4.866 -0.1139 -0.3831  0.1597
15911SOL    HW149740  10.166   2.090   4.878 -0.4099 -0.8275  0.5227
15911SOL    HW249741  10.317   2.084   4.890 -0.1092  0.6425 -1.9028
15912SOL     OW49742   6.250   4.178   7.683  0.2097 -0.0760  0.8042
15912SOL    HW149743   6.326   4.136   7.644 -1.4128 -4.1880  1.5182
15912SOL    HW249744   6.263   4.168   7.777 -1.3460 -1.3239  0.9302
15913SOL     OW49745   4.338   4.713   2.998  0.0845 -0.2040  0.6352
15913SOL    HW149746   4.261   4.765   2.976  1.4696  2.7545  2.1829
15913SOL    HW249747   4.310   4.658   3.071 -1.0260 -0.5207 -0.0137
15914SOL     OW49748   5.809   4.425   9.292  0.0060 -0.5718 -0.3710
15914SOL    HW149749   5.719   4.438   9.264 -0.3645 -2.7746 -0.3656
15914SOL    HW249750   5.804   4.418   9.388 -0.0379 -1.9073 -0.4476
15915SOL     OW49751  10.484   5.197   1.208 -0.3091  0.1679 -0.2646
15915SOL    HW149752  10.439   5.244   1.279  1.3613  2.5829 -0.6898
15915SOL    HW249753  10.449   5.108   1.213 -1.9078  0.8215  2.1358
15916SOL     OW49754   1.460   6.058   1.843 -0.5050  0.6818 -0.5198
15916SOL    HW149755   1.451   6.086   1.934 -1.2509 -0.9161 -0.0639
15916SOL    HW249756   1.467   6.139   1.793  0.2193  1.5776  0.9887
15917SOL     OW49757   5.084   4.363   7.174  1.3625 -0.2273 -0.3597
15917SOL    HW149758   5.005   4.416   7.161 -0.1651 -2.3470 -0.1374
15917SOL    HW249759   5.094   4.358   7.269  1.4592 -0.4063 -0.3796
15918SOL     OW49760   6.679  11.057   5.083  0.3373  0.3480 -0.0166
15918SOL    HW149761   6.704  11.026   4.996  1.2895 -0.7367  0.6170
15918SOL    HW249762   6.601  11.110   5.068  0.5596  0.2859 -1.5409
15919SOL     OW49763   1.233   8.189   9.647 -0.6461  0.6287 -0.1659
15919SOL    HW149764   1.247   8.142   9.565 -1.8228 -2.2164  1.1579
15919SOL    HW249765   1.142   8.220   9.641 -0.8394  0.1325  0.1947
15920SOL     OW49766   7.359   0.651   5.216 -0.4799  0.4419  0.2099
15920SOL    HW149767   7.385   0.729   5.264  0.3511  0.8640 -0.8877
15920SOL    HW249768   7.441   0.602   5.204 -0.8261 -0.1038  0.0260
15921SOL     OW49769   9.481   6.544  10.099  0.2598 -0.1740 -0.0367
15921SOL    HW149770   9.572   6.544  10.072  0.3038  1.3284  0.0134
15921SOL    HW249771   9.484   6.525  10.193  0.6524  1.1633  0.2446
15922SOL     OW49772   5.784   4.673   5.217  0.0931  0.1303 -0.2973
15922SOL    HW149773   5.839   4.737   5.262  1.2702 -0.0156 -1.4955
15922SOL    HW249774   5.710   4.724   5.184 -0.3743  0.3814  1.0431
15923SOL     OW49775   8.187   8.635   1.250 -0.4451 -0.0666  0.2056
15923SOL    HW149776   8.205   8.642   1.343  1.3727  0.3313 -0.1509
15923SOL    HW249777   8.197   8.541   1.231 -2.4715 -0.4420  0.6718
15924SOL     OW49778   5.334   2.739   6.768 -0.0012  0.0612  0.0384
15924SOL    HW149779   5.341   2.669   6.832  1.4628  0.3420  0.2351
15924SOL    HW249780   5.262   2.794   6.799  0.2742 -0.1558  1.0960
15925SOL     OW49781   1.034   3.793   5.374 -0.5565 -0.6654  0.4628
15925SOL    HW149782   0.969   3.841   5.425  0.5960  2.4704 -0.7229
15925SOL    HW249783   0.999   3.793   5.285  0.9047  1.0722 -0.1914
15926SOL     OW49784   6.944   9.146   2.829 -0.8653  0.1257 -0.5526
15926SOL    HW149785   6.871   9.205   2.814 -1.6394 -0.3107  1.2771
15926SOL    HW249786   6.946   9.133   2.924 -0.1366 -2.0338 -0.8096
15927SOL     OW49787   8.346   8.404   5.571  0.3050 -0.5838  0.4155
15927SOL    HW149788   8.410   8.475   5.559  0.9093 -1.0487  0.8452
15927SOL    HW249789   8.307   8.422   5.657 -1.8976  1.0616 -0.8179
15928SOL     OW49790   3.943   0.461   4.397  0.1004 -0.2044  0.0430
15928SOL    HW149791   3.994   0.481   4.318  0.2039  0.2721  0.2261
15928SOL    HW249792   3.984   0.514   4.465  0.8516 -1.5934  0.7188
15929SOL     OW49793   5.861  10.259   9.462  0.7658 -0.1080  0.4013
15929SOL    HW149794   5.880  10.225   9.549 -1.6654 -1.4069  0.5264
15929SOL    HW249795   5.842  10.181   9.409 -1.5529  0.7736 -0.2216
15930SOL     OW49796   7.369   9.181   6.439 -0.4866  0.2688 -0.1105
15930SOL    HW149797   7.339   9.108   6.492 -3.0911  0.5222 -1.0886
15930SOL    HW249798   7.459   9.158   6.414 -1.0526 -2.3510  0.0070
15931SOL     OW49799   4.771  10.254   0.951 -0.0493  0.4322 -0.2532
15931SOL    HW149800   4.706  10.204   0.901  1.0006 -0.2956 -0.9301
15931SOL    HW249801   4.790  10.199   1.027 -0.8079  1.0225  0.3820
15932SOL     OW49802   9.956   9.209   7.074 -0.5036 -0.8895  0.6050
15932SOL    HW149803   9.881   9.156   7.045 -0.8966  0.6647 -1.5177
15932SOL    HW249804   9.920   9.298   7.081  0.6079 -0.5206  2.0312
15933SOL     OW49805   6.119   4.727   9.808 -0.9771  0.2991 -0.2462
15933SOL    HW149806   6.157   4.772   9.883 -1.0895  0.2368 -0.1522
15933SOL    HW249807   6.195   4.705   9.753 -1.0350  2.0507 -1.1049
15934SOL     OW49808  11.087   6.536   6.460 -0.2154 -0.3265  0.1528
15934SOL    HW149809  11.130   6.611   6.501  1.7313 -0.7393 -1.0102
15934SOL    HW249810  11.029   6.574   6.393  0.8359  0.1688 -0.4962
15935SOL     OW49811   7.513   2.887   4.686  0.5355  0.1341 -0.0965
15935SOL    HW149812   7.508   2.792   4.685 -0.1020  0.1651 -0.2140
15935SOL    HW249813   7.460   2.914   4.760  1.5953  0.3600  0.6036
15936SOL     OW49814   9.440   8.616   9.489 -0.4081  0.8060  0.1233
15936SOL    HW149815   9.350   8.623   9.457 -0.8776 -2.3044  0.4191
15936SOL    HW249816   9.437   8.654   9.576 -2.2813 -1.8101  1.3497
15937SOL     OW49817   4.596   3.367  11.194 -0.1940  0.1921  0.0488
15937SOL    HW149818   4.669   3.376  11.132 -0.8604  0.1710 -0.7633
15937SOL    HW249819   4.540   3.300  11.156 -0.1824 -0.4585  1.1403
15938SOL     OW49820   6.084   2.318   9.545  0.6068  0.0987  0.1274
15938SOL    HW149821   6.034   2.377   9.489 -0.7891 -1.0234  0.1528
15938SOL    HW249822   6.033   2.237   9.548  1.3886 -0.3885  1.8047
15939SOL     OW49823   0.861   3.425   9.135  0.5906  0.2493  0.1985
15939SOL    HW149824   0.784   3.368   9.139  0.7317  0.1249  2.0043
15939SOL    HW249825   0.827   3.510   9.107 -0.1726  0.1257  0.7051
15940SOL     OW49826   5.916   4.956   3.405 -0.1325  0.1297  0.2134
15940SOL    HW149827   5.943   4.907   3.483  0.2893 -1.2128 -0.7213
15940SOL    HW249828   5.951   5.044   3.418 -0.2488 -0.0038  1.6156
15941SOL     OW49829  10.131   5.406   8.464  0.1081  0.3681 -0.1234
15941SOL    HW149830  10.050   5.401   8.415  0.2621 -2.5287 -0.2846
15941SOL    HW249831  10.103   5.418   8.555 -0.4049  1.0932 -0.3712
15942SOL     OW49832   4.756   3.691   6.419  0.6658  0.1798  0.4631
15942SOL    HW149833   4.762   3.759   6.486  0.6955  0.9260 -0.2705
15942SOL    HW249834   4.664   3.692   6.392  0.8227  0.4520 -0.0738
15943SOL     OW49835   3.676   2.349   0.904  0.9833  0.0670  0.2493
15943SOL    HW149836   3.691   2.257   0.884 -1.2323 -0.4018  0.4813
15943SOL    HW249837   3.653   2.389   0.820 -2.0600 -0.5411  0.6724
15944SOL     OW49838  10.230   5.658  10.544  0.1401  0.2677 -0.2607
15944SOL    HW149839  10.293   5.688  10.609 -0.5009 -1.5296  1.2848
15944SOL    HW249840  10.145   5.685  10.578 -0.1062  0.5817 -1.0976
15945SOL     OW49841   4.140  10.262   6.188  0.6248 -0.1114  0.2451
15945SOL    HW149842   4.137  10.203   6.262  0.2574 -1.4683 -0.8205
15945SOL    HW249843   4.171  10.345   6.225 -1.1221 -0.2485  2.2031
15946SOL     OW49844   3.438   8.881   7.424 -0.1876 -0.4083 -0.2273
15946SOL    HW149845   3.394   8.868   7.508  1.8409  0.8073  1.0769
15946SOL    HW249846   3.475   8.795   7.403  0.8293 -0.2977  1.0457
15947SOL     OW49847   9.333   2.452   0.381  0.0912 -0.1315  0.6888
15947SOL    HW149848   9.383   2.469   0.461 -0.2800 -0.4776  1.0007
15947SOL    HW249849   9.333   2.356   0.373 -1.5171 -0.2238  1.3561
15948SOL     OW49850   5.222   3.752   8.717  0.0313 -0.7946 -0.0266
15948SOL    HW149851   5.146   3.779   8.664 -1.2189 -0.5010  1.8009
15948SOL    HW249852   5.184   3.731   8.803  2.0580 -0.5324  0.9735
15949SOL     OW49853   0.714   6.808   4.148  0.5190  0.3210 -0.2045
15949SOL    HW149854   0.619   6.821   4.153  0.6091  0.9961 -0.1890
15949SOL    HW249855   0.743   6.806   4.239  0.6090  0.8235 -0.2189
15950SOL     OW49856   9.059   6.999   5.587 -0.2169 -0.0388 -0.0827
15950SOL    HW149857   8.997   6.929   5.607 -2.1216  1.3518 -0.8139
15950SOL    HW249858   9.122   6.958   5.527 -1.3249 -1.1307 -0.5541
15951SOL     OW49859   6.959   8.873   2.479  0.4824  0.5438  0.1819
15951SOL    HW149860   7.000   8.887   2.564  0.5186  2.1605 -0.0754
15951SOL    HW249861   7.027   8.895   2.416  0.2595 -0.0483 -0.2781
15952SOL     OW49862   6.243   3.323   6.214  0.0762  0.6570 -0.0638
15952SOL    HW149863   6.317   3.383   6.218 -0.2632  1.0332  0.8308
15952SOL    HW249864   6.255   3.264   6.288 -2.2386  2.8328  2.3070
15953SOL     OW49865   9.839   8.707   0.905 -0.7833 -0.2680 -0.2997
15953SOL    HW149866   9.802   8.747   0.826 -0.4871 -1.1490 -0.8917
15953SOL    HW249867   9.803   8.759   0.976 -1.6451  0.0816 -0.9698
15954SOL     OW49868   3.717  10.370   2.021 -0.3128 -0.2115 -0.1314
15954SOL    HW149869   3.784  10.391   2.085  0.6540 -1.1387 -0.7940
15954SOL    HW249870   3.753  10.295   1.973 -1.1035  0.2895 -1.5768
15955SOL     OW49871   7.344   6.409   1.091 -0.8416 -0.4701  0.2535
15955SOL    HW149872   7.326   6.353   1.015 -0.2925  1.0676 -1.0812
15955SOL    HW249873   7.378   6.490   1.053  0.1336  0.0939  2.2070
15956SOL     OW49874   9.733   2.606   0.213  0.4310  0.6322 -0.6630
15956SOL    HW149875   9.725   2.575   0.304  0.3624  0.7133 -0.6404
15956SOL    HW249876   9.691   2.538   0.161 -0.4237  1.0537 -0.5439
15957SOL     OW49877   4.626   4.808   0.434  0.0167  0.1142  0.2186
15957SOL    HW149878   4.720   4.793   0.431  0.2494  1.2895  0.9724
15957SOL    HW249879   4.610   4.873   0.365 -0.5699 -1.5361 -1.2592
15958SOL     OW49880   1.535   3.347   2.758 -0.2587 -0.0768  0.7416
15958SOL    HW149881   1.573   3.373   2.674  0.9625 -1.0255  0.9749
15958SOL    HW249882   1.478   3.421   2.782  0.2171  0.6873 -0.3842
15959SOL     OW49883   5.709   3.977   9.347  0.0565 -0.0292  0.3906
15959SOL    HW149884   5.704   3.924   9.426  1.3096 -0.0150  0.5017
15959SOL    HW249885   5.619   3.984   9.317 -0.5869  0.8205  2.3734
15960SOL     OW49886  10.288   9.362   2.818 -0.3286 -0.0356  0.1055
15960SOL    HW149887  10.263   9.284   2.769 -1.2629  0.2549  0.1082
15960SOL    HW249888  10.309   9.330   2.905 -0.6155 -0.2941  0.0795
15961SOL     OW49889   0.119   4.228   1.043 -0.1920  0.6564  0.6497
15961SOL    HW149890   0.156   4.202   1.127  0.9588 -2.0241 -0.5477
15961SOL    HW249891   0.052   4.162   1.024 -0.3634  1.1362 -0.5665
15962SOL     OW49892   6.170   8.877   0.893  0.8512 -0.0137 -0.3258
15962SOL    HW149893   6.094   8.881   0.836  0.8786  0.3185 -0.3388
15962SOL    HW249894   6.228   8.946   0.862  2.0589 -1.5182 -1.6071
15963SOL     OW49895   7.518   2.603   5.200  0.5242  0.3952  0.1788
15963SOL    HW149896   7.446   2.663   5.218  1.5494  2.3003 -1.5990
15963SOL    HW249897   7.499   2.568   5.113  1.2398  0.1174  0.1237
15964SOL     OW49898   9.910   9.751   5.528  0.0175 -0.3322 -0.0808
15964SOL    HW149899   9.942   9.668   5.564  1.0195 -0.7564 -1.7920
15964SOL    HW249900   9.829   9.728   5.483  0.4770 -0.4970 -0.8581
15965SOL     OW49901   1.529   0.442   4.643  0.1650  0.2653 -0.1500
15965SOL    HW149902   1.604   0.484   4.602 -0.6199  1.9795  0.0731
15965SOL    HW249903   1.457   0.453   4.581 -0.1634 -0.3978  0.0972
15966SOL     OW49904   0.901   8.161   4.964 -0.6633 -0.4899 -0.5315
15966SOL    HW149905   0.809   8.185   4.949 -1.3448 -1.2859  1.8615
15966SOL    HW249906   0.941   8.242   4.995 -1.3959 -0.7993  1.4097
15967SOL     OW49907   8.216   9.407   9.602  0.6216  0.3013 -0.0773
15967SOL    HW149908   8.279   9.337   9.583 -0.8968 -0.9920 -0.6478
15967SOL    HW249909   8.254   9.454   9.676  1.3916 -1.5943  0.8053
15968SOL     OW49910   7.545   3.768   6.684  0.6259  0.9602 -0.0648
15968SOL    HW149911   7.510   3.815   6.608  0.8696 -0.2435 -0.9657
15968SOL    HW249912   7.481   3.699   6.702  2.4541 -1.4411 -1.9040
15969SOL     OW49913   9.706   3.686  10.065  0.5016  0.3037  0.2372
15969SOL    HW149914   9.623   3.728  10.088 -0.7525 -1.3111 -1.0497
15969SOL    HW249915   9.721   3.623  10.136 -0.7210 -1.1246 -0.7011
15970SOL     OW49916   8.389   4.423   4.291 -0.2772 -0.2956 -0.6370
15970SOL    HW149917   8.336   4.432   4.370  1.3817  0.6219  0.4481
15970SOL    HW249918   8.479   4.426   4.323  0.5357 -3.6440 -2.1516
15971SOL     OW49919   2.274  10.099   8.486  0.0729  0.2217 -0.2471
15971SOL    HW149920   2.324  10.019   8.504  2.7420  1.4525 -1.6787
15971SOL    HW249921   2.285  10.115   8.392 -0.3754  2.2746 -0.0079
15972SOL     OW49922   1.575   8.924   1.816  0.0200  0.3819  0.0179
15972SOL    HW149923   1.509   8.875   1.769 -3.3399  5.8157 -1.8862
15972SOL    HW249924   1.534   8.948   1.899  2.7920 -2.2957  2.4030
15973SOL     OW49925   0.652   3.991   8.944  0.3483 -0.1385  0.2761
15973SOL    HW149926   0.717   4.054   8.914  0.8440 -0.6685  0.2194
15973SOL    HW249927   0.684   3.906   8.914  0.8343 -0.6925  2.1705
15974SOL     OW49928   1.550  10.228  10.208  0.3393  0.2306  0.4984
15974SOL    HW149929   1.602  10.269  10.277 -1.3097  1.4622  1.0796
15974SOL    HW249930   1.507  10.301  10.163 -0.0210 -0.6703 -0.6860
15975SOL     OW49931   9.318   2.037   9.459 -0.5788 -0.4461 -0.5680
15975SOL    HW149932   9.366   2.120   9.455 -1.0909 -0.1699 -1.1262
15975SOL    HW249933   9.255   2.049   9.530 -3.1533  1.0464 -2.9102
15976SOL     OW49934   4.544   6.416   2.753  0.0658 -0.0251 -0.5245
15976SOL    HW149935   4.575   6.501   2.722  0.0805  0.0529 -0.3006
15976SOL    HW249936   4.479   6.437   2.820 -0.5833 -0.1894 -1.0912
15977SOL     OW49937   2.484   4.867   6.231 -0.1425 -0.1275 -0.0467
15977SOL    HW149938   2.469   4.785   6.185 -0.0631 -1.5819  2.3432
15977SOL    HW249939   2.427   4.930   6.188  1.5172 -0.7609 -3.4801
15978SOL     OW49940   6.501   7.443   4.022 -0.0066 -0.0087  0.1083
15978SOL    HW149941   6.420   7.399   4.046 -0.7004  1.0135 -0.2875
15978SOL    HW249942   6.502   7.442   3.927 -0.3411  1.3394  0.0753
15979SOL     OW49943   5.829   8.451   1.556  0.1383 -0.2073  0.7372
15979SOL    HW149944   5.835   8.496   1.640 -0.1420  1.9790 -0.3376
15979SOL    HW249945   5.832   8.521   1.491  1.1353 -1.8683 -1.1322
15980SOL     OW49946  10.011   3.581   5.832 -0.2073 -0.3060 -0.7355
15980SOL    HW149947   9.997   3.555   5.923  0.0157 -1.4596 -1.0137
15980SOL    HW249948   9.923   3.596   5.797 -0.2533  1.8892  0.1142
15981SOL     OW49949   2.256   8.704  11.125  0.7795 -0.4070  0.5908
15981SOL    HW149950   2.235   8.731  11.035  0.7697  0.5280  0.8720
15981SOL    HW249951   2.311   8.626  11.114  0.0941 -0.7980 -0.2132
15982SOL     OW49952   7.621   7.465   2.943  0.5254  0.2314  0.0184
15982SOL    HW149953   7.608   7.442   3.036 -2.4093  1.4556  0.0234
15982SOL    HW249954   7.697   7.413   2.916 -1.8009 -4.6238  1.6228
15983SOL     OW49955   6.161  10.093   9.203 -0.4332 -0.1994 -0.1521
15983SOL    HW149956   6.147  10.183   9.234 -1.9091 -0.6986  0.7414
15983SOL    HW249957   6.252  10.074   9.226 -0.8834  0.1612  2.2038
15984SOL     OW49958   7.785   9.682   6.725  0.0330 -0.2801 -0.1568
15984SOL    HW149959   7.874   9.705   6.751  0.4441 -1.4501 -0.4619
15984SOL    HW249960   7.735   9.683   6.806 -0.2074  2.5043 -0.2547
15985SOL     OW49961   6.910   8.385   9.444 -0.1708  0.0392  0.0322
15985SOL    HW149962   6.821   8.405   9.475 -1.0911 -0.2765 -2.1881
15985SOL    HW249963   6.922   8.441   9.367  1.6409  0.1886  0.3882
15986SOL     OW49964   1.304   9.522   5.561 -0.8118 -0.2330 -0.3561
15986SOL    HW149965   1.282   9.542   5.652 -0.4036 -3.1164  0.4740
15986SOL    HW249966   1.219   9.515   5.517 -1.1136 -0.5345  0.2524
15987SOL     OW49967   6.819   9.074   4.700 -0.0261  0.6874 -0.0617
15987SOL    HW149968   6.751   9.092   4.635  0.0468 -0.7742 -0.5989
15987SOL    HW249969   6.901   9.090   4.653  0.0163  0.5318 -0.0415
15988SOL     OW49970  11.253   0.484   3.032  0.0366 -0.4061  0.0601
15988SOL    HW149971  11.209   0.539   3.096 -1.4561 -0.7752 -0.5956
15988SOL    HW249972  11.312   0.429   3.083 -3.1321 -2.7358  1.6329
15989SOL     OW49973  10.854   5.496  11.015  0.6829 -0.3870  0.0462
15989SOL    HW149974  10.862   5.538  11.101 -0.4754  1.3963 -0.6673
15989SOL    HW249975  10.944   5.477  10.989  1.3176  2.1397  0.2056
15990SOL     OW49976   9.698   9.153   0.304  0.0923 -0.1885 -0.4211
15990SOL    HW149977   9.703   9.190   0.392 -0.3308 -2.4745  0.6360
15990SOL    HW249978   9.710   9.059   0.317 -0.7430 -0.6737 -2.7243
15991SOL     OW49979   0.402   9.025   1.892  0.0035  0.2795  0.4900
15991SOL    HW149980   0.404   9.120   1.880 -0.7524  0.1718 -0.6146
15991SOL    HW249981   0.452   8.990   1.818 -2.1206 -0.2869 -0.7450
15992SOL     OW49982   6.844   8.682   6.751 -0.1749  0.4279 -0.6967
15992SOL    HW149983   6.872   8.629   6.826 -0.8899  1.2771  0.1853
15992SOL    HW249984   6.866   8.628   6.675 -0.7781 -1.0832  0.1626
15993SOL     OW49985   0.033   3.348   6.591 -0.4430  0.2967  0.1383
15993SOL    HW149986   0.036   3.298   6.509  0.6037 -0.5568  0.6738
15993SOL    HW249987   0.079   3.429   6.571  0.9950 -0.4619  0.2058
15994SOL     OW49988   4.898   1.793   4.459  0.2051 -0.5044 -0.5505
15994SOL    HW149989   4.974   1.820   4.407 -1.6965  1.1543 -2.6105
15994SOL    HW249990   4.869   1.712   4.419  0.2666 -0.6112 -0.3838
15995SOL     OW49991   1.385   5.834   1.415  0.2100 -0.0857 -0.0069
15995SOL    HW149992   1.402   5.923   1.447  0.7513 -0.1999  0.0352
15995SOL    HW249993   1.453   5.819   1.349  2.3459 -1.7089  2.3827
15996SOL     OW49994   9.933   1.072   1.233 -0.4670 -0.4173 -0.2540
15996SOL    HW149995   9.906   1.005   1.169 -1.1454 -0.2024 -0.2071
15996SOL    HW249996   9.850   1.102   1.270 -0.4302  2.2495 -2.0764
15997SOL     OW49997   7.563   1.426   9.933  0.1939 -0.2442 -0.6053
15997SOL    HW149998   7.582   1.349   9.879  1.5690 -0.0784 -0.4000
15997SOL    HW249999   7.471   1.444   9.917  0.2102 -1.0665 -1.7732
15998SOL     OW50000  10.831   7.854   1.363  0.5492 -0.0758  0.1546
15998SOL    HW150001  10.897   7.878   1.297 -0.4560 -1.9720 -1.6692
15998SOL    HW250002  10.882   7.838   1.443  2.1546 -0.2292 -0.8488
15999SOL     OW50003   5.299  10.291   0.363 -0.0804  0.0102 -0.0177
15999SOL    HW150004   5.350  10.275   0.443 -0.2118  0.5697  0.1872
15999SOL    HW250005   5.292  10.206   0.321 -1.2034 -0.5940  1.2816
16000SOL     OW50006   5.852   1.121   4.805  0.4536  0.1883  0.0657
16000SOL    HW150007   5.871   1.183   4.734  0.7833 -2.0372 -1.8843
16000SOL    HW250008   5.760   1.099   4.793  0.8092 -1.0796 -0.4367
16001SOL     OW50009   0.374   5.623   5.582  0.3147 -0.0068 -0.1079
16001SOL    HW150010   0.341   5.685   5.517  0.7881 -0.4118 -0.7474
16001SOL    HW250011   0.414   5.678   5.649  1.5712  0.3760 -1.1270
16002SOL     OW50012   1.410   2.135   9.327 -0.6129 -0.1000 -0.2905
16002SOL    HW150013   1.497   2.103   9.304  0.0426  1.1613  0.3073
16002SOL    HW250014   1.361   2.057   9.353  0.1338 -0.9041 -1.2172
16003SOL     OW50015   9.044   2.942   4.372  0.0823  0.3284 -0.4024
16003SOL    HW150016   9.126   2.897   4.352  0.0566 -0.0902  0.3953
16003SOL    HW250017   8.986   2.920   4.299  0.2278 -0.5499 -0.2682
16004SOL     OW50018   3.809   7.023   2.133  0.3206  0.3150 -0.0142
16004SOL    HW150019   3.768   6.967   2.068 -0.4112  1.2995 -0.4211
16004SOL    HW250020   3.768   6.999   2.215 -0.2038  0.4639 -0.2321
16005SOL     OW50021   1.137   6.569   1.260  0.1241  0.2917  0.1306
16005SOL    HW150022   1.070   6.623   1.301 -1.0024 -0.7544 -0.2578
16005SOL    HW250023   1.142   6.491   1.316 -2.1070 -1.5989 -2.0429
16006SOL     OW50024   8.681   5.448   7.236  0.1797 -0.7004  0.5420
16006SOL    HW150025   8.688   5.457   7.141  1.1067 -0.2912  0.6334
16006SOL    HW250026   8.764   5.484   7.269  0.2417 -1.6315  1.4567
16007SOL     OW50027   2.704   4.465   8.501  0.1524  0.3604 -0.6086
16007SOL    HW150028   2.631   4.408   8.477 -1.4296  1.7688  0.6643
16007SOL    HW250029   2.760   4.467   8.423 -0.5312 -1.6644 -1.2094
16008SOL     OW50030   6.167   4.910   3.082 -0.1453 -0.4661 -0.6950
16008SOL    HW150031   6.188   4.845   3.015 -0.5154 -0.9812 -0.3224
16008SOL    HW250032   6.071   4.915   3.081 -0.3537 -2.3286  1.4512
16009SOL     OW50033  10.098   5.593   9.526 -0.1830  0.7494  0.0483
16009SOL    HW150034  10.175   5.649   9.535  0.2010  0.1186  0.8599
16009SOL    HW250035  10.025   5.654   9.515  0.2283  1.4138  0.9074
16010SOL     OW50036  11.139   9.837   0.317  0.2828  0.0892 -0.3889
16010SOL    HW150037  11.100   9.762   0.362 -0.3526  0.5521 -0.1524
16010SOL    HW250038  11.153   9.902   0.387  0.1800  0.4518 -0.7011
16011SOL     OW50039   7.483   5.281   3.722 -0.1460  0.0087 -0.2303
16011SOL    HW150040   7.496   5.186   3.718 -0.1663 -0.1361  2.0434
16011SOL    HW250041   7.388   5.291   3.716 -0.2377 -0.2217  0.6656
16012SOL     OW50042   9.722   0.330   5.924  0.2546  0.5272 -0.1810
16012SOL    HW150043   9.664   0.314   5.999 -0.2250 -0.3597 -0.7222
16012SOL    HW250044   9.690   0.412   5.887 -1.8725 -0.7894 -1.5126
16013SOL     OW50045   0.438   8.406   5.956 -0.0261  0.6404 -0.0213
16013SOL    HW150046   0.356   8.409   6.005 -0.3576 -0.3547 -0.5008
16013SOL    HW250047   0.418   8.446   5.872 -0.3000 -0.4733 -0.5080
16014SOL     OW50048   6.383   8.374   7.365  0.4550  0.5652 -1.1072
16014SOL    HW150049   6.423   8.288   7.357 -1.2880 -0.4307  0.4312
16014SOL    HW250050   6.292   8.358   7.390  0.2974  2.8653  0.1105
16015SOL     OW50051   3.609   7.069   9.450 -0.4225 -0.3920  0.6756
16015SOL    HW150052   3.627   7.033   9.536  0.8236  0.0593  0.6262
16015SOL    HW250053   3.648   7.007   9.389 -0.6820 -0.3544  0.4701
16016SOL     OW50054   5.939   9.666   1.094  0.1173  0.6991 -0.0852
16016SOL    HW150055   5.967   9.660   1.002 -1.2359  1.6066 -0.5802
16016SOL    HW250056   6.017   9.642   1.144  1.5584  2.3644 -1.4096
16017SOL     OW50057   7.753   4.501   7.262  0.2589  0.2835  0.1780
16017SOL    HW150058   7.676   4.496   7.319 -0.5589  1.4506 -0.7615
16017SOL    HW250059   7.716   4.510   7.174  1.4843  0.5924 -0.3192
16018SOL     OW50060   8.148   8.996   2.389  0.0965 -0.1221  0.0474
16018SOL    HW150061   8.141   8.926   2.454  0.3423  0.3097  0.5440
16018SOL    HW250062   8.101   9.070   2.428 -1.5268 -0.4789 -1.1471
16019SOL     OW50063   2.439  11.109   5.300 -0.1684 -0.0738 -0.0954
16019SOL    HW150064   2.418  11.072   5.386  0.9570 -0.0199  0.2238
16019SOL    HW250065   2.390  11.191   5.297 -0.3043 -0.1289  0.4613
16020SOL     OW50066   4.210   6.387  10.502  0.3766  0.1499  0.4970
16020SOL    HW150067   4.264   6.465  10.487  0.4036  0.1242  0.4606
16020SOL    HW250068   4.143   6.415  10.564 -1.3805  1.0360 -1.6477
16021SOL     OW50069   4.741   3.461   2.466 -0.5657  0.5485  0.0309
16021SOL    HW150070   4.815   3.419   2.425  0.3743  2.4825 -0.3674
16021SOL    HW250071   4.665   3.433   2.415 -0.0751 -1.0206  0.1184
16022SOL     OW50072   8.609   5.975  11.207 -0.2111  0.1656  0.0739
16022SOL    HW150073   8.669   6.049  11.197  1.7359 -1.0976  1.5246
16022SOL    HW250074   8.569   5.965  11.121  0.6032  1.9472 -0.5756
16023SOL     OW50075   3.232   2.040   6.831 -0.0442  0.4476  0.0541
16023SOL    HW150076   3.216   2.126   6.870 -2.7938 -0.2651  0.7076
16023SOL    HW250077   3.246   1.982   6.905  0.4190  0.0846 -0.3140
16024SOL     OW50078   2.824   3.405   0.652 -0.1694  0.5188  0.1193
16024SOL    HW150079   2.780   3.460   0.588 -1.0141  0.2478  0.4462
16024SOL    HW250080   2.758   3.339   0.676  0.7474 -0.5215 -0.1228
16025SOL     OW50081   7.025   5.047   5.124  0.7691 -0.1683 -0.0677
16025SOL    HW150082   7.015   4.960   5.085  0.8773  0.1183 -0.7594
16025SOL    HW250083   6.946   5.095   5.097  0.1447 -0.3954  1.2772
16026SOL     OW50084   8.187   5.300   6.613  0.4007 -0.2531 -0.0734
16026SOL    HW150085   8.199   5.272   6.703 -0.5580  0.6736  0.3647
16026SOL    HW250086   8.201   5.221   6.561 -1.7533 -1.4636  1.0621
16027SOL     OW50087   3.107   8.335   9.678 -0.5588 -0.3382  0.0586
16027SOL    HW150088   3.090   8.241   9.678  0.3768 -0.5193  0.1400
16027SOL    HW250089   3.023   8.375   9.656 -0.6693 -1.2445 -1.2434
16028SOL     OW50090   3.223  11.167   9.025 -0.1340  0.6117 -0.2292
16028SOL    HW150091   3.132  11.142   9.045  0.2864  0.4490  1.6762
16028SOL    HW250092   3.276  11.103   9.072  0.9624  1.4239 -0.3382
16029SOL     OW50093   3.327   1.947  10.187  0.1066  0.0912 -0.0527
16029SOL    HW150094   3.236   1.969  10.209  0.3613 -0.4791  1.6972
16029SOL    HW250095   3.380   2.006  10.241  0.7690 -0.5479  0.0087
16030SOL     OW50096   9.591   2.980   5.082  0.5173  0.4333  0.3566
16030SOL    HW150097   9.584   2.886   5.061  1.7841  0.5476 -0.7106
16030SOL    HW250098   9.570   3.024   5.000  0.2048  1.0805  0.7825
16031SOL     OW50099  11.068  10.914   4.323  0.4940  0.3957  0.8071
16031SOL    HW150100  11.083  11.000   4.362  0.9115 -0.7159  3.2629
16031SOL    HW250101  11.142  10.861   4.351 -1.3089 -1.6326  2.1483
16032SOL     OW50102  10.121   2.098   6.790 -0.3756  0.2239  0.7349
16032SOL    HW150103  10.074   2.136   6.864  0.0193  1.6696  0.2824
16032SOL    HW250104  10.066   2.117   6.714  0.8817  1.9264  0.2001
16033SOL     OW50105   1.851   1.809   3.822  0.1903 -0.5737  0.2518
16033SOL    HW150106   1.821   1.728   3.862  0.8157 -0.2735  1.3637
16033SOL    HW250107   1.935   1.787   3.781  0.6612 -0.3583  1.0831
16034SOL     OW50108   8.884   9.676   7.363 -0.5674  0.3175 -0.4174
16034SOL    HW150109   8.958   9.697   7.307 -1.6659  1.5588 -1.4867
16034SOL    HW250110   8.808   9.710   7.315 -1.8873 -1.3765  0.3747
16035SOL     OW50111  10.831  10.718   5.951 -0.8916  0.4743  0.2361
16035SOL    HW150112  10.923  10.700   5.966 -0.8472 -1.6882 -2.0011
16035SOL    HW250113  10.787  10.636   5.974 -2.0970  1.0212 -0.0365
16036SOL     OW50114   1.986   3.820   6.365 -0.0186  0.1199 -0.3449
16036SOL    HW150115   1.963   3.837   6.456 -2.4754  1.7414 -1.1468
16036SOL    HW250116   1.935   3.742   6.341  3.0673 -2.3254  0.4118
16037SOL     OW50117   4.203   1.096   5.264  0.5820 -0.7578  0.2013
16037SOL    HW150118   4.275   1.148   5.229 -1.1568  0.9765 -1.0213
16037SOL    HW250119   4.184   1.032   5.196  2.9350 -3.4441  1.8359
16038SOL     OW50120   5.042   3.922   0.877 -0.0422  0.6166 -0.1583
16038SOL    HW150121   5.137   3.924   0.866  0.1071 -0.6115  0.6655
16038SOL    HW250122   5.028   3.857   0.945 -1.4287  1.4334  0.3783
16039SOL     OW50123   9.882  10.931   2.184  0.3657 -0.3926  0.2321
16039SOL    HW150124   9.974  10.932   2.156  0.5561 -1.2968  0.7835
16039SOL    HW250125   9.847  10.849   2.149  0.5492 -1.4537  2.3573
16040SOL     OW50126   1.796   6.530   8.787 -0.0530  0.4712 -0.0344
16040SOL    HW150127   1.853   6.507   8.860  0.6578 -0.2338 -0.8027
16040SOL    HW250128   1.852   6.526   8.710 -1.3900 -1.4222 -0.9703
16041SOL     OW50129   8.601   2.656   0.977  0.4208  0.0616  0.1860
16041SOL    HW150130   8.659   2.711   1.029 -0.4963 -2.0617  3.8136
16041SOL    HW250131   8.513   2.676   1.009  0.0550 -3.4791  1.9858
16042SOL     OW50132  10.220  11.005   8.235 -0.2656  0.5779 -0.4798
16042SOL    HW150133  10.289  10.979   8.296 -1.1001 -0.0758  0.2010
16042SOL    HW250134  10.139  10.976   8.276 -0.7544 -1.9966 -2.9290
16043SOL     OW50135   2.710   2.833  10.392 -0.4053  0.4050  0.1092
16043SOL    HW150136   2.691   2.926  10.409  3.2976  1.3926 -0.2574
16043SOL    HW250137   2.717   2.795  10.480  2.1077  1.5524  0.5034
16044SOL     OW50138   2.874   5.980   9.951 -0.0608  0.0568  0.1990
16044SOL    HW150139   2.912   6.047   9.895 -1.2973  1.1522  0.6045
16044SOL    HW250140   2.800   6.023   9.993 -1.1744 -1.6981  0.1513
16045SOL     OW50141   3.521   1.436  10.187  0.2857 -0.4190  0.2443
16045SOL    HW150142   3.564   1.397  10.110  1.7603 -0.9702  1.3025
16045SOL    HW250143   3.551   1.527  10.186 -1.0546  0.0401 -0.7512
16046SOL     OW50144   4.676   4.752   4.549  0.3992  0.1086  0.1480
16046SOL    HW150145   4.709   4.707   4.472 -0.2779 -0.4845  0.1911
16046SOL    HW250146   4.626   4.826   4.514 -2.8969 -2.1007 -0.2250
16047SOL     OW50147   6.705   7.070  10.153  0.2863  0.5628 -0.5137
16047SOL    HW150148   6.696   7.039  10.243 -0.5228  1.4709 -0.2670
16047SOL    HW250149   6.693   6.992  10.099  0.5387  0.0538  0.1553
16048SOL     OW50150   7.724   8.520   6.531  0.4737 -0.7182 -0.1807
16048SOL    HW150151   7.775   8.517   6.450  0.1067 -0.5207 -0.4208
16048SOL    HW250152   7.753   8.443   6.581  0.4387 -1.0460 -0.6577
16049SOL     OW50153   2.378   7.148  10.935 -0.4135  0.3718 -0.5231
16049SOL    HW150154   2.370   7.058  10.966 -0.4970 -0.0736 -1.7910
16049SOL    HW250155   2.467   7.153  10.900  0.0299  1.1630  0.6602
16050SOL     OW50156   4.953   6.657   3.696  0.0914  0.3318 -0.0500
16050SOL    HW150157   4.991   6.660   3.608 -3.4184 -0.1469 -1.7409
16050SOL    HW250158   4.923   6.567   3.705 -0.1638  0.5459  1.4193
16051SOL     OW50159   8.664   1.255   3.231  1.1697  0.0197 -0.1517
16051SOL    HW150160   8.707   1.206   3.302 -0.3495 -0.4703  0.4579
16051SOL    HW250161   8.577   1.275   3.265  0.8964  0.9844 -1.3661
16052SOL     OW50162   6.552  10.059   4.676 -0.0636 -0.3531 -0.1081
16052SOL    HW150163   6.549  10.079   4.582  1.6536 -0.2822 -0.1761
16052SOL    HW250164   6.636  10.093   4.705 -0.1423 -1.2605  1.2598
16053SOL     OW50165   8.641   0.653   8.123  0.1625 -0.3451  0.4142
16053SOL    HW150166   8.572   0.656   8.056 -0.6264 -0.4172  1.2078
16053SOL    HW250167   8.711   0.707   8.087  0.6305 -2.0779 -1.4217
16054SOL     OW50168   4.836   4.130  10.801 -0.5228  0.1452 -0.2968
16054SOL    HW150169   4.759   4.118  10.745 -1.6040 -0.0084  1.1723
16054SOL    HW250170   4.826   4.065  10.870  1.2122 -0.2192 -0.3448
16055SOL     OW50171  10.512   7.211   8.115  0.1195 -0.3811 -0.1031
16055SOL    HW150172  10.545   7.124   8.138  0.9738  0.0870  0.5101
16055SOL    HW250173  10.503   7.256   8.199  0.3806  0.3557 -0.4648
16056SOL     OW50174   7.975   3.887  11.229 -0.2997  0.5842 -0.0420
16056SOL    HW150175   7.927   3.847  11.158  0.5905  0.0987 -0.3809
16056SOL    HW250176   8.055   3.919  11.189  1.0987 -1.3600  1.0400
16057SOL     OW50177   9.779   7.800   0.337  0.8503  0.2305 -0.0906
16057SOL    HW150178   9.785   7.860   0.262  0.3836 -0.3783 -0.6253
16057SOL    HW250179   9.828   7.844   0.406 -0.4550  1.7911 -0.1035
16058SOL     OW50180   9.793   2.351   5.167  0.1426  0.4517 -0.4473
16058SOL    HW150181   9.761   2.264   5.191  0.6208  0.2725 -0.4518
16058SOL    HW250182   9.735   2.379   5.097 -0.4523  0.4318  0.0236
16059SOL     OW50183   5.521   9.791   1.319  0.0956  0.1672 -0.2549
16059SOL    HW150184   5.460   9.824   1.385  0.4815 -0.1460  0.2643
16059SOL    HW250185   5.464   9.754   1.251 -0.2996 -0.4227  0.3790
16060SOL     OW50186   6.391   9.899   9.355 -0.2440 -0.1856  0.2610
16060SOL    HW150187   6.395   9.804   9.366  0.2767 -0.1919  0.0675
16060SOL    HW250188   6.480   9.923   9.331 -0.4207  0.3288  0.1159
16061SOL     OW50189   2.207  10.376   0.925 -0.1453  0.1700  0.2034
16061SOL    HW150190   2.225  10.292   0.882 -1.2835 -0.1802  0.3763
16061SOL    HW250191   2.227  10.441   0.858  1.0690 -0.2000  0.1720
16062SOL     OW50192   6.144   4.256   4.607  0.2065  0.3261 -0.5804
16062SOL    HW150193   6.188   4.266   4.523 -0.6152  0.3317 -1.0259
16062SOL    HW250194   6.190   4.185   4.650 -0.1583 -0.5422 -1.5766
16063SOL     OW50195   9.486   1.449   8.299  0.5927  0.0133  0.3951
16063SOL    HW150196   9.486   1.482   8.209 -1.3816  3.8783  1.5751
16063SOL    HW250197   9.550   1.504   8.345 -0.2726 -0.0962  1.8033
16064SOL     OW50198   4.732   2.834   5.272 -0.0527 -0.0489 -0.3641
16064SOL    HW150199   4.640   2.815   5.291 -0.0095  1.3940  1.5187
16064SOL    HW250200   4.781   2.776   5.331  0.2420  0.0131 -0.5445
16065SOL     OW50201   8.768   6.159   3.764  0.0933  0.0094 -0.3049
16065SOL    HW150202   8.838   6.129   3.821  0.0431 -0.2519 -0.3806
16065SOL    HW250203   8.748   6.084   3.708  1.1579  0.6914 -1.6703
16066SOL     OW50204   3.108   5.058   4.198 -0.7097 -0.6943  0.3864
16066SOL    HW150205   3.095   4.969   4.231  0.0936 -1.4641 -1.2363
16066SOL    HW250206   3.200   5.077   4.216 -0.8947 -0.1427  0.7910
16067SOL     OW50207   5.485   8.137  11.103  0.8525  0.6494  0.0962
16067SOL    HW150208   5.533   8.188  11.168  2.6050 -0.7091 -0.0605
16067SOL    HW250209   5.411   8.100  11.152  1.1243  1.1165  0.8817
16068SOL     OW50210   7.484   7.779   8.133  0.0025 -0.6094 -0.4649
16068SOL    HW150211   7.447   7.691   8.139  1.0409 -1.0765 -0.7356
16068SOL    HW250212   7.504   7.790   8.040  2.3351 -1.1473 -0.0816
16069SOL     OW50213   9.225   9.207   4.589  0.2761 -0.0545 -0.3740
16069SOL    HW150214   9.172   9.128   4.579  0.5533 -0.1142 -1.5704
16069SOL    HW250215   9.269   9.196   4.673 -1.0323 -0.3381  0.2980
16070SOL     OW50216   1.107   3.559   5.586 -0.0475 -0.5245 -0.5875
16070SOL    HW150217   1.058   3.502   5.526  1.2369 -2.1337 -0.1870
16070SOL    HW250218   1.187   3.580   5.539  0.0803 -0.1332 -0.2003
16071SOL     OW50219   6.462   7.732   3.717  0.5217 -0.8496 -0.9741
16071SOL    HW150220   6.419   7.717   3.801  0.0947 -0.2128 -1.0678
16071SOL    HW250221   6.419   7.670   3.657  1.4641 -1.9505 -0.5378
16072SOL     OW50222  10.078  10.520   3.672 -0.5772  0.3312 -0.2881
16072SOL    HW150223  10.002  10.565   3.708 -0.0079 -0.8331  2.6262
16072SOL    HW250224  10.129  10.590   3.630 -0.6522  2.1500  2.4074
16073SOL     OW50225   8.978   2.629   3.588 -0.7723  0.4275  0.0074
16073SOL    HW150226   8.976   2.622   3.492 -0.5860  0.3536  0.0100
16073SOL    HW250227   8.888   2.611   3.614 -0.6445 -0.4182 -0.0936
16074SOL     OW50228   3.865   9.265   3.326  0.4282 -0.0053  0.1028
16074SOL    HW150229   3.866   9.189   3.385  0.9635 -1.6767 -1.9321
16074SOL    HW250230   3.948   9.260   3.280 -0.2438  0.8572 -1.2598
16075SOL     OW50231   3.312   6.601   0.120 -0.5066 -0.4553 -0.0475
16075SOL    HW150232   3.382   6.655   0.084 -1.3684 -1.4765 -3.6489
16075SOL    HW250233   3.258   6.663   0.169  1.6282  0.7530  0.9587
16076SOL     OW50234   9.971   7.521   3.319 -0.8888 -0.4016  0.3791
16076SOL    HW150235  10.056   7.476   3.326 -0.1026  1.0148  0.3969
16076SOL    HW250236   9.906   7.451   3.329  0.1989 -2.1304 -3.0045
16077SOL     OW50237   5.483   7.867   9.956  0.4524  0.6246 -0.0333
16077SOL    HW150238   5.533   7.842  10.034  0.0044 -0.6466 -0.1325
16077SOL    HW250239   5.406   7.912   9.991  0.1012 -0.2054  0.2882
16078SOL     OW50240   5.253   6.571   2.521 -0.2887  0.1665 -0.1980
16078SOL    HW150241   5.190   6.632   2.559 -0.1288 -0.3671  0.9568
16078SOL    HW250242   5.260   6.500   2.585  2.2344  0.6817  0.2090
16079SOL     OW50243   3.198  11.179   2.648 -0.2759 -0.2840  0.2560
16079SOL    HW150244   3.130  11.175   2.715  1.4045 -0.0293  2.0780
16079SOL    HW250245   3.166  11.244   2.586 -1.1373  0.7960  1.7471
16080SOL     OW50246   4.849   4.478   2.394  0.3725  0.1566  0.5445
16080SOL    HW150247   4.870   4.530   2.316  0.8115  0.5137  0.8935
16080SOL    HW250248   4.923   4.417   2.402 -0.3920 -0.8964 -0.1627
16081SOL     OW50249   0.574   0.094   9.738  0.0292 -0.4726  0.0776
16081SOL    HW150250   0.530   0.074   9.820  2.6417 -2.2091  1.1817
16081SOL    HW250251   0.655   0.138   9.764  1.1407 -1.4799 -1.5200
16082SOL     OW50252   5.390   8.528   1.676 -0.2229 -0.1848 -0.0816
16082SOL    HW150253   5.392   8.590   1.603  1.7729  0.0531  0.1117
16082SOL    HW250254   5.478   8.532   1.714 -0.6377 -1.6807  1.1837
16083SOL     OW50255   8.679   8.739   4.750 -0.0315  0.2396  0.8615
16083SOL    HW150256   8.629   8.785   4.818 -1.4522 -0.2963  0.2239
16083SOL    HW250257   8.655   8.784   4.669  1.6471  0.8712  0.6914
16084SOL     OW50258   6.703  10.793   9.243 -0.0547  0.0566 -0.0634
16084SOL    HW150259   6.668  10.726   9.302 -1.2758  0.5304 -0.2074
16084SOL    HW250260   6.627  10.847   9.222  0.8599  1.3615 -0.1190
16085SOL     OW50261   0.790  10.476   8.317  0.1985 -0.4339 -0.2235
16085SOL    HW150262   0.805  10.521   8.400  2.5619 -1.0522 -0.2364
16085SOL    HW250263   0.878  10.460   8.283 -0.6821 -1.6955 -2.0354
16086SOL     OW50264   3.903   7.476   2.836  0.5017 -0.3050  0.0702
16086SOL    HW150265   3.984   7.448   2.794  1.0665  2.0061 -0.5066
16086SOL    HW250266   3.913   7.571   2.847 -2.9720  0.4682 -1.9966
16087SOL     OW50267  10.702   8.546   6.152  0.2928  0.1608  0.4542
16087SOL    HW150268  10.684   8.623   6.098  0.0696 -0.3961 -0.2851
16087SOL    HW250269  10.643   8.479   6.119  0.1843 -0.2139  1.3716
16088SOL     OW50270   7.124   1.952   5.455  0.3114  0.3768 -0.3175
16088SOL    HW150271   7.127   1.979   5.546 -1.7969 -2.0406  0.5836
16088SOL    HW250272   7.213   1.922   5.435  0.3694 -0.9468  1.6317
16089SOL     OW50273   4.313   1.814   7.023 -0.3024 -0.1404  0.2128
16089SOL    HW150274   4.355   1.737   6.985 -0.4490  0.3951 -1.0968
16089SOL    HW250275   4.377   1.849   7.085  0.5405 -0.2297 -0.6020
16090SOL     OW50276   5.060   9.664   0.751  0.5364  0.4974 -0.3050
16090SOL    HW150277   5.063   9.750   0.793  0.4709  0.3962 -0.0907
16090SOL    HW250278   4.975   9.628   0.777  0.4754  0.4529 -0.5638
16091SOL     OW50279   3.308   9.369   3.158  0.0497 -0.0582  0.0229
16091SOL    HW150280   3.272   9.380   3.070  2.4655 -2.0330 -1.3303
16091SOL    HW250281   3.288   9.279   3.181 -0.6791  0.4737  1.6249
16092SOL     OW50282   2.041   5.930   5.583  0.3589  0.6552 -0.3695
16092SOL    HW150283   1.984   5.980   5.525  1.0233  2.2197  0.2376
16092SOL    HW250284   2.028   5.839   5.559 -1.9897  1.0018 -0.5910
16093SOL     OW50285   5.442  10.854  10.110 -0.2844 -0.1480 -0.0987
16093SOL    HW150286   5.510  10.790  10.130 -2.1473 -2.0865  0.4234
16093SOL    HW250287   5.469  10.893  10.027  0.7800 -1.8625 -0.6056
16094SOL     OW50288   6.843   9.589   3.443  0.9526 -0.3732 -0.6464
16094SOL    HW150289   6.839   9.544   3.359  0.5539 -0.1461 -0.7534
16094SOL    HW250290   6.936   9.599   3.461  1.0353  0.0515 -1.3175
16095SOL     OW50291   2.430   5.117  11.065  0.5674  0.2162 -0.5211
16095SOL    HW150292   2.410   5.094  10.974  0.8899  0.5861 -0.6870
16095SOL    HW250293   2.488   5.193  11.059  1.5765 -0.5000 -0.0286
16096SOL     OW50294  10.903   9.915   5.672 -0.3917 -0.8875 -0.6240
16096SOL    HW150295  10.919   9.960   5.589  0.3208 -1.0735 -0.5956
16096SOL    HW250296  10.943   9.971   5.738 -0.6785 -0.8987 -0.4398
16097SOL     OW50297  10.375   4.595   5.424  0.0572  0.4332  0.4510
16097SOL    HW150298  10.298   4.614   5.478  0.4971 -0.2847  1.3509
16097SOL    HW250299  10.437   4.555   5.484  1.0159  0.6905 -0.3429
16098SOL     OW50300   8.050   0.370   3.562 -0.3770 -0.2842 -0.1479
16098SOL    HW150301   7.990   0.319   3.617  0.1526 -3.0384 -1.9330
16098SOL    HW250302   8.132   0.321   3.564  1.0596  1.9863  0.1188
16099SOL     OW50303   0.161   6.317  11.246  0.2289  0.0684 -0.4999
16099SOL    HW150304   0.088   6.321  11.184  0.8285 -2.0947 -1.4369
16099SOL    HW250305   0.202   6.403  11.239 -2.2557  1.4157  0.1633
16100SOL     OW50306  10.814   2.329   3.280  0.0580  0.3641 -0.8741
16100SOL    HW150307  10.829   2.369   3.194 -1.0931  0.4138 -1.0625
16100SOL    HW250308  10.737   2.273   3.267  0.3423 -0.2260 -0.0647
16101SOL     OW50309   0.258   9.302   5.294  0.1214 -0.3585 -0.4585
16101SOL    HW150310   0.276   9.338   5.207 -0.5335  0.8502 -0.1217
16101SOL    HW250311   0.206   9.370   5.337  1.8102 -0.2087  1.4729
16102SOL     OW50312  10.263  10.555   1.155 -0.1308 -0.3526  0.2531
16102SOL    HW150313  10.225  10.574   1.241 -0.0840 -1.3529  0.5059
16102SOL    HW250314  10.188  10.554   1.096 -0.2551 -0.3721  0.4087
16103SOL     OW50315   5.651   4.869   8.994  0.0019 -0.5875 -0.3064
16103SOL    HW150316   5.726   4.912   8.952  1.4154  0.7806  3.1930
16103SOL    HW250317   5.593   4.940   9.019 -1.5623 -1.4865 -1.1873
16104SOL     OW50318   1.742   2.137   5.906  0.1957 -0.7950 -0.4929
16104SOL    HW150319   1.767   2.109   5.818  0.0103 -0.8410 -0.5315
16104SOL    HW250320   1.647   2.143   5.903  0.2887  0.8944 -0.8071
16105SOL     OW50321   0.847   7.269   0.336 -1.0433 -0.0981 -0.3649
16105SOL    HW150322   0.919   7.296   0.394 -0.1876 -0.0971 -1.3942
16105SOL    HW250323   0.794   7.348   0.326 -0.8466  0.0737 -0.0808
16106SOL     OW50324   9.771   1.326  10.917  0.1917  0.1309  0.0796
16106SOL    HW150325   9.831   1.251  10.924 -0.2569 -0.2015  0.3979
16106SOL    HW250326   9.700   1.296  10.861  1.1655  1.0952 -1.7633
16107SOL     OW50327   5.914   2.002   8.246 -0.3510 -0.1111 -0.4147
16107SOL    HW150328   5.893   2.027   8.336  1.0497 -2.3556  0.6489
16107SOL    HW250329   6.010   1.991   8.247 -0.6279 -4.1355 -0.9204
16108SOL     OW50330   7.579   0.767   6.202 -0.1161 -0.0313 -0.8099
16108SOL    HW150331   7.620   0.746   6.118 -0.9311 -1.2887 -0.9202
16108SOL    HW250332   7.509   0.702   6.211 -2.4154  2.2537 -0.8585
16109SOL     OW50333   9.565   1.984   5.019 -0.4437 -0.0366 -0.3613
16109SOL    HW150334   9.568   1.905   4.966  1.1993  0.5759 -1.2554
16109SOL    HW250335   9.553   2.055   4.956 -1.3102  0.4948  0.3717
16110SOL     OW50336   1.631   6.503   6.529  0.2745 -0.8647  0.1289
16110SOL    HW150337   1.574   6.469   6.460  0.6849  0.3529 -0.8448
16110SOL    HW250338   1.621   6.598   6.523 -1.3797 -0.7242  3.2169
16111SOL     OW50339   3.551   5.491   1.338  0.1052 -0.3107  0.5975
16111SOL    HW150340   3.602   5.544   1.399 -0.1055 -2.4381  2.7506
16111SOL    HW250341   3.461   5.496   1.370 -0.4353  0.3045 -0.8986
16112SOL     OW50342   6.968   7.339   8.770 -0.3704 -0.5580 -0.4658
16112SOL    HW150343   6.923   7.262   8.804 -1.7201  0.2716 -0.2880
16112SOL    HW250344   6.999   7.312   8.683 -1.3818 -1.0984 -0.6701
16113SOL     OW50345   9.226   2.297   3.232 -0.1158  0.0767 -0.1402
16113SOL    HW150346   9.301   2.239   3.245 -1.3501 -1.2642  1.4287
16113SOL    HW250347   9.259   2.384   3.252  1.2041 -0.3833 -0.2107
16114SOL     OW50348   3.884   3.471   9.502 -0.1398  0.2567  0.4487
16114SOL    HW150349   3.928   3.553   9.480  0.1635 -0.8781 -4.2247
16114SOL    HW250350   3.796   3.481   9.468 -0.3740 -1.0711  0.6206
16115SOL     OW50351   1.746   5.681   0.216  0.4390 -0.4296  0.6064
16115SOL    HW150352   1.697   5.734   0.154 -2.0410 -1.6633  1.3279
16115SOL    HW250353   1.818   5.736   0.245  1.2355  0.4512 -2.7088
16116SOL     OW50354   4.682   9.805   0.641 -0.2279  0.7065 -0.1742
16116SOL    HW150355   4.602   9.796   0.691  1.1925  0.7855  2.2600
16116SOL    HW250356   4.725   9.720   0.648  1.3188  1.5455  1.2477
16117SOL     OW50357   2.779   5.067   1.911 -0.7789  0.5365 -0.2185
16117SOL    HW150358   2.700   5.119   1.896 -2.6011 -1.9470  0.1136
16117SOL    HW250359   2.797   5.079   2.005  0.6290  2.8288 -0.7135
16118SOL     OW50360  10.129   4.962   5.969 -0.8064  0.2009 -0.6955
16118SOL    HW150361  10.215   4.998   5.992 -1.8959  2.0339  0.7798
16118SOL    HW250362  10.134   4.947   5.875  1.1168  0.2710 -0.6446
16119SOL     OW50363  10.742   5.170   9.573 -0.1242 -0.3652  0.5211
16119SOL    HW150364  10.738   5.252   9.622  0.2904 -1.1570  1.9161
16119SOL    HW250365  10.835   5.151   9.565 -0.2175 -0.7105  0.2086
16120SOL     OW50366  10.692   6.181   0.162  0.3798  0.3192  0.0228
16120SOL    HW150367  10.774   6.131   0.166  0.7321  0.8105 -0.9078
16120SOL    HW250368  10.660   6.180   0.252  2.8532  2.5084  1.0541
16121SOL     OW50369   1.431   0.194   0.541 -0.2602 -0.0970  0.1113
16121SOL    HW150370   1.466   0.179   0.454 -0.9633  1.4347 -0.4737
16121SOL    HW250371   1.504   0.178   0.600  0.2770 -0.9581 -0.7609
16122SOL     OW50372   1.497   0.931   9.017  0.0806 -0.3448  0.2695
16122SOL    HW150373   1.558   0.979   8.962  0.6907 -0.6608  0.6511
16122SOL    HW250374   1.420   0.917   8.962  0.0518  0.6980  0.0186
16123SOL     OW50375   7.479   3.116   2.633  0.0580  0.3288 -0.5400
16123SOL    HW150376   7.499   3.105   2.540  2.0081  1.2297 -0.2822
16123SOL    HW250377   7.564   3.134   2.674 -0.6892 -0.4094  1.4865
16124SOL     OW50378   5.477  11.138   7.618 -0.4796  0.1370 -0.3797
16124SOL    HW150379   5.527  11.080   7.675  0.1881  0.5061 -0.5819
16124SOL    HW250380   5.386  11.125   7.644 -0.5424 -2.2202 -1.5008
16125SOL     OW50381   7.872   2.021   6.158 -0.5176 -0.0920  0.2911
16125SOL    HW150382   7.952   1.995   6.203 -0.6420 -3.8087 -1.2665
16125SOL    HW250383   7.887   1.997   6.067 -2.7447  0.8843 -0.3993
16126SOL     OW50384   0.659   7.661   0.609  0.5078 -0.3687 -0.1811
16126SOL    HW150385   0.659   7.665   0.705 -1.1524  1.0774 -0.2005
16126SOL    HW250386   0.687   7.748   0.581 -0.1732 -0.4089 -1.0076
16127SOL     OW50387   3.311   6.550   0.450  0.4084  0.4759  0.2472
16127SOL    HW150388   3.357   6.492   0.390  2.2250  1.6136  0.4752
16127SOL    HW250389   3.349   6.532   0.536  1.2332  2.1390  0.2871
16128SOL     OW50390   7.422   8.402   8.358 -0.3814  0.2696  0.4069
16128SOL    HW150391   7.443   8.465   8.289 -1.7890  1.4661  1.0090
16128SOL    HW250392   7.327   8.410   8.369 -0.2099  0.0233  2.3943
16129SOL     OW50393   0.597   3.149   3.802  0.0099  0.7380 -0.8757
16129SOL    HW150394   0.516   3.198   3.783  1.3966  2.9038 -1.5283
16129SOL    HW250395   0.625   3.116   3.716 -2.0422 -3.3418 -0.2220
16130SOL     OW50396  10.920   2.725   5.649 -0.1234 -0.7547 -0.3411
16130SOL    HW150397  10.925   2.804   5.595  0.7887 -0.5404  0.0406
16130SOL    HW250398  10.881   2.755   5.732  0.4418 -0.6487 -0.1089
16131SOL     OW50399   9.095   0.910   9.609  0.3145 -0.1933  0.7958
16131SOL    HW150400   9.121   0.953   9.528  1.5835 -2.3270 -0.0169
16131SOL    HW250401   9.170   0.922   9.667  0.6079 -1.1169  0.6188
16132SOL     OW50402   1.914   6.740  10.498 -0.1074  0.2598 -0.2408
16132SOL    HW150403   1.939   6.831  10.511  0.8982  0.3932 -2.5794
16132SOL    HW250404   1.996   6.696  10.473 -0.4867 -1.3918  1.1880
16133SOL     OW50405   1.684   4.229   1.311  0.2940 -0.0399  0.3023
16133SOL    HW150406   1.705   4.305   1.365  0.0564  0.1968  0.0639
16133SOL    HW250407   1.648   4.266   1.230 -0.2081 -0.4150  0.3521
16134SOL     OW50408   2.182   6.666   7.529 -0.4447  0.0459  0.6881
16134SOL    HW150409   2.190   6.577   7.564  0.8344 -0.2674 -0.3189
16134SOL    HW250410   2.118   6.709   7.586 -2.9461 -2.2324 -0.2232
16135SOL     OW50411   6.609   7.209   3.164  0.3417  0.1419  0.6168
16135SOL    HW150412   6.557   7.131   3.184 -1.0091  1.1140  1.0175
16135SOL    HW250413   6.694   7.191   3.202 -0.1282 -0.9013  1.2300
16136SOL     OW50414   5.591   6.415   3.176  0.0488 -0.4214 -0.2789
16136SOL    HW150415   5.613   6.360   3.101  0.2549 -0.0258 -0.5174
16136SOL    HW250416   5.667   6.474   3.185 -0.1117 -0.2635  0.0437
16137SOL     OW50417   6.778   6.326   2.206 -0.7507 -0.2120  0.2309
16137SOL    HW150418   6.793   6.409   2.251 -0.8208 -0.7538  1.2897
16137SOL    HW250419   6.726   6.275   2.268 -1.1448 -0.8575 -0.6195
16138SOL     OW50420   6.996   1.613   4.491 -0.2851 -0.2191 -0.0316
16138SOL    HW150421   7.032   1.598   4.404  0.6673  0.0595  0.3055
16138SOL    HW250422   7.030   1.698   4.518  1.1513 -1.1891  1.4357
16139SOL     OW50423   8.917   2.034   1.136 -0.7121  0.1683  0.2130
16139SOL    HW150424   8.971   2.070   1.206 -1.6737  3.7889 -0.7180
16139SOL    HW250425   8.979   1.997   1.073  0.4097  0.5977  1.0563
16140SOL     OW50426   7.904   7.895   0.265 -0.1231 -0.2127 -0.2340
16140SOL    HW150427   7.897   7.888   0.169 -0.1757 -0.4430 -0.2131
16140SOL    HW250428   7.872   7.811   0.297 -1.0074  0.2138  0.0246
16141SOL     OW50429   2.363   4.518   9.588 -0.3387  0.3764  0.2024
16141SOL    HW150430   2.455   4.546   9.582 -0.3873  0.8443  1.3156
16141SOL    HW250431   2.318   4.574   9.525  0.0987  0.3429 -0.1484
16142SOL     OW50432   3.104  10.839   4.149 -0.2608  0.2363 -0.1274
16142SOL    HW150433   3.085  10.758   4.197 -3.0961  2.6253  3.3163
16142SOL    HW250434   3.186  10.871   4.187 -0.9755  0.6544  1.1222
16143SOL     OW50435   8.357   5.366   7.044 -0.5380 -0.3923  0.1956
16143SOL    HW150436   8.378   5.311   7.119  0.8033  0.0849  0.1927
16143SOL    HW250437   8.274   5.409   7.068  0.4079  0.5792  1.8894
16144SOL     OW50438   0.592   8.872   6.635  0.3155  0.5657 -0.2047
16144SOL    HW150439   0.678   8.908   6.657  0.1712  0.8199 -0.0407
16144SOL    HW250440   0.545   8.872   6.719 -0.0186  0.9181 -0.3852
16145SOL     OW50441   3.122   5.577   3.084  0.3654 -0.7116  0.5404
16145SOL    HW150442   3.079   5.584   3.169  0.0562 -0.0390  0.3346
16145SOL    HW250443   3.214   5.596   3.102  0.2387 -0.2058  0.6738
16146SOL     OW50444   8.024   0.045   7.467  0.0519 -0.3214  0.9368
16146SOL    HW150445   8.002   0.050   7.560  0.6186  0.4317  1.0384
16146SOL    HW250446   8.046  -0.047   7.453  0.8180 -0.2795  1.7558
16147SOL     OW50447   6.800   9.907   2.516 -0.3755  0.4377 -0.1791
16147SOL    HW150448   6.746   9.939   2.444  0.3165  0.4432 -0.7027
16147SOL    HW250449   6.748   9.835   2.554  0.3585 -1.3672 -2.3699
16148SOL     OW50450  10.163   8.462   9.252 -0.2025  0.4415  0.2850
16148SOL    HW150451  10.099   8.477   9.182  0.0339 -0.5101 -0.1508
16148SOL    HW250452  10.144   8.530   9.317 -1.6729  0.1678  0.1822
16149SOL     OW50453   6.414   8.677   8.737  0.1887 -0.3330  0.3112
16149SOL    HW150454   6.458   8.619   8.675 -2.7048  0.8093 -3.2106
16149SOL    HW250455   6.466   8.757   8.736  0.0119 -0.2116 -1.0334
16150SOL     OW50456   7.900   4.138   5.563  0.6594 -0.2627  0.2671
16150SOL    HW150457   7.872   4.167   5.476  0.3949 -0.4869  0.2776
16150SOL    HW250458   7.821   4.103   5.604  1.3608 -3.1613 -0.6280
16151SOL     OW50459   5.552   0.250   8.028  0.3688  0.0820  1.3816
16151SOL    HW150460   5.639   0.212   8.015  0.3496 -0.6501  3.1069
16151SOL    HW250461   5.565   0.344   8.020  1.2101 -0.0576  1.0742
16152SOL     OW50462   7.042   9.031   4.909 -0.7889  0.2409 -0.4841
16152SOL    HW150463   7.010   8.960   4.964  1.0751 -1.5857 -1.5795
16152SOL    HW250464   7.133   9.044   4.936 -0.2149  0.1634 -2.2139
16153SOL     OW50465   8.392   6.630   6.145  0.3749 -0.4361 -0.3564
16153SOL    HW150466   8.442   6.565   6.194  1.5682 -1.0995 -2.3049
16153SOL    HW250467   8.406   6.712   6.192  1.3208 -1.0644  0.4871
16154SOL     OW50468  10.043   5.429  10.100 -0.3184 -0.1760  0.1537
16154SOL    HW150469  10.053   5.509  10.151  0.0754  0.0447 -0.2628
16154SOL    HW250470  10.040   5.359  10.165 -0.2110  0.1347  0.4944
16155SOL     OW50471  11.061   5.714   3.749 -0.5542  0.5686 -0.7297
16155SOL    HW150472  11.100   5.636   3.708 -0.6593 -0.2248  0.6065
16155SOL    HW250473  11.136   5.771   3.767  0.3797 -1.4405  2.8930
16156SOL     OW50474   4.553   5.497  10.221  0.1558 -0.2527 -0.2880
16156SOL    HW150475   4.472   5.479  10.268  0.8021  0.2883  1.0905
16156SOL    HW250476   4.527   5.549  10.145 -0.6488  1.0894  0.8799
16157SOL     OW50477   5.871   2.437   6.287 -0.1383  0.1027  0.0943
16157SOL    HW150478   5.897   2.526   6.313 -0.1267  0.5292 -1.3001
16157SOL    HW250479   5.803   2.413   6.350  0.2149  0.8951  0.8006
16158SOL     OW50480   8.472   2.797   6.715 -0.1930  0.0085  0.1456
16158SOL    HW150481   8.428   2.802   6.800  1.7744 -0.3214  1.2271
16158SOL    HW250482   8.414   2.846   6.656 -1.8871 -0.2374  1.5148
16159SOL     OW50483   6.462   1.785   0.043 -0.7710  0.3216 -0.4951
16159SOL    HW150484   6.531   1.720   0.045 -0.3455  0.7450 -1.1128
16159SOL    HW250485   6.445   1.800  -0.050 -0.3937  1.5743 -0.3787
16160SOL     OW50486   4.885   8.181   2.108 -0.1959  0.8870 -0.4165
16160SOL    HW150487   4.947   8.188   2.036  0.7115  0.5569  0.3120
16160SOL    HW250488   4.939   8.186   2.187 -1.1426  1.0103  0.2418
16161SOL     OW50489   1.489   7.357   3.543  0.1664 -0.1598  0.1715
16161SOL    HW150490   1.395   7.376   3.541  0.0178 -0.9276 -0.7875
16161SOL    HW250491   1.503   7.313   3.627  0.1970  2.3980  1.6145
16162SOL     OW50492   3.968   0.402   7.603  0.2318 -0.3382  0.2381
16162SOL    HW150493   4.062   0.415   7.615  0.2446 -0.0621 -0.1419
16162SOL    HW250494   3.951   0.429   7.513 -0.4214  0.8092  0.6814
16163SOL     OW50495   7.967   9.998   8.357  0.1116  0.2699  0.6447
16163SOL    HW150496   7.962   9.928   8.292  0.2082  0.8133  0.0446
16163SOL    HW250497   8.053   9.989   8.396  0.6259  0.8220 -0.3201
16164SOL     OW50498   1.855   5.813   1.235  0.0099 -0.2486 -0.4487
16164SOL    HW150499   1.855   5.717   1.239  0.1012 -0.2268  0.2650
16164SOL    HW250500   1.893   5.834   1.150 -0.0905 -0.8460 -0.6453
16165SOL     OW50501  10.236  11.264   5.857  0.3570  0.6722 -0.6487
16165SOL    HW150502  10.245  11.175   5.892  0.1901  1.4565  1.6056
16165SOL    HW250503  10.288  11.263   5.777  1.9228 -0.9726  0.2793
16166SOL     OW50504   0.986   2.413   7.538  0.0695 -0.2584 -0.0677
16166SOL    HW150505   1.081   2.424   7.541  0.2108 -1.3390  2.9521
16166SOL    HW250506   0.952   2.502   7.533  1.2113  0.1296 -1.4601
16167SOL     OW50507   0.677   2.357   4.222 -0.1201 -0.1600  0.0584
16167SOL    HW150508   0.692   2.434   4.278 -0.0144 -1.4882  1.9721
16167SOL    HW250509   0.765   2.334   4.190  0.1686 -0.5731  1.0728
16168SOL     OW50510   3.284   4.162   3.433  0.0533  0.7007  0.8413
16168SOL    HW150511   3.328   4.229   3.381 -0.9201  1.7988  1.3714
16168SOL    HW250512   3.209   4.135   3.380  1.1523 -0.9550  0.0639
16169SOL     OW50513   1.077   5.178   5.482  0.0153  0.0458  0.1451
16169SOL    HW150514   1.039   5.192   5.396 -0.3207 -0.2188  0.2480
16169SOL    HW250515   1.164   5.217   5.476  0.2225 -0.5029 -0.4991
16170SOL     OW50516   7.975   0.463   9.946 -0.6552 -0.4994  0.2120
16170SOL    HW150517   8.071   0.465   9.953 -0.6377  0.7576 -0.1001
16170SOL    HW250518   7.956   0.521   9.872 -1.7819  1.2132  1.7871
16171SOL     OW50519  10.922   1.506   8.866  0.0452  0.0817 -0.4398
16171SOL    HW150520  10.953   1.415   8.868  0.3286  0.1620 -0.9932
16171SOL    HW250521  10.943   1.540   8.953 -0.9327 -0.6632  0.1078
16172SOL     OW50522   6.277   3.167   7.815  0.8482  0.3661 -0.3187
16172SOL    HW150523   6.341   3.176   7.744 -0.7964  3.8531 -1.5845
16172SOL    HW250524   6.200   3.130   7.773  0.8930 -0.6381  0.4425
16173SOL     OW50525   3.513   2.130   1.705  0.3913  0.2366 -0.3030
16173SOL    HW150526   3.565   2.187   1.762  2.0308 -1.3368 -0.1259
16173SOL    HW250527   3.424   2.136   1.739  1.2799 -0.5251  2.3920
16174SOL     OW50528   2.138   6.183   7.994 -0.4674 -0.3137 -0.6259
16174SOL    HW150529   2.067   6.188   8.057  0.6274 -1.0333  0.7273
16174SOL    HW250530   2.207   6.237   8.031  0.7828 -1.9971 -0.3520
16175SOL     OW50531   4.504  10.069   2.066 -0.6564  0.3560  0.0206
16175SOL    HW150532   4.582  10.026   2.031 -0.4505  2.0292 -1.7340
16175SOL    HW250533   4.536  10.122   2.139 -0.3368  0.2621 -0.0514
16176SOL     OW50534   0.715   6.244   4.927  0.0205  0.4894  0.6851
16176SOL    HW150535   0.653   6.173   4.940 -0.4881  0.4780 -1.4631
16176SOL    HW250536   0.690   6.310   4.992 -1.6033  0.0834  0.5075
16177SOL     OW50537   0.296   3.709   9.395  0.4428  0.7536  0.1777
16177SOL    HW150538   0.294   3.613   9.395 -1.2795  0.7536 -0.6236
16177SOL    HW250539   0.385   3.731   9.369  0.7351 -0.6290 -0.0719
16178SOL     OW50540   9.586   7.303  10.847 -0.4888  0.4126  0.6978
16178SOL    HW150541   9.528   7.373  10.877 -1.2663  0.0446  0.0818
16178SOL    HW250542   9.609   7.255  10.926 -0.8888  0.6630  0.9721
16179SOL     OW50543   2.725   1.170   9.638  0.1106  0.3136  0.3595
16179SOL    HW150544   2.755   1.181   9.548 -0.8725  4.4262  0.2930
16179SOL    HW250545   2.757   1.249   9.683 -1.5320 -0.3730  2.9573
16180SOL     OW50546   4.770   7.313   1.065 -0.5706 -0.2474 -0.0429
16180SOL    HW150547   4.815   7.387   1.106  0.4048 -0.8088 -0.0701
16180SOL    HW250548   4.828   7.286   0.994 -1.2437 -0.6141 -0.4636
16181SOL     OW50549   8.960   3.041   4.619 -0.2146 -0.3424  0.1893
16181SOL    HW150550   8.995   3.009   4.536 -0.5064  0.3995 -0.2291
16181SOL    HW250551   8.869   3.063   4.600  0.2470  1.8130  0.1233
16182SOL     OW50552  10.990   4.807   3.047  0.2802 -0.3579  0.1469
16182SOL    HW150553  11.043   4.733   3.018 -0.3400 -0.2830 -1.2406
16182SOL    HW250554  11.047   4.883   3.039  0.3758 -0.4526 -0.0651
16183SOL     OW50555   0.490   0.057   4.954 -0.5318  0.5287 -0.2051
16183SOL    HW150556   0.580   0.049   4.924 -0.5713  1.3514 -0.5546
16183SOL    HW250557   0.487   0.139   5.003 -1.5987  1.6791 -2.1023
16184SOL     OW50558  10.739   9.815   4.924  0.1538  0.3279  0.0608
16184SOL    HW150559  10.833   9.831   4.923  0.5113 -1.4948 -1.9709
16184SOL    HW250560  10.722   9.776   5.009  1.4153 -0.1446  0.1193
16185SOL     OW50561   1.507   1.872   1.453 -0.0653  0.3866 -0.5441
16185SOL    HW150562   1.428   1.926   1.457  0.4875  1.1483  0.3170
16185SOL    HW250563   1.532   1.873   1.361 -0.4296  1.0488 -0.6395
16186SOL     OW50564   3.803  10.682   8.212  0.3207  0.1604  0.1304
16186SOL    HW150565   3.709  10.703   8.213  0.1076 -0.6550 -0.8559
16186SOL    HW250566   3.843  10.752   8.263 -0.7861  0.7212  0.2756
16187SOL     OW50567   3.280   3.771   3.442  0.1226 -0.0329 -0.2668
16187SOL    HW150568   3.251   3.790   3.531  1.4749 -0.9127  0.4002
16187SOL    HW250569   3.205   3.728   3.400 -0.2124 -0.4661  0.7591
16188SOL     OW50570   3.526   2.504  10.234 -0.2385  0.1062  0.6520
16188SOL    HW150571   3.437   2.470  10.229  0.2511 -1.2696  0.9471
16188SOL    HW250572   3.517   2.597  10.213 -1.6098 -0.1927 -0.2284
16189SOL     OW50573   9.290   3.492   5.763 -0.0941 -0.8078  0.2666
16189SOL    HW150574   9.297   3.419   5.702 -1.5769 -0.1634 -0.7308
16189SOL    HW250575   9.377   3.499   5.802  0.3560 -2.4290 -0.3880
16190SOL     OW50576   1.554   1.382   7.217 -0.2844 -0.7432 -0.0745
16190SOL    HW150577   1.540   1.415   7.306 -1.6864  0.9257 -0.8586
16190SOL    HW250578   1.467   1.353   7.189 -0.2112  0.3353 -1.4969
16191SOL     OW50579   5.227  10.008   3.379  0.2929  0.2415  0.1698
16191SOL    HW150580   5.221   9.967   3.293  2.0676 -0.1185  0.1900
16191SOL    HW250581   5.316   9.991   3.408  0.5063  2.4843  1.0207
16192SOL     OW50582  10.099   0.675   4.385 -0.4159 -0.0742 -0.2311
16192SOL    HW150583  10.021   0.664   4.440  0.4553  1.5158  1.4696
16192SOL    HW250584  10.068   0.723   4.308 -1.3568 -0.7382 -0.2815
16193SOL     OW50585   7.159   4.547   1.533  0.9370  0.3097  0.3891
16193SOL    HW150586   7.226   4.483   1.510  0.9756  0.7688 -0.8504
16193SOL    HW250587   7.101   4.500   1.593  1.2977 -0.7044 -0.0244
16194SOL     OW50588  11.088   9.693   3.265  0.3503  0.2485 -0.6787
16194SOL    HW150589  11.029   9.769   3.265  0.6115  0.4641 -1.4582
16194SOL    HW250590  11.031   9.618   3.253  0.1406  0.3659 -0.4361
16195SOL     OW50591   3.468   7.757   1.729 -0.2539  0.0670  0.0076
16195SOL    HW150592   3.522   7.700   1.784  3.8587  1.1610 -2.4870
16195SOL    HW250593   3.447   7.703   1.652  0.5135  0.7600 -0.7017
16196SOL     OW50594   0.859   3.458  11.074 -0.1755 -0.3627 -0.0756
16196SOL    HW150595   0.862   3.509  10.993 -0.5412  1.9581  1.2798
16196SOL    HW250596   0.916   3.506  11.135 -2.6138  0.0185  2.0888
16197SOL     OW50597   3.256   9.510   0.739  0.1640  0.3678  0.1248
16197SOL    HW150598   3.344   9.516   0.701  0.7940  0.8115  1.5700
16197SOL    HW250599   3.256   9.425   0.784  0.2207  0.8056  0.9640
16198SOL     OW50600  11.073   5.328  10.940  0.0284  0.1485 -0.1675
16198SOL    HW150601  11.158   5.349  10.979 -0.7310  0.6903  1.2822
16198SOL    HW250602  11.083   5.352  10.848  1.2437  0.8233  0.1102
16199SOL     OW50603   7.656   4.362   4.568 -0.4021  0.5103 -0.3580
16199SOL    HW150604   7.717   4.334   4.500  1.5680  0.0965  1.4693
16199SOL    HW250605   7.591   4.292   4.573  1.0143 -0.8210  0.0275
16200SOL     OW50606   1.741   7.476   9.231 -0.2852 -0.0275 -0.1302
16200SOL    HW150607   1.706   7.493   9.144  1.6163 -0.9767 -1.1555
16200SOL    HW250608   1.836   7.476   9.218  0.0097 -1.1482  1.7572
16201SOL     OW50609  10.854   4.732   8.152 -0.8342 -0.9559 -0.3562
16201SOL    HW150610  10.807   4.809   8.119  3.4475  1.7578 -0.8472
16201SOL    HW250611  10.844   4.737   8.247 -0.8140  0.1209 -0.3935
16202SOL     OW50612   4.125   8.097   6.326  0.5804  0.6946 -0.4565
16202SOL    HW150613   4.115   8.021   6.383  0.4553  0.7124 -0.4539
16202SOL    HW250614   4.159   8.062   6.244  2.7547  0.9046  0.2969
16203SOL     OW50615   7.523   7.229   2.555  0.2353  0.1736 -0.4068
16203SOL    HW150616   7.569   7.177   2.622 -1.2624  0.3589  0.8280
16203SOL    HW250617   7.524   7.318   2.590  1.4622  0.7475 -1.7946
16204SOL     OW50618  10.501   9.102   9.931 -0.3747  0.9089  0.5764
16204SOL    HW150619  10.422   9.051   9.945 -0.2593  0.6983  0.4535
16204SOL    HW250620  10.567   9.039   9.903 -0.1501  1.0741  0.7193
16205SOL     OW50621  10.914  10.103  10.991 -0.4625 -0.3304 -0.2921
16205SOL    HW150622  10.991  10.148  10.955 -0.4879 -1.3183 -1.6563
16205SOL    HW250623  10.905  10.025  10.937 -0.9943 -1.4984  1.4126
16206SOL     OW50624  10.477  11.060   0.937  0.2486  0.3704 -0.1801
16206SOL    HW150625  10.430  10.989   0.980 -1.4498  0.0886 -2.3248
16206SOL    HW250626  10.482  11.033   0.845  0.9147  2.3237 -0.7652
16207SOL     OW50627   9.375   7.036   0.711  0.1456  0.3668 -0.2768
16207SOL    HW150628   9.355   7.042   0.804 -0.1668 -0.5563 -0.2734
16207SOL    HW250629   9.460   7.078   0.701  1.0754 -1.1669  0.7508
16208SOL     OW50630   7.245   0.109   8.215  0.3628  0.2220 -0.2813
16208SOL    HW150631   7.261   0.023   8.253  1.2667  0.1158 -0.8784
16208SOL    HW250632   7.177   0.148   8.271  2.4333  0.5476  2.1731
16209SOL     OW50633   7.059   0.676   3.487 -0.3663  0.0404 -0.7491
16209SOL    HW150634   6.998   0.606   3.510  1.3107 -1.5387 -0.8849
16209SOL    HW250635   7.033   0.701   3.398 -1.4821  0.1897 -0.4053
16210SOL     OW50636   9.882   6.863  11.219 -0.0575  0.2546 -0.3398
16210SOL    HW150637   9.808   6.852  11.158  0.9995  3.0178 -2.3239
16210SOL    HW250638   9.959   6.839  11.167  0.7439  1.0988  0.4334
16211SOL     OW50639   1.946   6.673   7.387  0.2931  0.4146 -0.2054
16211SOL    HW150640   2.039   6.674   7.410  0.3308  0.8549 -0.3673
16211SOL    HW250641   1.940   6.614   7.312  0.4574  0.4593 -0.2527
16212SOL     OW50642   7.827   2.624   8.780  0.0476  0.4864 -0.2615
16212SOL    HW150643   7.788   2.541   8.808  0.2343  0.1493 -0.9806
16212SOL    HW250644   7.827   2.678   8.859  1.7747 -0.8860  0.7326
16213SOL     OW50645   4.568  10.000   4.903  0.0368  0.5023 -0.0107
16213SOL    HW150646   4.569  10.090   4.869  0.9934 -0.2339 -2.1314
16213SOL    HW250647   4.476   9.981   4.920 -0.4190  1.2031 -1.5473
16214SOL     OW50648   3.099   9.663   0.917  0.3320 -1.0618  0.3942
16214SOL    HW150649   3.028   9.696   0.862  0.6151  0.3238  0.8107
16214SOL    HW250650   3.164   9.629   0.856  0.7016  0.5625 -0.1651
16215SOL     OW50651   3.345   0.907   9.242 -1.0225  0.4357  0.4231
16215SOL    HW150652   3.306   0.867   9.164 -2.1102 -0.6255  1.4771
16215SOL    HW250653   3.352   0.835   9.305  3.4383  0.3381  0.0916
16216SOL     OW50654   6.721   6.911   0.916 -0.3964  0.1607 -0.0437
16216SOL    HW150655   6.782   6.899   0.988 -1.2380  1.5556  0.9569
16216SOL    HW250656   6.772   6.951   0.846  0.0682  0.3678  0.4117
16217SOL     OW50657   2.967   0.691   6.837 -0.2235  0.0694  0.3396
16217SOL    HW150658   2.931   0.661   6.920  2.1567  2.0139  2.2336
16217SOL    HW250659   3.010   0.614   6.799  0.2696 -0.4466  1.8779
16218SOL     OW50660   2.195   2.559   0.438 -0.6169  0.4227 -0.4614
16218SOL    HW150661   2.210   2.530   0.347 -0.6593  0.3462 -0.4444
16218SOL    HW250662   2.276   2.537   0.483  1.0174  4.0233 -1.3258
16219SOL     OW50663   4.720   2.656   4.500 -0.1190 -0.5603  0.3625
16219SOL    HW150664   4.773   2.717   4.550  0.1458 -1.6644  1.4916
16219SOL    HW250665   4.652   2.710   4.460  0.8544  0.6354  0.2667
16220SOL     OW50666   1.567   0.676   3.012  0.0411  0.0825  0.6145
16220SOL    HW150667   1.526   0.763   3.010  0.9224  0.5002 -0.8218
16220SOL    HW250668   1.497   0.616   2.988 -0.5220  0.4066  1.4044
16221SOL     OW50669   2.332   5.984   7.078  0.1525  0.3571  1.2346
16221SOL    HW150670   2.355   5.893   7.095 -1.5971 -0.6232 -1.1232
16221SOL    HW250671   2.401   6.034   7.121  1.8470 -2.0865  1.5922
16222SOL     OW50672   3.290  11.167   0.376  0.1047 -0.3480  0.1837
16222SOL    HW150673   3.221  11.133   0.433 -2.0868  1.2053 -1.4316
16222SOL    HW250674   3.299  11.259   0.401  1.4693 -0.4505  0.1835
16223SOL     OW50675  10.996   7.009  10.444  0.0705 -0.2833 -0.0877
16223SOL    HW150676  10.948   6.940  10.488 -0.1059  0.9259  1.7539
16223SOL    HW250677  11.088   6.994  10.469 -0.1300  0.9223  1.5641
16224SOL     OW50678   2.232   7.656   6.486 -0.4054  0.7368  0.1729
16224SOL    HW150679   2.172   7.620   6.551 -0.3999 -1.4756 -0.9389
16224SOL    HW250680   2.231   7.750   6.502 -2.7038  0.5853  1.4064
16225SOL     OW50681   5.543   6.108   0.129 -0.0397  0.2088 -0.0944
16225SOL    HW150682   5.474   6.085   0.191  0.4348 -1.7590 -0.2459
16225SOL    HW250683   5.603   6.034   0.130  1.8322  1.6261 -0.3568
16226SOL     OW50684   5.445   2.137  10.347 -0.1719 -0.2229  0.6113
16226SOL    HW150685   5.467   2.229  10.360 -0.2380  0.1408 -1.4939
16226SOL    HW250686   5.515   2.089  10.393  0.3789  0.8776  0.9525
16227SOL     OW50687   7.145   9.635   2.943  0.1381 -0.1652  0.2099
16227SOL    HW150688   7.060   9.625   2.899  0.5858  0.8840 -0.9429
16227SOL    HW250689   7.122   9.656   3.034 -0.8885  1.0108 -0.2786
16228SOL     OW50690   3.505   8.091   3.082  0.1667  0.1135 -0.0287
16228SOL    HW150691   3.483   8.108   3.174  1.4321 -0.7837  0.4658
16228SOL    HW250692   3.492   7.997   3.071  2.1207 -0.1809 -0.1427
16229SOL     OW50693  11.104   3.648   2.723  0.3860 -0.0300  0.1923
16229SOL    HW150694  11.084   3.558   2.697  0.2276  0.9133 -3.4727
16229SOL    HW250695  11.024   3.696   2.704  1.2965  1.3118 -0.3536
16230SOL     OW50696   3.881  10.145  11.215  0.0880  0.4386  0.2397
16230SOL    HW150697   3.828  10.071  11.185  1.2348  0.4415 -1.9027
16230SOL    HW250698   3.938  10.108  11.283  0.7388 -0.6930 -0.8925
16231SOL     OW50699   2.146   8.097   2.466  0.0756  0.2495  0.1595
16231SOL    HW150700   2.227   8.046   2.458 -0.6584 -1.0558  0.6511
16231SOL    HW250701   2.164   8.179   2.420  1.8654  0.2342  0.7524
16232SOL     OW50702   6.595   6.165   8.693 -0.1577  0.0545 -1.6035
16232SOL    HW150703   6.579   6.249   8.734  2.0076  0.2312 -1.0013
16232SOL    HW250704   6.598   6.184   8.599  1.1710  0.8500 -1.4266
16233SOL     OW50705   0.079   2.350   8.836 -1.3354  0.8115  0.8518
16233SOL    HW150706   0.034   2.425   8.876  0.4781  1.3689  1.9826
16233SOL    HW250707   0.159   2.387   8.799 -1.0417 -0.3671  0.2609
16234SOL     OW50708   1.675   7.134   0.721  0.4217 -0.5563 -0.5698
16234SOL    HW150709   1.685   7.141   0.626 -0.5345  2.4805 -0.5703
16234SOL    HW250710   1.763   7.144   0.755  0.5792 -0.0050 -1.1191
16235SOL     OW50711   4.872   3.537   0.940  0.2853  0.1430 -0.5317
16235SOL    HW150712   4.832   3.623   0.925 -0.1447 -0.1129 -0.8964
16235SOL    HW250713   4.965   3.556   0.951  0.2001  0.6540 -0.6367
16236SOL     OW50714   6.155   5.846   1.042  0.7198  0.3582 -0.2470
16236SOL    HW150715   6.113   5.835   1.127  1.6919 -2.3021 -0.0241
16236SOL    HW250716   6.248   5.829   1.058  0.7910 -1.2289 -1.9634
16237SOL     OW50717   0.177   0.475   2.709  0.4287 -0.0834 -0.3561
16237SOL    HW150718   0.093   0.466   2.753 -0.1390 -0.3663 -1.4432
16237SOL    HW250719   0.180   0.566   2.679  1.1184  0.3020  0.8289
16238SOL     OW50720   9.663   8.307   2.658 -0.0286 -0.1511  0.0779
16238SOL    HW150721   9.751   8.296   2.621 -1.7101 -0.1160 -4.6643
16238SOL    HW250722   9.655   8.400   2.675  0.1685  0.2849 -1.9160
16239SOL     OW50723   5.142   9.205   3.972 -0.2008  0.6584  0.0255
16239SOL    HW150724   5.200   9.215   3.896  0.1684  0.5401  0.2895
16239SOL    HW250725   5.092   9.287   3.974 -2.5875 -0.5632 -2.2658
16240SOL     OW50726   7.270   5.573   2.589 -0.0150  0.2286 -1.0820
16240SOL    HW150727   7.309   5.652   2.552 -0.6814  0.4767 -1.2852
16240SOL    HW250728   7.226   5.603   2.669  1.3993 -0.3012 -0.0795
16241SOL     OW50729  10.393   3.598   5.155  0.4184 -0.7236 -0.4827
16241SOL    HW150730  10.316   3.635   5.112  0.7129 -0.2449 -0.6090
16241SOL    HW250731  10.462   3.603   5.089  0.4437 -1.5847 -0.5310
16242SOL     OW50732   1.475   0.757  10.860  0.0366 -0.3211 -0.8533
16242SOL    HW150733   1.524   0.810  10.797 -0.0681 -2.2429 -2.6258
16242SOL    HW250734   1.535   0.747  10.934  1.2081 -0.1852 -1.7483
16243SOL     OW50735   2.370   9.955   5.833 -0.4734 -0.1095 -0.6561
16243SOL    HW150736   2.405  10.044   5.829  0.1704 -0.3410 -0.2023
16243SOL    HW250737   2.437   9.900   5.794  0.6388 -0.8253  2.0481
16244SOL     OW50738   7.519   3.101   2.341 -0.2853  0.9874 -0.1471
16244SOL    HW150739   7.444   3.161   2.339 -0.7019  0.5495  1.1506
16244SOL    HW250740   7.496   3.031   2.281 -0.6831  1.1118 -0.1420
16245SOL     OW50741   9.934   3.848   1.218  0.4711 -0.0903 -0.3867
16245SOL    HW150742  10.026   3.871   1.204 -0.1718  1.5209 -2.5480
16245SOL    HW250743   9.886   3.906   1.159 -1.6664 -4.2231 -3.1818
16246SOL     OW50744   4.546   2.663   6.455 -0.2833 -0.4072  0.0692
16246SOL    HW150745   4.558   2.747   6.411  1.6519  0.8856  2.7705
16246SOL    HW250746   4.627   2.615   6.438 -0.4194 -0.7727  0.4240
16247SOL     OW50747   7.595  11.110   1.744 -0.5967  0.1611  0.3337
16247SOL    HW150748   7.649  11.161   1.684  0.3121 -0.3035  0.7249
16247SOL    HW250749   7.601  11.020   1.710 -1.7134  0.2072 -0.0241
16248SOL     OW50750   0.840   7.973   6.099 -0.2662 -0.1504 -0.1066
16248SOL    HW150751   0.771   7.949   6.161  0.1076 -3.0156 -0.6524
16248SOL    HW250752   0.919   7.932   6.134  0.2618 -0.5248 -1.6408
16249SOL     OW50753   6.515   0.913   5.327  0.4966 -0.1713 -0.5490
16249SOL    HW150754   6.578   0.911   5.399  0.1214 -0.8251 -0.2295
16249SOL    HW250755   6.440   0.864   5.359  0.2098 -0.2271 -1.2783
16250SOL     OW50756   0.350   2.715  10.013 -0.4021  0.6123  0.1199
16250SOL    HW150757   0.398   2.777  10.067  2.8979 -1.9323  0.4407
16250SOL    HW250758   0.326   2.644  10.073  1.0969 -1.0894 -1.1787
16251SOL     OW50759   0.842   2.650   5.010  0.3562 -0.0368 -0.0218
16251SOL    HW150760   0.855   2.565   4.968  0.4307 -0.8601  1.5754
16251SOL    HW250761   0.750   2.649   5.036  0.7469 -0.3772  1.4698
16252SOL     OW50762   8.426   8.145   5.382 -0.0058  0.8038 -0.4084
16252SOL    HW150763   8.410   8.085   5.309  0.7630 -2.1897  1.7187
16252SOL    HW250764   8.520   8.164   5.378 -0.3940  2.7615 -1.6152
16253SOL     OW50765   4.040   0.040   7.335  0.1196  0.2109 -0.1047
16253SOL    HW150766   4.034   0.111   7.272 -0.8786 -1.3042 -1.8039
16253SOL    HW250767   4.102  -0.022   7.297  0.3350 -0.2470  0.9390
16254SOL     OW50768   9.378   7.688   8.743 -0.0963 -0.0164  0.2328
16254SOL    HW150769   9.331   7.747   8.802 -0.3656  0.7143 -0.7005
16254SOL    HW250770   9.435   7.746   8.692 -0.5087 -0.5310 -0.8352
16255SOL     OW50771  10.646   5.941   6.881 -0.1916 -0.2544 -0.7150
16255SOL    HW150772  10.567   5.968   6.834 -1.1703 -1.5107  0.1283
16255SOL    HW250773  10.718   5.975   6.828 -1.2885  1.0596 -1.4295
16256SOL     OW50774   6.098  10.422   9.581  0.6230 -0.0060 -0.3135
16256SOL    HW150775   6.049  10.340   9.585  0.7212 -0.3080 -3.1925
16256SOL    HW250776   6.033  10.489   9.563  0.5837  0.6087  1.7557
16257SOL     OW50777   3.353   1.235   4.934 -0.6638  0.3538 -0.6961
16257SOL    HW150778   3.386   1.159   4.981  0.3088  0.5733 -0.9936
16257SOL    HW250779   3.259   1.235   4.950 -0.3798  0.4134  1.2241
16258SOL     OW50780   4.153   1.098   2.343  1.0246 -0.3657 -1.1860
16258SOL    HW150781   4.157   1.139   2.429  0.8613 -0.8084 -0.9607
16258SOL    HW250782   4.094   1.152   2.292  2.4828  0.9140 -1.5837
16259SOL     OW50783   1.590   0.455   5.694  0.3230  0.6278 -0.4436
16259SOL    HW150784   1.635   0.413   5.767 -0.8255 -0.4094 -0.3052
16259SOL    HW250785   1.503   0.477   5.728 -1.2181 -2.2541 -2.1557
16260SOL     OW50786   4.870  10.330   6.498 -0.2133 -0.0821  0.8102
16260SOL    HW150787   4.880  10.262   6.564  2.1374  0.8232  1.4664
16260SOL    HW250788   4.861  10.411   6.547 -4.3377  0.1421  0.0899
16261SOL     OW50789   6.593   9.196   9.300  1.0536 -0.0095 -0.0194
16261SOL    HW150790   6.542   9.121   9.328 -0.0863  1.0616  0.8565
16261SOL    HW250791   6.666   9.200   9.362  0.4266  0.3331  0.7081
16262SOL     OW50792   9.611   2.542   5.379 -0.7164 -0.5362 -0.0300
16262SOL    HW150793   9.632   2.608   5.313 -0.5953 -0.6566 -0.1119
16262SOL    HW250794   9.691   2.533   5.431 -0.5749 -0.9704 -0.3209
16263SOL     OW50795   1.829   9.908   5.743 -0.0819 -0.2465  0.3584
16263SOL    HW150796   1.909   9.858   5.754 -0.8175 -1.6967 -0.6161
16263SOL    HW250797   1.834   9.944   5.654 -0.4834 -0.3143  0.3028
16264SOL     OW50798   5.486   3.161  10.204 -0.0237 -0.0499 -0.2449
16264SOL    HW150799   5.511   3.080  10.158 -1.9136 -0.6086 -0.3688
16264SOL    HW250800   5.397   3.144  10.235 -0.2217  1.7656  0.2709
16265SOL     OW50801   0.175  11.176   9.687 -0.1314 -0.3127  0.0409
16265SOL    HW150802   0.129  11.199   9.768 -0.3594 -0.5628 -0.0159
16265SOL    HW250803   0.105  11.166   9.622  0.0534 -0.0619 -0.2016
16266SOL     OW50804   2.479   4.982   0.222  0.3888 -0.4516  0.4405
16266SOL    HW150805   2.547   4.922   0.190  0.1764 -0.8716  0.7641
16266SOL    HW250806   2.515   5.069   0.207  1.3997 -0.6686  1.4278
16267SOL     OW50807   3.034   9.750   0.023  0.1874 -0.3052  0.1905
16267SOL    HW150808   3.104   9.685   0.022 -0.0402 -0.8241  3.9955
16267SOL    HW250809   2.975   9.720   0.092 -1.5967  2.3599 -0.0429
16268SOL     OW50810   8.136   8.908   0.274  0.7315 -0.2265  1.0073
16268SOL    HW150811   8.221   8.906   0.319  0.0606  2.8438  2.6806
16268SOL    HW250812   8.073   8.931   0.343 -1.1020 -0.0859 -0.6321
16269SOL     OW50813   0.203   0.746   8.199  0.4643 -0.4310 -0.7082
16269SOL    HW150814   0.131   0.763   8.261  0.4999  1.1799 -1.0804
16269SOL    HW250815   0.175   0.787   8.118  1.1817 -1.0581 -1.2849
16270SOL     OW50816   7.027   2.104  11.234  0.8978 -0.0819 -0.0777
16270SOL    HW150817   7.092   2.041  11.267  1.5564  0.4208 -0.3945
16270SOL    HW250818   7.063   2.135  11.151  1.8606  2.5624  1.1958
16271SOL     OW50819   6.645   8.665   4.930  0.6650  0.5109  0.1278
16271SOL    HW150820   6.558   8.689   4.900  0.4735 -0.4327 -0.1217
16271SOL    HW250821   6.692   8.748   4.939  0.5216  0.8944 -2.0997
16272SOL     OW50822   3.278   3.398  10.252 -0.3787  0.2967  0.6865
16272SOL    HW150823   3.336   3.335  10.208 -1.0076  0.0840  0.1525
16272SOL    HW250824   3.327   3.424  10.330 -0.7241 -2.0161  1.7604
16273SOL     OW50825   5.329  10.411   5.259  0.8796 -1.0014 -0.0633
16273SOL    HW150826   5.376  10.436   5.338  1.2942  0.2137 -0.6581
16273SOL    HW250827   5.321  10.493   5.210 -0.7734 -1.4160 -0.5501
16274SOL     OW50828   3.109   2.099   6.420 -0.2028  0.3590 -0.0587
16274SOL    HW150829   3.086   2.065   6.507  0.3924 -0.2658 -0.1335
16274SOL    HW250830   3.063   2.183   6.414 -1.9688 -0.5503  0.0253
16275SOL     OW50831   0.025   1.280   5.220  0.6584  0.0791  0.9533
16275SOL    HW150832  -0.015   1.365   5.237 -0.9025  0.3207 -3.0158
16275SOL    HW250833  -0.049   1.223   5.199  1.9689 -1.0819 -0.7175
16276SOL     OW50834  11.186   8.213  10.020 -0.3725 -0.5309  0.0294
16276SOL    HW150835  11.237   8.204   9.940 -0.8548  0.8164 -0.4530
16276SOL    HW250836  11.115   8.149  10.009  1.1591 -2.4409  0.7263
16277SOL     OW50837   0.489   1.179   2.206  0.8580  0.2896 -0.6696
16277SOL    HW150838   0.451   1.131   2.132  3.3541 -0.2292 -1.7486
16277SOL    HW250839   0.549   1.241   2.165  2.5774 -0.2425  0.8888
16278SOL     OW50840   3.540   9.855  10.558 -0.7843  0.1314 -0.0772
16278SOL    HW150841   3.545   9.932  10.501  3.2990  0.9044  0.9701
16278SOL    HW250842   3.524   9.892  10.645 -2.5131 -0.6062 -0.0655
16279SOL     OW50843   6.907  10.796   7.379  1.0414  0.0871 -0.1247
16279SOL    HW150844   6.854  10.837   7.310  0.5413 -0.1032  0.1403
16279SOL    HW250845   6.848  10.733   7.420  2.0413 -1.5173 -1.0628
16280SOL     OW50846   2.057   1.753  11.205 -0.4681  0.2497 -0.1678
16280SOL    HW150847   2.060   1.669  11.252 -2.4344  0.7302  0.9193
16280SOL    HW250848   2.145   1.790  11.217 -0.1398 -0.8211  0.9265
16281SOL     OW50849  10.857   5.403   5.542  0.5505  1.0515  0.3343
16281SOL    HW150850  10.856   5.452   5.624 -1.1724  0.0862  0.9530
16281SOL    HW250851  10.860   5.311   5.570  0.9066  0.7305 -0.7190
16282SOL     OW50852   9.804   4.428  10.542 -0.9434  0.1589 -0.2736
16282SOL    HW150853   9.766   4.513  10.564  0.9770  1.1111 -0.4285
16282SOL    HW250854   9.836   4.438  10.453 -0.0520 -0.4974 -0.0419
16283SOL     OW50855   5.130   3.737   9.372 -0.1239  0.0745 -0.8560
16283SOL    HW150856   5.081   3.819   9.372 -2.2266 -1.0978 -2.1661
16283SOL    HW250857   5.211   3.757   9.325 -1.8632  0.7956 -3.7852
16284SOL     OW50858   1.382   7.339   9.174 -0.3024  0.5869  0.8697
16284SOL    HW150859   1.465   7.386   9.170 -0.0386  0.0463 -0.9772
16284SOL    HW250860   1.323   7.399   9.220  0.5700  1.8596  0.3908
16285SOL     OW50861   8.308   8.315   0.404 -0.5445 -0.4665  0.2365
16285SOL    HW150862   8.217   8.287   0.398 -0.3163 -1.0835 -0.4684
16285SOL    HW250863   8.303   8.411   0.409 -1.2163 -0.4657 -0.2331
16286SOL     OW50864   8.286   6.786  11.175 -0.2294  0.1237 -0.3584
16286SOL    HW150865   8.229   6.709  11.179  1.0872 -0.9581 -1.2879
16286SOL    HW250866   8.327   6.780  11.089  0.0133  1.8185 -0.3877
16287SOL     OW50867   7.577   9.196   4.455  0.1557  0.2983  0.0110
16287SOL    HW150868   7.525   9.121   4.484 -0.1766  0.6594  0.3623
16287SOL    HW250869   7.618   9.166   4.373  0.3570 -0.4021  0.3553
16288SOL     OW50870   0.706   7.823  10.342  0.5489  0.3838  0.1025
16288SOL    HW150871   0.774   7.811  10.408 -0.3699  2.2633  1.4937
16288SOL    HW250872   0.751   7.813  10.259  2.2032  0.0871  0.9976
16289SOL     OW50873  10.906   2.178   1.492 -0.4698 -0.2682 -0.0580
16289SOL    HW150874  10.928   2.100   1.542 -0.0670 -0.5301 -0.6262
16289SOL    HW250875  10.834   2.219   1.541 -0.2962 -0.6811  0.5501
16290SOL     OW50876   0.901   3.084   1.230 -0.3604  0.7035 -0.3090
16290SOL    HW150877   0.888   3.041   1.146  0.8174  0.7767 -0.5385
16290SOL    HW250878   0.971   3.147   1.215  1.3976 -0.7573  1.2228
16291SOL     OW50879   0.291   7.062   4.230  0.5350  0.1116  0.4169
16291SOL    HW150880   0.196   7.073   4.226  0.5975  0.9970  1.0340
16291SOL    HW250881   0.304   6.988   4.290  0.2006 -1.3030 -1.1875
16292SOL     OW50882   2.291   8.216   6.127 -0.1643 -0.0501 -0.4174
16292SOL    HW150883   2.252   8.241   6.044  1.8862  0.1561 -1.3670
16292SOL    HW250884   2.368   8.271   6.136 -0.8469  0.6765  2.1618
16293SOL     OW50885   9.126   5.939   4.882 -0.0064 -0.2614 -0.2019
16293SOL    HW150886   9.070   5.918   4.807 -1.4517 -1.4848  1.1521
16293SOL    HW250887   9.138   5.856   4.928  0.5846  0.5116  1.1085
16294SOL     OW50888   8.399   5.226   9.401 -0.6877  0.1406 -0.3270
16294SOL    HW150889   8.322   5.249   9.454  0.2242  1.4298  0.4782
16294SOL    HW250890   8.392   5.131   9.390 -2.5638  0.2643 -0.5655
16295SOL     OW50891   7.015   1.822  10.047 -0.4507 -0.4837 -0.4920
16295SOL    HW150892   7.057   1.763   9.984  1.0781  0.0323 -0.0001
16295SOL    HW250893   7.058   1.907  10.034 -1.8009  0.2641 -0.3891
16296SOL     OW50894   5.015   5.181   6.800  0.3001 -0.2561  0.1564
16296SOL    HW150895   5.079   5.225   6.857  2.5664  1.2195 -3.2099
16296SOL    HW250896   5.061   5.104   6.767  0.0710  0.3471 -1.6663
16297SOL     OW50897   2.279   7.614   2.872  0.6219  0.3363 -0.7346
16297SOL    HW150898   2.315   7.585   2.956  0.9205  0.0618 -0.9573
16297SOL    HW250899   2.198   7.660   2.896  1.7374  2.1130 -0.1011
16298SOL     OW50900   9.498   1.624   0.302 -0.4987 -0.3324 -0.5978
16298SOL    HW150901   9.536   1.653   0.385 -0.2223 -0.3556 -0.7153
16298SOL    HW250902   9.452   1.543   0.324  0.2328 -0.7601 -0.6153
16299SOL     OW50903  11.023   0.259   2.280 -0.2103  0.1855 -0.1714
16299SOL    HW150904  11.008   0.266   2.186 -0.7831 -0.4400 -0.1296
16299SOL    HW250905  11.117   0.271   2.290  0.0366 -0.9944 -0.9458
16300SOL     OW50906   1.028   0.101  11.256  0.3933  0.1872 -0.6537
16300SOL    HW150907   1.113   0.134  11.229  0.6239  0.1977  0.0671
16300SOL    HW250908   0.967   0.173  11.238  0.5030  0.1161 -1.3312
16301SOL     OW50909   4.738   0.637   8.610 -0.7167 -0.2491  0.4621
16301SOL    HW150910   4.803   0.700   8.580 -0.2511 -1.2353 -0.6764
16301SOL    HW250911   4.710   0.670   8.695  2.0053 -0.3061  1.4733
16302SOL     OW50912   7.555   4.531   7.041 -0.3324 -0.3937  0.5582
16302SOL    HW150913   7.472   4.485   7.055 -0.2262 -1.5056 -1.8526
16302SOL    HW250914   7.595   4.485   6.967  1.9477  0.8044  0.9496
16303SOL     OW50915   9.822   8.145   5.957  0.7706 -1.0091 -0.3835
16303SOL    HW150916   9.859   8.172   5.873 -0.7335 -0.3503 -0.8803
16303SOL    HW250917   9.764   8.072   5.935 -1.8116  0.9008 -0.4614
16304SOL     OW50918   7.547   0.853   2.795 -0.2163 -0.2258  1.2741
16304SOL    HW150919   7.559   0.861   2.700 -0.4152 -2.8249  0.9549
16304SOL    HW250920   7.473   0.911   2.815  0.3894  1.0473  0.0302
16305SOL     OW50921   0.972   5.942   5.191  0.1507 -0.3079 -0.1584
16305SOL    HW150922   0.953   6.032   5.166 -1.6096 -1.0630 -1.8134
16305SOL    HW250923   1.063   5.944   5.220  0.3617  1.8715 -0.7686
16306SOL     OW50924   1.941   7.127  10.130 -0.7929 -0.0020  0.1222
16306SOL    HW150925   1.928   7.084  10.214 -1.9631 -0.3122 -0.1944
16306SOL    HW250926   1.936   7.221  10.150 -0.7866 -0.0701  0.4405
16307SOL     OW50927   1.226  10.836   2.575 -0.1482  0.1264 -0.5034
16307SOL    HW150928   1.172  10.776   2.626 -0.4502  0.5681 -0.2948
16307SOL    HW250929   1.168  10.911   2.558  0.9144  1.4362  1.2837
16308SOL     OW50930   9.744   6.553   6.557  1.0081 -0.1830 -0.0240
16308SOL    HW150931   9.676   6.544   6.623 -0.0647 -0.7583 -1.1516
16308SOL    HW250932   9.789   6.468   6.556 -1.1391 -1.4361 -2.2310
16309SOL     OW50933  11.258   7.748  10.311 -0.1556 -0.8332  0.2138
16309SOL    HW150934  11.341   7.724  10.352  1.1475 -0.1982 -1.9019
16309SOL    HW250935  11.203   7.778  10.383  1.3584 -1.5047  1.7033
16310SOL     OW50936   2.125   2.827   2.599  0.0389  0.0560 -0.3199
16310SOL    HW150937   2.158   2.755   2.544  0.4650  0.9909 -1.3295
16310SOL    HW250938   2.042   2.795   2.632 -0.1380 -0.6245 -1.3602
16311SOL     OW50939   7.975  10.319   1.607 -0.3104 -0.1003 -0.0370
16311SOL    HW150940   8.053  10.370   1.626 -0.2477  0.3340 -1.3420
16311SOL    HW250941   7.958  10.268   1.687  0.8109  0.4244  0.5441
16312SOL     OW50942   1.538   9.145   2.790 -0.5394  0.3886  0.6790
16312SOL    HW150943   1.503   9.077   2.848  0.5756 -0.2134  0.6871
16312SOL    HW250944   1.618   9.175   2.833 -0.4093  0.8862  0.1082
16313SOL     OW50945   5.304   0.594   6.112 -0.0544 -0.4738 -0.4236
16313SOL    HW150946   5.304   0.685   6.081  0.4165 -0.3912 -0.1874
16313SOL    HW250947   5.260   0.545   6.043  0.2131 -0.1555 -0.8222
16314SOL     OW50948  10.704   9.978   8.067  0.1325  0.2481  0.2749
16314SOL    HW150949  10.772   9.932   8.115  0.1056 -0.1297 -0.0412
16314SOL    HW250950  10.660   9.910   8.016  0.6155  0.7245 -0.8291
16315SOL     OW50951   3.027   9.765   1.388 -0.2140  0.5002 -0.2930
16315SOL    HW150952   3.100   9.826   1.401 -1.1397  1.9138 -1.4170
16315SOL    HW250953   3.054   9.712   1.312  1.0544 -1.3153  1.3128
16316SOL     OW50954   5.641   9.026   2.430  0.0718 -0.6762  0.6175
16316SOL    HW150955   5.724   9.052   2.391  0.2288 -0.5973  0.9935
16316SOL    HW250956   5.654   8.935   2.457 -0.2844 -0.9697 -0.1779
16317SOL     OW50957   2.797   7.307   0.957  0.0956 -0.5576 -0.2511
16317SOL    HW150958   2.741   7.357   0.898  1.3032  0.4944 -0.5750
16317SOL    HW250959   2.791   7.354   1.041  1.2993  0.2254 -0.5777
16318SOL     OW50960   1.858   2.682   9.510  0.0135 -0.0676  0.1442
16318SOL    HW150961   1.890   2.766   9.543  0.1660 -0.1800  0.2831
16318SOL    HW250962   1.913   2.617   9.554 -0.6021 -0.2758  0.6163
16319SOL     OW50963   1.379   5.819   5.833 -0.3853  0.0878 -0.2104
16319SOL    HW150964   1.352   5.741   5.882 -1.4118  1.0206  0.7283
16319SOL    HW250965   1.384   5.889   5.898 -0.4012  1.0356 -1.1983
16320SOL     OW50966   8.421   9.094   5.361 -0.2298  0.1933 -0.3614
16320SOL    HW150967   8.383   9.095   5.273 -3.0123 -0.3197  0.7092
16320SOL    HW250968   8.514   9.081   5.347 -0.9327 -4.0884 -3.1771
16321SOL     OW50969   6.150   2.863   8.688 -0.0738  0.4883  0.9514
16321SOL    HW150970   6.237   2.830   8.711 -0.3175 -0.4891  0.5054
16321SOL    HW250971   6.139   2.839   8.596 -1.8078 -1.6309  1.6471
16322SOL     OW50972   2.648   9.782   7.582  0.6345 -0.6888  0.0896
16322SOL    HW150973   2.568   9.805   7.629 -0.0340 -0.8734 -0.9311
16322SOL    HW250974   2.699   9.732   7.645  1.0898  1.4996  1.6017
16323SOL     OW50975   5.751  11.197   1.712 -0.2392 -0.7789  0.0007
16323SOL    HW150976   5.668  11.240   1.693  0.7132  0.9863 -0.4504
16323SOL    HW250977   5.800  11.262   1.763  0.9614 -1.6745  0.0324
16324SOL     OW50978   3.217   5.580   8.692  0.1888 -0.2750  0.4339
16324SOL    HW150979   3.179   5.648   8.637  0.9931  0.9000  1.2884
16324SOL    HW250980   3.143   5.524   8.715 -0.1848 -0.7760 -1.7504
16325SOL     OW50981   8.084   1.202   4.118 -0.2383 -0.9241  0.0906
16325SOL    HW150982   8.128   1.286   4.106 -2.7855  0.6750  1.1577
16325SOL    HW250983   8.123   1.165   4.197  1.5830 -1.2822 -0.9216
16326SOL     OW50984   2.251  10.160   0.753  0.1886 -0.5861 -0.4266
16326SOL    HW150985   2.200  10.100   0.808  1.3508  0.3212  1.7812
16326SOL    HW250986   2.331  10.112   0.733 -0.5277 -1.1845 -2.0275
16327SOL     OW50987   0.512   1.054  10.201 -0.1021 -0.3892 -0.0947
16327SOL    HW150988   0.454   1.078  10.129  0.1617 -0.7096 -0.4176
16327SOL    HW250989   0.546   0.968  10.177  1.6975  0.4423 -0.6716
16328SOL     OW50990   2.187   1.373   9.682 -0.0142  0.8690  0.0963
16328SOL    HW150991   2.273   1.352   9.646  0.4064  2.8801 -0.2095
16328SOL    HW250992   2.182   1.324   9.764  1.1887  0.3055 -0.1466
16329SOL     OW50993   0.565   6.810   9.599  0.0703 -0.6414 -0.0378
16329SOL    HW150994   0.659   6.817   9.583  0.2651 -1.1069  0.8238
16329SOL    HW250995   0.558   6.761   9.681 -0.8909  0.7419  0.7365
16330SOL     OW50996   0.441   5.715   9.452  0.3905 -0.2108  0.1426
16330SOL    HW150997   0.451   5.799   9.407 -0.8499 -0.3714 -0.4728
16330SOL    HW250998   0.492   5.653   9.400 -1.4673 -0.5058 -1.4217
16331SOL     OW50999  10.010   5.659   0.202  0.1228 -0.7282 -0.0651
16331SOL    HW151000   9.954   5.591   0.163 -0.4645 -1.7201  2.3562
16331SOL    HW251001  10.085   5.611   0.236  2.7571  0.5891 -3.3988
16332SOL     OW51002   8.976   2.742   0.880 -0.5373 -0.0455  0.3944
16332SOL    HW151003   9.047   2.738   0.815  0.5950 -2.1758  1.6608
16332SOL    HW251004   8.982   2.830   0.916 -0.2023  0.6671 -1.2838
16333SOL     OW51005   3.955   6.807   1.191 -0.5625 -0.7659  0.3157
16333SOL    HW151006   4.045   6.827   1.219  0.7318  0.0889 -3.7190
16333SOL    HW251007   3.908   6.890   1.200  0.1146 -0.2319 -0.8097
16334SOL     OW51008   3.152   2.234   7.317  0.2992 -0.4080  0.1358
16334SOL    HW151009   3.225   2.217   7.378  0.0527 -1.9950  0.0483
16334SOL    HW251010   3.150   2.329   7.307  1.1276 -0.1927  1.6596
16335SOL     OW51011   4.958   3.901   2.462 -0.5127  0.1265  0.5523
16335SOL    HW151012   5.043   3.929   2.428 -0.0897  0.8920  2.1605
16335SOL    HW251013   4.918   3.854   2.389  0.7245  0.9003 -0.6803
16336SOL     OW51014   0.087  10.744   2.146  0.2339  0.3972  0.3445
16336SOL    HW151015   0.121  10.820   2.098 -2.5270  1.4048 -0.2004
16336SOL    HW251016   0.100  10.766   2.238  0.2128  1.1581  0.1709
16337SOL     OW51017   5.575   9.161   5.347  0.1860  0.7805  0.2601
16337SOL    HW151018   5.532   9.153   5.262 -1.5393  1.0377  1.0622
16337SOL    HW251019   5.590   9.071   5.376 -0.3064  0.6825  0.2067
16338SOL     OW51020   0.742   4.540   5.211 -0.2026  0.0881 -0.1295
16338SOL    HW151021   0.693   4.595   5.272  0.2303 -0.9134  1.1604
16338SOL    HW251022   0.676   4.481   5.174 -0.0883 -0.9656  1.2742
16339SOL     OW51023   3.649   9.241   9.468  0.2248  0.5380  0.7544
16339SOL    HW151024   3.686   9.257   9.381 -2.8034  1.3416 -0.4881
16339SOL    HW251025   3.706   9.290   9.528  0.4264  2.7797 -1.1672
16340SOL     OW51026   0.879   4.434   9.614 -0.1547 -0.2218  0.4412
16340SOL    HW151027   0.857   4.524   9.588 -0.0390 -0.0962  0.7671
16340SOL    HW251028   0.939   4.403   9.546 -0.1711 -0.0395  0.3432
16341SOL     OW51029  10.497   9.615   3.274  0.3477 -0.5957  0.7199
16341SOL    HW151030  10.418   9.624   3.326 -0.5508  0.2898 -0.7462
16341SOL    HW251031  10.567   9.646   3.331 -0.6587  0.7984  1.2357
16342SOL     OW51032   1.535  10.434   5.870 -0.1494 -0.0510 -0.7727
16342SOL    HW151033   1.506  10.425   5.779  0.5939  0.2190 -1.0499
16342SOL    HW251034   1.550  10.345   5.899  0.1788 -0.1107 -1.1119
16343SOL     OW51035   4.219  10.828   8.170 -0.0740  0.6225  0.7889
16343SOL    HW151036   4.236  10.772   8.246  2.9662 -0.1128 -0.2854
16343SOL    HW251037   4.268  10.908   8.189 -1.4220  1.4998  0.6900
16344SOL     OW51038   2.452   7.236   5.054 -0.3039  0.6828 -0.5084
16344SOL    HW151039   2.509   7.159   5.047 -2.0169 -0.4775 -2.8625
16344SOL    HW251040   2.500   7.294   5.113  2.4184 -0.9820 -0.8505
16345SOL     OW51041   1.699   5.629   9.267 -0.3639 -0.2470 -0.3931
16345SOL    HW151042   1.785   5.619   9.225 -1.0464 -2.6075 -1.3777
16345SOL    HW251043   1.676   5.541   9.295 -1.8956  0.5784  1.0825
16346SOL     OW51044   6.005   0.335   3.820  0.3867 -0.0580  0.6600
16346SOL    HW151045   6.077   0.273   3.830 -0.0893 -0.6788  0.2708
16346SOL    HW251046   6.008   0.362   3.728 -0.8083 -1.2671  0.2328
16347SOL     OW51047   2.407   0.823  10.754 -0.2542 -0.4567  0.2134
16347SOL    HW151048   2.474   0.888  10.738  1.7437 -1.6895  2.8052
16347SOL    HW251049   2.431   0.749  10.698 -0.6682 -0.1841 -0.3411
16348SOL     OW51050  10.839   9.314   6.182  0.8169  0.3775 -0.8579
16348SOL    HW151051  10.783   9.344   6.110 -3.4039 -0.3352  1.7421
16348SOL    HW251052  10.807   9.225   6.201  3.4906 -0.4339  0.3689
16349SOL     OW51053   4.645  10.189   2.544 -0.3383 -0.2851  0.4646
16349SOL    HW151054   4.595  10.254   2.594  1.0345  0.2073  1.2511
16349SOL    HW251055   4.708  10.153   2.607  1.0474 -0.0774 -0.7444
16350SOL     OW51056   8.408   6.311   8.153 -0.3112  0.0133 -1.1545
16350SOL    HW151057   8.352   6.312   8.075  1.3850 -1.1368 -2.4551
16350SOL    HW251058   8.480   6.252   8.130 -0.0787 -0.8893  1.5345
16351SOL     OW51059   4.633   3.962   2.491 -0.5241  0.1359 -0.4602
16351SOL    HW151060   4.647   3.980   2.398  0.4322  0.3293 -0.2858
16351SOL    HW251061   4.541   3.937   2.497 -0.4702 -0.3770 -1.5382
16352SOL     OW51062   0.032   9.413  10.921  0.7168  0.0801  0.6929
16352SOL    HW151063  -0.016   9.340  10.882  0.4281  0.4693  0.3056
16352SOL    HW251064   0.018   9.486  10.861  2.4700  0.0117  0.1310
16353SOL     OW51065   3.138   6.073   7.540  0.4909  0.3093  0.6538
16353SOL    HW151066   3.222   6.088   7.585 -0.0936  2.0015  1.2370
16353SOL    HW251067   3.162   6.067   7.447  1.2093  1.4141  0.7475
16354SOL     OW51068   4.193   3.302   2.452  0.2512  0.2530 -1.2026
16354SOL    HW151069   4.268   3.244   2.440  0.4563 -0.0697  1.0998
16354SOL    HW251070   4.231   3.389   2.462  0.4536  0.0034  0.6247
16355SOL     OW51071   4.457  10.808   2.143  0.2023 -0.2384 -0.5451
16355SOL    HW151072   4.441  10.778   2.233  1.6044  0.6476  0.0267
16355SOL    HW251073   4.424  10.736   2.088  0.5577 -1.4064  0.7084
16356SOL     OW51074   8.915   8.365   2.254  0.5000 -0.1852  0.0085
16356SOL    HW151075   8.989   8.424   2.271  0.7928 -0.6411  0.3371
16356SOL    HW251076   8.916   8.303   2.327 -2.0548  1.5856  1.7412
16357SOL     OW51077   1.204   1.290   0.268  0.8665  0.5474 -0.8558
16357SOL    HW151078   1.198   1.281   0.173  1.9783  0.1065 -0.9064
16357SOL    HW251079   1.273   1.355   0.282 -0.3769  1.7794 -0.3540
16358SOL     OW51080   1.405   3.811   9.808  0.2068  0.4394 -0.0129
16358SOL    HW151081   1.353   3.770   9.739 -0.2059  0.5001  0.2544
16358SOL    HW251082   1.380   3.903   9.806 -0.4015  0.3047  0.7215
16359SOL     OW51083   4.724   4.433   1.314 -0.1776  0.3095 -0.4640
16359SOL    HW151084   4.660   4.491   1.272  0.9920  0.4508 -2.1459
16359SOL    HW251085   4.727   4.356   1.258  1.8376  0.7286 -0.9930
16360SOL     OW51086   2.606   0.996   5.469  0.9285 -0.0416  0.4785
16360SOL    HW151087   2.694   0.960   5.477  1.0660 -0.5597 -2.2366
16360SOL    HW251088   2.573   0.958   5.387 -1.1014  1.6290  0.4515
16361SOL     OW51089  10.562   0.352   6.729 -0.4964 -0.2708 -0.1680
16361SOL    HW151090  10.473   0.352   6.763 -1.0979 -1.7214 -1.6007
16361SOL    HW251091  10.595   0.264   6.749 -0.0619 -0.3763 -1.2767
16362SOL     OW51092  10.045   0.329   2.179 -0.3526  0.0911 -0.1882
16362SOL    HW151093   9.981   0.322   2.108 -1.2291 -1.8727  0.7017
16362SOL    HW251094  10.022   0.410   2.225  0.8901  1.9792 -2.6795
16363SOL     OW51095   5.789   8.198   5.507 -0.2309 -0.1290  0.3172
16363SOL    HW151096   5.836   8.254   5.568  0.0476  1.5703 -1.3592
16363SOL    HW251097   5.794   8.244   5.423 -3.1816 -0.8308 -0.3838
16364SOL     OW51098   6.016   3.097   9.416  0.5657 -0.2624 -0.2029
16364SOL    HW151099   5.975   3.013   9.436  1.3958 -0.5922  0.1928
16364SOL    HW251100   6.027   3.139   9.501 -0.1958  0.4227 -0.4360
16365SOL     OW51101  10.534   7.163   9.680 -0.3158 -0.1387 -0.1424
16365SOL    HW151102  10.607   7.115   9.641  0.1308 -0.9671  1.5872
16365SOL    HW251103  10.572   7.204   9.758 -1.1420  1.4953 -0.5504
16366SOL     OW51104   0.455   2.610   9.781  0.4080 -0.3136 -0.1981
16366SOL    HW151105   0.487   2.696   9.755 -0.7340  0.0948 -0.3497
16366SOL    HW251106   0.435   2.618   9.874  0.3490 -0.4276 -0.2000
16367SOL     OW51107   9.611   9.594   4.927  0.1852 -0.0037 -0.6054
16367SOL    HW151108   9.628   9.500   4.934 -0.9824 -0.0975  2.1008
16367SOL    HW251109   9.657   9.632   5.002 -2.9858  0.9378  1.0294
16368SOL     OW51110   8.930   1.176   2.069  0.1674  0.6452 -0.1703
16368SOL    HW151111   9.006   1.117   2.070 -1.0128 -0.9446  0.5034
16368SOL    HW251112   8.967   1.262   2.086  2.3624  0.7008 -3.9486
16369SOL     OW51113  10.111   7.774   0.196  0.1715  0.3946 -0.1934
16369SOL    HW151114  10.049   7.712   0.158  2.7885 -1.0105 -2.5892
16369SOL    HW251115  10.175   7.719   0.242  0.0296  1.7409  1.7272
16370SOL     OW51116   5.652   2.357   9.685  0.0649  0.6443 -0.2878
16370SOL    HW151117   5.685   2.446   9.691  2.6474 -0.3248  2.2693
16370SOL    HW251118   5.719   2.303   9.728 -3.0084 -2.0909  1.5134
16371SOL     OW51119   0.881   4.026   9.330 -0.0377 -0.7478 -0.0834
16371SOL    HW151120   0.875   4.119   9.308  2.5949 -0.3103  0.7372
16371SOL    HW251121   0.878   4.025   9.426 -1.0116 -1.6219 -0.1127
16372SOL     OW51122   7.316   9.397  10.286 -0.2038 -0.2282  0.2375
16372SOL    HW151123   7.324   9.302  10.283 -0.3626 -0.3476  2.3300
16372SOL    HW251124   7.233   9.415  10.242 -0.1677 -1.0353 -0.1843
16373SOL     OW51125  10.248   3.699   1.308  0.1850  0.3523 -0.0224
16373SOL    HW151126  10.312   3.637   1.342 -0.0001  0.2125  0.0658
16373SOL    HW251127  10.294   3.743   1.236 -0.1188 -0.7961 -0.9389
16374SOL     OW51128   0.368   4.037   0.289 -0.4092 -0.3321  0.4102
16374SOL    HW151129   0.379   4.063   0.198 -3.6902 -1.2676 -0.4063
16374SOL    HW251130   0.333   4.115   0.332  1.9408  0.3769  1.1643
16375SOL     OW51131   6.959   5.218   2.620 -0.1806 -0.4014  0.4362
16375SOL    HW151132   6.989   5.265   2.698  0.4699  1.1570 -0.6966
16375SOL    HW251133   7.010   5.256   2.548 -0.6072 -1.9444 -0.7396
16376SOL     OW51134   4.500   4.618   4.213  0.0273 -0.0169  0.2983
16376SOL    HW151135   4.443   4.566   4.269  0.8502  1.2763  2.4708
16376SOL    HW251136   4.546   4.677   4.273  3.5598 -0.8522 -1.3244
16377SOL     OW51137   0.512   8.391   6.706 -0.4193  0.1903 -0.1641
16377SOL    HW151138   0.539   8.346   6.786  2.7882  0.4531 -0.9686
16377SOL    HW251139   0.490   8.480   6.735 -1.7883 -0.4039  0.7185
16378SOL     OW51140   5.603   9.529   8.589  0.4993  0.1879 -0.3175
16378SOL    HW151141   5.560   9.537   8.674  0.9758  1.3499 -0.1581
16378SOL    HW251142   5.567   9.449   8.551 -1.7803  1.0684 -0.1950
16379SOL     OW51143   0.325   0.243  11.234 -0.2278  0.1815  0.1627
16379SOL    HW151144   0.382   0.290  11.295 -1.1700 -1.4144  2.4037
16379SOL    HW251145   0.321   0.299  11.157  1.5159  2.0131  1.3081
16380SOL     OW51146   9.379   5.646   4.989  0.9146 -0.1966 -1.1561
16380SOL    HW151147   9.286   5.630   4.974  0.9997 -1.5241 -0.3700
16380SOL    HW251148   9.384   5.740   5.009 -0.3309 -0.2190 -0.6386
16381SOL     OW51149   5.064   8.088   1.587 -0.3090 -0.5125  0.0998
16381SOL    HW151150   5.054   8.063   1.495 -0.9928  1.2595 -0.3390
16381SOL    HW251151   5.113   8.170   1.584 -0.6403 -0.2547  1.2972
16382SOL     OW51152   9.223   0.597   2.654  0.1675  0.1545 -0.0986
16382SOL    HW151153   9.283   0.657   2.611  2.3800 -0.7930  1.4841
16382SOL    HW251154   9.174   0.651   2.715  1.8011  0.4905  0.9661
16383SOL     OW51155   5.469   8.311   4.334  0.1253  0.1341  0.4684
16383SOL    HW151156   5.539   8.370   4.308  0.6121 -1.1079 -1.1469
16383SOL    HW251157   5.404   8.318   4.264  0.5473 -1.7776 -0.1639
16384SOL     OW51158   7.938   5.431   3.336 -0.3541  0.0491 -0.0043
16384SOL    HW151159   7.932   5.512   3.286 -1.3424 -0.3400 -0.5673
16384SOL    HW251160   7.980   5.455   3.418  2.2595  0.5194 -1.3995
16385SOL     OW51161   1.377   5.734  11.261  0.7471  0.1055  0.5547
16385SOL    HW151162   1.419   5.703  11.181  0.7920  0.1324  0.5677
16385SOL    HW251163   1.312   5.667  11.282  2.0213 -0.8743  1.5479
16386SOL     OW51164   9.578   8.004   4.588 -0.4378  0.5588 -0.7151
16386SOL    HW151165   9.543   7.934   4.644  1.3826 -1.4639 -1.9189
16386SOL    HW251166   9.502   8.039   4.542 -1.5470  0.1535  0.7351
16387SOL     OW51167   9.071  10.072   6.301 -0.1771  0.0768 -0.0142
16387SOL    HW151168   9.137  10.109   6.242 -0.3402  1.0306  0.3917
16387SOL    HW251169   9.051   9.986   6.263  0.5966  0.1742 -0.6704
16388SOL     OW51170   6.257   7.197  10.807 -0.0009  0.6046 -0.4438
16388SOL    HW151171   6.260   7.155  10.893 -3.0250  1.9455  0.4609
16388SOL    HW251172   6.334   7.253  10.804  1.0958 -0.7941  0.6344
16389SOL     OW51173   7.544   5.409   5.819 -0.4762 -0.3498 -0.7926
16389SOL    HW151174   7.634   5.383   5.803 -0.2879 -0.3691  0.2019
16389SOL    HW251175   7.544   5.504   5.806 -0.1083 -0.2295  0.0423
16390SOL     OW51176   3.165   0.057  10.502 -0.1205  0.2124  0.1092
16390SOL    HW151177   3.083   0.021  10.534  1.5524 -1.6595  2.7469
16390SOL    HW251178   3.181   0.133  10.558  0.5257 -0.1813  0.4679
16391SOL     OW51179   2.759   9.712  10.976 -0.3610 -0.1952  0.2389
16391SOL    HW151180   2.754   9.682  10.886 -0.2593  1.1718 -0.2450
16391SOL    HW251181   2.847   9.749  10.984 -1.1779  1.8810  0.1522
16392SOL     OW51182   2.240   4.948   9.182  0.0321  0.2426 -0.6004
16392SOL    HW151183   2.229   4.947   9.087  0.2008  0.0182 -0.6174
16392SOL    HW251184   2.156   4.918   9.217 -0.7994  2.3712 -0.6032
16393SOL     OW51185   4.496   8.889   1.691 -0.0328 -0.0486  0.4707
16393SOL    HW151186   4.500   8.847   1.605  1.0685 -0.0952  0.5323
16393SOL    HW251187   4.576   8.859   1.736  0.7880  2.0925  0.5349
16394SOL     OW51188   8.348   3.009   7.584 -0.2352  0.3319  0.1261
16394SOL    HW151189   8.328   2.988   7.676 -1.6563 -1.8841 -0.5973
16394SOL    HW251190   8.291   3.083   7.564 -0.8862  0.0068  0.7060
16395SOL     OW51191   7.547   8.380   0.045 -0.0740 -0.2926  0.3542
16395SOL    HW151192   7.592   8.301   0.074 -0.0398 -0.0321  1.0117
16395SOL    HW251193   7.483   8.348  -0.019 -1.2522 -1.0996  1.8643
16396SOL     OW51194   9.769   8.681  10.065  0.7731 -0.4003  0.3314
16396SOL    HW151195   9.783   8.753  10.127 -0.4853  0.1684 -0.0221
16396SOL    HW251196   9.681   8.651  10.083  0.9889 -1.3099 -0.1020
16397SOL     OW51197   7.645   5.146   6.350 -0.5685  0.0231 -0.7580
16397SOL    HW151198   7.593   5.166   6.273  2.1340  0.8919 -2.5209
16397SOL    HW251199   7.659   5.051   6.346 -0.5971  0.0375 -1.2578
16398SOL     OW51200   7.141   1.256   3.721  0.1356 -0.3211 -0.3071
16398SOL    HW151201   7.131   1.254   3.626 -0.1070  1.0859 -0.3301
16398SOL    HW251202   7.235   1.265   3.735  0.1996 -0.8285 -0.4058
16399SOL     OW51203   1.948   4.657   5.369  0.5307  0.1910  0.5081
16399SOL    HW151204   1.996   4.598   5.428  1.1979  0.0802 -0.1370
16399SOL    HW251205   2.014   4.721   5.341  0.0610  0.6161  0.3695
16400SOL     OW51206   7.304   8.750   1.583  0.5111 -0.2619 -0.2987
16400SOL    HW151207   7.274   8.839   1.601  2.2870  0.1412  0.9653
16400SOL    HW251208   7.224   8.697   1.579 -0.5662  1.3480 -0.9734
16401SOL     OW51209   6.321   2.555   3.162 -0.3890  0.1533  0.4157
16401SOL    HW151210   6.306   2.627   3.223  0.5407  0.1927  0.6209
16401SOL    HW251211   6.411   2.528   3.179  0.2781  0.8509 -1.6598
16402SOL     OW51212   9.615   0.545   2.177  0.4223  0.6133 -0.7624
16402SOL    HW151213   9.554   0.554   2.250 -0.3822  0.4573 -1.4071
16402SOL    HW251214   9.569   0.491   2.113  1.6349 -0.3727 -0.8406
16403SOL     OW51215   5.667   3.530   1.701  0.4460 -0.5149  0.1371
16403SOL    HW151216   5.584   3.503   1.661 -0.3199 -0.3369  1.5325
16403SOL    HW251217   5.715   3.572   1.630 -0.4889 -0.9666 -0.7977
16404SOL     OW51218   2.456   9.886   1.202  0.2486 -0.2990  0.0078
16404SOL    HW151219   2.496   9.879   1.115 -0.2196 -0.8337 -0.1703
16404SOL    HW251220   2.432   9.979   1.209  0.4772 -0.2094 -0.3478
16405SOL     OW51221   7.038   4.339  10.431  0.0917  0.2023 -0.4239
16405SOL    HW151222   7.125   4.330  10.471  0.0887 -0.7557 -0.6076
16405SOL    HW251223   7.041   4.279  10.356 -0.9863 -0.3991  0.0021
16406SOL     OW51224   5.154  10.827   3.124  0.0321 -0.2714 -0.2212
16406SOL    HW151225   5.091  10.879   3.074 -1.6152  0.2893  2.2479
16406SOL    HW251226   5.161  10.744   3.076  0.4223  1.0803 -2.6200
16407SOL     OW51227  10.119   9.490   3.533  0.1238 -0.0191  0.4753
16407SOL    HW151228  10.169   9.460   3.608  0.6511 -0.1330  0.0833
16407SOL    HW251229  10.044   9.430   3.528 -0.5797  0.7337  1.6341
16408SOL     OW51230   3.033   3.363   1.332  0.1142 -0.1678 -0.5231
16408SOL    HW151231   3.081   3.380   1.413  0.2037 -0.6469 -0.4722
16408SOL    HW251232   2.961   3.425   1.333  1.3473  1.3225 -1.1333
16409SOL     OW51233   0.642   5.903   9.226 -0.5880  0.2622 -0.5311
16409SOL    HW151234   0.685   5.875   9.307  0.6446  1.6137 -0.6580
16409SOL    HW251235   0.564   5.950   9.256 -0.0098  0.9721 -0.0820
16410SOL     OW51236   4.482   6.528   9.226 -0.0833  0.1941 -0.0638
16410SOL    HW151237   4.529   6.611   9.230 -2.7161  1.9359 -1.9975
16410SOL    HW251238   4.390   6.552   9.213 -0.6942 -2.9199 -3.6359
16411SOL     OW51239   0.656   9.529   3.566  0.5675 -0.5055  0.0807
16411SOL    HW151240   0.738   9.515   3.519 -0.4155  0.7423 -2.1694
16411SOL    HW251241   0.653   9.623   3.582  0.0505 -0.6839  1.1139
16412SOL     OW51242   7.996   7.332   3.785  1.0837  0.7251 -0.0297
16412SOL    HW151243   7.996   7.428   3.791  1.3301  0.7300 -0.0874
16412SOL    HW251244   8.076   7.306   3.831 -0.5966  0.3607  2.9780
16413SOL     OW51245   8.890   0.267  10.922  0.7033 -0.4171 -0.2534
16413SOL    HW151246   8.940   0.338  10.884  1.9882 -1.1326  0.0499
16413SOL    HW251247   8.881   0.203  10.852 -0.4694  0.0314 -0.5329
16414SOL     OW51248  10.125   2.841   7.519  0.0033  0.5655  0.0542
16414SOL    HW151249  10.209   2.826   7.476 -0.6703  0.2280 -1.2100
16414SOL    HW251250  10.094   2.754   7.543  1.0598  0.8394  2.6926
16415SOL     OW51251   8.107   0.708   2.977  0.0619 -0.1644  0.8727
16415SOL    HW151252   8.018   0.707   2.944  0.0882 -2.9831  0.6255
16415SOL    HW251253   8.098   0.699   3.072 -0.0132 -2.6995  0.7066
16416SOL     OW51254   1.584   5.098   0.966  0.1742  0.3019 -0.7005
16416SOL    HW151255   1.522   5.028   0.946  0.7533 -0.8527  1.3069
16416SOL    HW251256   1.637   5.107   0.886 -0.8911 -0.4612 -1.5143
16417SOL     OW51257   2.340   6.518   9.521 -0.5789  0.1254 -0.7524
16417SOL    HW151258   2.372   6.429   9.534  0.7422  0.4497 -1.6263
16417SOL    HW251259   2.384   6.569   9.590 -1.0584  0.1678 -0.4748
16418SOL     OW51260   1.211   3.121   1.889 -0.3720 -0.4359 -0.2454
16418SOL    HW151261   1.121   3.135   1.919 -0.9881 -1.2626 -1.6140
16418SOL    HW251262   1.202   3.075   1.806  1.3191 -0.1620 -0.6245
16419SOL     OW51263   4.467   7.781   1.226 -0.1235  0.1891 -0.5098
16419SOL    HW151264   4.534   7.784   1.158 -0.7047  2.1601 -1.0580
16419SOL    HW251265   4.513   7.807   1.306 -0.1130  1.0246 -0.7825
16420SOL     OW51266   7.310   5.103   8.543 -0.1777  0.1290 -0.2153
16420SOL    HW151267   7.228   5.054   8.551 -0.6105  1.0626  1.7068
16420SOL    HW251268   7.282   5.191   8.515  0.3777 -0.0939 -1.5180
16421SOL     OW51269   6.472   1.784   3.775 -0.3426  0.3901 -0.5040
16421SOL    HW151270   6.436   1.816   3.858  1.0710  0.6505  0.0563
16421SOL    HW251271   6.413   1.714   3.748 -1.2132  0.7660  0.3750
16422SOL     OW51272  11.235   5.415   0.470  0.5721 -0.5937 -0.4235
16422SOL    HW151273  11.208   5.343   0.413 -1.4920  0.0881 -0.3805
16422SOL    HW251274  11.183   5.404   0.549 -0.3095  1.3021 -0.6829
16423SOL     OW51275   6.605   9.573   8.648  0.2324  0.0590 -0.2993
16423SOL    HW151276   6.591   9.632   8.575 -2.0223  0.0956  0.0630
16423SOL    HW251277   6.626   9.630   8.722  1.5505  0.0945 -0.6833
16424SOL     OW51278   4.341   7.799   2.459 -0.2556  0.0813  0.5173
16424SOL    HW151279   4.247   7.796   2.480 -0.1582 -1.7246  0.8336
16424SOL    HW251280   4.384   7.813   2.543 -0.1613 -1.3262  0.7326
16425SOL     OW51281   9.039   2.195  11.231 -0.1062  0.0287 -0.5038
16425SOL    HW151282   9.070   2.233  11.149  0.5579  2.4399  0.7539
16425SOL    HW251283   9.109   2.135  11.258 -1.3267 -2.5583 -2.7071
16426SOL     OW51284   3.582  10.069   2.691  0.5028  0.3064 -0.3200
16426SOL    HW151285   3.487  10.059   2.698  0.4865 -0.0829 -0.9754
16426SOL    HW251286   3.612   9.983   2.662  0.8309  0.9560 -2.0334
16427SOL     OW51287   8.224   6.875   4.884  0.6955  0.3009 -0.2670
16427SOL    HW151288   8.291   6.929   4.926  0.2564  2.1853 -1.8265
16427SOL    HW251289   8.149   6.935   4.874  0.5295 -0.2564 -2.9925
16428SOL     OW51290   9.682   8.765  10.550  0.3346 -0.5791 -0.7953
16428SOL    HW151291   9.591   8.790  10.535  0.8648  1.2094 -1.2315
16428SOL    HW251292   9.727   8.791  10.469  1.5167  0.1119  0.0546
16429SOL     OW51293   0.365   3.139  11.139  0.3133 -0.2233 -0.1797
16429SOL    HW151294   0.364   3.170  11.230  0.4213 -1.9238  0.4518
16429SOL    HW251295   0.399   3.212  11.089  0.1920  0.7857  1.1470
16430SOL     OW51296   4.325   1.430   7.153  0.0786 -0.2355 -0.3707
16430SOL    HW151297   4.364   1.478   7.080  1.6519 -1.6942 -0.5706
16430SOL    HW251298   4.246   1.478   7.175 -1.3682 -0.6215 -4.0690
16431SOL     OW51299   6.623   2.671  10.689  0.8371 -0.0526  0.1589
16431SOL    HW151300   6.714   2.684  10.660  2.0440 -2.7597  2.3642
16431SOL    HW251301   6.598   2.756  10.726  2.2563  0.9010 -0.9223
16432SOL     OW51302   6.784   9.673   5.887 -0.2408  0.0922 -0.6876
16432SOL    HW151303   6.867   9.707   5.852  0.7975 -0.1811  1.3636
16432SOL    HW251304   6.778   9.585   5.849  0.5974 -0.0256 -0.5824
16433SOL     OW51305  10.271   7.742   4.199 -0.1248 -0.1800 -0.3216
16433SOL    HW151306  10.188   7.721   4.157 -0.0637 -2.6743  0.6099
16433SOL    HW251307  10.301   7.658   4.236  0.6447  1.4384  3.1807
16434SOL     OW51308   4.426   8.664   6.197  0.3526  0.8580  0.0640
16434SOL    HW151309   4.510   8.674   6.152  0.2240 -0.4729 -0.5057
16434SOL    HW251310   4.449   8.657   6.289  0.8090  1.2237 -0.0196
16435SOL     OW51311   5.777   5.323   4.501 -0.0357  0.4514 -0.6075
16435SOL    HW151312   5.779   5.339   4.406  0.3684 -1.8933 -1.0624
16435SOL    HW251313   5.702   5.374   4.532  0.2293  1.8230 -2.0496
16436SOL     OW51314   6.650   7.721   9.995  0.0614 -0.6164  0.6652
16436SOL    HW151315   6.668   7.780   9.922  1.2757  0.4381  1.7825
16436SOL    HW251316   6.735   7.680  10.014  0.4814  1.2988  3.3240
16437SOL     OW51317   0.649   9.211   5.282 -0.3551 -0.2242  0.0818
16437SOL    HW151318   0.639   9.237   5.190  0.1872  0.0026  0.0864
16437SOL    HW251319   0.587   9.139   5.293 -2.0889  1.2039  0.1497
16438SOL     OW51320   2.378   5.061  10.510 -0.3901 -0.1573  0.3410
16438SOL    HW151321   2.287   5.038  10.526  0.1310 -1.0814  2.2271
16438SOL    HW251322   2.377   5.157  10.502 -1.4763 -0.1277  0.6220
16439SOL     OW51323   8.089  11.243   1.378  0.0840  0.2512 -0.4833
16439SOL    HW151324   8.073  11.229   1.284  1.3352 -2.9286 -0.3180
16439SOL    HW251325   8.181  11.267   1.383  0.0715  0.2080 -0.0486
16440SOL     OW51326   5.476   0.807   9.977  0.2508  0.0877  1.0994
16440SOL    HW151327   5.410   0.746   9.944  0.3763  1.4934 -2.1767
16440SOL    HW251328   5.559   0.762   9.961  0.3103  0.7570 -0.7004
16441SOL     OW51329   3.906   0.980   6.407  0.0950  0.0242  0.5333
16441SOL    HW151330   3.887   1.052   6.467  1.3308  0.2788  0.6410
16441SOL    HW251331   3.851   0.997   6.331 -1.1067 -0.0259  1.3655
16442SOL     OW51332  10.230   6.501   8.749 -0.3117 -0.5636 -0.4157
16442SOL    HW151333  10.255   6.418   8.710 -0.6380 -0.3975 -0.9904
16442SOL    HW251334  10.134   6.502   8.743 -0.2824  0.0804 -0.9005
16443SOL     OW51335   4.305   8.745   0.446 -0.2246  0.0875 -0.1791
16443SOL    HW151336   4.383   8.781   0.403  1.2430  0.3495  2.5006
16443SOL    HW251337   4.323   8.651   0.453  0.3356  0.2753  1.2613
16444SOL     OW51338   2.423   6.223   0.279  0.0260 -0.1228  0.7171
16444SOL    HW151339   2.497   6.220   0.340 -1.2145  2.0475  2.5137
16444SOL    HW251340   2.389   6.312   0.288 -1.6852 -0.4651 -1.4669
16445SOL     OW51341   0.277   7.688   4.601 -0.1389  0.1753  0.0826
16445SOL    HW151342   0.187   7.708   4.624  0.3291 -0.6074  2.9439
16445SOL    HW251343   0.278   7.692   4.505 -3.1124  0.4848 -0.0401
16446SOL     OW51344   7.399   2.889   3.215  0.1071 -0.0320 -0.1013
16446SOL    HW151345   7.327   2.945   3.188 -1.7817 -0.4167  3.5146
16446SOL    HW251346   7.459   2.947   3.261  0.7438 -0.1696 -0.7485
16447SOL     OW51347   3.327   9.552   7.846  0.1659  0.5458 -0.0467
16447SOL    HW151348   3.301   9.512   7.763  0.7871  0.2935 -0.1238
16447SOL    HW251349   3.277   9.633   7.851  2.4548  2.2509 -2.2174
16448SOL     OW51350   2.499  11.243   4.272  0.2636 -0.2589 -0.3001
16448SOL    HW151351   2.431  11.258   4.206 -1.4090  1.3701  1.6765
16448SOL    HW251352   2.538  11.330   4.286  1.3003 -0.7785  0.1579
16449SOL     OW51353  11.285   9.826   5.305 -0.0225  0.0367  0.1939
16449SOL    HW151354  11.246   9.811   5.219  1.4730  2.1201 -0.9447
16449SOL    HW251355  11.372   9.860   5.286 -0.3092  2.3762  2.4782
16450SOL     OW51356   4.329   9.047  10.462 -0.5732 -0.2286  0.5850
16450SOL    HW151357   4.249   9.083  10.425 -0.2814  0.0131  0.1907
16450SOL    HW251358   4.363   9.116  10.519  0.5759  0.5833 -1.0195
16451SOL     OW51359   9.627   8.130   0.768 -0.0953  0.5956 -0.5587
16451SOL    HW151360   9.624   8.207   0.711 -0.0193  0.5827 -0.5793
16451SOL    HW251361   9.593   8.058   0.715 -1.4866  0.8900 -0.1096
16452SOL     OW51362   8.855   5.948   2.555 -0.5151  0.1705 -0.2382
16452SOL    HW151363   8.772   5.991   2.576 -1.6858 -0.5839 -2.9324
16452SOL    HW251364   8.838   5.855   2.566  1.4158  0.0629  3.5480
16453SOL     OW51365   9.246  10.971   6.819  0.1043 -0.1982  0.0220
16453SOL    HW151366   9.290  10.914   6.756 -0.5075 -0.5615 -0.0807
16453SOL    HW251367   9.280  10.943   6.904  0.3823 -0.1988 -0.0888
16454SOL     OW51368   3.632  10.066   4.894  0.2302  0.2620 -0.2274
16454SOL    HW151369   3.550  10.095   4.932 -0.0197  2.7151 -2.3407
16454SOL    HW251370   3.610   9.984   4.849 -0.6451  0.0424  0.5719
16455SOL     OW51371   5.910   1.847   7.759 -0.2098  0.2127  0.0690
16455SOL    HW151372   5.991   1.796   7.753  1.6568  3.1275 -2.1157
16455SOL    HW251373   5.907   1.876   7.850  0.1358 -1.4239  0.6490
16456SOL     OW51374   3.687   4.873   9.565 -0.6458  0.2250  0.6367
16456SOL    HW151375   3.603   4.919   9.562  0.6140  2.6750  0.6714
16456SOL    HW251376   3.743   4.922   9.505  1.0166 -0.8324  1.2633
16457SOL     OW51377   9.850   1.390   4.251  0.3716 -0.1267  0.1003
16457SOL    HW151378   9.858   1.419   4.160  0.1913 -3.0746 -0.9488
16457SOL    HW251379   9.941   1.387   4.283  0.5905 -0.8749 -0.5933
16458SOL     OW51380   1.028  10.717   5.908  0.1940 -0.1021  0.2964
16458SOL    HW151381   1.078  10.651   5.957 -0.4030 -0.6237  0.2172
16458SOL    HW251382   0.998  10.670   5.830  0.2881  0.4458 -0.0696
16459SOL     OW51383  10.164   5.046  10.476 -0.1987  0.1995 -0.7803
16459SOL    HW151384  10.127   4.960  10.456  0.3681 -0.8300  2.2084
16459SOL    HW251385  10.254   5.028  10.504  1.2805  2.2211 -3.6730
16460SOL     OW51386   2.283   1.947   4.101  0.5348 -0.4250 -0.3065
16460SOL    HW151387   2.254   1.987   4.183  1.3361  1.3041 -0.8234
16460SOL    HW251388   2.221   1.980   4.036  1.9654  1.1109 -0.9589
16461SOL     OW51389   3.044   3.990   5.773 -0.6090  0.4322 -0.0420
16461SOL    HW151390   3.035   3.922   5.839 -3.1305 -0.1158 -0.8205
16461SOL    HW251391   3.126   3.970   5.728 -0.4323 -1.0500  0.8835
16462SOL     OW51392   5.075   0.970   4.781 -0.3334  0.6469  0.4039
16462SOL    HW151393   5.093   1.053   4.738 -2.6997  0.2055 -1.6399
16462SOL    HW251394   5.159   0.923   4.778  0.6529  2.3217  0.2604
16463SOL     OW51395  10.369   7.887   9.457 -0.1139 -0.6242 -0.2340
16463SOL    HW151396  10.393   7.920   9.371 -0.1548  0.6072  0.2104
16463SOL    HW251397  10.413   7.802   9.463 -0.4429 -0.9105 -1.6170
16464SOL     OW51398   6.215   1.926   0.216  0.3258 -1.1539  0.0493
16464SOL    HW151399   6.289   1.970   0.256 -2.4945  0.1357  4.5688
16464SOL    HW251400   6.219   1.836   0.249 -1.6797 -0.2426  3.1265
16465SOL     OW51401  10.751   9.190   1.298 -0.1207  0.8291  0.7477
16465SOL    HW151402  10.844   9.188   1.276  0.0905 -0.8882  1.7118
16465SOL    HW251403  10.721   9.100   1.288 -1.9103  1.4723 -0.3638
16466SOL     OW51404   5.626   5.818  10.918  0.2015  0.1928 -0.2586
16466SOL    HW151405   5.691   5.801  10.849 -0.4864 -0.3292 -0.7905
16466SOL    HW251406   5.630   5.740  10.974  1.7636  1.2023  1.1538
16467SOL     OW51407   7.774   7.504   4.898  0.1791 -0.2626  0.2350
16467SOL    HW151408   7.741   7.587   4.864 -1.2212 -1.0228 -0.3554
16467SOL    HW251409   7.699   7.465   4.944  0.5603 -1.5554 -0.1828
16468SOL     OW51410   4.234   2.468   7.338  0.9973 -0.3032  0.3018
16468SOL    HW151411   4.242   2.558   7.307  0.1387  0.5867  2.5075
16468SOL    HW251412   4.298   2.461   7.409  1.5795 -1.6860 -0.3187
16469SOL     OW51413  10.139   2.292   1.835 -0.3874  0.4192  0.4284
16469SOL    HW151414  10.070   2.348   1.870  1.0657  2.0275  0.8674
16469SOL    HW251415  10.101   2.255   1.755 -1.2080  2.5827 -0.2609
16470SOL     OW51416   4.874   3.395   4.714 -0.8181 -0.4241 -0.1907
16470SOL    HW151417   4.820   3.333   4.763  1.5553 -0.9411  1.9451
16470SOL    HW251418   4.871   3.476   4.766 -1.1212  0.1872 -1.1340
16471SOL     OW51419   0.435   9.539   4.890 -0.7329  0.3388 -0.6318
16471SOL    HW151420   0.507   9.603   4.900 -0.0274 -0.4637 -0.4048
16471SOL    HW251421   0.451   9.498   4.805 -1.4160  0.7335 -0.9558
16472SOL     OW51422   1.624  10.041  10.844  0.0505 -0.5146  0.6224
16472SOL    HW151423   1.556  10.086  10.893 -0.7528 -2.0008  0.9364
16472SOL    HW251424   1.668   9.985  10.908  1.6098  0.4250  0.4326
16473SOL     OW51425   1.884   8.213   7.177  0.2295 -0.2830 -0.4491
16473SOL    HW151426   1.833   8.189   7.100 -1.0150  1.3426 -0.1929
16473SOL    HW251427   1.921   8.299   7.156 -0.5031  0.3979  0.9030
16474SOL     OW51428   5.049   1.057   5.303 -0.1728 -0.5023  0.1918
16474SOL    HW151429   5.030   0.967   5.333 -0.4599 -0.4489  0.1704
16474SOL    HW251430   4.967   1.087   5.264  0.1561 -0.5145 -0.5226
16475SOL     OW51431  10.096   3.199   5.682  0.0933 -0.4971 -0.5520
16475SOL    HW151432  10.048   3.209   5.764  0.6367  0.4311 -0.3283
16475SOL    HW251433  10.038   3.147   5.626 -0.3579 -0.9829  0.3508
16476SOL     OW51434  10.290   8.158   9.743 -0.3403  0.3573 -0.1980
16476SOL    HW151435  10.356   8.217   9.706  0.2440 -0.7135 -0.9060
16476SOL    HW251436  10.318   8.145   9.834  0.7577 -0.5065 -0.6364
16477SOL     OW51437   1.681   4.253  10.508 -0.0745  0.1756 -0.1554
16477SOL    HW151438   1.605   4.195  10.510 -0.5607  0.5692 -2.7238
16477SOL    HW251439   1.751   4.205  10.552 -1.8930  0.0549  2.8614
16478SOL     OW51440   2.317   5.515   5.260  0.6412 -0.4263 -0.4494
16478SOL    HW151441   2.236   5.531   5.307 -0.5681  2.3955 -3.1484
16478SOL    HW251442   2.381   5.576   5.299  0.7292 -0.7742 -0.0442
16479SOL     OW51443  10.609   4.309   1.947  0.1225 -0.2106  0.1525
16479SOL    HW151444  10.606   4.334   2.039  2.2609  0.1016  0.1824
16479SOL    HW251445  10.557   4.229   1.942 -0.9841  0.3915  1.3878
16480SOL     OW51446   7.055   1.959   2.852 -0.4679  0.4819  0.6669
16480SOL    HW151447   6.979   2.015   2.837  0.0889  0.8344 -1.1581
16480SOL    HW251448   7.027   1.873   2.820 -0.1179  0.6278 -0.0739
16481SOL     OW51449   2.120   1.795   2.188  0.4667  0.0171 -0.0660
16481SOL    HW151450   2.076   1.752   2.114 -1.2490  0.0172  0.8903
16481SOL    HW251451   2.052   1.851   2.227  1.2526 -0.1461  1.6388
16482SOL     OW51452   1.140   1.026  10.732  0.9347 -0.0131  0.2924
16482SOL    HW151453   1.052   1.057  10.711  1.2297 -0.4416 -1.8166
16482SOL    HW251454   1.126   0.935  10.761  0.8260 -1.1859 -2.9922
16483SOL     OW51455   5.481   0.285   9.106  0.4832 -0.2383  0.4100
16483SOL    HW151456   5.501   0.305   9.014  1.5037  1.6950  1.0083
16483SOL    HW251457   5.395   0.324   9.121  0.6813  0.1700  0.4906
16484SOL     OW51458   6.786   7.723  11.190  0.2582  0.3512  0.1247
16484SOL    HW151459   6.780   7.634  11.225 -1.8006  0.4130  0.0574
16484SOL    HW251460   6.830   7.773  11.259 -0.8493 -0.2115  1.2836
16485SOL     OW51461   7.573   6.196   1.781 -0.4957 -0.7745 -0.0164
16485SOL    HW151462   7.648   6.251   1.804  0.2610 -0.9737 -1.8563
16485SOL    HW251463   7.579   6.186   1.686 -2.8065 -0.8752 -0.2102
16486SOL     OW51464   6.965   4.793   4.251  0.3810 -0.0809  0.5298
16486SOL    HW151465   7.026   4.723   4.228  1.1914  0.7437  0.1347
16486SOL    HW251466   7.020   4.869   4.269 -0.5265  0.6786  0.2103
16487SOL     OW51467   2.054   0.304   6.986 -0.1300 -0.1467  0.1413
16487SOL    HW151468   2.118   0.243   7.024 -1.6833 -0.8349  1.8063
16487SOL    HW251469   2.097   0.338   6.908  2.0209 -1.0278  0.8628
16488SOL     OW51470   3.350   9.093   3.295  0.0952 -0.5940  0.0708
16488SOL    HW151471   3.278   9.076   3.233  0.6927 -0.1325 -0.7691
16488SOL    HW251472   3.426   9.052   3.254  0.5358 -0.1156  0.4083
16489SOL     OW51473   7.138   3.431   3.410  0.1564 -0.5233 -0.0319
16489SOL    HW151474   7.232   3.431   3.427 -0.1605  0.6590  2.3110
16489SOL    HW251475   7.105   3.504   3.463 -2.1178 -1.1090 -0.5250
16490SOL     OW51476  11.126   4.553   7.682  0.6367 -0.4912  0.1247
16490SOL    HW151477  11.221   4.561   7.684  0.4740  3.1111  1.2708
16490SOL    HW251478  11.103   4.558   7.589  1.5068  1.3623 -0.0253
16491SOL     OW51479   6.275   1.334   3.281 -0.4721 -0.0498  0.5540
16491SOL    HW151480   6.305   1.391   3.351 -0.8550  0.1293  0.5758
16491SOL    HW251481   6.219   1.270   3.325  1.0730 -1.3202  0.7492
16492SOL     OW51482   7.471   6.746  10.333 -0.3542  0.2240  0.7588
16492SOL    HW151483   7.440   6.691  10.262  0.1894 -0.5107  1.0818
16492SOL    HW251484   7.531   6.808  10.291 -0.7042  0.3589  0.4518
16493SOL     OW51485   3.576   5.762  10.839 -0.1221 -0.4060 -0.0082
16493SOL    HW151486   3.588   5.694  10.774 -1.2846 -0.3948 -0.2634
16493SOL    HW251487   3.663   5.776  10.876  0.3206 -1.2857 -0.6794
16494SOL     OW51488   0.108   1.851   8.356  0.5262  0.0345 -0.5452
16494SOL    HW151489   0.015   1.849   8.336 -0.2356  0.4931  2.4525
16494SOL    HW251490   0.136   1.759   8.352 -0.4897 -0.3208  0.1440
16495SOL     OW51491  10.250   5.789   7.064  0.1582  0.1723  0.1796
16495SOL    HW151492  10.237   5.710   7.011 -0.0307  0.3513 -0.0360
16495SOL    HW251493  10.318   5.763   7.127  2.0626  0.6190 -1.5561
16496SOL     OW51494   4.183   3.229   7.382  0.1733  0.8560 -0.5455
16496SOL    HW151495   4.148   3.267   7.463 -0.5035  0.1930 -0.5054
16496SOL    HW251496   4.249   3.291   7.352 -0.7093  1.9146 -0.3480
16497SOL     OW51497  10.704   6.183   2.354 -0.7550 -0.1105 -0.3201
16497SOL    HW151498  10.741   6.192   2.442 -1.3306  2.9900 -0.2867
16497SOL    HW251499  10.779   6.163   2.298 -0.0037  0.2049  0.5536
16498SOL     OW51500   0.042  10.860   9.252  0.1727  1.1621  0.0083
16498SOL    HW151501   0.058  10.912   9.331  1.8004  0.6477  0.0540
16498SOL    HW251502   0.106  10.789   9.257 -2.5185 -1.4393  0.3887
16499SOL     OW51503   7.710   3.816   7.579  0.4509 -0.1787  0.5444
16499SOL    HW151504   7.643   3.875   7.545 -0.6042 -1.3729  0.5032
16499SOL    HW251505   7.761   3.790   7.502 -0.1825 -0.6869  0.2925
16500SOL     OW51506   6.454   5.267  10.693 -0.5196 -0.2227 -0.0080
16500SOL    HW151507   6.492   5.352  10.715  1.4423 -1.3335  1.3045
16500SOL    HW251508   6.527   5.218  10.656 -2.0441 -0.8174 -2.4564
16501SOL     OW51509   5.860  10.603   5.666 -0.8444  0.0627  0.1337
16501SOL    HW151510   5.786  10.569   5.715 -1.9561  1.5343 -0.4703
16501SOL    HW251511   5.823  10.631   5.582  0.1247  2.0580  0.3206
16502SOL     OW51512   6.081   1.635   4.630 -0.5974  0.0455  0.2737
16502SOL    HW151513   6.122   1.679   4.705 -2.3865  0.1564  1.2510
16502SOL    HW251514   6.119   1.678   4.553 -0.1752  1.3019  1.1475
16503SOL     OW51515   4.629   0.939  11.009 -0.5909  0.2901  0.2083
16503SOL    HW151516   4.580   1.019  10.995  0.0280  0.6575  0.0850
16503SOL    HW251517   4.671   0.950  11.094  1.2692  1.0734 -0.7417
16504SOL     OW51518   3.764   7.021   7.873 -0.2787 -0.5943  0.1124
16504SOL    HW151519   3.739   6.945   7.820 -2.9467  0.4396 -0.2738
16504SOL    HW251520   3.756   7.096   7.813 -1.9925  0.4315  1.5068
16505SOL     OW51521   6.357   8.273   8.901 -0.5521 -0.2971 -0.0292
16505SOL    HW151522   6.361   8.235   8.989 -1.3619 -0.5670 -0.0998
16505SOL    HW251523   6.284   8.228   8.858  0.0946 -0.4685 -0.9930
16506SOL     OW51524   1.559  11.039   2.840 -0.7800 -0.3038 -0.7911
16506SOL    HW151525   1.504  11.008   2.912 -0.4007 -0.9626 -0.7730
16506SOL    HW251526   1.524  10.995   2.762 -2.1357  1.5544 -1.2834
16507SOL     OW51527   2.384   3.059   3.325 -0.4378  0.0412  0.2816
16507SOL    HW151528   2.336   3.004   3.263 -0.6214 -0.3067  0.7225
16507SOL    HW251529   2.347   3.146   3.313 -0.5824 -0.0554  0.0143
16508SOL     OW51530   0.871   1.915   5.241 -0.4162 -0.7591  0.3549
16508SOL    HW151531   0.858   1.892   5.149 -0.4486 -1.7296  0.5813
16508SOL    HW251532   0.964   1.900   5.257 -0.1137  0.7867  0.1320
16509SOL     OW51533   4.386   2.059   6.792  0.1145  0.2264 -0.3320
16509SOL    HW151534   4.421   2.149   6.785  0.0889  0.1554 -1.8147
16509SOL    HW251535   4.350   2.054   6.880  1.3861  1.2128  0.2883
16510SOL     OW51536  10.451   4.623   0.984  0.2272  0.1017  0.4172
16510SOL    HW151537  10.522   4.685   1.001  0.0572  0.1204  1.1029
16510SOL    HW251538  10.372   4.667   1.017  0.1099 -0.4801  0.9317
16511SOL     OW51539  10.118   8.122   5.218 -0.4639  1.1375 -0.1931
16511SOL    HW151540  10.028   8.123   5.249 -0.8045  1.4542 -1.1464
16511SOL    HW251541  10.170   8.143   5.295 -1.1074 -0.1479  0.6240
16512SOL     OW51542   1.758   0.602   4.588 -0.1076  0.1297  0.0868
16512SOL    HW151543   1.845   0.570   4.614  3.1217  5.4992 -2.3365
16512SOL    HW251544   1.749   0.575   4.497 -0.1847  0.9647 -0.1563
16513SOL     OW51545   5.408  10.580   3.710 -0.0591  0.2393 -0.4483
16513SOL    HW151546   5.384  10.670   3.729 -0.1035  0.5027 -1.6711
16513SOL    HW251547   5.347  10.527   3.761 -0.5430  0.8959 -0.3416
16514SOL     OW51548   5.898   7.183   3.188 -0.4734  0.1611  0.1125
16514SOL    HW151549   5.844   7.209   3.114  0.8107 -0.1393 -0.9763
16514SOL    HW251550   5.886   7.252   3.253 -2.0263  0.1640 -0.1415
16515SOL     OW51551   3.650   4.652   4.853 -0.1062  0.2934 -0.0543
16515SOL    HW151552   3.676   4.661   4.762  0.9201 -0.1572  0.1840
16515SOL    HW251553   3.654   4.741   4.889 -0.0128  0.3918 -0.3131
16516SOL     OW51554   2.375   2.611   0.036 -0.8807 -0.5284 -0.4808
16516SOL    HW151555   2.363   2.597  -0.058 -1.9061 -1.0262 -0.2913
16516SOL    HW251556   2.291   2.587   0.074  0.0196 -1.8800  0.7479
16517SOL     OW51557   2.002   6.469   4.469  0.1742 -0.2858 -0.9657
16517SOL    HW151558   2.050   6.467   4.552 -0.4498  0.1379 -0.5873
16517SOL    HW251559   1.968   6.380   4.458 -1.2120  0.0874  0.1169
16518SOL     OW51560   4.169   8.293   7.789  0.5155 -0.1674  0.2659
16518SOL    HW151561   4.229   8.221   7.770  0.8187 -0.0165  0.6269
16518SOL    HW251562   4.195   8.363   7.729  0.1992 -0.3648 -0.1084
16519SOL     OW51563   3.560  10.613   7.778  0.3120 -0.3139 -0.8562
16519SOL    HW151564   3.626  10.588   7.843  0.3589  0.3811 -0.6340
16519SOL    HW251565   3.498  10.667   7.826 -0.1505 -0.5472 -1.1834
16520SOL     OW51566   7.731   1.917   8.187  0.0694 -0.5679  0.1213
16520SOL    HW151567   7.738   1.922   8.091  0.3211 -1.1756  0.1022
16520SOL    HW251568   7.734   1.823   8.206 -0.1525 -0.4607  0.7164
16521SOL     OW51569  11.063   5.076   6.911  0.1185 -0.0603 -0.3435
16521SOL    HW151570  10.981   5.125   6.924 -1.0888 -2.1745  0.6525
16521SOL    HW251571  11.071   5.068   6.816 -0.1500  1.2281 -0.4917
16522SOL     OW51572   0.545   5.925   8.430 -0.6611 -0.0505 -0.1326
16522SOL    HW151573   0.566   5.993   8.366  0.3933 -1.1521 -1.0016
16522SOL    HW251574   0.459   5.950   8.464 -0.1065  1.9500 -0.0860
16523SOL     OW51575   3.716   2.399   8.903 -0.3920  0.9837  0.2713
16523SOL    HW151576   3.792   2.428   8.953 -0.1934 -0.0157  0.5706
16523SOL    HW251577   3.651   2.468   8.917  0.0402  1.2614  0.9933
16524SOL     OW51578   5.487  10.511   5.446  0.0086 -0.4166 -0.5877
16524SOL    HW151579   5.493  10.555   5.531  0.5366  0.0897 -0.8910
16524SOL    HW251580   5.570  10.465   5.437  0.2425  0.1271 -1.1693
16525SOL     OW51581   6.792   2.539   6.304 -0.5519 -0.5026 -0.0290
16525SOL    HW151582   6.850   2.559   6.230 -0.3477  1.8781  0.6803
16525SOL    HW251583   6.850   2.542   6.381 -1.4061  1.2993  0.6234
16526SOL     OW51584   8.990   4.861   3.582 -0.5917 -0.5614 -0.0691
16526SOL    HW151585   9.056   4.831   3.519  0.4104  0.1219  0.6192
16526SOL    HW251586   8.940   4.782   3.604  0.5585 -1.2854  0.0374
16527SOL     OW51587   5.836   5.555   6.488  0.6205  1.0056 -0.1927
16527SOL    HW151588   5.820   5.640   6.529  0.1733  1.5396 -1.4136
16527SOL    HW251589   5.931   5.549   6.481  0.8108  0.2954  2.0705
16528SOL     OW51590   1.883   8.125   0.828 -0.1483 -0.4961 -0.3831
16528SOL    HW151591   1.793   8.157   0.832 -0.3309 -1.0948  0.5576
16528SOL    HW251592   1.902   8.094   0.917  1.7484  1.6228  0.0617
16529SOL     OW51593   4.226   3.158   6.065 -0.0257 -0.3032 -0.3753
16529SOL    HW151594   4.243   3.202   5.982  0.3302 -1.3641 -0.8754
16529SOL    HW251595   4.189   3.226   6.121 -1.3146  0.1517 -1.7400
16530SOL     OW51596   7.011   3.277   8.182 -0.5561  0.0893 -0.2339
16530SOL    HW151597   7.029   3.292   8.090 -0.8222 -0.3174 -0.3556
16530SOL    HW251598   6.983   3.185   8.187 -1.7434  0.4468  0.0703
16531SOL     OW51599   1.172   9.535   3.994  0.6913  0.0501  0.1377
16531SOL    HW151600   1.227   9.460   4.019  0.1260 -0.1660  0.7560
16531SOL    HW251601   1.150   9.518   3.902  2.0374  0.3851 -0.2725
16532SOL     OW51602   2.335   2.984   5.795  0.1844  0.6826 -0.1487
16532SOL    HW151603   2.280   3.041   5.741  1.2228  1.2851 -0.5953
16532SOL    HW251604   2.410   3.038   5.819  1.1631 -0.4535 -0.5290
16533SOL     OW51605   9.430   7.601   2.138 -0.1196 -0.2277  0.5264
16533SOL    HW151606   9.412   7.684   2.182  0.5295  0.0649  0.2440
16533SOL    HW251607   9.487   7.624   2.064 -2.1117 -0.5203 -1.2097
16534SOL     OW51608   6.134   1.030   9.093 -0.4483  0.1933  0.5006
16534SOL    HW151609   6.051   1.066   9.062 -0.6767  0.9097  1.8562
16534SOL    HW251610   6.200   1.075   9.042 -0.8632  0.2414  0.0003
16535SOL     OW51611   2.105   3.643  10.979 -0.5947 -0.4708 -0.5006
16535SOL    HW151612   2.154   3.724  10.963 -0.7450 -0.3751 -0.4783
16535SOL    HW251613   2.133   3.584  10.909 -0.3945 -0.4406 -0.4474
16536SOL     OW51614   6.719   6.636  10.400  0.1123  0.1011  0.2019
16536SOL    HW151615   6.764   6.603  10.478  1.6515 -1.6929 -1.3509
16536SOL    HW251616   6.765   6.717  10.378 -0.2459  0.5498  1.0184
16537SOL     OW51617   7.630  11.062   1.065  0.3271 -0.2541 -0.4762
16537SOL    HW151618   7.621  11.043   0.972 -0.9045 -0.4780 -0.3268
16537SOL    HW251619   7.602  11.153   1.075  2.7595  0.5854 -0.6478
16538SOL     OW51620   0.851   0.007   5.339  0.9230 -0.5747  0.4402
16538SOL    HW151621   0.805   0.037   5.418  2.1442  2.2161  0.2187
16538SOL    HW251622   0.784   0.008   5.271 -0.3377 -3.7666  1.4609
16539SOL     OW51623   5.810   1.689   3.747 -0.0534  0.5964 -0.3039
16539SOL    HW151624   5.728   1.716   3.789  0.1318 -1.3258  1.5213
16539SOL    HW251625   5.784   1.661   3.659 -1.6399 -0.9992  0.5866
16540SOL     OW51626   8.641   4.410   3.123  0.2134 -0.1376  0.5910
16540SOL    HW151627   8.623   4.488   3.176 -0.9091  0.7306 -0.9905
16540SOL    HW251628   8.629   4.337   3.184  1.0706  0.8809  2.0539
16541SOL     OW51629   7.432   1.725   2.095  0.3437 -0.4496  0.1479
16541SOL    HW151630   7.362   1.761   2.148  0.1969  0.6839 -0.7821
16541SOL    HW251631   7.395   1.644   2.058 -0.9198  0.6934 -1.2210
16542SOL     OW51632   4.353   8.226  10.010  0.3739  0.3514  0.1476
16542SOL    HW151633   4.390   8.246  10.096  0.8581 -0.2072  0.0688
16542SOL    HW251634   4.261   8.207  10.028  0.3272  0.8518  0.4586
16543SOL     OW51635   2.341   6.263   5.045 -0.2295 -0.1521 -0.8839
16543SOL    HW151636   2.353   6.253   4.950 -0.1017  0.4324 -0.9319
16543SOL    HW251637   2.369   6.179   5.081  0.8557  0.0254 -1.2664
16544SOL     OW51638   2.351   1.366   6.585  0.0424 -0.3240 -0.4489
16544SOL    HW151639   2.349   1.285   6.533 -1.9784 -0.5450 -0.1067
16544SOL    HW251640   2.329   1.435   6.523 -1.8329 -0.5206 -0.0435
16545SOL     OW51641   0.667   2.865   2.809  0.0986  0.1901 -0.2913
16545SOL    HW151642   0.582   2.895   2.776 -0.3047  0.1447  0.6793
16545SOL    HW251643   0.683   2.918   2.887  0.7858 -0.0779 -0.2397
16546SOL     OW51644   2.039   3.526   2.099  0.2790 -0.5026  0.4247
16546SOL    HW151645   2.067   3.516   2.190 -0.0043 -1.7163  0.3915
16546SOL    HW251646   2.117   3.560   2.054  0.9523 -1.4928  0.8056
16547SOL     OW51647   2.704   1.374   5.738 -0.0826  1.0569  0.1654
16547SOL    HW151648   2.769   1.399   5.803  0.8379 -1.0185  0.1201
16547SOL    HW251649   2.751   1.315   5.678 -1.9737 -0.5173  0.1305
16548SOL     OW51650   3.701   3.044   3.021 -0.4857  0.4994 -0.1796
16548SOL    HW151651   3.784   3.078   3.054  0.0050 -0.6661 -0.1651
16548SOL    HW251652   3.674   3.107   2.955 -0.0512  1.3757  0.4644
16549SOL     OW51653   0.565   5.459   3.853  0.1837  0.0337  0.1064
16549SOL    HW151654   0.614   5.462   3.771 -2.2083 -3.1829 -1.6653
16549SOL    HW251655   0.480   5.497   3.832 -0.6969 -1.4198  0.8765
16550SOL     OW51656   5.446   8.101   4.523 -0.4100  0.5487 -0.4508
16550SOL    HW151657   5.423   8.150   4.444  1.7310 -0.1058 -1.5671
16550SOL    HW251658   5.435   8.009   4.498 -0.5236  0.3487  0.3102
16551SOL     OW51659   7.286  10.473   1.000 -0.1073  0.1959 -0.3364
16551SOL    HW151660   7.237  10.549   0.969  0.8107  0.4168 -1.3122
16551SOL    HW251661   7.224  10.400   0.996 -0.1389  0.2935 -2.3696
16552SOL     OW51662   9.740   3.018   8.540  0.6046  0.4555  0.0813
16552SOL    HW151663   9.804   2.968   8.489  0.4178 -0.9125  1.1213
16552SOL    HW251664   9.655   2.983   8.513  0.4950 -0.1458  1.1628
16553SOL     OW51665  10.542   6.144   4.512 -0.8097 -1.0050 -0.0451
16553SOL    HW151666  10.570   6.146   4.603 -1.5593  1.5940  0.2221
16553SOL    HW251667  10.619   6.172   4.462 -0.9565 -0.4546  0.0237
16554SOL     OW51668   8.851   2.230   4.996 -0.2024 -0.0276 -0.3564
16554SOL    HW151669   8.858   2.180   4.915  0.4023 -0.2017 -0.1980
16554SOL    HW251670   8.886   2.316   4.975 -1.7474  0.5400 -0.7832
16555SOL     OW51671   1.043   1.837   7.795 -0.4439 -0.0365  0.4375
16555SOL    HW151672   1.044   1.761   7.853 -0.7080 -0.4880 -0.1379
16555SOL    HW251673   1.115   1.822   7.734  1.2380  1.4809  1.9179
16556SOL     OW51674   4.800   0.700   6.946 -0.6906  1.0321  0.3663
16556SOL    HW151675   4.826   0.622   6.896 -2.9949  0.0752  0.5629
16556SOL    HW251676   4.880   0.726   6.993  0.6196 -0.0649 -1.1568
16557SOL     OW51677   6.722   9.957   5.926 -0.0707 -0.1262 -0.3903
16557SOL    HW151678   6.749   9.967   5.835 -0.2020 -0.6508 -0.4938
16557SOL    HW251679   6.753   9.870   5.951 -0.8839 -0.3879 -0.2457
16558SOL     OW51680   8.701   6.747   2.025 -0.6060  0.4632  0.2456
16558SOL    HW151681   8.760   6.817   2.054  0.6059 -0.8928  1.1674
16558SOL    HW251682   8.734   6.722   1.939 -0.2627  0.1867  0.4558
16559SOL     OW51683   6.684   0.932   9.157 -0.0717  0.1909  0.3837
16559SOL    HW151684   6.663   1.022   9.182 -1.6841  0.6805 -2.3297
16559SOL    HW251685   6.627   0.878   9.211 -0.9915  0.9564  0.1887
16560SOL     OW51686  10.034  11.191   0.346  0.8210 -0.2679 -0.7170
16560SOL    HW151687  10.116  11.147   0.367  0.5629  0.6920  3.1927
16560SOL    HW251688  10.061  11.275   0.308  1.7659  0.1583  0.7788
16561SOL     OW51689   9.164   1.040  10.197  0.0335  0.0879 -0.4276
16561SOL    HW151690   9.191   0.950  10.176 -1.3186 -0.1443 -1.3420
16561SOL    HW251691   9.193   1.054  10.287  0.9292 -0.9920 -0.5251
16562SOL     OW51692   8.136   3.179   9.422  0.2430  0.6058  0.5152
16562SOL    HW151693   8.138   3.235   9.500  0.6874  0.1726  0.8206
16562SOL    HW251694   8.152   3.091   9.455 -0.1289  0.3354 -0.0028
16563SOL     OW51695   7.963   8.566  10.440 -0.1409  1.1576 -0.0831
16563SOL    HW151696   8.028   8.590  10.374 -1.3388  1.7620 -1.0662
16563SOL    HW251697   7.888   8.621  10.421 -1.4042 -0.3833  0.2662
16564SOL     OW51698   8.854   1.907   3.174  0.0338  0.0572  0.1709
16564SOL    HW151699   8.768   1.871   3.196  0.3195 -1.0527 -0.4683
16564SOL    HW251700   8.837   2.000   3.157 -1.1692 -0.2750 -0.5814
16565SOL     OW51701   2.343   5.475   5.997  0.3766 -0.4210 -0.1182
16565SOL    HW151702   2.362   5.423   6.076  1.5504 -1.0879 -0.8161
16565SOL    HW251703   2.415   5.538   5.992  2.2535 -2.4954 -2.3845
16566SOL     OW51704  10.167   8.393   0.326 -0.4263 -0.5381  0.2810
16566SOL    HW151705  10.210   8.318   0.285  4.1333  0.2116  2.9706
16566SOL    HW251706  10.200   8.469   0.279 -2.2700 -0.0152 -0.2366
16567SOL     OW51707   4.808   5.344   6.026 -0.1366  0.3247  0.3527
16567SOL    HW151708   4.903   5.354   6.034 -0.0004  0.7866 -1.3911
16567SOL    HW251709   4.777   5.427   5.991 -0.8939 -0.5039 -1.0587
16568SOL     OW51710   2.400   5.114   0.570 -0.2657  0.3778  0.1432
16568SOL    HW151711   2.389   5.030   0.615 -0.5690  1.0289  1.3158
16568SOL    HW251712   2.490   5.113   0.538  0.2383  0.2470  1.5298
16569SOL     OW51713   7.334   0.651   2.258  0.5041  0.1747  0.0238
16569SOL    HW151714   7.403   0.671   2.194  1.1682 -0.7640  0.4348
16569SOL    HW251715   7.374   0.590   2.319  0.0930  1.5561  1.7578
16570SOL     OW51716   2.778   6.985   6.561 -0.0054 -0.1931  0.4095
16570SOL    HW151717   2.696   6.937   6.548  0.0547 -0.2016  0.0628
16570SOL    HW251718   2.769   7.063   6.506  1.2581 -1.4202 -1.6583
16571SOL     OW51719   7.933   3.101   1.580 -0.2511 -0.2555 -0.4062
16571SOL    HW151720   7.997   3.038   1.614  1.6070  2.0916  0.7099
16571SOL    HW251721   7.871   3.113   1.652  0.1480  0.1277 -0.1186
16572SOL     OW51722   6.037   3.818   6.120 -1.2529  0.1734 -0.2023
16572SOL    HW151723   5.960   3.822   6.064 -0.4999  0.7055 -1.2377
16572SOL    HW251724   6.093   3.750   6.080 -1.1819 -0.2185  0.5411
16573SOL     OW51725   9.530  11.233   8.540 -0.2270 -0.1524  0.0308
16573SOL    HW151726   9.594  11.213   8.608 -0.8589  0.7017  0.9098
16573SOL    HW251727   9.581  11.271   8.469  0.2298  0.6777  0.7906
16574SOL     OW51728   3.579   7.776   0.426  0.2916  0.1640 -0.3233
16574SOL    HW151729   3.613   7.689   0.405 -0.1087 -0.2521  0.6537
16574SOL    HW251730   3.599   7.829   0.350 -1.9511 -1.4591 -2.2023
16575SOL     OW51731   3.119   6.604   4.689 -0.1359  0.3659 -0.4749
16575SOL    HW151732   3.104   6.591   4.783 -0.7365  1.2353 -0.4391
16575SOL    HW251733   3.207   6.642   4.683  0.2327 -0.4523 -0.3312
16576SOL     OW51734   9.616   8.488   8.313  0.6578  0.1117  0.2060
16576SOL    HW151735   9.667   8.562   8.280  1.3629 -0.2533  0.4875
16576SOL    HW251736   9.534   8.492   8.262  0.5477  1.2752  0.4485
16577SOL     OW51737   6.964   5.807   9.839  0.6857  0.4759 -0.8126
16577SOL    HW151738   6.897   5.789   9.773 -0.6088 -0.7968  0.7431
16577SOL    HW251739   6.996   5.720   9.864  1.1397  0.9256  0.2340
16578SOL     OW51740   3.324   5.426   5.087  0.1583 -0.1181  0.0368
16578SOL    HW151741   3.299   5.336   5.065 -1.3870 -0.0516  1.3601
16578SOL    HW251742   3.316   5.474   5.004 -0.4256 -0.8937 -0.3728
16579SOL     OW51743   6.629  10.487  10.506 -0.5925 -0.1528  0.1323
16579SOL    HW151744   6.535  10.502  10.496 -0.2993  1.6576 -0.3824
16579SOL    HW251745   6.653  10.539  10.583 -0.0840 -0.9992  0.5563
16580SOL     OW51746   9.416   9.990   4.191 -0.1672 -0.3068 -0.0135
16580SOL    HW151747   9.346   9.973   4.253 -0.6791 -0.0444 -0.5096
16580SOL    HW251748   9.479   9.919   4.205 -0.4297 -0.4251  0.5802
16581SOL     OW51749   2.007   5.273   1.646 -0.1556 -0.0257  0.1125
16581SOL    HW151750   2.028   5.189   1.685  2.3277  0.6466  0.3551
16581SOL    HW251751   1.928   5.256   1.594 -2.2214 -1.5093  3.3902
16582SOL     OW51752   3.463   5.586  10.274  0.2370 -0.4937  1.2589
16582SOL    HW151753   3.387   5.619  10.323 -1.0035  1.3334 -1.6507
16582SOL    HW251754   3.532   5.649  10.292 -0.1459  0.0470  0.8666
16583SOL     OW51755   4.473   7.135   4.439  0.4076 -0.3371 -0.5269
16583SOL    HW151756   4.418   7.206   4.406 -1.2565 -1.1966  0.2417
16583SOL    HW251757   4.539   7.178   4.493  0.0183  0.6834 -0.8576
16584SOL     OW51758   4.554  10.619  10.833 -0.4829 -0.6914  0.2396
16584SOL    HW151759   4.498  10.544  10.853 -1.7864  0.5726  1.6221
16584SOL    HW251760   4.588  10.600  10.745 -2.8612 -1.6903 -0.5750
16585SOL     OW51761   6.093   6.830   1.598  0.4994 -0.1486 -0.5650
16585SOL    HW151762   5.999   6.813   1.608  0.4241  1.5681  2.8842
16585SOL    HW251763   6.097   6.915   1.555  0.4172  0.3407  0.3765
16586SOL     OW51764   6.428   6.337   9.246 -0.3375  0.5937 -0.4036
16586SOL    HW151765   6.448   6.299   9.160 -3.0860  1.5473 -1.5741
16586SOL    HW251766   6.348   6.388   9.232 -0.5746  1.2501  2.6266
16587SOL     OW51767   4.069   3.025   3.214 -0.2942  0.5944 -0.1853
16587SOL    HW151768   4.019   2.986   3.143  1.0987 -2.6850  0.4740
16587SOL    HW251769   4.026   2.995   3.294  0.1278  1.4270  0.3702
16588SOL     OW51770   3.354   6.524   5.884  0.4487  0.4075  0.4378
16588SOL    HW151771   3.420   6.456   5.899  0.8839  0.7681  0.1725
16588SOL    HW251772   3.281   6.500   5.941 -0.8574 -2.2443 -2.0444
16589SOL     OW51773   2.289   0.401  10.000  0.5934  0.6286  0.2803
16589SOL    HW151774   2.229   0.459   9.953 -2.3410  0.2898  3.2107
16589SOL    HW251775   2.360   0.458  10.027 -0.4772  2.1000  0.1332
16590SOL     OW51776   0.152   7.236  10.747 -0.1497  0.4668 -0.4083
16590SOL    HW151777   0.146   7.236  10.842 -2.5261  0.7857 -0.5013
16590SOL    HW251778   0.133   7.146  10.721 -1.2238  0.7359 -0.6162
16591SOL     OW51779   5.402   5.203  11.006 -0.0077 -0.1500 -0.3457
16591SOL    HW151780   5.453   5.124  11.028  0.4861  0.2278 -0.1004
16591SOL    HW251781   5.459   5.252  10.947  0.0919  0.4789  0.2641
16592SOL     OW51782   3.714   1.171   0.804 -0.3519  0.1865 -0.1577
16592SOL    HW151783   3.680   1.259   0.789 -1.0620 -0.0191  0.1773
16592SOL    HW251784   3.779   1.157   0.735  0.1439  1.1665  0.1038
16593SOL     OW51785  10.045   4.580  10.992  0.0945 -0.2401  0.5579
16593SOL    HW151786  10.081   4.503  11.037  0.7629  0.5375  1.3822
16593SOL    HW251787  10.044   4.555  10.899  2.7892 -0.3024  0.4726
16594SOL     OW51788  10.048  11.274   4.402  0.1087 -0.1984  0.0412
16594SOL    HW151789  10.093  11.190   4.406  2.0548  0.7652 -0.0782
16594SOL    HW251790  10.015  11.289   4.490  0.8966 -0.5186  0.3992
16595SOL     OW51791  10.202   5.464   2.819  0.2648  0.2935 -0.1092
16595SOL    HW151792  10.131   5.462   2.756  1.2798 -0.7240 -1.2751
16595SOL    HW251793  10.207   5.555   2.849 -2.5472  0.0981  1.2432
16596SOL     OW51794   1.986   2.867   9.639 -0.4650  0.0202  0.3524
16596SOL    HW151795   2.041   2.939   9.607 -1.3788  0.5775  0.0001
16596SOL    HW251796   2.038   2.826   9.708  0.9618 -0.3217 -0.8762
16597SOL     OW51797   9.795   9.180   8.390  0.0732  0.0580  0.1412
16597SOL    HW151798   9.830   9.149   8.473  0.2692  2.7318  1.1568
16597SOL    HW251799   9.871   9.218   8.345 -0.1635 -0.7611 -1.0045
16598SOL     OW51800   8.091   1.895   5.154 -0.7471  0.4454  0.4455
16598SOL    HW151801   8.130   1.812   5.180 -0.4410  0.2884 -0.4675
16598SOL    HW251802   7.997   1.882   5.164 -0.6196  0.7401  2.4191
16599SOL     OW51803   0.568   7.669  10.547  0.6007 -0.4749  0.4603
16599SOL    HW151804   0.546   7.660  10.454  1.2767  1.1409  0.1044
16599SOL    HW251805   0.484   7.690  10.589  0.4458 -0.2502  0.0512
16600SOL     OW51806   2.291   1.916   1.269  0.4024 -1.0131 -0.3997
16600SOL    HW151807   2.196   1.903   1.278  0.5661 -1.7720  0.3935
16600SOL    HW251808   2.316   1.965   1.347  1.0177 -2.9635  0.7043
16601SOL     OW51809   0.387  10.412   1.685  0.1953  0.7642 -0.0222
16601SOL    HW151810   0.379  10.505   1.665 -2.3163  0.4810 -0.5775
16601SOL    HW251811   0.421  10.372   1.605  3.1330  1.3676  0.8072
16602SOL     OW51812   2.237   2.163   5.725  0.2908  0.3638  0.5148
16602SOL    HW151813   2.207   2.093   5.667  2.4993  0.0228 -0.3185
16602SOL    HW251814   2.250   2.121   5.809 -2.0250  0.6568  1.0841
16603SOL     OW51815  11.028   9.605   9.792  0.1407  0.3203 -0.1967
16603SOL    HW151816  10.984   9.690   9.791  0.4462  0.5660 -3.3276
16603SOL    HW251817  11.118   9.625   9.817  0.4776  1.1520 -1.9205
16604SOL     OW51818   6.816   3.515   9.368  0.1129 -0.5492 -0.1959
16604SOL    HW151819   6.882   3.562   9.418  0.6060 -0.3066 -1.0434
16604SOL    HW251820   6.746   3.579   9.354 -1.3656 -1.4036  2.5331
16605SOL     OW51821   7.270   7.528   9.745 -0.9161  0.0224 -0.0084
16605SOL    HW151822   7.191   7.475   9.737 -1.8901  1.4344 -0.1638
16605SOL    HW251823   7.287   7.560   9.656 -0.8811  0.6845  0.2271
16606SOL     OW51824   1.800   8.585  10.332  0.2054 -0.0496 -0.2513
16606SOL    HW151825   1.825   8.566  10.242 -0.5013 -0.0900 -0.4473
16606SOL    HW251826   1.838   8.671  10.350 -0.1572  0.2278 -0.7951
16607SOL     OW51827   4.714   7.840   8.382 -0.3305  0.6495  0.9995
16607SOL    HW151828   4.730   7.917   8.436 -1.2846  0.4835  1.5311
16607SOL    HW251829   4.776   7.775   8.415 -0.9228  0.5397  1.9407
16608SOL     OW51830  10.383   9.270   7.257 -0.4924 -0.3044 -0.3400
16608SOL    HW151831  10.308   9.323   7.284 -0.9373 -0.9080 -0.3663
16608SOL    HW251832  10.355   9.231   7.174  0.7234  1.2597 -1.5462
16609SOL     OW51833   9.324   3.707   6.062 -0.3278  0.9156 -0.0485
16609SOL    HW151834   9.370   3.791   6.063 -1.4586  1.5481  1.1972
16609SOL    HW251835   9.337   3.671   6.149 -0.8589  0.3564 -0.1921
16610SOL     OW51836   1.630  10.002   2.059 -0.2295 -0.3212 -0.0189
16610SOL    HW151837   1.647   9.963   1.973 -1.3829  0.5857 -0.6885
16610SOL    HW251838   1.714   9.996   2.104  0.3915 -0.8686 -1.1786
16611SOL     OW51839   5.512  10.184   6.547  0.5080 -0.1270  0.8825
16611SOL    HW151840   5.550  10.100   6.520  0.3382 -0.7152  2.3920
16611SOL    HW251841   5.588  10.238   6.569  0.5798 -0.4671  1.5124
16612SOL     OW51842   6.337   9.453   9.736 -0.3339  0.1934  0.2906
16612SOL    HW151843   6.356   9.547   9.729  0.4584  0.0214  0.0572
16612SOL    HW251844   6.378   9.426   9.818 -0.0582 -0.0654  0.0685
16613SOL     OW51845   1.148   2.296   6.073  0.5636  0.0257 -0.3350
16613SOL    HW151846   1.174   2.225   6.132  0.6886 -0.1299 -0.5760
16613SOL    HW251847   1.211   2.366   6.090  1.9922 -0.8147 -1.8337
16614SOL     OW51848   1.350   2.027   1.691  0.0564  0.5950  0.2267
16614SOL    HW151849   1.337   2.108   1.741 -2.2044 -1.0017  2.4268
16614SOL    HW251850   1.433   1.992   1.723 -0.2624  0.7251  1.2308
16615SOL     OW51851  10.964   7.781   7.734  0.0097  0.1374  0.2877
16615SOL    HW151852  10.914   7.838   7.676 -0.7614 -0.6388  0.1735
16615SOL    HW251853  10.935   7.693   7.712  0.6083 -0.2486  1.0061
16616SOL     OW51854   0.140   4.449   5.060 -0.0626  0.4787  0.7032
16616SOL    HW151855   0.063   4.504   5.071 -0.8851 -0.7387  1.2292
16616SOL    HW251856   0.119   4.391   4.987  0.2375 -0.0306  1.0114
16617SOL     OW51857   5.123   4.013   6.740 -0.5214  0.0099 -0.4090
16617SOL    HW151858   5.167   4.072   6.801 -0.2483 -0.7225  0.1105
16617SOL    HW251859   5.030   4.027   6.756 -0.4546  0.1598 -0.1502
16618SOL     OW51860  10.873   2.516   1.593  0.2020  0.4406 -0.0827
16618SOL    HW151861  10.901   2.464   1.668 -1.6093  0.8118  0.9290
16618SOL    HW251862  10.884   2.458   1.518  0.3535 -0.5913  0.7123
16619SOL     OW51863  10.442   3.579  10.187 -0.2885  0.3129  1.0123
16619SOL    HW151864  10.472   3.660  10.147 -0.3415 -0.7412 -1.3475
16619SOL    HW251865  10.523   3.528  10.201 -0.4303 -0.1380  0.2648
16620SOL     OW51866   4.676   0.822  10.741  0.0959 -0.1223  0.6073
16620SOL    HW151867   4.662   0.870  10.823  0.6568 -0.7125  1.0638
16620SOL    HW251868   4.656   0.886  10.672  0.4691  0.6576  1.1958
16621SOL     OW51869   4.843  10.045   0.688 -0.4252 -0.4740 -0.3343
16621SOL    HW151870   4.757  10.003   0.688 -0.7889  0.0390  2.6812
16621SOL    HW251871   4.824  10.138   0.702  0.5571  0.1907 -2.7866
16622SOL     OW51872   8.937   0.085   9.790 -0.4606  0.0796 -0.3737
16622SOL    HW151873   9.026   0.087   9.753 -0.9622  0.9211 -1.6396
16622SOL    HW251874   8.925   0.173   9.826  0.2434 -0.9159  2.4946
16623SOL     OW51875   7.166  10.132   0.278  0.6015 -0.2399 -0.0142
16623SOL    HW151876   7.142  10.065   0.214 -0.4273  1.3245 -1.3133
16623SOL    HW251877   7.111  10.112   0.354 -0.7618 -0.0420 -0.9172
16624SOL     OW51878   1.344   2.754   5.737 -0.2148  0.0556 -0.1752
16624SOL    HW151879   1.267   2.707   5.770 -0.8308  1.6442  0.7603
16624SOL    HW251880   1.373   2.702   5.662 -2.4423 -0.3912 -0.8081
16625SOL     OW51881   0.923   5.611   9.569  0.0446 -0.2944  0.1946
16625SOL    HW151882   0.973   5.545   9.617  1.5088  0.2053 -0.5906
16625SOL    HW251883   0.920   5.687   9.627 -0.9162 -0.7265  0.7483
16626SOL     OW51884   8.043   2.609  10.045  0.1358 -0.1090 -0.2523
16626SOL    HW151885   8.083   2.624   9.960  0.7246 -1.6342 -0.2812
16626SOL    HW251886   8.020   2.516  10.045  0.5096 -0.2387  1.3873
16627SOL     OW51887   9.779   6.627   1.407  0.1096  0.5033  0.7206
16627SOL    HW151888   9.721   6.552   1.397 -0.2749  0.5867  2.0545
16627SOL    HW251889   9.745   6.673   1.484  0.2981  2.0888 -0.1053
16628SOL     OW51890   7.236   3.221   6.775 -0.4131 -0.0736  0.4009
16628SOL    HW151891   7.276   3.137   6.755  3.2998  1.4067  0.7438
16628SOL    HW251892   7.186   3.244   6.697  2.2387 -0.6240 -1.5816
16629SOL     OW51893   3.109   6.972   0.189  0.0904 -0.4662 -0.7583
16629SOL    HW151894   3.159   6.892   0.207  0.6638 -0.0375 -0.4377
16629SOL    HW251895   3.111   7.021   0.270  0.6340  0.3578 -1.2580
16630SOL     OW51896   5.179   3.925   2.289  0.1036  0.1305 -0.1545
16630SOL    HW151897   5.216   4.010   2.313  1.7859 -1.2240  2.4885
16630SOL    HW251898   5.223   3.902   2.207  0.0472  1.5102 -0.6032
16631SOL     OW51899   5.452   8.271   4.751  0.3650 -0.3811  0.3642
16631SOL    HW151900   5.438   8.226   4.668 -0.1805  2.5130 -1.2468
16631SOL    HW251901   5.383   8.338   4.755  0.3011 -0.4704  3.2295
16632SOL     OW51902  10.924   0.689   7.681  0.0817  0.6846 -0.1962
16632SOL    HW151903  10.930   0.608   7.630 -0.9499  0.3625  0.1664
16632SOL    HW251904  10.933   0.661   7.772 -2.0422  0.7103  0.0658
16633SOL     OW51905   4.064  10.990  10.555  0.0227 -0.4195 -0.2980
16633SOL    HW151906   4.058  11.015  10.648  1.6812 -3.1584  0.6495
16633SOL    HW251907   4.157  10.995  10.535 -0.0545 -1.9585 -1.1640
16634SOL     OW51908   8.556   2.308   3.975  0.0549  0.0937 -0.3631
16634SOL    HW151909   8.618   2.356   4.029  1.0046 -0.5935 -0.8270
16634SOL    HW251910   8.485   2.371   3.958  1.7170  1.7100 -1.7938
16635SOL     OW51911   0.563   5.513   1.162 -0.1597  0.3501  0.6874
16635SOL    HW151912   0.500   5.441   1.162 -0.2798  0.4476  1.5475
16635SOL    HW251913   0.644   5.473   1.131 -0.1855 -0.1971  1.2983
16636SOL     OW51914   7.495   3.885   0.824  0.0504 -0.3668 -0.6482
16636SOL    HW151915   7.557   3.957   0.833  1.0807 -1.3347  0.4701
16636SOL    HW251916   7.485   3.851   0.913 -2.1038 -0.2608 -0.7964
16637SOL     OW51917   6.178   4.664   8.564 -0.7299 -0.1696  0.0333
16637SOL    HW151918   6.154   4.723   8.493 -0.9669 -0.0151  0.2401
16637SOL    HW251919   6.102   4.665   8.622  0.1571  1.1205  1.2341
16638SOL     OW51920   8.853   0.419   8.666  0.3656  0.7647 -0.3165
16638SOL    HW151921   8.858   0.393   8.574  0.0340  0.9406 -0.3847
16638SOL    HW251922   8.944   0.417   8.696  0.6937  2.2954 -1.0988
16639SOL     OW51923   4.005   9.381   0.127 -0.1109  0.1195  0.0388
16639SOL    HW151924   4.044   9.294   0.138  0.5634  0.2616 -1.0007
16639SOL    HW251925   4.066   9.427   0.069 -2.7785 -0.2926 -3.3841
16640SOL     OW51926   1.040   3.116   9.654  0.1900  0.3207 -0.3021
16640SOL    HW151927   1.066   3.026   9.634  1.6974  0.5423  0.4702
16640SOL    HW251928   1.043   3.161   9.570  0.6100 -0.0880 -0.5141
16641SOL     OW51929   3.547   0.290   5.149  0.0036 -0.2181 -0.1103
16641SOL    HW151930   3.547   0.363   5.087 -0.0301 -0.3628 -0.2823
16641SOL    HW251931   3.538   0.212   5.094  0.2263 -0.3627  0.0588
16642SOL     OW51932  10.528   6.065   9.855  0.5074 -0.0845 -0.0461
16642SOL    HW151933  10.535   6.121   9.931  1.3622 -0.9552  0.5356
16642SOL    HW251934  10.592   5.996   9.869 -2.2007 -2.6980  0.5285
16643SOL     OW51935   5.816   9.012   4.468  0.0928  0.2366 -0.3750
16643SOL    HW151936   5.886   8.959   4.430 -0.5181 -0.1054 -1.0504
16643SOL    HW251937   5.855   9.051   4.546  1.2869  0.7182 -1.1851
16644SOL     OW51938   0.144   5.564   3.987 -0.0075 -0.3981  0.4379
16644SOL    HW151939   0.128   5.573   3.893 -1.0074  1.7385  0.7270
16644SOL    HW251940   0.056   5.561   4.026  0.3909 -1.4772  1.3026
16645SOL     OW51941   8.502   0.729   6.594  0.5420 -0.2158 -0.2161
16645SOL    HW151942   8.504   0.824   6.607  0.7600 -0.0848 -1.1828
16645SOL    HW251943   8.578   0.697   6.644  2.0669  0.4029 -2.0192
16646SOL     OW51944   0.032   9.683   9.841 -0.1135 -0.2877  0.3164
16646SOL    HW151945   0.021   9.616   9.909 -0.3912 -0.5972 -0.0319
16646SOL    HW251946   0.065   9.760   9.889 -0.4392 -0.4583  0.8279
16647SOL     OW51947   8.519   1.043   8.645 -0.6202  0.1372 -0.0363
16647SOL    HW151948   8.611   1.068   8.638 -0.4371  0.7945  3.2826
16647SOL    HW251949   8.518   0.949   8.628  0.4614  0.3017 -1.1499
16648SOL     OW51950   6.564   4.785   6.681 -0.1216  0.1599  0.5292
16648SOL    HW151951   6.654   4.817   6.681  0.8829 -2.1494 -3.0716
16648SOL    HW251952   6.567   4.703   6.633 -4.2389  0.1718 -0.1194
16649SOL     OW51953   3.776   8.001   1.858 -0.3921  0.7326 -0.3207
16649SOL    HW151954   3.858   8.015   1.905 -0.2800 -2.3313  0.6100
16649SOL    HW251955   3.800   8.010   1.765  1.1193 -0.4703 -0.0885
16650SOL     OW51956   9.426   7.468   6.110 -0.5140 -0.1591  0.8825
16650SOL    HW151957   9.405   7.519   6.032 -0.3285  0.2318  1.0861
16650SOL    HW251958   9.359   7.493   6.174 -2.1494 -2.2806  0.0904
16651SOL     OW51959   9.749   3.921   9.046  0.6835 -0.0617  0.0873
16651SOL    HW151960   9.831   3.873   9.058  1.1002  0.6978  0.3496
16651SOL    HW251961   9.713   3.888   8.964  0.7751 -1.0771  0.4470
16652SOL     OW51962   3.295   9.290   6.180  0.1190 -0.4128  1.0143
16652SOL    HW151963   3.352   9.237   6.236 -0.6833 -1.9732  0.4165
16652SOL    HW251964   3.257   9.227   6.118  0.3213  1.0938 -0.7563
16653SOL     OW51965   3.931   8.584   3.735  0.3023 -0.1462 -0.3769
16653SOL    HW151966   3.888   8.653   3.786  0.4910  1.2604 -2.0241
16653SOL    HW251967   3.869   8.565   3.664 -0.4818 -2.8997  0.9179
16654SOL     OW51968   5.890   1.617   5.526 -0.1905  0.4261  0.4551
16654SOL    HW151969   5.877   1.655   5.439 -2.5673  1.0313  0.9996
16654SOL    HW251970   5.925   1.689   5.579 -1.2379  0.8370  0.6074
16655SOL     OW51971   2.613   8.615   3.154  0.3695 -1.1756 -0.2052
16655SOL    HW151972   2.700   8.618   3.114  0.7683 -1.2316  0.6369
16655SOL    HW251973   2.555   8.649   3.086  0.9960 -1.4516 -0.9052
16656SOL     OW51974   8.258   0.523   2.882  0.2827 -0.0527  0.2725
16656SOL    HW151975   8.222   0.437   2.905  1.7605 -0.7092  0.2177
16656SOL    HW251976   8.201   0.586   2.927 -1.0960 -1.0213 -0.0543
16657SOL     OW51977   5.560   4.001   3.932  0.1347  0.9998  0.5131
16657SOL    HW151978   5.481   4.041   3.897  0.6523  3.0059  1.5037
16657SOL    HW251979   5.599   3.956   3.857 -0.8847  1.6982 -0.4704
16658SOL     OW51980   5.375   1.854   1.009  0.3048 -0.8332 -0.1910
16658SOL    HW151981   5.400   1.841   0.917  0.6086  1.0117 -0.3991
16658SOL    HW251982   5.365   1.765   1.043 -2.5312 -1.6648 -2.7298
16659SOL     OW51983  11.006   8.047   4.499  0.6941  0.0660  0.0706
16659SOL    HW151984  10.996   8.055   4.594 -0.1472 -0.7436  0.0606
16659SOL    HW251985  10.966   8.127   4.464 -0.5334 -0.4049  0.3328
16660SOL     OW51986   8.894   0.018   0.672 -0.6024  0.0243 -0.7727
16660SOL    HW151987   8.868  -0.060   0.721  0.3929  1.2280  1.8777
16660SOL    HW251988   8.835   0.087   0.702  1.5517  1.3657  0.7706
16661SOL     OW51989   0.099   9.690   0.849  0.2551 -0.0462 -0.3702
16661SOL    HW151990   0.090   9.704   0.944 -0.7935 -0.6344 -0.3795
16661SOL    HW251991   0.194   9.693   0.834  0.4768 -0.5746  0.7953
16662SOL     OW51992  10.035   4.269  10.439 -0.4314 -0.0633 -0.1850
16662SOL    HW151993  10.016   4.357  10.406 -0.9683  0.1128  0.5712
16662SOL    HW251994  10.021   4.275  10.533  0.3786 -0.7438 -0.0089
16663SOL     OW51995   0.512   2.035   2.009 -0.0655 -0.2417 -0.0542
16663SOL    HW151996   0.578   2.023   2.078 -0.1502 -0.6719 -0.0456
16663SOL    HW251997   0.443   2.086   2.051  0.3784  0.4308 -0.1378
16664SOL     OW51998   5.637   0.241   1.120 -0.1112  0.2583 -0.0353
16664SOL    HW151999   5.577   0.189   1.065  0.1294 -1.7187  1.4609
16664SOL    HW252000   5.663   0.314   1.064 -1.7817 -0.3254 -1.6800
16665SOL     OW52001   5.253   0.094   7.262  0.4188 -0.1666  0.1875
16665SOL    HW152002   5.240   0.158   7.333 -1.1288 -0.2756  0.0243
16665SOL    HW252003   5.345   0.106   7.237  0.5750  0.9554  1.1667
16666SOL     OW52004   7.788  10.807   9.484  0.5961  0.0793 -0.0752
16666SOL    HW152005   7.835  10.847   9.558  0.6334 -0.9791  0.4909
16666SOL    HW252006   7.701  10.788   9.519  1.1528 -2.0640  0.2937
16667SOL     OW52007  11.199   8.182   7.878  0.4397  0.0607  0.7200
16667SOL    HW152008  11.153   8.162   7.959 -2.3341 -0.3517 -0.8048
16667SOL    HW252009  11.204   8.098   7.832  0.0232  0.6214 -0.4051
16668SOL     OW52010   5.251   0.172   2.589  0.3492  0.2133  0.4326
16668SOL    HW152011   5.204   0.231   2.530  1.0646  0.7390  0.3711
16668SOL    HW252012   5.274   0.226   2.664  1.8514  0.2862 -0.0507
16669SOL     OW52013  11.129   2.905   3.533  0.1885  1.0584 -0.2049
16669SOL    HW152014  11.133   2.904   3.628 -0.6796  0.3097 -0.1638
16669SOL    HW252015  11.154   2.817   3.506 -1.0313  0.8106 -0.5868
16670SOL     OW52016   4.451   9.551  11.238  0.3764  0.1812  0.7445
16670SOL    HW152017   4.481   9.568  11.148 -0.4570 -0.6310  0.3039
16670SOL    HW252018   4.471   9.632  11.285  2.8304 -0.1218  0.3738
16671SOL     OW52019   1.578   6.844   6.486 -1.4034 -0.3535 -0.1724
16671SOL    HW152020   1.595   6.792   6.565 -0.2415  0.4395  0.1154
16671SOL    HW252021   1.652   6.905   6.481 -1.5343 -0.3057 -1.8061
16672SOL     OW52022   7.781   5.123   3.593  0.5206  0.1540 -0.3442
16672SOL    HW152023   7.786   5.073   3.674  0.2339 -0.8514 -0.9380
16672SOL    HW252024   7.733   5.203   3.617 -1.1196 -0.9222  0.0971
16673SOL     OW52025   4.977   1.090   6.477  0.3474  0.4133 -0.0901
16673SOL    HW152026   4.963   1.165   6.534 -0.1431  1.5857 -1.6712
16673SOL    HW252027   5.005   1.020   6.535  2.7141  2.3088  1.2507
16674SOL     OW52028   2.680   5.497   1.732 -0.1088 -0.1313 -0.0044
16674SOL    HW152029   2.704   5.581   1.693 -1.5016  0.6667  0.7801
16674SOL    HW252030   2.616   5.460   1.671 -0.8100  0.2037  0.5199
16675SOL     OW52031   4.374   9.820   8.628 -0.2471 -0.4775  0.5934
16675SOL    HW152032   4.392   9.803   8.535  2.6426 -0.2805  1.0234
16675SOL    HW252033   4.430   9.758   8.675 -1.0940 -0.0708  2.2165
16676SOL     OW52034   7.381   6.340   5.347  0.2420 -0.6202 -0.0723
16676SOL    HW152035   7.383   6.427   5.307  2.3560 -0.6783 -0.2060
16676SOL    HW252036   7.330   6.287   5.285 -0.0956  0.2517 -0.5657
16677SOL     OW52037   1.961   8.450   3.727  0.1899 -0.3070  0.1259
16677SOL    HW152038   1.973   8.385   3.796 -0.7639  1.1635  1.7613
16677SOL    HW252039   1.941   8.531   3.774 -2.0387  0.4319 -1.9270
16678SOL     OW52040   7.348  10.692  10.866  0.1064  0.3796 -0.1612
16678SOL    HW152041   7.440  10.689  10.841 -0.2164 -0.1647 -1.3530
16678SOL    HW252042   7.310  10.613  10.827 -1.1028  1.1845 -0.6706
16679SOL     OW52043   0.449   5.738  11.034 -0.0413 -0.3861 -0.9866
16679SOL    HW152044   0.377   5.741  11.096  0.5720  0.5029 -0.2933
16679SOL    HW252045   0.455   5.828  11.000  2.4493  0.3428  1.0172
16680SOL     OW52046   4.551   9.034   2.591 -0.3701 -0.5725 -0.0724
16680SOL    HW152047   4.488   9.099   2.563 -0.0667 -0.5442 -0.6929
16680SOL    HW252048   4.558   8.973   2.518 -0.5111 -1.1992  0.4275
16681SOL     OW52049   9.541   2.374   4.346  0.9599 -0.2444  0.5080
16681SOL    HW152050   9.520   2.399   4.436  0.7520  1.6396 -0.0200
16681SOL    HW252051   9.545   2.278   4.348 -0.1465 -0.3034  2.2699
16682SOL     OW52052   5.171   5.643   8.617  0.2207 -0.2922  0.1426
16682SOL    HW152053   5.161   5.656   8.711  0.3397  1.7191 -0.0814
16682SOL    HW252054   5.265   5.652   8.602 -0.0170  1.9900 -0.4356
16683SOL     OW52055  11.166  10.770  10.811 -0.5446  0.0521 -0.1486
16683SOL    HW152056  11.219  10.719  10.749  2.0692  3.9279 -1.4365
16683SOL    HW252057  11.228  10.800  10.877 -2.6753 -1.1768  2.6085
16684SOL     OW52058  11.042   7.105   4.779  0.2465 -0.6018  0.1080
16684SOL    HW152059  11.127   7.066   4.760  1.3998  1.1795  1.2824
16684SOL    HW252060  11.041   7.114   4.874 -1.8214 -1.7031  0.2506
16685SOL     OW52061   5.092   4.126   1.896  0.3450  0.4196  0.1477
16685SOL    HW152062   5.174   4.123   1.946  0.3027  0.0806  0.1976
16685SOL    HW252063   5.110   4.074   1.818  0.8895  2.1466 -0.9159
16686SOL     OW52064   5.176   7.031   2.385  0.3574  0.2749  0.1059
16686SOL    HW152065   5.144   6.944   2.360 -1.1247  0.8012  0.0689
16686SOL    HW252066   5.171   7.082   2.304  2.5210  0.0769 -0.2168
16687SOL     OW52067   4.048   6.447   3.295  0.7729 -0.3201 -0.9446
16687SOL    HW152068   4.059   6.390   3.219 -0.6405 -0.8047 -0.8064
16687SOL    HW252069   4.067   6.390   3.370 -1.6929 -1.0043 -0.7363
16688SOL     OW52070   9.164   2.398   9.447 -1.2958 -0.1192 -0.4713
16688SOL    HW152071   9.150   2.470   9.509  0.0292 -0.0238 -0.2495
16688SOL    HW252072   9.119   2.426   9.367 -1.9818  0.3112  0.0500
16689SOL     OW52073   7.021  10.572   1.519  0.3650  0.2141  0.1559
16689SOL    HW152074   7.023  10.667   1.534 -0.3316  0.5456 -1.5436
16689SOL    HW252075   7.062  10.561   1.433 -0.4582 -0.9138 -0.1163
16690SOL     OW52076   1.992  11.159   9.873  0.2230  1.0029 -0.2284
16690SOL    HW152077   1.995  11.227   9.805 -0.6606 -0.4353 -1.7949
16690SOL    HW252078   2.075  11.112   9.863  0.7341  1.6861  0.7015
16691SOL     OW52079   4.176   5.303   8.422 -0.3727 -0.5434  0.1253
16691SOL    HW152080   4.268   5.282   8.437  0.0244  1.6078  1.1008
16691SOL    HW252081   4.130   5.267   8.499  0.1087  0.9258  1.1355
16692SOL     OW52082   2.985  11.142   3.132 -0.3634  0.0984  0.8654
16692SOL    HW152083   3.038  11.062   3.129 -0.8246 -0.1950  0.4509
16692SOL    HW252084   3.045  11.211   3.103 -0.4740 -0.3884 -0.5863
16693SOL     OW52085   9.720   1.723   3.525 -0.4519  0.4365  0.4660
16693SOL    HW152086   9.809   1.732   3.558 -0.1797  1.6781 -0.5381
16693SOL    HW252087   9.673   1.675   3.594  0.7917  0.4475  1.3384
16694SOL     OW52088  10.422   1.755   0.087  0.1760 -0.1164  0.6105
16694SOL    HW152089  10.370   1.704   0.026  0.1887 -0.7416  1.1154
16694SOL    HW252090  10.472   1.690   0.137  0.0816  0.3741  1.3609
16695SOL     OW52091   0.044   2.469   7.772 -0.0949 -0.0756  0.2295
16695SOL    HW152092  -0.043   2.509   7.766  0.0877  0.1716 -0.8658
16695SOL    HW252093   0.103   2.543   7.788  0.0923 -0.0536 -0.5450
16696SOL     OW52094   0.517   8.379   3.996 -0.2046 -1.0017  0.0802
16696SOL    HW152095   0.492   8.435   4.069  0.5598 -1.9950  1.1396
16696SOL    HW252096   0.559   8.304   4.037 -1.1127 -2.3186 -1.2918
16697SOL     OW52097   1.515   7.336   3.274 -0.2376 -0.0626  0.0974
16697SOL    HW152098   1.503   7.334   3.369 -1.6243 -1.1047 -0.0587
16697SOL    HW252099   1.575   7.408   3.258 -1.4433  1.3419  1.6116
16698SOL     OW52100   9.269   7.571   6.339  0.2198 -0.1024 -0.1886
16698SOL    HW152101   9.187   7.524   6.351 -0.1947  0.9577  1.4572
16698SOL    HW252102   9.245   7.664   6.340  1.2388  0.2161 -1.5307
16699SOL     OW52103   4.715   9.586   3.620 -0.5736 -0.2623 -1.0881
16699SOL    HW152104   4.678   9.651   3.680  2.1789 -0.6470  1.2396
16699SOL    HW252105   4.659   9.509   3.632 -1.7154  0.5243 -1.1627
16700SOL     OW52106   2.761   7.273  10.084 -0.0151 -1.0333 -0.1976
16700SOL    HW152107   2.740   7.184  10.056 -0.2707 -0.4196 -2.1158
16700SOL    HW252108   2.688   7.326  10.051  0.9261  0.1066 -0.5181
16701SOL     OW52109  10.829   4.624  10.478  0.5291 -0.6731  0.1351
16701SOL    HW152110  10.889   4.674  10.533  1.0296 -1.7430  0.5874
16701SOL    HW252111  10.873   4.620  10.392  0.1159  0.3147 -0.1375
16702SOL     OW52112   4.836   4.094   5.443 -0.4675 -0.3913  0.7603
16702SOL    HW152113   4.772   4.163   5.425 -0.8337 -0.9654 -0.2618
16702SOL    HW252114   4.899   4.135   5.502 -0.7515  0.7822  0.2996
16703SOL     OW52115   9.126   3.199  10.155 -0.2844  0.1900  0.0883
16703SOL    HW152116   9.075   3.273  10.188 -0.6133 -0.3182  0.7233
16703SOL    HW252117   9.148   3.148  10.232  0.4929 -0.0398 -0.2746
16704SOL     OW52118   7.075   2.499   7.212 -0.3643 -0.7045 -0.1515
16704SOL    HW152119   7.158   2.540   7.237  0.2460 -1.8365 -0.2845
16704SOL    HW252120   7.042   2.554   7.140 -0.3247  0.4178  0.6569
16705SOL     OW52121   6.396   3.932   3.379  0.0065  0.0536  0.0127
16705SOL    HW152122   6.425   3.840   3.382  0.8692  0.3374  0.7644
16705SOL    HW252123   6.396   3.953   3.285  1.1406 -0.3249 -0.0953
16706SOL     OW52124   9.791   4.598   3.732 -0.0465 -0.5678  0.3186
16706SOL    HW152125   9.770   4.660   3.662 -0.6372  0.1452  1.1132
16706SOL    HW252126   9.707   4.566   3.763  0.2404 -1.4258  0.2288
16707SOL     OW52127   9.556   7.859   9.813  0.2951  0.0438 -0.3265
16707SOL    HW152128   9.484   7.909   9.850  1.8885 -0.5498  4.1404
16707SOL    HW252129   9.522   7.770   9.805 -0.5653  0.4704 -2.2137
16708SOL     OW52130   1.692   9.750   5.094 -0.1125  0.9066 -0.2755
16708SOL    HW152131   1.743   9.792   5.024 -1.4018  2.3953 -0.3606
16708SOL    HW252132   1.759   9.720   5.156  0.8997  3.1683 -0.1789
16709SOL     OW52133   0.122   3.204   2.566 -0.2516  0.2824 -0.5735
16709SOL    HW152134   0.178   3.153   2.625 -0.6211  1.6520  1.0278
16709SOL    HW252135   0.184   3.249   2.508  0.1376 -0.7108 -0.9578
16710SOL     OW52136   9.937   5.147   8.330 -0.4306 -0.1548  0.1556
16710SOL    HW152137   9.911   5.237   8.348  0.1532 -0.1215  0.8518
16710SOL    HW252138  10.030   5.153   8.310 -0.1346 -0.7350  1.2908
16711SOL     OW52139   7.993   6.471   0.600 -0.6843 -0.0428  0.9249
16711SOL    HW152140   8.037   6.496   0.682  0.5336  2.6034 -0.3992
16711SOL    HW252141   7.937   6.546   0.580  1.8713  1.2111 -2.4782
16712SOL     OW52142   4.296   6.323   3.758 -0.9422 -0.3308  0.6286
16712SOL    HW152143   4.384   6.299   3.786 -0.0609 -0.7042 -2.1846
16712SOL    HW252144   4.292   6.418   3.771  0.3712 -0.1117 -0.3708
16713SOL     OW52145  10.708   6.471   5.324 -0.5625 -0.3597 -0.3866
16713SOL    HW152146  10.711   6.464   5.419  1.7895  2.1149 -0.1262
16713SOL    HW252147  10.742   6.388   5.292  3.6643  0.5006  1.2450
16714SOL     OW52148  10.144   4.010   4.830  0.1883 -0.6281  0.4738
16714SOL    HW152149  10.090   4.077   4.787 -0.8306 -0.6019  1.7336
16714SOL    HW252150  10.127   3.930   4.781  0.5147 -0.2251 -0.3204
16715SOL     OW52151  10.104   4.631   2.435 -0.1020 -0.3119  0.0768
16715SOL    HW152152  10.167   4.703   2.427 -0.1004 -0.3272 -0.0565
16715SOL    HW252153  10.033   4.667   2.488 -0.2041 -0.1414 -0.1749
16716SOL     OW52154   1.706   1.426   3.205 -0.5153 -0.3559  0.6926
16716SOL    HW152155   1.704   1.330   3.203 -1.2283 -0.3638  1.3432
16716SOL    HW252156   1.797   1.448   3.188 -0.5022 -1.1192 -0.3597
16717SOL     OW52157   6.667   0.980  10.349  0.2614 -0.4168  0.5032
16717SOL    HW152158   6.676   1.060  10.401  1.8320 -0.4930  0.3950
16717SOL    HW252159   6.574   0.976  10.327  0.3065  2.0601 -0.5212
16718SOL     OW52160   8.522   1.497   3.336  0.0214  0.1924  0.1062
16718SOL    HW152161   8.584   1.535   3.274  0.3650 -0.8188 -0.1984
16718SOL    HW252162   8.443   1.550   3.327  1.0621  1.9742  1.0510
16719SOL     OW52163   2.709   3.890   8.511 -0.4223 -0.2029 -0.1340
16719SOL    HW152164   2.771   3.882   8.438  0.2409 -1.5102  0.5396
16719SOL    HW252165   2.703   3.984   8.527 -0.1107  0.0730 -1.4635
16720SOL     OW52166   1.916   6.894   3.196 -0.5437 -0.0914  0.2942
16720SOL    HW152167   1.895   6.984   3.172 -0.7910 -0.2788 -0.2030
16720SOL    HW252168   1.861   6.875   3.272  1.5955  1.1412  2.2908
16721SOL     OW52169   6.215   4.011   3.900 -0.1839  0.2499 -0.1465
16721SOL    HW152170   6.236   3.997   3.993  0.8875  0.5112 -0.3404
16721SOL    HW252171   6.224   4.106   3.888  0.9992  0.0771 -0.8054
16722SOL     OW52172   2.782   8.941   0.309  0.0637 -0.0128  0.2514
16722SOL    HW152173   2.748   8.927   0.397  0.2735  2.6996  0.8620
16722SOL    HW252174   2.800   9.035   0.305 -0.6769  0.1059 -2.9641
16723SOL     OW52175   1.673   2.629   1.455 -0.3386 -0.4070 -0.4746
16723SOL    HW152176   1.699   2.709   1.409  0.8303 -1.6419 -2.0966
16723SOL    HW252177   1.729   2.626   1.532  0.5616 -0.2882 -1.1033
16724SOL     OW52178  10.303   6.972   5.793  0.2522 -0.3407 -0.1248
16724SOL    HW152179  10.233   6.923   5.837 -0.3526  3.0147  3.1689
16724SOL    HW252180  10.383   6.929   5.822 -0.3035 -0.8944  0.6536
16725SOL     OW52181   2.271   6.975   4.009  0.5324  0.2398  0.6321
16725SOL    HW152182   2.303   7.055   3.967  1.2786 -0.1320  0.4721
16725SOL    HW252183   2.336   6.955   4.076  2.2999 -2.1230 -1.5848
16726SOL     OW52184   2.578   4.505  10.256  0.4180 -0.3886  0.0341
16726SOL    HW152185   2.639   4.505  10.330  0.5674  0.0769 -0.0819
16726SOL    HW252186   2.598   4.586  10.209  0.6881 -0.9376 -0.8214
16727SOL     OW52187   5.330   3.394   9.621  0.0014 -0.1158  0.2014
16727SOL    HW152188   5.339   3.343   9.702  0.5475  1.8700  1.4806
16727SOL    HW252189   5.393   3.355   9.561 -1.1001 -2.2597  0.3338
16728SOL     OW52190   1.310   3.653   4.282 -0.5868  0.3766 -0.4970
16728SOL    HW152191   1.242   3.623   4.221  0.7588 -1.9921 -0.9646
16728SOL    HW252192   1.309   3.589   4.353 -1.1043  2.2593  1.2665
16729SOL     OW52193   1.554   1.258  10.855 -0.2741  0.2174  0.2386
16729SOL    HW152194   1.622   1.236  10.919 -0.3952 -1.0790 -0.0380
16729SOL    HW252195   1.485   1.299  10.907 -0.7398 -1.5728  1.1238
16730SOL     OW52196   3.851   0.846   7.204 -0.5046 -0.3377 -0.2179
16730SOL    HW152197   3.770   0.897   7.197 -0.1152  0.2023 -0.8908
16730SOL    HW252198   3.898   0.866   7.123 -0.0140 -1.1971 -0.1480
16731SOL     OW52199   3.762   6.861   5.447 -0.1519 -0.2314  0.7591
16731SOL    HW152200   3.750   6.853   5.541 -0.4344 -0.7537  0.6781
16731SOL    HW252201   3.790   6.774   5.418 -1.4288 -0.4643  0.1575
16732SOL     OW52202   6.760   1.965   4.734  0.6656 -0.3282  0.1930
16732SOL    HW152203   6.672   2.000   4.744  0.9283  0.5245 -0.3928
16732SOL    HW252204   6.766   1.895   4.800  0.1144  0.6923  1.3589
16733SOL     OW52205   9.968   2.901   6.492 -0.5944 -0.4199 -0.1566
16733SOL    HW152206  10.007   2.859   6.415  0.6519  0.7673 -0.1941
16733SOL    HW252207   9.878   2.919   6.466 -0.0280  0.4914 -1.5665
16734SOL     OW52208   4.948   7.847   9.714  0.4174 -0.2621 -0.6153
16734SOL    HW152209   5.002   7.781   9.672  1.3675 -0.3966  0.7656
16734SOL    HW252210   4.958   7.831   9.808  0.6758  1.8167 -0.2317
16735SOL     OW52211   1.091   7.114   1.861  0.5743 -0.1071 -0.4369
16735SOL    HW152212   1.072   7.042   1.922  2.1852  1.1046  1.6344
16735SOL    HW252213   1.005   7.143   1.831 -0.2776 -0.9225  1.0720
16736SOL     OW52214   1.561   8.085   7.565 -0.2847  0.1836 -0.5550
16736SOL    HW152215   1.608   8.148   7.619 -1.3548  1.2363 -0.7874
16736SOL    HW252216   1.607   8.086   7.481  0.4013 -0.2358 -0.1916
16737SOL     OW52217   6.020  10.505   3.132 -0.1284  0.0231  0.6995
16737SOL    HW152218   6.062  10.579   3.088 -1.4670 -0.4993 -1.6131
16737SOL    HW252219   6.005  10.536   3.222  0.9929  1.8592  0.3073
16738SOL     OW52220   5.032   0.157   5.725  0.3831 -0.5248  0.1952
16738SOL    HW152221   5.093   0.098   5.770 -1.1157 -4.2785 -2.2129
16738SOL    HW252222   4.946   0.121   5.745 -0.6420  1.0595 -1.1893
16739SOL     OW52223   0.385   9.552   3.384  0.2378  0.2007  0.4289
16739SOL    HW152224   0.336   9.592   3.311 -0.9743  0.0538  1.1380
16739SOL    HW252225   0.454   9.616   3.404  1.3557 -0.2938 -1.6114
16740SOL     OW52226   1.120   2.159   0.677 -0.1675 -0.2628  0.2690
16740SOL    HW152227   1.199   2.140   0.727  1.4671  2.5197 -1.0219
16740SOL    HW252228   1.140   2.129   0.588 -0.9712 -0.4396  0.1387
16741SOL     OW52229   2.027   8.700   8.146  0.0452  0.0763  0.0307
16741SOL    HW152230   2.049   8.619   8.100 -0.8694  1.0707 -2.3112
16741SOL    HW252231   2.110   8.729   8.184  0.5960 -1.3997  0.0538
16742SOL     OW52232   2.772   9.960   8.255  0.2028 -0.0519 -0.2648
16742SOL    HW152233   2.765  10.022   8.328 -0.6202 -1.9276  1.3124
16742SOL    HW252234   2.685   9.921   8.248  0.9464 -1.7464 -0.5551
16743SOL     OW52235   2.869   7.411   1.623 -0.6030 -0.0896  0.1832
16743SOL    HW152236   2.797   7.365   1.666 -1.5986  1.5195  0.3375
16743SOL    HW252237   2.919   7.343   1.578 -1.1448 -1.4679  1.6036
16744SOL     OW52238   7.769  10.061   6.386 -0.1047  0.0496 -0.0885
16744SOL    HW152239   7.726  10.017   6.458  1.0049  0.4520  0.8596
16744SOL    HW252240   7.732  10.022   6.307 -2.5112  0.7202  0.6410
16745SOL     OW52241   1.662   0.177   5.533 -0.1879 -0.3480 -0.1547
16745SOL    HW152242   1.610   0.250   5.567  1.3019 -0.2625  2.2223
16745SOL    HW252243   1.650   0.180   5.438 -3.9224  0.0287  0.2009
16746SOL     OW52244   1.634   9.025   2.490  0.5270  0.4362  0.1497
16746SOL    HW152245   1.655   8.933   2.474  0.4488  0.6579 -1.4956
16746SOL    HW252246   1.672   9.045   2.575  0.9078 -1.0055  0.3353
16747SOL     OW52247   1.270   6.482   1.649  0.7347  0.0336  0.4036
16747SOL    HW152248   1.355   6.464   1.688  1.4358  0.6471 -0.7869
16747SOL    HW252249   1.226   6.396   1.647  0.1856  0.1094  3.4711
16748SOL     OW52250   9.548   2.381   7.644 -0.2935 -0.6147 -0.7143
16748SOL    HW152251   9.486   2.324   7.690 -1.2229  0.7198 -0.2342
16748SOL    HW252252   9.530   2.366   7.551 -1.5045 -0.1333 -0.5863
16749SOL     OW52253   2.678   3.511  10.453  0.5540  0.2722  0.1803
16749SOL    HW152254   2.595   3.553  10.476 -1.1801 -2.9185  0.2294
16749SOL    HW252255   2.705   3.466  10.533  0.7174 -1.1961 -0.6698
16750SOL     OW52256  11.018   4.810  10.596 -0.4264 -0.2053  1.2587
16750SOL    HW152257  11.089   4.857  10.641 -0.2177  1.1635 -0.3921
16750SOL    HW252258  11.013   4.851  10.510 -4.2717  0.8633  1.7874
16751SOL     OW52259   3.053   3.396   2.072 -0.4127 -0.1548  0.0895
16751SOL    HW152260   3.147   3.394   2.087 -0.4402 -0.9089  0.1857
16751SOL    HW252261   3.018   3.328   2.128 -0.8706 -0.7881 -0.9391
16752SOL     OW52262   1.254  10.109   7.824 -0.2983 -0.4004  0.5788
16752SOL    HW152263   1.276  10.202   7.818 -0.2501 -0.2107  2.8068
16752SOL    HW252264   1.337  10.064   7.811  0.0043 -0.0315  1.1668
16753SOL     OW52265   6.556   6.996   8.850  0.1578 -0.2008  0.0123
16753SOL    HW152266   6.567   6.912   8.894 -3.2682 -1.5290 -1.3148
16753SOL    HW252267   6.543   6.974   8.758  0.9475  1.9759 -0.6853
16754SOL     OW52268   3.198   7.134   8.355  0.1209 -0.4119  0.2538
16754SOL    HW152269   3.252   7.197   8.307 -0.0380 -1.7096 -1.7510
16754SOL    HW252270   3.242   7.050   8.342 -0.8556 -1.0536  0.9930
16755SOL     OW52271   1.816   5.745   6.578 -0.2926 -0.1199  0.3220
16755SOL    HW152272   1.748   5.810   6.589 -0.8292 -0.5770 -0.2134
16755SOL    HW252273   1.776   5.663   6.608  0.4403 -0.1802  1.1887
16756SOL     OW52274   0.795   2.557   5.667  0.1157  0.7019  0.5171
16756SOL    HW152275   0.762   2.587   5.583 -1.6207 -1.0066  0.5056
16756SOL    HW252276   0.750   2.473   5.682  4.6539 -2.1196  0.4045
16757SOL     OW52277   7.991   1.899   9.142 -0.6160  0.1033 -0.6006
16757SOL    HW152278   8.018   1.833   9.078  1.9067  0.4335 -0.0085
16757SOL    HW252279   7.917   1.944   9.101 -1.1173 -1.7695 -1.8538
16758SOL     OW52280  10.056   4.430   6.039  0.0562 -0.2011  0.0067
16758SOL    HW152281  10.009   4.388   5.966 -0.9686  2.2408 -0.8499
16758SOL    HW252282  10.020   4.388   6.117 -0.0228 -1.7400 -0.8073
16759SOL     OW52283  10.641   9.295   5.961 -0.0496  0.2222  0.4298
16759SOL    HW152284  10.681   9.347   5.892  2.3886 -1.1891  0.6678
16759SOL    HW252285  10.642   9.205   5.927  0.2063 -0.3429  1.8599
16760SOL     OW52286   6.554   5.347   3.687 -0.1626 -0.0646 -0.1339
16760SOL    HW152287   6.566   5.306   3.772  0.3680  0.0338 -0.1598
16760SOL    HW252288   6.475   5.401   3.697  1.5293  2.3388  1.2554
16761SOL     OW52289   7.899   6.541   4.504  0.2186 -0.4836 -0.3822
16761SOL    HW152290   7.946   6.503   4.578 -0.2385 -0.7439 -0.2214
16761SOL    HW252291   7.931   6.493   4.428  0.4562 -0.4333 -0.3141
16762SOL     OW52292   6.637   0.165   1.501 -0.6640 -0.1418  0.1850
16762SOL    HW152293   6.561   0.208   1.461  0.9974  0.4901 -2.5263
16762SOL    HW252294   6.694   0.144   1.427  1.8770 -0.5077  2.1285
16763SOL     OW52295   8.922   5.433   3.160  0.2462 -0.0027  0.3753
16763SOL    HW152296   8.903   5.351   3.115  0.4309  0.9911 -1.5816
16763SOL    HW252297   8.992   5.411   3.221  0.1590 -1.3365  0.0268
16764SOL     OW52298   3.573   3.504   9.533  0.2814 -0.0571 -0.7924
16764SOL    HW152299   3.542   3.470   9.617  1.3920 -0.3252 -0.4662
16764SOL    HW252300   3.507   3.478   9.470 -1.2968  1.3756  0.1974
16765SOL     OW52301   8.141   3.330   9.213  0.4420 -0.4467  0.1973
16765SOL    HW152302   8.135   3.416   9.255  1.3066  0.2631 -1.0386
16765SOL    HW252303   8.155   3.269   9.284 -1.0953  0.2980  1.2026
16766SOL     OW52304   9.302   8.261   7.209  0.6291  0.0698  0.8425
16766SOL    HW152305   9.339   8.334   7.258  1.6757 -0.6167  1.0929
16766SOL    HW252306   9.288   8.295   7.121  0.8009  0.6664  1.0467
16767SOL     OW52307   2.730   9.578   0.964  0.0972  0.0865 -0.5996
16767SOL    HW152308   2.667   9.577   0.893 -0.8968  0.3953  0.2525
16767SOL    HW252309   2.735   9.670   0.991 -1.1183 -0.3009  1.0673
16768SOL     OW52310   3.565   0.093   5.985  0.7528 -0.0307  0.1505
16768SOL    HW152311   3.641   0.069   6.037  2.8362  1.7618 -1.8482
16768SOL    HW252312   3.599   0.152   5.917 -2.0062 -0.9604 -2.2844
16769SOL     OW52313   5.267   7.992   1.851 -0.1818 -1.3404 -0.0125
16769SOL    HW152314   5.351   8.001   1.806  0.1394  0.9504  0.9328
16769SOL    HW252315   5.203   8.019   1.786  0.0862 -0.3387  0.1173
16770SOL     OW52316   4.039   4.744   0.451 -0.3005 -0.5831  0.0746
16770SOL    HW152317   4.017   4.837   0.444  0.0661 -0.4616  0.4894
16770SOL    HW252318   4.133   4.741   0.436  0.0058 -0.6614  1.7620
16771SOL     OW52319  10.566   2.555   4.042  0.2574 -0.3205 -0.3715
16771SOL    HW152320  10.604   2.621   4.101  1.4447 -1.8224  0.6276
16771SOL    HW252321  10.500   2.511   4.095 -1.7443  1.0789 -1.5524
16772SOL     OW52322   1.340   6.020   8.609 -0.3950  0.2403  0.2709
16772SOL    HW152323   1.329   5.940   8.660 -4.4949  0.1101 -0.4610
16772SOL    HW252324   1.287   6.085   8.655 -0.6469  1.3158 -1.4522
16773SOL     OW52325   1.214   0.542   1.394 -0.3260 -0.1734  0.0048
16773SOL    HW152326   1.233   0.477   1.463 -0.6708 -0.1437  0.1314
16773SOL    HW252327   1.230   0.495   1.312 -3.5354 -1.4723 -0.0398
16774SOL     OW52328   4.655   8.482  11.258 -0.0163  0.4448  0.1660
16774SOL    HW152329   4.610   8.550  11.210 -0.8624 -0.5186 -0.4451
16774SOL    HW252330   4.619   8.486  11.346 -0.5153  0.3853 -0.0357
16775SOL     OW52331   6.495   7.353  10.803 -0.0909  0.3714 -0.2436
16775SOL    HW152332   6.529   7.326  10.717 -0.2862 -0.8872  0.0466
16775SOL    HW252333   6.535   7.438  10.819  3.1520 -1.0752  0.1442
16776SOL     OW52334   9.516   3.232   4.468  0.8641  0.1564  0.4782
16776SOL    HW152335   9.519   3.258   4.560  1.2888 -0.6109  0.6889
16776SOL    HW252336   9.558   3.305   4.422  0.0874  0.8330  0.8117
16777SOL     OW52337   8.224   7.199   1.761 -0.7751 -0.4393 -0.8700
16777SOL    HW152338   8.201   7.267   1.824  1.2929  0.5205 -1.0503
16777SOL    HW252339   8.212   7.117   1.809  0.8242  0.2657  0.8937
16778SOL     OW52340   7.750   8.759   5.860  0.6802  0.3169  0.3716
16778SOL    HW152341   7.713   8.731   5.944  2.5804  1.0553  1.4974
16778SOL    HW252342   7.714   8.697   5.796 -1.0507 -0.0668  1.6573
16779SOL     OW52343   4.246   5.936   7.837 -0.1856  1.4378  0.0215
16779SOL    HW152344   4.231   6.007   7.775  0.2040  1.7444  0.2722
16779SOL    HW252345   4.337   5.947   7.865 -0.3350  1.2600  0.5884
16780SOL     OW52346   4.595  11.075  11.183 -0.0307  0.4184  0.0934
16780SOL    HW152347   4.644  10.995  11.200 -0.1626  0.1436 -0.7705
16780SOL    HW252348   4.606  11.090  11.089 -0.2395  1.2584  0.1989
16781SOL     OW52349   2.052   6.267   8.986 -0.5917 -0.7231 -0.7668
16781SOL    HW152350   2.079   6.199   9.048 -1.1291  0.1901  0.5321
16781SOL    HW252351   2.049   6.223   8.901  1.0472 -1.8034 -0.3109
16782SOL     OW52352   7.328   5.136   1.278 -0.1534  0.1932 -0.3200
16782SOL    HW152353   7.408   5.082   1.276  0.0603  0.5211 -0.5799
16782SOL    HW252354   7.359   5.225   1.261 -0.3560  0.5824  1.1938
16783SOL     OW52355   8.233  10.914   9.230  0.2639  0.0026 -0.2167
16783SOL    HW152356   8.259  10.996   9.274  1.9021 -0.8915  0.5687
16783SOL    HW252357   8.150  10.936   9.188 -1.2659  1.0869  2.9635
16784SOL     OW52358   1.299   3.909   9.348  0.6193 -0.4950 -0.0447
16784SOL    HW152359   1.214   3.883   9.314  0.9776 -1.4598 -0.2506
16784SOL    HW252360   1.357   3.836   9.325  1.8928  0.8782 -1.4452
16785SOL     OW52361   2.597   9.831   4.463 -0.3731 -0.7831 -0.4254
16785SOL    HW152362   2.582   9.914   4.418 -2.0248 -1.1368 -0.6159
16785SOL    HW252363   2.612   9.768   4.393  0.0994 -0.7834 -0.3228
16786SOL     OW52364   5.634   8.396   7.039  0.0369 -0.6806  0.5029
16786SOL    HW152365   5.630   8.357   7.126  2.0648 -0.2723  0.8367
16786SOL    HW252366   5.635   8.322   6.979 -0.8992 -0.9788  0.8372
16787SOL     OW52367   8.825   7.643   4.588 -0.3938  0.3170 -0.5425
16787SOL    HW152368   8.742   7.668   4.547 -0.1846 -1.5222 -2.2193
16787SOL    HW252369   8.888   7.646   4.517 -0.0279 -3.1157 -0.5176
16788SOL     OW52370   6.644   7.941   2.956 -0.0545  0.6707 -0.1218
16788SOL    HW152371   6.704   7.995   3.007 -2.3132  2.8496  0.4616
16788SOL    HW252372   6.582   7.906   3.020 -0.5907  0.1218 -0.9150
16789SOL     OW52373   4.907   7.975  10.948 -0.9884  0.1603  0.2612
16789SOL    HW152374   4.920   8.005  10.858  1.3723 -0.9751  0.1312
16789SOL    HW252375   4.822   7.931  10.947 -1.0710  0.3068 -1.3956
16790SOL     OW52376   4.918  10.895   9.324  0.1023  0.1741  0.4885
16790SOL    HW152377   4.945  10.987   9.325  0.1522  0.2745 -2.2983
16790SOL    HW252378   4.840  10.892   9.380  0.9160  1.5754  1.7878
16791SOL     OW52379   9.786   7.743   6.275  0.3983  0.2692 -0.0627
16791SOL    HW152380   9.872   7.773   6.248  0.3876  0.1246 -0.2694
16791SOL    HW252381   9.768   7.788   6.357  0.8557 -0.0325  0.2088
16792SOL     OW52382   6.051   5.747  10.179  0.3393 -0.7086 -0.3867
16792SOL    HW152383   6.071   5.668  10.128  0.3176 -0.8840 -0.1260
16792SOL    HW252384   6.016   5.809  10.115  0.6213 -0.8121 -0.6420
16793SOL     OW52385   6.374   1.091   9.950 -0.3900 -0.3538 -0.2340
16793SOL    HW152386   6.457   1.075   9.906  0.7894  0.5271  1.5811
16793SOL    HW252387   6.332   1.160   9.897  0.5481 -0.0056 -0.5372
16794SOL     OW52388   4.521  11.012   6.117 -0.4846 -0.4842 -0.7585
16794SOL    HW152389   4.547  10.934   6.166  0.5119 -1.2369 -2.4083
16794SOL    HW252390   4.466  11.062   6.179 -0.9389 -2.3405  0.4252
16795SOL     OW52391   7.356   9.350   3.278  0.0397 -0.4830 -0.6174
16795SOL    HW152392   7.343   9.367   3.371  0.5797 -1.9034 -0.2545
16795SOL    HW252393   7.392   9.432   3.243  0.3985 -0.1310  0.5367
16796SOL     OW52394   3.276   7.535   8.503  0.4396  0.0112 -0.2613
16796SOL    HW152395   3.196   7.572   8.466  1.4533  0.2235 -2.4235
16796SOL    HW252396   3.251   7.447   8.531 -0.5047 -0.0066 -1.1046
16797SOL     OW52397   5.372   6.572   2.937 -0.1625  0.0948  0.2596
16797SOL    HW152398   5.414   6.655   2.958  0.2052 -0.1033  0.3188
16797SOL    HW252399   5.282   6.596   2.913  0.6646  0.8051 -2.4663
16798SOL     OW52400   2.339   9.882   3.214  0.0191  0.1343  0.4783
16798SOL    HW152401   2.284   9.809   3.185  1.8976 -1.4207  0.6242
16798SOL    HW252402   2.381   9.913   3.133  1.8291 -1.2607  0.8167
16799SOL     OW52403   6.326   7.820  11.000 -0.4084  0.0916 -0.0280
16799SOL    HW152404   6.412   7.822  11.042  0.2722  1.3160 -1.3829
16799SOL    HW252405   6.345   7.812  10.907 -1.7473  0.7005 -0.3763
16800SOL     OW52406   3.800   6.362   5.219  0.1667  0.2014 -0.3280
16800SOL    HW152407   3.819   6.400   5.134 -0.0362 -0.7237 -0.8067
16800SOL    HW252408   3.874   6.302   5.235  0.3830  0.6302  0.3115
16801SOL     OW52409   7.196   6.219   5.065  0.4259 -0.2059  0.4862
16801SOL    HW152410   7.170   6.128   5.049  0.0349 -0.0778  0.3832
16801SOL    HW252411   7.127   6.255   5.119 -0.4767  0.6090 -1.1235
16802SOL     OW52412   4.148   9.558   8.640  0.2634  0.6981 -0.0051
16802SOL    HW152413   4.235   9.597   8.629 -0.6041  2.9024  0.3225
16802SOL    HW252414   4.162   9.464   8.627  2.5981  1.0256 -0.3951
16803SOL     OW52415   2.679   3.765   0.483  0.2353  0.2163 -0.4971
16803SOL    HW152416   2.607   3.815   0.445 -0.2011 -0.0023  0.0362
16803SOL    HW252417   2.661   3.674   0.457 -1.2169 -0.2656  1.9084
16804SOL     OW52418   2.409   7.793   7.525 -0.2974  0.7057  0.3697
16804SOL    HW152419   2.403   7.783   7.620  0.0835 -0.3961  0.2918
16804SOL    HW252420   2.329   7.753   7.491  1.5223 -3.1748  0.0187
16805SOL     OW52421  10.881   5.983   8.531 -0.4181  0.1561  0.6518
16805SOL    HW152422  10.840   6.022   8.609 -3.2612 -1.6955  0.2398
16805SOL    HW252423  10.875   5.889   8.546  1.3586 -0.2159 -0.7073
16806SOL     OW52424  11.009   1.315  10.893 -0.4286  0.0749  0.4808
16806SOL    HW152425  11.100   1.289  10.906 -1.0719 -3.3593 -0.7616
16806SOL    HW252426  10.974   1.328  10.982  0.6027 -1.3034  1.1208
16807SOL     OW52427   8.516  11.054   3.695 -0.9575  0.1380  0.0552
16807SOL    HW152428   8.432  11.092   3.669 -1.2165  0.1924  0.9457
16807SOL    HW252429   8.563  11.127   3.734  0.1798  0.5247 -1.8979
16808SOL     OW52430   2.238   9.512   3.483 -0.1984  0.9232  0.2482
16808SOL    HW152431   2.178   9.501   3.409 -0.6772 -1.3846  0.9159
16808SOL    HW252432   2.186   9.556   3.550 -0.3301  1.2858 -0.0822
16809SOL     OW52433  10.631   2.626   8.927 -0.2951  0.4826  0.8835
16809SOL    HW152434  10.545   2.616   8.968 -1.6784  0.5386 -1.7414
16809SOL    HW252435  10.613   2.620   8.833  2.6290  0.3257  0.2387
16810SOL     OW52436   3.969  10.855   8.018 -0.3265  0.1181  0.1448
16810SOL    HW152437   3.895  10.826   8.072  0.8473 -2.5609  0.4825
16810SOL    HW252438   4.043  10.801   8.048  1.5143  1.9197 -0.9326
16811SOL     OW52439   0.140  11.255   0.106  0.9308 -0.1467  0.1681
16811SOL    HW152440   0.128  11.349   0.119  1.4841 -0.2853  1.8983
16811SOL    HW252441   0.062  11.228   0.057  1.3316  1.3800 -1.4201
16812SOL     OW52442   9.727   3.406   1.828 -0.4054 -0.4128 -0.1510
16812SOL    HW152443   9.776   3.324   1.820 -0.8165 -0.8301  1.3007
16812SOL    HW252444   9.650   3.383   1.879 -0.1965  0.9977  0.8863
16813SOL     OW52445   0.902   9.851   2.601  0.6214 -0.8400 -0.7671
16813SOL    HW152446   0.850   9.809   2.533 -0.1944 -2.1453  0.5912
16813SOL    HW252447   0.992   9.830   2.579  0.5384  0.5406 -2.5653
16814SOL     OW52448   5.571   7.814   8.422 -0.7630  0.5731 -0.0185
16814SOL    HW152449   5.663   7.835   8.435 -1.0259  1.8460 -0.0677
16814SOL    HW252450   5.561   7.724   8.454  0.2415  0.8484  1.1035
16815SOL     OW52451   2.981   2.410   3.643 -0.6251 -0.1212  0.6232
16815SOL    HW152452   3.014   2.352   3.575 -0.2848 -0.6334  1.2121
16815SOL    HW252453   2.929   2.476   3.596 -1.2903 -1.0844 -0.0275
16816SOL     OW52454  10.019   0.200   0.903  0.1028 -0.1984 -0.1547
16816SOL    HW152455   9.996   0.269   0.964 -2.2069 -0.5188 -0.6005
16816SOL    HW252456   9.982   0.228   0.819  0.9055 -1.0258 -0.8118
16817SOL     OW52457   3.016   8.222   6.774  0.5496  0.0679 -0.0126
16817SOL    HW152458   3.070   8.263   6.706 -2.0410  0.3512 -2.0427
16817SOL    HW252459   2.992   8.137   6.737  0.6390 -0.6133  1.4318
16818SOL     OW52460   9.068  10.485   2.700 -0.0430  0.2196  0.1203
16818SOL    HW152461   9.120  10.477   2.780 -0.0975  0.7401  0.2126
16818SOL    HW252462   9.019  10.566   2.712 -0.3240  0.1111 -0.2857
16819SOL     OW52463   6.905   9.514   5.643 -0.8123  0.7218  0.2558
16819SOL    HW152464   6.959   9.453   5.593  0.1422  0.8684  1.0731
16819SOL    HW252465   6.851   9.458   5.698 -0.5721  0.5850  0.3574
16820SOL     OW52466   5.645   3.868   7.221 -0.0755 -0.0905 -0.1629
16820SOL    HW152467   5.608   3.835   7.139  0.4561 -3.0191  0.6516
16820SOL    HW252468   5.587   3.940   7.246  0.7676  2.2056 -3.9356
16821SOL     OW52469   1.078  11.034   2.470  0.0085  0.3451  0.3949
16821SOL    HW152470   0.989  11.069   2.472 -0.2047 -0.1594 -0.0705
16821SOL    HW252471   1.130  11.103   2.430 -0.0407  0.9221  1.3003
16822SOL     OW52472   9.229   1.187   2.188  0.2054 -0.0215 -0.0728
16822SOL    HW152473   9.319   1.156   2.181 -0.8589 -2.9493 -2.9203
16822SOL    HW252474   9.199   1.153   2.272  1.2541 -0.4285  0.1595
16823SOL     OW52475   6.828   5.508   1.554 -0.3678 -0.5873  0.4110
16823SOL    HW152476   6.877   5.504   1.472  0.4205 -0.9235  0.8899
16823SOL    HW252477   6.865   5.438   1.607  0.9532  1.2428  2.0385
16824SOL     OW52478   1.503   6.727   4.842  0.2771 -0.2519 -0.6826
16824SOL    HW152479   1.558   6.735   4.921 -0.3016  2.2165 -0.4371
16824SOL    HW252480   1.547   6.783   4.778 -0.4609 -0.4762 -1.3842
16825SOL     OW52481   4.990   4.261   2.087 -0.1106  0.4032 -0.5412
16825SOL    HW152482   4.991   4.220   2.001  2.4609  0.7762 -0.7476
16825SOL    HW252483   5.068   4.228   2.131 -0.6440  1.2677  1.1411
16826SOL     OW52484  10.635   5.538   8.948  0.3068 -0.1534 -0.1013
16826SOL    HW152485  10.690   5.463   8.925  1.3208  0.2026  1.0755
16826SOL    HW252486  10.679   5.613   8.907 -0.8354 -0.1844 -1.4801
16827SOL     OW52487   7.194   7.962   1.480 -0.2279 -0.3117 -0.5341
16827SOL    HW152488   7.176   7.907   1.556  2.9269  2.3123  2.4676
16827SOL    HW252489   7.149   8.044   1.499 -0.5939 -0.0780 -2.2979
16828SOL     OW52490   2.835  10.686   6.418  0.1069 -0.1416  0.2843
16828SOL    HW152491   2.903  10.619   6.423 -0.7169 -0.9527  0.8167
16828SOL    HW252492   2.828  10.707   6.324  0.3778 -0.7809  0.1214
16829SOL     OW52493   6.435   2.907   4.318  0.4255  0.0896  0.2199
16829SOL    HW152494   6.389   2.838   4.270  0.4989  0.2930 -0.1412
16829SOL    HW252495   6.380   2.985   4.307  0.9811  0.3998 -0.4286
16830SOL     OW52496   0.253   8.335   9.819 -0.0382  0.1863  0.0744
16830SOL    HW152497   0.321   8.399   9.798 -0.4087  0.8423  0.8235
16830SOL    HW252498   0.283   8.292   9.899  0.9075 -1.6392 -1.1848
16831SOL     OW52499  10.866   9.380   6.515  0.6210  0.0421 -0.6622
16831SOL    HW152500  10.843   9.463   6.557  0.3675  0.5368 -1.7151
16831SOL    HW252501  10.868   9.401   6.421 -0.1722 -1.3074 -1.0157
16832SOL     OW52502   6.733   1.142   6.961  0.3840  0.1088 -0.4354
16832SOL    HW152503   6.805   1.164   6.902  0.7350 -3.8625 -1.7836
16832SOL    HW252504   6.659   1.123   6.902  0.4839 -3.0926  0.3292
16833SOL     OW52505   3.863   5.140  10.208 -0.4756 -0.5061  0.1036
16833SOL    HW152506   3.930   5.087  10.165  1.1446  0.8355  0.8599
16833SOL    HW252507   3.784   5.128  10.155  1.1279  0.2168 -2.6060
16834SOL     OW52508   2.680   7.099   1.523  0.4688 -0.3825 -0.1177
16834SOL    HW152509   2.619   7.166   1.491  1.4409  1.4281  1.6039
16834SOL    HW252510   2.637   7.062   1.600  0.5750 -0.6892 -0.2054
16835SOL     OW52511   0.417   2.332   3.619  0.7438 -0.1986  0.5947
16835SOL    HW152512   0.484   2.280   3.663  1.1115 -1.1860 -1.0545
16835SOL    HW252513   0.396   2.283   3.539 -1.5957  0.3312  0.7966
16836SOL     OW52514  10.829   9.831   7.481  0.0494 -0.0432  0.4284
16836SOL    HW152515  10.868   9.744   7.470 -1.1046 -0.7516  1.6669
16836SOL    HW252516  10.809   9.859   7.392  0.5357 -1.0019 -0.0028
16837SOL     OW52517   7.748   3.098   5.090 -0.0304  0.0759  0.4017
16837SOL    HW152518   7.662   3.132   5.115 -0.0032  0.4870 -0.0454
16837SOL    HW252519   7.731   3.011   5.054 -0.3155  0.3441 -0.1137
16838SOL     OW52520   4.431   4.669   3.657 -0.1623  0.0693 -0.2379
16838SOL    HW152521   4.363   4.653   3.722  1.2033  0.6925  1.4284
16838SOL    HW252522   4.502   4.610   3.681 -0.1340 -0.7270 -2.0788
16839SOL     OW52523   3.947   1.601   4.343  0.6018  0.2322 -0.4291
16839SOL    HW152524   4.029   1.639   4.374  0.5900 -0.1506  0.0853
16839SOL    HW252525   3.946   1.512   4.379 -0.0685  0.2530 -0.3755
16840SOL     OW52526   3.797   2.847   5.831  0.1191  0.4848 -0.4968
16840SOL    HW152527   3.719   2.813   5.786 -0.4813  1.2983 -0.0938
16840SOL    HW252528   3.762   2.900   5.903  1.0453 -0.2270  0.5205
16841SOL     OW52529   5.532   3.952  10.143 -0.6086  0.7548  0.8910
16841SOL    HW152530   5.485   3.968  10.060 -1.8732  2.3112  1.8436
16841SOL    HW252531   5.616   3.996  10.132 -0.0621 -0.4815 -0.1560
16842SOL     OW52532   2.218   6.236   0.935  0.3594 -0.0418 -0.6539
16842SOL    HW152533   2.252   6.275   1.016 -1.2354 -1.7665  0.9580
16842SOL    HW252534   2.288   6.177   0.906  0.6579  0.0060 -0.0606
16843SOL     OW52535   8.513   0.725   9.081  0.7428 -0.1725 -0.1564
16843SOL    HW152536   8.438   0.746   9.136  0.5565 -1.2565  0.0377
16843SOL    HW252537   8.555   0.809   9.064 -1.3365  0.6829 -1.5052
16844SOL     OW52538   5.473   0.759   9.311 -0.3167 -0.0913 -0.2865
16844SOL    HW152539   5.379   0.773   9.313 -0.7948 -1.1261 -4.7001
16844SOL    HW252540   5.505   0.821   9.245  1.9045 -0.6263  0.1986
16845SOL     OW52541   1.340   3.181   3.092  0.0999  0.0224  0.2506
16845SOL    HW152542   1.303   3.269   3.080  0.4247 -0.1750 -3.4025
16845SOL    HW252543   1.432   3.191   3.067 -0.3056 -1.6415 -2.2341
16846SOL     OW52544  10.281   6.866   1.891  0.6245 -0.1638 -0.0901
16846SOL    HW152545  10.359   6.815   1.867  1.1386 -0.2288  1.5968
16846SOL    HW252546  10.208   6.807   1.875  1.1863 -1.3426  1.4752
16847SOL     OW52547   5.431   5.084   8.329  0.1853  0.0374 -0.2470
16847SOL    HW152548   5.366   5.028   8.369  0.2998 -0.3566 -0.6099
16847SOL    HW252549   5.409   5.172   8.359 -1.4351  0.1243 -1.5502
16848SOL     OW52550   0.117   6.537   3.334  0.7878 -0.6149  0.1587
16848SOL    HW152551   0.168   6.591   3.394 -1.6202 -0.3256  2.1409
16848SOL    HW252552   0.154   6.449   3.344  0.4815 -0.5840  2.1937
16849SOL     OW52553   9.061   3.242   2.017  0.6191  0.0020 -0.0535
16849SOL    HW152554   9.109   3.316   2.055 -0.1801 -0.3199  1.6742
16849SOL    HW252555   9.013   3.204   2.091 -0.9632 -0.7196 -1.3899
16850SOL     OW52556   2.355   5.117   2.769  0.5226  0.0523  0.1263
16850SOL    HW152557   2.381   5.124   2.861 -0.8165 -0.4390  0.5673
16850SOL    HW252558   2.272   5.069   2.771  0.4439  0.0823 -1.3383
16851SOL     OW52559   4.218   8.736   7.801 -0.4949  0.1730 -0.5095
16851SOL    HW152560   4.137   8.764   7.759 -1.1788 -1.0105 -0.0511
16851SOL    HW252561   4.248   8.812   7.851 -1.1383  0.7253 -0.9525
16852SOL     OW52562   8.696   7.269   7.623  0.3548  0.2429 -0.0318
16852SOL    HW152563   8.653   7.277   7.708  0.6188  0.7582  0.0567
16852SOL    HW252564   8.756   7.195   7.633 -0.5746 -0.5523 -0.1868
16853SOL     OW52565   1.372   3.919   1.827 -0.8626 -0.1335 -0.5063
16853SOL    HW152566   1.373   3.835   1.781 -2.0661 -0.4896  0.0800
16853SOL    HW252567   1.330   3.900   1.911  3.2254 -0.0458  1.8149
16854SOL     OW52568  11.028   0.556   1.806  0.5777 -0.1480 -0.3346
16854SOL    HW152569  11.099   0.619   1.815  1.9634 -1.4908 -1.2714
16854SOL    HW252570  10.956   0.605   1.766  0.7116  1.4074  1.2636
16855SOL     OW52571   4.975   2.245   1.664  0.3342  0.2512  0.2442
16855SOL    HW152572   4.925   2.322   1.641 -1.0269 -0.5919  0.2673
16855SOL    HW252573   4.988   2.198   1.581 -0.6779 -0.5347  0.5118
16856SOL     OW52574   0.760   5.222   8.797 -0.0661 -0.2892  0.2797
16856SOL    HW152575   0.741   5.313   8.820 -0.8221 -0.3292 -0.1349
16856SOL    HW252576   0.708   5.207   8.718  1.3101 -0.5970 -0.5884
16857SOL     OW52577   6.593   8.162  11.263 -0.4798 -0.1726 -0.4297
16857SOL    HW152578   6.528   8.191  11.326  0.3924  0.5726  0.1646
16857SOL    HW252579   6.582   8.220  11.187 -1.2773 -0.8187 -0.8135
16858SOL     OW52580   6.454   0.347   8.740  0.2819 -0.2531 -0.9726
16858SOL    HW152581   6.422   0.260   8.763 -1.8614  0.9004  0.8301
16858SOL    HW252582   6.396   0.375   8.669  1.0750 -0.3268 -1.6640
16859SOL     OW52583  10.694   0.460   1.710 -0.2858 -0.3378  0.0246
16859SOL    HW152584  10.756   0.530   1.688 -0.2168  0.2671  2.0074
16859SOL    HW252585  10.747   0.381   1.711 -0.1512 -0.2851 -1.1713
16860SOL     OW52586   3.040   7.676   0.851  0.0353 -0.2086 -0.6285
16860SOL    HW152587   3.038   7.735   0.927  1.2066 -0.4547 -0.3866
16860SOL    HW252588   3.082   7.727   0.782  0.9053 -0.6896 -0.4669
16861SOL     OW52589   9.950  10.586  10.414 -0.3781  1.1592  0.0527
16861SOL    HW152590   9.913  10.556  10.497 -2.9873  0.6193 -1.2029
16861SOL    HW252591   9.968  10.679  10.428  1.2945  0.6356  1.8340
16862SOL     OW52592   2.901  10.695   0.705  0.3834 -0.1906 -0.6912
16862SOL    HW152593   2.934  10.644   0.631  1.0145 -0.5222 -0.1977
16862SOL    HW252594   2.968  10.684   0.773  1.0128  2.0442 -0.8602
16863SOL     OW52595   3.611   3.645   0.854  0.4565  0.0213  0.2346
16863SOL    HW152596   3.669   3.713   0.889 -0.6608  0.4080  1.4389
16863SOL    HW252597   3.553   3.623   0.928 -1.2294 -0.0131 -1.0405
16864SOL     OW52598   6.641  11.223   2.573 -0.5551 -0.1661 -0.1829
16864SOL    HW152599   6.673  11.236   2.662 -0.7509 -1.5214  0.1017
16864SOL    HW252600   6.706  11.268   2.518  1.3658 -2.0016  0.4480
16865SOL     OW52601   2.615   0.768   1.590  0.7472 -0.1567 -0.5824
16865SOL    HW152602   2.709   0.784   1.583  0.7919  0.1580  0.5542
16865SOL    HW252603   2.574   0.850   1.565  0.8956  0.8721  2.2374
16866SOL     OW52604  10.408   8.296   6.790  0.6262  0.1155 -0.2098
16866SOL    HW152605  10.396   8.201   6.791  0.1054  0.1115 -2.5853
16866SOL    HW252606  10.482   8.311   6.849  1.0440 -1.8009 -0.1742
16867SOL     OW52607   6.955  10.219   1.822  0.6950  0.3511  0.0812
16867SOL    HW152608   6.982  10.299   1.868 -0.4119 -0.0318  1.4722
16867SOL    HW252609   7.037  10.172   1.806  1.2276  1.0979  0.5269
16868SOL     OW52610   7.939   6.945   3.916 -0.2811  0.0082  0.2976
16868SOL    HW152611   8.024   6.982   3.940 -1.0626  1.8061  0.4801
16868SOL    HW252612   7.909   6.899   3.995  2.1186 -4.0707 -0.8773
16869SOL     OW52613   2.401   7.360   6.543 -0.9343 -0.1431  0.2261
16869SOL    HW152614   2.479   7.392   6.588 -0.5963 -0.5692 -0.0390
16869SOL    HW252615   2.392   7.417   6.467 -0.6932 -0.2817  0.0898
16870SOL     OW52616   9.604   9.524   5.944  0.3442 -0.0395 -0.0461
16870SOL    HW152617   9.634   9.460   5.880 -0.0223 -0.5550  0.2896
16870SOL    HW252618   9.574   9.598   5.892 -1.0980 -0.9341 -0.5554
16871SOL     OW52619   6.676   9.682   8.886 -0.3637 -0.0069 -0.3922
16871SOL    HW152620   6.728   9.761   8.874 -1.2451  0.1661 -4.1702
16871SOL    HW252621   6.740   9.614   8.909  0.8852  1.0901 -0.5363
16872SOL     OW52622   1.555   3.398  11.029 -0.0044 -0.3395  0.2941
16872SOL    HW152623   1.491   3.376  10.961 -0.7890 -2.5171  1.6081
16872SOL    HW252624   1.640   3.391  10.986 -0.5356 -0.0653 -0.8349
16873SOL     OW52625   5.561   0.804   2.285 -0.5856  0.1422  0.2425
16873SOL    HW152626   5.591   0.760   2.364 -2.5350 -1.1290  0.3327
16873SOL    HW252627   5.576   0.740   2.215 -2.3120 -0.2386  0.1837
16874SOL     OW52628   3.888   2.685   9.232 -0.1279  0.1907  0.0525
16874SOL    HW152629   3.917   2.614   9.174  0.8005  0.8000 -0.2431
16874SOL    HW252630   3.796   2.699   9.208 -0.0879 -0.3662 -0.4459
16875SOL     OW52631   3.863   0.630   4.726  0.1705 -0.0032 -0.0393
16875SOL    HW152632   3.891   0.695   4.791  0.8024  2.0249 -2.1770
16875SOL    HW252633   3.878   0.546   4.768 -0.3801  1.1896  2.7608
16876SOL     OW52634   7.582  10.340   4.583  0.0568 -0.2363  0.7340
16876SOL    HW152635   7.540  10.371   4.663  0.9445  0.9541  0.7701
16876SOL    HW252636   7.634  10.265   4.610 -1.7995 -1.5774  0.7350
16877SOL     OW52637   9.862   1.876   0.420 -0.5776  0.0588  0.0906
16877SOL    HW152638   9.945   1.869   0.467 -1.0363  1.5156  1.1784
16877SOL    HW252639   9.888   1.879   0.328  0.5051 -0.4072  0.3588
16878SOL     OW52640   4.484   2.023   6.368 -0.3617 -0.2888 -0.3257
16878SOL    HW152641   4.413   1.983   6.418 -1.4759 -0.1462 -1.7207
16878SOL    HW252642   4.516   1.953   6.311  1.9165 -0.8863  1.5177
16879SOL     OW52643   6.804  10.120  11.160 -0.5808 -0.2728 -0.5130
16879SOL    HW152644   6.843  10.184  11.100 -2.3975  1.4274  0.0136
16879SOL    HW252645   6.711  10.125  11.143 -0.8398 -2.2598  0.1096
16880SOL     OW52646   6.919   8.471   0.272  0.1486  0.2371  0.7864
16880SOL    HW152647   6.838   8.427   0.246  0.9885  0.9020 -3.7372
16880SOL    HW252648   6.892   8.561   0.293 -0.3243  0.6162 -1.2356
16881SOL     OW52649   7.736   5.339   1.938  0.5544  0.1803 -0.3960
16881SOL    HW152650   7.789   5.260   1.948 -0.1623 -0.3754 -0.8693
16881SOL    HW252651   7.792   5.399   1.888  0.6783 -0.4709 -1.0655
16882SOL     OW52652   3.490   7.959   9.365 -0.3388 -0.0811 -0.1884
16882SOL    HW152653   3.516   8.007   9.444 -1.7269 -1.1675  0.9760
16882SOL    HW252654   3.399   7.984   9.351  0.1777  0.9229 -2.1198
16883SOL     OW52655   0.349   7.106   8.155 -0.3346  0.0384 -0.1467
16883SOL    HW152656   0.270   7.160   8.163  1.1096  2.5371 -1.5540
16883SOL    HW252657   0.317   7.023   8.121 -2.4351  0.7591 -0.0823
16884SOL     OW52658   4.961   3.825   3.531 -0.0482  0.4713  0.5257
16884SOL    HW152659   4.912   3.743   3.533  0.9165 -0.1190  0.5410
16884SOL    HW252660   4.971   3.849   3.623  2.2091 -0.9780  0.7303
16885SOL     OW52661   0.435  10.708   0.082 -0.0913  0.2128 -0.2343
16885SOL    HW152662   0.438  10.638   0.016 -1.4263  1.9153 -2.2235
16885SOL    HW252663   0.525  10.740   0.087  0.1230 -0.2663 -0.8649
16886SOL     OW52664   6.387   6.804   9.265  0.4169 -0.6540 -0.3679
16886SOL    HW152665   6.480   6.825   9.274 -0.0311  1.1361  0.5134
16886SOL    HW252666   6.385   6.710   9.249  2.4903 -0.3912 -2.6706
16887SOL     OW52667   1.501   7.597   0.015  0.6706  0.0993 -0.2332
16887SOL    HW152668   1.439   7.545  -0.036  1.1378  1.0398 -1.8292
16887SOL    HW252669   1.465   7.686   0.014 -0.8277 -0.2617  3.5883
16888SOL     OW52670  10.335   2.144   0.068  0.2382 -1.0765 -0.4913
16888SOL    HW152671  10.350   2.130  -0.026  0.9904  0.4290 -0.6344
16888SOL    HW252672  10.240   2.133   0.079 -0.1344  0.4255 -1.7909
16889SOL     OW52673   3.893   3.359   1.692 -0.2965 -0.4117 -0.3712
16889SOL    HW152674   3.962   3.378   1.628  0.1265  0.4263  0.3053
16889SOL    HW252675   3.836   3.436   1.687  0.1710  0.0329  0.7914
16890SOL     OW52676   2.433   9.648   3.043 -0.1115  0.1591  0.2922
16890SOL    HW152677   2.403   9.735   3.016  0.9579  0.5670  0.3992
16890SOL    HW252678   2.528   9.654   3.045 -0.0726 -0.2820  2.7807
16891SOL     OW52679   4.227   6.259   4.871  0.5908 -0.3208 -0.0186
16891SOL    HW152680   4.219   6.167   4.893  0.0494 -0.2075  0.2756
16891SOL    HW252681   4.153   6.277   4.814 -0.4085  0.3626  1.4217
16892SOL     OW52682   2.552   5.585   3.516  1.2013  0.4968 -0.0640
16892SOL    HW152683   2.635   5.542   3.496  1.5073  0.8022  0.5624
16892SOL    HW252684   2.497   5.565   3.440  1.2260 -1.2827  0.3266
16893SOL     OW52685   1.794   2.782   7.939 -0.2171  0.1450  1.0072
16893SOL    HW152686   1.845   2.769   7.859 -0.6260 -1.0726  0.9310
16893SOL    HW252687   1.851   2.833   7.996  0.7767 -0.5260  0.6321
16894SOL     OW52688   4.863   7.955   7.828  0.3969  0.0205  0.4101
16894SOL    HW152689   4.871   7.884   7.892  0.2289  0.3447  0.7998
16894SOL    HW252690   4.839   7.912   7.746  1.0900 -0.4543  0.4467
16895SOL     OW52691   1.647   5.482   0.012 -0.1065  0.0471 -0.3840
16895SOL    HW152692   1.719   5.542   0.032 -1.6756  1.9608 -0.0440
16895SOL    HW252693   1.596   5.529  -0.054 -2.1912 -0.2289  0.9379
16896SOL     OW52694   9.495   3.082   6.294  0.7320 -0.6576 -0.7981
16896SOL    HW152695   9.464   3.000   6.331 -1.6048  0.3550 -0.3353
16896SOL    HW252696   9.581   3.096   6.334  1.0198 -2.6687 -0.6365
16897SOL     OW52697   9.454   8.237   9.005 -0.3974 -0.0219  0.8491
16897SOL    HW152698   9.424   8.297   9.073  1.9840  1.3237  0.8151
16897SOL    HW252699   9.544   8.263   8.988  1.1420 -4.1514  1.4629
16898SOL     OW52700   4.332   3.717  10.778 -0.0818 -0.4493 -0.2631
16898SOL    HW152701   4.340   3.690  10.870 -3.2291 -0.5612  0.1070
16898SOL    HW252702   4.318   3.636  10.730 -0.5044 -0.2343 -0.5107
16899SOL     OW52703   2.729   0.483   3.373  0.1592  0.2240 -0.6577
16899SOL    HW152704   2.796   0.440   3.319  1.9867  0.2083  1.5020
16899SOL    HW252705   2.689   0.547   3.313 -0.1053 -1.8612 -2.8862
16900SOL     OW52706   3.236   1.027   3.323 -0.0869 -0.1249 -0.5964
16900SOL    HW152707   3.317   1.043   3.370 -0.1388  2.7471 -1.3126
16900SOL    HW252708   3.223   0.932   3.328  2.5285 -0.4801  0.7483
16901SOL     OW52709   4.569   6.084   8.504  0.5579  0.6058 -0.2914
16901SOL    HW152710   4.659   6.083   8.535  1.0398  0.8486 -1.6166
16901SOL    HW252711   4.546   5.991   8.494  0.9552  0.5561 -0.7633
16902SOL     OW52712   0.673  10.045   2.564  0.8972  0.1556  0.2370
16902SOL    HW152713   0.762  10.009   2.569  0.8421  0.1386  3.3841
16902SOL    HW252714   0.685  10.140   2.563  0.9953  0.1737  1.4738
16903SOL     OW52715   2.859   8.084   1.817 -0.6594 -0.7129  0.3765
16903SOL    HW152716   2.899   8.157   1.865  1.9057 -1.6834 -0.1073
16903SOL    HW252717   2.897   8.090   1.730 -3.0651 -0.6692 -0.7480
16904SOL     OW52718   1.025   3.230   1.528  0.2035 -0.2755  0.2427
16904SOL    HW152719   1.026   3.325   1.536  3.0660 -0.1928 -0.0238
16904SOL    HW252720   1.090   3.211   1.460 -0.3695 -2.4360  0.2200
16905SOL     OW52721   0.794   0.033  10.840 -0.5041 -0.1475 -0.1685
16905SOL    HW152722   0.738  -0.020  10.897 -1.7892  0.4504 -0.8387
16905SOL    HW252723   0.843   0.089  10.901 -1.1395 -0.1929  0.3985
16906SOL     OW52724  10.493  10.732   7.395 -0.9287  0.5174  0.1085
16906SOL    HW152725  10.541  10.652   7.414 -0.8814  0.9947  2.3400
16906SOL    HW252726  10.520  10.757   7.307 -0.0438 -1.2728 -0.1603
16907SOL     OW52727   7.638   9.809   4.031 -0.4117  0.4837  0.3814
16907SOL    HW152728   7.702   9.826   4.100 -1.5615 -0.1676  1.6487
16907SOL    HW252729   7.566   9.869   4.050 -0.2886  1.0963 -0.9430
16908SOL     OW52730   8.014   7.428   6.068  0.6527  0.6800  0.0059
16908SOL    HW152731   8.022   7.444   6.162  1.2496  1.3979 -0.1573
16908SOL    HW252732   7.990   7.335   6.061 -0.1394  0.8123  0.8829
16909SOL     OW52733   8.730   3.254   3.442 -0.0615  0.4138 -0.2925
16909SOL    HW152734   8.773   3.268   3.526 -1.6308  0.5209  0.5414
16909SOL    HW252735   8.772   3.315   3.382  0.3930  1.0644  0.6689
16910SOL     OW52736   4.659   8.578   8.299  0.0937  0.8647  0.0483
16910SOL    HW152737   4.629   8.569   8.390  2.1806  0.6582  0.7752
16910SOL    HW252738   4.646   8.491   8.261 -0.9903  1.0072  0.0466
16911SOL     OW52739   0.172   6.127   0.826  0.0885  0.2807 -0.1243
16911SOL    HW152740   0.226   6.074   0.767 -1.1401 -0.7143 -0.4129
16911SOL    HW252741   0.207   6.109   0.913  1.0806  0.7253 -0.4202
16912SOL     OW52742   3.695   8.064  10.966 -0.7425  0.0510 -0.4130
16912SOL    HW152743   3.709   8.111  10.884  0.2044  2.2770  0.9443
16912SOL    HW252744   3.776   8.013  10.978 -0.6947  0.0697 -0.6441
16913SOL     OW52745   0.438   4.357   6.427 -0.3128  0.4672  0.1275
16913SOL    HW152746   0.435   4.402   6.343 -2.5845  0.1686 -0.0002
16913SOL    HW252747   0.497   4.410   6.481  0.5499  1.0974 -1.3857
16914SOL     OW52748   1.789   6.660   0.060 -0.0367 -0.3734  0.8677
16914SOL    HW152749   1.873   6.672   0.015 -1.0725 -0.1594 -1.0993
16914SOL    HW252750   1.741   6.740   0.043 -0.3142 -0.0763  2.8250
16915SOL     OW52751   1.655   3.946   3.130 -0.5492  0.0800 -0.2134
16915SOL    HW152752   1.664   4.039   3.153 -1.7752  0.2647 -0.4359
16915SOL    HW252753   1.721   3.932   3.062  2.0737 -0.1014  2.1875
16916SOL     OW52754   6.020   2.715   1.775 -0.1152  0.1632  0.7586
16916SOL    HW152755   5.961   2.642   1.795 -1.3216 -0.0060 -2.7470
16916SOL    HW252756   6.104   2.690   1.815 -0.9415 -2.3124  1.0986
16917SOL     OW52757   1.092   7.722   1.836 -0.7554 -0.0553 -0.1431
16917SOL    HW152758   1.061   7.731   1.746 -1.9751  1.6200  0.4010
16917SOL    HW252759   1.174   7.773   1.838  2.0618 -4.0057 -1.4281
16918SOL     OW52760   9.212   0.242   2.299  0.0048 -0.2307  0.0984
16918SOL    HW152761   9.233   0.301   2.371 -0.6561  0.2954 -0.1362
16918SOL    HW252762   9.235   0.155   2.332  0.1296  0.0560  0.7731
16919SOL     OW52763   5.322   2.415   6.290 -0.5253 -0.4077  0.5165
16919SOL    HW152764   5.334   2.501   6.250 -0.3313 -0.0287  1.3773
16919SOL    HW252765   5.310   2.356   6.215 -2.1239  0.5715 -0.0470
16920SOL     OW52766   2.048   7.811  11.173 -0.0796 -0.3145  0.1648
16920SOL    HW152767   2.080   7.900  11.185  2.5714 -1.1902  0.3363
16920SOL    HW252768   2.077   7.765  11.252 -5.5988 -0.4387  2.5845
16921SOL     OW52769   0.218   7.314   2.094 -0.1551 -0.2798  0.0148
16921SOL    HW152770   0.200   7.239   2.037 -1.3822 -0.6336  0.8494
16921SOL    HW252771   0.148   7.313   2.158  0.6228  0.7470  0.9090
16922SOL     OW52772   1.370   7.560   7.552 -0.4289  1.1101  0.1863
16922SOL    HW152773   1.404   7.634   7.603  0.1910  1.1402 -0.2596
16922SOL    HW252774   1.415   7.566   7.468 -1.3826  1.0147 -0.3500
16923SOL     OW52775   1.173   3.223   6.275  0.0788  0.1325 -0.5071
16923SOL    HW152776   1.145   3.294   6.332 -0.4875  1.0715 -1.9089
16923SOL    HW252777   1.096   3.201   6.222  0.2421 -1.5316 -0.1291
16924SOL     OW52778   3.415   9.904   3.858 -0.4462 -0.4765  0.6962
16924SOL    HW152779   3.365   9.822   3.860 -0.9351 -0.3186 -1.9304
16924SOL    HW252780   3.351   9.972   3.881 -0.6530 -0.5950  0.4746
16925SOL     OW52781   9.423   6.211  10.177 -0.2392 -0.7482 -0.0615
16925SOL    HW152782   9.400   6.143  10.241 -1.0360 -1.2618 -0.8709
16925SOL    HW252783   9.344   6.265  10.171  0.2190 -0.0266  0.2040
16926SOL     OW52784   8.519   8.101   3.646 -0.1409 -0.3675 -0.3675
16926SOL    HW152785   8.437   8.129   3.687  0.5096  0.4712  0.3930
16926SOL    HW252786   8.519   8.006   3.655 -1.6001 -0.5176 -1.5027
16927SOL     OW52787   3.923  11.258   2.326  0.0180 -0.8032  0.5485
16927SOL    HW152788   4.000  11.236   2.274  0.1641  0.8567  0.0000
16927SOL    HW252789   3.924  11.196   2.399  1.8395 -0.8488  0.5205
16928SOL     OW52790   6.949   4.407  11.276 -0.0247  0.0569  0.0988
16928SOL    HW152791   6.916   4.444  11.358  1.1342 -0.5210  0.8567
16928SOL    HW252792   6.985   4.321  11.301  2.8181  0.9702 -0.4332
16929SOL     OW52793   4.895   1.780   1.804  0.4850  0.1847 -1.1202
16929SOL    HW152794   4.923   1.845   1.739  0.0706  1.3219 -0.2041
16929SOL    HW252795   4.912   1.823   1.888 -0.5554 -0.5886 -0.5044
16930SOL     OW52796   9.895   4.357   4.668  0.1528 -0.1326  0.7021
16930SOL    HW152797   9.843   4.417   4.615 -0.1981 -0.7520  0.3336
16930SOL    HW252798   9.944   4.414   4.727 -1.5048  0.4369  1.5941
16931SOL     OW52799  10.133   9.499   8.402  0.8902 -0.0752 -0.5741
16931SOL    HW152800  10.193   9.553   8.351  0.2162 -0.5383 -1.9062
16931SOL    HW252801  10.104   9.557   8.473  0.3047  1.2905 -1.8713
16932SOL     OW52802   1.330   0.847   0.418  0.1356 -0.0011  0.2215
16932SOL    HW152803   1.358   0.898   0.342  2.9821 -1.4836  0.1189
16932SOL    HW252804   1.235   0.851   0.417  0.1702  2.6722 -1.5315
16933SOL     OW52805   7.552   5.973   0.610 -0.6858 -0.6001 -0.1416
16933SOL    HW152806   7.524   6.064   0.601 -2.8058 -1.3542 -2.1803
16933SOL    HW252807   7.590   5.951   0.525 -2.2441 -2.2201 -0.4647
16934SOL     OW52808   7.118   6.835   0.784 -0.2024 -0.1429  0.0899
16934SOL    HW152809   7.028   6.811   0.761 -0.4011 -0.4109  1.1179
16934SOL    HW252810   7.142   6.900   0.718 -1.3342  0.3339  0.1214
16935SOL     OW52811  10.407   1.010   2.753 -0.1734  0.7673 -0.4310
16935SOL    HW152812  10.369   1.092   2.784  0.2898  0.9557 -0.3570
16935SOL    HW252813  10.501   1.026   2.751  0.2096 -0.6566  2.3247
16936SOL     OW52814   1.890   9.280   6.526 -0.0717 -0.0411 -0.0764
16936SOL    HW152815   1.965   9.335   6.547 -1.4480  1.5009  1.0337
16936SOL    HW252816   1.905   9.199   6.576  1.2417 -0.1112 -0.5459
16937SOL     OW52817   5.130   8.498  11.104  0.1445  0.8779  0.8041
16937SOL    HW152818   5.062   8.462  11.046  0.6015  1.3873 -0.0786
16937SOL    HW252819   5.082   8.554  11.165 -0.2369  1.3510  0.0931
16938SOL     OW52820   0.541   7.423   5.094 -0.1726  0.0945 -0.8343
16938SOL    HW152821   0.602   7.494   5.075 -0.6614  0.3967 -1.3246
16938SOL    HW252822   0.492   7.453   5.170  0.8947 -0.5455  0.1348
16939SOL     OW52823   8.990   5.847   6.146  0.5607 -0.1499 -0.5366
16939SOL    HW152824   9.028   5.762   6.167  2.7157  1.1957  1.4810
16939SOL    HW252825   9.044   5.882   6.075  0.7582  0.2204 -0.2089
16940SOL     OW52826   3.152   3.594   9.856  0.4193  0.1418 -0.1742
16940SOL    HW152827   3.213   3.604   9.930  0.3608 -1.9771  0.2379
16940SOL    HW252828   3.185   3.518   9.808  0.4150  1.4587 -2.3378
16941SOL     OW52829   7.811   4.126  11.237  0.3471  0.6143 -0.6457
16941SOL    HW152830   7.846   4.042  11.267 -2.3812 -0.0098  1.2028
16941SOL    HW252831   7.879   4.190  11.258  0.3665 -0.4265  3.0636
16942SOL     OW52832   5.990   2.702  10.602 -0.0515  0.0936  0.7322
16942SOL    HW152833   6.065   2.757  10.578  1.4010 -2.0505 -0.0360
16942SOL    HW252834   5.927   2.762  10.642  1.1965  2.3450 -0.4865
16943SOL     OW52835   5.089   1.401  11.151  0.0058 -0.4737  0.2788
16943SOL    HW152836   5.023   1.414  11.083 -0.3619 -0.2569  0.6806
16943SOL    HW252837   5.066   1.318  11.192  0.1159 -0.5088  0.2709
16944SOL     OW52838   7.821   3.818   3.871 -0.2241  0.0427 -0.0263
16944SOL    HW152839   7.737   3.774   3.860 -1.7835  2.0445  2.6253
16944SOL    HW252840   7.814   3.897   3.818 -0.6536  0.9176  1.2896
16945SOL     OW52841   0.395   4.130   8.140  0.2354  0.1978  0.2495
16945SOL    HW152842   0.425   4.103   8.054  0.3832 -1.2211  0.7207
16945SOL    HW252843   0.307   4.165   8.126  0.8023  1.3162 -0.6628
16946SOL     OW52844   1.393   9.106   4.313  0.1384  0.2596 -0.3714
16946SOL    HW152845   1.341   9.081   4.389 -1.1629  2.9553 -0.2799
16946SOL    HW252846   1.408   9.200   4.322  3.0750  0.0475 -1.6425
16947SOL     OW52847   6.860   9.033   0.453 -0.3587  1.0440 -0.3895
16947SOL    HW152848   6.915   9.088   0.509  0.8705 -0.1252 -0.3860
16947SOL    HW252849   6.842   8.955   0.507  2.2084 -0.8706 -2.0570
16948SOL     OW52850   8.427   8.226   3.906  0.0606 -0.0974 -0.2764
16948SOL    HW152851   8.407   8.298   3.966  0.8378  0.5489 -0.7826
16948SOL    HW252852   8.516   8.201   3.928 -0.2087 -0.9405 -0.0904
16949SOL     OW52853   7.852   4.417  10.798 -0.2794  0.5556  0.1100
16949SOL    HW152854   7.851   4.348  10.865  1.5113 -0.7406 -1.0823
16949SOL    HW252855   7.895   4.491  10.840  0.4701 -0.1007  0.5199
16950SOL     OW52856   5.628   2.942   6.470  0.1545 -0.4063 -0.3373
16950SOL    HW152857   5.592   2.869   6.519  0.8454 -0.0324  0.7696
16950SOL    HW252858   5.718   2.951   6.502 -0.8352  2.9975  2.1388
16951SOL     OW52859   5.101  10.350   4.607  0.1838  0.2966  0.0985
16951SOL    HW152860   5.043  10.364   4.682  0.7067  1.1646  0.3605
16951SOL    HW252861   5.188  10.344   4.646  0.4624  0.7631 -0.4319
16952SOL     OW52862   6.939   1.799   1.400  0.6022 -0.0250 -0.3675
16952SOL    HW152863   6.906   1.864   1.338 -1.1416 -0.7333 -0.2450
16952SOL    HW252864   6.864   1.741   1.416  2.0565 -2.0297 -0.4218
16953SOL     OW52865   3.264   1.512  10.828  0.4366 -0.4203  0.2848
16953SOL    HW152866   3.209   1.580  10.790  0.7740 -0.3821 -0.1482
16953SOL    HW252867   3.224   1.493  10.913 -0.0944 -0.2190  0.0832
16954SOL     OW52868   3.792   7.217   3.573 -0.1858  0.2928  0.5448
16954SOL    HW152869   3.805   7.238   3.665 -0.1928  0.8978  0.4142
16954SOL    HW252870   3.704   7.249   3.553 -0.0400  0.5211  0.2399
16955SOL     OW52871   4.592   9.507   1.940 -0.0030 -0.0190  0.7323
16955SOL    HW152872   4.595   9.599   1.965 -1.0592  0.2494 -0.0466
16955SOL    HW252873   4.591   9.508   1.844 -0.2806 -0.8326  0.7194
16956SOL     OW52874   9.041   0.472  10.847 -0.4245  0.4076  0.6156
16956SOL    HW152875   9.056   0.487  10.753  0.9331 -2.7688  0.2175
16956SOL    HW252876   9.119   0.509  10.890 -0.1769  0.2673  0.2927
16957SOL     OW52877   8.003   8.836   2.922  0.0149 -0.0391  0.2884
16957SOL    HW152878   8.052   8.763   2.958  1.1474  1.4814  2.0189
16957SOL    HW252879   7.916   8.828   2.960 -0.1864 -1.0130 -0.3372
16958SOL     OW52880   1.352   0.805   2.226  0.3160 -0.0033  0.3394
16958SOL    HW152881   1.264   0.825   2.193  0.5907  0.4274 -0.1441
16958SOL    HW252882   1.359   0.710   2.216  2.0278  0.3303 -5.3340
16959SOL     OW52883  10.998   4.055   3.006  0.4698 -0.1600  0.6813
16959SOL    HW152884  10.990   4.151   3.002 -1.0690 -0.2655 -2.2409
16959SOL    HW252885  10.960   4.031   3.090 -1.9198  1.7066  0.2816
16960SOL     OW52886   1.937   7.385   7.669 -0.0797  0.6713 -0.0875
16960SOL    HW152887   1.889   7.358   7.591  0.4069 -0.1165 -0.1231
16960SOL    HW252888   1.870   7.401   7.735 -0.4438  0.5438 -0.4238
16961SOL     OW52889   3.346   5.559  10.738 -0.4924 -0.5436  0.3707
16961SOL    HW152890   3.256   5.547  10.707 -0.3332 -3.3930  0.7228
16961SOL    HW252891   3.348   5.515  10.823  1.5820 -2.0388 -0.3558
16962SOL     OW52892   9.069   4.077   0.837  0.5798  0.3382 -0.4411
16962SOL    HW152893   9.164   4.069   0.829  0.4178 -0.8236 -1.6214
16962SOL    HW252894   9.035   4.012   0.775 -0.9824  0.7156 -0.0090
16963SOL     OW52895   1.246   2.925  10.474 -0.1068 -0.4177 -0.2571
16963SOL    HW152896   1.221   2.941  10.565 -1.7120  0.3480 -0.8038
16963SOL    HW252897   1.330   2.881  10.480 -0.3826 -0.7593  1.6114
16964SOL     OW52898   7.045  11.086  10.754  0.2658  0.3648 -0.4600
16964SOL    HW152899   7.067  11.141  10.679  0.0947  0.9900 -0.0551
16964SOL    HW252900   7.089  11.127  10.828  0.4146 -0.2368 -0.2134
16965SOL     OW52901   2.237   8.354   0.381 -1.1534  0.2242 -0.5069
16965SOL    HW152902   2.246   8.394   0.295 -0.0730  0.9313 -0.0827
16965SOL    HW252903   2.256   8.424   0.443  1.2332 -0.9745  0.2427
16966SOL     OW52904   9.742   7.188   6.027 -0.4786  0.1018 -0.5006
16966SOL    HW152905   9.655   7.151   6.035  0.0163 -1.2929 -1.2324
16966SOL    HW252906   9.729   7.268   5.974 -1.5450  1.0212  1.0684
16967SOL     OW52907   3.296  10.471   0.256  0.0036  0.3368 -0.2616
16967SOL    HW152908   3.381  10.443   0.222 -0.0961 -0.2089 -0.0654
16967SOL    HW252909   3.313  10.492   0.348 -0.0702  0.2761 -0.2353
16968SOL     OW52910   4.779   6.727   9.747  0.1071 -0.1321  0.8462
16968SOL    HW152911   4.737   6.644   9.726 -0.2006  0.3923 -0.7945
16968SOL    HW252912   4.873   6.707   9.749  0.0255 -0.5490  0.5948
16969SOL     OW52913   6.097   2.402   4.864  0.6861  0.3796 -0.1066
16969SOL    HW152914   6.047   2.404   4.945  1.3084  0.5934  0.2775
16969SOL    HW252915   6.171   2.345   4.883  0.0553 -0.7910 -0.9947
16970SOL     OW52916  11.163  11.111   4.009 -0.5840  0.0502  0.1048
16970SOL    HW152917  11.252  11.128   3.978 -0.2218 -0.3339  0.8797
16970SOL    HW252918  11.148  11.019   3.990 -0.8188  0.1184 -0.0386
16971SOL     OW52919   2.019   0.716   4.220 -0.1176  0.4186 -0.0465
16971SOL    HW152920   2.029   0.810   4.235 -0.4329  0.2922  1.0401
16971SOL    HW252921   2.038   0.677   4.306 -3.6999 -0.2619  0.5552
16972SOL     OW52922   5.074   6.380   7.924 -0.2062  0.0369  0.0878
16972SOL    HW152923   5.025   6.442   7.870  0.6755  1.3530  0.7455
16972SOL    HW252924   5.121   6.325   7.862  0.2771  1.1050 -0.5042
16973SOL     OW52925   7.689   2.207   3.332  0.2586  0.3640  0.1789
16973SOL    HW152926   7.697   2.235   3.241 -1.9263 -3.5813 -1.5015
16973SOL    HW252927   7.778   2.182   3.357  0.7341  0.4457 -1.3360
16974SOL     OW52928   8.837   2.643   0.474 -0.8132  0.2674  0.4263
16974SOL    HW152929   8.824   2.636   0.569  1.5261 -0.4523  0.7467
16974SOL    HW252930   8.765   2.591   0.437 -1.4566  0.1191  1.8062
16975SOL     OW52931   7.084   4.566   3.849 -0.3407 -0.0651  0.7027
16975SOL    HW152932   7.024   4.624   3.801 -0.8800  1.6782  3.2949
16975SOL    HW252933   7.170   4.607   3.837 -0.1137 -0.8294 -0.4518
16976SOL     OW52934   1.506   5.068   1.501 -0.3432  0.2759 -0.1556
16976SOL    HW152935   1.497   5.122   1.423 -0.2642  0.2292 -0.1966
16976SOL    HW252936   1.421   5.075   1.545 -1.0064 -1.1201 -1.1558
16977SOL     OW52937   2.830   2.811   6.046 -0.3337  1.2141 -0.3043
16977SOL    HW152938   2.911   2.761   6.045 -0.4577  1.0149 -1.0453
16977SOL    HW252939   2.834   2.861   6.127  0.5905  1.3038 -0.3930
16978SOL     OW52940   2.522   8.826   6.364 -0.5802 -0.7152 -0.5320
16978SOL    HW152941   2.608   8.803   6.329 -0.8533 -1.3784 -0.7851
16978SOL    HW252942   2.499   8.752   6.421 -0.1901  0.2818  0.9942
16979SOL     OW52943   5.018   2.907  10.538  0.0559  0.0589  0.3706
16979SOL    HW152944   5.004   2.815  10.561  0.7178 -1.1801 -3.4749
16979SOL    HW252945   5.099   2.931  10.584  0.2522 -1.5041  0.9102
16980SOL     OW52946   4.198   7.021   1.827 -0.1768 -0.2558 -0.1992
16980SOL    HW152947   4.290   7.012   1.852 -0.6027  3.4057  3.9798
16980SOL    HW252948   4.196   7.101   1.775 -0.8331 -1.6816 -2.4975
16981SOL     OW52949   2.997   1.870   5.909 -0.1627  0.3127 -0.7022
16981SOL    HW152950   3.087   1.896   5.929 -0.3360  0.1266  0.3967
16981SOL    HW252951   2.943   1.938   5.949 -0.5213  0.3131 -1.1777
16982SOL     OW52952   8.591   9.954   2.237  0.8487  0.4524 -0.1485
16982SOL    HW152953   8.536   9.962   2.159 -0.0042 -0.0360  0.3851
16982SOL    HW252954   8.675   9.991   2.211  0.5450  0.3939 -1.2646
16983SOL     OW52955   4.481   0.227   3.448  0.4579  0.9263  0.7593
16983SOL    HW152956   4.443   0.162   3.389  1.1331 -0.7935  2.0905
16983SOL    HW252957   4.533   0.283   3.392  0.4193 -0.1337 -0.3883
16984SOL     OW52958   6.591   9.844   9.989  0.2873 -0.0088  0.4709
16984SOL    HW152959   6.507   9.825  10.031  0.3725  2.2831  1.8261
16984SOL    HW252960   6.652   9.857  10.062  0.9439  2.0021 -0.3740
16985SOL     OW52961   5.204  10.330  10.590  0.7312  0.3208 -0.2581
16985SOL    HW152962   5.223  10.274  10.665 -0.9635  0.8212  0.5904
16985SOL    HW252963   5.191  10.417  10.627 -0.3640  0.5271 -1.0750
16986SOL     OW52964   2.344   0.562   9.594 -0.7213  0.7045  0.2270
16986SOL    HW152965   2.313   0.652   9.597 -1.9046  0.3922 -1.3193
16986SOL    HW252966   2.265   0.509   9.593 -0.1303 -0.2328 -1.2416
16987SOL     OW52967   6.999   1.040   0.053 -0.2272 -0.2581 -0.0853
16987SOL    HW152968   6.963   1.096  -0.016 -0.3588  1.2531  1.1354
16987SOL    HW252969   7.044   1.101   0.112  0.3683 -1.5642  0.8719
16988SOL     OW52970  10.718   6.203   9.141  0.6730  0.1891  0.2764
16988SOL    HW152971  10.687   6.288   9.109 -0.5031  0.0658  1.0333
16988SOL    HW252972  10.670   6.138   9.089  3.2883 -0.1350 -2.0158
16989SOL     OW52973  10.875   8.462   8.845  0.1696  0.3746 -0.4432
16989SOL    HW152974  10.876   8.551   8.879 -2.5647 -0.0489  0.9651
16989SOL    HW252975  10.864   8.406   8.922 -1.4492 -0.9374 -1.5430
16990SOL     OW52976  10.630   9.092   5.398 -0.0199 -0.8464 -0.0565
16990SOL    HW152977  10.565   9.096   5.327  0.3740 -0.7414 -0.4152
16990SOL    HW252978  10.679   9.174   5.391  0.2732 -1.0082  0.0928
16991SOL     OW52979  11.267   4.952   1.263 -0.3656  0.1571 -0.3319
16991SOL    HW152980  11.231   4.997   1.340 -0.5136  0.1560 -0.4001
16991SOL    HW252981  11.336   4.896   1.299  0.5469  1.2223 -0.3769
16992SOL     OW52982  10.423   2.841   7.721  0.0287  0.0188 -0.7465
16992SOL    HW152983  10.440   2.831   7.628  1.0004 -0.6343 -0.5084
16992SOL    HW252984  10.418   2.936   7.735 -1.1770  0.1024 -1.6282
16993SOL     OW52985   1.878   8.747   1.551  0.0493  0.0060  0.1624
16993SOL    HW152986   1.831   8.749   1.467 -0.6857 -2.3083  0.4442
16993SOL    HW252987   1.870   8.836   1.585 -0.1696  0.8520 -1.9085
16994SOL     OW52988   6.460   1.249   7.750 -0.7412 -0.2981  0.1602
16994SOL    HW152989   6.435   1.341   7.741  0.1384 -0.0511  0.1737
16994SOL    HW252990   6.526   1.235   7.683  0.0736 -0.5726  0.9985
16995SOL     OW52991   8.424   7.956   5.089 -0.3525  0.5460 -0.3181
16995SOL    HW152992   8.397   7.923   5.003  0.4803 -0.1322 -0.3379
16995SOL    HW252993   8.356   7.926   5.149  0.5974 -1.7258 -0.2493
16996SOL     OW52994   8.232   9.076   1.350 -0.6275  0.2362  0.4885
16996SOL    HW152995   8.171   9.011   1.316  0.4523 -1.9508  2.4509
16996SOL    HW252996   8.178   9.153   1.366 -1.9037  0.0086 -2.2003
16997SOL     OW52997   9.285   0.694   6.330 -0.0635 -0.1144  0.0689
16997SOL    HW152998   9.222   0.737   6.273  0.1632 -0.1949 -0.2432
16997SOL    HW252999   9.367   0.692   6.280 -0.4468 -2.2914 -0.5735
16998SOL     OW53000  10.403   8.640   1.044 -0.6612 -0.2304 -0.0340
16998SOL    HW153001  10.311   8.627   1.021 -0.4336  0.4298 -1.4140
16998SOL    HW253002  10.400   8.696   1.122 -1.4331  1.7281 -1.3981
16999SOL     OW53003   2.583   0.847   4.298  0.4557 -0.4735  0.2901
16999SOL    HW153004   2.672   0.851   4.334  0.9543  2.9092 -0.9723
16999SOL    HW253005   2.594   0.856   4.204 -1.2027 -0.6705  0.0441
17000SOL     OW53006   5.143   0.302   4.415  0.0126  0.4790  0.6591
17000SOL    HW153007   5.181   0.255   4.490  3.9492  1.2217 -0.6194
17000SOL    HW253008   5.149   0.394   4.440 -1.9523  0.6422  0.7099
17001SOL     OW53009   3.124   3.332   2.339 -0.0329  0.1503  0.1380
17001SOL    HW153010   3.046   3.294   2.380 -0.1236  0.2917  0.0948
17001SOL    HW253011   3.195   3.309   2.399 -0.0278 -0.4158 -0.0744
17002SOL     OW53012  10.046  10.823   6.989 -0.1426  0.6737  0.2936
17002SOL    HW153013  10.105  10.897   6.987  0.6593  0.0957  1.2198
17002SOL    HW253014   9.996  10.829   6.908  1.1674  1.1923 -0.5066
17003SOL     OW53015   5.764   9.697   3.047  0.2261  0.7533  0.3338
17003SOL    HW153016   5.749   9.753   3.123  0.8219  0.6679  0.5232
17003SOL    HW253017   5.818   9.750   2.988  4.0088 -0.8107  2.1052
17004SOL     OW53018  10.919  10.052   5.145  0.2439  0.2156  0.4053
17004SOL    HW153019  10.962  10.104   5.213 -1.0854  1.3645  0.4205
17004SOL    HW253020  10.825  10.066   5.161 -0.1105 -0.6768 -0.7825
17005SOL     OW53021   4.229   2.144   3.441  0.0520 -0.0046  0.6894
17005SOL    HW153022   4.227   2.110   3.352 -0.5452 -0.8963  1.0271
17005SOL    HW253023   4.308   2.198   3.444 -0.4594  0.8579 -0.6555
17006SOL     OW53024   9.543   5.625   8.713  0.0784  0.0724 -0.0889
17006SOL    HW153025   9.516   5.690   8.647 -0.0987 -0.9045 -1.0036
17006SOL    HW253026   9.639   5.623   8.706  0.0429 -0.2145 -0.4939
17007SOL     OW53027   5.926   4.577   7.260 -0.1807 -0.0274 -0.2179
17007SOL    HW153028   6.007   4.526   7.250  0.7834  1.2420  0.8207
17007SOL    HW253029   5.861   4.512   7.285  0.1390 -1.3081 -2.4170
17008SOL     OW53030   4.300   3.847   4.851 -0.6958 -0.2565 -0.6669
17008SOL    HW153031   4.371   3.810   4.798  0.3956 -0.5878  0.9445
17008SOL    HW253032   4.224   3.794   4.830  0.2626 -1.8930 -0.1978
17009SOL     OW53033   0.957   7.430   4.901 -0.3333  0.6161 -0.8354
17009SOL    HW153034   0.975   7.437   4.994 -1.8642  1.6937 -0.5675
17009SOL    HW253035   0.944   7.336   4.885  1.1550  0.2909 -0.2427
17010SOL     OW53036   3.659   5.531   1.723 -0.0134  0.7182  0.2203
17010SOL    HW153037   3.717   5.556   1.651  0.1250  1.0953  0.4578
17010SOL    HW253038   3.641   5.614   1.768  0.8837  0.3274  1.3536
17011SOL     OW53039   2.718   7.125   6.347  0.0068 -0.1401  0.0214
17011SOL    HW153040   2.688   7.075   6.271  3.1538  0.0043 -1.4934
17011SOL    HW253041   2.686   7.214   6.331  0.0539 -0.2559 -0.8012
17012SOL     OW53042   9.901   6.420   7.013 -0.2978 -0.1728 -0.2579
17012SOL    HW153043   9.964   6.431   7.083 -1.7871  0.2625  1.0573
17012SOL    HW253044   9.919   6.492   6.952 -0.1461  0.5219  0.5928
17013SOL     OW53045   1.564   0.084   2.097 -1.2675 -0.1564 -0.1629
17013SOL    HW153046   1.499   0.112   2.161 -1.9819 -0.7770 -0.5915
17013SOL    HW253047   1.563   0.152   2.030 -0.3610  0.6029  0.5767
17014SOL     OW53048   8.655   9.160   5.038  0.1522  0.2603 -0.0785
17014SOL    HW153049   8.664   9.198   5.125 -1.7084  0.2461  0.1715
17014SOL    HW253050   8.579   9.204   5.001  0.3866 -0.3709 -1.3520
17015SOL     OW53051  10.316  10.675   4.464 -0.0643 -0.6284  0.1010
17015SOL    HW153052  10.344  10.634   4.546 -0.6849  0.6697  0.9914
17015SOL    HW253053  10.397  10.704   4.422  0.1578  0.4804  1.2348
17016SOL     OW53054   6.572   5.249   8.493  0.2830  0.0307  0.7835
17016SOL    HW153055   6.515   5.318   8.459  0.1742  0.7120  2.2748
17016SOL    HW253056   6.639   5.296   8.544  0.7076 -0.9147  1.1171
17017SOL     OW53057   1.984   1.612   1.320  0.3209 -0.6446 -0.7422
17017SOL    HW153058   1.971   1.571   1.405 -1.1162  2.6995  0.8305
17017SOL    HW253059   2.078   1.606   1.304  0.7600 -0.6358  1.5167
17018SOL     OW53060   3.445   0.799   8.457  0.6247  0.0192 -0.7235
17018SOL    HW153061   3.466   0.886   8.424  0.8318 -0.0637 -0.8094
17018SOL    HW253062   3.502   0.740   8.408  2.0836  0.0360  0.8372
17019SOL     OW53063   6.930  11.171   7.720 -0.0578 -0.1579  0.2529
17019SOL    HW153064   6.848  11.123   7.716  0.3721 -1.3018  2.8132
17019SOL    HW253065   6.988  11.128   7.657 -0.9139 -0.3921 -0.3784
17020SOL     OW53066   6.244   6.895   2.295 -0.0047 -0.5035  0.5317
17020SOL    HW153067   6.339   6.891   2.293 -0.0032 -0.3774  0.1366
17020SOL    HW253068   6.216   6.853   2.213 -0.1782  1.7002 -0.6242
17021SOL     OW53069   6.873   2.757   9.791 -1.0651  0.4014 -0.4338
17021SOL    HW153070   6.856   2.663   9.785  0.9018 -0.0536  0.2184
17021SOL    HW253071   6.924   2.767   9.872  0.0584  1.8036 -1.2735
17022SOL     OW53072   7.850  10.877   6.207 -0.0791  0.2938  0.1007
17022SOL    HW153073   7.831  10.912   6.120  0.8898  1.5781  0.3763
17022SOL    HW253074   7.799  10.796   6.212  1.1213 -0.6927 -2.2745
17023SOL     OW53075   4.719   9.163   2.941  0.2380 -0.0992  0.0748
17023SOL    HW153076   4.746   9.239   2.889  0.7113  0.6519  1.3798
17023SOL    HW253077   4.782   9.159   3.012 -0.0002 -1.5186  0.2248
17024SOL     OW53078   1.589   0.262   4.806  0.2388 -0.1680  0.4148
17024SOL    HW153079   1.575   0.334   4.746 -0.7353 -1.7603 -1.3603
17024SOL    HW253080   1.664   0.289   4.859  0.1182  1.9568 -0.4299
17025SOL     OW53081   5.227   0.745   2.598 -0.0493  0.6047 -0.2961
17025SOL    HW153082   5.187   0.767   2.682  0.6031  0.0901  0.1562
17025SOL    HW253083   5.245   0.651   2.604 -1.3358  0.2311 -1.5811
17026SOL     OW53084   2.340   2.041   1.520 -0.1183 -0.3721  0.0285
17026SOL    HW153085   2.315   1.994   1.600 -1.3218  1.5108  0.8296
17026SOL    HW253086   2.421   2.086   1.543 -0.0993 -0.3757 -0.0314
17027SOL     OW53087  10.872   2.075   0.790  0.2332  1.1435 -0.4401
17027SOL    HW153088  10.896   2.090   0.698 -1.2059  1.5822 -0.7736
17027SOL    HW253089  10.800   2.136   0.806 -1.0120 -0.4441  0.3206
17028SOL     OW53090   6.998   7.478   4.792 -0.3074  0.5677  0.4244
17028SOL    HW153091   6.959   7.481   4.704 -0.4145  2.2127  0.5034
17028SOL    HW253092   7.074   7.535   4.786  1.3526 -1.4639  0.6801
17029SOL     OW53093   7.829   3.758   4.725  0.5816 -0.5684  0.0816
17029SOL    HW153094   7.878   3.712   4.657  0.0769 -0.3228 -0.4544
17029SOL    HW253095   7.847   3.851   4.709 -2.4149 -0.2339 -2.0354
17030SOL     OW53096   1.956   4.688   1.077 -0.1080 -0.7342  0.2469
17030SOL    HW153097   1.930   4.597   1.088  0.1190 -1.1078 -1.8878
17030SOL    HW253098   2.051   4.687   1.086 -0.2973 -0.1763  3.1155
17031SOL     OW53099   8.965   7.772   4.311  0.0635 -0.0796 -0.7465
17031SOL    HW153100   8.947   7.863   4.291  0.0548  0.6311  2.0517
17031SOL    HW253101   8.910   7.722   4.250 -0.4247  1.7526 -1.8821
17032SOL     OW53102   4.325   1.500   8.195 -0.7176  0.2732  0.2061
17032SOL    HW153103   4.366   1.523   8.278  1.6977 -1.6242 -0.3296
17032SOL    HW253104   4.303   1.584   8.154  1.1223  1.3441  1.3179
17033SOL     OW53105   5.638   4.266   5.397  0.1367  0.1432  0.5425
17033SOL    HW153106   5.604   4.346   5.437  2.6653  1.3071  0.5478
17033SOL    HW253107   5.706   4.296   5.337 -0.4218 -1.8808 -1.2397
17034SOL     OW53108   0.810   4.283   3.186 -0.4576  0.5973  0.1384
17034SOL    HW153109   0.748   4.311   3.119 -0.4736  0.3631  0.0552
17034SOL    HW253110   0.855   4.363   3.212  0.6388  0.4702 -1.2389
17035SOL     OW53111   9.632   7.105   8.922  0.3203  0.2651  0.8846
17035SOL    HW153112   9.663   7.196   8.927 -0.7178  0.7004 -0.3116
17035SOL    HW253113   9.537   7.111   8.934  0.2441 -0.6803  0.8390
17036SOL     OW53114   0.479   1.996   0.917  0.0223  0.0537 -0.1142
17036SOL    HW153115   0.524   1.949   0.987  0.8335 -1.1280 -1.3824
17036SOL    HW253116   0.477   2.087   0.946 -3.2766 -0.8566  3.3493
17037SOL     OW53117   8.933   0.486   7.384 -0.2569 -0.3704 -0.2437
17037SOL    HW153118   8.918   0.474   7.477 -0.4663  0.6024 -0.1522
17037SOL    HW253119   8.874   0.422   7.342 -0.1712 -0.7983  0.2764
17038SOL     OW53120   8.884   5.938   5.221 -0.3536  0.2597  0.0244
17038SOL    HW153121   8.820   5.869   5.234  1.0498 -1.5181 -1.7835
17038SOL    HW253122   8.837   6.006   5.173 -0.8210 -1.2443 -1.7705
17039SOL     OW53123   0.466   2.334   2.539 -0.9880 -0.0104 -0.4489
17039SOL    HW153124   0.530   2.277   2.583  0.1066  0.0537 -1.8577
17039SOL    HW253125   0.507   2.421   2.540 -1.1821  0.0968 -1.0737
17040SOL     OW53126   1.348   3.823   2.333 -0.0807 -0.1211  0.0049
17040SOL    HW153127   1.280   3.884   2.304 -0.9196 -1.1563 -0.2758
17040SOL    HW253128   1.425   3.848   2.283  0.2577  2.1490  1.5442
17041SOL     OW53129   3.647   8.192   4.678 -0.9507 -0.0124  0.0373
17041SOL    HW153130   3.649   8.244   4.598 -1.0687  1.3979  0.9225
17041SOL    HW253131   3.599   8.113   4.653 -0.0805 -0.0970 -1.5442
17042SOL     OW53132   2.480   1.274   4.205  0.5931 -0.5782 -0.7709
17042SOL    HW153133   2.415   1.239   4.143 -0.7277  0.9678 -0.3173
17042SOL    HW253134   2.542   1.322   4.150  0.9318 -1.4061 -1.1297
17043SOL     OW53135   8.789   7.020   6.299  1.2599  0.0148 -0.0800
17043SOL    HW153136   8.710   7.067   6.324  2.3508  1.3984  0.9800
17043SOL    HW253137   8.760   6.930   6.283 -0.5199  0.5113  0.1397
17044SOL     OW53138   3.126   2.147   9.537  0.2381 -0.1588 -0.1859
17044SOL    HW153139   3.123   2.052   9.529 -2.3202 -0.1478 -0.1891
17044SOL    HW253140   3.034   2.174   9.537  0.8929  2.4325 -1.6653
17045SOL     OW53141   7.579  11.038  11.055 -0.7608 -0.3683 -0.6591
17045SOL    HW153142   7.644  11.064  10.990  0.7961 -0.5606  0.7620
17045SOL    HW253143   7.528  11.118  11.071 -0.8943 -0.2093 -1.7667
17046SOL     OW53144   8.985  10.189   9.231  0.3048 -0.2736 -0.1067
17046SOL    HW153145   9.056  10.216   9.289  1.1871 -0.6817 -0.9707
17046SOL    HW253146   8.939  10.121   9.280  0.2386  0.2967  0.6328
17047SOL     OW53147   5.353   7.342   8.085  0.5568 -0.4864 -0.2537
17047SOL    HW153148   5.379   7.406   8.019  0.6868  1.4329  1.5673
17047SOL    HW253149   5.309   7.394   8.153 -1.0383 -2.5920  0.4360
17048SOL     OW53150   2.366   0.214   0.229  0.4738  0.1792 -0.4654
17048SOL    HW153151   2.369   0.262   0.146  0.6309  2.8296  0.9651
17048SOL    HW253152   2.434   0.148   0.221 -0.1195 -0.2382 -2.7553
17049SOL     OW53153   2.147   6.339   9.304  0.2015  0.1484 -0.8240
17049SOL    HW153154   2.215   6.293   9.255 -1.2974 -1.0786 -1.8385
17049SOL    HW253155   2.136   6.422   9.257  1.2170  0.5146 -0.4397
17050SOL     OW53156   2.390   6.245   6.683  0.3869 -0.4940 -0.5831
17050SOL    HW153157   2.332   6.233   6.758  0.3628  0.0484 -0.5061
17050SOL    HW253158   2.370   6.173   6.625  1.2037 -1.5850  0.4376
17051SOL     OW53159   4.240   8.084  10.311 -0.0510  0.2072  0.8404
17051SOL    HW153160   4.280   8.171  10.307  5.5702 -2.0229 -2.1390
17051SOL    HW253161   4.267   8.049  10.396 -3.1311  1.4033  2.4764
17052SOL     OW53162   1.450   9.746   9.395 -0.5893 -0.2350  0.1689
17052SOL    HW153163   1.362   9.724   9.426 -0.8473 -0.7880 -0.9064
17052SOL    HW253164   1.468   9.681   9.327  0.7627 -0.2919  0.5576
17053SOL     OW53165   3.242  10.370   9.659  0.0221  0.3036  0.1858
17053SOL    HW153166   3.236  10.360   9.564 -1.8710  2.4345  0.0043
17053SOL    HW253167   3.311  10.435   9.672 -1.6448  2.1896  0.0183
17054SOL     OW53168   7.536  10.073   8.888  0.2882  0.5108  0.3241
17054SOL    HW153169   7.569  10.049   8.802  2.0223 -0.0825  1.1211
17054SOL    HW253170   7.452  10.116   8.870 -0.2742 -1.1974 -1.5307
17055SOL     OW53171   5.678  10.405   2.332 -0.0593 -0.6730 -0.4852
17055SOL    HW153172   5.595  10.447   2.353  0.7333  1.1064 -0.7770
17055SOL    HW253173   5.654  10.338   2.267 -1.1923  0.1598 -0.9639
17056SOL     OW53174   0.270   9.557   2.776 -0.0590 -0.8216  0.2982
17056SOL    HW153175   0.252   9.583   2.866  0.9587 -1.9130  0.8387
17056SOL    HW253176   0.252   9.463   2.774 -1.2793 -0.5897 -0.9790
17057SOL     OW53177  11.088   4.324   7.425  0.2429  0.0073 -0.7091
17057SOL    HW153178  11.037   4.265   7.369  0.8373 -1.4059  0.1914
17057SOL    HW253179  11.158   4.269   7.460 -0.0790  0.8442  1.3930
17058SOL     OW53180   4.071   6.728  10.177 -0.3553 -0.2888 -0.3721
17058SOL    HW153181   4.062   6.815  10.138 -0.8371 -0.3336 -0.3563
17058SOL    HW253182   4.034   6.737  10.264 -0.8210 -0.6313 -0.5358
17059SOL     OW53183   7.899   5.829   4.882 -0.2335 -0.6936 -0.5999
17059SOL    HW153184   7.830   5.795   4.825 -0.1462 -2.5014  0.2812
17059SOL    HW253185   7.977   5.829   4.828 -0.7397  0.5974 -1.3688
17060SOL     OW53186   4.918   9.942   8.703 -0.2531  0.2676 -0.3119
17060SOL    HW153187   4.984   9.994   8.658 -0.8361  1.0325 -0.2997
17060SOL    HW253188   4.854  10.006   8.734 -1.6062 -0.5481 -1.3163
17061SOL     OW53189   6.937   0.854   6.081  0.2827  0.1501  0.1538
17061SOL    HW153190   6.915   0.788   6.015 -2.4862  1.5057 -0.4110
17061SOL    HW253191   6.880   0.834   6.155  1.1070  0.5358  0.9160
17062SOL     OW53192   4.388  11.156   7.316 -0.1764  1.0430  0.0877
17062SOL    HW153193   4.345  11.114   7.242  0.8400  1.2591 -0.6570
17062SOL    HW253194   4.386  11.090   7.386 -2.2011  1.2698  0.2846
17063SOL     OW53195   1.488   1.042   4.663 -0.0811 -0.2242  0.3450
17063SOL    HW153196   1.468   0.963   4.714  1.2520  0.1151  1.4470
17063SOL    HW253197   1.517   1.008   4.578 -2.4660 -0.7886 -0.3155
17064SOL     OW53198   6.721   8.358   9.874  0.1135  0.0334 -0.3037
17064SOL    HW153199   6.802   8.331   9.830  1.8607  1.0904  2.0767
17064SOL    HW253200   6.679   8.276   9.900  0.7269 -0.5167 -1.0078
17065SOL     OW53201   4.683   7.641   6.725  0.2182  0.2150 -0.3689
17065SOL    HW153202   4.707   7.655   6.817  0.6373  1.1482 -0.6071
17065SOL    HW253203   4.729   7.711   6.678 -1.3401  0.7840 -1.0969
17066SOL     OW53204  10.140   1.061   3.507 -1.1399  0.1145 -0.0074
17066SOL    HW153205  10.108   0.991   3.451  0.6283  0.2240 -1.2261
17066SOL    HW253206  10.105   1.040   3.594 -0.8862 -2.0978 -0.3837
17067SOL     OW53207   0.570   8.581   3.468  0.2215 -0.0189  0.5222
17067SOL    HW153208   0.589   8.522   3.542 -3.2072 -1.3656  0.5413
17067SOL    HW253209   0.494   8.541   3.425 -1.0280  3.3550 -0.7362
17068SOL     OW53210  10.067   8.314   6.091  0.2971 -0.1504  0.3328
17068SOL    HW153211   9.993   8.255   6.108  1.4402 -1.9353 -0.6299
17068SOL    HW253212  10.119   8.269   6.024  2.1997  1.0929  0.9027
17069SOL     OW53213   4.073   8.451  10.028  0.7721 -0.0690  0.4042
17069SOL    HW153214   4.005   8.515  10.051  0.6270  0.2777 -0.9263
17069SOL    HW253215   4.153   8.487  10.067  0.0583 -1.1061  3.0685
17070SOL     OW53216   6.069   6.520   4.034 -0.6930 -0.0273  0.3473
17070SOL    HW153217   6.160   6.513   4.060  0.1375 -0.1151 -2.2618
17070SOL    HW253218   6.021   6.463   4.095  1.1495 -0.9831  0.9606
17071SOL     OW53219   7.072   9.403   7.145 -0.0894 -0.0535  0.6740
17071SOL    HW153220   7.130   9.352   7.201  0.2896 -0.9885 -0.5177
17071SOL    HW253221   7.129   9.468   7.104 -0.2987  0.4070  1.1049
17072SOL     OW53222   2.992   9.223  10.940  0.1520 -0.3405 -0.1099
17072SOL    HW153223   3.082   9.227  10.909  1.2500 -1.9289  2.5709
17072SOL    HW253224   2.974   9.311  10.974  0.7544 -0.0734 -0.4696
17073SOL     OW53225   1.719   1.237   5.065 -0.0100 -0.2522  0.5692
17073SOL    HW153226   1.643   1.201   5.109 -0.0862 -2.9350 -1.5245
17073SOL    HW253227   1.775   1.162   5.047  2.3521  1.3922  0.4814
17074SOL     OW53228   4.867   4.599   2.837 -0.8180 -0.1754 -0.0300
17074SOL    HW153229   4.795   4.563   2.889 -0.8261 -0.5757 -0.3162
17074SOL    HW253230   4.894   4.677   2.885 -0.1989 -1.0475  1.0996
17075SOL     OW53231   7.202   4.414   5.748  0.5245 -0.4899 -0.7059
17075SOL    HW153232   7.204   4.455   5.835 -3.8109  0.9881 -1.0565
17075SOL    HW253233   7.192   4.320   5.766 -2.7850 -0.0071  0.6398
17076SOL     OW53234   4.105   1.169   6.330  0.0412  0.1605  0.4232
17076SOL    HW153235   4.024   1.125   6.355  0.8564 -0.6357  1.8146
17076SOL    HW253236   4.115   1.240   6.393 -0.2040  1.0468 -0.5258
17077SOL     OW53237   7.525   3.849   8.502 -0.2743  0.3593 -0.2393
17077SOL    HW153238   7.495   3.935   8.472 -1.0744  1.0150  2.2654
17077SOL    HW253239   7.465   3.826   8.573  1.8251 -0.8140  1.2628
17078SOL     OW53240   6.367   0.302  11.228 -0.0951 -0.5093  0.5491
17078SOL    HW153241   6.289   0.354  11.210  0.4700  1.0009  2.0925
17078SOL    HW253242   6.420   0.310  11.149 -0.6855  0.0324  0.2004
17079SOL     OW53243   8.182   6.303   0.384  0.0097 -0.1227  0.4208
17079SOL    HW153244   8.093   6.313   0.417  0.2746  1.2203  0.8296
17079SOL    HW253245   8.238   6.319   0.461  0.6057 -0.5305  0.0831
17080SOL     OW53246   0.294   0.060   9.464 -0.3575  0.2036 -0.5928
17080SOL    HW153247   0.387   0.051   9.442 -0.4288 -0.7540 -0.5473
17080SOL    HW253248   0.269  -0.026   9.496 -1.4738  0.2135 -1.4015
17081SOL     OW53249  10.075   7.603   3.592  0.3232  0.1503 -0.6825
17081SOL    HW153250  10.153   7.637   3.550 -0.4834  2.0241 -0.8030
17081SOL    HW253251  10.009   7.599   3.523 -0.4983  1.5099 -0.0383
17082SOL     OW53252   0.680  10.916   1.421  0.1172 -0.5316 -0.0165
17082SOL    HW153253   0.596  10.938   1.380  0.3575  2.2563  0.8166
17082SOL    HW253254   0.661  10.917   1.515  1.1221  0.4202  0.1893
17083SOL     OW53255   1.808   2.591   5.087 -0.3735 -0.4297  0.2541
17083SOL    HW153256   1.833   2.646   5.013 -3.5012 -0.7546 -1.1978
17083SOL    HW253257   1.807   2.651   5.162 -0.8358  0.8223 -0.7213
17084SOL     OW53258   3.404   0.538   9.226 -0.8767 -0.1088  0.4690
17084SOL    HW153259   3.388   0.445   9.238  0.7786 -0.8581 -2.3027
17084SOL    HW253260   3.374   0.557   9.137  2.4145  0.9903 -0.5424
17085SOL     OW53261   8.105   4.835   4.543  0.0093 -0.2192 -0.6939
17085SOL    HW153262   8.076   4.767   4.604 -1.6969  1.8299  0.9282
17085SOL    HW253263   8.162   4.892   4.595  2.5094 -1.0100 -2.3734
17086SOL     OW53264   7.195  10.280  10.483 -0.0467  0.3796 -0.0023
17086SOL    HW153265   7.251  10.267  10.407 -1.1645 -1.0749 -0.6123
17086SOL    HW253266   7.181  10.192  10.519  0.8354  1.0542  2.2080
17087SOL     OW53267  11.089  10.780   8.123 -0.3459 -0.2451 -0.0717
17087SOL    HW153268  11.155  10.807   8.186  0.3055  0.1618 -0.9059
17087SOL    HW253269  11.071  10.689   8.144  1.1294 -0.6312 -0.3664
17088SOL     OW53270   6.543  10.545   6.190  0.3524 -0.1460 -0.5006
17088SOL    HW153271   6.449  10.553   6.173  0.1558 -0.2913  0.4711
17088SOL    HW253272   6.558  10.600   6.267  1.4300  1.4860 -1.7943
17089SOL     OW53273   7.245   0.521   7.788  0.5910 -0.5223 -0.2830
17089SOL    HW153274   7.239   0.484   7.876  0.9727  1.0469  0.4467
17089SOL    HW253275   7.154   0.526   7.758  0.4158 -0.6339  0.2094
17090SOL     OW53276   0.802   1.430   7.555 -0.3137 -0.0038 -0.1175
17090SOL    HW153277   0.747   1.449   7.479  1.3265  1.8105 -0.9557
17090SOL    HW253278   0.815   1.515   7.597  1.8530 -0.3111 -0.0302
17091SOL     OW53279   7.824  10.961   6.694 -0.1597 -0.1983  0.4635
17091SOL    HW153280   7.756  10.953   6.627 -0.0794 -0.8550  0.4523
17091SOL    HW253281   7.889  11.020   6.656 -0.7349  0.4623  0.4892
17092SOL     OW53282   1.541   5.646  10.585  0.1551 -0.2312 -0.1259
17092SOL    HW153283   1.540   5.697  10.504  0.6000 -0.0443 -0.0193
17092SOL    HW253284   1.631   5.614  10.591  0.1623 -0.1215  0.3736
17093SOL     OW53285   8.465   8.686  10.525  0.1648 -0.0337 -0.3126
17093SOL    HW153286   8.488   8.775  10.495 -2.5326 -0.3200 -3.7887
17093SOL    HW253287   8.409   8.701  10.601  1.9447  1.0196  0.8973
17094SOL     OW53288   2.417   6.797   2.071  0.3031 -0.5034 -0.5302
17094SOL    HW153289   2.428   6.746   2.151 -0.9569 -0.3106 -0.2127
17094SOL    HW253290   2.371   6.876   2.099  0.2741 -0.2111 -1.3736
17095SOL     OW53291   9.881   0.544  10.246 -0.2598 -0.1421 -1.4599
17095SOL    HW153292   9.818   0.526  10.315  0.1486  0.2781 -0.9638
17095SOL    HW253293   9.869   0.637  10.227  2.3544  0.8628  0.9362
17096SOL     OW53294   6.571   0.629   2.231  0.4879  0.7382 -0.2484
17096SOL    HW153295   6.643   0.567   2.237  0.5433  0.8318  0.0812
17096SOL    HW253296   6.610   0.714   2.253  0.1898  0.7229  0.3760
17097SOL     OW53297   8.256   1.352   0.193 -0.2420 -0.2782  0.3887
17097SOL    HW153298   8.317   1.281   0.213  1.9129  1.5760  0.8348
17097SOL    HW253299   8.206   1.320   0.118 -0.7519 -3.0037  1.7730
17098SOL     OW53300   0.428   9.507   1.298 -0.3911 -0.4001  0.2781
17098SOL    HW153301   0.501   9.567   1.312  0.3921 -1.1669 -0.3764
17098SOL    HW253302   0.352   9.551   1.336 -0.1388  1.6280 -1.4395
17099SOL     OW53303   4.108   0.708   8.660 -0.8344 -0.2917  0.3441
17099SOL    HW153304   4.132   0.690   8.569  3.5064 -0.1397  1.2552
17099SOL    HW253305   4.158   0.787   8.682 -0.0489 -1.5372  3.4236
17100SOL     OW53306   5.296  10.543   6.448  0.1123  0.0625  0.3379
17100SOL    HW153307   5.290  10.588   6.533 -1.9794  1.0066 -0.2499
17100SOL    HW253308   5.380  10.572   6.412 -0.4516  2.3127  0.6681
17101SOL     OW53309   4.504   4.641   0.843 -0.2124 -0.0411 -0.6746
17101SOL    HW153310   4.453   4.715   0.875  2.6572  0.7065  2.8415
17101SOL    HW253311   4.462   4.564   0.881  0.1653  0.4050  0.7092
17102SOL     OW53312   1.447   3.029   7.775 -0.4772  0.1642  0.2033
17102SOL    HW153313   1.503   3.106   7.759 -2.6300  1.7325 -0.2194
17102SOL    HW253314   1.456   2.975   7.697  0.6668  0.2128  0.2844
17103SOL     OW53315   8.377   9.692   1.096 -0.0479  0.1907 -0.1048
17103SOL    HW153316   8.320   9.733   1.030 -0.8406 -0.1334  0.3627
17103SOL    HW253317   8.397   9.763   1.157  2.2649  1.0040 -1.6608
17104SOL     OW53318   2.975   3.379   4.151 -0.0239 -0.0648  0.4807
17104SOL    HW153319   3.048   3.389   4.090  0.3629 -1.8586  0.5972
17104SOL    HW253320   2.915   3.319   4.107 -1.4047  1.2977  0.4344
17105SOL     OW53321   8.540   0.031   4.783  0.3864  0.4030  0.3016
17105SOL    HW153322   8.585  -0.028   4.842  0.1047 -2.6279 -2.2540
17105SOL    HW253323   8.487   0.087   4.840  2.2512 -0.4050  2.9673
17106SOL     OW53324   3.545   9.323   8.246  0.2043  0.0456  0.1328
17106SOL    HW153325   3.563   9.268   8.169 -0.8683  0.2370 -0.2653
17106SOL    HW253326   3.474   9.380   8.218 -0.0228  0.2884  1.1958
17107SOL     OW53327   5.738   9.677   6.984 -0.2744  0.1877  0.1369
17107SOL    HW153328   5.661   9.718   6.944  0.0251  1.0891  0.4456
17107SOL    HW253329   5.805   9.680   6.915 -0.1701  0.4919  0.2463
17108SOL     OW53330  10.202   0.310   5.286  0.0416 -0.5947  0.3738
17108SOL    HW153331  10.130   0.373   5.282 -2.7848 -3.5852 -0.0030
17108SOL    HW253332  10.225   0.307   5.379 -0.4910  0.2422  0.5498
17109SOL     OW53333   3.202   3.725   2.335 -0.5063 -0.4106  0.0100
17109SOL    HW153334   3.212   3.801   2.393  0.4527 -0.4142 -0.1381
17109SOL    HW253335   3.165   3.761   2.254  1.6892  0.2334 -0.7560
17110SOL     OW53336   4.449   6.896   7.850 -0.3290  0.0547  0.3758
17110SOL    HW153337   4.379   6.880   7.787 -1.4034 -0.2276  1.5933
17110SOL    HW253338   4.525   6.921   7.797 -0.4038 -2.6709 -1.2346
17111SOL     OW53339   7.049   4.355   9.645 -0.6249  0.2140 -0.1873
17111SOL    HW153340   7.042   4.436   9.696 -1.1198  0.1454 -0.1412
17111SOL    HW253341   7.094   4.294   9.704 -2.1902 -0.2094  0.6095
17112SOL     OW53342   0.176   8.574   9.954  0.2504  0.0381 -0.7183
17112SOL    HW153343   0.090   8.557   9.992  0.5892  1.6161  0.8474
17112SOL    HW253344   0.202   8.490   9.915 -1.5771 -0.7059 -0.4002
17113SOL     OW53345   2.734   4.102   0.088  0.2824  0.1481  0.5499
17113SOL    HW153346   2.674   4.034   0.116 -1.1867  1.9821  2.1209
17113SOL    HW253347   2.794   4.113   0.162 -0.7610  1.8793  1.2021
17114SOL     OW53348   3.613  10.612   8.685 -0.9146  0.1890  1.0287
17114SOL    HW153349   3.518  10.615   8.689 -1.1032 -1.8525 -0.5561
17114SOL    HW253350   3.638  10.695   8.644 -2.0059  0.6645  1.2990
17115SOL     OW53351   3.036   2.563   4.687  0.0228 -0.3848  0.5771
17115SOL    HW153352   3.130   2.557   4.670  0.0037  1.1114 -0.2052
17115SOL    HW253353   2.996   2.577   4.601 -0.6479  1.6139  1.1716
17116SOL     OW53354   4.892   4.549  10.016  0.5216  0.2158 -0.6776
17116SOL    HW153355   4.881   4.487  10.088  0.7820 -0.8968 -1.5613
17116SOL    HW253356   4.813   4.540   9.963  1.1943 -0.4439 -1.5966
17117SOL     OW53357   1.885   0.102   1.344  0.5005  0.0114 -0.4936
17117SOL    HW153358   1.963   0.155   1.360 -0.8989  1.3437  3.1533
17117SOL    HW253359   1.830   0.156   1.287  0.2716  1.3604  0.9222
17118SOL     OW53360   3.034  11.258   7.976 -0.2720 -0.1916 -0.0353
17118SOL    HW153361   2.969  11.316   8.015 -0.9250 -0.1261 -1.1766
17118SOL    HW253362   3.109  11.315   7.956 -0.1335 -0.1315  0.6213
17119SOL     OW53363   4.834   8.882   1.526  0.2699 -0.6578  0.1566
17119SOL    HW153364   4.790   8.966   1.517  0.7087 -0.3166  1.0039
17119SOL    HW253365   4.780   8.833   1.587  0.9625 -0.2844  1.1008
17120SOL     OW53366   5.461   4.337   7.009 -0.6246  0.7184 -0.6572
17120SOL    HW153367   5.537   4.395   7.014 -0.4690  0.5314 -0.8471
17120SOL    HW253368   5.498   4.250   6.992 -0.7789  0.3516  0.7515
17121SOL     OW53369   6.949   9.167   0.968 -0.2361  0.1252  0.2556
17121SOL    HW153370   6.983   9.084   0.934 -2.2461 -1.0924  1.0558
17121SOL    HW253371   7.021   9.229   0.956  1.5202 -1.8428  0.1033
17122SOL     OW53372   9.068  10.464  11.048  0.1269 -0.5364 -0.0031
17122SOL    HW153373   9.056  10.480  10.955  0.7889 -0.2087 -0.0402
17122SOL    HW253374   9.058  10.369  11.058  3.5130 -1.1411 -1.0093
17123SOL     OW53375   6.154   5.267   0.784  0.0020  0.0842  0.1255
17123SOL    HW153376   6.179   5.345   0.833 -0.3595  1.0468 -1.1735
17123SOL    HW253377   6.223   5.255   0.720  0.9094 -1.6682  1.3481
17124SOL     OW53378   7.421   6.022  10.326  0.9607  0.0760  0.2657
17124SOL    HW153379   7.495   6.072  10.360  1.6386 -1.1441  0.6299
17124SOL    HW253380   7.460   5.957  10.267  0.1006 -0.0579 -0.1873
17125SOL     OW53381   6.817   3.205   6.205 -0.2103  0.2663  0.1771
17125SOL    HW153382   6.819   3.110   6.219 -1.2749  0.2563  0.2870
17125SOL    HW253383   6.909   3.229   6.196  0.1019 -0.6996  0.6504
17126SOL     OW53384   0.528  10.404   9.590  0.0180 -0.3904 -0.2988
17126SOL    HW153385   0.618  10.435   9.594  0.0795 -0.6732  2.0817
17126SOL    HW253386   0.485  10.444   9.666 -1.0900 -2.5007  0.2677
17127SOL     OW53387   7.703   1.870   0.572 -0.1710 -0.0894  0.2662
17127SOL    HW153388   7.795   1.865   0.599  0.3792  0.4125 -1.4212
17127SOL    HW253389   7.706   1.907   0.484 -1.9265 -0.9935 -0.2129
17128SOL     OW53390   5.393   2.731   1.584  0.3585  0.1461 -0.4643
17128SOL    HW153391   5.463   2.790   1.611 -0.0735  0.1156  0.7844
17128SOL    HW253392   5.417   2.704   1.496  2.6216 -0.8622  0.3816
17129SOL     OW53393   4.026   3.715   2.710  0.0461 -0.0366  0.5015
17129SOL    HW153394   3.933   3.730   2.727  0.4970  2.7107  1.1962
17129SOL    HW253395   4.067   3.723   2.797  0.8728 -2.1978  0.3567
17130SOL     OW53396  10.985   7.190   6.028 -0.1902 -0.2534  0.2611
17130SOL    HW153397  11.067   7.193   5.978 -0.9592  0.2071 -1.0309
17130SOL    HW253398  10.917   7.178   5.961 -1.3761  1.5855  1.0497
17131SOL     OW53399   0.170   0.670   2.971  0.2632 -0.0519  0.2780
17131SOL    HW153400   0.177   0.729   2.896  2.0712  1.9002  1.8627
17131SOL    HW253401   0.090   0.621   2.955 -0.4924  1.7152 -1.9285
17132SOL     OW53402   6.974   7.902   3.313  0.3111 -0.4907  0.2909
17132SOL    HW153403   6.900   7.946   3.356  0.8730 -1.5709  2.5543
17132SOL    HW253404   7.018   7.971   3.265  0.0221  1.0506  2.0963
17133SOL     OW53405   8.006   0.965   1.463  0.4386 -0.2548  0.5047
17133SOL    HW153406   7.999   0.892   1.402  0.0248 -0.7964  1.1800
17133SOL    HW253407   8.057   1.031   1.416  0.4111 -0.7878 -0.2925
17134SOL     OW53408   8.216   7.262  11.028 -0.6298 -0.0746  0.7015
17134SOL    HW153409   8.228   7.218  10.944 -1.7521  0.2351  0.3742
17134SOL    HW253410   8.290   7.322  11.034  0.0567 -0.8637  0.4466
17135SOL     OW53411   5.755  10.795   8.239  0.2299 -0.4515 -0.1814
17135SOL    HW153412   5.775  10.702   8.231 -0.3880 -0.5386 -0.8153
17135SOL    HW253413   5.670  10.798   8.282  0.5689 -0.1465  0.4981
17136SOL     OW53414  10.064   1.638   4.196  0.0808 -0.0230 -0.2234
17136SOL    HW153415  10.021   1.597   4.120  0.1059 -0.0760 -0.2091
17136SOL    HW253416  10.158   1.632   4.176  0.0411  1.8852 -1.1997
17137SOL     OW53417  10.422   0.413   5.785 -0.1269 -0.2611  0.8848
17137SOL    HW153418  10.513   0.383   5.783 -0.1689 -0.4478  1.5913
17137SOL    HW253419  10.406   0.433   5.877 -1.4484 -2.2364  1.1404
17138SOL     OW53420   4.488   7.845   6.649 -0.6483 -0.5155 -0.3845
17138SOL    HW153421   4.574   7.883   6.633 -1.0593  0.3405 -0.6381
17138SOL    HW253422   4.506   7.756   6.679  0.4000  0.3558  1.7181
17139SOL     OW53423   2.882  10.752   7.892 -0.2402  0.2686 -0.8681
17139SOL    HW153424   2.819  10.813   7.928 -0.4006 -0.3494 -0.0901
17139SOL    HW253425   2.967  10.793   7.907 -0.2701 -0.1420  0.5918
17140SOL     OW53426   9.982   2.569   0.527  0.5528 -0.2336  0.5402
17140SOL    HW153427   9.979   2.624   0.605  0.1415  0.5898 -0.0417
17140SOL    HW253428  10.058   2.601   0.478 -0.2593  0.5044 -0.2756
17141SOL     OW53429   4.933   7.380   4.135  0.2297 -0.1112 -0.2569
17141SOL    HW153430   4.950   7.381   4.229 -0.8987  1.1193 -0.0383
17141SOL    HW253431   4.956   7.468   4.106  0.6136 -0.4932 -1.1569
17142SOL     OW53432   6.514   0.091   6.609 -0.5760  0.3685  0.1712
17142SOL    HW153433   6.517   0.182   6.639 -2.3385  0.6054 -0.3051
17142SOL    HW253434   6.430   0.082   6.564 -0.8461 -1.7392  0.9648
17143SOL     OW53435   9.698   1.508   9.446 -0.8937  0.4529  0.1694
17143SOL    HW153436   9.687   1.488   9.354 -0.7570  0.2045  0.2074
17143SOL    HW253437   9.660   1.434   9.493 -1.0720  0.6329  0.3144
17144SOL     OW53438   0.407   0.650   4.802  0.7587  0.2555  0.5381
17144SOL    HW153439   0.490   0.672   4.759 -0.1931  1.1386 -0.9559
17144SOL    HW253440   0.365   0.735   4.819 -0.6468 -0.1906 -0.4664
17145SOL     OW53441  11.221   3.911  10.975  0.2201  0.5831  0.2660
17145SOL    HW153442  11.284   3.956  11.032  0.4173 -0.1393  0.6311
17145SOL    HW253443  11.163   3.864  11.035 -0.3273  0.7928 -0.0893
17146SOL     OW53444   2.623   5.288   7.450 -0.5663  0.0835 -0.0785
17146SOL    HW153445   2.575   5.294   7.532 -1.0446 -2.7120 -0.0412
17146SOL    HW253446   2.647   5.195   7.443  1.6085  0.6873 -1.9197
17147SOL     OW53447   8.300   1.924  10.581 -0.2884 -0.0270 -0.4356
17147SOL    HW153448   8.349   1.976  10.517  0.3192  2.3093  1.7698
17147SOL    HW253449   8.209   1.929  10.550 -0.4240  3.2214  0.0601
17148SOL     OW53450   5.912   0.635   0.665  0.4234 -0.4208 -0.6835
17148SOL    HW153451   5.938   0.607   0.752  2.8374  1.0236 -0.8607
17148SOL    HW253452   5.980   0.601   0.607 -1.3885 -1.7939 -2.1443
17149SOL     OW53453   4.799   3.368   7.659 -0.1482 -0.5406  0.7807
17149SOL    HW153454   4.774   3.455   7.630 -2.7031 -0.6931  2.1755
17149SOL    HW253455   4.893   3.374   7.678 -0.1501  1.7053  0.2936
17150SOL     OW53456   9.461   8.669   8.575 -0.2556  0.0933 -0.1482
17150SOL    HW153457   9.525   8.731   8.541  0.9651 -0.0935  1.6481
17150SOL    HW253458   9.448   8.696   8.666  0.1124 -2.0687  0.6158
17151SOL     OW53459   1.766   5.228   5.218 -0.0433  0.7327  0.3192
17151SOL    HW153460   1.796   5.316   5.240  0.2298  0.8695 -0.5766
17151SOL    HW253461   1.671   5.237   5.209 -0.3902  0.3633  2.8407
17152SOL     OW53462   6.829   2.703   3.754 -0.8546  0.5961  0.1295
17152SOL    HW153463   6.806   2.649   3.678  2.1195  0.6777 -0.9344
17152SOL    HW253464   6.767   2.776   3.751 -3.0042 -1.1031 -0.1395
17153SOL     OW53465   9.719   0.931   3.046 -0.3330 -0.1876 -0.5397
17153SOL    HW153466   9.726   0.857   3.106  0.3890 -0.5754 -1.0900
17153SOL    HW253467   9.679   0.895   2.967  0.2070 -0.0383 -0.8845
17154SOL     OW53468   1.257   7.117   5.864 -0.0928  0.1624 -0.4663
17154SOL    HW153469   1.282   7.209   5.853  0.3037  0.1413  0.2124
17154SOL    HW253470   1.333   7.068   5.834 -0.2028  0.0580 -0.5763
17155SOL     OW53471   4.380  11.263   6.931  0.5275 -0.4716  0.1011
17155SOL    HW153472   4.461  11.216   6.951 -0.2361 -1.4408  1.0585
17155SOL    HW253473   4.398  11.354   6.955  1.0071 -0.8690  1.3428
17156SOL     OW53474   6.676  10.420   9.646 -0.0594 -0.4274  0.2938
17156SOL    HW153475   6.676  10.359   9.572  0.5080 -0.5080  0.3562
17156SOL    HW253476   6.665  10.506   9.605  0.3667 -0.4598  0.1019
17157SOL     OW53477   0.898   6.081   3.390 -0.2762 -0.7757  0.1723
17157SOL    HW153478   0.953   6.128   3.327  2.2135 -4.4484 -0.7334
17157SOL    HW253479   0.944   6.090   3.473 -0.8742  0.0052  0.4208
17158SOL     OW53480   2.080   2.778   4.345 -0.4745  0.5460 -0.4757
17158SOL    HW153481   2.081   2.717   4.272 -0.9046  0.7046 -0.6195
17158SOL    HW253482   2.160   2.759   4.394  1.5982  2.6631 -2.7963
17159SOL     OW53483   8.046  10.011   7.138 -0.0599  0.0341  0.1080
17159SOL    HW153484   8.047   9.978   7.228 -1.6658  0.8789  0.4681
17159SOL    HW253485   8.093   9.944   7.088  0.8994 -0.4287  1.5598
17160SOL     OW53486   1.062  10.388   4.459  0.0303 -0.1375  0.9137
17160SOL    HW153487   1.073  10.481   4.439 -0.5101 -0.5452 -1.6012
17160SOL    HW253488   0.976  10.366   4.425 -1.2320 -0.9622  4.2441
17161SOL     OW53489   6.286   6.688  10.977 -0.5589  0.2862  0.1088
17161SOL    HW153490   6.269   6.719  10.888 -1.1205 -2.0864 -0.6776
17161SOL    HW253491   6.363   6.631  10.968 -1.1121 -0.6172  0.9667
17162SOL     OW53492  10.229  10.350  10.404 -0.3630 -0.3417 -0.6675
17162SOL    HW153493  10.141  10.326  10.433 -0.9048  2.5742  0.4825
17162SOL    HW253494  10.287  10.319  10.475 -0.6468 -0.8364 -0.6485
17163SOL     OW53495   5.193   2.682   7.084 -0.5569  0.0634  0.3064
17163SOL    HW153496   5.140   2.714   7.157 -1.3521 -0.7644  0.1002
17163SOL    HW253497   5.188   2.753   7.019  0.0138  0.7285  0.9691
17164SOL     OW53498   8.366   7.660  11.139  0.1793  0.1377 -0.0708
17164SOL    HW153499   8.344   7.619  11.055  4.1820  0.9778 -1.7811
17164SOL    HW253500   8.388   7.587  11.197  0.0336 -0.3725 -0.6506
17165SOL     OW53501   0.628   4.742   1.052  0.3318  0.1465  0.4194
17165SOL    HW153502   0.590   4.809   1.109 -0.2122  1.5988 -1.5318
17165SOL    HW253503   0.706   4.712   1.098 -0.5112  0.6643  2.2657
17166SOL     OW53504   4.738   3.519   3.365  0.4104 -0.5894 -0.0632
17166SOL    HW153505   4.774   3.561   3.287  0.4614  1.4556  0.9931
17166SOL    HW253506   4.813   3.501   3.421  0.2064 -0.3657  0.2884
17167SOL     OW53507   1.081   1.257   0.025 -0.0416  0.0967 -0.6220
17167SOL    HW153508   1.075   1.250  -0.070  1.1530 -1.0825 -0.6263
17167SOL    HW253509   1.006   1.312   0.049 -0.2284  0.6199 -2.2500
17168SOL     OW53510  11.284   8.339   0.951  0.0906 -0.2356  0.2987
17168SOL    HW153511  11.375   8.307   0.949  1.0944  2.3615  0.7446
17168SOL    HW253512  11.249   8.305   1.033  0.8922 -0.6897  0.4671
17169SOL     OW53513   2.424   9.605   4.845  0.3056  0.4067  0.4302
17169SOL    HW153514   2.500   9.580   4.793  0.4513  0.7907  0.4529
17169SOL    HW253515   2.438   9.698   4.863 -0.2629  0.5234  0.2726
17170SOL     OW53516   9.137   9.608   5.841 -0.2085 -0.0681 -0.1902
17170SOL    HW153517   9.212   9.647   5.796  0.1824 -1.3518 -0.7122
17170SOL    HW253518   9.168   9.595   5.931 -0.1933  0.4173 -0.1232
17171SOL     OW53519   8.775   9.358  11.278 -0.9545 -0.2308 -0.2780
17171SOL    HW153520   8.733   9.444  11.273 -0.2157  0.0691 -2.1771
17171SOL    HW253521   8.862   9.372  11.241 -0.5843 -1.6537  0.0176
17172SOL     OW53522   5.281   1.353   3.412 -0.3655  0.1032  0.7717
17172SOL    HW153523   5.257   1.441   3.384 -0.4520 -0.4498 -0.9921
17172SOL    HW253524   5.273   1.299   3.334 -3.6878 -2.2253  2.4531
17173SOL     OW53525   2.234   9.435   8.543  0.4380  0.4362  0.2838
17173SOL    HW153526   2.203   9.391   8.464  0.2802 -0.0239  0.6005
17173SOL    HW253527   2.268   9.365   8.598  1.1575  0.8270  0.3473
17174SOL     OW53528   9.489   7.044   3.173 -0.2601 -0.6409 -0.6064
17174SOL    HW153529   9.503   6.970   3.232  0.6663  0.9499  1.2514
17174SOL    HW253530   9.460   7.115   3.230 -1.1172  0.4653 -2.3388
17175SOL     OW53531   7.050   3.842   5.257  0.3418 -0.6528  0.8134
17175SOL    HW153532   7.133   3.890   5.258 -0.2643  0.4405  2.3718
17175SOL    HW253533   6.984   3.911   5.244 -0.3645 -1.4526  0.0734
17176SOL     OW53534   5.190   8.508   1.887 -0.0107  0.0785 -0.7420
17176SOL    HW153535   5.112   8.517   1.833 -0.2078  1.0793 -0.3209
17176SOL    HW253536   5.262   8.502   1.824 -0.3089  0.4938 -1.1306
17177SOL     OW53537   5.357   6.662  10.142  0.5391  0.1388 -0.4125
17177SOL    HW153538   5.406   6.603  10.084  0.8479 -0.0722  0.0561
17177SOL    HW253539   5.371   6.749  10.105  2.2901  0.2425  0.3819
17178SOL     OW53540  10.669   9.912   0.785 -0.3302 -0.2573 -0.0431
17178SOL    HW153541  10.581   9.882   0.762 -0.5005  0.5280 -0.4493
17178SOL    HW253542  10.665  10.007   0.777  0.5275 -0.2060  0.0370
17179SOL     OW53543   1.834   9.159   9.855 -1.0972 -0.4012  0.1040
17179SOL    HW153544   1.870   9.212   9.926  0.4931 -0.7381 -0.3994
17179SOL    HW253545   1.749   9.199   9.836 -1.2350  0.1409  1.6838
17180SOL     OW53546  10.349   7.487   1.742  0.1366 -0.5284 -0.2575
17180SOL    HW153547  10.326   7.420   1.807  0.6719 -0.0878  0.3935
17180SOL    HW253548  10.353   7.568   1.791  1.8972 -0.3956 -0.5569
17181SOL     OW53549   6.411   9.607   0.613  0.3977 -0.4411 -0.1838
17181SOL    HW153550   6.467   9.534   0.634  0.9637 -0.0527 -0.3247
17181SOL    HW253551   6.457   9.684   0.645  0.0474 -0.0972 -0.4799
17182SOL     OW53552   7.249   6.664   3.457  0.1646 -0.1647  0.0530
17182SOL    HW153553   7.327   6.611   3.440 -0.8540 -1.9145  0.5744
17182SOL    HW253554   7.241   6.667   3.552 -0.3686  0.0571  0.0093
17183SOL     OW53555   3.744   6.930   9.639 -0.6944  0.3098  0.1331
17183SOL    HW153556   3.727   6.840   9.665 -1.2267 -0.1253 -1.5808
17183SOL    HW253557   3.791   6.968   9.713  0.8687 -1.7987  0.3182
17184SOL     OW53558   9.969   5.882   2.599  0.3384  0.4932 -0.7062
17184SOL    HW153559  10.045   5.823   2.605  0.4447  0.7992  2.5857
17184SOL    HW253560  10.003   5.961   2.556  1.5405  0.1419 -0.4342
17185SOL     OW53561   9.923   9.005   5.897  0.0618 -0.2761 -0.4193
17185SOL    HW153562   9.936   9.091   5.857 -1.6322 -0.0141 -0.4769
17185SOL    HW253563  10.012   8.975   5.917  0.7713  0.9273 -1.5326
17186SOL     OW53564   5.094   1.156   5.601 -0.5099 -0.0128 -0.2998
17186SOL    HW153565   5.052   1.087   5.550  1.8283 -1.0611 -0.9494
17186SOL    HW253566   5.176   1.173   5.555 -0.4347  2.3334  0.5754
17187SOL     OW53567   3.608   3.618   4.553  0.4582  0.4280  0.3413
17187SOL    HW153568   3.656   3.573   4.484 -0.5344 -1.7250  0.9588
17187SOL    HW253569   3.530   3.653   4.510  0.5443  0.3298  0.1044
17188SOL     OW53570  11.005   7.227   5.650  0.0981 -0.2478  0.4573
17188SOL    HW153571  11.068   7.253   5.583 -1.5690  0.0359 -1.0702
17188SOL    HW253572  11.049   7.157   5.698  2.3849  1.3513  0.8774
17189SOL     OW53573   7.593   2.953  10.112 -0.5896  0.0470  0.0842
17189SOL    HW153574   7.652   2.915  10.176 -0.6959  1.0795  0.8165
17189SOL    HW253575   7.650   2.999  10.051 -0.5116 -0.6613 -0.3885
17190SOL     OW53576   2.768   9.281   2.695 -0.0111  0.1534  0.1040
17190SOL    HW153577   2.775   9.194   2.654  1.0719 -0.1891  0.9733
17190SOL    HW253578   2.761   9.342   2.622  1.6022 -0.4631 -0.6048
17191SOL     OW53579   4.365   1.835   0.431 -0.2085 -0.2165  0.1461
17191SOL    HW153580   4.309   1.901   0.472  0.2149  1.2833 -1.5171
17191SOL    HW253581   4.334   1.831   0.340  0.3654 -1.6710 -0.0023
17192SOL     OW53582  10.588   0.408   3.276  0.0552 -0.2787  1.1659
17192SOL    HW153583  10.574   0.318   3.246  0.8114 -0.7004  2.0543
17192SOL    HW253584  10.683   0.418   3.280  0.0016  0.9303  0.0280
17193SOL     OW53585   3.599  10.106   7.934 -0.0255 -0.5902 -0.3551
17193SOL    HW153586   3.587  10.184   7.880  0.2756  1.0512  1.8345
17193SOL    HW253587   3.630  10.139   8.018 -1.1497 -2.9585  1.1070
17194SOL     OW53588   5.073   6.375   5.051 -0.8675  0.1139 -0.5250
17194SOL    HW153589   5.059   6.355   5.144 -0.3941  1.3594 -0.1621
17194SOL    HW253590   5.122   6.458   5.052 -0.3321 -0.1692 -1.8763
17195SOL     OW53591   0.404   3.152   2.060  0.1079  0.6372 -1.0289
17195SOL    HW153592   0.408   3.072   2.112 -1.9056 -0.0690 -1.8540
17195SOL    HW253593   0.474   3.143   1.996  1.0577  0.3984  0.0140
17196SOL     OW53594   8.588   4.813   3.472 -0.1849 -0.6043  0.4656
17196SOL    HW153595   8.592   4.867   3.551  1.2975  0.3702 -0.2430
17196SOL    HW253596   8.583   4.875   3.400 -1.4396 -1.4828 -0.2449
17197SOL     OW53597  10.885   5.043   9.120  1.1606 -0.2973  0.3651
17197SOL    HW153598  10.885   5.028   9.026 -1.2576  1.1360  0.0460
17197SOL    HW253599  10.860   4.958   9.158  4.5875 -1.6007  0.0101
17198SOL     OW53600   3.834   8.441   8.701  0.1412  0.6117 -0.0856
17198SOL    HW153601   3.796   8.360   8.667 -0.8417  0.8417  0.4207
17198SOL    HW253602   3.922   8.444   8.664  0.2136 -0.7188 -0.0715
17199SOL     OW53603   0.036   6.225   6.380 -0.1900  0.1911  0.3228
17199SOL    HW153604  -0.058   6.239   6.367  0.0461  1.0827 -0.4978
17199SOL    HW253605   0.040   6.155   6.446 -1.4217 -0.1271  0.0952
17200SOL     OW53606  11.065  10.584  10.380  0.1744 -0.1639 -0.0738
17200SOL    HW153607  11.073  10.652  10.447 -1.7656  0.7078 -0.6678
17200SOL    HW253608  10.972  10.561  10.380  0.7385 -2.7708  0.0313
17201SOL     OW53609   4.970   9.860   7.618  0.0049  0.1386 -0.4549
17201SOL    HW153610   5.052   9.826   7.655  0.2761  0.6625 -0.5571
17201SOL    HW253611   4.902   9.826   7.676  0.3133 -0.1077 -0.2276
17202SOL     OW53612  11.169  10.528   7.734 -0.4020  0.0541  0.1643
17202SOL    HW153613  11.230  10.592   7.699 -0.2387 -0.0402  0.2778
17202SOL    HW253614  11.139  10.566   7.816 -0.3674  0.0218  0.1913
17203SOL     OW53615   5.600   8.119   1.081  0.4351  0.0311  0.0837
17203SOL    HW153616   5.665   8.060   1.042 -0.1881 -0.0144 -0.9367
17203SOL    HW253617   5.641   8.152   1.160  0.7805 -1.8605  0.7467
17204SOL     OW53618   7.909   7.044  10.248 -0.0604  0.2955  0.1972
17204SOL    HW153619   7.931   6.999  10.166 -0.5798 -3.7774  2.0516
17204SOL    HW253620   7.815   7.058  10.243 -0.0277  0.4293 -0.0544
17205SOL     OW53621   9.303   8.090   0.529 -0.1518 -0.5102  0.0889
17205SOL    HW153622   9.357   8.014   0.508 -1.3967 -1.1093 -1.1019
17205SOL    HW253623   9.255   8.065   0.608 -0.0216 -0.6883  0.1099
17206SOL     OW53624   5.736   2.717   2.447  0.6943 -0.0588 -0.0560
17206SOL    HW153625   5.736   2.810   2.471  0.1552 -0.3117  0.9838
17206SOL    HW253626   5.828   2.695   2.438  0.8009  0.7914 -1.2065
17207SOL     OW53627   1.651   2.059   2.381 -0.0574  0.2634 -0.8770
17207SOL    HW153628   1.660   2.150   2.407 -0.3129 -0.1272  0.6653
17207SOL    HW253629   1.585   2.023   2.441 -0.3642 -0.7940 -1.8176
17208SOL     OW53630   9.079   2.291   2.107  0.4029  0.0469 -0.5659
17208SOL    HW153631   8.987   2.268   2.090 -0.6918  2.6581  1.0681
17208SOL    HW253632   9.076   2.384   2.132  3.3111 -0.1311  0.9066
17209SOL     OW53633   1.493   2.867   6.919 -0.6173 -0.4177  0.0056
17209SOL    HW153634   1.560   2.907   6.975  0.5463 -2.4339  0.1882
17209SOL    HW253635   1.417   2.857   6.976 -0.0190 -0.8915  0.7468
17210SOL     OW53636   8.316   2.480  10.844  0.2386 -0.2995  0.1570
17210SOL    HW153637   8.269   2.403  10.813 -1.1994  0.4286  0.4751
17210SOL    HW253638   8.366   2.449  10.920  0.3210 -1.0898 -0.2082
17211SOL     OW53639   9.390   9.012   1.849 -0.2668 -0.4114 -0.6324
17211SOL    HW153640   9.387   9.006   1.754 -0.6455 -1.9077 -0.5491
17211SOL    HW253641   9.368   8.924   1.880  0.6685 -0.1742  0.8247
17212SOL     OW53642   7.723   4.480  11.054 -0.0885 -0.2692  0.5498
17212SOL    HW153643   7.642   4.486  11.104 -0.6473 -2.1108 -0.0429
17212SOL    HW253644   7.740   4.569  11.023 -2.1658  0.0601  0.2690
17213SOL     OW53645   3.442   2.556   9.911  0.1217 -0.9269 -0.0341
17213SOL    HW153646   3.473   2.626   9.969 -2.9893 -2.5022  4.0147
17213SOL    HW253647   3.369   2.596   9.863  0.4597 -0.5128 -0.2062
17214SOL     OW53648   3.020   6.967   7.307  0.4286  0.3223 -0.0146
17214SOL    HW153649   3.024   6.883   7.352 -1.0873 -0.8100 -1.8534
17214SOL    HW253650   3.085   6.960   7.237 -0.0110  0.5045 -0.4463
17215SOL     OW53651   8.935   6.552   6.095  0.2320 -0.0677  0.1885
17215SOL    HW153652   8.840   6.549   6.090  0.1314  1.0967  0.8001
17215SOL    HW253653   8.956   6.646   6.097  1.4012 -0.3001 -0.1045
17216SOL     OW53654   1.758   0.537   1.825  0.4331 -0.5938 -0.0017
17216SOL    HW153655   1.787   0.584   1.903  0.9848 -0.2407 -0.4092
17216SOL    HW253656   1.665   0.558   1.817  0.8522  1.1690 -0.6620
17217SOL     OW53657  10.812   2.936   2.078 -0.9717  0.6252  0.5187
17217SOL    HW153658  10.791   2.918   2.169 -0.2644  1.5629  0.8901
17217SOL    HW253659  10.734   2.911   2.029 -1.1973 -0.3027  1.3247
17218SOL     OW53660   4.568   9.354   6.020 -0.4199 -0.4042 -0.8313
17218SOL    HW153661   4.607   9.274   6.053 -0.5926  0.1331  0.7689
17218SOL    HW253662   4.625   9.424   6.053 -2.4380  0.3700  1.2797
17219SOL     OW53663  11.137   8.667   2.069  0.1643 -0.1413  0.9339
17219SOL    HW153664  11.143   8.738   2.006  2.9545  0.8909  2.2119
17219SOL    HW253665  11.105   8.592   2.018  0.5929  1.1021 -1.2710
17220SOL     OW53666   1.606   0.703   9.644  0.4376 -0.0370  0.2066
17220SOL    HW153667   1.566   0.776   9.597  2.0504  0.4072 -0.5352
17220SOL    HW253668   1.642   0.646   9.575  2.9913  0.7116  0.8085
17221SOL     OW53669  11.191   6.062   1.528 -0.2880 -0.6622  0.0365
17221SOL    HW153670  11.271   6.022   1.561 -0.5521 -1.3738 -0.1727
17221SOL    HW253671  11.122   5.999   1.549 -0.6616 -0.4839 -0.6158
17222SOL     OW53672   7.857   4.910   5.006 -0.5496 -0.3642  0.1848
17222SOL    HW153673   7.895   4.833   5.048 -0.8351 -0.0526  1.0212
17222SOL    HW253674   7.774   4.879   4.970 -0.4360 -0.5562  0.0781
17223SOL     OW53675   3.539  10.464   2.830 -0.3204 -0.0274 -0.1941
17223SOL    HW153676   3.460  10.477   2.779 -0.3381  2.6086  0.3796
17223SOL    HW253677   3.600  10.421   2.769 -1.7608 -1.0739 -0.9715
17224SOL     OW53678   0.050   1.489   9.486 -0.1177 -0.3814  0.3166
17224SOL    HW153679   0.127   1.508   9.433 -0.9287  0.7175 -0.5293
17224SOL    HW253680   0.080   1.497   9.577  0.8000 -0.1642  0.0060
17225SOL     OW53681   5.897   3.862   4.334  0.8846  0.0288 -0.0972
17225SOL    HW153682   5.927   3.929   4.396  2.3705  0.6679 -1.4458
17225SOL    HW253683   5.813   3.895   4.303  0.4000 -0.0056  1.1097
17226SOL     OW53684   9.243  11.172   4.553  0.1672  0.6085 -0.1639
17226SOL    HW153685   9.225  11.086   4.513 -1.7586  0.2332  1.3469
17226SOL    HW253686   9.338  11.180   4.550  0.5846 -2.4081  1.1995
17227SOL     OW53687   5.873   1.694   6.707  0.6833  0.7430  0.1877
17227SOL    HW153688   5.935   1.674   6.778  0.8975  0.1147 -0.1645
17227SOL    HW253689   5.864   1.611   6.660 -3.3502 -0.3483  2.4297
17228SOL     OW53690   7.198   2.405   1.565 -1.1915 -0.1626 -0.1250
17228SOL    HW153691   7.263   2.343   1.600 -0.8867 -0.3666 -1.0171
17228SOL    HW253692   7.157   2.357   1.493 -2.5085 -0.1154  0.5731
17229SOL     OW53693   8.831   5.106   4.262  0.6372  0.4389  0.3248
17229SOL    HW153694   8.871   5.121   4.177  0.6766  2.7768  0.6854
17229SOL    HW253695   8.741   5.137   4.252 -0.2401 -1.8292  0.4156
17230SOL     OW53696   5.979   7.436  10.914  0.0855  0.7531 -0.1960
17230SOL    HW153697   6.004   7.526  10.935 -0.8727  1.2021 -0.9296
17230SOL    HW253698   6.042   7.409  10.847  0.7083  0.6726  0.4060
17231SOL     OW53699   8.647   5.091   4.541  0.2000 -0.5040 -0.3755
17231SOL    HW153700   8.741   5.094   4.563 -0.1089  2.1897  1.0220
17231SOL    HW253701   8.638   5.151   4.467 -0.6978  1.2261  1.0624
17232SOL     OW53702   6.864   9.904   9.868  0.1193 -0.5009 -0.2435
17232SOL    HW153703   6.854   9.999   9.863  0.9084 -0.3971  0.0222
17232SOL    HW253704   6.781   9.873   9.902 -0.9604 -0.1257 -2.3634
17233SOL     OW53705   1.197   5.401   3.558 -0.2595  0.4722 -0.3315
17233SOL    HW153706   1.190   5.421   3.465 -0.9531  1.3024 -0.1203
17233SOL    HW253707   1.285   5.431   3.583 -0.0637  0.2187 -0.7265
17234SOL     OW53708   9.092   4.605   7.968  0.1544  0.4045 -0.2824
17234SOL    HW153709   9.051   4.538   8.022 -0.6181 -0.5276 -1.9281
17234SOL    HW253710   9.182   4.611   8.000 -0.2651 -0.1052  1.0585
17235SOL     OW53711  11.142   8.687   1.029  0.6312 -0.4620 -0.4191
17235SOL    HW153712  11.072   8.749   1.049 -0.8323 -1.3260 -2.5767
17235SOL    HW253713  11.186   8.674   1.113 -1.7859  0.1125  1.0439
17236SOL     OW53714  10.464   7.129   1.186  0.5365  0.4857  0.2713
17236SOL    HW153715  10.525   7.062   1.219  1.6469  1.6773  0.7040
17236SOL    HW253716  10.495   7.211   1.224  0.6893  1.6617 -2.2070
17237SOL     OW53717   1.612   8.398   6.960 -0.2130 -0.3898  0.0047
17237SOL    HW153718   1.696   8.401   6.914 -1.6756  0.6451 -2.7879
17237SOL    HW253719   1.546   8.392   6.891 -2.5911  1.6541  1.8922
17238SOL     OW53720   8.316   2.449   4.800  0.0307 -0.0277  1.0240
17238SOL    HW153721   8.327   2.370   4.747 -0.3165 -0.1575  1.1447
17238SOL    HW253722   8.393   2.450   4.857  0.7169  0.4307  0.1197
17239SOL     OW53723   3.775   6.629   0.501  0.1039 -0.8516 -0.2288
17239SOL    HW153724   3.814   6.564   0.559  2.3875  2.2150  1.9571
17239SOL    HW253725   3.824   6.620   0.419  0.3371 -1.8983  0.0103
17240SOL     OW53726   1.367   3.457  10.527 -0.2698 -0.2314 -0.3333
17240SOL    HW153727   1.366   3.449  10.431 -0.2215 -2.4005 -0.2090
17240SOL    HW253728   1.429   3.527  10.544 -0.6396  0.5252 -1.9052
17241SOL     OW53729   5.245   1.349  10.248  0.0636 -0.4438  0.0852
17241SOL    HW153730   5.253   1.424  10.308 -1.6300  0.4390 -0.6955
17241SOL    HW253731   5.284   1.276  10.296 -0.4198  0.4133  1.9149
17242SOL     OW53732   0.273   5.495   8.406  0.0800 -1.0140 -0.4278
17242SOL    HW153733   0.337   5.486   8.477 -0.0011 -0.8450 -0.3319
17242SOL    HW253734   0.207   5.429   8.424  0.0228 -0.9227 -0.3068
17243SOL     OW53735  10.960   3.328   6.626  0.1178 -0.1557 -0.4130
17243SOL    HW153736  11.019   3.289   6.690  0.0077  0.7056  0.2201
17243SOL    HW253737  10.920   3.402   6.671 -3.1806 -2.0015 -0.0015
17244SOL     OW53738  10.014   3.202   0.762  0.0357  0.2435 -0.5193
17244SOL    HW153739  10.039   3.212   0.670 -0.0611  1.1838 -0.4507
17244SOL    HW253740   9.938   3.143   0.759 -0.0746  0.4057 -1.0531
17245SOL     OW53741   0.842   2.638   7.498  0.0556  0.4657 -0.0567
17245SOL    HW153742   0.782   2.671   7.565 -0.2953 -1.1082  0.4488
17245SOL    HW253743   0.826   2.693   7.422 -2.5238 -0.2859 -0.1382
17246SOL     OW53744   3.844  10.337   8.435 -0.0734 -0.4054  0.2172
17246SOL    HW153745   3.844  10.362   8.527 -0.8666 -2.2961  0.7826
17246SOL    HW253746   3.896  10.405   8.392 -1.3293  1.6463  1.7206
17247SOL     OW53747   7.288   0.354  10.305  0.0377  0.1361 -0.0448
17247SOL    HW153748   7.338   0.330  10.226  1.1652  1.0182  0.3776
17247SOL    HW253749   7.334   0.309  10.376 -1.1864 -0.9402  0.0935
17248SOL     OW53750   2.981   7.670  11.092 -0.3064  0.1221  0.4125
17248SOL    HW153751   2.975   7.686  11.186  0.7825 -1.4151  0.7852
17248SOL    HW253752   2.896   7.632  11.068 -0.4811  0.2452  0.8375
17249SOL     OW53753   3.612   4.127   4.007  0.0770 -0.8265 -0.0463
17249SOL    HW153754   3.705   4.111   4.020  0.5920  0.6657 -1.5653
17249SOL    HW253755   3.584   4.060   3.945  0.9337  0.5919 -2.0715
17250SOL     OW53756   4.551   7.844   3.658 -0.0403  0.2068  0.1240
17250SOL    HW153757   4.593   7.795   3.729  1.0996  2.1748  0.8854
17250SOL    HW253758   4.624   7.877   3.606 -0.7159  1.5771  0.0060
17251SOL     OW53759   1.143   4.300   4.698 -0.2624 -0.0124 -0.1806
17251SOL    HW153760   1.059   4.344   4.710 -0.5529 -0.4651 -0.4937
17251SOL    HW253761   1.209   4.364   4.725 -0.7559 -0.1121  1.3725
17252SOL     OW53762  10.466   2.123   0.782  0.3835  0.2258  0.1012
17252SOL    HW153763  10.425   2.157   0.861  0.6712  0.7628  0.0246
17252SOL    HW253764  10.479   2.200   0.726 -3.4047 -0.5363 -2.1873
17253SOL     OW53765   0.559   7.894   3.842 -0.0822 -0.2315  0.3049
17253SOL    HW153766   0.498   7.953   3.796 -2.2877 -3.1222 -0.7747
17253SOL    HW253767   0.506   7.854   3.911  1.1666 -1.3559  0.6450
17254SOL     OW53768   9.615   9.387   0.785  0.2715 -0.7009  0.0831
17254SOL    HW153769   9.696   9.425   0.819  0.7175 -1.0011 -0.6049
17254SOL    HW253770   9.611   9.300   0.825 -0.1365 -0.3812  0.7436
17255SOL     OW53771   7.565   7.332   0.852  0.0016 -0.5847  0.2619
17255SOL    HW153772   7.616   7.294   0.923  0.7620  2.0982  1.2520
17255SOL    HW253773   7.503   7.390   0.895 -0.3166  0.2133 -1.2036
17256SOL     OW53774   1.159   8.977   2.953  0.5021  0.1936 -0.7504
17256SOL    HW153775   1.200   9.050   2.908 -0.5816  1.3316  0.0377
17256SOL    HW253776   1.067   8.979   2.925  0.0200  0.3488  0.7260
17257SOL     OW53777   1.030   5.512   5.698  0.1497  0.1425  0.2908
17257SOL    HW153778   0.976   5.497   5.621  1.5801  0.4908 -0.8021
17257SOL    HW253779   1.040   5.607   5.702 -0.8267  0.2310  1.5816
17258SOL     OW53780   9.983   9.763   3.589 -0.4495  0.1016 -0.0538
17258SOL    HW153781   9.896   9.730   3.566 -0.5447 -1.3333  2.0884
17258SOL    HW253782  10.039   9.685   3.589  0.3770  0.6796  0.5643
17259SOL     OW53783   5.288   9.621   4.478 -0.6265 -1.1630  0.2623
17259SOL    HW153784   5.238   9.550   4.438 -3.6968  0.9063  0.1636
17259SOL    HW253785   5.280   9.606   4.572 -3.5275  0.3244  0.3557
17260SOL     OW53786   8.835   0.707   3.938 -0.5592  0.6316 -0.2092
17260SOL    HW153787   8.752   0.692   3.892 -0.4132  1.2394 -0.6880
17260SOL    HW253788   8.868   0.789   3.901  0.8449 -0.2173 -0.9240
17261SOL     OW53789   0.996   4.880  11.032 -1.1436  0.1765 -0.0968
17261SOL    HW153790   0.912   4.847  11.002 -0.8857  0.3300 -1.0133
17261SOL    HW253791   1.008   4.962  10.985 -0.4518  0.1168 -0.0364
17262SOL     OW53792   3.039   0.606   9.445 -0.2588  0.6272  0.2206
17262SOL    HW153793   3.133   0.624   9.436 -0.5787  1.1734 -3.1473
17262SOL    HW253794   3.033   0.510   9.445  0.1929  0.4443 -3.6149
17263SOL     OW53795   4.395   0.832  10.342  0.1275 -0.0814  0.0154
17263SOL    HW153796   4.368   0.750  10.301 -0.1610 -0.1324  0.3057
17263SOL    HW253797   4.428   0.885  10.270  0.6871 -0.6009 -0.1210
17264SOL     OW53798   7.587   1.660   0.702 -0.1361 -0.2950  0.1451
17264SOL    HW153799   7.543   1.647   0.617  1.8797 -0.9664 -0.8531
17264SOL    HW253800   7.652   1.727   0.684 -0.3945  0.3265  1.4710
17265SOL     OW53801   3.042   6.071   5.526 -0.3305 -0.5761  0.0361
17265SOL    HW153802   2.968   6.121   5.559 -0.7863 -1.5047  0.4491
17265SOL    HW253803   3.119   6.122   5.553 -0.5918 -1.7742  3.5712
17266SOL     OW53804   6.794   2.808  10.442 -0.4295 -0.2593 -0.4362
17266SOL    HW153805   6.819   2.849  10.526 -0.1069 -1.3744  0.0294
17266SOL    HW253806   6.729   2.868  10.405 -1.0519 -0.0565  0.9169
17267SOL     OW53807   7.060   5.261   9.498 -0.0772 -0.0047 -0.2336
17267SOL    HW153808   7.031   5.250   9.407 -1.8850 -1.1301  0.4218
17267SOL    HW253809   7.051   5.174   9.537 -0.5325  0.7146  1.3458
17268SOL     OW53810   8.251   1.445   1.455 -0.0713 -0.0179 -0.2738
17268SOL    HW153811   8.171   1.433   1.404  0.9409  0.2387 -2.0312
17268SOL    HW253812   8.287   1.357   1.464  0.3572  0.0628 -1.0935
17269SOL     OW53813   2.257   2.317   5.050  0.0148 -0.0935  0.6454
17269SOL    HW153814   2.260   2.232   5.094 -0.9720 -0.9744 -0.8940
17269SOL    HW253815   2.301   2.377   5.110 -0.0628 -1.5045  2.1749
17270SOL     OW53816   9.058   5.980   3.783  0.2031  0.5801 -0.2169
17270SOL    HW153817   8.994   5.915   3.756  1.0704 -0.2251 -0.3819
17270SOL    HW253818   9.079   5.957   3.874  2.3132 -0.9068 -1.0229
17271SOL     OW53819  10.454   7.227  10.871 -0.0261 -0.1838 -0.7631
17271SOL    HW153820  10.381   7.274  10.912 -0.1456 -0.3974 -0.7303
17271SOL    HW253821  10.439   7.235  10.777  1.8150  2.8717 -0.9319
17272SOL     OW53822   4.887   4.390   3.191  0.6933 -0.0084 -0.1118
17272SOL    HW153823   4.848   4.438   3.264  0.4232 -0.3656 -0.0216
17272SOL    HW253824   4.864   4.299   3.207  1.2430 -0.1776 -0.2622
17273SOL     OW53825   0.941   3.567   3.042 -0.2506  0.5801  0.1177
17273SOL    HW153826   0.899   3.513   2.974  1.6857  0.2596 -0.9186
17273SOL    HW253827   0.930   3.657   3.011  1.9199  0.3668 -1.5301
17274SOL     OW53828   2.633   7.189  10.845 -0.4663  0.1783  0.6678
17274SOL    HW153829   2.633   7.170  10.751  1.0075 -0.0417  0.6892
17274SOL    HW253830   2.660   7.280  10.851 -2.7571  0.8939  0.8020
17275SOL     OW53831   3.654   7.481   9.070  0.3862  0.1518 -0.3600
17275SOL    HW153832   3.635   7.573   9.083  0.2967  0.2558 -1.1481
17275SOL    HW253833   3.637   7.440   9.155 -1.6223  0.5217 -0.5288
17276SOL     OW53834   0.948   5.510   4.616  0.1740  0.3725  0.2147
17276SOL    HW153835   1.029   5.549   4.583 -1.2983  2.7020 -0.9745
17276SOL    HW253836   0.940   5.428   4.568  0.9878  0.9275 -0.9343
17277SOL     OW53837   5.896   8.057   9.008 -0.2645  0.1365 -0.2356
17277SOL    HW153838   5.831   8.127   9.013  0.2535  0.7123 -1.1867
17277SOL    HW253839   5.881   8.015   8.923 -0.9089 -1.2705  0.5441
17278SOL     OW53840  10.660   1.415   6.093 -0.0388  0.5481  0.0720
17278SOL    HW153841  10.584   1.358   6.082 -0.0882  0.4251  0.9609
17278SOL    HW253842  10.670   1.424   6.188  0.7086  1.0309 -0.0403
17279SOL     OW53843   0.180   8.839   4.018 -0.2014 -0.4415  0.1130
17279SOL    HW153844   0.183   8.844   4.113 -0.5352 -1.0625  0.1624
17279SOL    HW253845   0.271   8.848   3.990 -0.0393 -0.7837  0.5199
17280SOL     OW53846   5.390   8.054   6.733 -0.0675  0.0457  0.4196
17280SOL    HW153847   5.386   8.003   6.652 -2.8471  1.4450 -0.4724
17280SOL    HW253848   5.438   7.999   6.795  0.0148 -2.1193 -1.4593
17281SOL     OW53849   4.023   9.444  10.202  0.4751  0.2339 -0.0275
17281SOL    HW153850   3.949   9.503  10.220  0.1872 -0.5096  1.2978
17281SOL    HW253851   4.097   9.483  10.249 -0.0299 -1.1351  2.0122
17282SOL     OW53852   7.991   8.305   3.386  0.2259 -0.2351 -0.1695
17282SOL    HW153853   8.011   8.320   3.478  1.0842  1.3950 -0.5860
17282SOL    HW253854   8.073   8.273   3.349  0.1699  0.0693 -0.5615
17283SOL     OW53855   2.815   6.138   5.220 -0.0875 -0.6129  0.2293
17283SOL    HW153856   2.767   6.177   5.147  0.7972  0.4535  0.1965
17283SOL    HW253857   2.764   6.162   5.298 -0.0660 -0.2113  0.1204
17284SOL     OW53858   0.590   0.913   9.134  0.8021 -0.7309  0.4065
17284SOL    HW153859   0.684   0.898   9.145  0.8034 -1.3323 -0.3245
17284SOL    HW253860   0.584   1.004   9.107  1.3472 -1.1912 -1.3903
17285SOL     OW53861   7.204   4.681   6.808 -0.0743 -0.3572  0.2978
17285SOL    HW153862   7.138   4.625   6.850 -0.2945 -1.6852 -1.6856
17285SOL    HW253863   7.250   4.723   6.881 -2.9225  0.4426  1.7582
17286SOL     OW53864   6.838   4.926  10.996  0.0646  0.0775  0.0197
17286SOL    HW153865   6.791   4.844  11.010  0.3817  0.1670  1.8732
17286SOL    HW253866   6.914   4.902  10.943 -1.5180 -0.2202 -2.2685
17287SOL     OW53867   8.542   3.922   4.981 -0.4840 -0.0045 -0.2385
17287SOL    HW153868   8.490   3.852   5.020  0.4498 -0.3932  0.3447
17287SOL    HW253869   8.547   3.900   4.888 -0.9175 -0.2443 -0.2048
17288SOL     OW53870   4.443   7.783  10.985 -0.6058 -0.0792 -0.3395
17288SOL    HW153871   4.369   7.746  11.033  0.1182  0.4353  1.2403
17288SOL    HW253872   4.426   7.761  10.894  0.2681 -5.3150  0.4505
17289SOL     OW53873   3.446   4.139   8.246  0.0171 -0.1553  0.1416
17289SOL    HW153874   3.488   4.206   8.299  0.9057 -0.7152  0.1577
17289SOL    HW253875   3.379   4.186   8.196  0.7686  0.7742 -0.0002
17290SOL     OW53876   3.805   2.484   6.699  0.6663 -0.2342  0.4786
17290SOL    HW153877   3.845   2.439   6.624 -1.7937 -0.0538 -1.0765
17290SOL    HW253878   3.864   2.556   6.718  0.9331  0.2964 -1.9875
17291SOL     OW53879   1.609   5.224   7.036  0.4386  0.1770 -0.2391
17291SOL    HW153880   1.651   5.208   6.951 -0.2854 -0.6661 -0.4653
17291SOL    HW253881   1.658   5.170   7.098 -0.7307 -1.4522 -0.6425
17292SOL     OW53882  11.108   4.188   6.365  0.0797  0.4727  0.3549
17292SOL    HW153883  11.169   4.115   6.376 -0.0042  0.3468 -0.0060
17292SOL    HW253884  11.079   4.208   6.455  1.3202  1.1326  0.6321
17293SOL     OW53885  10.177   6.008   8.341 -0.4672 -0.8752  0.0179
17293SOL    HW153886  10.260   5.983   8.381 -0.1491  0.0653 -0.0290
17293SOL    HW253887  10.128   5.926   8.333  0.4803 -1.4450 -0.0178
17294SOL     OW53888   8.604  10.967   8.358  0.1025 -0.6071  0.7119
17294SOL    HW153889   8.514  10.993   8.379  0.1517  1.0833 -0.9162
17294SOL    HW253890   8.646  10.959   8.443 -1.1002  0.4998  1.4705
17295SOL     OW53891   4.264   2.812   8.021 -0.2303 -0.1813 -0.1855
17295SOL    HW153892   4.218   2.834   8.103  0.8304 -0.8527  0.6188
17295SOL    HW253893   4.255   2.717   8.013 -0.3766 -0.1110 -0.8867
17296SOL     OW53894   4.166   4.693   8.373 -0.4768 -0.0782 -0.4923
17296SOL    HW153895   4.195   4.629   8.307 -0.1446 -0.7897  0.3301
17296SOL    HW253896   4.225   4.678   8.447 -0.7900  0.7810 -0.0701
17297SOL     OW53897   2.224   6.697  10.219 -0.4017  0.2300 -0.2370
17297SOL    HW153898   2.280   6.764  10.181  0.1765 -0.2302 -0.1987
17297SOL    HW253899   2.197   6.734  10.304  2.7136 -0.9701  1.4167
17298SOL     OW53900   0.202  10.675  10.846 -0.4149  0.6808 -0.4821
17298SOL    HW153901   0.188  10.605  10.783  1.5625 -0.3283  0.1091
17298SOL    HW253902   0.249  10.743  10.798  0.2367  0.3317 -0.3407
17299SOL     OW53903   4.356   7.853   4.376  0.4440  0.3352 -0.2100
17299SOL    HW153904   4.385   7.921   4.437  2.0884  0.7514 -1.3653
17299SOL    HW253905   4.299   7.796   4.427 -0.6588  2.3539  0.8943
17300SOL     OW53906   5.006   1.931  10.860 -0.7223  0.1764  0.3514
17300SOL    HW153907   5.039   1.920  10.949 -0.3511 -0.6717  0.1299
17300SOL    HW253908   5.020   1.845  10.819  0.7665  1.0375 -1.0631
17301SOL     OW53909   0.607   3.155   6.139  0.3613 -0.0683  0.0289
17301SOL    HW153910   0.519   3.118   6.153  0.2930  0.6613  1.8050
17301SOL    HW253911   0.618   3.217   6.211  1.6903  1.0980 -1.1266
17302SOL     OW53912   8.842   0.088  10.667  0.4295 -0.0493 -0.2329
17302SOL    HW153913   8.884   0.014  10.712 -2.9476 -1.1127  1.5837
17302SOL    HW253914   8.774   0.047  10.613 -1.0125  1.6203  0.2049
17303SOL     OW53915   5.239   7.822   3.858 -0.6096  0.1490  0.0173
17303SOL    HW153916   5.293   7.901   3.862  2.7193 -1.9691  0.2754
17303SOL    HW253917   5.262   7.772   3.936 -1.5900 -1.6959 -0.8036
17304SOL     OW53918   0.117   1.299   5.844 -0.2394 -0.7624 -0.0232
17304SOL    HW153919   0.198   1.319   5.798 -0.9122  0.1603 -0.8411
17304SOL    HW253920   0.084   1.219   5.803  0.5660 -1.4949  0.7377
17305SOL     OW53921   7.857   9.799   4.230 -0.4700  0.3877  0.0854
17305SOL    HW153922   7.919   9.806   4.303 -1.0116  1.6389  0.4544
17305SOL    HW253923   7.912   9.802   4.152  0.0622 -0.2427  0.4222
17306SOL     OW53924   5.145   6.619   8.909  0.7771 -0.8405 -0.1382
17306SOL    HW153925   5.208   6.599   8.841  1.4139 -2.4266  0.8676
17306SOL    HW253926   5.066   6.571   8.885  0.8826 -1.1083  0.0448
17307SOL     OW53927   2.905   2.177   2.797  0.9139 -0.2015 -0.4001
17307SOL    HW153928   2.900   2.083   2.781 -0.6319 -0.3866  0.9106
17307SOL    HW253929   2.816   2.209   2.779  1.0606  0.7719  0.4815
17308SOL     OW53930   8.500   9.649   6.545 -0.4317  0.1836  0.7469
17308SOL    HW153931   8.503   9.632   6.451 -1.4537  1.8670  0.3744
17308SOL    HW253932   8.588   9.629   6.576 -0.0644 -0.3204 -0.5804
17309SOL     OW53933   2.285   4.865   0.749 -0.0148  0.5519 -0.3561
17309SOL    HW153934   2.326   4.894   0.831  1.9012  0.4469 -1.2157
17309SOL    HW253935   2.208   4.816   0.777  1.6864 -1.2607  1.5034
17310SOL     OW53936   1.022   3.213   3.994  0.0364  0.0246  0.8304
17310SOL    HW153937   1.076   3.291   3.983 -0.9691  0.7676  0.9951
17310SOL    HW253938   0.945   3.244   4.043 -0.0771 -1.2082  1.4562
17311SOL     OW53939   6.723  10.781   8.294 -0.4823 -0.2062  0.2512
17311SOL    HW153940   6.644  10.823   8.326 -0.0225  0.1482  0.9241
17311SOL    HW253941   6.763  10.845   8.235  0.1638  0.2719  1.1954
17312SOL     OW53942   3.301   5.412   1.395  0.5262  0.2057  0.0050
17312SOL    HW153943   3.234   5.367   1.344  1.9814 -0.0529 -1.7857
17312SOL    HW253944   3.318   5.355   1.470 -0.7853 -0.0173  0.1475
17313SOL     OW53945   5.190   4.509   3.434  0.3159  0.1096 -0.6141
17313SOL    HW153946   5.269   4.501   3.488 -0.8880  0.4169  1.2780
17313SOL    HW253947   5.165   4.419   3.414  1.6258  0.0231 -2.0229
17314SOL     OW53948   5.347  10.789   2.557 -0.3114 -0.5087  1.0771
17314SOL    HW153949   5.281  10.791   2.626 -0.1435  0.9164  1.2316
17314SOL    HW253950   5.365  10.881   2.538 -1.0920 -0.8086 -1.5838
17315SOL     OW53951  10.764   9.879  10.362 -0.3941 -0.3671 -0.0563
17315SOL    HW153952  10.787   9.819  10.292 -0.3368 -0.0155 -0.3441
17315SOL    HW253953  10.671   9.896  10.350 -1.2467 -2.9580  2.0099
17316SOL     OW53954   5.331   2.896   8.357 -0.1701  0.2527 -0.0862
17316SOL    HW153955   5.278   2.942   8.292  0.5125 -1.1721 -1.7005
17316SOL    HW253956   5.421   2.922   8.338 -0.0503  0.8035  1.1261
17317SOL     OW53957   5.397   7.659   1.231  0.7046  0.4392 -0.2357
17317SOL    HW153958   5.432   7.590   1.176  0.0944  0.6734 -0.9288
17317SOL    HW253959   5.406   7.626   1.321 -0.4343 -0.9453 -0.5945
17318SOL     OW53960  10.628   6.417   3.909 -0.0425 -0.0610 -0.0417
17318SOL    HW153961  10.567   6.447   3.977 -0.6329  0.6294 -0.8540
17318SOL    HW253962  10.713   6.451   3.936 -0.1127 -0.5356  0.8013
17319SOL     OW53963   2.254   4.226  10.193  0.4089 -0.6804 -0.0619
17319SOL    HW153964   2.224   4.216  10.102 -0.2043 -1.0377  0.1738
17319SOL    HW253965   2.324   4.162  10.203 -0.3716 -1.5362  0.0777
17320SOL     OW53966   8.603   6.865   7.151 -0.1312 -0.2250 -0.1288
17320SOL    HW153967   8.605   6.904   7.238 -0.7033 -0.9867  0.2393
17320SOL    HW253968   8.670   6.796   7.154 -1.3004 -1.3764  0.2759
17321SOL     OW53969   5.263   5.727   5.664 -0.0576  0.2839  0.1356
17321SOL    HW153970   5.354   5.722   5.692  0.3428  0.0560 -1.1737
17321SOL    HW253971   5.214   5.736   5.746  1.0165 -1.0231  0.9658
17322SOL     OW53972   2.576   5.282   1.622  0.0627 -0.1496  1.1039
17322SOL    HW153973   2.530   5.204   1.591 -0.2581 -0.2666  1.8338
17322SOL    HW253974   2.569   5.277   1.718 -1.3407  1.5620  1.1598
17323SOL     OW53975   0.450   1.760   7.095  0.0510 -0.2214 -0.3635
17323SOL    HW153976   0.361   1.747   7.127  0.5873  2.1057  2.4890
17323SOL    HW253977   0.451   1.849   7.061  0.7110 -1.0986 -2.8408
17324SOL     OW53978   3.732   2.732   1.642 -0.1220  0.2606  0.2112
17324SOL    HW153979   3.739   2.782   1.723 -0.5538 -0.4387  0.6881
17324SOL    HW253980   3.791   2.777   1.581  0.0746  0.8923  0.8550
17325SOL     OW53981   2.853   3.885   1.538  0.4541 -0.2221  0.0656
17325SOL    HW153982   2.878   3.874   1.630  0.8668  0.4776  0.0473
17325SOL    HW253983   2.770   3.932   1.541  0.0565 -0.9155  0.0909
17326SOL     OW53984   3.541   6.478   9.436 -0.0383 -0.5423  0.4159
17326SOL    HW153985   3.494   6.534   9.375  2.0872 -0.3269 -1.1534
17326SOL    HW253986   3.599   6.537   9.484 -0.0386 -1.0051  1.0033
17327SOL     OW53987   7.364   0.421   2.416  0.3951  0.4749 -0.3957
17327SOL    HW153988   7.334   0.364   2.487 -0.3759  0.9752 -0.3043
17327SOL    HW253989   7.386   0.361   2.345  0.3148  0.0167 -0.0406
17328SOL     OW53990   1.988  10.192   1.917 -0.0887 -0.1631 -0.0895
17328SOL    HW153991   1.910  10.236   1.885  0.5023 -0.1787 -1.6381
17328SOL    HW253992   1.992  10.110   1.869  1.2470  0.1524 -0.5811
17329SOL     OW53993  11.048   9.250   5.414  0.2221  0.4150  0.4284
17329SOL    HW153994  11.134   9.290   5.403 -0.5965  1.9389 -0.8127
17329SOL    HW253995  11.064   9.156   5.407  1.6527  0.7198 -0.8045
17330SOL     OW53996   7.100   0.267   7.491 -0.1479  0.6960  0.0912
17330SOL    HW153997   7.033   0.333   7.507 -2.9345 -1.7184 -0.7204
17330SOL    HW253998   7.116   0.270   7.397  0.0702  0.5348  0.1217
17331SOL     OW53999   8.515   5.490   2.768 -0.7409 -0.3024  0.3077
17331SOL    HW154000   8.609   5.482   2.788 -0.0606  0.9088 -2.0763
17331SOL    HW254001   8.496   5.415   2.712 -0.1916  1.3592 -2.2843
17332SOL     OW54002   3.644   7.181  10.850 -0.1140 -0.4177  0.3402
17332SOL    HW154003   3.617   7.100  10.894 -0.4395 -0.5309 -0.0619
17332SOL    HW254004   3.597   7.180  10.767 -1.3721  0.9408  0.9774
17333SOL     OW54005   9.024   0.097   3.229  0.5532  0.1480  0.0198
17333SOL    HW154006   8.932   0.073   3.222  0.6168  0.0185 -0.3862
17333SOL    HW254007   9.058   0.090   3.140  0.8164  0.7699  0.0660
17334SOL     OW54008   2.295   4.212   1.848  0.0768  0.4733  0.6861
17334SOL    HW154009   2.276   4.119   1.836 -2.5956  1.0431 -0.2444
17334SOL    HW254010   2.311   4.245   1.759  0.2562  1.0515  0.9244
17335SOL     OW54011  10.980   1.934   3.494  0.2314  0.1311  0.3436
17335SOL    HW154012  11.020   1.881   3.425 -1.6975 -1.0344  0.0323
17335SOL    HW254013  10.945   2.010   3.448  0.7239  0.3857  0.3799
17336SOL     OW54014   5.330   4.630   7.651  0.2580 -0.0888  0.2810
17336SOL    HW154015   5.314   4.551   7.704 -1.4345 -0.2118 -0.3567
17336SOL    HW254016   5.315   4.703   7.711  0.9983 -0.2274  0.6502
17337SOL     OW54017   1.253   8.734   2.918 -0.7707  0.1874 -0.0646
17337SOL    HW154018   1.342   8.729   2.953 -0.8450 -0.0274  0.0914
17337SOL    HW254019   1.224   8.823   2.939  0.0439  0.8617 -1.6463
17338SOL     OW54020   2.871   8.712   2.405  0.1171  0.4449 -0.0221
17338SOL    HW154021   2.940   8.778   2.400 -0.6838  1.2492 -0.8557
17338SOL    HW254022   2.812   8.733   2.333 -0.9572 -0.2762  0.6106
17339SOL     OW54023   3.758   6.988   0.716 -0.0135  0.0065  0.0848
17339SOL    HW154024   3.766   7.049   0.789  0.7360  0.0091  0.0070
17339SOL    HW254025   3.697   6.921   0.748 -2.0856  1.5718 -0.3814
17340SOL     OW54026   4.307  11.143   2.207  0.6038  0.1964 -0.0048
17340SOL    HW154027   4.300  11.059   2.252  1.1841 -1.2844 -2.4743
17340SOL    HW254028   4.383  11.133   2.150  1.4789  2.9176  0.5680
17341SOL     OW54029   5.188   5.051   4.887 -0.1588  0.5891 -0.3847
17341SOL    HW154030   5.208   5.122   4.827  0.5940  0.3941 -0.3794
17341SOL    HW254031   5.272   5.007   4.901 -0.7711 -0.9137 -1.1604
17342SOL     OW54032   9.173   8.710   0.453  0.1964  0.3563  0.3769
17342SOL    HW154033   9.120   8.706   0.373  0.3148  2.6809  0.1174
17342SOL    HW254034   9.158   8.626   0.496 -2.7596  0.4515 -0.2797
17343SOL     OW54035   6.681   7.048   1.996  0.7227 -0.3232  0.1072
17343SOL    HW154036   6.729   6.973   1.961 -1.5564 -1.3425 -1.0355
17343SOL    HW254037   6.689   7.116   1.929  0.0132 -0.7388 -0.4091
17344SOL     OW54038   0.749   6.596   7.511  0.5806 -0.0047 -0.7871
17344SOL    HW154039   0.756   6.512   7.557 -0.2282  0.3580  0.0495
17344SOL    HW254040   0.757   6.662   7.581 -0.6422  0.5628 -1.1521
17345SOL     OW54041   2.944   0.190   6.582  0.0653  0.5554 -0.5404
17345SOL    HW154042   2.995   0.199   6.501 -0.0711  1.8473 -0.5008
17345SOL    HW254043   2.988   0.249   6.644  0.8799 -1.2930  0.7196
17346SOL     OW54044   4.317   1.544   9.673  0.6922  0.2539 -0.5649
17346SOL    HW154045   4.247   1.480   9.677  0.0687  0.9672  1.1043
17346SOL    HW254046   4.309   1.594   9.755  0.2070  3.4608 -2.3936
17347SOL     OW54047   6.429   0.347   4.730 -0.4926 -0.5307 -0.0882
17347SOL    HW154048   6.424   0.377   4.639  0.2871  1.9820  0.6291
17347SOL    HW254049   6.342   0.364   4.766 -0.9132 -1.8686 -0.4312
17348SOL     OW54050   1.736  10.417   2.274  1.0374 -0.2233 -0.2528
17348SOL    HW154051   1.781  10.456   2.349  0.9439 -1.4022  0.4537
17348SOL    HW254052   1.797  10.427   2.201  0.7594  1.7474 -0.2570
17349SOL     OW54053   5.135   6.268   5.752 -0.2527  0.4973 -0.1203
17349SOL    HW154054   5.192   6.319   5.695  0.9144 -0.9938 -0.3579
17349SOL    HW254055   5.103   6.197   5.697  1.6338 -1.5109  1.2332
17350SOL     OW54056   9.967   3.926  10.410  0.5164 -1.0031 -0.0791
17350SOL    HW154057  10.006   4.005  10.448 -0.6243 -0.4836  0.0390
17350SOL    HW254058  10.020   3.909  10.332  1.6194 -0.9166  0.6239
17351SOL     OW54059   8.969   3.347   0.884 -0.4767 -0.5108  0.1326
17351SOL    HW154060   9.058   3.316   0.898 -0.1367 -0.8136 -2.3437
17351SOL    HW254061   8.924   3.275   0.840 -0.4214  1.3043 -3.2735
17352SOL     OW54062   2.559   0.822  10.261 -0.8630  0.0285  0.4820
17352SOL    HW154063   2.571   0.915  10.276 -0.4478  0.4679 -2.0550
17352SOL    HW254064   2.643   0.782  10.286 -0.1069  0.7308 -0.8042
17353SOL     OW54065   2.551  10.187  11.261 -0.6494 -0.1112  0.0213
17353SOL    HW154066   2.562  10.120  11.193 -1.3488 -0.2092 -0.0072
17353SOL    HW254067   2.528  10.138  11.340  1.1330 -0.0805  0.6030
17354SOL     OW54068   0.369   0.024   9.106 -0.3035 -0.1382 -0.1053
17354SOL    HW154069   0.446   0.078   9.089 -1.1414  1.3883  0.7083
17354SOL    HW254070   0.327   0.066   9.181 -0.3471 -2.6495  1.3864
17355SOL     OW54071   0.722   5.494   9.780  0.1967  0.8498 -0.5571
17355SOL    HW154072   0.784   5.566   9.796 -0.5945  1.4376 -0.0255
17355SOL    HW254073   0.751   5.424   9.837 -1.0032  1.9760  1.5780
17356SOL     OW54074   0.428   4.805   5.764 -0.3904 -0.0813 -0.2230
17356SOL    HW154075   0.358   4.819   5.827  0.9758  0.0626  1.3145
17356SOL    HW254076   0.495   4.758   5.812  0.4744 -0.4589 -1.7315
17357SOL     OW54077   6.047   5.354   3.997  0.2972 -0.1491  0.8886
17357SOL    HW154078   6.085   5.376   4.082 -1.8184 -0.1650  1.9210
17357SOL    HW254079   6.004   5.435   3.969  1.1706 -0.0763 -0.3096
17358SOL     OW54080   1.904  10.758   6.981 -0.8642 -0.0396  0.2980
17358SOL    HW154081   1.859  10.692   6.928 -0.4668 -2.0141  2.2775
17358SOL    HW254082   1.834  10.804   7.027 -1.0996  0.4847 -0.5546
17359SOL     OW54083   8.061   4.713   3.268  0.1465  0.3776 -0.4184
17359SOL    HW154084   8.117   4.774   3.317  1.1348  0.0141 -1.0713
17359SOL    HW254085   8.064   4.745   3.178 -0.3187  0.0749 -0.5436
17360SOL     OW54086   1.624   4.751   9.861  0.4459 -0.6763  0.6437
17360SOL    HW154087   1.532   4.769   9.844  0.1133 -2.3712  0.4140
17360SOL    HW254088   1.639   4.783   9.950 -0.0725  0.5426  0.3113
17361SOL     OW54089  10.605   4.093   8.692  0.6068  0.2952 -0.3377
17361SOL    HW154090  10.516   4.120   8.669  1.2425  1.0387 -2.0832
17361SOL    HW254091  10.657   4.112   8.614  2.4823  0.7082  0.9371
17362SOL     OW54092   3.171   0.331   7.872  0.4315 -0.2732  0.0988
17362SOL    HW154093   3.138   0.294   7.954  0.1304 -2.3816 -0.8971
17362SOL    HW254094   3.127   0.281   7.804 -0.2503  2.2213 -1.4281
17363SOL     OW54095   7.823   8.728  11.079 -0.7269 -0.0407 -0.6380
17363SOL    HW154096   7.799   8.660  11.143  0.8947  0.5625  0.6904
17363SOL    HW254097   7.778   8.702  10.999 -0.4038 -2.5379 -0.1032
17364SOL     OW54098   2.583   9.715   7.098  0.5416 -0.1450 -0.1119
17364SOL    HW154099   2.526   9.639   7.087  0.5828 -0.0496 -1.0133
17364SOL    HW254100   2.530   9.778   7.147  0.2215 -0.4332 -0.0838
17365SOL     OW54101   2.034   3.096   0.024 -0.0403  0.1655  0.5474
17365SOL    HW154102   2.129   3.102   0.030 -0.0495  3.2237 -0.8512
17365SOL    HW254103   2.002   3.138   0.103 -0.3691 -2.6059  2.0340
17366SOL     OW54104   5.835   8.928   7.060 -0.1073 -0.5176  0.1349
17366SOL    HW154105   5.887   8.964   6.989  0.3004 -0.2311  0.5686
17366SOL    HW254106   5.874   8.965   7.139 -0.7101 -0.6333  0.4923
17367SOL     OW54107  10.447   9.114   4.782  0.4760  0.0857 -0.6024
17367SOL    HW154108  10.443   9.210   4.782 -0.7842  0.0584 -0.2496
17367SOL    HW254109  10.390   9.088   4.710 -2.7655 -0.3994  1.8677
17368SOL     OW54110   9.287   4.914   6.019 -0.5430 -0.2780 -0.0203
17368SOL    HW154111   9.254   4.845   5.961  1.5087 -0.8021 -0.6207
17368SOL    HW254112   9.376   4.887   6.041  0.0149  1.7521  0.4131
17369SOL     OW54113   4.978   3.459   7.861 -0.1070 -0.1932 -0.4635
17369SOL    HW154114   5.065   3.422   7.844 -0.2176  0.0795 -1.7079
17369SOL    HW254115   4.987   3.552   7.842 -0.4285  0.0191  0.3789
17370SOL     OW54116   6.847   0.013   6.148 -0.6053  0.2460 -0.1841
17370SOL    HW154117   6.826  -0.080   6.144  0.1285  0.0370  0.6094
17370SOL    HW254118   6.797   0.046   6.222 -0.5717  0.4017 -0.2299
17371SOL     OW54119   2.319  11.105   1.106  0.4581  0.0519 -0.4595
17371SOL    HW154120   2.252  11.150   1.054 -0.6003 -2.7451 -1.7338
17371SOL    HW254121   2.380  11.071   1.042  0.3900 -1.5401  0.2877
17372SOL     OW54122   2.123   2.468   8.793  0.2257  1.0995  0.0044
17372SOL    HW154123   2.159   2.555   8.809  0.7284  0.7083  1.0665
17372SOL    HW254124   2.028   2.482   8.787  0.1034  1.4807  2.1510
17373SOL     OW54125   0.297   8.835   7.175  0.0297  0.0062  0.2858
17373SOL    HW154126   0.365   8.772   7.201  0.9026  0.2093 -1.3634
17373SOL    HW254127   0.215   8.788   7.188  0.6124 -1.1009  0.1066
17374SOL     OW54128   8.459   7.477   0.878 -0.5248 -0.4661  0.0932
17374SOL    HW154129   8.462   7.518   0.964  1.1151 -0.3387  0.0090
17374SOL    HW254130   8.415   7.540   0.822 -0.7873 -0.1676  0.6261
17375SOL     OW54131   2.401   6.824   6.906 -0.8315  0.3696  0.0887
17375SOL    HW154132   2.396   6.919   6.898  0.2635  0.4910  0.6897
17375SOL    HW254133   2.418   6.808   6.999  3.8795 -0.1103 -0.6201
17376SOL     OW54134   7.312   5.258   8.243 -0.3442  0.7176 -0.5551
17376SOL    HW154135   7.365   5.182   8.268  0.8556  1.7469  0.1642
17376SOL    HW254136   7.294   5.245   8.150 -0.9307 -0.8840 -0.2468
17377SOL     OW54137   4.915   5.148   6.452  0.4412  0.2323  0.3272
17377SOL    HW154138   4.961   5.110   6.527 -0.5447 -0.7236  0.4758
17377SOL    HW254139   4.951   5.236   6.444  1.9994 -0.3270  0.6794
17378SOL     OW54140   0.827   8.322   6.563 -0.8654  0.5106 -0.2821
17378SOL    HW154141   0.737   8.304   6.593 -1.0382  0.5551 -0.7685
17378SOL    HW254142   0.834   8.277   6.479 -0.4248  0.4970 -0.2409
17379SOL     OW54143   9.398   0.411   8.407 -0.0152 -0.3083 -0.6357
17379SOL    HW154144   9.484   0.411   8.364 -0.1051 -0.2060 -0.8152
17379SOL    HW254145   9.377   0.504   8.418 -0.3842 -0.3313 -1.1448
17380SOL     OW54146   7.321   2.367  10.281 -0.0098 -0.3897  0.4102
17380SOL    HW154147   7.352   2.457  10.290 -0.3628 -0.3676  1.4603
17380SOL    HW254148   7.269   2.351  10.359 -0.8026 -1.1750 -0.2597
17381SOL     OW54149   4.043   4.465   2.840 -0.1506  0.2739 -0.2423
17381SOL    HW154150   4.050   4.466   2.744 -0.1023 -0.2508 -0.2495
17381SOL    HW254151   4.128   4.497   2.870 -0.6532  1.8140 -0.3717
17382SOL     OW54152   9.673   1.433   2.752 -0.1652 -0.3685 -0.0781
17382SOL    HW154153   9.703   1.477   2.673 -1.5524  0.1282 -0.3558
17382SOL    HW254154   9.684   1.340   2.734  0.8056 -0.2267 -0.3036
17383SOL     OW54155   1.103   0.702   4.883  0.0382  0.1512  0.5463
17383SOL    HW154156   1.077   0.673   4.971 -1.1982  0.3353  0.2561
17383SOL    HW254157   1.188   0.661   4.869  1.4884  2.1057  2.8159
17384SOL     OW54158   1.848   9.391   0.382 -0.3555  0.4698  0.3017
17384SOL    HW154159   1.757   9.377   0.407 -0.7224  3.8009  1.3158
17384SOL    HW254160   1.896   9.388   0.464  0.3386 -0.3282 -0.1163
17385SOL     OW54161   6.779  10.697   8.555  0.4152  0.0620 -0.5780
17385SOL    HW154162   6.789  10.602   8.543  2.1362  0.1177  0.1166
17385SOL    HW254163   6.757  10.730   8.467 -2.7160 -1.2030 -0.3826
17386SOL     OW54164   2.568   8.596   0.064  0.5155  0.1229  0.1067
17386SOL    HW154165   2.644   8.647   0.037 -0.0949  1.6178  1.0962
17386SOL    HW254166   2.606   8.514   0.097  1.4854 -0.2289 -1.7414
17387SOL     OW54167   4.865   4.620   6.007 -0.1928  0.1992  1.3823
17387SOL    HW154168   4.873   4.544   5.949 -0.4302  0.7573  0.5818
17387SOL    HW254169   4.822   4.586   6.085  0.2913 -0.6154  1.3045
17388SOL     OW54170   5.512   1.990   0.657  0.1772 -0.0424 -0.5758
17388SOL    HW154171   5.450   1.919   0.677  1.5009 -1.1871 -0.4178
17388SOL    HW254172   5.471   2.068   0.695 -1.6072 -0.5782 -1.2814
17389SOL     OW54173   9.054   0.866   2.825 -0.1939 -0.4239 -0.4631
17389SOL    HW154174   8.995   0.805   2.780 -1.8772  1.3372 -0.7894
17389SOL    HW254175   9.038   0.851   2.918  0.6997 -1.6425 -0.4813
17390SOL     OW54176   9.830   4.249   4.337 -0.1559  0.1271  0.0399
17390SOL    HW154177   9.855   4.269   4.427 -2.2665  1.4099  0.4329
17390SOL    HW254178   9.875   4.316   4.284  1.0546 -0.6047  0.1156
17391SOL     OW54179   2.401   3.551   7.325 -0.1065  0.1147 -0.0343
17391SOL    HW154180   2.444   3.632   7.297 -0.1299  0.7647  1.6790
17391SOL    HW254181   2.471   3.501   7.369 -0.7170  0.5647  1.5362
17392SOL     OW54182  10.970   6.895   5.825  0.0938 -1.0135 -0.3864
17392SOL    HW154183  10.884   6.929   5.801 -0.1355 -1.6313 -0.4511
17392SOL    HW254184  11.028   6.924   5.754 -0.0391 -0.5388 -0.3097
17393SOL     OW54185   8.374  10.422  10.249 -0.4689 -0.1328 -0.2102
17393SOL    HW154186   8.361  10.456  10.337 -1.3254  0.1816 -0.4363
17393SOL    HW254187   8.412  10.496  10.200 -0.2226 -0.2273 -0.1596
17394SOL     OW54188   9.769   2.140   4.770 -0.9208  0.9982 -0.1389
17394SOL    HW154189   9.712   2.093   4.710 -0.6053  0.1829  0.1908
17394SOL    HW254190   9.812   2.072   4.822  0.0300  1.6142 -0.0897
17395SOL     OW54191  10.331   7.646   0.049  0.0126 -0.1524  0.1936
17395SOL    HW154192  10.385   7.718   0.083  1.2587 -0.5375 -0.8895
17395SOL    HW254193  10.315   7.591   0.126 -0.4216  0.9412  0.9097
17396SOL     OW54194   6.393   9.595   0.112  0.0075  0.6356  0.0797
17396SOL    HW154195   6.425   9.685   0.101  0.2291  0.4682 -0.6907
17396SOL    HW254196   6.464   9.540   0.077 -0.4527  0.1945 -0.1650
17397SOL     OW54197   6.048   7.166   5.950  0.1176 -0.2210 -0.4486
17397SOL    HW154198   6.058   7.074   5.974  0.3257 -0.1933 -0.4298
17397SOL    HW254199   6.079   7.215   6.026 -5.3754 -0.0186  2.1523
17398SOL     OW54200   5.179   3.917   7.256  0.2568  0.4593  0.1824
17398SOL    HW154201   5.206   3.948   7.169  0.3841 -0.5017 -0.1371
17398SOL    HW254202   5.127   3.839   7.238  1.5345 -0.6306  1.0197
17399SOL     OW54203   8.212   9.007   1.612  0.1525 -0.3939 -0.3734
17399SOL    HW154204   8.246   9.016   1.523  2.4629  0.2003  0.5056
17399SOL    HW254205   8.263   9.069   1.664 -1.5195 -0.3337  1.2932
17400SOL     OW54206   1.943   8.990   0.641 -0.9413  0.2777 -0.0571
17400SOL    HW154207   1.893   9.072   0.641 -2.7401 -0.7550 -1.2358
17400SOL    HW254208   1.878   8.922   0.658  0.2345 -1.0592 -0.7112
17401SOL     OW54209   2.107   9.017   1.235 -0.3989 -0.0365 -0.1482
17401SOL    HW154210   2.151   8.989   1.315 -0.6152  0.8201  0.2882
17401SOL    HW254211   2.175   9.058   1.182 -0.4484  0.2987  0.0439
17402SOL     OW54212   3.208   8.674  11.276  0.7363 -0.1102  0.1144
17402SOL    HW154213   3.296   8.707  11.292  0.4882  0.2787  0.7127
17402SOL    HW254214   3.212   8.636  11.188  0.6510  2.8700 -1.2806
17403SOL     OW54215   1.633   1.667   4.163  0.3035 -0.2159 -0.6457
17403SOL    HW154216   1.690   1.600   4.126  0.1652 -0.5414 -0.2797
17403SOL    HW254217   1.552   1.661   4.111  0.9190  0.8637 -1.7617
17404SOL     OW54218   1.541   4.248   9.652 -0.1532  0.3458  0.3619
17404SOL    HW154219   1.482   4.176   9.631 -1.6336  1.0822  1.7593
17404SOL    HW254220   1.624   4.206   9.672 -1.0568 -1.0311  1.4536
17405SOL     OW54221   3.471   5.137  10.786 -0.1625  0.3005  0.1535
17405SOL    HW154222   3.414   5.186  10.727 -2.5727 -1.2493  0.9859
17405SOL    HW254223   3.410   5.095  10.847  1.5607 -3.8473 -0.5989
17406SOL     OW54224   5.252  10.816   7.362  0.9816 -0.4587  0.1752
17406SOL    HW154225   5.173  10.791   7.408 -0.4714  0.5896 -1.6187
17406SOL    HW254226   5.222  10.853   7.279  3.2731  1.0550 -0.0963
17407SOL     OW54227   6.203  10.694   0.301  0.1129  0.4235  0.5913
17407SOL    HW154228   6.134  10.758   0.314  0.2341  0.9937 -1.2609
17407SOL    HW254229   6.262  10.706   0.376 -1.0546  0.8634  1.4710
17408SOL     OW54230   0.779  10.854   3.173 -0.3906 -0.2821 -0.0243
17408SOL    HW154231   0.738  10.932   3.209 -1.0819  0.1282 -1.6187
17408SOL    HW254232   0.725  10.831   3.097  0.7090 -1.3842 -0.5106
17409SOL     OW54233   6.101   9.692   5.243  0.1610  0.0156 -0.0129
17409SOL    HW154234   6.020   9.646   5.264  0.2901 -0.4231 -0.4544
17409SOL    HW254235   6.116   9.673   5.151  0.7634  0.0955  0.0635
17410SOL     OW54236   8.086   9.434   7.327 -0.1239  0.5101  0.0339
17410SOL    HW154237   8.127   9.348   7.337  0.6760  0.8884  0.0014
17410SOL    HW254238   8.049   9.433   7.239 -0.7553 -0.0692  0.2987
17411SOL     OW54239   5.209   7.816   0.434 -0.2404 -0.2111 -0.5489
17411SOL    HW154240   5.265   7.875   0.484  0.7615  0.0679 -1.9523
17411SOL    HW254241   5.204   7.737   0.488 -0.1340  0.4878  0.5124
17412SOL     OW54242   4.444  10.656   4.955 -0.3424  0.2606  0.2593
17412SOL    HW154243   4.439  10.718   4.882 -1.9938 -0.2914 -0.1298
17412SOL    HW254244   4.356  10.621   4.963  0.1275 -0.6897  1.6749
17413SOL     OW54245   6.605   4.937   3.194  0.6533 -0.1073  0.1922
17413SOL    HW154246   6.582   4.848   3.218  1.1216 -0.2360  0.1595
17413SOL    HW254247   6.536   4.963   3.133  0.4428 -0.3979  0.3034
17414SOL     OW54248   1.891   3.177   8.881 -1.3175  0.8626 -0.0954
17414SOL    HW154249   1.976   3.141   8.906 -1.2466 -1.6052 -3.2535
17414SOL    HW254250   1.838   3.171   8.960  0.2340 -1.5907  0.8663
17415SOL     OW54251   4.811  10.071   9.219 -0.0464 -0.4091  0.3851
17415SOL    HW154252   4.868  10.096   9.146 -0.7570 -1.2713 -0.5071
17415SOL    HW254253   4.862  10.090   9.297  1.5989 -1.4336 -0.3803
17416SOL     OW54254   0.422   1.692   0.960  0.0305 -0.4706 -0.2881
17416SOL    HW154255   0.346   1.644   0.991  0.6263 -1.2298  0.0275
17416SOL    HW254256   0.416   1.777   1.004  1.5914 -1.9508  3.2148
17417SOL     OW54257   7.835   6.364   4.138  0.0376 -0.3586  0.2205
17417SOL    HW154258   7.786   6.326   4.211 -1.6791  1.7889  0.3095
17417SOL    HW254259   7.868   6.288   4.089 -0.5643 -1.8666  2.0336
17418SOL     OW54260   1.203   2.258   8.103 -0.2124 -0.6425 -0.1439
17418SOL    HW154261   1.276   2.291   8.051 -0.6063  0.6731  0.1131
17418SOL    HW254262   1.243   2.198   8.166  0.8317  1.0105  0.8114
17419SOL     OW54263  11.058   4.369   9.578  0.1241 -0.5822  0.1361
17419SOL    HW154264  11.027   4.346   9.491  0.4626  0.4974 -0.2932
17419SOL    HW254265  11.040   4.292   9.632 -3.1538 -0.1009 -0.0757
17420SOL     OW54266   0.058   4.463   7.898  0.0521 -0.4390 -0.4036
17420SOL    HW154267   0.148   4.460   7.866 -0.5348  0.5415 -2.3126
17420SOL    HW254268   0.038   4.556   7.907 -1.0737 -0.5998 -1.0194
17421SOL     OW54269   5.915   3.058   5.749 -0.4070 -0.3178 -0.3303
17421SOL    HW154270   5.895   2.967   5.727  0.9455 -0.7969  0.3144
17421SOL    HW254271   5.970   3.089   5.678  1.8173 -1.0564  0.9810
17422SOL     OW54272   6.272  10.265   2.568 -0.2851 -0.3853  0.2319
17422SOL    HW154273   6.337  10.233   2.506  0.7734 -0.8607  1.5145
17422SOL    HW254274   6.189  10.229   2.538  0.4328 -1.8479 -0.0770
17423SOL     OW54275   8.908   4.490   4.042 -0.0499  0.0403 -0.2934
17423SOL    HW154276   8.943   4.540   4.115  1.0182 -0.9406 -0.1016
17423SOL    HW254277   8.960   4.518   3.966 -2.2094  2.2587 -1.0959
17424SOL     OW54278   1.638   3.681   5.530 -0.0017  0.4312  0.3628
17424SOL    HW154279   1.631   3.743   5.602 -3.0671  1.6026 -0.7563
17424SOL    HW254280   1.649   3.736   5.452 -1.9265 -0.3674 -0.5606
17425SOL     OW54281   1.407   8.767   9.729  0.8289  0.0339  0.2572
17425SOL    HW154282   1.381   8.698   9.790  2.2944 -0.9680 -0.2037
17425SOL    HW254283   1.492   8.798   9.762  0.7952  0.7287 -0.2729
17426SOL     OW54284   1.447   1.718   6.301 -0.1887  0.2693 -0.2798
17426SOL    HW154285   1.487   1.631   6.300  0.0587  0.3775 -0.0584
17426SOL    HW254286   1.456   1.748   6.392 -0.8181  0.2767 -0.2106
17427SOL     OW54287   4.833   8.048   8.601  0.5173  0.0176  0.0055
17427SOL    HW154288   4.864   8.138   8.607  0.0573  0.1347  0.8316
17427SOL    HW254289   4.886   8.000   8.665 -0.5821  0.1114  1.0308
17428SOL     OW54290   7.679   1.652   0.270 -0.0319 -0.3064 -0.5192
17428SOL    HW154291   7.770   1.670   0.248 -0.1985 -1.1400 -1.9884
17428SOL    HW254292   7.682   1.618   0.360  0.6985  2.8227  0.7826
17429SOL     OW54293   8.993   8.794   8.572 -0.2009 -0.2230 -0.1817
17429SOL    HW154294   8.944   8.715   8.547 -1.8211  0.2210  1.3707
17429SOL    HW254295   9.023   8.775   8.661  0.0185  0.6287 -0.0725
17430SOL     OW54296   3.766   3.930   8.884 -0.0328 -0.1967  0.7657
17430SOL    HW154297   3.832   3.881   8.834 -0.4392 -0.9006  0.9119
17430SOL    HW254298   3.817   3.977   8.950  0.1762 -2.3025  2.1825
17431SOL     OW54299   0.687   7.192   2.367  0.4047  0.0903 -0.1700
17431SOL    HW154300   0.607   7.188   2.315 -0.2863 -0.1750  0.8806
17431SOL    HW254301   0.677   7.271   2.421  0.7472 -0.0737  0.1401
17432SOL     OW54302   5.947   6.623   7.917 -0.6172 -0.7021  0.1584
17432SOL    HW154303   5.993   6.586   7.992  2.0445  0.3516 -0.8413
17432SOL    HW254304   5.954   6.555   7.849  0.5674 -0.0846 -0.3609
17433SOL     OW54305   3.664   7.111   7.061  0.0065 -0.0164  0.1052
17433SOL    HW154306   3.691   7.153   6.979 -0.5940  0.8045  0.3208
17433SOL    HW254307   3.618   7.180   7.109 -1.4290 -1.0552  0.2681
17434SOL     OW54308   3.482   6.807  11.018 -0.8043  0.3000  0.3872
17434SOL    HW154309   3.403   6.840  10.975 -0.6019  1.2431  0.7206
17434SOL    HW254310   3.546   6.799  10.947 -0.3609  2.1919  0.5219
17435SOL     OW54311   5.242   1.380   0.618 -0.0389  0.1241  0.2144
17435SOL    HW154312   5.277   1.366   0.706 -1.1412 -1.3250  0.4504
17435SOL    HW254313   5.178   1.451   0.628  0.9809  1.0761  0.2419
17436SOL     OW54314   6.291   7.822   9.237 -0.1346  0.8456  0.0051
17436SOL    HW154315   6.383   7.832   9.262  0.2730  1.0436 -1.4675
17436SOL    HW254316   6.244   7.887   9.289  0.5914  0.9104  0.5901
17437SOL     OW54317   2.547   5.959  10.040  0.1107 -0.1231 -0.3231
17437SOL    HW154318   2.557   5.867  10.064 -0.1090 -0.0176  0.1977
17437SOL    HW254319   2.469   5.988  10.089  0.7923  0.6131  0.3543
17438SOL     OW54320  10.639   9.918   4.155  0.2103  0.0284 -0.1082
17438SOL    HW154321  10.727   9.950   4.172 -0.6338  1.4444  2.0145
17438SOL    HW254322  10.609   9.968   4.079  0.4803  1.1595  0.5066
17439SOL     OW54323   5.464   6.846  10.329 -0.0484  0.2420 -0.6290
17439SOL    HW154324   5.435   6.755  10.322 -1.6174  0.5743  0.7892
17439SOL    HW254325   5.544   6.842  10.382 -0.9240 -0.2355  0.7164
17440SOL     OW54326   0.346   3.358   5.499 -0.5388  0.3823 -0.3693
17440SOL    HW154327   0.327   3.264   5.499  0.4561  0.1701 -0.5024
17440SOL    HW254328   0.260   3.400   5.498 -1.0125 -0.5181  0.4329
17441SOL     OW54329   3.071   4.743   9.142  0.4947 -0.5262  0.7661
17441SOL    HW154330   3.166   4.742   9.140  0.5190  0.3446 -1.4980
17441SOL    HW254331   3.045   4.773   9.055 -1.8651 -1.0413  1.2061
17442SOL     OW54332   9.205   7.036   4.001 -0.2429  0.3495 -0.5431
17442SOL    HW154333   9.143   6.967   4.026 -0.8926  0.3838 -1.9598
17442SOL    HW254334   9.160   7.118   4.022 -1.9021  0.4852 -3.8707
17443SOL     OW54335   9.503   4.373   9.768 -0.3841  0.9067  0.1204
17443SOL    HW154336   9.531   4.289   9.805 -2.5643  0.0717  0.0259
17443SOL    HW254337   9.528   4.368   9.676 -0.0749  0.5391  0.2214
17444SOL     OW54338   2.557   8.621   1.212  0.7999  0.5499  0.1180
17444SOL    HW154339   2.584   8.611   1.121  0.3581 -0.7837  0.1080
17444SOL    HW254340   2.638   8.616   1.262  0.8255 -1.1340 -0.0544
17445SOL     OW54341   0.031   8.074   1.822  0.6567  0.6885  0.1710
17445SOL    HW154342  -0.009   8.151   1.783 -2.2915  0.2241  1.9148
17445SOL    HW254343  -0.016   8.063   1.905  1.6102 -2.4201  0.4263
17446SOL     OW54344   1.744   7.731   7.572  0.1067 -0.0251 -0.3905
17446SOL    HW154345   1.773   7.643   7.549  2.6543  0.0840  1.7841
17446SOL    HW254346   1.822   7.786   7.558 -1.0836  1.6679 -0.6492
17447SOL     OW54347   2.355   1.068   5.571  0.1636  0.6209  0.4795
17447SOL    HW154348   2.381   1.159   5.557  0.5067  0.9016  2.5968
17447SOL    HW254349   2.433   1.017   5.549 -0.0914  0.7982 -0.9010
17448SOL     OW54350   9.304   4.038   8.353 -0.2391  0.2308  0.0923
17448SOL    HW154351   9.376   4.099   8.337  0.4520 -0.4579  0.5230
17448SOL    HW254352   9.270   4.064   8.439  1.5618 -1.4058  1.3751
17449SOL     OW54353   4.638   0.060   2.452  0.2524  0.3066  0.2996
17449SOL    HW154354   4.628  -0.031   2.425  0.3806 -0.3286  2.2442
17449SOL    HW254355   4.567   0.106   2.407 -1.3313 -1.2008  1.1560
17450SOL     OW54356   1.766   8.635   3.502  0.2622 -0.1845  0.0037
17450SOL    HW154357   1.760   8.679   3.417  1.3056  0.2401  0.1326
17450SOL    HW254358   1.798   8.703   3.561 -1.7226 -0.0905  1.0511
17451SOL     OW54359   7.397   3.782   7.888 -0.1918 -0.8146  0.6227
17451SOL    HW154360   7.304   3.791   7.868  0.4008  0.2768 -2.1284
17451SOL    HW254361   7.422   3.864   7.929  0.1191  0.2062 -1.4861
17452SOL     OW54362   1.180   3.710   7.951 -0.0882  0.2079 -0.0572
17452SOL    HW154363   1.213   3.757   8.028  1.6129  4.1088 -2.8477
17452SOL    HW254364   1.097   3.752   7.931 -0.8336 -1.2151 -0.0367
17453SOL     OW54365   6.579   3.194  10.731 -0.2354 -0.2390 -0.6160
17453SOL    HW154366   6.647   3.262  10.729 -0.1642 -0.1965  1.3328
17453SOL    HW254367   6.500   3.239  10.701 -0.0909  0.5994  0.2133
17454SOL     OW54368   6.924  10.336   0.219 -0.5654  0.4712 -0.1783
17454SOL    HW154369   6.830  10.328   0.201 -0.9432  2.5655  0.4933
17454SOL    HW254370   6.957  10.247   0.217 -2.3063 -0.2077 -1.7853
17455SOL     OW54371   6.004   6.484   9.905  0.3234  0.3607  0.7638
17455SOL    HW154372   5.959   6.526   9.832 -0.3267 -0.2336  0.8169
17455SOL    HW254373   6.089   6.528   9.909  0.4805  0.2102 -0.5222
17456SOL     OW54374   7.308   3.032   2.154  0.5618  0.6784  0.0695
17456SOL    HW154375   7.324   3.109   2.100  3.8746  1.3018  1.7310
17456SOL    HW254376   7.388   2.981   2.149 -0.4625 -1.1879  1.3486
17457SOL     OW54377   2.920   2.639   0.048 -0.1161  0.7370 -0.0790
17457SOL    HW154378   2.921   2.733   0.064 -2.0084  1.3531 -2.8951
17457SOL    HW254379   2.986   2.625  -0.020  1.0178 -0.2472  1.1501
17458SOL     OW54380   0.393   3.851   7.531 -0.5115  0.7937  0.0621
17458SOL    HW154381   0.478   3.883   7.562  0.0731  0.2165 -0.8992
17458SOL    HW254382   0.358   3.803   7.606  1.9683 -2.6863 -0.7053
17459SOL     OW54383   2.980   7.355   0.224 -0.4745  0.1529  0.3106
17459SOL    HW154384   3.022   7.364   0.138 -0.4040  0.8097  0.4056
17459SOL    HW254385   3.026   7.282   0.266 -2.6384 -2.3654 -1.4175
17460SOL     OW54386   6.762  11.059   0.074  0.0133  0.2328 -0.2202
17460SOL    HW154387   6.778  11.105  -0.009  2.0376  1.0286  0.5584
17460SOL    HW254388   6.845  11.014   0.092 -1.2802 -2.2012  0.0208
17461SOL     OW54389   4.532   0.677   3.809  0.0329  0.1649 -0.2881
17461SOL    HW154390   4.458   0.668   3.749  0.0626 -0.9854 -0.1611
17461SOL    HW254391   4.610   0.667   3.754  0.0555 -1.8512  0.0555
17462SOL     OW54392   4.238   9.704   6.620  0.5892  0.3771 -0.0066
17462SOL    HW154393   4.305   9.697   6.552  0.3331 -1.9811 -0.1032
17462SOL    HW254394   4.155   9.690   6.574  0.1981  1.1602  0.4363
17463SOL     OW54395   6.455   4.822   8.532  0.0851 -0.6152 -0.0004
17463SOL    HW154396   6.539   4.867   8.535 -0.9102  1.5268 -1.2567
17463SOL    HW254397   6.440   4.805   8.439 -0.2313 -2.3489  0.3349
17464SOL     OW54398   6.300   3.249  10.737 -0.7500  0.4415  0.4218
17464SOL    HW154399   6.205   3.238  10.747 -0.8286  0.3355 -0.3717
17464SOL    HW254400   6.312   3.344  10.734 -0.5750  0.5274  2.7224
17465SOL     OW54401   5.911   0.459   4.669  0.0170 -0.1067 -0.8736
17465SOL    HW154402   5.841   0.523   4.656  0.4454  0.6622  0.3901
17465SOL    HW254403   5.870   0.374   4.654 -1.1046  0.3514 -0.4500
17466SOL     OW54404   1.934  11.050   7.500 -0.0461 -0.5690 -0.3954
17466SOL    HW154405   1.963  10.959   7.509  0.8678 -0.1360  1.3588
17466SOL    HW254406   1.890  11.052   7.415  0.6547 -2.4485 -0.8580
17467SOL     OW54407   1.494   9.669   4.109  0.3756  0.5091  0.1557
17467SOL    HW154408   1.530   9.749   4.149  0.1528  2.1413 -2.6565
17467SOL    HW254409   1.475   9.694   4.019  1.0408 -3.0080 -1.0903
17468SOL     OW54410   7.964   4.740   1.253 -0.1069 -0.2040  0.1066
17468SOL    HW154411   7.872   4.756   1.273 -0.0427 -2.1501  2.3942
17468SOL    HW254412   7.963   4.702   1.165 -1.6491 -1.4194  0.6107
17469SOL     OW54413   9.063   3.094  10.402  0.6525 -0.0943  0.3000
17469SOL    HW154414   8.985   3.131  10.362  1.3655 -1.4908 -2.6352
17469SOL    HW254415   9.083   3.153  10.475 -0.5239  2.9085 -1.6345
17470SOL     OW54416   8.105   1.521   7.329 -0.4526 -0.3695  0.0565
17470SOL    HW154417   8.124   1.526   7.235 -0.9011 -1.7048 -0.1384
17470SOL    HW254418   8.011   1.539   7.335 -0.4228 -0.2831  0.2441
17471SOL     OW54419   5.825   6.626   6.708  0.1685 -0.3919 -0.2887
17471SOL    HW154420   5.828   6.721   6.707  0.9331 -0.3907  0.4255
17471SOL    HW254421   5.822   6.603   6.801 -1.5260 -1.0399 -0.4805
17472SOL     OW54422   6.575  11.081  10.041 -0.5635  1.1487 -0.3333
17472SOL    HW154423   6.665  11.099  10.012 -0.8166 -0.0940 -2.1036
17472SOL    HW254424   6.575  11.099  10.135  2.0331 -0.5229  0.0857
17473SOL     OW54425   5.549   4.168   2.538  1.0152 -0.7075 -0.0348
17473SOL    HW154426   5.518   4.258   2.539  0.4960 -0.8367 -2.0170
17473SOL    HW254427   5.639   4.174   2.573  0.9236  0.5297  0.0445
17474SOL     OW54428   6.147   4.376   2.302  0.6293  0.3519 -0.4202
17474SOL    HW154429   6.089   4.391   2.228 -1.2823 -2.1989  0.4260
17474SOL    HW254430   6.088   4.361   2.376  2.3736 -0.9432  0.7930
17475SOL     OW54431   4.808   9.779   2.741  0.2002  0.5559  0.6583
17475SOL    HW154432   4.825   9.865   2.780 -0.4740  0.6975  0.6425
17475SOL    HW254433   4.854   9.782   2.657 -0.7808  1.3465  0.1222
17476SOL     OW54434   2.508   9.638   0.508  0.9609  0.1221 -0.3719
17476SOL    HW154435   2.427   9.685   0.487  1.1418  0.3195 -0.6420
17476SOL    HW254436   2.519   9.576   0.436 -0.2427 -1.6313  0.9088
17477SOL     OW54437   8.365   5.217  11.069 -0.0204 -0.0274  0.6268
17477SOL    HW154438   8.332   5.305  11.051 -0.4719 -0.2185  0.5059
17477SOL    HW254439   8.411   5.225  11.153 -0.8649  0.1306  1.0893
17478SOL     OW54440   7.279  10.491   7.627 -0.1858 -0.3430  0.5858
17478SOL    HW154441   7.203  10.435   7.644  0.0020 -1.3213 -1.5393
17478SOL    HW254442   7.250  10.579   7.650 -1.7714 -0.7868  0.3914
17479SOL     OW54443   5.195   3.024   5.647  0.0972 -0.5322  0.2576
17479SOL    HW154444   5.209   3.118   5.655  1.0921 -0.7285  0.9571
17479SOL    HW254445   5.150   3.013   5.563 -1.8273  0.7288  1.0454
17480SOL     OW54446   3.051   1.547   9.203 -0.0724  0.2057 -0.2455
17480SOL    HW154447   3.031   1.518   9.292 -0.4436  3.3072  0.8149
17480SOL    HW254448   3.143   1.525   9.191  0.5900  1.4631  1.7825
17481SOL     OW54449   4.643   8.008   2.170  0.4671 -0.6709 -0.5507
17481SOL    HW154450   4.642   7.940   2.102  0.5495  0.0440 -1.2888
17481SOL    HW254451   4.732   8.042   2.169  0.3212 -0.2769 -0.4727
17482SOL     OW54452   1.083   6.251   9.799  0.6136 -0.4205 -0.3175
17482SOL    HW154453   1.111   6.330   9.843  2.9546 -1.2655 -0.1735
17482SOL    HW254454   1.109   6.180   9.857 -1.3503 -1.3383 -0.4825
17483SOL     OW54455  10.014   6.425   1.166  0.4625  0.3320 -0.4381
17483SOL    HW154456   9.941   6.487   1.168  0.1995 -0.0090  1.2004
17483SOL    HW254457  10.000   6.375   1.085 -1.8622 -0.6042  0.4567
17484SOL     OW54458   7.734   4.028   8.963  0.0706  0.5869 -0.0569
17484SOL    HW154459   7.713   3.956   8.904  2.1661  0.1608 -0.3470
17484SOL    HW254460   7.665   4.024   9.030 -1.5661  0.2317 -1.6820
17485SOL     OW54461   3.974   6.467   8.108  0.4227  0.0388  0.1096
17485SOL    HW154462   4.014   6.410   8.173 -0.3282 -0.4614  0.1505
17485SOL    HW254463   3.931   6.407   8.047 -2.1839  0.5449  1.3178
17486SOL     OW54464   5.932  10.527   8.200 -0.4728  0.2782 -0.1188
17486SOL    HW154465   5.953  10.434   8.199  3.5775  0.9790  1.7569
17486SOL    HW254466   5.942  10.554   8.108  1.7078 -0.5842 -0.2011
17487SOL     OW54467   9.341   8.609   7.293 -0.0531 -0.0607  0.7858
17487SOL    HW154468   9.364   8.684   7.237 -0.0392  0.5316  1.5738
17487SOL    HW254469   9.299   8.648   7.369  0.0889 -0.8534  1.2792
17488SOL     OW54470  11.137   6.658   5.830 -0.1665 -0.1787 -0.4450
17488SOL    HW154471  11.207   6.711   5.793  0.3616 -0.4677  0.1208
17488SOL    HW254472  11.079   6.722   5.872  0.1771  0.0028 -0.2381
17489SOL     OW54473   3.815   1.363   6.711 -0.3207  0.0323  0.2489
17489SOL    HW154474   3.909   1.347   6.708 -0.3105 -0.0098  0.7792
17489SOL    HW254475   3.781   1.324   6.630 -0.0174 -0.8073  0.5264
17490SOL     OW54476   4.157   9.990   4.242 -0.2420  0.8270 -0.1206
17490SOL    HW154477   4.127  10.081   4.234 -0.9047  0.6952  0.7756
17490SOL    HW254478   4.077   9.939   4.246  0.0532 -0.0948 -3.1674
17491SOL     OW54479   6.249   7.445   4.281  0.3560 -0.3515  0.0225
17491SOL    HW154480   6.203   7.414   4.359  1.4610 -0.4917  0.6441
17491SOL    HW254481   6.342   7.430   4.300  0.6845  0.1192 -1.0975
17492SOL     OW54482   1.983   5.096   3.953  0.2958 -0.1118  0.3384
17492SOL    HW154483   2.057   5.049   3.992  2.6558  0.8737 -2.4932
17492SOL    HW254484   2.018   5.183   3.934 -1.7072  0.4914 -0.8539
17493SOL     OW54485   6.322  10.135   9.482 -0.3112 -0.6345  0.6138
17493SOL    HW154486   6.242  10.126   9.533 -1.7991 -1.3392 -1.6837
17493SOL    HW254487   6.344  10.045   9.457 -0.2156 -0.2488 -0.7710
17494SOL     OW54488   9.040   8.809   1.256 -0.1317  0.0664 -0.0113
17494SOL    HW154489   9.101   8.737   1.236  0.7546  1.2216 -1.8092
17494SOL    HW254490   8.976   8.806   1.184 -0.6309  0.5092  0.4104
17495SOL     OW54491   1.119   2.013   7.286 -0.3384  0.4143  0.2420
17495SOL    HW154492   1.210   2.024   7.257 -0.6226  1.9599 -0.1660
17495SOL    HW254493   1.085   1.942   7.231  0.6944 -0.3753  0.5974
17496SOL     OW54494   8.462   3.103   3.189 -0.5300 -0.3536  0.6119
17496SOL    HW154495   8.375   3.126   3.158 -0.4179 -0.6178  0.0957
17496SOL    HW254496   8.450   3.017   3.231 -0.7176  0.0872  1.4804
17497SOL     OW54497  10.394   6.795  10.197 -0.2692  0.0953 -0.7082
17497SOL    HW154498  10.303   6.813  10.172 -0.1517  0.2002 -1.0693
17497SOL    HW254499  10.439   6.879  10.189 -0.3131  0.2318  0.2812
17498SOL     OW54500   7.733   5.080   9.689 -0.4505  0.1883 -0.4549
17498SOL    HW154501   7.679   5.092   9.611 -2.9702  0.9009  1.2741
17498SOL    HW254502   7.756   4.987   9.687  0.6910  0.4386 -2.6697
17499SOL     OW54503   5.830   3.853   9.142  0.2898 -0.1260  0.8029
17499SOL    HW154504   5.754   3.840   9.085  0.2033 -0.0688  0.9056
17499SOL    HW254505   5.803   3.922   9.203  0.4259 -0.1017  0.8353
17500SOL     OW54506   3.789   6.663   6.358 -0.0881  0.1133 -0.5904
17500SOL    HW154507   3.840   6.740   6.387 -1.1719 -0.0114  1.8947
17500SOL    HW254508   3.698   6.693   6.361 -0.4388 -0.9286 -0.7267
17501SOL     OW54509   0.739  10.551  10.738 -0.0637  0.8802 -0.5431
17501SOL    HW154510   0.769  10.514  10.821 -0.0101  1.5765 -0.2449
17501SOL    HW254511   0.814  10.599  10.704  0.8820 -1.7452 -2.4536
17502SOL     OW54512   8.813   0.981   9.634 -0.4142  0.2718  0.3444
17502SOL    HW154513   8.783   0.890   9.635  0.2180  0.0185 -1.0152
17502SOL    HW254514   8.908   0.974   9.634 -0.3631  0.9384  0.4010
17503SOL     OW54515   8.626   9.899   0.432 -0.2560 -0.0197  0.3854
17503SOL    HW154516   8.586   9.917   0.517  0.6648  1.1348  0.5994
17503SOL    HW254517   8.610   9.978   0.381  0.1724 -0.2622 -0.1294
17504SOL     OW54518   6.603   2.887   6.217 -0.1954 -0.4116 -0.0884
17504SOL    HW154519   6.613   2.872   6.311 -1.2597  0.8063  0.2479
17504SOL    HW254520   6.535   2.826   6.190 -0.5144 -0.1525  0.1220
17505SOL     OW54521   4.192   3.477   3.744 -0.0722 -0.3945  0.7827
17505SOL    HW154522   4.119   3.451   3.688  0.5181 -0.0213 -0.1856
17505SOL    HW254523   4.257   3.408   3.731 -0.5635 -1.2004  2.3223
17506SOL     OW54524   0.260   4.526   8.232  0.1859  1.4836 -0.1468
17506SOL    HW154525   0.247   4.620   8.241 -1.6105  1.1011  2.4974
17506SOL    HW254526   0.317   4.502   8.305 -0.8928  0.3227  0.3575
17507SOL     OW54527   7.379   8.499   5.862 -0.1761 -0.0903 -0.1774
17507SOL    HW154528   7.402   8.406   5.865  1.5541  0.3157  0.7110
17507SOL    HW254529   7.431   8.535   5.790 -1.9669 -0.0476 -1.5067
17508SOL     OW54530  10.098   4.978   8.762  0.0536 -0.5001 -0.1621
17508SOL    HW154531  10.141   4.933   8.835 -0.3291 -0.9688 -0.2216
17508SOL    HW254532  10.085   4.910   8.696 -1.4085 -0.5487  0.1320
17509SOL     OW54533   7.276   5.275   3.111 -0.9270  0.3361  0.1088
17509SOL    HW154534   7.287   5.190   3.068 -0.1912  0.0669  0.7987
17509SOL    HW254535   7.330   5.269   3.190 -1.1665  1.3121  0.3612
17510SOL     OW54536   3.836   9.860   0.879 -0.1197  0.3154  0.0378
17510SOL    HW154537   3.809   9.841   0.789 -1.4405  2.2722 -0.0382
17510SOL    HW254538   3.890   9.939   0.872 -0.5206  0.6852  0.9838
17511SOL     OW54539   6.674   3.234   6.778  0.4519  0.1127 -0.1951
17511SOL    HW154540   6.670   3.191   6.693  1.1854  2.1413 -1.3223
17511SOL    HW254541   6.668   3.327   6.758  0.9610  0.6666  1.9621
17512SOL     OW54542  10.077   0.139   3.764 -0.4207 -0.3344  0.1386
17512SOL    HW154543  10.167   0.163   3.738 -0.4604 -0.2451  0.0813
17512SOL    HW254544  10.071   0.165   3.856 -0.0139 -1.3972  0.4855
17513SOL     OW54545  10.292   6.534   0.332  0.0011  0.1310 -0.8298
17513SOL    HW154546  10.213   6.516   0.382 -0.6288 -0.7398 -2.0847
17513SOL    HW254547  10.287   6.474   0.257  1.5364  0.5001 -1.2610
17514SOL     OW54548   2.002   1.350  10.730 -0.0463  0.5927  0.2077
17514SOL    HW154549   2.026   1.353  10.822 -0.0756 -0.2705  0.2523
17514SOL    HW254550   1.907   1.359  10.729 -0.1388 -0.2588  0.3339
17515SOL     OW54551   8.708   9.082  11.008  0.5777  0.2474  0.1374
17515SOL    HW154552   8.733   9.172  10.988  0.7067 -0.1350 -1.5983
17515SOL    HW254553   8.768   9.029  10.955  0.9982 -0.8899  1.7046
17516SOL     OW54554   1.474   2.681   9.810  0.3312  0.2913 -0.3106
17516SOL    HW154555   1.507   2.767   9.835 -0.1156  0.3049  0.2352
17516SOL    HW254556   1.434   2.695   9.723 -1.5122  1.0979  0.6017
17517SOL     OW54557   0.420   6.930   4.714 -0.3577  0.0352 -0.1709
17517SOL    HW154558   0.343   6.965   4.670  0.3682 -0.5423 -1.9715
17517SOL    HW254559   0.463   7.007   4.751 -0.7575  0.6024 -0.8582
17518SOL     OW54560  10.747   6.104   7.132  0.5182  0.4001  0.2735
17518SOL    HW154561  10.777   6.176   7.187  0.9723  0.1151  0.4091
17518SOL    HW254562  10.775   6.127   7.044  2.2184 -0.4068  0.5614
17519SOL     OW54563   2.408  10.137   9.931 -0.2484  0.7120  0.6802
17519SOL    HW154564   2.393  10.203   9.998 -0.0267  2.0312 -0.5313
17519SOL    HW254565   2.500  10.150   9.905  0.1615 -0.8539  1.2331
17520SOL     OW54566  10.495  10.422  11.165 -0.4340 -0.0843 -0.1181
17520SOL    HW154567  10.418  10.398  11.113 -0.2703 -1.4951  0.2635
17520SOL    HW254568  10.569  10.412  11.104 -0.0222 -3.5096  0.7554
17521SOL     OW54569   3.058   2.119   7.085 -0.1511  0.7661  0.4218
17521SOL    HW154570   3.135   2.176   7.088  0.8495 -0.5309  0.3757
17521SOL    HW254571   3.063   2.068   7.166 -1.1482  0.8886  0.5730
17522SOL     OW54572   1.166   6.162   0.919 -0.2318 -0.0224  0.2505
17522SOL    HW154573   1.226   6.103   0.966 -0.6395  0.2675  1.1603
17522SOL    HW254574   1.132   6.220   0.987  0.9468  1.9630 -0.7754
17523SOL     OW54575   8.149   2.905   7.873  0.5714 -0.0239 -0.0884
17523SOL    HW154576   8.076   2.965   7.857  0.9620  0.1430 -1.3622
17523SOL    HW254577   8.125   2.825   7.826 -0.1377 -1.0814  1.9202
17524SOL     OW54578  10.313   8.615   2.315 -0.4929 -0.8084 -0.0800
17524SOL    HW154579  10.390   8.563   2.338 -0.7284 -1.2421 -0.2769
17524SOL    HW254580  10.288   8.584   2.229 -1.1594 -0.9850  0.1740
17525SOL     OW54581   4.132   9.456   0.771  0.2337 -0.5966  0.4001
17525SOL    HW154582   4.177   9.525   0.819 -0.0654  0.9743 -1.4746
17525SOL    HW254583   4.202   9.411   0.723  0.1091  0.4329 -0.7928
17526SOL     OW54584   1.091   3.526  11.235  0.0593  0.3367  0.0363
17526SOL    HW154585   1.138   3.443  11.225 -0.4435  0.1528 -0.9412
17526SOL    HW254586   1.159   3.589  11.263  0.7802 -0.0476 -0.7910
17527SOL     OW54587   9.206   4.165   2.879  0.2228 -0.2620  0.0074
17527SOL    HW154588   9.246   4.232   2.822 -1.2114  1.0238  0.4488
17527SOL    HW254589   9.157   4.109   2.818  0.7457 -0.4087 -0.2834
17528SOL     OW54590   8.734   3.163   1.064  0.0253 -0.0361 -0.3936
17528SOL    HW154591   8.726   3.073   1.096 -0.8497 -0.8667 -2.7504
17528SOL    HW254592   8.684   3.215   1.127 -1.6484 -1.5797 -0.3694
17529SOL     OW54593   0.141  10.692   8.752  0.2357  0.0443  0.2545
17529SOL    HW154594   0.208  10.759   8.764  0.3658  0.2197 -1.2530
17529SOL    HW254595   0.063  10.727   8.794  0.2439  1.2662 -0.7060
17530SOL     OW54596   7.986   8.351   2.093  0.4403  0.8644  0.4618
17530SOL    HW154597   8.031   8.334   2.176 -0.0174  0.2991  0.6008
17530SOL    HW254598   8.014   8.279   2.036  0.3793  0.9890  0.2747
17531SOL     OW54599   6.755   9.834   9.389  0.0775  0.0234 -0.2452
17531SOL    HW154600   6.744   9.890   9.465 -0.3002  1.3002 -1.1995
17531SOL    HW254601   6.799   9.889   9.324 -1.2272 -0.4148 -1.5727
17532SOL     OW54602   1.124   9.628   5.205  0.2305 -0.2807 -0.1359
17532SOL    HW154603   1.051   9.675   5.246  0.5204 -1.6488  2.1477
17532SOL    HW254604   1.084   9.548   5.170  0.2114  0.2752 -1.4476
17533SOL     OW54605   3.185   0.694   5.352 -0.0949 -0.4959 -0.7614
17533SOL    HW154606   3.203   0.671   5.444 -0.1925 -0.9684 -0.8579
17533SOL    HW254607   3.171   0.789   5.354 -1.3479 -0.6703 -0.0732
17534SOL     OW54608   6.380   5.037   3.524  0.1009 -0.5673  0.1917
17534SOL    HW154609   6.298   5.070   3.562  0.1982 -0.1356  0.0233
17534SOL    HW254610   6.380   4.944   3.546  0.0750 -0.3602  1.1162
17535SOL     OW54611   0.003   4.605   9.806  0.0091  0.7801  0.3514
17535SOL    HW154612   0.023   4.679   9.863 -1.2562  0.8786  0.6969
17535SOL    HW254613   0.088   4.566   9.787  0.6317  1.8782  0.7551
17536SOL     OW54614   3.412   2.438   5.031 -0.1747 -0.6400 -0.5735
17536SOL    HW154615   3.475   2.377   4.992  1.3988  0.1839  0.5575
17536SOL    HW254616   3.370   2.479   4.955  2.9945  1.1202 -1.5817
17537SOL     OW54617   5.464   9.252   2.422 -0.1648  0.1703 -0.0704
17537SOL    HW154618   5.523   9.176   2.425 -0.2432 -0.0914 -2.4849
17537SOL    HW254619   5.391   9.229   2.479  1.2994 -0.1533  1.7637
17538SOL     OW54620   0.144   7.414   8.799  0.1305  0.0986 -0.4016
17538SOL    HW154621   0.087   7.460   8.860  1.1938 -0.5171  1.1042
17538SOL    HW254622   0.092   7.406   8.719 -1.2800  0.9594  0.3928
17539SOL     OW54623   4.446   9.544   1.162 -0.2379 -0.2239  0.2353
17539SOL    HW154624   4.393   9.518   1.088 -1.6874  2.7612  0.0687
17539SOL    HW254625   4.487   9.626   1.135  2.8778 -1.3076  1.1518
17540SOL     OW54626   2.551   4.725   2.662  0.5028 -0.7034  0.5634
17540SOL    HW154627   2.527   4.788   2.730  1.6106 -1.0258  1.2637
17540SOL    HW254628   2.467   4.701   2.622 -0.0996 -0.0148  1.3738
17541SOL     OW54629   7.717   7.892   6.168  0.3441 -0.1599  0.2091
17541SOL    HW154630   7.734   7.798   6.175 -1.7617 -0.5990  0.1205
17541SOL    HW254631   7.687   7.917   6.256  2.0529  0.7377  0.5863
17542SOL     OW54632  10.485   4.699   5.031 -0.2414 -0.2384 -0.1750
17542SOL    HW154633  10.510   4.785   5.064 -1.0604 -0.3177  0.6823
17542SOL    HW254634  10.427   4.718   4.957 -1.3708 -0.0375  0.7464
17543SOL     OW54635   0.640   8.908  10.574  0.4143  0.2068 -0.8255
17543SOL    HW154636   0.699   8.858  10.517  1.1510  0.6544 -0.4657
17543SOL    HW254637   0.692   8.983  10.603  0.8185 -1.0730  2.1133
17544SOL     OW54638   5.174   8.198   7.933 -0.4012  0.2884  0.3348
17544SOL    HW154639   5.166   8.293   7.932 -0.5523  0.2704 -0.1622
17544SOL    HW254640   5.098   8.168   7.983  0.1562  0.4713  1.3307
17545SOL     OW54641   8.713   3.576   3.560  0.2581  0.5612 -0.2085
17545SOL    HW154642   8.749   3.495   3.524 -2.5017  0.0332 -2.0445
17545SOL    HW254643   8.686   3.627   3.484 -0.8273  1.8728  0.9901
17546SOL     OW54644   2.039   7.786   2.837  0.4525  0.0661  0.5936
17546SOL    HW154645   2.018   7.869   2.794  2.7645  1.5163  2.0313
17546SOL    HW254646   2.005   7.719   2.778 -2.9659  1.9844  0.1460
17547SOL     OW54647   9.122   3.930   6.446  0.2699  0.3126 -0.1466
17547SOL    HW154648   9.054   3.927   6.379 -0.5463 -3.1069  0.6085
17547SOL    HW254649   9.074   3.937   6.529  1.0922  1.4308  0.2669
17548SOL     OW54650   4.450   9.790   0.090 -0.0409  0.2118  0.4489
17548SOL    HW154651   4.401   9.717   0.128  0.5647 -1.4825 -1.8085
17548SOL    HW254652   4.511   9.817   0.159  0.8348 -2.5190  0.8610
17549SOL     OW54653   1.247   5.546   1.309  0.1642 -0.0007 -0.0121
17549SOL    HW154654   1.298   5.520   1.386  1.0826  0.1221 -0.5660
17549SOL    HW254655   1.251   5.642   1.308 -0.7155  0.0520  0.3547
17550SOL     OW54656   0.682   3.736   4.602  0.7691 -0.5775 -0.1368
17550SOL    HW154657   0.772   3.718   4.573  0.8617 -1.2589  0.5565
17550SOL    HW254658   0.636   3.653   4.589  0.1395 -0.1316 -0.8273
17551SOL     OW54659   7.509   8.080   7.257 -0.2340  0.0356  0.4190
17551SOL    HW154660   7.582   8.053   7.201 -1.6989 -2.2372 -0.5516
17551SOL    HW254661   7.433   8.079   7.199 -1.2108  1.5062  1.5950
17552SOL     OW54662   7.353   3.818   0.555  0.7292 -0.1854 -0.2191
17552SOL    HW154663   7.385   3.870   0.628  0.3328  0.3946 -0.4456
17552SOL    HW254664   7.265   3.791   0.581  0.2357  0.7770 -0.8374
17553SOL     OW54665   5.180  10.724   0.971 -0.7433  0.2932  0.0397
17553SOL    HW154666   5.269  10.757   0.978 -0.9693  0.6531  1.4285
17553SOL    HW254667   5.135  10.787   0.915 -0.6701  1.3083  1.0914
17554SOL     OW54668   0.464   0.522   8.403  0.4673 -0.2453 -0.0452
17554SOL    HW154669   0.490   0.433   8.424  2.2417  0.1343 -0.4799
17554SOL    HW254670   0.404   0.513   8.329  1.5966 -1.0198 -0.8881
17555SOL     OW54671   4.222   4.251   8.674  0.1008  0.1326 -0.2531
17555SOL    HW154672   4.287   4.180   8.678  1.8912  1.7276  0.5295
17555SOL    HW254673   4.139   4.208   8.693  0.7918 -2.1057 -1.8567
17556SOL     OW54674   5.462   0.938   5.824 -0.1636  0.2321  0.2100
17556SOL    HW154675   5.517   0.896   5.759 -2.6537 -1.9216 -0.7129
17556SOL    HW254676   5.452   1.029   5.793  2.4661  0.6141  0.2776
17557SOL     OW54677   7.396   6.640   2.593  0.1978 -0.0211  1.0266
17557SOL    HW154678   7.491   6.645   2.602  0.1866  1.0056  0.7057
17557SOL    HW254679   7.361   6.683   2.671  0.0293  1.1331  0.3399
17558SOL     OW54680   6.120   5.403   3.213 -0.1696  0.4433 -0.2324
17558SOL    HW154681   6.062   5.367   3.281  0.3086 -0.6549 -0.3793
17558SOL    HW254682   6.202   5.420   3.258  1.0032 -2.6319 -0.9265
17559SOL     OW54683   6.942   4.921   2.349 -0.8536  0.0291 -0.2423
17559SOL    HW154684   6.969   4.981   2.279 -0.4109  0.4854  0.3062
17559SOL    HW254685   7.003   4.847   2.343 -0.8041  0.0766 -0.3268
17560SOL     OW54686   6.136   0.494   3.048  0.1232 -0.2299 -0.0952
17560SOL    HW154687   6.113   0.482   2.956  3.2451  0.0262 -1.0072
17560SOL    HW254688   6.207   0.431   3.064  0.5364  0.6377  1.7691
17561SOL     OW54689   1.468   5.922   7.662  0.1685  0.3457 -0.1744
17561SOL    HW154690   1.392   5.927   7.605  0.7372 -1.0785 -1.1052
17561SOL    HW254691   1.521   5.999   7.639 -0.9041  1.2903  0.4125
17562SOL     OW54692   1.641  10.317   0.156 -0.4189 -0.0862 -0.8331
17562SOL    HW154693   1.736  10.306   0.151 -0.3349 -0.9724  1.4172
17562SOL    HW254694   1.629  10.385   0.223 -1.3289 -2.2685  1.4047
17563SOL     OW54695   4.769  10.173   6.298 -0.6698  0.1074 -0.2309
17563SOL    HW154696   4.799  10.240   6.359 -2.5981  1.1673 -0.3564
17563SOL    HW254697   4.763  10.093   6.352 -0.9644  0.6872  0.6190
17564SOL     OW54698   7.771   8.762   2.422 -0.3186 -0.5618 -0.2799
17564SOL    HW154699   7.793   8.685   2.474 -1.1333 -1.3055 -1.0043
17564SOL    HW254700   7.713   8.729   2.354  1.3544  0.2237 -2.1848
17565SOL     OW54701  10.328   9.116   8.212 -0.0042 -0.2858 -0.0792
17565SOL    HW154702  10.366   9.200   8.185 -1.8610  1.0850  1.2483
17565SOL    HW254703  10.367   9.099   8.297 -1.8805  0.9192  1.1010
17566SOL     OW54704   2.058   5.076   8.320  0.5761 -0.0010  0.2206
17566SOL    HW154705   1.993   5.068   8.251  0.0265  0.7799  0.6362
17566SOL    HW254706   2.116   5.001   8.307 -1.5265 -1.8779  1.0188
17567SOL     OW54707   7.038   5.252   5.999  0.7351 -0.1370 -0.3410
17567SOL    HW154708   6.967   5.254   6.063  1.1909 -1.2238  0.2202
17567SOL    HW254709   7.098   5.321   6.028  0.2609  0.2962 -0.3930
17568SOL     OW54710   9.540   7.545   3.195  0.0058 -0.0879 -0.4384
17568SOL    HW154711   9.605   7.522   3.128  1.1332 -0.1440  0.6512
17568SOL    HW254712   9.460   7.500   3.167 -0.2436  1.6909 -2.9980
17569SOL     OW54713   8.562   1.094   6.593  0.5385  0.4682  0.3012
17569SOL    HW154714   8.469   1.105   6.612  0.2376 -1.6954  0.3020
17569SOL    HW254715   8.592   1.028   6.655  2.0718  1.0325  0.2245
17570SOL     OW54716  11.113   2.166   1.890 -0.7742  0.1518 -0.0593
17570SOL    HW154717  11.161   2.116   1.956 -0.5929  1.3371  0.7406
17570SOL    HW254718  11.173   2.171   1.815 -0.7024 -0.6015 -0.0554
17571SOL     OW54719   2.172   6.491   2.878  0.3018 -0.0880 -0.2305
17571SOL    HW154720   2.227   6.422   2.915  0.3122 -0.9206 -1.7434
17571SOL    HW254721   2.097   6.445   2.841 -0.1738  0.8101 -0.4216
17572SOL     OW54722   6.763   8.897   5.781  0.5587  0.5923  0.2875
17572SOL    HW154723   6.776   8.870   5.690  0.8793  2.0174 -0.1223
17572SOL    HW254724   6.810   8.980   5.788  0.5903  0.4743  1.7807
17573SOL     OW54725   2.369   6.828  10.987  0.3244 -0.7187 -0.9045
17573SOL    HW154726   2.362   6.754  11.046  0.1765  0.7717  1.0353
17573SOL    HW254727   2.437   6.803  10.924  1.4696 -1.8201  0.7188
17574SOL     OW54728   3.785   0.320   9.452  0.1665 -0.2156 -0.4117
17574SOL    HW154729   3.724   0.328   9.526  0.4243 -0.7275 -0.1347
17574SOL    HW254730   3.769   0.233   9.417  1.5626 -0.8431  0.4246
17575SOL     OW54731   9.970   6.398   3.733  0.4063 -0.5993 -0.2037
17575SOL    HW154732   9.878   6.415   3.752  0.4748  0.5532 -0.7615
17575SOL    HW254733  10.011   6.485   3.734  1.2243 -0.9411 -1.2608
17576SOL     OW54734   1.720   2.075   4.734  0.5890  0.6778  0.1877
17576SOL    HW154735   1.629   2.095   4.713  0.5562  0.1605 -0.1928
17576SOL    HW254736   1.732   2.106   4.824 -0.8373 -1.8900  1.3799
17577SOL     OW54737   4.010   1.883  10.819 -0.6011 -1.0364 -0.4409
17577SOL    HW154738   3.959   1.823  10.874 -1.2682 -1.2493 -1.2767
17577SOL    HW254739   3.945   1.930  10.767  0.0375 -1.0922 -1.3139
17578SOL     OW54740   0.246   8.016  10.382  0.3360 -0.2896 -0.7132
17578SOL    HW154741   0.200   8.037  10.301  0.7932  1.3004 -0.6107
17578SOL    HW254742   0.177   8.005  10.447 -0.0079  2.6510 -0.4230
17579SOL     OW54743   2.995   0.600   7.826 -0.1584 -0.1858 -0.6160
17579SOL    HW154744   3.026   0.600   7.917 -1.8726  0.3246  0.0217
17579SOL    HW254745   3.024   0.517   7.790 -0.5733 -0.9958  0.8338
17580SOL     OW54746   9.561   9.681   7.662  0.6594  0.5580 -0.0975
17580SOL    HW154747   9.567   9.681   7.758  1.0152 -0.1529 -0.1129
17580SOL    HW254748   9.478   9.637   7.644  0.3613  1.1147 -0.1112
17581SOL     OW54749   6.780  10.630  11.055 -0.4983 -0.5118 -0.3310
17581SOL    HW154750   6.862  10.581  11.060 -0.0530  0.3239  1.2794
17581SOL    HW254751   6.802  10.709  11.007  0.1762  0.6251  1.7471
17582SOL     OW54752   5.553   1.080   5.241 -0.1006 -0.6124  0.6417
17582SOL    HW154753   5.474   1.030   5.260 -1.1363  0.6896 -0.0224
17582SOL    HW254754   5.575   1.122   5.324 -1.4030  0.7074  0.3739
17583SOL     OW54755  10.085   8.349   2.332  0.0261 -0.6125 -0.1948
17583SOL    HW154756  10.034   8.292   2.274 -1.2872  1.0645 -0.7811
17583SOL    HW254757  10.172   8.354   2.291  0.1026 -1.9854 -0.2407
17584SOL     OW54758   3.595   6.288   4.692  0.6239 -0.0422 -0.3635
17584SOL    HW154759   3.525   6.243   4.645  0.3078  0.2787 -0.2004
17584SOL    HW254760   3.666   6.295   4.628  0.0608  0.7299 -0.9255
17585SOL     OW54761   4.158   9.364   9.298 -0.0228 -0.2787  0.0845
17585SOL    HW154762   4.230   9.310   9.267  1.4690  0.9783  1.1688
17585SOL    HW254763   4.115   9.395   9.219  2.5170  1.3586 -0.7759
17586SOL     OW54764   0.991   3.801   0.504 -0.0257  0.1427  0.5792
17586SOL    HW154765   0.953   3.863   0.442 -1.4606  0.3568  1.6196
17586SOL    HW254766   0.920   3.782   0.565  1.1663 -0.5079  1.8156
17587SOL     OW54767   2.431   7.098   8.129  0.5534  0.2864  0.2359
17587SOL    HW154768   2.500   7.159   8.157  0.5502  0.4208 -0.0390
17587SOL    HW254769   2.351   7.151   8.128  0.1533 -0.2248  1.9754
17588SOL     OW54770   4.079   7.604   2.204 -0.2993 -0.5511  0.1998
17588SOL    HW154771   4.047   7.565   2.286 -0.9820 -2.2088 -0.8058
17588SOL    HW254772   4.001   7.643   2.164 -0.0346 -0.0610  0.1525
17589SOL     OW54773  10.167   1.540   8.979 -0.0321 -0.2108 -0.0870
17589SOL    HW154774  10.170   1.510   8.888  1.0828  1.1581 -0.5357
17589SOL    HW254775  10.258   1.543   9.007 -0.4228 -2.4867  1.7903
17590SOL     OW54776   7.342  10.379   9.697 -0.1524  0.1107  0.5112
17590SOL    HW154777   7.286  10.353   9.624  0.2577 -0.7535  0.4848
17590SOL    HW254778   7.426  10.399   9.657  0.3685 -1.3367  0.8288
17591SOL     OW54779   2.514   9.519   8.877 -0.4231  0.0860 -0.3420
17591SOL    HW154780   2.448   9.587   8.872  0.5028  1.2875  2.0378
17591SOL    HW254781   2.470   9.444   8.918 -0.8917  0.0036 -0.9872
17592SOL     OW54782   8.773  10.953   0.979  0.1506 -0.0773  0.0386
17592SOL    HW154783   8.694  11.006   0.992  0.4096 -0.1469  2.0692
17592SOL    HW254784   8.742  10.863   0.978  0.2209 -0.1183  1.0886
17593SOL     OW54785  10.811  10.230   9.720 -0.2567 -0.5939  0.7806
17593SOL    HW154786  10.875  10.159   9.725 -1.6057 -1.8222  1.6173
17593SOL    HW254787  10.825  10.281   9.800  1.5657  0.9366 -0.4179
17594SOL     OW54788   5.738   2.121   1.001  0.4482 -0.3845  0.0606
17594SOL    HW154789   5.791   2.162   1.069  1.3575 -2.3141  0.5903
17594SOL    HW254790   5.801   2.090   0.936 -0.2822 -0.0088 -0.8493
17595SOL     OW54791   8.440   1.280   7.804  0.0210 -0.6845 -0.3297
17595SOL    HW154792   8.481   1.206   7.759  1.7283  0.1382 -0.2218
17595SOL    HW254793   8.444   1.256   7.897  2.6414  0.3872 -0.0591
17596SOL     OW54794   4.894   6.538  10.596  0.0113 -0.2931  0.0862
17596SOL    HW154795   4.833   6.584  10.538  1.2715  1.1507 -0.1439
17596SOL    HW254796   4.850   6.455  10.616 -2.0888  0.7634  0.0707
17597SOL     OW54797  10.722   3.237   4.411  0.2721  1.0285 -0.2128
17597SOL    HW154798  10.629   3.262   4.413 -0.0885  0.1217 -2.3808
17597SOL    HW254799  10.746   3.243   4.319  2.6920  2.2261  0.4347
17598SOL     OW54800   5.830   1.021   5.097 -0.6570 -0.6965 -0.0055
17598SOL    HW154801   5.743   1.026   5.057 -0.3285 -0.2425 -0.6810
17598SOL    HW254802   5.869   1.107   5.079 -0.4326 -0.5544  1.1387
17599SOL     OW54803   0.393   2.635   4.202 -0.0757 -0.0520  0.2385
17599SOL    HW154804   0.308   2.611   4.165 -1.1762  0.6922  2.1452
17599SOL    HW254805   0.406   2.575   4.275  0.6141  0.4028  0.5017
17600SOL     OW54806   0.527   0.952  11.222 -0.0639  0.1458 -0.0515
17600SOL    HW154807   0.519   0.861  11.195  0.1205 -0.0417  0.4963
17600SOL    HW254808   0.461   0.963  11.290  0.4893  0.1704  0.4962
17601SOL     OW54809   3.272   2.712   4.495 -0.3076 -0.4081 -0.6486
17601SOL    HW154810   3.328   2.771   4.444  0.7657 -0.2265  0.6649
17601SOL    HW254811   3.283   2.626   4.454  0.3710 -0.2268 -0.8574
17602SOL     OW54812   2.277   2.279   3.643  0.2429 -0.0848 -0.0569
17602SOL    HW154813   2.232   2.334   3.579 -0.1667  0.6710  0.8395
17602SOL    HW254814   2.217   2.206   3.659 -0.1188  0.2643  0.2092
17603SOL     OW54815   0.419   4.153   8.945  0.1406  0.2216  0.0889
17603SOL    HW154816   0.501   4.108   8.922  0.1804  0.9445 -1.2951
17603SOL    HW254817   0.423   4.162   9.040  1.0090 -1.0089  0.2000
17604SOL     OW54818   9.164   5.701   6.988  0.1912  0.6129 -0.3466
17604SOL    HW154819   9.193   5.716   7.078  1.0722  2.3188 -0.8770
17604SOL    HW254820   9.085   5.648   6.997  0.8437 -0.1501  1.3693
17605SOL     OW54821   7.172   6.970   9.132 -0.1412 -0.0620 -0.1506
17605SOL    HW154822   7.241   6.909   9.105 -1.4346 -1.9516  0.5785
17605SOL    HW254823   7.203   7.006   9.215  1.1607  1.2504 -1.1422
17606SOL     OW54824   9.008   8.374   1.284  0.4787  0.6656 -0.3189
17606SOL    HW154825   8.936   8.433   1.260  1.8812  2.5354 -0.1749
17606SOL    HW254826   9.042   8.409   1.366  2.3298  0.6042 -1.0106
17607SOL     OW54827   8.788   8.735   9.580  0.3338 -0.7133  0.6314
17607SOL    HW154828   8.865   8.737   9.637 -0.2593  1.7213  1.4432
17607SOL    HW254829   8.743   8.818   9.596 -1.2255 -1.0349 -1.5577
17608SOL     OW54830  10.978   3.591   1.928  0.0709 -0.3078  0.1117
17608SOL    HW154831  10.986   3.574   2.022 -0.3726 -1.0451  0.0242
17608SOL    HW254832  11.057   3.552   1.890  1.6321  2.3148  0.4278
17609SOL     OW54833   2.197   5.840   6.305  0.0510  0.0466  0.3854
17609SOL    HW154834   2.170   5.801   6.388 -0.6024 -1.4313 -0.4689
17609SOL    HW254835   2.119   5.887   6.274 -0.2811 -0.8250 -0.1593
17610SOL     OW54836   3.686   0.608  10.586  0.8398 -0.7106 -0.6212
17610SOL    HW154837   3.667   0.630  10.678  0.5197  1.2823 -1.1145
17610SOL    HW254838   3.779   0.585  10.586  0.4374 -2.5351  0.4701
17611SOL     OW54839   3.265  10.196   8.826 -0.0824  0.1608 -0.3937
17611SOL    HW154840   3.183  10.147   8.832 -0.1405  0.3586  0.6007
17611SOL    HW254841   3.238  10.284   8.801  0.0278 -0.2913 -2.2589
17612SOL     OW54842   0.947   3.856   7.853 -0.1854 -0.4826  0.2582
17612SOL    HW154843   0.917   3.857   7.762 -1.3405 -0.2742  0.6187
17612SOL    HW254844   0.987   3.942   7.865 -2.4178  0.6011  0.6532
17613SOL     OW54845   4.066  11.178   4.258  0.2623 -1.2617  0.0577
17613SOL    HW154846   3.998  11.153   4.321  1.7889 -0.3471  2.2041
17613SOL    HW254847   4.118  11.099   4.245 -0.3495 -1.5856 -0.4910
17614SOL     OW54848  10.348   9.567   4.938 -0.2085  0.4650 -0.6685
17614SOL    HW154849  10.397   9.645   4.964 -0.5019  0.2251  0.7246
17614SOL    HW254850  10.352   9.510   5.015 -0.8531 -0.4643 -1.3020
17615SOL     OW54851   1.785   5.414   6.543 -0.3368  0.7745  0.2292
17615SOL    HW154852   1.772   5.433   6.636 -0.8405  1.0489  0.1042
17615SOL    HW254853   1.821   5.325   6.541 -1.5211  0.2729  0.6192
17616SOL     OW54854  10.388   1.070   8.539  0.1885  0.1195 -0.4691
17616SOL    HW154855  10.451   1.006   8.572 -0.6470 -0.3111  0.3418
17616SOL    HW254856  10.309   1.019   8.523 -0.1785  0.7752 -0.7906
17617SOL     OW54857   6.857   2.091   3.503 -1.0137 -0.2798 -0.0936
17617SOL    HW154858   6.840   2.183   3.480  0.3169 -0.4925 -2.1729
17617SOL    HW254859   6.903   2.055   3.427 -3.0398 -3.1666 -0.1270
17618SOL     OW54860   2.758   4.685   9.126 -0.4167  0.9163 -0.7397
17618SOL    HW154861   2.783   4.600   9.090 -0.5534  1.7159 -2.8840
17618SOL    HW254862   2.797   4.687   9.213 -1.1976 -1.7001 -0.2467
17619SOL     OW54863   7.036   8.019   8.295  0.9360 -0.0769  0.0526
17619SOL    HW154864   7.057   8.088   8.233 -0.1417  0.5798  0.3919
17619SOL    HW254865   6.941   8.024   8.306  0.8260 -1.6367  0.0547
17620SOL     OW54866   8.420   7.674   8.184  0.4582 -0.0948  0.0170
17620SOL    HW154867   8.326   7.670   8.165  0.4073  0.2983  0.1853
17620SOL    HW254868   8.458   7.717   8.107  0.5119 -0.3296 -0.0882
17621SOL     OW54869   5.347   9.000   4.436  0.0525  0.1476  0.6014
17621SOL    HW154870   5.426   9.039   4.473 -0.2595  1.0439  0.3318
17621SOL    HW254871   5.323   9.058   4.364 -0.0607 -0.8798 -0.2242
17622SOL     OW54872   3.508   9.399   7.310 -0.2395  0.1347 -0.3071
17622SOL    HW154873   3.460   9.458   7.251  3.4044  3.4825 -0.3596
17622SOL    HW254874   3.501   9.440   7.396  0.8021 -0.4528  0.0723
17623SOL     OW54875   7.854   6.259  11.284  0.3017 -0.5988 -0.6699
17623SOL    HW154876   7.880   6.332  11.339 -3.2929  0.7586 -0.4788
17623SOL    HW254877   7.855   6.294  11.195 -0.6166 -0.5278 -0.6661
17624SOL     OW54878   6.415  10.186   1.251 -0.5413 -1.0430 -0.7545
17624SOL    HW154879   6.325  10.203   1.280 -0.8902 -1.7239 -1.4145
17624SOL    HW254880   6.469  10.209   1.327 -1.4874 -3.5922  0.8130
17625SOL     OW54881   7.152   0.417   3.221  0.5010  0.1911  0.1264
17625SOL    HW154882   7.146   0.375   3.136  0.9649  1.3079 -0.4795
17625SOL    HW254883   7.073   0.470   3.227  0.9288  0.8534 -0.0276
17626SOL     OW54884   4.460   3.355   9.209 -0.3412  0.3999 -0.1124
17626SOL    HW154885   4.451   3.302   9.288  1.9827  0.2328  0.0954
17626SOL    HW254886   4.512   3.301   9.149 -0.7374  1.1466 -1.1749
17627SOL     OW54887   2.717   7.812   0.658 -0.0064 -0.1550 -0.7918
17627SOL    HW154888   2.782   7.857   0.603  0.5758 -1.5139 -1.2528
17627SOL    HW254889   2.751   7.723   0.667 -0.9276 -0.4015  0.4413
17628SOL     OW54890   2.189   4.922   4.016 -0.1523 -0.1107 -0.4832
17628SOL    HW154891   2.130   4.892   4.085 -1.7505  0.9306 -1.3438
17628SOL    HW254892   2.269   4.946   4.062 -0.6261 -0.8844  0.8073
17629SOL     OW54893   9.085   9.697  11.060 -0.3670  0.2578  0.3902
17629SOL    HW154894   9.056   9.625  11.004 -1.0582  1.3958 -0.7669
17629SOL    HW254895   9.180   9.690  11.061 -0.4537 -1.1194  0.9356
17630SOL     OW54896   2.089  11.085  10.492 -0.2285  0.1420  0.2693
17630SOL    HW154897   2.029  11.028  10.444  0.2155  0.7473 -1.0546
17630SOL    HW254898   2.069  11.173  10.461 -0.5808  0.6991  1.9353
17631SOL     OW54899   2.065   4.976   7.276 -0.1481 -0.6057  0.0803
17631SOL    HW154900   2.082   4.891   7.318 -2.2905 -1.4254 -0.5832
17631SOL    HW254901   2.041   4.954   7.186 -2.9131  0.4201  0.4530
17632SOL     OW54902  11.076   1.445   9.985  0.4523 -0.7173 -0.9164
17632SOL    HW154903  11.087   1.532   9.948  1.6690 -0.0497  0.8426
17632SOL    HW254904  11.027   1.460  10.066 -1.7144 -2.0518 -1.8971
17633SOL     OW54905   4.717   2.542   2.016  0.7356  0.4422  0.1909
17633SOL    HW154906   4.698   2.635   2.002  1.6050  0.7184  0.7617
17633SOL    HW254907   4.784   2.541   2.084  0.1018 -0.6481  0.8282
17634SOL     OW54908  10.417   5.576   0.201 -0.7664 -0.1108  0.6100
17634SOL    HW154909  10.399   5.495   0.250  0.1209  0.0901  1.2970
17634SOL    HW254910  10.509   5.568   0.176 -1.7624 -1.4643 -3.4494
17635SOL     OW54911  10.996   9.029  10.303  0.5656  1.0713  0.1807
17635SOL    HW154912  10.972   9.005  10.393  0.0389  1.2871  0.1054
17635SOL    HW254913  10.912   9.030  10.256  0.9946 -0.7016 -0.7278
17636SOL     OW54914   9.616   4.380   1.036  0.1263  0.3587 -0.5026
17636SOL    HW154915   9.614   4.422   1.122  1.1252  1.1146 -0.8241
17636SOL    HW254916   9.572   4.441   0.977  0.5850  0.4551 -0.7578
17637SOL     OW54917   2.875   0.014  10.583 -0.5378 -0.2259  0.1771
17637SOL    HW154918   2.870  -0.031  10.667  0.6038  0.4393  0.6250
17637SOL    HW254919   2.804  -0.024  10.531 -1.2246 -0.6825  1.4110
17638SOL     OW54920  10.710   4.314   0.990  0.7849 -0.3073  0.7564
17638SOL    HW154921  10.697   4.337   0.898  1.4629  1.5436  1.0581
17638SOL    HW254922  10.739   4.223   0.989 -0.8620 -0.8693 -0.7046
17639SOL     OW54923   1.665   9.266  10.132  0.3543  0.5037  0.4292
17639SOL    HW154924   1.585   9.320  10.135 -0.0390  0.4741 -3.6243
17639SOL    HW254925   1.735   9.328  10.116  0.2863  0.1217 -1.5465
17640SOL     OW54926  10.297   8.664  10.351  0.0884  0.2586  0.2136
17640SOL    HW154927  10.282   8.576  10.314 -0.8158  0.6573 -0.4065
17640SOL    HW254928  10.392   8.675  10.349  0.1028  0.0964 -1.6350
17641SOL     OW54929   4.527   9.349   2.147  0.9159 -0.0951  0.2951
17641SOL    HW154930   4.510   9.410   2.075  0.1702  1.0207  1.3900
17641SOL    HW254931   4.596   9.391   2.198 -0.9277  0.8616  2.1534
17642SOL     OW54932   7.589  10.034  10.865  0.0138  0.0055  0.0413
17642SOL    HW154933   7.532  10.062  10.936 -0.7644 -0.4804 -0.3826
17642SOL    HW254934   7.567   9.941  10.851  0.6897 -0.1083 -0.3267
17643SOL     OW54935   0.116   2.554   0.089 -0.4366 -0.0927 -0.1985
17643SOL    HW154936   0.052   2.596   0.031  1.0663 -0.7028 -2.4421
17643SOL    HW254937   0.201   2.573   0.050  0.6165 -1.2067  1.4085
17644SOL     OW54938   4.134   7.627  11.076  0.0493  0.7477 -0.0809
17644SOL    HW154939   4.052   7.586  11.101  0.3356  0.5890  0.6109
17644SOL    HW254940   4.201   7.563  11.099  0.6663  2.2705  2.7346
17645SOL     OW54941   4.134   9.998   0.647  0.2797 -0.2239  0.1109
17645SOL    HW154942   4.206   9.943   0.615 -1.2062 -1.1827 -1.8023
17645SOL    HW254943   4.076  10.007   0.572 -0.2945  2.8178  0.7849
17646SOL     OW54944   9.420   8.772   0.629  0.3977  0.3852  0.0414
17646SOL    HW154945   9.337   8.799   0.589  0.4108 -1.1195 -1.0636
17646SOL    HW254946   9.397   8.746   0.718 -0.5095 -0.9220 -0.5495
17647SOL     OW54947   7.208  10.688   5.428 -0.2557  0.0481 -0.0257
17647SOL    HW154948   7.117  10.678   5.457  0.2691  1.5240  2.5243
17647SOL    HW254949   7.259  10.640   5.493  0.8807  1.0222 -0.1566
17648SOL     OW54950   3.025   0.161   7.704  0.1451 -0.3431 -0.0253
17648SOL    HW154951   3.066   0.092   7.652  0.4298 -0.6924  0.6382
17648SOL    HW254952   2.942   0.124   7.732 -0.2817  0.0731 -0.7270
17649SOL     OW54953   3.621   2.039   6.675 -0.1541  0.3620  0.7504
17649SOL    HW154954   3.555   2.064   6.610 -2.2279 -0.7240  2.3118
17649SOL    HW254955   3.644   2.121   6.718  1.2131  1.0907 -1.2332
17650SOL     OW54956   3.356   0.963   7.177  0.1919  0.1062  0.4567
17650SOL    HW154957   3.398   0.939   7.095  0.7642  0.1954  0.7142
17650SOL    HW254958   3.313   0.884   7.207 -2.1448  0.6889 -1.1509
17651SOL     OW54959   3.526   2.491   4.723  0.0034 -0.2828  0.2561
17651SOL    HW154960   3.554   2.418   4.777 -0.4461  0.0242  0.9208
17651SOL    HW254961   3.558   2.471   4.635 -0.9827 -1.7739  0.2100
17652SOL     OW54962  10.371   2.771   5.912 -0.1742  0.4468  0.1438
17652SOL    HW154963  10.349   2.799   5.823 -2.8400  2.7659  1.3845
17652SOL    HW254964  10.425   2.842   5.946  3.5111 -1.8347 -0.4451
17653SOL     OW54965   3.195   0.674   7.579 -0.3050 -0.3128  0.7388
17653SOL    HW154966   3.201   0.712   7.491 -0.1700 -0.3959  0.7107
17653SOL    HW254967   3.260   0.603   7.579 -0.7807 -0.7499  0.6911
17654SOL     OW54968   7.437   5.852   2.213 -0.5727  0.7089  0.3054
17654SOL    HW154969   7.455   5.935   2.169 -1.0565 -0.1888 -1.7302
17654SOL    HW254970   7.504   5.792   2.179  0.0043  0.3446  2.0264
17655SOL     OW54971   1.859  10.753  10.110  0.1207 -0.5491  0.0255
17655SOL    HW154972   1.937  10.768  10.056 -0.2597 -0.7515 -0.5776
17655SOL    HW254973   1.817  10.839  10.116 -0.5772 -0.7988 -1.1473
17656SOL     OW54974   3.067   9.776   9.960 -0.2357  0.4832  0.2343
17656SOL    HW154975   3.128   9.847   9.981 -0.0784  0.1276  1.0297
17656SOL    HW254976   3.014   9.766  10.039  0.7098 -1.2486  0.7025
17657SOL     OW54977   0.808   1.932   9.818  0.0360  0.2682 -0.0814
17657SOL    HW154978   0.871   1.960   9.753  0.4896  0.9737  0.6435
17657SOL    HW254979   0.760   2.012   9.841  1.1026  0.4312  1.7520
17658SOL     OW54980   2.643   5.676   7.411 -0.1620 -0.1006 -0.2040
17658SOL    HW154981   2.568   5.729   7.384  1.0245  0.4449 -2.7092
17658SOL    HW254982   2.634   5.669   7.506 -1.0509  3.5697  0.1479
17659SOL     OW54983   3.042   0.201  10.244  0.3959  0.3300 -0.4264
17659SOL    HW154984   3.069   0.138  10.311 -0.8319  0.3998  0.1528
17659SOL    HW254985   3.123   0.223  10.198  1.2207  0.0657  0.8562
17660SOL     OW54986   9.742   0.639   5.000 -0.3341 -0.0937 -0.5896
17660SOL    HW154987   9.821   0.658   5.050 -0.9730 -0.1931  0.4944
17660SOL    HW254988   9.774   0.610   4.915  0.7769  0.4233 -0.3740
17661SOL     OW54989   5.920   6.293   2.002 -0.2030  0.0849  0.0988
17661SOL    HW154990   5.996   6.326   1.953 -0.7178 -1.1329 -1.6092
17661SOL    HW254991   5.871   6.371   2.027  1.9219  0.9620  1.8755
17662SOL     OW54992   5.733   0.872   9.063  0.4654 -0.0316  0.3999
17662SOL    HW154993   5.763   0.817   8.991 -0.8347 -0.4006  0.1134
17662SOL    HW254994   5.638   0.870   9.057  0.3392  0.2525  1.9010
17663SOL     OW54995   4.582  11.075  10.191  0.3635  0.3536  0.5413
17663SOL    HW154996   4.508  11.047  10.245 -0.1450  1.6543  0.5579
17663SOL    HW254997   4.542  11.111  10.113  1.0249  0.3761  0.2078
17664SOL     OW54998   6.842   0.287  11.261  0.4493  0.3461 -0.0068
17664SOL    HW154999   6.808   0.212  11.311 -0.3084 -1.9077 -3.5067
17664SOL    HW255000   6.937   0.277  11.265  0.3677 -0.5938 -0.0664
17665SOL     OW55001   8.836   1.226  10.984 -0.3684 -0.5307  0.2819
17665SOL    HW155002   8.874   1.139  10.999  0.7159 -0.3837 -1.3358
17665SOL    HW255003   8.834   1.266  11.071  2.4125 -0.9060  0.6296
17666SOL     OW55004   5.752   2.578  10.891  0.1655 -0.1024 -1.1599
17666SOL    HW155005   5.724   2.511  10.829 -1.2294  0.4038 -1.1247
17666SOL    HW255006   5.811   2.533  10.951 -1.3085 -1.5138 -0.6913
17667SOL     OW55007   3.283  10.109   0.673  0.3260 -0.9241 -0.1135
17667SOL    HW155008   3.215  10.175   0.657 -0.4040 -0.7569  3.1446
17667SOL    HW255009   3.307  10.079   0.585 -3.3972 -0.4391 -1.4850
17668SOL     OW55010   0.305   4.942   0.452 -0.9182  0.1151 -0.3176
17668SOL    HW155011   0.243   4.958   0.381  0.7488  0.7365 -1.7042
17668SOL    HW255012   0.385   4.914   0.408  0.5073  1.5289  1.2262
17669SOL     OW55013   8.062   1.469   7.667 -0.1321 -0.3725  0.5793
17669SOL    HW155014   8.115   1.461   7.747 -0.5182 -1.7672  0.7195
17669SOL    HW255015   8.126   1.471   7.596  0.1432 -1.3877  0.7893
17670SOL     OW55016   8.038   0.938   3.434 -0.0162  0.0084 -0.1006
17670SOL    HW155017   8.123   0.982   3.434  0.0511 -0.1176 -0.4977
17670SOL    HW255018   7.977   1.002   3.470  0.6438 -0.6923  2.4426
17671SOL     OW55019  11.098   4.533   8.926  0.1764 -0.5635 -0.2413
17671SOL    HW155020  11.150   4.482   8.864 -1.7230  0.3571 -2.7446
17671SOL    HW255021  11.026   4.474   8.950  0.7876 -0.8399  1.0088
17672SOL     OW55022   2.970   0.989  11.156 -0.1908  0.4166 -0.4343
17672SOL    HW155023   2.875   0.995  11.154 -0.2565 -0.5437 -0.5700
17672SOL    HW255024   2.988   0.915  11.214  0.4860  0.7516 -0.2040
17673SOL     OW55025   2.020   6.535   8.916  0.3303  0.5499 -0.0359
17673SOL    HW155026   2.051   6.448   8.939  2.6646  1.0432 -0.9694
17673SOL    HW255027   2.084   6.567   8.852 -1.3085  2.3552 -0.8977
17674SOL     OW55028   5.032   3.105   8.974  0.3666 -0.6195  0.3847
17674SOL    HW155029   4.996   3.078   8.890 -1.9904 -0.0692  1.1493
17674SOL    HW255030   5.098   3.171   8.952 -2.1503  1.6531 -1.0204
17675SOL     OW55031   9.981  11.107  10.572  0.3779 -0.5579 -0.0495
17675SOL    HW155032  10.068  11.104  10.611  0.4382 -1.0941 -0.2153
17675SOL    HW255033   9.987  11.049  10.496  0.5432  1.1793 -1.4318
17676SOL     OW55034   4.190   8.229   8.835  0.1634 -0.1895  0.4508
17676SOL    HW155035   4.101   8.257   8.859  0.4008 -0.1952  1.3348
17676SOL    HW255036   4.176   8.150   8.782 -0.5808  1.8814 -2.7590
17677SOL     OW55037   7.721  11.038   2.585  0.1701  0.1019 -0.1798
17677SOL    HW155038   7.628  11.033   2.607 -0.2869  1.2504 -1.6844
17677SOL    HW255039   7.739  11.132   2.577  1.9435  0.0224  1.8674
17678SOL     OW55040   4.481   8.413   0.970  0.2180  0.5768 -0.1221
17678SOL    HW155041   4.401   8.376   1.006 -0.2496  0.7162 -1.0063
17678SOL    HW255042   4.509   8.478   1.034  1.2205 -1.4740  1.6328
17679SOL     OW55043   5.189   3.499   0.992  0.3172 -0.0863  0.1871
17679SOL    HW155044   5.230   3.513   0.906 -0.7799 -1.0013 -0.5129
17679SOL    HW255045   5.140   3.418   0.982  1.6334 -1.2410  2.2590
17680SOL     OW55046   2.244   9.035   2.493 -0.4962 -0.3356  0.0604
17680SOL    HW155047   2.286   8.962   2.538  2.3040  1.1463  0.0964
17680SOL    HW255048   2.175   9.064   2.553 -0.8308 -2.0998  0.5849
17681SOL     OW55049   4.393   1.104   3.810 -0.1410  0.7776  0.3414
17681SOL    HW155050   4.394   1.049   3.732 -2.0026 -1.0473  1.4875
17681SOL    HW255051   4.474   1.155   3.805  2.2599 -2.7715 -0.3579
17682SOL     OW55052   6.050   9.775   5.849  0.0373 -0.4966 -0.6871
17682SOL    HW155053   5.983   9.709   5.869 -2.1470  1.7135 -0.1699
17682SOL    HW255054   6.050   9.781   5.754 -1.6351  0.4561 -0.6743
17683SOL     OW55055   4.301   6.879  10.958 -0.5583 -0.6025  0.0980
17683SOL    HW155056   4.341   6.818  10.897 -1.1982 -0.4885 -0.4516
17683SOL    HW255057   4.211   6.849  10.967 -1.8691  1.9697 -2.6468
17684SOL     OW55058   7.805   1.125   3.601 -0.3590  0.1314 -0.0294
17684SOL    HW155059   7.779   1.194   3.541  0.5624  1.2367  0.7939
17684SOL    HW255060   7.787   1.160   3.688 -1.4667 -1.3587  0.3815
17685SOL     OW55061   3.643   0.627   4.573  1.0064  0.9126 -0.6617
17685SOL    HW155062   3.640   0.561   4.503 -1.1129 -0.8947  0.9954
17685SOL    HW255063   3.722   0.605   4.623  1.2776  0.7708 -1.1414
17686SOL     OW55064   7.156   0.246   3.535  0.1649  0.1419 -0.2114
17686SOL    HW155065   7.174   0.262   3.442 -0.9441  0.4035 -0.3927
17686SOL    HW255066   7.108   0.163   3.536 -1.8959  1.2565 -0.1332
17687SOL     OW55067   2.423   3.119   9.524 -0.2686 -0.5478 -0.2658
17687SOL    HW155068   2.389   3.044   9.572 -0.9866 -0.2656 -0.3276
17687SOL    HW255069   2.440   3.085   9.436  0.9663 -1.0401  0.1448
17688SOL     OW55070   8.387   0.754   2.640  0.5249 -0.0940 -0.7655
17688SOL    HW155071   8.433   0.673   2.664  3.2129  1.3895 -0.4811
17688SOL    HW255072   8.313   0.758   2.701  1.9772 -0.9478  1.1979
17689SOL     OW55073   8.140   7.851   3.792 -0.4046  0.3132  0.0104
17689SOL    HW155074   8.045   7.854   3.804 -0.1501  0.0757  2.6245
17689SOL    HW255075   8.161   7.933   3.747 -2.1672 -1.3790 -4.3724
17690SOL     OW55076   9.345   4.565   8.052 -0.0809 -0.2491 -1.4514
17690SOL    HW155077   9.355   4.660   8.044 -0.3007 -0.0620  0.1970
17690SOL    HW255078   9.395   4.542   8.130 -1.5360 -1.2015 -0.7454
17691SOL     OW55079   8.041   9.711   6.766 -0.2420 -0.2752  0.7127
17691SOL    HW155080   8.079   9.714   6.853 -1.9987 -1.0359  1.5556
17691SOL    HW255081   8.114   9.688   6.709  1.1850  1.4006  1.7777
17692SOL     OW55082   3.488  10.887   3.304 -0.0400  0.3433  0.1771
17692SOL    HW155083   3.581  10.902   3.288 -0.2376  1.4374 -0.0731
17692SOL    HW255084   3.478  10.792   3.305  1.0612  0.2170  0.1210
17693SOL     OW55085   0.448   7.768   6.910  0.1942 -0.3711 -1.1297
17693SOL    HW155086   0.467   7.856   6.878  1.5901 -0.3272 -0.2656
17693SOL    HW255087   0.412   7.722   6.834  1.0874  0.4327 -2.0733
17694SOL     OW55088   2.417   9.289   3.342 -0.2391  0.7341  0.3657
17694SOL    HW155089   2.452   9.263   3.257  1.2543  1.5568  0.6782
17694SOL    HW255090   2.344   9.347   3.322 -1.3433 -0.8113 -0.3227
17695SOL     OW55091   4.608   2.291   6.194 -0.4496 -0.1176  0.0534
17695SOL    HW155092   4.631   2.376   6.231  0.7701 -0.7924  0.8926
17695SOL    HW255093   4.552   2.251   6.261  2.0196 -1.4711  1.4386
17696SOL     OW55094   7.442   4.982   2.030 -0.4150 -0.3437 -0.2771
17696SOL    HW155095   7.434   4.972   2.125  1.2359  1.8291  0.1582
17696SOL    HW255096   7.386   4.913   1.995 -0.3001 -1.8713  2.2453
17697SOL     OW55097  10.658   7.426   3.089  0.0450 -0.4628 -0.4023
17697SOL    HW155098  10.689   7.516   3.077 -0.5694 -0.3692 -1.4525
17697SOL    HW255099  10.687   7.380   3.010 -0.1215 -1.0435 -0.1297
17698SOL     OW55100   9.629   5.284   2.743 -0.3226 -0.2379 -0.1330
17698SOL    HW155101   9.700   5.235   2.703 -0.2207  1.6925 -2.5514
17698SOL    HW255102   9.636   5.372   2.706 -3.8441  0.1012 -0.4170
17699SOL     OW55103   8.136   4.037   6.398  0.0648  0.4390  0.1373
17699SOL    HW155104   8.195   4.112   6.400 -0.7542  1.1451 -1.0834
17699SOL    HW255105   8.125   4.013   6.490 -1.5723  3.3586  0.8315
17700SOL     OW55106   1.918  10.334   7.668  0.0433  0.5527  0.8182
17700SOL    HW155107   1.954  10.283   7.596 -1.4595 -1.9237  1.7030
17700SOL    HW255108   1.900  10.420   7.631 -1.3079 -0.8263 -1.9592
17701SOL     OW55109   7.294   5.335   0.946  0.5264  0.0483 -0.4276
17701SOL    HW155110   7.311   5.266   1.010 -0.2569 -0.4840 -0.7801
17701SOL    HW255111   7.364   5.325   0.881  0.4485 -0.3735 -0.4451
17702SOL     OW55112   7.770   1.032   5.786  0.6004 -0.3041  0.2114
17702SOL    HW155113   7.826   1.102   5.752  1.3713  0.0175  2.0297
17702SOL    HW255114   7.719   1.073   5.855 -2.3131 -0.4809 -1.6424
17703SOL     OW55115   8.396   4.422   8.857 -0.0698 -0.4674 -0.4539
17703SOL    HW155116   8.327   4.486   8.842 -0.4265 -0.3660  1.3528
17703SOL    HW255117   8.443   4.455   8.934  0.2492 -1.9585  0.0244
17704SOL     OW55118   1.965   7.346   4.072  0.0397  0.2068 -0.1178
17704SOL    HW155119   1.963   7.441   4.071  1.4599  0.2562  0.0691
17704SOL    HW255120   1.981   7.320   3.982  1.2556  0.2166  0.0813
17705SOL     OW55121   3.378   2.328   5.653  0.1537 -0.0927 -0.1423
17705SOL    HW155122   3.446   2.296   5.713 -1.5024 -1.5266  1.0760
17705SOL    HW255123   3.326   2.250   5.633 -1.5622  1.0810 -0.4417
17706SOL     OW55124   5.900  11.249  10.439  0.1649 -0.4192  0.5797
17706SOL    HW155125   5.857  11.187  10.497  0.1215 -1.6927 -0.7659
17706SOL    HW255126   5.992  11.248  10.467 -0.1819  0.4532  1.8511
17707SOL     OW55127   5.155   3.362   4.986  0.4708  0.2125 -0.6240
17707SOL    HW155128   5.148   3.328   4.897 -0.4875 -0.5256 -0.2982
17707SOL    HW255129   5.197   3.292   5.036  1.6181  0.8831 -0.6087
17708SOL     OW55130   0.136   5.551   4.619  0.2498 -0.1981  0.0341
17708SOL    HW155131   0.118   5.559   4.525 -2.7958  1.4790  0.6196
17708SOL    HW255132   0.204   5.615   4.636 -1.6397  2.1374 -0.5837
17709SOL     OW55133   8.340   2.850   7.364  0.8689  0.0475 -0.4366
17709SOL    HW155134   8.246   2.849   7.350  0.7865  1.7699 -0.2131
17709SOL    HW255135   8.351   2.884   7.453  1.6718 -1.4032  0.0429
17710SOL     OW55136   5.596  11.006   7.353 -0.0157  0.0235 -0.0334
17710SOL    HW155137   5.530  10.988   7.286 -0.0432  0.6123 -0.1705
17710SOL    HW255138   5.549  11.057   7.420 -0.2937 -1.5402  1.0203
17711SOL     OW55139   3.097   8.002   5.410  0.4042  0.2018 -0.1249
17711SOL    HW155140   3.104   7.914   5.373 -0.1465 -0.1107  0.4972
17711SOL    HW255141   3.180   8.015   5.456  1.2398  0.7253 -1.6978
17712SOL     OW55142   8.222   0.153   2.930 -0.2064 -0.2160 -0.0244
17712SOL    HW155143   8.209   0.061   2.906 -0.4168 -0.2575  0.2478
17712SOL    HW255144   8.299   0.152   2.987 -0.8010 -0.3565  0.7924
17713SOL     OW55145   6.523   2.063   2.813 -0.4020 -0.4734 -0.5288
17713SOL    HW155146   6.540   2.109   2.731  0.5081  2.0318  0.9119
17713SOL    HW255147   6.489   2.131   2.871  3.3922 -0.8610  2.5487
17714SOL     OW55148   3.256   8.634   6.470 -0.1287  0.2542 -0.3473
17714SOL    HW155149   3.258   8.571   6.398  0.0764 -0.8079  0.5615
17714SOL    HW255150   3.210   8.589   6.541 -0.0716  1.1676  0.2942
17715SOL     OW55151   0.220  10.363   9.718 -0.5462 -0.4559 -0.4973
17715SOL    HW155152   0.148  10.422   9.698 -0.2931 -0.0859 -0.3243
17715SOL    HW255153   0.195  10.280   9.677 -2.0880 -0.9765  1.3729
17716SOL     OW55154  10.937   3.839  11.144 -0.2490  0.2699 -0.6605
17716SOL    HW155155  10.918   3.749  11.172  0.4232 -0.2822 -1.9018
17716SOL    HW255156  10.886   3.894  11.204  2.3604 -0.7085  2.8025
17717SOL     OW55157   7.024  10.851   4.304 -0.0806 -0.0921 -0.5618
17717SOL    HW155158   7.104  10.881   4.345 -0.3368 -1.5518  1.1116
17717SOL    HW255159   6.963  10.837   4.376 -1.1413 -1.0599 -1.5964
17718SOL     OW55160   7.358   2.908   3.901 -0.3740  0.6296 -0.5732
17718SOL    HW155161   7.293   2.841   3.883 -2.0856  1.4615  2.0141
17718SOL    HW255162   7.428   2.862   3.948 -2.2476  0.7385  2.6057
17719SOL     OW55163   4.891   5.091  10.600 -1.3573 -0.2627 -0.0720
17719SOL    HW155164   4.874   5.073  10.693  0.3041  1.6775  0.6960
17719SOL    HW255165   4.934   5.012  10.568  2.2614  0.5937  2.1266
17720SOL     OW55166   7.260   5.665   9.675  0.1170  0.0420 -0.4036
17720SOL    HW155167   7.290   5.658   9.765  0.4610 -0.4123 -0.5491
17720SOL    HW255168   7.225   5.578   9.654 -3.0061  0.9962  0.3414
17721SOL     OW55169   2.100  10.121   5.808 -0.0803  0.1547 -0.5481
17721SOL    HW155170   2.007  10.139   5.819 -0.3132 -2.1799  2.9123
17721SOL    HW255171   2.135  10.121   5.897  3.4423  1.4606 -1.7222
17722SOL     OW55172  10.160   8.088   4.170 -0.1031  0.2722  0.2392
17722SOL    HW155173  10.122   8.160   4.218 -1.7386 -0.9718  0.8950
17722SOL    HW255174  10.150   8.012   4.227  2.8817 -0.2850  0.2118
17723SOL     OW55175   1.551  10.567   0.688 -0.2521 -0.5591 -0.2659
17723SOL    HW155176   1.543  10.472   0.686  0.8692 -0.6682 -0.5528
17723SOL    HW255177   1.630  10.583   0.740 -1.1753  0.2727  0.9139
17724SOL     OW55178   3.047   8.929   3.102  0.1375 -0.0916 -0.1987
17724SOL    HW155179   3.130   8.909   3.058 -1.1277 -0.1081 -2.7512
17724SOL    HW255180   3.044   9.025   3.104  0.8816 -0.0782  1.3155
17725SOL     OW55181   4.277  10.734   2.646  0.0322 -0.0203 -0.0944
17725SOL    HW155182   4.261  10.826   2.623  1.6625  0.0773 -0.9961
17725SOL    HW255183   4.208  10.686   2.600  0.2620  0.6089 -1.1266
17726SOL     OW55184   4.053  10.614   2.513  0.1104 -0.7745  0.4950
17726SOL    HW155185   4.074  10.538   2.458 -1.7515  1.0403 -3.1132
17726SOL    HW255186   3.966  10.595   2.548  0.5591 -1.1869  1.4072
17727SOL     OW55187   4.853   1.552  10.436 -1.3360  0.1916 -0.0833
17727SOL    HW155188   4.940   1.514  10.439 -1.1163  0.7320  0.8371
17727SOL    HW255189   4.795   1.481  10.465 -0.8290  0.7554  2.6165
17728SOL     OW55190   7.762   7.559   7.933  0.3597 -0.3373 -0.1599
17728SOL    HW155191   7.834   7.550   7.996 -0.2365  1.5056  0.8525
17728SOL    HW255192   7.765   7.651   7.906 -0.5443 -0.6590 -1.4331
17729SOL     OW55193   2.750   7.597   7.374 -0.3528  0.4268  0.3195
17729SOL    HW155194   2.685   7.538   7.335 -1.7761 -0.4279  3.6157
17729SOL    HW255195   2.832   7.549   7.368 -0.3301  0.6356 -2.0648
17730SOL     OW55196   9.016   1.118   6.960  0.0319 -0.3586  0.0043
17730SOL    HW155197   9.039   1.025   6.949 -0.2578 -0.4165 -0.1133
17730SOL    HW255198   9.077   1.164   6.903 -0.5912 -0.5626 -0.8503
17731SOL     OW55199   2.485   8.346   3.781 -0.3441 -0.3198  0.4086
17731SOL    HW155200   2.558   8.374   3.837 -2.4512  2.7286  1.9694
17731SOL    HW255201   2.452   8.266   3.823  0.0261  0.2138  1.7945
17732SOL     OW55202  10.582   5.788   2.513  0.2585  0.1477  0.1877
17732SOL    HW155203  10.634   5.709   2.512  1.6554  1.0449 -0.3465
17732SOL    HW255204  10.626   5.846   2.576  1.9699  2.1970 -2.6650
17733SOL     OW55205   2.467   7.130   2.264  0.1895  0.0747 -1.0715
17733SOL    HW155206   2.482   7.145   2.170 -0.6585  0.1521 -1.2028
17733SOL    HW255207   2.402   7.195   2.289  3.5747  3.1263  0.6355
17734SOL     OW55208  10.478   0.378   5.284  0.4066 -0.2978 -0.3818
17734SOL    HW155209  10.539   0.304   5.281  0.5147 -0.2133 -0.2721
17734SOL    HW255210  10.395   0.338   5.311  0.1299 -0.5882 -1.6117
17735SOL     OW55211   7.098   4.965   9.311 -0.4850  0.3442 -0.0816
17735SOL    HW155212   7.187   4.932   9.297 -0.6324 -0.0505 -0.1054
17735SOL    HW255213   7.077   4.939   9.401 -1.6017 -2.0405 -0.9298
17736SOL     OW55214  10.951   1.326   1.554 -0.0631  0.1230 -0.3585
17736SOL    HW155215  10.922   1.367   1.472  0.8259  1.6227  0.0511
17736SOL    HW255216  10.978   1.238   1.528 -0.3120  0.3824 -1.5780
17737SOL     OW55217   2.475  11.024   2.660  0.2123 -0.6361 -0.3226
17737SOL    HW155218   2.388  10.984   2.653  1.1291 -2.7525 -0.4066
17737SOL    HW255219   2.495  11.021   2.754 -0.4308  1.3995 -0.0675
17738SOL     OW55220   5.979   3.675   7.227  0.0429  0.0958 -0.2372
17738SOL    HW155221   6.066   3.660   7.264 -0.5057  0.5009  1.2487
17738SOL    HW255222   5.994   3.673   7.132  1.4224 -1.2388 -0.0390
17739SOL     OW55223   6.949  10.497   5.843 -0.2854  0.4203 -0.3654
17739SOL    HW155224   6.999  10.434   5.792 -1.1510  0.3978 -1.2147
17739SOL    HW255225   6.948  10.462   5.932  1.2894  0.4910 -0.3064
17740SOL     OW55226   1.242   8.529   7.922  0.2009 -0.1846 -0.8221
17740SOL    HW155227   1.335   8.524   7.943 -0.1427  0.4214  1.0720
17740SOL    HW255228   1.231   8.612   7.876  0.2726  0.9218  1.0744
17741SOL     OW55229   0.555   9.106   4.175 -0.2658  0.1670 -0.6670
17741SOL    HW155230   0.601   9.188   4.156 -0.2732  0.1186 -0.8930
17741SOL    HW255231   0.507   9.086   4.095 -1.2959  0.6237 -0.1861
17742SOL     OW55232   4.612   1.174   1.866  0.7699  0.0457  0.2989
17742SOL    HW155233   4.651   1.151   1.781  1.2300  0.3148  0.4328
17742SOL    HW255234   4.551   1.103   1.884 -1.3980  1.3093 -1.5407
17743SOL     OW55235   3.897   0.300   7.223  0.2680 -0.4711 -0.3186
17743SOL    HW155236   3.859   0.267   7.304  0.2695 -1.6486 -0.7708
17743SOL    HW255237   3.831   0.283   7.157  0.6284 -0.3508 -0.7140
17744SOL     OW55238   2.935   1.435  10.765 -0.3415  0.8811  0.0558
17744SOL    HW155239   2.899   1.509  10.716  0.4796  0.6052 -1.0132
17744SOL    HW255240   2.939   1.364  10.701 -1.4200 -0.2041  1.1473
17745SOL     OW55241   0.276   4.200   8.417 -0.0072 -0.3540 -0.4204
17745SOL    HW155242   0.300   4.230   8.505  1.2736 -1.3965 -0.3751
17745SOL    HW255243   0.357   4.207   8.367 -0.9423  1.0876 -1.7970
17746SOL     OW55244   1.023   7.529   7.761 -0.5575 -0.3925 -0.2693
17746SOL    HW155245   1.046   7.621   7.777  0.3105 -0.0079 -3.2330
17746SOL    HW255246   1.079   7.480   7.822 -0.2497  0.9691  0.6027
17747SOL     OW55247   1.929  11.255   1.666  0.8257 -0.0317 -0.2525
17747SOL    HW155248   1.957  11.171   1.702  1.7177  1.8823  4.1522
17747SOL    HW255249   1.837  11.262   1.692  0.6938  0.3085 -0.7882
17748SOL     OW55250   6.326  10.642   6.599  0.0207  0.0012 -0.0836
17748SOL    HW155251   6.391  10.700   6.558 -0.0905 -1.6566 -2.8423
17748SOL    HW255252   6.363  10.554   6.589 -1.2363 -0.7007  1.1852
17749SOL     OW55253   5.001   5.427  10.105  0.0306  0.2067  0.6940
17749SOL    HW155254   4.911   5.402  10.128 -0.0040  1.0239  1.5065
17749SOL    HW255255   5.054   5.390  10.175  0.1828  0.7821  0.8896
17750SOL     OW55256   1.757   9.860   1.859 -0.1914 -0.0325  0.0814
17750SOL    HW155257   1.771   9.781   1.911  0.1325 -0.0982 -0.0999
17750SOL    HW255258   1.830   9.861   1.797 -0.4287  0.1826 -0.1999
17751SOL     OW55259   9.098   8.404   2.591 -0.1357 -0.0459 -0.5612
17751SOL    HW155260   9.027   8.432   2.649 -0.3891  2.1239 -1.8276
17751SOL    HW255261   9.061   8.330   2.542  0.5165 -2.8405  2.7871
17752SOL     OW55262   9.291   2.315   1.910  0.1914 -0.3700 -0.4397
17752SOL    HW155263   9.227   2.322   1.981 -0.4245 -1.6579 -0.8549
17752SOL    HW255264   9.242   2.279   1.836  1.0450  0.0813 -1.2421
17753SOL     OW55265   1.104   1.512   8.338 -0.8435  0.0507  0.8372
17753SOL    HW155266   1.025   1.557   8.370 -1.0341  0.5488 -0.3015
17753SOL    HW255267   1.084   1.419   8.346 -0.7451  0.1328  2.4805
17754SOL     OW55268  10.586   1.688   7.278 -0.7255  0.1830  0.3490
17754SOL    HW155269  10.598   1.776   7.313 -0.0972 -0.0211  0.6685
17754SOL    HW255270  10.666   1.641   7.304  0.5284  0.4355 -2.6146
17755SOL     OW55271   8.897   3.614  10.129  0.4365 -0.5727 -0.5207
17755SOL    HW155272   8.816   3.666  10.135  0.1867 -0.9201 -0.8708
17755SOL    HW255273   8.967   3.678  10.146  0.0549 -0.4481  0.7508
17756SOL     OW55274   8.527   4.913   0.203 -0.2005 -0.6699  1.0787
17756SOL    HW155275   8.573   4.847   0.254 -0.7032 -0.4539  1.8525
17756SOL    HW255276   8.590   4.942   0.138  0.6580 -0.5953  1.9124
17757SOL     OW55277   0.619   6.046   0.521  0.0235 -0.7770 -0.7625
17757SOL    HW155278   0.579   6.073   0.604  1.8820 -0.0370 -0.0721
17757SOL    HW255279   0.614   5.950   0.523  1.2767 -0.8459  0.8716
17758SOL     OW55280   5.248   8.649   9.671 -0.0638  0.5775 -0.5871
17758SOL    HW155281   5.271   8.708   9.742  3.6129 -0.3418 -0.8076
17758SOL    HW255282   5.307   8.672   9.600  1.6549 -3.2087 -0.6621
17759SOL     OW55283   7.253   9.952  10.271  0.4759  0.3191 -0.5716
17759SOL    HW155284   7.254   9.869  10.318  0.2000  0.5830 -0.0825
17759SOL    HW255285   7.261   9.929  10.179  0.3824 -0.2498 -0.4370
17760SOL     OW55286   8.280   3.326   3.334 -0.1743 -0.2581 -0.1874
17760SOL    HW155287   8.203   3.382   3.346  0.2501  0.2425  0.2593
17760SOL    HW255288   8.278   3.301   3.242 -0.0655  0.9699 -0.5437
17761SOL     OW55289   8.503   6.326  10.655 -0.3250 -0.3752  0.0363
17761SOL    HW155290   8.516   6.402  10.599 -1.9546 -0.6570 -0.7961
17761SOL    HW255291   8.526   6.251  10.600  0.7926 -0.5267  0.6889
17762SOL     OW55292   2.193   9.121   9.007 -0.4728  0.1821 -1.0559
17762SOL    HW155293   2.208   9.027   8.993 -0.4847  0.1038 -0.5541
17762SOL    HW255294   2.139   9.125   9.086 -0.6445  0.6051 -1.1928
17763SOL     OW55295   9.915   4.564   1.974  0.1679  0.0051 -0.6776
17763SOL    HW155296   9.870   4.479   1.978  1.3997 -0.6657  3.1438
17763SOL    HW255297  10.008   4.541   1.977  0.5544  1.5020 -0.6226
17764SOL     OW55298   7.753   7.055  11.032  0.0506 -0.7099  0.7190
17764SOL    HW155299   7.737   6.971  10.989  0.7070 -1.3311  1.6581
17764SOL    HW255300   7.833   7.042  11.082 -0.0291  0.3788  1.1644
17765SOL     OW55301   3.387   9.376   5.770  0.2899  0.0172 -0.6702
17765SOL    HW155302   3.327   9.415   5.834 -0.7723 -0.7567 -1.1591
17765SOL    HW255303   3.474   9.395   5.804 -0.2464 -0.2026  0.9073
17766SOL     OW55304   1.165   7.462   3.486 -0.0101 -0.0381 -0.5538
17766SOL    HW155305   1.218   7.541   3.477 -1.9079  1.1585 -2.0552
17766SOL    HW255306   1.125   7.451   3.400  0.2298 -2.7168 -0.4168
17767SOL     OW55307   5.824   2.645   6.512 -0.0525  0.2429 -0.0472
17767SOL    HW155308   5.729   2.645   6.527 -0.0225  0.0076  0.1470
17767SOL    HW255309   5.852   2.733   6.539  0.0595 -0.2986  1.7287
17768SOL     OW55310   1.214   6.998   3.362 -0.0252  0.2537  0.3252
17768SOL    HW155311   1.265   7.069   3.322  0.7900 -0.5957 -0.1655
17768SOL    HW255312   1.210   6.930   3.295  0.4503 -0.7586  1.2860
17769SOL     OW55313   5.703   2.560   4.995 -0.9503 -0.4295 -0.1685
17769SOL    HW155314   5.650   2.577   4.917 -1.8935  1.7933  0.8724
17769SOL    HW255315   5.645   2.582   5.068  1.3931  2.3736  1.0414
17770SOL     OW55316   1.472   9.403   2.846  0.0413  0.4983 -0.0428
17770SOL    HW155317   1.473   9.308   2.862 -1.7427  0.2613 -1.0784
17770SOL    HW255318   1.518   9.440   2.921 -1.3651 -1.0408  1.6930
17771SOL     OW55319   2.768   1.313   6.524  0.5477 -0.1357  0.1838
17771SOL    HW155320   2.817   1.272   6.452 -0.9660  1.3426 -1.7936
17771SOL    HW255321   2.836   1.346   6.584  1.9846  0.8401 -1.8685
17772SOL     OW55322   7.822   7.453   0.176  0.0438 -0.2428  0.7008
17772SOL    HW155323   7.828   7.548   0.181  0.4183 -0.2286  0.0921
17772SOL    HW255324   7.892   7.421   0.233 -0.8134 -0.1773  1.8304
17773SOL     OW55325   7.129   6.405  10.352  0.2275 -0.1994 -0.1328
17773SOL    HW155326   7.219   6.373  10.354  0.0334 -0.7855 -0.4193
17773SOL    HW255327   7.078   6.331  10.319  0.0928  1.2010 -3.4293
17774SOL     OW55328   6.935  10.004   2.765 -0.3722  1.7200 -0.1562
17774SOL    HW155329   7.026  10.004   2.736 -0.2959  0.0091 -0.0376
17774SOL    HW255330   6.885   9.986   2.685 -0.2455 -1.7558  0.3937
17775SOL     OW55331   3.205   0.817   7.862 -0.4928 -0.0662 -0.0994
17775SOL    HW155332   3.143   0.778   7.800  0.0821 -0.3339 -0.5168
17775SOL    HW255333   3.226   0.902   7.824  0.8851 -0.7774 -0.9875
17776SOL     OW55334   5.876   5.942   1.582  0.1669  0.8115  0.1616
17776SOL    HW155335   5.898   6.035   1.586 -0.1351  0.9519 -1.0296
17776SOL    HW255336   5.789   5.936   1.621  0.8837  0.7550  1.8144
17777SOL     OW55337   1.037   4.517   1.765 -0.1906  0.1859 -0.3649
17777SOL    HW155338   1.130   4.531   1.746 -0.3105 -0.1047 -1.2316
17777SOL    HW255339   0.998   4.604   1.762  0.1693  0.3934  0.7054
17778SOL     OW55340   4.890   3.988  10.203 -0.1170 -0.1478 -0.4992
17778SOL    HW155341   4.952   3.988  10.276  0.3521  1.4979 -0.8736
17778SOL    HW255342   4.935   3.942  10.132  0.3840  0.3812 -0.5257
17779SOL     OW55343   7.717   5.902   8.593 -0.0459  0.4690  0.0005
17779SOL    HW155344   7.690   5.987   8.628 -2.1262  0.6142 -1.7360
17779SOL    HW255345   7.690   5.904   8.501 -0.2389 -2.1120 -0.0751
17780SOL     OW55346   3.766   7.989   6.612 -0.0551 -0.3867 -0.8851
17780SOL    HW155347   3.746   8.056   6.546  1.1660  0.2216 -0.6807
17780SOL    HW255348   3.835   8.029   6.665 -0.0357 -1.4193 -0.1133
17781SOL     OW55349   5.699   7.257   3.665  0.1769 -0.3131  0.6047
17781SOL    HW155350   5.770   7.278   3.604 -1.3777  1.2878 -0.7602
17781SOL    HW255351   5.742   7.211   3.737  2.9889  2.5325  0.9414
17782SOL     OW55352   8.284   2.875   0.839  0.3769 -0.2845  0.0268
17782SOL    HW155353   8.262   2.959   0.880  0.2510  0.1928 -0.9812
17782SOL    HW255354   8.299   2.816   0.912 -1.9292 -0.0250  0.7843
17783SOL     OW55355   8.437  10.118   3.399 -0.6314  0.7494 -0.4762
17783SOL    HW155356   8.491  10.197   3.396  0.1550  0.3943  1.8755
17783SOL    HW255357   8.426  10.092   3.307  0.6811  2.5128 -1.1795
17784SOL     OW55358   9.506   0.095   3.965  0.7659 -0.0843  0.4368
17784SOL    HW155359   9.548   0.031   4.022 -0.3429 -0.2372  1.1075
17784SOL    HW255360   9.537   0.180   3.997 -1.0545 -0.0673  2.3555
17785SOL     OW55361   8.628  11.272   8.909  0.0332  0.5375 -0.3089
17785SOL    HW155362   8.648  11.246   8.999 -1.0190 -0.0265 -0.2295
17785SOL    HW255363   8.540  11.237   8.892  0.0334  1.0218 -1.4036
17786SOL     OW55364  10.424   7.670   7.440  0.2242  0.4450 -0.2300
17786SOL    HW155365  10.453   7.626   7.361  0.9218  0.0801  0.2187
17786SOL    HW255366  10.338   7.707   7.418  0.4104  0.3382 -1.1413
17787SOL     OW55367  10.038  10.922   2.963 -0.6755  0.0397  0.2961
17787SOL    HW155368   9.956  10.961   2.995 -2.2243 -2.0868 -0.8777
17787SOL    HW255369  10.013  10.875   2.884  2.2951  1.8687 -1.9652
17788SOL     OW55370   5.851   4.851   1.371  0.2952 -0.3146  0.4811
17788SOL    HW155371   5.894   4.770   1.342 -0.1407 -0.1657 -0.6425
17788SOL    HW255372   5.846   4.904   1.292 -0.5649  0.2954  0.9377
17789SOL     OW55373   6.793   5.727   7.848 -0.3444 -0.4130 -0.1824
17789SOL    HW155374   6.848   5.798   7.883  1.7730 -1.6294 -0.8731
17789SOL    HW255375   6.801   5.735   7.753 -3.1795  0.6766 -0.4183
17790SOL     OW55376   8.278   8.397   6.150 -1.1054  0.0271 -0.1492
17790SOL    HW155377   8.282   8.482   6.106 -0.2980 -0.6167 -1.3815
17790SOL    HW255378   8.184   8.382   6.165 -1.1783  2.5095  3.0052
17791SOL     OW55379   8.978  10.077   7.632 -0.0733  0.1561  0.2719
17791SOL    HW155380   9.060  10.113   7.597 -0.5937  1.1118  0.0092
17791SOL    HW255381   8.933  10.152   7.668 -1.1917 -0.2341 -0.2716
17792SOL     OW55382   1.961   3.804   1.752 -0.1276 -0.6331  0.0663
17792SOL    HW155383   1.986   3.748   1.825 -2.1274  0.3928  1.6083
17792SOL    HW255384   2.041   3.810   1.699  1.1502 -2.0586  1.7037
17793SOL     OW55385   8.435   7.804   3.007 -0.2381  0.0652  0.1343
17793SOL    HW155386   8.421   7.796   2.913  1.9842  0.2918 -0.2873
17793SOL    HW255387   8.347   7.812   3.044 -1.1316  1.1702 -2.0265
17794SOL     OW55388   8.162   5.409  11.109  0.1622 -0.1281  0.0742
17794SOL    HW155389   8.084   5.370  11.148  0.7019 -1.2987  0.0014
17794SOL    HW255390   8.133   5.496  11.080 -1.2334 -0.7335 -0.4036
17795SOL     OW55391   3.610   0.147   7.728  0.0784 -0.1146  0.6863
17795SOL    HW155392   3.545   0.192   7.782 -0.0613 -0.4397  0.7948
17795SOL    HW255393   3.670   0.106   7.790 -0.6082 -1.2571  0.6320
17796SOL     OW55394   6.052   5.751   2.829 -0.0825  0.3740  0.0409
17796SOL    HW155395   6.046   5.678   2.892 -0.6208  0.1820 -0.2335
17796SOL    HW255396   6.002   5.821   2.869  0.5413  0.6448  0.3641
17797SOL     OW55397   7.334  10.754   5.198 -0.2240 -0.9357 -0.7343
17797SOL    HW155398   7.282  10.744   5.277  1.5564  0.9763  0.8031
17797SOL    HW255399   7.391  10.677   5.197  0.9452 -0.1579  0.9002
17798SOL     OW55400   3.457   4.408   7.505 -0.2552 -0.0641  0.5063
17798SOL    HW155401   3.423   4.434   7.420  1.2829  0.5298  0.0369
17798SOL    HW255402   3.400   4.336   7.533 -1.6859  0.7089 -0.3286
17799SOL     OW55403  10.023   3.925   5.765  0.2611  0.0644  0.1906
17799SOL    HW155404  10.085   3.863   5.802  0.0032 -0.7275 -0.6678
17799SOL    HW255405   9.984   3.968   5.841  0.0436 -1.2234  0.8400
17800SOL     OW55406   0.542   7.453   5.480  0.3995 -0.1013  0.0314
17800SOL    HW155407   0.597   7.494   5.414 -0.1089 -0.5522 -0.6808
17800SOL    HW255408   0.480   7.522   5.505 -0.2461 -0.3088 -0.9300
17801SOL     OW55409  10.738   1.700   4.158 -0.0851 -0.6924 -0.4831
17801SOL    HW155410  10.781   1.748   4.088 -0.4637 -1.3519 -1.1865
17801SOL    HW255411  10.807   1.683   4.222  0.6925 -1.6449 -1.5354
17802SOL     OW55412   2.186   3.705   2.680  0.2037  0.5998 -0.2379
17802SOL    HW155413   2.138   3.783   2.653  1.3199  1.3005 -0.2484
17802SOL    HW255414   2.173   3.700   2.774  2.2701  2.3452  0.2136
17803SOL     OW55415   4.585  10.889   7.166 -0.1727  0.4883  0.4682
17803SOL    HW155416   4.625  10.802   7.160 -1.2756  0.0845 -1.7727
17803SOL    HW255417   4.501  10.874   7.211  0.4616  0.7408  1.7902
17804SOL     OW55418   7.122   3.346  11.000  0.4945 -0.2205 -0.7687
17804SOL    HW155419   7.150   3.298  10.922 -0.1601 -1.6962 -0.1304
17804SOL    HW255420   7.041   3.390  10.973 -0.2626 -1.5112 -0.6806
17805SOL     OW55421   4.358   7.947   8.273  0.0849 -0.7646 -0.0287
17805SOL    HW155422   4.300   7.955   8.348 -0.6929 -1.1911 -0.5721
17805SOL    HW255423   4.334   8.020   8.216  0.6205 -0.4858  0.0970
17806SOL     OW55424   4.156   5.166   8.684 -0.3899  0.3531  0.7491
17806SOL    HW155425   4.099   5.174   8.760 -0.3128 -1.1422  1.0103
17806SOL    HW255426   4.178   5.073   8.681 -0.6766  0.2894 -1.3016
17807SOL     OW55427   3.674   8.112   7.603  0.0789  0.0375 -1.0873
17807SOL    HW155428   3.684   8.069   7.517 -2.0599  1.4332 -2.1321
17807SOL    HW255429   3.718   8.196   7.593  2.0103 -0.7694  0.0940
17808SOL     OW55430   2.041   4.501  10.286  0.1521 -0.7973 -0.6952
17808SOL    HW155431   2.136   4.486  10.284  0.3777 -0.0881  1.7617
17808SOL    HW255432   2.011   4.470  10.200  3.0061  2.0246 -2.9739
17809SOL     OW55433  10.258   9.695   0.174  0.7762  0.4422 -0.2303
17809SOL    HW155434  10.211   9.734   0.248  0.9186 -1.1204  0.7231
17809SOL    HW255435  10.345   9.735   0.178  0.6920  0.5868  0.2647
17810SOL     OW55436   7.604   6.464   7.030  0.1437  0.3358 -0.0249
17810SOL    HW155437   7.569   6.477   7.119 -0.0627  1.6187 -0.2722
17810SOL    HW255438   7.620   6.553   6.998  0.3021 -0.1226 -1.2418
17811SOL     OW55439   1.204   3.061   1.394  0.7054  0.0362 -0.1569
17811SOL    HW155440   1.207   2.968   1.417 -0.0815 -0.6754 -2.5952
17811SOL    HW255441   1.284   3.075   1.342 -0.5055 -0.0712 -2.1767
17812SOL     OW55442   0.726   1.676   5.423 -0.2619 -0.0062  0.6206
17812SOL    HW155443   0.719   1.713   5.335  1.5604 -0.7868  0.1151
17812SOL    HW255444   0.793   1.729   5.467 -1.2554  0.4684  1.6214
17813SOL     OW55445   4.016   9.207   8.132  0.1093  0.3700 -0.6888
17813SOL    HW155446   3.995   9.133   8.076  1.0814  1.3312 -2.3884
17813SOL    HW255447   4.111   9.214   8.128  0.3542 -0.2214  2.0497
17814SOL     OW55448   4.083   5.675   5.334  0.1080  0.0505  0.1134
17814SOL    HW155449   4.086   5.586   5.368 -1.3742  0.7797  2.3413
17814SOL    HW255450   4.130   5.671   5.251  0.9874 -2.5593  0.6745
17815SOL     OW55451   3.610   0.668   2.033 -0.2011  0.0098 -0.4133
17815SOL    HW155452   3.585   0.576   2.048 -1.9302  0.4017 -0.6536
17815SOL    HW255453   3.527   0.714   2.027  0.5950  2.1368  2.6687
17816SOL     OW55454   8.336  11.199   5.779  0.0541  0.2525 -0.0187
17816SOL    HW155455   8.255  11.242   5.752 -0.1626  2.3434  3.4496
17816SOL    HW255456   8.405  11.262   5.757  0.0408  1.1797  2.3184
17817SOL     OW55457   3.922   8.803   0.706  0.5881 -0.2196  0.1839
17817SOL    HW155458   3.932   8.817   0.800 -0.9650 -0.9581  0.4784
17817SOL    HW255459   3.994   8.853   0.667  1.7026 -0.5110  1.7873
17818SOL     OW55460   3.903   5.658   9.706 -0.4995 -0.2553 -0.1669
17818SOL    HW155461   3.808   5.643   9.707 -1.0608  2.4175  2.1655
17818SOL    HW255462   3.928   5.657   9.799  1.0098  2.3900 -0.4283
17819SOL     OW55463   0.392   1.447   3.583  0.1442  0.1962  0.5381
17819SOL    HW155464   0.424   1.365   3.544 -1.0573 -0.0733  0.1025
17819SOL    HW255465   0.446   1.515   3.543  0.7660 -0.3179  0.4790
17820SOL     OW55466   1.899  10.281   9.209 -0.3100  0.2068  0.1629
17820SOL    HW155467   1.863  10.238   9.132  2.1421 -0.3016 -0.7856
17820SOL    HW255468   1.916  10.210   9.270 -1.0556  0.4754  0.7111
17821SOL     OW55469   7.832   2.176   4.752  0.9040  0.3301 -0.1462
17821SOL    HW155470   7.894   2.113   4.788  0.0973 -0.5258 -0.2076
17821SOL    HW255471   7.824   2.152   4.660 -0.1540 -0.1320  0.0486
17822SOL     OW55472   1.522   2.862   5.977  0.0387  0.7654 -0.9084
17822SOL    HW155473   1.492   2.827   5.893  0.0069  2.0058 -1.4375
17822SOL    HW255474   1.446   2.909   6.011  0.0778  0.3289 -0.2132
17823SOL     OW55475   3.525   4.783   5.184 -0.1080 -0.0999 -0.2574
17823SOL    HW155476   3.615   4.752   5.173 -0.6159 -0.7897 -2.9684
17823SOL    HW255477   3.484   4.718   5.240  1.0248  0.1997  0.9869
17824SOL     OW55478   9.575   1.553   3.703 -0.8938  0.0290 -0.5406
17824SOL    HW155479   9.482   1.553   3.681 -0.6456  0.0112 -1.6431
17824SOL    HW255480   9.582   1.499   3.782 -1.5665 -1.6619 -1.5904
17825SOL     OW55481   4.603   8.999   9.001  0.7129  0.0846  0.3219
17825SOL    HW155482   4.510   9.021   8.995  0.6373 -0.1774  0.5366
17825SOL    HW255483   4.636   9.007   8.912  0.7005  1.1367  0.3923
17826SOL     OW55484   4.596   8.971   7.087 -0.1164 -0.2107 -0.7973
17826SOL    HW155485   4.679   9.017   7.104 -0.0335  0.4345 -2.7454
17826SOL    HW255486   4.530   9.040   7.089 -0.5125 -0.5963 -0.0973
17827SOL     OW55487   8.983   3.009   5.441  0.0938  0.3228  0.4015
17827SOL    HW155488   8.912   2.945   5.453  0.5923 -0.5857 -1.1612
17827SOL    HW255489   8.959   3.057   5.362  1.5215 -0.5044 -0.5984
17828SOL     OW55490   1.388   9.676   7.496  0.2387  0.0155  0.3643
17828SOL    HW155491   1.360   9.588   7.523 -0.1242 -0.4307 -1.3926
17828SOL    HW255492   1.314   9.732   7.519 -0.5764 -0.5545 -0.7712
17829SOL     OW55493   0.733  10.318   0.178 -0.2332  0.3592  0.5236
17829SOL    HW155494   0.715  10.412   0.173  2.0510  0.9535  2.0552
17829SOL    HW255495   0.826  10.312   0.196 -0.6735 -2.1349  2.5755
17830SOL     OW55496   1.649   8.121   1.715  0.3955 -0.4582  0.4142
17830SOL    HW155497   1.640   8.156   1.804  0.5625  1.1239 -0.1632
17830SOL    HW255498   1.586   8.049   1.711 -0.1676 -0.0550  1.5617
17831SOL     OW55499   7.271   1.658   3.590 -0.6204  0.1200 -0.4057
17831SOL    HW155500   7.290   1.691   3.678 -2.6687 -1.1822  0.6034
17831SOL    HW255501   7.268   1.736   3.535  0.4593  0.9836  0.6948
17832SOL     OW55502   1.647   3.120   7.443 -0.5492 -0.3290  0.2418
17832SOL    HW155503   1.673   3.037   7.482 -0.1765 -0.4654 -0.2723
17832SOL    HW255504   1.613   3.096   7.357  1.1507  0.1680 -0.6227
17833SOL     OW55505  10.236   4.573   0.203  0.2111 -0.2013 -0.1783
17833SOL    HW155506  10.283   4.491   0.221 -0.5438 -0.7283 -0.5761
17833SOL    HW255507  10.178   4.585   0.278  0.2727 -0.0653 -0.1521
17834SOL     OW55508   6.770  10.806   6.009 -0.1570  0.0176  0.0451
17834SOL    HW155509   6.815  10.732   6.050  0.2522  0.4672  0.4246
17834SOL    HW255510   6.781  10.877   6.072  1.3289  0.9898 -1.2476
17835SOL     OW55511   9.209   4.321   4.160 -1.0435 -0.5268  0.2794
17835SOL    HW155512   9.157   4.348   4.084 -0.2004 -0.6332 -0.3435
17835SOL    HW255513   9.299   4.320   4.129 -0.3574  1.7822  1.9189
17836SOL     OW55514   9.978   0.994   5.073  0.1845 -0.8688 -0.2087
17836SOL    HW155515  10.005   1.032   4.989 -3.0487  3.2458  0.2981
17836SOL    HW255516  10.024   1.046   5.138  2.3354 -3.7489  0.7761
17837SOL     OW55517   0.349   1.406   0.342  0.1182  1.3080  0.3635
17837SOL    HW155518   0.403   1.482   0.319 -1.9503  2.6112 -0.5032
17837SOL    HW255519   0.283   1.403   0.273 -0.8593 -0.2636  1.3290
17838SOL     OW55520   1.146   3.656   8.329  0.0091  0.2115  0.2130
17838SOL    HW155521   1.145   3.579   8.273 -0.6624 -0.1021  0.6410
17838SOL    HW255522   1.214   3.638   8.394 -1.2464 -0.7591  1.2984
17839SOL     OW55523   7.815   3.825   9.602  0.3208 -0.6951 -0.5355
17839SOL    HW155524   7.778   3.910   9.580 -1.9783 -1.3235  0.6172
17839SOL    HW255525   7.799   3.771   9.524 -1.3922 -0.9845 -0.0209
17840SOL     OW55526   9.047   7.364   9.593 -0.4440 -0.4223  0.3665
17840SOL    HW155527   9.116   7.299   9.576  0.0137  0.3310 -0.8481
17840SOL    HW255528   9.094   7.442   9.622 -0.7475  0.1182 -0.5289
17841SOL     OW55529   6.480   1.287   9.750  0.7119 -0.1871  0.5526
17841SOL    HW155530   6.509   1.376   9.767  0.4279  0.1142 -0.5145
17841SOL    HW255531   6.557   1.233   9.770  0.2649  0.0569  3.3114
17842SOL     OW55532   0.501   0.315   9.421 -0.4007  0.0313  0.3766
17842SOL    HW155533   0.512   0.220   9.425 -2.1059 -0.1740  2.8445
17842SOL    HW255534   0.504   0.343   9.513 -2.1905  2.0443 -0.1020
17843SOL     OW55535   7.935   3.484   5.547  0.0133  0.8901 -0.4534
17843SOL    HW155536   8.019   3.508   5.509  0.1904  0.2653 -0.4750
17843SOL    HW255537   7.881   3.562   5.537  0.6610  1.3752 -0.2173
17844SOL     OW55538   9.625   0.078   4.452 -0.2205  0.1270  0.6375
17844SOL    HW155539   9.654   0.113   4.368 -2.0992  1.6650  0.5624
17844SOL    HW255540   9.576  -0.002   4.430 -0.7380  0.5479  0.2426
17845SOL     OW55541   1.212   5.395   2.776 -0.4248  0.7321 -0.4900
17845SOL    HW155542   1.152   5.391   2.850  1.5340  0.0712  1.1584
17845SOL    HW255543   1.205   5.485   2.743  1.1723  2.2271  2.8087
17846SOL     OW55544   6.454  10.547   4.393  0.5227  0.0182 -0.4238
17846SOL    HW155545   6.412  10.611   4.336  1.9378  1.3916 -0.0080
17846SOL    HW255546   6.540  10.585   4.413  1.1584 -1.7203  0.3768
17847SOL     OW55547   6.227  10.703   8.074  0.7030 -0.7322  0.6869
17847SOL    HW155548   6.262  10.653   8.000  0.6205 -1.9524  1.4534
17847SOL    HW255549   6.143  10.663   8.093  1.1859 -1.1396  2.1149
17848SOL     OW55550   8.927   5.473   4.902 -0.3073  0.2367  0.3804
17848SOL    HW155551   8.959   5.453   4.814  1.5166 -1.2316  1.2825
17848SOL    HW255552   8.842   5.514   4.888 -0.1470 -0.0753 -2.0454
17849SOL     OW55553   5.037   1.972   1.294 -0.5809 -0.5265 -0.3735
17849SOL    HW155554   4.953   1.970   1.247 -1.1311 -1.1872  0.6046
17849SOL    HW255555   5.057   1.880   1.311 -1.1264 -0.2893  1.9049
17850SOL     OW55556   0.473   9.892   7.121  0.3709  0.0758 -0.4950
17850SOL    HW155557   0.551   9.844   7.094  1.0102  0.5231  0.4953
17850SOL    HW255558   0.504   9.980   7.143 -0.4863  0.4052 -0.5357
17851SOL     OW55559   0.448   0.744   1.568  0.3250 -0.2807  0.4140
17851SOL    HW155560   0.501   0.819   1.543 -2.1598  1.7965  1.0000
17851SOL    HW255561   0.437   0.694   1.487  1.2045  0.5109 -0.2181
17852SOL     OW55562   9.660  10.453   0.721  0.3399  0.2495  0.6910
17852SOL    HW155563   9.575  10.496   0.722  0.6973  0.9694  0.7648
17852SOL    HW255564   9.673  10.423   0.811  1.0232  1.9065  1.1884
17853SOL     OW55565   4.808   5.856   5.154 -0.2108 -0.7975  0.4660
17853SOL    HW155566   4.761   5.940   5.164 -2.3279 -1.9965  1.2398
17853SOL    HW255567   4.748   5.791   5.189  0.8101 -2.8363 -1.3347
17854SOL     OW55568   0.217   4.345   8.993 -0.2654  0.4850  0.5563
17854SOL    HW155569   0.201   4.343   9.087 -1.7738  0.7773  0.3245
17854SOL    HW255570   0.280   4.275   8.977 -1.5878 -0.9515  1.4906
17855SOL     OW55571   5.227   4.598   9.167 -0.9239  0.1390 -0.3121
17855SOL    HW155572   5.241   4.531   9.235 -0.8962 -0.7279 -1.1517
17855SOL    HW255573   5.314   4.611   9.129 -0.5628  2.0019  1.0380
17856SOL     OW55574  10.304   4.921   2.910  0.1020 -0.3252  0.0300
17856SOL    HW155575  10.246   4.972   2.854 -1.5570 -2.0860  0.0209
17856SOL    HW255576  10.379   4.899   2.855  0.0463  0.6634 -0.4604
17857SOL     OW55577   9.416  11.047   9.685  0.3314  0.9108 -0.0017
17857SOL    HW155578   9.493  11.082   9.731  0.1160  0.8897  0.3759
17857SOL    HW255579   9.341  11.089   9.728  0.1401  1.1264 -0.5373
17858SOL     OW55580   4.917   7.515   8.181 -0.2316  0.4955  1.3434
17858SOL    HW155581   4.923   7.555   8.268  1.2716 -0.9719  1.9515
17858SOL    HW255582   4.966   7.433   8.188  0.4318  0.6149 -1.0480
17859SOL     OW55583   6.281   2.805   2.459  0.2765 -0.0554  0.4896
17859SOL    HW155584   6.238   2.723   2.485  0.2623 -0.5016 -0.8338
17859SOL    HW255585   6.273   2.862   2.535  0.5695 -1.3901  1.5680
17860SOL     OW55586   2.096   3.960   4.176  0.5401  0.1251  0.0611
17860SOL    HW155587   2.063   3.968   4.265  2.2469 -0.3117  0.7688
17860SOL    HW255588   2.102   4.051   4.144 -0.2800  0.2680  0.2773
17861SOL     OW55589   2.186   9.859   3.560  0.4336 -0.0568  0.1812
17861SOL    HW155590   2.218   9.924   3.497 -2.4186  1.7927  0.4555
17861SOL    HW255591   2.262   9.838   3.613  1.7964  2.1089 -0.7555
17862SOL     OW55592   9.142   2.383   1.439  0.3509  0.0194  0.1507
17862SOL    HW155593   9.064   2.412   1.488  1.4663 -0.6524  2.5037
17862SOL    HW255594   9.144   2.438   1.361 -1.4856  1.2813  0.9226
17863SOL     OW55595   3.466   0.059   6.570 -0.0620  0.0442 -0.2170
17863SOL    HW155596   3.488  -0.022   6.616 -2.1220  0.0837  0.9343
17863SOL    HW255597   3.381   0.041   6.529 -0.2829  1.4428 -0.4149
17864SOL     OW55598   3.762   3.422   6.834  0.3808  0.7137  0.6496
17864SOL    HW155599   3.691   3.474   6.870 -2.2508 -2.2038  0.0506
17864SOL    HW255600   3.794   3.370   6.908  0.6822  0.6890  0.5052
17865SOL     OW55601   0.902   7.041   6.294 -0.2540 -0.4014 -0.1697
17865SOL    HW155602   0.990   7.057   6.328 -1.2879 -0.4945  2.8638
17865SOL    HW255603   0.889   6.947   6.304 -1.7076 -0.0136  2.3904
17866SOL     OW55604   8.644   5.773   2.205  0.0249 -0.2736  0.4074
17866SOL    HW155605   8.604   5.814   2.282  1.7253  1.3887  0.4960
17866SOL    HW255606   8.714   5.833   2.181  1.1353 -2.0305 -0.9433
17867SOL     OW55607   9.749   2.578   6.077 -0.7184  0.5709 -0.9145
17867SOL    HW155608   9.697   2.654   6.104 -0.1516 -0.0979  2.3491
17867SOL    HW255609   9.836   2.593   6.114 -0.2526 -1.1390 -1.2250
17868SOL     OW55610   2.742   9.524   6.654  0.6038  0.8650  0.5318
17868SOL    HW155611   2.781   9.498   6.570  2.5627  0.1153  1.6262
17868SOL    HW255612   2.763   9.451   6.713 -1.4610  0.9919  1.5022
17869SOL     OW55613   2.304   7.190   2.960  0.4794  0.0660 -0.1534
17869SOL    HW155614   2.366   7.262   2.970 -0.0505  0.6805 -1.2468
17869SOL    HW255615   2.357   7.118   2.924  0.7409  0.3008 -0.2424
17870SOL     OW55616   1.212   5.895   9.368 -0.1487  0.5857 -0.1741
17870SOL    HW155617   1.234   5.834   9.297 -0.8299 -1.4749  1.2887
17870SOL    HW255618   1.297   5.917   9.406  0.0184 -1.5713  0.8782
17871SOL     OW55619   0.450   1.187   7.157 -0.0336 -0.3215  0.0864
17871SOL    HW155620   0.394   1.110   7.172 -2.3318  1.1297 -0.5041
17871SOL    HW255621   0.460   1.191   7.062 -0.0361  0.1666  0.1065
17872SOL     OW55622   2.493   7.222   9.751 -0.0158  0.2312  0.1702
17872SOL    HW155623   2.405   7.188   9.767  0.1727  0.2261  1.2374
17872SOL    HW255624   2.504   7.292   9.815  0.2405  1.1742 -0.8800
17873SOL     OW55625   9.611   5.156   4.173 -0.1941 -0.0931 -0.2673
17873SOL    HW155626   9.700   5.137   4.203  0.4735 -0.0089 -2.0886
17873SOL    HW255627   9.622   5.194   4.086 -1.9944  0.4575 -0.3023
17874SOL     OW55628   4.528   0.374   6.509  0.0392 -0.5097 -0.0115
17874SOL    HW155629   4.611   0.327   6.502  0.4046  0.3207 -1.7906
17874SOL    HW255630   4.461   0.309   6.486  0.3641 -0.6909 -0.4460
17875SOL     OW55631   3.113   4.552   7.768  0.0014  0.1995 -0.1260
17875SOL    HW155632   3.167   4.488   7.722 -1.3476 -0.6899 -0.5109
17875SOL    HW255633   3.024   4.535   7.737 -0.6342  1.0455  1.1661
17876SOL     OW55634   6.999   7.033  10.483  0.4700 -0.2533  0.1606
17876SOL    HW155635   6.937   7.008  10.552  1.3053  0.4779  1.2129
17876SOL    HW255636   7.082   6.996  10.512  0.4345 -1.8398 -1.5915
17877SOL     OW55637   9.384   9.241   3.503  0.1506  0.4653  0.1254
17877SOL    HW155638   9.451   9.174   3.520  1.1603  1.2834 -0.4574
17877SOL    HW255639   9.339   9.210   3.425 -1.8898 -1.3453  1.9123
17878SOL     OW55640  10.018   3.212   6.275  0.8387 -0.3026 -0.6095
17878SOL    HW155641  10.057   3.131   6.307 -0.3104  0.0875  1.9953
17878SOL    HW255642   9.926   3.190   6.260  0.5378  0.4615  0.0304
17879SOL     OW55643   3.677   4.932   3.488 -0.2907 -0.2350 -0.4645
17879SOL    HW155644   3.755   4.888   3.519 -0.3019  1.2650  1.9897
17879SOL    HW255645   3.610   4.912   3.554 -0.1092  3.7544  1.2452
17880SOL     OW55646   2.911   7.304   8.672 -0.4431  0.3069 -0.0765
17880SOL    HW155647   2.960   7.339   8.746 -1.7626  0.3594  0.8103
17880SOL    HW255648   2.886   7.216   8.699  0.4865 -0.3091 -1.1592
17881SOL     OW55649   0.111   3.836   6.247 -0.0524 -0.4583  0.0634
17881SOL    HW155650   0.200   3.854   6.278 -0.5066 -0.4834  1.4494
17881SOL    HW255651   0.056   3.847   6.324 -1.6204  2.1458 -1.2712
17882SOL     OW55652   7.305  10.518  11.234  0.3055 -0.3054  0.5615
17882SOL    HW155653   7.242  10.562  11.291  0.1870 -0.6936  0.7294
17882SOL    HW255654   7.319  10.433  11.275  0.6924 -0.3453  0.3476
17883SOL     OW55655   8.491   2.062  10.986 -0.3537  0.1316 -0.4896
17883SOL    HW155656   8.584   2.046  11.005 -0.3494  1.6105  1.0221
17883SOL    HW255657   8.462   1.984  10.939  1.4565 -0.7063 -0.3105
17884SOL     OW55658   7.287   3.690   4.216  0.2299  0.2773  0.6580
17884SOL    HW155659   7.195   3.705   4.240 -0.5748  0.4751 -2.1198
17884SOL    HW255660   7.287   3.601   4.179  1.1665  0.2543  0.7094
17885SOL     OW55661   2.621   0.063   9.196 -0.3979 -0.0194  0.0896
17885SOL    HW155662   2.551   0.125   9.177  0.2147  0.3788 -0.9820
17885SOL    HW255663   2.686   0.115   9.244  1.0477  0.8120 -2.5467
17886SOL     OW55664   9.073   8.195  10.609  0.0259  0.4620 -0.1285
17886SOL    HW155665   8.997   8.239  10.570 -0.2890  1.0987  1.1567
17886SOL    HW255666   9.139   8.263  10.616 -0.2786  0.6300  1.3696
17887SOL     OW55667   0.694   1.901   1.856 -0.2238  0.4317 -0.4011
17887SOL    HW155668   0.647   1.949   1.924  0.3738  1.6721 -0.8288
17887SOL    HW255669   0.687   1.956   1.778  2.0652  0.7877 -0.4458
17888SOL     OW55670   3.595  10.414   3.601 -0.6628  0.0656 -0.0136
17888SOL    HW155671   3.642  10.332   3.589 -0.9354  0.0548 -1.0793
17888SOL    HW255672   3.640  10.457   3.674 -0.4977 -1.0039  0.5317
17889SOL     OW55673   3.738   9.165   5.834  0.8806  0.6529  0.1051
17889SOL    HW155674   3.687   9.162   5.915  1.5702 -0.0597  0.5314
17889SOL    HW255675   3.818   9.116   5.854  0.7662 -0.1265 -1.2145
17890SOL     OW55676   2.600   8.560   0.589  0.1341 -0.3208  0.3551
17890SOL    HW155677   2.559   8.491   0.642  1.1478 -1.5936 -0.4649
17890SOL    HW255678   2.653   8.609   0.652  1.1220 -1.6541  0.6064
17891SOL     OW55679   1.055   6.276   1.327 -0.5188 -0.3615 -0.2553
17891SOL    HW155680   1.004   6.318   1.397 -0.5621 -0.2126 -0.3748
17891SOL    HW255681   0.991   6.253   1.261 -0.4216 -0.1163 -0.4345
17892SOL     OW55682   5.734   6.404  11.175  0.3480 -1.1162 -1.1556
17892SOL    HW155683   5.793   6.329  11.178  0.6491 -0.8879 -1.2734
17892SOL    HW255684   5.719   6.419  11.081  2.4982  0.6594 -1.3073
17893SOL     OW55685   9.943   2.770   7.175 -0.2292  0.1318 -0.4782
17893SOL    HW155686   9.994   2.746   7.097 -1.5875 -3.6612 -0.4313
17893SOL    HW255687   9.857   2.794   7.141 -0.9339 -1.8674 -0.2609
17894SOL     OW55688  10.174   8.557   4.548 -0.0728 -0.6060 -0.2068
17894SOL    HW155689  10.229   8.530   4.622 -0.6284 -1.0376  0.0551
17894SOL    HW255690  10.171   8.652   4.553  1.1833 -0.5133 -0.6135
17895SOL     OW55691  10.728   1.230   4.826 -0.3561  0.3154 -0.9696
17895SOL    HW155692  10.771   1.153   4.863 -0.8763  1.3875  2.1767
17895SOL    HW255693  10.799   1.280   4.785  0.7812  0.2276  0.8015
17896SOL     OW55694   8.815   2.740  10.751  0.2493 -0.4984 -0.2464
17896SOL    HW155695   8.747   2.791  10.707  0.8356 -0.4876 -1.1538
17896SOL    HW255696   8.818   2.658  10.702  0.3957 -0.7959  0.2469
17897SOL     OW55697   3.825   8.577  10.805 -0.4845 -0.2715 -0.1171
17897SOL    HW155698   3.833   8.662  10.847 -0.7868  0.1528 -0.8878
17897SOL    HW255699   3.907   8.567  10.756  0.3167 -1.2227  1.3471
17898SOL     OW55700   0.810   4.331   0.607  0.9742  0.0365  0.1792
17898SOL    HW155701   0.745   4.379   0.555 -0.3962 -2.0325 -0.1546
17898SOL    HW255702   0.768   4.247   0.625  2.9711 -0.7711  1.3405
17899SOL     OW55703   0.453   6.399   4.508  0.5637  0.1182  0.5363
17899SOL    HW155704   0.489   6.481   4.541  1.9166  0.3725 -1.4069
17899SOL    HW255705   0.511   6.332   4.543  0.2355  0.0963  1.0520
17900SOL     OW55706  10.457   0.973   0.671 -0.3672  0.0457 -0.5812
17900SOL    HW155707  10.544   1.010   0.661 -0.2844 -0.0858 -0.3589
17900SOL    HW255708  10.406   1.043   0.714  0.2973 -0.7516  1.6712
17901SOL     OW55709  10.489   3.137   9.095 -0.3227 -0.5145  0.2469
17901SOL    HW155710  10.573   3.183   9.093 -0.1227 -0.8834  0.0716
17901SOL    HW255711  10.464   3.129   9.003  0.8204 -2.8822  0.0810
17902SOL     OW55712   9.792  11.066   0.253 -0.4756  0.2660 -0.1321
17902SOL    HW155713   9.871  11.121   0.259 -1.2933  1.3877  0.7449
17902SOL    HW255714   9.818  10.993   0.197  1.3912  0.2591  0.6660
17903SOL     OW55715  10.238   1.730   2.118 -0.8617  0.0846 -0.0305
17903SOL    HW155716  10.266   1.764   2.203 -0.1912  2.4279 -1.1071
17903SOL    HW255717  10.143   1.721   2.127 -0.5129 -3.2285  2.0573
17904SOL     OW55718   1.703   4.151  11.133  0.7104 -0.5958  0.4821
17904SOL    HW155719   1.614   4.116  11.142 -0.1070  1.5964  1.6589
17904SOL    HW255720   1.735   4.112  11.051 -0.9345 -2.2061  0.5204
17905SOL     OW55721   6.183   3.089   2.929  0.2105 -0.0539  0.7844
17905SOL    HW155722   6.242   3.111   3.001  1.9046  1.9255 -1.0817
17905SOL    HW255723   6.179   3.169   2.876 -2.2730 -0.9120 -0.4972
17906SOL     OW55724   9.450   8.519  10.958 -0.1395  0.2536  0.0764
17906SOL    HW155725   9.366   8.475  10.966  0.1012 -0.3215 -0.4082
17906SOL    HW255726   9.455   8.543  10.866 -0.4700  1.7348  0.4324
17907SOL     OW55727   6.536  11.268   8.583  0.0695 -0.0247 -0.0760
17907SOL    HW155728   6.599  11.199   8.561  0.3272 -0.0930  0.8362
17907SOL    HW255729   6.588  11.348   8.589 -0.1104  0.1186 -0.4196
17908SOL     OW55730   9.935   5.587   4.376  0.3065  0.2041  0.4589
17908SOL    HW155731   9.965   5.501   4.404  0.6832  1.0507  2.8855
17908SOL    HW255732  10.015   5.639   4.366 -0.0070  1.4262  3.3262
17909SOL     OW55733   9.153   3.714   0.419  0.5221  0.6871  0.1650
17909SOL    HW155734   9.122   3.684   0.334  0.5994 -0.8102  0.6445
17909SOL    HW255735   9.090   3.678   0.482  0.4280  1.8258  0.7519
17910SOL     OW55736   9.937   5.299   2.700  0.0949  0.3143 -0.7429
17910SOL    HW155737   9.970   5.315   2.612  0.3905 -0.7062 -0.8236
17910SOL    HW255738   9.962   5.209   2.720 -0.4415  0.3522  0.1781
17911SOL     OW55739   3.544  11.241   9.548  0.1655 -0.0567  0.5219
17911SOL    HW155740   3.624  11.228   9.497 -0.0845 -3.1906  0.7273
17911SOL    HW255741   3.535  11.161   9.599 -1.2154  1.6979  3.2766
17912SOL     OW55742  10.345   5.077  11.230  0.4032 -0.5901  0.3686
17912SOL    HW155743  10.263   5.119  11.205 -0.2013 -1.8428  0.1735
17912SOL    HW255744  10.319   5.011  11.295  1.4267 -0.1437  1.2683
17913SOL     OW55745  10.645   2.816   4.207 -0.3255  0.9993 -0.5601
17913SOL    HW155746  10.625   2.844   4.296 -1.9962 -1.3438 -0.0932
17913SOL    HW255747  10.740   2.824   4.200  0.1541 -0.8115  2.2573
17914SOL     OW55748   0.424   6.670   8.280 -0.5073  0.1263  0.3430
17914SOL    HW155749   0.378   6.695   8.360  0.1357  3.8849 -0.2471
17914SOL    HW255750   0.362   6.689   8.209  0.5098  1.5882 -0.2266
17915SOL     OW55751   4.323   3.232   3.711  0.3545  0.6033 -0.4898
17915SOL    HW155752   4.360   3.212   3.797 -1.0282  1.7099  0.4158
17915SOL    HW255753   4.399   3.251   3.656  1.3052 -0.9347  0.2381
17916SOL     OW55754   7.519  10.410   1.428  0.3228  0.4504  0.2821
17916SOL    HW155755   7.439  10.446   1.465 -0.1095 -1.5917  1.5044
17916SOL    HW255756   7.574  10.486   1.410 -1.9754  1.9241 -0.8694
17917SOL     OW55757   2.865   2.752  10.152 -0.8661  0.7306  0.1556
17917SOL    HW155758   2.876   2.657  10.158 -2.5864  0.4331 -0.8268
17917SOL    HW255759   2.820   2.777  10.232 -3.6215  0.1166 -1.0722
17918SOL     OW55760   4.049   6.456   7.711 -0.1687  0.0512  0.5032
17918SOL    HW155761   4.136   6.453   7.751  1.5287 -3.9850 -2.7842
17918SOL    HW255762   4.061   6.507   7.631 -0.5086 -1.2776 -0.4293
17919SOL     OW55763   2.447   4.901   9.946  0.5186  0.1290 -0.4084
17919SOL    HW155764   2.517   4.962   9.924 -0.2681  0.6082 -1.6958
17919SOL    HW255765   2.446   4.898  10.041 -0.2593  3.1827 -0.2272
17920SOL     OW55766   7.386  10.688   1.184 -0.9474  0.3334  0.3365
17920SOL    HW155767   7.390  10.761   1.246 -0.2984  0.8984 -0.3591
17920SOL    HW255768   7.402  10.727   1.099 -0.4974 -0.6349 -0.0400
17921SOL     OW55769   4.517   3.205   4.580 -0.1790 -0.1094 -0.0014
17921SOL    HW155770   4.450   3.245   4.635 -1.2918 -1.8012 -0.0461
17921SOL    HW255771   4.475   3.127   4.545  0.9001  0.2591 -2.2921
17922SOL     OW55772   4.453   7.055   1.936 -0.7531  0.0511  0.1986
17922SOL    HW155773   4.502   6.989   1.887 -0.1047  0.0861  0.7861
17922SOL    HW255774   4.422   7.009   2.014 -1.6914  0.0211 -0.1783
17923SOL     OW55775   2.201   5.891   2.141  0.0065  0.3128 -0.2751
17923SOL    HW155776   2.166   5.939   2.065 -1.7208 -1.3595 -0.6077
17923SOL    HW255777   2.216   5.802   2.108 -0.4539 -0.3596  1.2421
17924SOL     OW55778   5.911   9.506   5.404 -0.0586  0.4101 -0.0078
17924SOL    HW155779   5.924   9.440   5.472  0.0923 -0.9253 -1.2680
17924SOL    HW255780   5.826   9.545   5.424 -0.5955 -0.8344  0.2665
17925SOL     OW55781   9.002   2.486   5.442 -0.2898  0.0936 -0.2578
17925SOL    HW155782   8.957   2.447   5.517  0.5631 -1.4882 -0.5295
17925SOL    HW255783   8.947   2.464   5.367 -0.6275  0.8222 -0.2349
17926SOL     OW55784   3.417   8.707   8.153 -0.0700 -0.9715  0.0526
17926SOL    HW155785   3.358   8.781   8.168 -0.5340 -1.2859 -0.1798
17926SOL    HW255786   3.373   8.633   8.194 -0.0005 -1.2790 -0.4242
17927SOL     OW55787   5.706  10.082   4.238  0.4895  0.6003 -0.4861
17927SOL    HW155788   5.618  10.083   4.202  0.8389 -0.7382 -1.4916
17927SOL    HW255789   5.720   9.990   4.263  0.3003  1.4009  3.1140
17928SOL     OW55790   1.320   2.000   5.108 -0.2521 -0.2509 -0.7965
17928SOL    HW155791   1.379   2.063   5.069  1.0192 -0.3974  0.7821
17928SOL    HW255792   1.290   1.946   5.035 -0.1892  1.2264 -1.9387
17929SOL     OW55793  11.242  10.369   3.872  0.1753 -0.4413  0.0148
17929SOL    HW155794  11.243  10.281   3.836 -0.9004  0.5897 -2.8069
17929SOL    HW255795  11.335  10.393   3.879  0.4530 -1.4847  0.0461
17930SOL     OW55796   0.700   2.743   8.925  0.4232  0.2619  0.2129
17930SOL    HW155797   0.761   2.709   8.860  0.1358 -0.3423  0.2531
17930SOL    HW255798   0.728   2.833   8.939  0.3105  0.4873 -0.9546
17931SOL     OW55799   3.694   3.641   2.085 -0.2357  0.2946  0.1955
17931SOL    HW155800   3.617   3.605   2.042 -1.2403 -0.3111  2.3538
17931SOL    HW255801   3.732   3.700   2.021 -2.1670  0.1554 -1.1541
17932SOL     OW55802   3.776   2.162   0.583 -0.3493 -0.8561 -0.0532
17932SOL    HW155803   3.803   2.254   0.574 -1.0769 -0.5649  0.6290
17932SOL    HW255804   3.809   2.120   0.503  0.7064 -0.1858  0.0043
17933SOL     OW55805   6.454   9.960   8.357 -0.2913  0.5281  0.6734
17933SOL    HW155806   6.486  10.048   8.334 -1.2406  0.2981 -1.8170
17933SOL    HW255807   6.473   9.907   8.280 -0.5385 -1.2807  1.7980
17934SOL     OW55808   5.893   9.108   6.467  0.0474  0.4297 -0.3043
17934SOL    HW155809   5.817   9.055   6.491  0.1973  0.2499 -0.2248
17934SOL    HW255810   5.865   9.156   6.389 -0.0261  0.0885 -0.4895
17935SOL     OW55811   3.484   8.475   8.523  0.4481 -0.6115 -0.3561
17935SOL    HW155812   3.422   8.536   8.563  0.9243 -1.2868  1.5088
17935SOL    HW255813   3.556   8.530   8.494 -0.2857 -0.0062 -1.0933
17936SOL     OW55814   2.441   4.268   4.771 -0.0778 -0.2883 -0.4653
17936SOL    HW155815   2.429   4.361   4.755 -1.1833 -0.0433  1.4699
17936SOL    HW255816   2.385   4.224   4.706 -0.0742  0.3976 -0.9388
17937SOL     OW55817  10.178   7.772   3.036  0.0494 -0.3364 -0.2639
17937SOL    HW155818  10.082   7.766   3.040  0.0118  0.5843  1.0653
17937SOL    HW255819  10.195   7.866   3.034  0.9556 -0.3629  2.3189
17938SOL     OW55820  10.381   9.304   5.862  0.8341  0.3436 -0.2222
17938SOL    HW155821  10.460   9.318   5.913 -0.5065 -0.2809  2.2159
17938SOL    HW255822  10.321   9.373   5.890  0.2143  0.3034 -1.3736
17939SOL     OW55823   2.048   8.577   2.626 -0.0472 -0.1260  0.2123
17939SOL    HW155824   2.137   8.541   2.631 -0.0254 -0.8028 -2.8419
17939SOL    HW255825   1.992   8.500   2.612 -0.3404  0.5606 -3.5072
17940SOL     OW55826   0.889   3.552   4.735  0.0070 -0.2124 -0.3959
17940SOL    HW155827   0.878   3.467   4.777  2.0119  0.0274  0.7276
17940SOL    HW255828   0.897   3.532   4.642 -3.3855 -0.8507 -0.6677
17941SOL     OW55829   3.929   7.996  11.098 -0.5072  0.5202  0.4711
17941SOL    HW155830   3.921   7.906  11.129  0.8039 -0.0741 -0.7981
17941SOL    HW255831   3.950   8.047  11.177 -0.7504 -0.3576  1.1168
17942SOL     OW55832   3.667   6.478   5.844  0.3614 -0.1192  1.0380
17942SOL    HW155833   3.639   6.401   5.894  0.3161 -0.4428  0.5212
17942SOL    HW255834   3.756   6.456   5.815 -1.1123 -1.9299 -2.8441
17943SOL     OW55835   1.958   9.198   8.041 -0.2316 -0.6712 -1.1162
17943SOL    HW155836   1.988   9.138   7.972 -1.5425 -1.8520 -0.7031
17943SOL    HW255837   1.897   9.257   7.996  1.0812  0.4144 -1.5291
17944SOL     OW55838   0.317  10.068  10.028  0.1097  0.5544  0.1963
17944SOL    HW155839   0.222  10.068  10.016  0.0112 -0.7742  0.8459
17944SOL    HW255840   0.352  10.102   9.946 -0.7983 -2.1392 -1.4075
17945SOL     OW55841  10.683   7.098   8.525  0.0366  0.3882  0.7968
17945SOL    HW155842  10.617   7.163   8.500 -1.2066 -1.3595 -0.7327
17945SOL    HW255843  10.636   7.038   8.583  0.3863 -0.6235  0.0553
17946SOL     OW55844   9.233   7.009  10.328  0.2286 -0.2711  0.3060
17946SOL    HW155845   9.219   7.100  10.299  0.0707 -0.6081 -0.7178
17946SOL    HW255846   9.321   7.009  10.365  1.5264 -0.3535 -2.5350
17947SOL     OW55847  10.565   2.619   8.663 -0.2458  0.7230  0.1494
17947SOL    HW155848  10.471   2.636   8.666 -1.2948 -3.7726  0.2206
17947SOL    HW255849  10.579   2.574   8.580  1.6666  0.4288  0.5663
17948SOL     OW55850   3.194   8.598   0.805  0.5557  0.4472 -0.3017
17948SOL    HW155851   3.268   8.611   0.865  0.7337  1.0342 -0.6445
17948SOL    HW255852   3.129   8.661   0.835 -0.1875 -0.6736  0.5713
17949SOL     OW55853  10.458   0.749  11.277  0.8308  0.1767  0.3323
17949SOL    HW155854  10.447   0.667  11.327  4.2055  0.4699  1.8069
17949SOL    HW255855  10.552   0.755  11.261  0.5879  3.3236 -0.5545
17950SOL     OW55856  10.419   7.056   6.288  0.0285 -0.2282 -0.1726
17950SOL    HW155857  10.403   6.969   6.251  0.5614 -0.5029  0.2168
17950SOL    HW255858  10.496   7.088   6.241  1.1118 -0.8544  1.0995
17951SOL     OW55859   4.876   8.561   0.554 -0.0655  0.5222  0.6210
17951SOL    HW155860   4.851   8.567   0.462  0.9945 -0.1001  0.2738
17951SOL    HW255861   4.796   8.583   0.602 -1.4467 -1.9133 -0.4123
17952SOL     OW55862   3.130   1.842   4.829 -0.2143  0.2881  0.3007
17952SOL    HW155863   3.058   1.825   4.890 -0.9483 -0.4095 -0.7366
17952SOL    HW255864   3.204   1.794   4.865 -0.6931 -0.2794  0.5418
17953SOL     OW55865   5.706   5.907   9.966  0.1700  0.1946  0.0977
17953SOL    HW155866   5.789   5.860   9.954 -1.8148 -3.0309 -2.7038
17953SOL    HW255867   5.693   5.955   9.884 -0.4780  1.2419  0.7822
17954SOL     OW55868   9.657   4.981   5.687  0.7062  1.1380 -1.1519
17954SOL    HW155869   9.634   4.893   5.657  0.5425  1.6930 -2.7803
17954SOL    HW255870   9.573   5.025   5.702  0.7762  1.1986 -0.9377
17955SOL     OW55871   0.839   9.501   4.827  0.1127  0.5398 -0.4228
17955SOL    HW155872   0.909   9.561   4.853 -0.8631  2.0057 -1.0294
17955SOL    HW255873   0.762   9.534   4.873  0.0991 -2.0608  1.5948
17956SOL     OW55874   2.067   0.383   8.733  0.4619 -0.5888 -0.5848
17956SOL    HW155875   2.059   0.341   8.647 -0.5951  2.7817 -2.3209
17956SOL    HW255876   2.135   0.449   8.721  0.7665 -0.4828  1.4117
17957SOL     OW55877   4.365   0.871   7.431 -0.4128  0.2670 -0.3212
17957SOL    HW155878   4.339   0.924   7.356 -2.2374 -1.2151 -0.7977
17957SOL    HW255879   4.300   0.890   7.498 -1.4255 -1.6787 -0.6755
17958SOL     OW55880   9.427   9.775   2.489 -0.1878 -0.0408  0.9044
17958SOL    HW155881   9.401   9.865   2.505 -1.4911 -0.5182  1.6115
17958SOL    HW255882   9.520   9.780   2.467 -0.0441  1.3778  1.7330
17959SOL     OW55883   9.295   5.305   3.348 -0.7060 -0.0639 -0.2724
17959SOL    HW155884   9.354   5.230   3.356  0.5230  0.8867 -0.0818
17959SOL    HW255885   9.207   5.266   3.348 -0.1157 -1.4826 -0.0498
17960SOL     OW55886  11.052   5.137   5.131  0.3575  0.3102  0.1530
17960SOL    HW155887  11.080   5.086   5.207 -2.4553 -0.1379  1.0155
17960SOL    HW255888  11.041   5.073   5.061  1.8891  0.5699 -0.3673
17961SOL     OW55889   6.445   3.021  10.427 -0.4589  0.1096  0.3928
17961SOL    HW155890   6.386   2.947  10.441  0.9893 -1.3179 -0.7008
17961SOL    HW255891   6.416   3.087  10.491 -0.9701 -1.8886  2.3492
17962SOL     OW55892   1.532   9.829   7.307  0.4851 -0.2706  0.3913
17962SOL    HW155893   1.494   9.752   7.349 -0.6957 -0.5847 -1.1611
17962SOL    HW255894   1.469   9.899   7.324  0.2452 -0.2869 -0.4028
17963SOL     OW55895  10.550   0.450  10.444  0.7136  0.2526  0.3854
17963SOL    HW155896  10.525   0.362  10.418  0.8170  0.9104 -2.1990
17963SOL    HW255897  10.644   0.454  10.429  1.0670  0.2631  2.3429
17964SOL     OW55898   1.527   0.481   2.166 -0.3345  0.1924 -0.2603
17964SOL    HW155899   1.564   0.564   2.136 -3.4575  1.7128 -0.2681
17964SOL    HW255900   1.559   0.416   2.103 -1.3584  2.1786 -2.9999
17965SOL     OW55901   0.769   6.652   2.888 -0.0150  0.1385  0.0937
17965SOL    HW155902   0.773   6.557   2.874 -1.3734  0.0106  0.4368
17965SOL    HW255903   0.678   6.669   2.913  0.7716  1.1950  2.5476
17966SOL     OW55904   6.586   4.644   0.928 -0.6670 -0.0258 -0.1446
17966SOL    HW155905   6.494   4.659   0.949 -0.7199  2.2981 -1.6730
17966SOL    HW255906   6.629   4.726   0.950  1.2014 -1.2478  1.0363
17967SOL     OW55907   0.354   2.305   0.886 -0.0276  0.0609  0.1215
17967SOL    HW155908   0.291   2.372   0.913  1.5848  1.6631  0.1367
17967SOL    HW255909   0.355   2.310   0.790 -0.1346 -0.1797  0.1065
17968SOL     OW55910   4.458   9.543   7.936 -0.1318  0.0192  0.5563
17968SOL    HW155911   4.471   9.592   7.854 -0.0461  0.2444  0.7032
17968SOL    HW255912   4.411   9.464   7.910  0.0358  0.0141  0.2646
17969SOL     OW55913   2.032   4.612  10.763 -0.2477  0.1474 -0.7257
17969SOL    HW155914   2.076   4.672  10.703 -0.5891  0.4544 -0.6725
17969SOL    HW255915   1.979   4.668  10.820 -0.0244 -0.1502 -0.2173
17970SOL     OW55916   0.167   7.459   2.699 -0.1091  0.4131 -0.2934
17970SOL    HW155917   0.079   7.464   2.736 -0.0957 -1.1271  0.0048
17970SOL    HW255918   0.160   7.507   2.616 -0.0928  4.0799  1.6110
17971SOL     OW55919   7.081  10.763   1.198  0.0224  0.3210  0.3155
17971SOL    HW155920   7.161  10.724   1.234  1.2806  3.5487  1.3967
17971SOL    HW255921   7.077  10.732   1.108  0.5380 -2.6261  1.2073
17972SOL     OW55922   7.096   7.041   2.821  0.1906  0.0471 -0.3240
17972SOL    HW155923   7.014   6.992   2.813 -0.3053  0.6622  0.7250
17972SOL    HW255924   7.125   7.025   2.911 -1.6287  3.9943  1.2455
17973SOL     OW55925   8.727  11.256   9.650 -0.4258  0.1355  1.0195
17973SOL    HW155926   8.774  11.198   9.590 -1.5890 -2.3607  2.3384
17973SOL    HW255927   8.794  11.292   9.707  0.6247  2.0920 -1.2811
17974SOL     OW55928   2.559   8.028   9.019 -0.2522 -0.0992  0.2187
17974SOL    HW155929   2.499   7.955   9.004 -1.2899  0.7297  0.2746
17974SOL    HW255930   2.646   7.991   9.001 -0.6398 -1.6538  1.3350
17975SOL     OW55931  11.190  10.783   8.861 -0.6778  0.0756  0.4384
17975SOL    HW155932  11.159  10.808   8.948 -0.7294  0.8476  0.2116
17975SOL    HW255933  11.110  10.780   8.808 -0.7249 -1.0232  0.5549
17976SOL     OW55934   8.199   4.524  10.659  0.2633 -0.7176 -0.4975
17976SOL    HW155935   8.156   4.519  10.745 -0.1573 -0.3351 -0.6766
17976SOL    HW255936   8.195   4.435  10.625 -1.6251 -0.4655 -1.0775
17977SOL     OW55937   6.014  10.203   8.845  0.2549  0.1133 -0.2275
17977SOL    HW155938   6.037  10.139   8.912 -1.6076 -0.0625  0.2917
17977SOL    HW255939   5.980  10.278   8.894  0.6393  0.7524 -0.9137
17978SOL     OW55940   7.879   8.121   2.541 -0.5798 -0.1991  0.2178
17978SOL    HW155941   7.824   8.072   2.480  0.5314  0.4949 -1.4347
17978SOL    HW255942   7.819   8.184   2.581 -0.8686  1.4339 -2.4955
17979SOL     OW55943   8.278   5.713   3.006  0.5875  0.1435  0.1113
17979SOL    HW155944   8.225   5.690   2.930  2.6992  0.0284 -1.4265
17979SOL    HW255945   8.216   5.719   3.078 -1.3235 -1.0459 -1.3472
17980SOL     OW55946   4.885   1.590   0.929  0.1903 -0.2677 -0.2478
17980SOL    HW155947   4.938   1.588   0.849 -0.3476 -3.5764 -0.6625
17980SOL    HW255948   4.797   1.568   0.900 -0.2673 -0.3694  1.1401
17981SOL     OW55949   1.324   1.808   4.923 -0.0167  0.0927 -0.1561
17981SOL    HW155950   1.315   1.766   4.838  1.1960  0.3440 -0.4248
17981SOL    HW255951   1.409   1.778   4.956 -1.0693 -1.1275  1.6083
17982SOL     OW55952   4.525   5.085   8.519  0.4390 -0.1909  0.1921
17982SOL    HW155953   4.487   5.133   8.445  1.5132 -0.8299 -0.7974
17982SOL    HW255954   4.463   5.013   8.535  0.5541 -0.4681 -0.5655
17983SOL     OW55955   5.657   2.035   9.033  0.2343  0.5810 -0.3714
17983SOL    HW155956   5.694   1.952   9.006  0.0630  0.8410 -1.4552
17983SOL    HW255957   5.728   2.080   9.079  1.1276  0.8586 -1.9568
17984SOL     OW55958   4.638   0.940   2.445 -0.2317 -0.2847 -0.0465
17984SOL    HW155959   4.605   1.017   2.400 -1.2517  0.0717  1.2228
17984SOL    HW255960   4.600   0.946   2.533 -1.6206 -3.0040 -0.3460
17985SOL     OW55961   6.273   7.480   0.627  0.5835 -0.1233 -0.4928
17985SOL    HW155962   6.368   7.468   0.621  0.7651  1.3247 -0.8028
17985SOL    HW255963   6.261   7.574   0.636 -0.7376 -0.4304  1.7889
17986SOL     OW55964   9.433   6.557   1.936 -0.2253  0.1211  0.4599
17986SOL    HW155965   9.512   6.523   1.977 -0.3197 -2.5685 -1.3188
17986SOL    HW255966   9.365   6.494   1.961 -1.2407  0.9472 -0.1448
17987SOL     OW55967   9.070   3.926   8.824 -0.1088 -0.6028  0.3810
17987SOL    HW155968   8.984   3.927   8.866 -0.3615 -1.9111 -0.0625
17987SOL    HW255969   9.083   3.835   8.798  0.8994 -0.1974 -0.6063
17988SOL     OW55970   6.382   8.524  10.356 -0.6887  0.8551 -0.4879
17988SOL    HW155971   6.450   8.502  10.293 -0.7872  1.9731 -1.0019
17988SOL    HW255972   6.427   8.578  10.422 -0.0632 -2.0166  1.6488
17989SOL     OW55973   7.832   3.369   8.307  0.1193  0.1121  0.6939
17989SOL    HW155974   7.793   3.342   8.390 -1.5791  0.7772  0.1492
17989SOL    HW255975   7.868   3.456   8.325 -2.6878  1.5118  0.1259
17990SOL     OW55976   9.406  11.158   4.946  0.2089 -0.3241 -0.7900
17990SOL    HW155977   9.474  11.219   4.917 -0.9185 -0.3003 -3.7557
17990SOL    HW255978   9.414  11.157   5.041  1.2710  3.2699 -0.6822
17991SOL     OW55979   6.926   5.614  10.424 -0.0172  0.2170  0.7881
17991SOL    HW155980   6.942   5.563  10.503  3.3179  0.3362  0.3564
17991SOL    HW255981   6.925   5.549  10.353  0.8357  0.4077  0.5852
17992SOL     OW55982   5.586   2.021   2.756  0.0085  0.3427  0.5607
17992SOL    HW155983   5.587   2.092   2.819  0.5875 -0.6758  1.7440
17992SOL    HW255984   5.575   1.942   2.809 -1.2495 -0.4155 -0.7676
17993SOL     OW55985   8.625   6.149   2.205  1.0770 -0.5051  0.7707
17993SOL    HW155986   8.560   6.124   2.271  0.3249 -0.0213  0.2243
17993SOL    HW255987   8.696   6.189   2.255 -0.8518  2.8497  1.1200
17994SOL     OW55988   4.850   1.023   7.842  0.0071 -0.3994 -0.5544
17994SOL    HW155989   4.922   1.080   7.871 -1.0019  0.0042  1.3385
17994SOL    HW255990   4.863   0.942   7.891 -1.3444  0.0454  0.6255
17995SOL     OW55991   1.425  10.197   1.442  0.6407 -0.1791 -0.2903
17995SOL    HW155992   1.444  10.211   1.535 -0.6818 -0.2424  0.0127
17995SOL    HW255993   1.411  10.103   1.434  0.6233 -0.1559 -0.5315
17996SOL     OW55994   2.723   4.563   1.898 -0.5803 -0.0408 -0.3457
17996SOL    HW155995   2.666   4.487   1.886  0.0659 -0.9578  1.7948
17996SOL    HW255996   2.791   4.532   1.959 -0.0252  2.1279  0.2281
17997SOL     OW55997   7.730  10.309   1.759  0.7394  0.5056 -0.1649
17997SOL    HW155998   7.762  10.334   1.673 -0.9600  1.0246 -0.6820
17997SOL    HW255999   7.698  10.219   1.747 -0.4214  0.9341 -0.3497
17998SOL     OW56000   5.706   0.036   0.875  0.5675 -0.3673 -0.1511
17998SOL    HW156001   5.801   0.021   0.871  0.4851 -0.7174 -0.8329
17998SOL    HW256002   5.697   0.106   0.940  1.1895 -1.1637  0.8456
17999SOL     OW56003  10.551   0.018   8.026 -0.0717  0.0451  0.0506
17999SOL    HW156004  10.619   0.086   8.023  0.0230  0.0054  0.8895
17999SOL    HW256005  10.549  -0.019   7.938  1.3152 -0.2579  0.1239
18000SOL     OW56006   4.179   0.013   9.641  0.1259 -0.3301  0.0233
18000SOL    HW156007   4.272   0.030   9.625  0.2811 -1.2631 -0.0913
18000SOL    HW256008   4.140   0.100   9.649  1.0510  0.0631  0.3241
18001SOL     OW56009   8.352   6.279   5.112  0.3414  0.9494 -0.3140
18001SOL    HW156010   8.328   6.325   5.031 -0.2254  1.1552 -0.0314
18001SOL    HW256011   8.289   6.208   5.118 -1.0119  2.2079  1.0679
18002SOL     OW56012   2.964   4.816   4.234 -0.3426  0.0969 -0.4445
18002SOL    HW156013   3.043   4.773   4.266 -0.6768 -0.8962 -0.9354
18002SOL    HW256014   2.906   4.820   4.311  0.2969  1.1447  0.0078
18003SOL     OW56015   2.963   5.383   9.332  0.5731  0.8043  0.4997
18003SOL    HW156016   3.017   5.340   9.397 -2.0539 -3.4563  0.2440
18003SOL    HW256017   2.880   5.400   9.376  0.1317  1.7743 -0.6289
18004SOL     OW56018   7.016   5.992   0.232  0.0390 -0.6114  0.5822
18004SOL    HW156019   7.019   6.087   0.225  0.4231 -0.5799  1.1297
18004SOL    HW256020   6.924   5.971   0.246 -0.7076 -0.6022 -3.1585
18005SOL     OW56021   4.156   9.724  11.023  0.1510  0.0737 -0.0517
18005SOL    HW156022   4.120   9.805  10.989  1.4443  0.5606 -0.3392
18005SOL    HW256023   4.243   9.749  11.054  0.7128 -1.2778 -0.4903
18006SOL     OW56024   1.755  10.662   4.494 -0.1229  0.0405  0.0531
18006SOL    HW156025   1.684  10.606   4.524  0.9522 -1.2505  0.2945
18006SOL    HW256026   1.808  10.605   4.438  2.8936 -0.3147  2.9477
18007SOL     OW56027   2.842   2.918   4.684 -0.3581 -0.0393 -0.2822
18007SOL    HW156028   2.919   2.906   4.628 -0.6821 -0.3807 -0.6682
18007SOL    HW256029   2.781   2.967   4.629 -0.7115 -0.4505 -0.2614
18008SOL     OW56030   5.684   4.735   0.106 -0.1643  0.2868 -1.1208
18008SOL    HW156031   5.644   4.745   0.019  0.6849 -3.1255 -2.0302
18008SOL    HW256032   5.769   4.778   0.098  0.4879 -1.1599 -2.4924
18009SOL     OW56033   8.847   7.251  10.838 -0.1061  0.1595  0.5933
18009SOL    HW156034   8.752   7.261  10.847 -0.4572  2.5348 -3.3138
18009SOL    HW256035   8.861   7.157  10.837 -2.4991 -0.2723  0.9099
18010SOL     OW56036   6.886  10.476   3.938  0.2019  0.1747  0.3266
18010SOL    HW156037   6.840  10.413   3.992  0.4895  0.4790  0.9349
18010SOL    HW256038   6.970  10.433   3.918  1.1807  1.0547  2.2675
18011SOL     OW56039   2.872   3.069   0.354 -0.7050 -0.4884 -0.0042
18011SOL    HW156040   2.808   3.130   0.317 -0.1239 -0.3421 -0.7876
18011SOL    HW256041   2.835   3.045   0.440 -0.1475  2.2518  1.1025
18012SOL     OW56042   9.935   6.959   1.790  0.0545  0.7184 -0.0604
18012SOL    HW156043   9.991   6.894   1.747 -0.6395 -0.2435  0.4530
18012SOL    HW256044   9.969   7.043   1.759  1.3497  0.1478 -0.2907
18013SOL     OW56045   6.343   7.098  11.048 -0.2291  0.3869  0.2886
18013SOL    HW156046   6.387   7.181  11.068 -2.2088  1.5418  0.2414
18013SOL    HW256047   6.330   7.057  11.133 -0.6324  0.9201  0.4955
18014SOL     OW56048  10.695   3.977   6.079 -0.2355  1.4835 -0.7455
18014SOL    HW156049  10.772   4.030   6.100  0.0261  0.5464  0.8576
18014SOL    HW256050  10.637   3.988   6.154 -1.3888  1.6473 -1.6335
18015SOL     OW56051   2.745   2.563   6.488 -0.0900  0.3213  0.1096
18015SOL    HW156052   2.818   2.614   6.453  1.3599 -0.8149  1.3392
18015SOL    HW256053   2.738   2.488   6.430 -2.1672  1.7435 -1.6474
18016SOL     OW56054   6.082   5.056   4.370 -0.5367  0.3565 -0.0772
18016SOL    HW156055   6.101   5.079   4.460  0.8182  1.8902 -0.7094
18016SOL    HW256056   5.988   5.073   4.360 -0.6186  0.5295  0.9429
18017SOL     OW56057   2.638   9.589  10.683 -0.1338 -0.4780 -0.3530
18017SOL    HW156058   2.581   9.641  10.627  1.1608 -0.5855 -1.8311
18017SOL    HW256059   2.594   9.588  10.768 -2.5260 -0.9240 -1.5294
18018SOL     OW56060  10.478   8.822   5.499  0.4312 -0.0990 -0.0364
18018SOL    HW156061  10.460   8.813   5.593  0.1078  0.3489 -0.0512
18018SOL    HW256062  10.536   8.898   5.493  0.3395 -0.0419 -0.2084
18019SOL     OW56063  10.487   2.446   5.201  0.0976  0.4941  0.3596
18019SOL    HW156064  10.434   2.389   5.145  1.5684 -2.3503  1.6399
18019SOL    HW256065  10.550   2.487   5.141 -2.0911  2.3307 -0.8518
18020SOL     OW56066   3.132   5.250   9.830  0.1313  0.4305  0.0206
18020SOL    HW156067   3.039   5.232   9.849  0.6065  0.2981  2.5599
18020SOL    HW256068   3.155   5.320   9.891  1.3143  1.5974 -1.7167
18021SOL     OW56069   8.655   1.862   6.831  0.3002  0.1956  0.2017
18021SOL    HW156070   8.574   1.902   6.862  0.4586  0.2310  0.5715
18021SOL    HW256071   8.626   1.790   6.775 -0.1172 -2.5513  3.6405
18022SOL     OW56072   1.250   6.764   6.995  1.2698  0.2569  0.3602
18022SOL    HW156073   1.166   6.802   6.969  2.6230  3.1625 -0.2062
18022SOL    HW256074   1.238   6.738   7.087 -0.0739  1.1791  0.4692
18023SOL     OW56075   6.187   2.854   5.116 -0.2482 -0.4098  0.6711
18023SOL    HW156076   6.112   2.914   5.112 -0.7655 -0.9760  1.6215
18023SOL    HW256077   6.173   2.793   5.044  0.2675  0.5667 -0.2914
18024SOL     OW56078   9.634   9.128   1.438  0.0771 -0.1126  0.5603
18024SOL    HW156079   9.656   9.214   1.473 -1.9115  1.1749 -1.0941
18024SOL    HW256080   9.663   9.131   1.347  1.4175 -1.8301  0.8897
18025SOL     OW56081   1.280   9.719   2.178  0.3377 -0.0636  0.2947
18025SOL    HW156082   1.367   9.734   2.217  0.8365  0.3875 -0.9476
18025SOL    HW256083   1.259   9.802   2.134 -1.8816  0.7627  2.6622
18026SOL     OW56084   3.341   5.307   2.172 -0.1317  0.3351 -0.7765
18026SOL    HW156085   3.385   5.311   2.257 -1.2755  0.1002 -0.1565
18026SOL    HW256086   3.276   5.377   2.174 -0.0696  0.4256 -1.5160
18027SOL     OW56087   5.269   0.673   5.458 -0.1592  0.4069 -0.0541
18027SOL    HW156088   5.293   0.590   5.499 -0.7966  1.7215  3.2885
18027SOL    HW256089   5.230   0.724   5.528 -1.5956  2.8612 -2.4390
18028SOL     OW56090   1.576  10.226   9.759  0.3677  0.0036  0.1385
18028SOL    HW156091   1.614  10.268   9.836  1.2670  1.8668 -1.2391
18028SOL    HW256092   1.560  10.298   9.698  1.9326 -1.6226 -2.3422
18029SOL     OW56093   4.150  10.076   1.360  0.1920  0.3062 -0.0612
18029SOL    HW156094   4.107  10.156   1.330  3.0778  1.4763 -1.4828
18029SOL    HW256095   4.227  10.106   1.407  1.8103 -1.5803 -1.3349
18030SOL     OW56096   9.568   6.220  11.055  0.2567  0.1615  0.2548
18030SOL    HW156097   9.570   6.247  10.963  0.9742 -0.9935 -0.0902
18030SOL    HW256098   9.604   6.131  11.055  1.8519  0.7454  1.8582
18031SOL     OW56099   4.927   1.962   0.924 -0.2186 -0.9861 -0.3083
18031SOL    HW156100   4.879   2.018   0.984  0.2004 -0.3013 -0.5998
18031SOL    HW256101   4.869   1.888   0.908 -0.4168 -1.0855  0.7819
18032SOL     OW56102   7.094   6.464  10.022 -0.6982  0.1318  0.2208
18032SOL    HW156103   7.087   6.428   9.933  0.3990 -0.3308  0.3083
18032SOL    HW256104   7.105   6.387  10.078 -2.4332  0.3429  0.8983
18033SOL     OW56105  11.215   7.061   3.820  0.0208 -0.0586  0.7859
18033SOL    HW156106  11.123   7.079   3.799 -0.2246 -1.1947  0.7863
18033SOL    HW256107  11.258   7.055   3.735  0.4459  2.0377  0.8132
18034SOL     OW56108   9.707  10.292   7.504 -0.1700 -0.0206  0.4314
18034SOL    HW156109   9.703  10.372   7.452  3.3962 -0.7340 -1.1981
18034SOL    HW256110   9.694  10.222   7.441  2.4552 -0.8327  0.6825
18035SOL     OW56111   6.659   1.566   8.769  0.0040 -0.2340 -0.8508
18035SOL    HW156112   6.744   1.529   8.744  0.3638 -0.3532  0.4661
18035SOL    HW256113   6.656   1.556   8.864 -0.7644  1.3079 -0.6915
18036SOL     OW56114   3.131  10.238   5.794 -0.0305 -0.1040 -0.3899
18036SOL    HW156115   3.181  10.296   5.851 -1.2291  0.9463 -0.3592
18036SOL    HW256116   3.113  10.290   5.716  0.1850 -0.9716 -1.0448
18037SOL     OW56117   8.989  10.584   2.230 -0.0301  0.1554  0.0575
18037SOL    HW156118   9.059  10.640   2.197 -0.0566  1.5763  2.2208
18037SOL    HW256119   9.035  10.515   2.278  0.0092 -1.9060 -2.6771
18038SOL     OW56120   5.324  10.025   5.434  0.0431 -0.1777  0.0673
18038SOL    HW156121   5.255   9.959   5.424 -0.0031 -0.1739  0.3579
18038SOL    HW256122   5.286  10.106   5.400  0.3111 -0.4295 -0.8666
18039SOL     OW56123   4.512   0.564   4.703  0.1561 -0.5799  0.1790
18039SOL    HW156124   4.442   0.499   4.713 -0.5189  0.1377  0.2074
18039SOL    HW256125   4.467   0.643   4.676  0.7225  0.3826  1.8801
18040SOL     OW56126   0.769   1.656   9.773  0.6027  0.0998  0.2944
18040SOL    HW156127   0.765   1.631   9.681  1.1210  0.2494  0.2315
18040SOL    HW256128   0.802   1.746   9.773  2.1045 -0.4176  0.6934
18041SOL     OW56129   7.538   0.771   3.371 -0.6423 -0.1870 -0.3428
18041SOL    HW156130   7.500   0.834   3.432  0.1084  0.3730 -0.4369
18041SOL    HW256131   7.489   0.690   3.386  0.0117 -0.2736  1.5172
18042SOL     OW56132   7.133   0.198   9.207  0.1918  0.0306 -0.3096
18042SOL    HW156133   7.114   0.109   9.177  1.3868 -0.0699 -0.8410
18042SOL    HW256134   7.088   0.255   9.144 -2.2838 -0.1477  1.1834
18043SOL     OW56135   9.410   0.087   7.288 -0.5059  0.6801 -0.5133
18043SOL    HW156136   9.377   0.168   7.249 -1.0836  0.9158  0.4415
18043SOL    HW256137   9.428   0.109   7.379 -1.2663 -0.4157 -0.0798
18044SOL     OW56138  10.300   1.154  11.179 -0.1809 -0.2472 -0.2350
18044SOL    HW156139  10.275   1.140  11.271  1.6670  0.9286  0.5242
18044SOL    HW256140  10.337   1.243  11.178  0.1336 -0.3645 -2.0610
18045SOL     OW56141  10.396   5.482   3.368  0.2408 -0.1947 -0.1043
18045SOL    HW156142  10.335   5.408   3.362 -0.0287  0.1297 -1.7552
18045SOL    HW256143  10.424   5.497   3.278  1.3829  0.8232  0.4059
18046SOL     OW56144   0.920   8.894   4.306  1.1425 -0.3651  0.4147
18046SOL    HW156145   0.881   8.810   4.283 -0.4449 -0.0808  1.8796
18046SOL    HW256146   0.888   8.912   4.394  3.5193  0.5838  1.1631
18047SOL     OW56147   8.273   8.359   3.043  0.0668  0.0524 -0.1965
18047SOL    HW156148   8.348   8.419   3.034  0.1843 -0.0057  0.3699
18047SOL    HW256149   8.272   8.336   3.136 -3.3686  3.5871  0.9328
18048SOL     OW56150   1.136  10.526   9.915  0.1654 -0.4389 -0.3498
18048SOL    HW156151   1.121  10.436   9.943 -2.7609  0.2525  0.6784
18048SOL    HW256152   1.095  10.531   9.829  0.2237 -0.0750 -0.3558
18049SOL     OW56153   8.473   1.371   0.463  0.4619 -0.5152 -0.1717
18049SOL    HW156154   8.485   1.466   0.460 -0.5643 -0.3353  0.8296
18049SOL    HW256155   8.389   1.359   0.508  0.9101 -1.9171  0.3346
18050SOL     OW56156   8.997   0.892   8.270  0.0914  0.2497  0.2659
18050SOL    HW156157   8.960   0.867   8.185 -3.1530 -0.4456  1.7439
18050SOL    HW256158   9.022   0.984   8.259  0.1028  0.0714 -1.5213
18051SOL     OW56159   2.960   6.313   0.687  0.5199 -0.1510  0.2064
18051SOL    HW156160   2.876   6.357   0.676 -0.1252 -1.2208  0.6542
18051SOL    HW256161   2.987   6.289   0.599 -0.0682 -0.5473  0.1277
18052SOL     OW56162   7.436   8.852   8.244  0.7012  0.2408  0.7130
18052SOL    HW156163   7.506   8.858   8.309  2.1443 -2.4660 -0.4198
18052SOL    HW256164   7.424   8.758   8.230  0.1978  0.6798 -2.6268
18053SOL     OW56165   7.749   5.903   9.861 -1.2084 -0.3523 -0.0047
18053SOL    HW156166   7.810   5.970   9.830 -0.8331 -0.3068  0.8222
18053SOL    HW256167   7.789   5.820   9.834 -1.3853 -0.2827 -0.5092
18054SOL     OW56168  10.093   2.127   9.856  0.1947 -0.4140  0.1204
18054SOL    HW156169  10.107   2.146   9.949  0.9116  1.8319 -0.3725
18054SOL    HW256170   9.998   2.134   9.844  0.2115  0.6049  0.4732
18055SOL     OW56171   1.535   5.742   9.586  0.5068 -0.5003  0.1790
18055SOL    HW156172   1.509   5.824   9.543 -0.2918  0.8647  2.9966
18055SOL    HW256173   1.473   5.677   9.554  0.3411  0.2841 -1.1546
18056SOL     OW56174   2.380   6.327   0.640 -0.9125 -0.9745 -0.0956
18056SOL    HW156175   2.285   6.338   0.635 -0.6928  1.2180 -0.5288
18056SOL    HW256176   2.411   6.348   0.552  0.1667  1.6146  0.7826
18057SOL     OW56177   8.273   8.221   1.884 -0.2418  0.3966  0.3846
18057SOL    HW156178   8.188   8.212   1.839  0.1088 -0.0347 -0.2092
18057SOL    HW256179   8.330   8.158   1.839  0.9641  2.1236 -0.6323
18058SOL     OW56180   0.692   4.997  10.015 -0.8600  0.3569  0.5384
18058SOL    HW156181   0.682   4.956   9.928 -1.1875  1.0912  0.2202
18058SOL    HW256182   0.772   4.959  10.050 -0.9248 -0.2342  0.0741
18059SOL     OW56183   9.639   4.973   9.141 -0.0273 -0.6832  0.0542
18059SOL    HW156184   9.668   4.998   9.054  0.1723 -0.5689  0.1530
18059SOL    HW256185   9.712   4.995   9.199 -0.8761  1.0835  0.5275
18060SOL     OW56186   2.053   5.017   4.777 -0.7040 -0.2218 -0.0390
18060SOL    HW156187   1.962   5.018   4.748 -0.6817 -2.6994 -0.4424
18060SOL    HW256188   2.062   5.094   4.833 -2.3025  1.5512 -2.0550
18061SOL     OW56189   8.864   7.691   3.792  0.3596  0.3259  0.3341
18061SOL    HW156190   8.844   7.783   3.778  1.5404  0.5605  0.0258
18061SOL    HW256191   8.939   7.692   3.852  0.2905 -0.4358  0.4474
18062SOL     OW56192  10.873   2.484   0.303  0.9066  0.5684 -0.1860
18062SOL    HW156193  10.780   2.482   0.283  0.9413 -0.0706 -0.3005
18062SOL    HW256194  10.911   2.414   0.249  1.6775  1.7515 -1.2365
18063SOL     OW56195   8.612   5.629   1.962  0.2138  0.0717  0.3183
18063SOL    HW156196   8.614   5.677   2.045  0.3145 -1.4840  1.2621
18063SOL    HW256197   8.684   5.565   1.969  0.4512  0.1367 -1.1246
18064SOL     OW56198   2.165   1.108   9.404  0.0941 -0.5440 -0.0814
18064SOL    HW156199   2.211   1.160   9.339  1.2345 -0.5558  0.6934
18064SOL    HW256200   2.201   1.137   9.488 -1.7120 -0.1567  0.6109
18065SOL     OW56201   0.943   4.811   5.202 -0.6177  0.3286  0.1179
18065SOL    HW156202   0.910   4.748   5.266 -0.9607  0.6489  0.2588
18065SOL    HW256203   0.953   4.760   5.122 -0.6173  0.0281  0.3080
18066SOL     OW56204   2.617   8.968   2.905 -0.0189  0.4807 -0.6293
18066SOL    HW156205   2.679   8.917   2.852 -0.3425 -1.1080  0.4463
18066SOL    HW256206   2.627   8.933   2.994 -4.4843 -2.0634 -0.8166
18067SOL     OW56207   7.389   6.143   9.427 -0.3668 -0.0476  0.3862
18067SOL    HW156208   7.475   6.119   9.462 -0.4249  0.5684  0.9787
18067SOL    HW256209   7.403   6.151   9.333 -0.2189 -1.8005  0.2366
18068SOL     OW56210  10.879   6.616   1.056 -0.0251  0.6631 -0.0990
18068SOL    HW156211  10.914   6.650   1.138  0.5163 -0.6735  0.2565
18068SOL    HW256212  10.927   6.534   1.042  2.0050  2.2063 -3.2283
18069SOL     OW56213   8.449  10.196   8.485 -0.1504 -0.5278 -1.1088
18069SOL    HW156214   8.505  10.273   8.484 -3.1918  1.9099 -2.9320
18069SOL    HW256215   8.463  10.154   8.400 -0.2064 -0.6271 -1.0695
18070SOL     OW56216   2.129   2.736   8.579 -0.5295  0.7822 -0.1966
18070SOL    HW156217   2.100   2.827   8.589  1.1911  1.2455  1.2595
18070SOL    HW256218   2.195   2.724   8.648 -0.1090 -1.3282 -0.8709
18071SOL     OW56219   7.545   3.915   5.307  0.1481 -0.1364 -0.3263
18071SOL    HW156220   7.630   3.943   5.272  0.6590 -2.4336 -1.1750
18071SOL    HW256221   7.567   3.851   5.375 -0.8516 -1.0221 -0.7908
18072SOL     OW56222   1.007   9.228   1.334  0.1992 -0.4423 -0.9076
18072SOL    HW156223   0.962   9.146   1.355  1.2556 -1.2490 -1.6876
18072SOL    HW256224   0.945   9.275   1.278 -0.8932 -0.1534  0.4776
18073SOL     OW56225   0.447   3.764  10.663 -0.2446 -0.2254  0.0236
18073SOL    HW156226   0.400   3.714  10.730 -1.1382  0.7635  0.1597
18073SOL    HW256227   0.493   3.697  10.612 -0.1373 -1.0557  1.1594
18074SOL     OW56228   0.673   3.393   9.608 -0.1616  0.5215  0.1775
18074SOL    HW156229   0.732   3.406   9.534  2.4185  0.3906  2.0740
18074SOL    HW256230   0.719   3.332   9.665 -2.8868 -0.8714  1.0799
18075SOL     OW56231   4.504   9.260   7.607  0.5604  0.6188 -0.2347
18075SOL    HW156232   4.432   9.250   7.544 -0.6049 -0.1432  1.1783
18075SOL    HW256233   4.570   9.310   7.559 -0.0986 -0.2888 -2.2167
18076SOL     OW56234   9.322  10.561   7.365  0.1823 -0.1864  0.1254
18076SOL    HW156235   9.341  10.587   7.455  0.0167 -3.6662  1.3149
18076SOL    HW256236   9.229  10.537   7.367 -0.2791  1.2604 -1.4808
18077SOL     OW56237  10.537   7.756   6.155  0.6464 -0.3137 -0.0156
18077SOL    HW156238  10.452   7.756   6.110  0.7281  0.2824 -0.1852
18077SOL    HW256239  10.576   7.671   6.133  0.1315 -0.5576 -0.0026
18078SOL     OW56240   8.888   5.178   3.097 -0.4274  0.0217 -0.2076
18078SOL    HW156241   8.861   5.118   3.027  1.7557 -3.5688  1.7434
18078SOL    HW256242   8.930   5.122   3.162  2.3544  3.8057  1.6182
18079SOL     OW56243   5.205   3.061  10.245  0.0909 -0.1854  0.2055
18079SOL    HW156244   5.149   3.010  10.302  1.2554 -1.4218  0.2737
18079SOL    HW256245   5.148   3.088  10.173 -0.6501 -1.2053  0.4011
18080SOL     OW56246   6.947   3.220   8.974 -0.2785 -0.8245  0.0480
18080SOL    HW156247   6.907   3.264   8.898 -0.8906 -0.8300  0.3595
18080SOL    HW256248   7.027   3.270   8.990 -1.2106  0.5290  0.7049
18081SOL     OW56249   1.176   5.849   2.652 -0.2715  0.9186  0.2264
18081SOL    HW156250   1.140   5.899   2.578 -3.7025  0.1400  1.1709
18081SOL    HW256251   1.160   5.905   2.728 -1.6572 -0.3979  0.9575
18082SOL     OW56252   3.649   3.125   1.353 -0.6513 -0.6327 -0.2779
18082SOL    HW156253   3.737   3.099   1.382  0.6952  2.2803 -1.2684
18082SOL    HW256254   3.650   3.111   1.259  0.3943  2.9836 -0.9938
18083SOL     OW56255   2.764   2.429   9.634  0.2384  0.4671 -0.0924
18083SOL    HW156256   2.850   2.417   9.675  0.8246  0.4486 -1.2819
18083SOL    HW256257   2.751   2.524   9.632 -0.0237  0.4483  0.5837
18084SOL     OW56258   6.708   1.752   2.152 -0.6826 -0.5020 -0.5469
18084SOL    HW156259   6.793   1.743   2.195 -1.5507 -1.0874  1.1270
18084SOL    HW256260   6.682   1.662   2.132 -1.5244 -0.4590  0.2689
18085SOL     OW56261   7.352   1.540   3.036 -0.1909  0.4696 -0.7510
18085SOL    HW156262   7.294   1.604   3.077  0.6270  0.7777 -0.0602
18085SOL    HW256263   7.417   1.519   3.103 -0.9327 -1.7793 -0.6241
18086SOL     OW56264   9.771   4.135   1.225  0.4016  0.1765 -0.3740
18086SOL    HW156265   9.681   4.161   1.205  0.0063 -0.7581  0.0687
18086SOL    HW256266   9.763   4.084   1.306  1.0711 -1.4256 -1.2722
18087SOL     OW56267   2.333   2.857   2.765 -0.2065  0.0776  0.2247
18087SOL    HW156268   2.383   2.787   2.723 -0.6116 -0.4617  0.6227
18087SOL    HW256269   2.248   2.857   2.721  0.1851  1.1118 -0.5736
18088SOL     OW56270   1.889   1.966   5.081 -0.4109 -0.2211 -0.0478
18088SOL    HW156271   1.892   1.892   5.142  0.2615 -0.4549 -0.3507
18088SOL    HW256272   1.925   1.931   4.999 -0.1663  0.4165 -0.2188
18089SOL     OW56273  10.006  10.880   6.711  0.6524 -0.0402 -0.0856
18089SOL    HW156274   9.991  10.786   6.709  0.0851  0.0389  0.3037
18089SOL    HW256275  10.101  10.890   6.701  0.8022 -0.6780  0.6690
18090SOL     OW56276   4.070   9.949   0.080 -0.2455  0.2784  0.4045
18090SOL    HW156277   4.020   9.888   0.026 -0.7414 -0.2951  1.4892
18090SOL    HW256278   4.147   9.969   0.027 -0.3646 -0.8226 -0.2270
18091SOL     OW56279  10.545   7.072   7.723 -0.3000 -0.6308 -0.4007
18091SOL    HW156280  10.463   7.102   7.763 -0.2268 -0.1616 -0.5885
18091SOL    HW256281  10.521   7.054   7.632 -0.1466 -0.2797 -0.5108
18092SOL     OW56282  10.593   2.331   3.600  0.9780  0.3853  0.2344
18092SOL    HW156283  10.527   2.304   3.536 -3.1264 -0.0325  4.1443
18092SOL    HW256284  10.646   2.253   3.615 -0.2037 -0.5307 -0.2284
18093SOL     OW56285   0.607   8.517   3.077  0.0088  0.2378  0.3079
18093SOL    HW156286   0.555   8.592   3.107 -2.6971 -2.2016  2.1997
18093SOL    HW256287   0.560   8.485   3.000  0.2810 -0.3981  0.4024
18094SOL     OW56288   5.834   5.124   4.236  0.3867 -0.5405  0.7118
18094SOL    HW156289   5.819   5.219   4.236  0.0999 -0.5482  3.0427
18094SOL    HW256290   5.756   5.088   4.193  0.5871  0.2463 -0.3715
18095SOL     OW56291   0.893   4.350   1.599 -0.5078  0.0867  0.0361
18095SOL    HW156292   0.920   4.261   1.624  1.0444  0.0347 -1.6191
18095SOL    HW256293   0.962   4.406   1.634 -0.3856  0.4174 -0.7380
18096SOL     OW56294   3.176   0.047   0.896  0.0196 -0.5094 -0.2138
18096SOL    HW156295   3.099  -0.006   0.917  0.3483 -0.3863  1.4936
18096SOL    HW256296   3.247   0.008   0.947  1.0419 -0.4266 -1.5095
18097SOL     OW56297  10.780   8.931   0.081  0.7138  0.1128  0.5319
18097SOL    HW156298  10.867   8.964   0.058  1.4641 -1.1904  1.4140
18097SOL    HW256299  10.783   8.838   0.060 -0.6249  0.1167  0.1989
18098SOL     OW56300   8.854   2.025   9.767 -0.7542  0.2453  0.2540
18098SOL    HW156301   8.760   2.040   9.764 -1.4646 -3.3027 -0.3273
18098SOL    HW256302   8.866   1.940   9.724  2.4007 -0.5305  2.2908
18099SOL     OW56303   3.077   4.538   5.552 -0.7216  0.3063  0.4151
18099SOL    HW156304   3.100   4.469   5.615 -0.2890  0.4030  0.3684
18099SOL    HW256305   3.158   4.588   5.541 -0.6508  0.0084 -0.5711
18100SOL     OW56306   6.166   5.459   7.390  0.3836  0.4211  0.0782
18100SOL    HW156307   6.221   5.479   7.314 -0.4117 -2.8623 -1.5392
18100SOL    HW256308   6.077   5.456   7.355  0.0807 -1.8676  0.9216
18101SOL     OW56309   6.685   7.287   8.879 -0.7651  0.6495  0.6322
18101SOL    HW156310   6.727   7.271   8.964 -1.1443 -0.6809  0.5935
18101SOL    HW256311   6.669   7.199   8.844 -1.6520  1.1686 -0.2992
18102SOL     OW56312   1.096  10.686  10.440  0.3164 -0.5293  0.0131
18102SOL    HW156313   1.042  10.708  10.364  1.1135 -0.3432 -0.5078
18102SOL    HW256314   1.169  10.636  10.404  1.3155  0.5321  0.4896
18103SOL     OW56315   1.516   5.045   2.471 -0.1014  0.2476 -0.0237
18103SOL    HW156316   1.471   5.116   2.518 -0.8639 -0.4360  0.3093
18103SOL    HW256317   1.568   5.001   2.538  0.3322  0.4602 -0.2200
18104SOL     OW56318   4.474   8.588   9.245 -0.4010  0.0705  0.2463
18104SOL    HW156319   4.426   8.664   9.212 -0.2891 -0.8239 -2.2456
18104SOL    HW256320   4.521   8.620   9.322  1.0177  3.0043 -1.6568
18105SOL     OW56321   9.831   2.470   2.378  0.4329  0.9990 -0.3417
18105SOL    HW156322   9.872   2.434   2.457 -0.9477  1.9863  0.8952
18105SOL    HW256323   9.785   2.396   2.340 -0.2366  0.8347  0.7238
18106SOL     OW56324   9.332  11.051   2.705 -0.8788  0.5032  0.0006
18106SOL    HW156325   9.295  11.135   2.680 -0.1100  0.5681 -0.9585
18106SOL    HW256326   9.259  11.003   2.746 -1.0492  2.0521  1.6362
18107SOL     OW56327  11.093   3.706   9.015  0.3133 -0.0217 -0.3966
18107SOL    HW156328  11.107   3.612   9.022 -0.1998 -0.0903 -0.2428
18107SOL    HW256329  11.021   3.724   9.075  1.0243  0.6216  0.2781
18108SOL     OW56330  10.794   6.681   9.558  0.1422  0.2827  0.8437
18108SOL    HW156331  10.826   6.652   9.472  1.8902 -0.5419  1.7076
18108SOL    HW256332  10.793   6.602   9.611 -0.2007  0.9069  1.7972
18109SOL     OW56333   4.691   5.236   2.226  0.1608  0.1331 -0.2499
18109SOL    HW156334   4.706   5.151   2.185 -0.1759 -1.4187  2.5665
18109SOL    HW256335   4.597   5.238   2.245  0.3342  0.6544  0.6272
18110SOL     OW56336   1.411   4.429   0.062  0.2983 -0.5002 -0.2828
18110SOL    HW156337   1.498   4.410   0.097  0.6238 -0.0791 -0.8336
18110SOL    HW256338   1.374   4.493   0.123  0.9893  0.4758 -0.8615
18111SOL     OW56339  10.291   2.125   1.979 -1.2232 -0.2693 -0.4551
18111SOL    HW156340  10.218   2.063   1.976 -2.3722  1.0471 -1.0866
18111SOL    HW256341  10.255   2.205   1.941  0.2144  0.7780  0.3105
18112SOL     OW56342   4.127   9.612   3.770 -0.0676 -0.6666 -0.6645
18112SOL    HW156343   4.078   9.583   3.846 -2.1301  1.5639 -1.0342
18112SOL    HW256344   4.085   9.568   3.696 -0.6840  0.2105 -0.8524
18113SOL     OW56345   1.728   7.846   9.725 -0.1280  0.1438  0.0902
18113SOL    HW156346   1.809   7.877   9.686  1.9613 -1.7829  2.5536
18113SOL    HW256347   1.728   7.751   9.708 -1.3347 -0.0533  1.0429
18114SOL     OW56348   5.894   1.342   7.445  0.5015 -0.0335 -0.1801
18114SOL    HW156349   5.957   1.385   7.387  1.0425 -1.1976 -0.4860
18114SOL    HW256350   5.876   1.407   7.513  1.4115  0.6149 -0.5351
18115SOL     OW56351   5.373   1.720   5.993  0.4506 -0.1268 -0.3732
18115SOL    HW156352   5.299   1.663   5.969  0.7018 -0.7091  0.2094
18115SOL    HW256353   5.404   1.685   6.076  1.5940 -0.0955 -0.7637
18116SOL     OW56354   3.962   7.000   3.772  0.0817 -0.6393 -0.1043
18116SOL    HW156355   3.899   6.967   3.708 -0.4377 -1.9749  1.0581
18116SOL    HW256356   3.922   7.079   3.807 -2.2143 -2.7351  2.3873
18117SOL     OW56357   6.654   5.853   2.534  0.1135 -0.3345 -0.4423
18117SOL    HW156358   6.565   5.889   2.535 -0.6038 -1.9756  1.5317
18117SOL    HW256359   6.709   5.925   2.504 -1.8281  0.8223 -1.3826
18118SOL     OW56360   8.784  11.228   8.377  0.6656 -0.4312 -0.4875
18118SOL    HW156361   8.852  11.249   8.313  0.4778 -0.5744 -0.7342
18118SOL    HW256362   8.799  11.291   8.448  0.4262  0.2093 -0.9979
18119SOL     OW56363   2.598   1.558   7.746 -0.4750 -0.3341 -0.0040
18119SOL    HW156364   2.693   1.556   7.736 -0.3562  1.2485  0.4818
18119SOL    HW256365   2.580   1.493   7.814  0.3939  0.1771  0.7335
18120SOL     OW56366   4.568   8.392   8.803  0.0637  1.1273 -0.2181
18120SOL    HW156367   4.591   8.473   8.757 -1.7801  2.7358  1.5044
18120SOL    HW256368   4.575   8.415   8.895  2.1556 -1.5493  0.3958
18121SOL     OW56369   3.665   5.893   1.991 -0.2790 -0.3043  0.3648
18121SOL    HW156370   3.680   5.865   1.901  0.0779 -0.8526  0.5825
18121SOL    HW256371   3.643   5.986   1.985  0.2502 -0.2110 -0.2446
18122SOL     OW56372   3.426   1.748   4.551 -0.0341 -0.1428 -0.1464
18122SOL    HW156373   3.414   1.830   4.503 -0.2463 -0.9531 -1.5251
18122SOL    HW256374   3.513   1.718   4.525  0.5270  0.1944  1.2506
18123SOL     OW56375  10.522  11.225   1.434 -0.0960  0.8077 -0.1513
18123SOL    HW156376  10.582  11.169   1.385 -1.5397 -1.7775  0.8635
18123SOL    HW256377  10.457  11.252   1.369 -0.3705 -0.1677 -0.2969
18124SOL     OW56378   8.315   5.161   4.261  0.4672 -0.0036 -0.1603
18124SOL    HW156379   8.266   5.164   4.343 -1.4929 -1.0504 -1.2177
18124SOL    HW256380   8.300   5.073   4.226  3.5308 -0.5699 -0.3707
18125SOL     OW56381   1.602   3.193   3.010  0.2874 -0.6678  0.2403
18125SOL    HW156382   1.680   3.248   3.006  0.6820 -1.2431 -0.0551
18125SOL    HW256383   1.577   3.181   2.918 -0.5487  0.0744  0.3604
18126SOL     OW56384   8.829  11.012   2.879 -0.4377  0.1088  0.0688
18126SOL    HW156385   8.752  10.995   2.824 -0.6290 -0.6719  0.5526
18126SOL    HW256386   8.896  10.953   2.845 -1.1368 -1.8408  1.8363
18127SOL     OW56387   6.005   4.493   5.480  0.0957 -0.4582  0.2422
18127SOL    HW156388   5.970   4.454   5.400 -0.2102  0.9823 -0.3671
18127SOL    HW256389   5.981   4.585   5.474  5.8132  1.3707 -1.4461
18128SOL     OW56390   1.120   4.817   7.703  0.2324 -0.3047  0.2899
18128SOL    HW156391   1.037   4.811   7.656  0.5178 -0.6199 -0.1783
18128SOL    HW256392   1.122   4.907   7.737  0.6189  0.3534 -1.3965
18129SOL     OW56393   8.623   3.791  10.678 -0.5924 -0.4656 -0.6176
18129SOL    HW156394   8.718   3.782  10.666 -0.7543 -1.1483 -1.4877
18129SOL    HW256395   8.585   3.759  10.596 -1.4973  2.7734 -1.6168
18130SOL     OW56396   1.085   1.867  10.120 -0.7820 -0.6322  0.0028
18130SOL    HW156397   1.156   1.835  10.176 -0.9663 -0.4411  0.3529
18130SOL    HW256398   1.126   1.882  10.035 -0.3308 -0.1988  0.2940
18131SOL     OW56399   9.926  11.268   1.128 -0.8239 -0.4562 -0.4798
18131SOL    HW156400   9.834  11.272   1.151 -0.8623  2.3498 -0.7441
18131SOL    HW256401   9.961  11.354   1.153  3.2280 -3.1562  5.3093
18132SOL     OW56402   6.517   3.837   0.008 -0.1587 -0.0192 -0.2262
18132SOL    HW156403   6.603   3.797  -0.008 -0.3395 -0.9059  0.9270
18132SOL    HW256404   6.506   3.898  -0.065  2.9158  2.6271  1.2503
18133SOL     OW56405   1.315   8.669   4.935  0.6492  0.6567  0.2566
18133SOL    HW156406   1.339   8.760   4.951 -0.2119  0.9650 -0.1501
18133SOL    HW256407   1.224   8.673   4.906  0.2782 -0.4259  1.2047
18134SOL     OW56408  10.582   6.863   8.919 -0.3975 -0.3404 -0.0583
18134SOL    HW156409  10.617   6.858   8.830  2.4535  0.2040  0.9468
18134SOL    HW256410  10.487   6.866   8.907 -0.3071 -3.3811 -2.9225
18135SOL     OW56411   3.706   4.307   5.213  0.1053 -0.2604 -0.5428
18135SOL    HW156412   3.626   4.307   5.265  0.6311 -0.9091  0.2913
18135SOL    HW256413   3.676   4.321   5.123 -0.9638 -0.6938 -0.2702
18136SOL     OW56414   3.694   6.713  10.799  0.1247 -0.2846  0.2373
18136SOL    HW156415   3.778   6.737  10.758  0.5315 -2.1447 -0.0810
18136SOL    HW256416   3.703   6.620  10.819 -1.4891 -0.2656  1.1702
18137SOL     OW56417   2.296   7.337   2.298 -0.1763 -0.1847  0.0371
18137SOL    HW156418   2.251   7.397   2.238 -0.1543  0.5067  0.7048
18137SOL    HW256419   2.229   7.312   2.362  0.2903  0.5909  0.8448
18138SOL     OW56420   2.481   2.096   4.692 -0.3048 -0.5059  0.0528
18138SOL    HW156421   2.500   2.189   4.699 -0.4664 -0.5718  1.7187
18138SOL    HW256422   2.396   2.085   4.734 -1.0565 -1.1892 -1.5432
18139SOL     OW56423   5.625   4.966   9.377 -0.3515  0.2303  0.4994
18139SOL    HW156424   5.531   4.948   9.371 -0.8149  1.4020  2.9298
18139SOL    HW256425   5.634   5.055   9.343 -0.2301  0.3448  0.8297
18140SOL     OW56426   4.885   9.529   5.903  0.1492  0.2275  0.3217
18140SOL    HW156427   4.938   9.589   5.851  0.3909  0.6212  1.0029
18140SOL    HW256428   4.809   9.510   5.848 -0.2195  1.6136  0.3031
18141SOL     OW56429   7.881   5.803   1.224 -0.1161  0.0835 -0.3127
18141SOL    HW156430   7.871   5.740   1.295 -0.1578 -1.7836 -1.8934
18141SOL    HW256431   7.959   5.775   1.177  2.2972  3.6159  1.1706
18142SOL     OW56432   4.954   9.468   7.056 -0.3259 -0.4868 -0.2714
18142SOL    HW156433   4.958   9.429   6.969 -1.6352  1.0876 -1.0886
18142SOL    HW256434   5.013   9.414   7.109 -1.0487 -2.7443 -1.6117
18143SOL     OW56435   2.190   4.930   3.745 -0.3471  0.1516 -0.0945
18143SOL    HW156436   2.128   4.858   3.734  2.5607 -2.2971 -1.9727
18143SOL    HW256437   2.196   4.941   3.840 -1.8823 -1.1213  0.2031
18144SOL     OW56438   8.803   0.913   6.017  0.3983 -0.0405  0.0057
18144SOL    HW156439   8.770   1.003   6.012 -1.2606 -0.6712 -1.4196
18144SOL    HW256440   8.733   0.864   6.060  0.4827 -0.9728 -0.8874
18145SOL     OW56441   5.200   8.900   0.284 -0.8953  0.0312 -0.2893
18145SOL    HW156442   5.136   8.906   0.355 -1.6308  1.8355 -1.0402
18145SOL    HW256443   5.182   8.977   0.229  3.0509  1.7057  0.4134
18146SOL     OW56444   9.640   3.479   2.608 -0.3460 -0.1440  0.4743
18146SOL    HW156445   9.664   3.392   2.639  0.3511  0.7371  2.5603
18146SOL    HW256446   9.644   3.534   2.685 -2.7516  1.3839 -0.3728
18147SOL     OW56447   3.378   9.673   3.120  0.6285  1.0416 -0.0106
18147SOL    HW156448   3.457   9.651   3.170  0.3905 -1.5653 -0.6003
18147SOL    HW256449   3.381   9.614   3.044  0.1508  3.7426 -2.2798
18148SOL     OW56450   2.466   1.510   2.152 -0.1314  0.2057 -0.2472
18148SOL    HW156451   2.382   1.503   2.107  0.3351  0.1162 -1.1270
18148SOL    HW256452   2.443   1.515   2.244 -1.1060  0.2225 -0.4770
18149SOL     OW56453   6.317   6.739   4.547 -0.2904  0.1981  0.5053
18149SOL    HW156454   6.323   6.714   4.639  0.4644 -0.1062  0.3818
18149SOL    HW256455   6.227   6.771   4.537 -0.9330 -1.3297  0.9634
18150SOL     OW56456   7.764   4.534   5.164  0.3876 -0.2792 -1.0936
18150SOL    HW156457   7.821   4.611   5.163  0.1136 -0.0819 -1.7957
18150SOL    HW256458   7.810   4.469   5.111 -0.2640  0.0515 -2.0855
18151SOL     OW56459   1.599  11.207   4.954 -0.0472 -0.4530 -0.3233
18151SOL    HW156460   1.646  11.221   4.871 -2.7928  3.1024 -1.5586
18151SOL    HW256461   1.609  11.114   4.972  2.8067 -0.9048 -3.2643
18152SOL     OW56462   9.338   8.806   4.991 -0.1004  0.2108 -0.3117
18152SOL    HW156463   9.394   8.790   4.915  0.0931 -0.8269  0.0324
18152SOL    HW256464   9.399   8.829   5.062 -0.0636 -1.2112  0.1392
18153SOL     OW56465  10.737   5.303   1.198  0.5161 -0.7523  0.1820
18153SOL    HW156466  10.647   5.269   1.202 -0.4322  1.2917 -1.4876
18153SOL    HW256467  10.776   5.260   1.122  1.4346 -2.5369  1.5908
18154SOL     OW56468   4.423   9.564   3.786  0.0136 -0.1174  0.0349
18154SOL    HW156469   4.436   9.577   3.880 -2.8622  1.5043  0.3447
18154SOL    HW256470   4.328   9.557   3.777  0.0277  1.8740 -2.9431
18155SOL     OW56471   9.763   6.501   7.731 -0.1668  0.4039 -0.1398
18155SOL    HW156472   9.817   6.491   7.809 -0.5514 -0.0417  0.0781
18155SOL    HW256473   9.727   6.590   7.739  0.6925  0.7821 -0.3996
18156SOL     OW56474   6.445   4.080   0.459  0.0145  0.0116 -0.5194
18156SOL    HW156475   6.356   4.051   0.476 -0.4721  1.7007 -0.0397
18156SOL    HW256476   6.476   4.023   0.388 -1.8718  0.2027 -1.5439
18157SOL     OW56477  10.967   4.204   9.389 -0.1175  0.3261  0.3112
18157SOL    HW156478  10.908   4.143   9.345  0.8493  0.4740 -1.2362
18157SOL    HW256479  11.007   4.153   9.460 -2.9855  0.5509  2.2748
18158SOL     OW56480   6.595   6.516   3.079 -0.0912  0.3204 -0.2997
18158SOL    HW156481   6.631   6.483   3.161 -1.0369  1.8699  0.7866
18158SOL    HW256482   6.501   6.507   3.088 -0.3883  2.9450 -0.0322
18159SOL     OW56483  10.645   3.537   3.169 -0.4459  0.5362 -0.1414
18159SOL    HW156484  10.610   3.613   3.215 -1.6791  0.7921 -1.4161
18159SOL    HW256485  10.624   3.462   3.225 -2.2802  0.7905 -0.4403
18160SOL     OW56486   0.381   4.893   3.900 -0.2421 -0.0442  0.1717
18160SOL    HW156487   0.423   4.969   3.940 -1.4461  0.8196 -0.1465
18160SOL    HW256488   0.289   4.918   3.892 -0.4685 -1.1343 -0.9116
18161SOL     OW56489   5.564   3.036   9.817 -0.5418 -0.2218  0.1341
18161SOL    HW156490   5.526   3.106   9.762 -0.1233  1.0471  1.4058
18161SOL    HW256491   5.490   3.002   9.867 -0.3569  1.0355  1.3135
18162SOL     OW56492   8.548   7.292   4.244  0.6210  0.2680 -0.3794
18162SOL    HW156493   8.580   7.366   4.192 -0.7667  0.2611 -1.2833
18162SOL    HW256494   8.490   7.331   4.309 -0.4754 -0.0270 -1.1452
18163SOL     OW56495   1.701   0.411   1.404  0.1146  0.2197  0.3425
18163SOL    HW156496   1.639   0.343   1.429  2.6246 -1.2779  3.0070
18163SOL    HW256497   1.652   0.466   1.342 -2.6717 -2.8029 -0.4117
18164SOL     OW56498   7.968   1.191   9.579 -0.7794 -0.2418  0.0898
18164SOL    HW156499   8.002   1.101   9.581 -1.3928 -0.5352 -1.2711
18164SOL    HW256500   7.981   1.224   9.668  0.3708 -1.3326  0.3612
18165SOL     OW56501   0.036   6.722   3.087 -0.2744  0.0692 -0.0188
18165SOL    HW156502   0.082   6.648   3.047  2.3819  0.4388  2.0911
18165SOL    HW256503   0.065   6.723   3.178 -1.0702  3.0367  0.3241
18166SOL     OW56504  11.031   0.492   5.585 -0.2607 -0.5833  0.1452
18166SOL    HW156505  10.994   0.454   5.505  1.1737 -1.0757 -0.3202
18166SOL    HW256506  11.008   0.429   5.653 -0.1317 -0.9749 -0.1669
18167SOL     OW56507  10.298   9.719   4.177  0.1760 -0.3981  0.7918
18167SOL    HW156508  10.311   9.680   4.263 -2.5081 -1.0277  0.9977
18167SOL    HW256509  10.203   9.715   4.163  0.3146  1.6703 -1.2761
18168SOL     OW56510   4.865   2.737   3.449  0.0605 -0.2969  0.0029
18168SOL    HW156511   4.897   2.648   3.463 -1.0852 -0.7585 -0.1621
18168SOL    HW256512   4.770   2.730   3.462  0.0993  1.1859  1.3446
18169SOL     OW56513   1.250   2.766   2.829  0.2603  0.4873 -0.2705
18169SOL    HW156514   1.160   2.740   2.809  0.0938  1.5975 -1.1195
18169SOL    HW256515   1.244   2.811   2.913  0.1881 -0.2807  0.1385
18170SOL     OW56516   1.621   6.522   4.690 -0.0714  0.0146  0.0962
18170SOL    HW156517   1.591   6.584   4.757 -4.2460  0.3535 -1.7643
18170SOL    HW256518   1.633   6.440   4.737  0.5569  1.0109  1.7734
18171SOL     OW56519   5.930   5.635   3.973  0.0052  0.0224  0.4745
18171SOL    HW156520   5.871   5.692   3.924  0.2413  0.2384  0.4410
18171SOL    HW256521   6.006   5.689   3.993  0.1141 -0.2002  0.6793
18172SOL     OW56522  10.457   2.199   9.851  0.4438 -0.0238  0.1417
18172SOL    HW156523  10.469   2.137   9.922  0.3153 -0.7945 -0.4987
18172SOL    HW256524  10.362   2.205   9.840  0.4778 -0.3801 -0.3685
18173SOL     OW56525   7.399  10.350  10.162 -0.2710  0.3203  0.6587
18173SOL    HW156526   7.452  10.412  10.211  0.1047  1.2914 -0.8886
18173SOL    HW256527   7.426  10.363  10.071 -0.3451 -1.9869  0.2570
18174SOL     OW56528   9.886   2.432   3.080 -0.7450 -0.3159 -0.2054
18174SOL    HW156529   9.867   2.430   3.174  1.8641 -2.5674  0.4203
18174SOL    HW256530   9.827   2.498   3.045 -1.9140  0.5284  2.9853
18175SOL     OW56531   6.508   2.488   6.216  0.7110  0.4128 -0.1120
18175SOL    HW156532   6.590   2.521   6.252 -0.7424  4.1224  0.2367
18175SOL    HW256533   6.459   2.455   6.291  1.2379 -0.3947 -0.1090
18176SOL     OW56534   2.345   4.973   9.688  0.5966  0.9807  0.2427
18176SOL    HW156535   2.252   4.997   9.694  0.0254 -0.5701 -1.4586
18176SOL    HW256536   2.361   4.918   9.764  0.2258  1.5526  0.7410
18177SOL     OW56537   4.540   2.999   9.708  0.1127  0.7821  0.3108
18177SOL    HW156538   4.466   3.044   9.749  0.5387  2.7986 -1.0109
18177SOL    HW256539   4.501   2.949   9.636 -0.6172 -2.6511  2.7883
18178SOL     OW56540   7.885   3.481   2.547 -0.4404  0.1048  0.0840
18178SOL    HW156541   7.879   3.485   2.643 -0.6064  1.7957  0.0421
18178SOL    HW256542   7.794   3.473   2.518 -0.4213 -0.0395  0.0649
18179SOL     OW56543   1.028   9.452   5.554 -0.6160 -0.2155 -0.1001
18179SOL    HW156544   1.033   9.374   5.500  0.4382  0.9014 -1.7092
18179SOL    HW256545   0.936   9.459   5.579 -0.9261 -1.3366 -0.8721
18180SOL     OW56546   5.644   4.904   4.830  0.1658 -0.2849 -0.3240
18180SOL    HW156547   5.644   4.809   4.824 -0.0895 -0.2866 -0.3247
18180SOL    HW256548   5.695   4.933   4.755 -2.0764 -0.3465 -1.9843
18181SOL     OW56549   9.182   2.184   7.007 -0.1161  0.1891 -0.3726
18181SOL    HW156550   9.229   2.179   6.924 -0.9173  0.7854 -0.8851
18181SOL    HW256551   9.133   2.266   7.002  0.4449  0.6553  1.0401
18182SOL     OW56552   3.654   1.819   7.886 -0.4037 -0.5219 -0.3297
18182SOL    HW156553   3.659   1.757   7.958  2.8308 -0.3512 -0.2772
18182SOL    HW256554   3.639   1.765   7.809 -1.0925 -0.9914  0.1233
18183SOL     OW56555   5.221   2.643   0.961  0.4281 -0.7242 -0.1028
18183SOL    HW156556   5.194   2.645   0.869  0.8085  0.9044 -0.2010
18183SOL    HW256557   5.283   2.570   0.966 -0.5889 -1.6790 -0.8216
18184SOL     OW56558   0.143   8.959   8.387  0.0991  0.2756  0.2530
18184SOL    HW156559   0.094   8.883   8.356  1.3001 -0.5870  0.4009
18184SOL    HW256560   0.160   8.939   8.480  1.2386  0.2692  0.0505
18185SOL     OW56561   0.042   6.348   1.702 -0.1519 -0.2043  0.0415
18185SOL    HW156562   0.013   6.293   1.774 -1.4576  0.7173  0.2515
18185SOL    HW256563  -0.013   6.426   1.707  2.8738  2.0572  0.9494
18186SOL     OW56564   6.978   9.434   3.705  0.5827 -0.2857 -0.7195
18186SOL    HW156565   6.984   9.427   3.800  0.3830 -1.2056 -0.7688
18186SOL    HW256566   7.049   9.494   3.681 -1.1687  2.4143  0.2638
18187SOL     OW56567   5.139   3.882   4.994  0.7473  0.0770  0.3601
18187SOL    HW156568   5.117   3.930   4.915 -1.7999  0.1986  1.0498
18187SOL    HW256569   5.109   3.793   4.977 -0.7214  0.3203  1.4718
18188SOL     OW56570   5.913   7.146   3.803  0.3042  0.1878 -0.5414
18188SOL    HW156571   5.950   7.148   3.891  1.6450  0.4476 -1.0875
18188SOL    HW256572   5.914   7.054   3.779 -1.0156 -0.0066  0.0859
18189SOL     OW56573  10.441   9.051   1.939  0.1225 -0.1248  0.7226
18189SOL    HW156574  10.504   8.987   1.908 -1.3456 -2.0777  1.5875
18189SOL    HW256575  10.493   9.129   1.959  1.6934 -0.2965 -2.2464
18190SOL     OW56576   2.398   4.664   6.443  0.2449  0.6112  0.0985
18190SOL    HW156577   2.429   4.581   6.407 -1.7250  0.7979 -2.2950
18190SOL    HW256578   2.422   4.730   6.378 -2.0426  1.2222 -0.2168
18191SOL     OW56579   2.810   0.079   4.850  0.4193  0.0780 -0.5373
18191SOL    HW156580   2.843   0.137   4.782  3.1554 -1.8598 -1.0289
18191SOL    HW256581   2.888   0.037   4.886 -1.3099 -2.7933  0.1952
18192SOL     OW56582   7.992   6.964  10.487 -0.2826  0.3794  0.2002
18192SOL    HW156583   7.918   6.992  10.542  0.1515  0.0507  0.9749
18192SOL    HW256584   7.964   6.984  10.398 -1.9934 -1.2496  0.3009
18193SOL     OW56585   6.522   9.236   8.496  0.2281 -0.3231  0.6752
18193SOL    HW156586   6.590   9.168   8.498  1.1064  0.3412 -2.3284
18193SOL    HW256587   6.451   9.200   8.550  1.7866 -2.3179  1.5309
18194SOL     OW56588   9.825   1.746  10.841  0.1621  0.2595 -0.0069
18194SOL    HW156589   9.850   1.776  10.753 -1.5310  1.9653  0.0305
18194SOL    HW256590   9.819   1.826  10.893 -2.5525 -0.2540  0.6478
18195SOL     OW56591   5.941   2.483   4.395 -0.5683 -0.1674 -0.1799
18195SOL    HW156592   6.023   2.448   4.359  1.1584  0.8875  2.4078
18195SOL    HW256593   5.938   2.448   4.484 -2.3260  0.8059  0.1846
18196SOL     OW56594   4.322   7.503   2.490  0.0386 -0.2998  0.1624
18196SOL    HW156595   4.293   7.586   2.453  3.7570  0.9366 -0.3324
18196SOL    HW256596   4.343   7.449   2.414 -1.0138 -1.2083  0.4943
18197SOL     OW56597   7.869   0.123  11.207 -0.3697  0.0617  0.1619
18197SOL    HW156598   7.903   0.203  11.166  2.3582  0.3330  2.6463
18197SOL    HW256599   7.787   0.150  11.247 -0.6424  0.9910 -0.9478
18198SOL     OW56600  10.463   3.309   6.780  0.1336 -0.9194 -0.2903
18198SOL    HW156601  10.474   3.231   6.835 -1.1572  0.0249  1.4071
18198SOL    HW256602  10.505   3.379   6.829 -1.9133  0.1399  0.0592
18199SOL     OW56603   2.692   6.020   4.485  0.7287 -0.2000 -0.2898
18199SOL    HW156604   2.635   6.085   4.444 -0.2176  0.4641  1.8947
18199SOL    HW256605   2.780   6.052   4.471  0.3135  1.1133 -0.0345
18200SOL     OW56606   9.072   0.852   7.159 -0.6153 -0.1218 -0.2945
18200SOL    HW156607   9.140   0.840   7.092  1.9450  0.7574  1.9694
18200SOL    HW256608   9.003   0.900   7.114  1.2150  0.8753 -2.2287
18201SOL     OW56609   5.865   8.032   1.021  0.2387 -0.1394 -0.5488
18201SOL    HW156610   5.874   7.947   0.978  1.2758  0.4030 -1.4428
18201SOL    HW256611   5.869   8.096   0.949 -1.2329  0.6478  0.0226
18202SOL     OW56612   7.106   2.652   9.620 -0.2167  0.0600  0.1691
18202SOL    HW156613   7.015   2.660   9.591  0.0257 -1.4238 -1.1517
18202SOL    HW256614   7.101   2.602   9.701 -0.6499  0.8659  0.6405
18203SOL     OW56615   4.787   6.845   3.824  0.6490  0.5638 -0.6532
18203SOL    HW156616   4.838   6.920   3.792  2.3741 -0.6866 -1.0127
18203SOL    HW256617   4.826   6.770   3.779 -1.1911 -0.5302 -0.4867
18204SOL     OW56618   9.486   7.824   4.816  0.2853 -0.4971 -0.5561
18204SOL    HW156619   9.481   7.904   4.868 -1.1475  1.1562 -3.0606
18204SOL    HW256620   9.396   7.792   4.811  0.4199 -0.7392 -1.7973
18205SOL     OW56621   6.918   3.817   2.100 -0.2186  0.1026 -0.2323
18205SOL    HW156622   6.847   3.873   2.067  2.1187  1.0641 -4.3723
18205SOL    HW256623   6.983   3.880   2.132  0.8773 -0.3894 -1.4256
18206SOL     OW56624   3.161   8.026   8.822  0.2378  0.1623  0.2365
18206SOL    HW156625   3.157   8.109   8.871  0.8905  0.0815  0.4366
18206SOL    HW256626   3.146   8.051   8.731  2.0506  0.7470  0.0560
18207SOL     OW56627   1.575   9.674   9.115 -0.8888  0.0919 -0.7652
18207SOL    HW156628   1.666   9.643   9.110 -0.1993  1.7759  0.3448
18207SOL    HW256629   1.568   9.740   9.046 -0.5469  1.5565  0.5405
18208SOL     OW56630   7.810  10.838  10.951  0.7297 -0.2038 -0.4068
18208SOL    HW156631   7.818  10.919  10.899  1.6561  0.5518  0.8475
18208SOL    HW256632   7.849  10.860  11.035  1.7404 -2.2239 -0.2919
18209SOL     OW56633   5.178   0.430   7.258 -0.3887 -0.3901  0.4544
18209SOL    HW156634   5.122   0.390   7.192 -0.0999 -1.6147  0.9255
18209SOL    HW256635   5.265   0.394   7.241 -0.4100 -1.1368  1.8180
18210SOL     OW56636   6.115  11.285  11.270  0.0115  0.0452  0.0838
18210SOL    HW156637   6.183  11.335  11.315 -0.1240 -1.0965  1.6628
18210SOL    HW256638   6.039  11.290  11.328 -0.1423 -1.5566  0.0607
18211SOL     OW56639  11.069   3.196   8.356 -0.3314  0.1587  0.3713
18211SOL    HW156640  11.150   3.174   8.402  0.6681 -1.0253 -1.7981
18211SOL    HW256641  11.073   3.145   8.275 -1.7086  2.5219 -1.3053
18212SOL     OW56642   2.756   5.328   3.435  0.6778  0.1427  0.1649
18212SOL    HW156643   2.775   5.273   3.358 -3.5442 -0.7151 -0.5705
18212SOL    HW256644   2.727   5.265   3.501  1.8029  1.0899  1.5920
18213SOL     OW56645   0.221   2.644   2.630  0.0719 -0.1573  0.5528
18213SOL    HW156646   0.227   2.610   2.719  1.9006  1.3286  1.0645
18213SOL    HW256647   0.200   2.567   2.577  1.1282 -1.5192  2.0059
18214SOL     OW56648   2.561   5.779   4.409 -0.0500  1.6243  0.4319
18214SOL    HW156649   2.636   5.836   4.421  3.5401 -1.9464 -2.4263
18214SOL    HW256650   2.556   5.729   4.491  2.5759  0.1636 -0.1739
18215SOL     OW56651   9.855   8.130   1.161  0.1186  0.9422 -0.5210
18215SOL    HW156652   9.768   8.134   1.122  0.2344 -0.0215 -0.8985
18215SOL    HW256653   9.841   8.136   1.255 -0.6643 -2.5870 -0.3086
18216SOL     OW56654   4.160   8.748   3.837 -0.7991  0.3072  0.2612
18216SOL    HW156655   4.139   8.758   3.930  1.3312 -2.4707  1.1732
18216SOL    HW256656   4.130   8.659   3.815  0.6240  0.1104 -1.0915
18217SOL     OW56657   8.171   0.699   3.394  0.7821  0.4510  0.1164
18217SOL    HW156658   8.259   0.729   3.418  1.5770  1.8302 -3.7308
18217SOL    HW256659   8.119   0.779   3.388 -0.7208 -0.3140  1.9399
18218SOL     OW56660   6.328   6.915   4.036 -0.1254 -0.2987 -0.3636
18218SOL    HW156661   6.305   6.911   4.128 -0.2941 -0.9183 -0.4237
18218SOL    HW256662   6.384   6.992   4.028 -1.4123  0.6970 -0.0436
18219SOL     OW56663   8.897   3.793   4.320  0.1159  0.4240 -0.0607
18219SOL    HW156664   8.887   3.712   4.269 -0.3522 -0.4872  1.4089
18219SOL    HW256665   8.856   3.860   4.265 -1.6356 -0.7634 -0.3239
18220SOL     OW56666   9.420   8.562   7.791 -0.4569  0.0122 -0.1862
18220SOL    HW156667   9.509   8.532   7.806 -0.4225  0.0639 -0.2796
18220SOL    HW256668   9.409   8.556   7.696 -0.9316 -1.0478 -0.0802
18221SOL     OW56669   4.853   2.652   0.123 -0.3100  0.1832  0.4988
18221SOL    HW156670   4.891   2.721   0.068  0.1146 -1.0723 -0.8453
18221SOL    HW256671   4.855   2.689   0.212 -1.5264  2.4958 -0.3475
18222SOL     OW56672   3.185   9.783   7.877  0.1568 -0.3849  0.3746
18222SOL    HW156673   3.231   9.822   7.951  0.8965 -0.9682  0.2366
18222SOL    HW256674   3.172   9.856   7.816  0.3580 -0.0891  0.6829
18223SOL     OW56675   5.328   7.812   7.720 -0.2982 -0.2983  0.5246
18223SOL    HW156676   5.399   7.752   7.742  0.8822  1.3747  1.5140
18223SOL    HW256677   5.286   7.831   7.804 -0.8697  0.0014  0.1753
18224SOL     OW56678   7.322  10.031   5.240 -0.3151 -0.1059 -0.6471
18224SOL    HW156679   7.364   9.945   5.238 -1.5564 -0.8597  1.7016
18224SOL    HW256680   7.310  10.054   5.148  1.4819 -1.7052 -1.3367
18225SOL     OW56681   0.600   8.325  10.269 -0.3125 -0.4682 -0.5440
18225SOL    HW156682   0.573   8.234  10.278 -0.0098 -0.7584 -2.1637
18225SOL    HW256683   0.689   8.320  10.232  0.0024  0.4897  0.0352
18226SOL     OW56684   4.606   9.822   5.647 -0.0683  0.0007 -0.6411
18226SOL    HW156685   4.638   9.895   5.700 -0.3242 -1.2677  1.3607
18226SOL    HW256686   4.628   9.744   5.698 -1.2513 -1.2286 -1.9335
18227SOL     OW56687   0.850  10.734   9.463  0.7277  0.2054  0.3961
18227SOL    HW156688   0.878  10.762   9.376  0.3407  1.0266  0.5258
18227SOL    HW256689   0.871  10.808   9.520 -0.3216  0.2550  0.7475
18228SOL     OW56690  10.297   5.282   1.464  0.1808 -0.3746  0.5925
18228SOL    HW156691  10.340   5.363   1.492 -0.0495 -0.6550  1.8469
18228SOL    HW256692  10.203   5.300   1.476  0.1060 -0.6849  0.4790
18229SOL     OW56693   3.250   1.312   7.956 -0.2795  0.2800 -0.7568
18229SOL    HW156694   3.302   1.293   8.035 -0.7019  0.5576 -0.4070
18229SOL    HW256695   3.313   1.345   7.893 -0.2550  2.2458  0.2160
18230SOL     OW56696   1.335   6.903   1.464  0.5020  0.0434  0.3637
18230SOL    HW156697   1.310   6.879   1.375  0.5513  2.0490 -0.2376
18230SOL    HW256698   1.254   6.895   1.515 -0.6001  2.8503 -0.7744
18231SOL     OW56699   0.047   4.606   0.379  0.7482  0.3006 -0.7679
18231SOL    HW156700   0.047   4.512   0.398 -0.5266  0.0294 -1.9647
18231SOL    HW256701   0.020   4.647   0.461  0.7149 -0.4106 -0.4107
18232SOL     OW56702   6.530   5.476   3.301 -0.3814 -0.2216 -0.2806
18232SOL    HW156703   6.493   5.389   3.317 -0.0908 -0.2275  0.3979
18232SOL    HW256704   6.619   5.471   3.335 -0.7098  0.6538  0.7575
18233SOL     OW56705   5.420   7.238  10.143 -0.1188  0.2224  0.2113
18233SOL    HW156706   5.334   7.202  10.123  0.1551  0.2484 -1.1180
18233SOL    HW256707   5.449   7.278  10.061  0.1683  2.2838  1.2569
18234SOL     OW56708   4.497   1.330   0.134  0.3745  0.7753  0.4591
18234SOL    HW156709   4.536   1.410   0.171 -2.0308  1.8002  0.9589
18234SOL    HW256710   4.488   1.272   0.209  0.9484  0.5212  0.3353
18235SOL     OW56711   1.975   3.764  11.206 -0.5068  0.7148 -0.3092
18235SOL    HW156712   1.973   3.851  11.166 -0.8834  0.5271 -0.7117
18235SOL    HW256713   2.016   3.708  11.140  3.1311  1.2301  1.2875
18236SOL     OW56714   2.095   9.984   4.748 -0.3447  0.3372 -0.1729
18236SOL    HW156715   2.115  10.022   4.663  0.1355  1.0230  0.2331
18236SOL    HW256716   2.004  10.010   4.765  0.1497  1.8395  0.3502
18237SOL     OW56717   0.914   6.377  10.335 -0.3026 -0.3249 -0.2768
18237SOL    HW156718   0.819   6.387  10.329 -0.2992 -0.9188 -1.6514
18237SOL    HW256719   0.948   6.429  10.262  0.4921  0.5588  0.7008
18238SOL     OW56720   1.288   0.870   8.865  0.2894  0.1066 -0.2642
18238SOL    HW156721   1.348   0.845   8.794  0.3307 -0.5570 -0.0090
18238SOL    HW256722   1.261   0.959   8.844  0.4276 -0.0249 -1.0245
18239SOL     OW56723   0.348   6.008   4.647  0.0923  0.5154 -0.6662
18239SOL    HW156724   0.388   6.021   4.561  3.6932 -0.5472  0.6762
18239SOL    HW256725   0.390   6.073   4.704 -0.4960 -0.3223  0.7860
18240SOL     OW56726   4.077   1.411   6.982  0.6361 -0.2386 -0.2256
18240SOL    HW156727   4.111   1.459   7.058  1.7614  1.7538 -1.8698
18240SOL    HW256728   4.061   1.479   6.917  0.0459 -1.9169 -1.9208
18241SOL     OW56729   7.583   1.704   9.724  0.0945 -0.1210 -0.3234
18241SOL    HW156730   7.616   1.742   9.805  0.3120  0.4413 -0.6729
18241SOL    HW256731   7.553   1.617   9.749 -1.8061  0.8001  0.8253
18242SOL     OW56732   0.399   2.294   6.886 -0.5622  0.0920  0.4225
18242SOL    HW156733   0.308   2.265   6.891 -0.3816 -0.5313  0.1925
18242SOL    HW256734   0.405   2.342   6.803  0.1430 -2.9597 -1.4644
18243SOL     OW56735   9.176   0.885   3.842 -0.3466  0.5709  0.8958
18243SOL    HW156736   9.264   0.916   3.860 -0.6909  1.5585  0.9360
18243SOL    HW256737   9.176   0.793   3.869  1.1008  0.1037 -0.5434
18244SOL     OW56738   3.295   2.156   8.911 -0.0207 -0.0786 -0.6737
18244SOL    HW156739   3.287   2.217   8.837  1.2404 -0.4240 -1.1168
18244SOL    HW256740   3.256   2.203   8.985 -1.6761  0.1193 -1.6110
18245SOL     OW56741   7.485  11.120   5.006  0.1442 -0.4866 -0.3722
18245SOL    HW156742   7.400  11.142   4.967  0.0831 -0.0861 -0.0287
18245SOL    HW256743   7.486  11.170   5.088  0.9344 -0.0731 -0.6305
18246SOL     OW56744  11.057  11.151   2.794 -0.0030  0.1885  0.0558
18246SOL    HW156745  10.984  11.157   2.856  1.0006  1.9587  1.1264
18246SOL    HW256746  11.129  11.113   2.845  0.6054  0.9353 -0.2344
18247SOL     OW56747   8.376   3.340   8.585  0.2091  0.7401 -0.5734
18247SOL    HW156748   8.467   3.366   8.598  0.1234  1.0929 -0.6628
18247SOL    HW256749   8.380   3.247   8.562  0.4250  0.3259  1.0652
18248SOL     OW56750   1.827   2.165   1.295 -0.6203 -0.2974  0.0198
18248SOL    HW156751   1.836   2.260   1.306 -0.3456 -0.0703 -1.7956
18248SOL    HW256752   1.739   2.153   1.260 -1.0643 -0.8470  1.2670
18249SOL     OW56753  10.503   0.421   7.417  0.4863 -0.3326 -0.6740
18249SOL    HW156754  10.506   0.426   7.321  1.6157 -0.8208 -0.6668
18249SOL    HW256755  10.409   0.422   7.437  0.1509 -2.4881 -1.9025
18250SOL     OW56756   3.503   0.843   5.749  0.1783 -0.4007 -0.2006
18250SOL    HW156757   3.460   0.783   5.810 -0.6318 -0.2436 -0.6048
18250SOL    HW256758   3.533   0.915   5.805 -3.0062  1.1280 -0.2545
18251SOL     OW56759   2.848  10.460   5.481 -0.5165  0.2879 -0.1157
18251SOL    HW156760   2.754  10.464   5.502 -0.3382 -1.0974  1.1742
18251SOL    HW256761   2.863  10.536   5.425 -1.9331  1.9340  1.5728
18252SOL     OW56762  11.155   6.980   1.045 -0.2024 -0.0086 -0.5018
18252SOL    HW156763  11.198   6.917   0.987 -0.6762  0.1435 -1.0195
18252SOL    HW256764  11.200   6.969   1.129  1.0499  0.3531 -1.1032
18253SOL     OW56765   5.341   0.924   6.691 -0.5217  0.2949  0.0038
18253SOL    HW156766   5.429   0.903   6.721 -0.5988  0.1928  0.1600
18253SOL    HW256767   5.299   0.966   6.766 -1.5885 -2.3185  1.0051
18254SOL     OW56768   1.168   8.508   6.918  0.3254  0.4350  0.2893
18254SOL    HW156769   1.082   8.468   6.929  0.7782 -0.2047  1.6713
18254SOL    HW256770   1.226   8.457   6.974  0.7648  3.5356  2.9391
18255SOL     OW56771   0.159  10.164   6.032  0.3067  0.1350  0.0211
18255SOL    HW156772   0.220  10.204   5.971  2.3490 -0.6901  1.4143
18255SOL    HW256773   0.191  10.074   6.043 -0.5098 -0.0098  1.6137
18256SOL     OW56774   1.489   8.125   9.197  0.1471 -1.1292 -0.9681
18256SOL    HW156775   1.521   8.035   9.186  3.2183 -0.0894 -1.6113
18256SOL    HW256776   1.526   8.153   9.281  1.6419  0.3790 -2.0643
18257SOL     OW56777   9.779   6.473   3.296 -0.2192 -0.2448  0.1790
18257SOL    HW156778   9.852   6.435   3.344 -1.3243 -4.0954 -0.8611
18257SOL    HW256779   9.705   6.468   3.357 -0.9210 -2.2518 -0.7544
18258SOL     OW56780   5.782   5.728  11.213 -0.3810  0.0304 -0.3887
18258SOL    HW156781   5.706   5.676  11.239  0.7398 -0.5492  1.9706
18258SOL    HW256782   5.843   5.665  11.174 -0.4060  0.1968 -0.7033
18259SOL     OW56783   5.065   8.944   6.516 -0.0512 -0.1387  0.6939
18259SOL    HW156784   5.143   8.949   6.571  1.4205 -2.2174 -1.0671
18259SOL    HW256785   5.096   8.908   6.433 -2.1495  2.7880 -1.5903
18260SOL     OW56786  10.054   9.635   9.926 -0.4923 -0.6231  0.4901
18260SOL    HW156787  10.048   9.570   9.856 -0.2011 -0.4198  0.2715
18260SOL    HW256788  10.043   9.719   9.881  1.7165 -0.3446  0.3499
18261SOL     OW56789   7.057   2.233   3.890  0.2462 -0.1701  0.2308
18261SOL    HW156790   7.034   2.180   3.967 -0.1056 -0.9259 -0.3813
18261SOL    HW256791   7.121   2.180   3.843  0.4611  0.2931 -0.0058
18262SOL     OW56792   7.139   9.896   8.405 -0.1858  0.3832  0.3815
18262SOL    HW156793   7.234   9.902   8.412  0.2383 -0.3726 -2.8923
18262SOL    HW256794   7.112   9.849   8.484  2.7462 -3.4211 -0.5420
18263SOL     OW56795   4.584   1.935   5.880 -0.6760  0.2564 -0.8199
18263SOL    HW156796   4.512   1.997   5.892 -0.4273  0.3425  0.2685
18263SOL    HW256797   4.642   1.951   5.954 -0.9113 -1.6915 -0.1639
18264SOL     OW56798   9.122   3.923   6.833  0.1791  0.1240  0.3919
18264SOL    HW156799   9.166   3.907   6.750 -0.8813  2.3752 -0.7129
18264SOL    HW256800   9.187   3.971   6.885  0.3550 -0.0140  0.3021
18265SOL     OW56801  10.545   7.036   2.146  0.4095  0.0149  0.5819
18265SOL    HW156802  10.493   7.015   2.223 -0.5278 -0.1879 -0.0883
18265SOL    HW256803  10.504   7.115   2.110  2.5771  1.8620  1.8710
18266SOL     OW56804  10.556   1.405   5.534 -0.4902 -0.3224  0.6184
18266SOL    HW156805  10.562   1.397   5.629  0.1217 -0.1523  0.5978
18266SOL    HW256806  10.472   1.446   5.518  0.5034  2.0965  1.2367
18267SOL     OW56807   1.442   4.917  10.829  0.5235 -0.0387  0.3557
18267SOL    HW156808   1.476   4.884  10.912  0.0057  0.6132  0.8457
18267SOL    HW256809   1.432   4.839  10.774 -2.2223 -0.9885  2.0172
18268SOL     OW56810   3.725   2.785   0.619 -0.1755  0.0715  0.2993
18268SOL    HW156811   3.801   2.839   0.600  0.2799 -0.6167  0.1201
18268SOL    HW256812   3.652   2.831   0.578  0.4030 -0.1085 -0.9922
18269SOL     OW56813  10.230   9.996   6.586  0.0243 -0.0288 -0.4949
18269SOL    HW156814  10.151   9.943   6.582 -0.7343  0.9253  0.7950
18269SOL    HW256815  10.276   9.964   6.664  0.6358 -0.2102 -0.9234
18270SOL     OW56816   4.951   7.210   0.892 -0.1699 -0.5550  0.1177
18270SOL    HW156817   4.987   7.226   0.804 -0.4145  0.2742  0.1600
18270SOL    HW256818   4.950   7.114   0.900  2.1442 -0.6247  0.1763
18271SOL     OW56819   8.695   6.040   5.041  0.4144 -0.6861  0.1440
18271SOL    HW156820   8.663   6.130   5.031 -2.4043 -1.4227  1.5291
18271SOL    HW256821   8.653   5.992   4.970 -0.0647 -1.3365  0.8559
18272SOL     OW56822   4.804   0.104   6.820  0.5060 -0.1998 -0.3054
18272SOL    HW156823   4.733   0.071   6.764 -1.0292  2.2034  0.0659
18272SOL    HW256824   4.853   0.164   6.763  0.0275  0.8749  0.3706
18273SOL     OW56825   5.133  10.959   1.499  0.3857 -0.0713  0.5989
18273SOL    HW156826   5.155  10.956   1.406  0.6017 -3.9218  0.6206
18273SOL    HW256827   5.074  10.885   1.513 -0.1665  0.7521  3.4488
18274SOL     OW56828   1.013   5.927   6.526  0.8788 -0.0006  0.3967
18274SOL    HW156829   1.057   6.011   6.538 -0.4496  0.4325  2.6935
18274SOL    HW256830   0.933   5.948   6.478  0.2368  0.1730  1.5196
18275SOL     OW56831   2.521   9.706   9.745 -0.1542 -0.1807  0.0861
18275SOL    HW156832   2.452   9.754   9.790 -1.9722 -0.4386 -2.1960
18275SOL    HW256833   2.522   9.743   9.657  2.0463 -0.8057 -0.2001
18276SOL     OW56834   6.701   4.841   8.683  0.1008  0.2179  0.8663
18276SOL    HW156835   6.670   4.927   8.652 -0.3316 -0.2830 -0.1468
18276SOL    HW256836   6.638   4.816   8.750  0.1295  0.6208  1.0488
18277SOL     OW56837   7.212  11.149   7.813 -0.4702 -0.2123  0.0961
18277SOL    HW156838   7.247  11.195   7.890  1.1766 -0.4994 -0.4263
18277SOL    HW256839   7.122  11.179   7.805 -0.6374 -0.0986  2.0765
18278SOL     OW56840   6.795   0.117   1.242 -0.4785 -0.0194  0.0497
18278SOL    HW156841   6.824   0.193   1.192 -0.1101 -0.4573 -0.4049
18278SOL    HW256842   6.754   0.059   1.177  0.8062 -1.0035  0.0671
18279SOL     OW56843   8.329   0.625   7.416  0.1164  0.1546  0.2835
18279SOL    HW156844   8.290   0.622   7.504  2.2070 -1.5956  1.2263
18279SOL    HW256845   8.422   0.637   7.432  0.6814 -1.2604 -1.6547
18280SOL     OW56846   7.659   9.759   3.504  0.1600  0.1739 -0.3669
18280SOL    HW156847   7.742   9.793   3.473  0.0573 -0.5080 -1.4298
18280SOL    HW256848   7.677   9.668   3.528 -0.1426  0.2049  0.0118
18281SOL     OW56849   6.082   3.313   3.831  0.5164 -0.7071  0.3071
18281SOL    HW156850   6.086   3.405   3.861  1.5296 -0.5182 -0.3707
18281SOL    HW256851   6.080   3.319   3.736  0.0458 -1.3835  0.2717
18282SOL     OW56852   4.278   7.728  10.380  0.9202 -0.9322  0.2435
18282SOL    HW156853   4.194   7.693  10.408  0.5804 -0.6893 -0.4537
18282SOL    HW256854   4.332   7.651  10.362  0.6638 -1.0879  0.1455
18283SOL     OW56855   8.017   0.825   9.293 -0.0337 -0.5159 -0.5397
18283SOL    HW156856   8.026   0.919   9.306  1.1478 -0.5555 -0.9202
18283SOL    HW256857   7.940   0.800   9.344  0.3377  0.4640  0.5308
18284SOL     OW56858   9.286   3.752   5.369 -0.3767  0.1208  0.7518
18284SOL    HW156859   9.258   3.765   5.459 -1.1146 -1.2438  0.7406
18284SOL    HW256860   9.334   3.669   5.370  0.7153  0.7091  0.1075
18285SOL     OW56861   5.172   6.154   5.500  0.0886  0.9567  0.3012
18285SOL    HW156862   5.211   6.219   5.440 -1.5366  0.6437 -1.1553
18285SOL    HW256863   5.246   6.124   5.552  1.7029  0.9192 -1.8555
18286SOL     OW56864   6.517   0.640   0.178 -0.6117 -0.0532 -0.2882
18286SOL    HW156865   6.586   0.621   0.115  0.3041 -0.6816  0.8581
18286SOL    HW256866   6.436   0.612   0.134 -0.1664  0.7446 -1.6672
18287SOL     OW56867   1.872   6.021   3.517 -0.1542 -0.1110  0.4788
18287SOL    HW156868   1.797   5.977   3.558 -0.0699 -0.3907  0.3356
18287SOL    HW256869   1.889   6.098   3.572 -1.1934  0.5254 -0.0470
18288SOL     OW56870   2.139   0.964  10.834 -0.8594 -0.2387  0.0216
18288SOL    HW156871   2.234   0.965  10.825 -0.7941  3.8769 -1.0317
18288SOL    HW256872   2.111   0.883  10.791  2.0729 -1.2017 -0.3049
18289SOL     OW56873   2.589   1.579   6.469  0.3102 -0.2741 -0.7869
18289SOL    HW156874   2.572   1.560   6.561  1.1422  5.1456  0.8665
18289SOL    HW256875   2.662   1.522   6.446  0.8383 -1.0220  2.2767
18290SOL     OW56876   4.499  10.341  10.960 -0.6687 -0.7872 -0.0988
18290SOL    HW156877   4.569  10.358  11.023 -1.5859  1.0653  0.4968
18290SOL    HW256878   4.425  10.312  11.014 -1.4708  0.8521 -0.2577
18291SOL     OW56879   8.641   5.013  10.352 -0.2014  0.4081 -0.2388
18291SOL    HW156880   8.633   4.934  10.407 -1.7784  1.0802  0.5528
18291SOL    HW256881   8.700   5.070  10.400  1.0226 -0.2988 -0.8599
18292SOL     OW56882   6.616  10.714   1.003 -0.3952  0.7727  0.0523
18292SOL    HW156883   6.643  10.656   0.932 -0.5597  1.9187 -0.9865
18292SOL    HW256884   6.696  10.732   1.052  0.7515  3.4990 -2.5226
18293SOL     OW56885   2.238  10.650   2.276 -0.1771 -0.5427 -0.2360
18293SOL    HW156886   2.191  10.623   2.197 -1.1060  0.8015 -0.1750
18293SOL    HW256887   2.326  10.674   2.244 -0.8223  0.8851 -1.0518
18294SOL     OW56888   3.343   1.329   0.677  0.0764 -0.3062  0.6407
18294SOL    HW156889   3.331   1.309   0.770 -0.1384  1.9273  1.1437
18294SOL    HW256890   3.352   1.424   0.674  5.8790 -0.5244 -0.9686
18295SOL     OW56891   3.253   6.495   3.026  0.3130 -0.8433  0.2868
18295SOL    HW156892   3.184   6.542   2.979 -0.0175 -1.4089  0.2011
18295SOL    HW256893   3.207   6.427   3.075  0.9018 -1.9090 -0.5985
18296SOL     OW56894   5.671   6.386   9.449  0.2648  0.2800  0.0614
18296SOL    HW156895   5.650   6.367   9.540  0.9769 -0.9439 -0.0050
18296SOL    HW256896   5.704   6.303   9.414  0.8901  0.9710 -1.0578
18297SOL     OW56897   7.948   1.778  10.897  0.6579  0.4607  0.4051
18297SOL    HW156898   8.011   1.749  10.830  0.8401  0.3089  0.6388
18297SOL    HW256899   7.981   1.862  10.927  0.2197  0.8418 -0.1547
18298SOL     OW56900   8.665  10.394   3.906 -0.1909  0.1177  1.0452
18298SOL    HW156901   8.605  10.402   3.832  0.9643  0.5125  0.1182
18298SOL    HW256902   8.637  10.462   3.967 -1.0834 -0.1372  0.9348
18299SOL     OW56903   6.008   3.677   1.998 -0.1160 -0.0262 -0.0514
18299SOL    HW156904   6.068   3.603   2.008 -0.4066 -0.3391 -0.5523
18299SOL    HW256905   5.959   3.679   2.080 -0.1760 -0.4540 -0.0761
18300SOL     OW56906   7.730   4.440   2.247  0.5686  0.6259  0.1986
18300SOL    HW156907   7.658   4.446   2.310 -0.6185  2.9273 -1.2260
18300SOL    HW256908   7.808   4.423   2.301 -1.0217 -2.7135  1.7194
18301SOL     OW56909   8.437   0.400   6.396 -0.5447  0.2711  0.5355
18301SOL    HW156910   8.481   0.355   6.468  0.1757 -0.1209 -0.1324
18301SOL    HW256911   8.373   0.456   6.438  1.7389  2.2008  1.6684
18302SOL     OW56912   7.947   7.450   1.393 -0.0586  0.3152  0.1014
18302SOL    HW156913   7.981   7.410   1.313 -0.7223  1.6007 -0.8584
18302SOL    HW256914   7.947   7.379   1.457  0.0795 -0.8657 -1.1596
18303SOL     OW56915   8.832   0.020   8.659  0.5279 -0.1860  0.2039
18303SOL    HW156916   8.764   0.018   8.726 -0.0506 -0.3620 -0.3765
18303SOL    HW256917   8.852  -0.072   8.643 -1.3938 -0.3418 -1.8786
18304SOL     OW56918   5.217   2.716   5.713 -0.5704 -0.0631  0.2644
18304SOL    HW156919   5.293   2.755   5.671 -0.0925 -1.0132  0.2261
18304SOL    HW256920   5.177   2.788   5.762 -0.6994  0.8732 -1.1656
18305SOL     OW56921   2.542   3.274   6.948  0.4301  0.3275  0.0782
18305SOL    HW156922   2.573   3.219   7.021  1.2922 -0.5201 -0.8926
18305SOL    HW256923   2.457   3.237   6.925  1.6305 -1.6341 -1.5224
18306SOL     OW56924   7.767   3.468   2.837 -0.2896  0.0033 -0.3234
18306SOL    HW156925   7.738   3.379   2.820  3.3029 -1.6050  0.9248
18306SOL    HW256926   7.729   3.490   2.922 -1.5475 -0.1048 -0.8352
18307SOL     OW56927  10.884   1.341   6.509 -0.1656  1.1100 -0.2790
18307SOL    HW156928  10.876   1.317   6.601 -1.2310  2.6555  0.0636
18307SOL    HW256929  10.960   1.293   6.478 -1.1517 -1.2836  0.7807
18308SOL     OW56930  11.116   8.088   3.155 -0.4329 -0.1476  0.0402
18308SOL    HW156931  11.113   8.183   3.163 -1.8854 -0.1209 -0.4932
18308SOL    HW256932  11.047   8.057   3.213 -0.4396 -0.8321 -0.3263
18309SOL     OW56933   2.681   6.858  10.332 -0.2563 -0.0984 -0.0068
18309SOL    HW156934   2.698   6.951  10.342  1.4129 -0.5721  2.6494
18309SOL    HW256935   2.765   6.820  10.305 -0.4763 -1.0148  0.5355
18310SOL     OW56936  10.101   6.044   9.921  0.3616 -0.2159 -0.3438
18310SOL    HW156937  10.085   6.125   9.970  1.3325 -0.2597  0.0803
18310SOL    HW256938  10.187   6.014   9.952  0.2868 -1.0885 -0.9369
18311SOL     OW56939   7.559   5.439   2.618  0.6677 -0.3474 -0.5805
18311SOL    HW156940   7.497   5.450   2.546 -0.9001  0.1631  0.7738
18311SOL    HW256941   7.617   5.515   2.611  0.6496 -0.4026 -1.4115
18312SOL     OW56942   8.415   7.630   4.227  0.2203  0.4547  0.2033
18312SOL    HW156943   8.388   7.566   4.161  0.8222  0.9337 -0.5273
18312SOL    HW256944   8.334   7.657   4.269 -0.2819  0.7725 -0.9382
18313SOL     OW56945   7.502   4.666  10.027  0.2752 -0.0918 -0.0696
18313SOL    HW156946   7.523   4.576  10.052 -0.0492 -0.1973 -0.1658
18313SOL    HW256947   7.444   4.697  10.096 -2.5562 -1.1735 -1.7691
18314SOL     OW56948   7.657   9.405  10.430  0.0389 -0.0487  0.4271
18314SOL    HW156949   7.624   9.373  10.513 -2.7925  1.3650 -0.0360
18314SOL    HW256950   7.628   9.340  10.366 -0.6859  0.5109  0.1770
18315SOL     OW56951   3.206   7.657   3.024 -0.3902  0.3617 -0.5532
18315SOL    HW156952   3.274   7.591   3.009  0.5320  1.1843 -0.0943
18315SOL    HW256953   3.254   7.736   3.048 -1.3718  1.6846 -2.6475
18316SOL     OW56954  11.225   2.925   2.475 -0.1010 -0.0050 -0.6917
18316SOL    HW156955  11.282   2.902   2.402  0.7929  0.8543 -0.2823
18316SOL    HW256956  11.199   2.840   2.513 -1.0815 -0.4942 -2.3436
18317SOL     OW56957   0.154   8.254   8.077  0.3178  0.3450 -0.0183
18317SOL    HW156958   0.140   8.290   7.990  0.6944 -0.0640 -0.2567
18317SOL    HW256959   0.237   8.206   8.069  0.3289  0.2690  0.5518
18318SOL     OW56960   7.365   3.106   7.559  0.4742  0.3640 -0.1356
18318SOL    HW156961   7.277   3.122   7.524 -0.0108 -1.8211 -0.0687
18318SOL    HW256962   7.383   3.181   7.615 -1.3206  0.9098 -0.2409
18319SOL     OW56963   0.224   2.770   9.570  0.4354 -0.6788 -0.5469
18319SOL    HW156964   0.212   2.813   9.654  0.9857 -2.6621  0.6181
18319SOL    HW256965   0.141   2.782   9.524  0.0415  0.2412  0.3732
18320SOL     OW56966   2.042   2.158   0.084 -0.3218 -0.4903  0.1001
18320SOL    HW156967   2.028   2.064   0.100  0.9239 -0.6364  0.4210
18320SOL    HW256968   2.023   2.200   0.167  1.4487 -0.7415  0.6828
18321SOL     OW56969   4.167   9.273   9.577 -0.0047 -0.4603  0.3990
18321SOL    HW156970   4.187   9.302   9.488 -0.5376 -1.3394 -0.0170
18321SOL    HW256971   4.199   9.344   9.633 -3.2955  2.1283 -0.6490
18322SOL     OW56972   1.144   0.354   6.610 -0.2620  0.2226  0.0917
18322SOL    HW156973   1.210   0.406   6.565  2.6061 -3.0562 -0.0084
18322SOL    HW256974   1.155   0.376   6.703 -0.4824  1.1501 -0.0958
18323SOL     OW56975   6.539   4.285   2.925  0.1576 -0.2869 -0.1290
18323SOL    HW156976   6.524   4.271   3.019  0.9680 -1.4109 -0.1392
18323SOL    HW256977   6.567   4.376   2.919 -1.7658  0.3796  0.4607
18324SOL     OW56978   9.687   8.621   6.096  0.1946 -0.0023  0.4649
18324SOL    HW156979   9.677   8.531   6.064 -1.5449  0.6878 -1.1426
18324SOL    HW256980   9.743   8.664   6.030 -0.7590  0.6049  0.0177
18325SOL     OW56981   0.026   8.766  10.937 -0.1044 -0.0355 -0.4210
18325SOL    HW156982   0.050   8.839  10.881  0.2369  1.0766  1.1120
18325SOL    HW256983   0.074   8.691  10.901 -1.7769  0.0356 -3.0440
18326SOL     OW56984   3.597   3.530  10.589  0.4137  0.2542  0.4609
18326SOL    HW156985   3.598   3.608  10.644  1.0259 -0.3428  1.3144
18326SOL    HW256986   3.632   3.460  10.644  0.9500 -0.3879 -0.6484
18327SOL     OW56987   0.133   2.494   9.322  0.0030  0.1956  0.1607
18327SOL    HW156988   0.166   2.495   9.412 -1.1481  3.0364  0.6756
18327SOL    HW256989   0.046   2.455   9.329 -0.3347  0.9700  0.4304
18328SOL     OW56990   1.013   0.582   4.358 -0.2988 -0.5119  0.6767
18328SOL    HW156991   1.048   0.513   4.302  0.5419 -1.6710  2.5240
18328SOL    HW256992   0.922   0.557   4.373 -1.3078  1.1394 -2.0741
18329SOL     OW56993  10.493   2.360   0.989  0.3437 -0.6090 -0.4619
18329SOL    HW156994  10.536   2.278   1.013 -1.3084 -1.3613  0.0973
18329SOL    HW256995  10.423   2.370   1.054  1.5399  2.1827  0.6023
18330SOL     OW56996   0.430   2.834   4.879 -0.5037  0.3999  0.1190
18330SOL    HW156997   0.448   2.927   4.888 -0.8255  0.4632  0.1438
18330SOL    HW256998   0.469   2.809   4.795 -0.4585  0.5665  0.0915
18331SOL     OW56999   6.382   4.266   1.221  0.0905 -0.7088  0.3181
18331SOL    HW157000   6.351   4.196   1.278 -1.4924  0.2342  0.6799
18331SOL    HW257001   6.347   4.244   1.134  0.8601 -1.1326  0.1081
18332SOL     OW57002   4.798   6.729   4.947 -0.0633 -0.1969  0.3455
18332SOL    HW157003   4.862   6.725   5.018 -0.1004 -0.4011  0.3681
18332SOL    HW257004   4.807   6.645   4.901  2.1841  1.1194 -1.8286
18333SOL     OW57005   6.824   9.461   1.650  0.1842  0.4235 -0.4680
18333SOL    HW157006   6.879   9.391   1.615 -0.3207 -0.1292 -0.1608
18333SOL    HW257007   6.744   9.457   1.597 -0.2148  0.1747  0.1450
18334SOL     OW57008   9.928   2.822   6.768  0.0764  0.3798  0.2327
18334SOL    HW157009   9.938   2.843   6.675  2.1040  1.8010  0.6941
18334SOL    HW257010  10.018   2.817   6.801 -0.6022  1.4828  2.4443
18335SOL     OW57011   5.320   0.703   8.722 -0.8581 -0.2835  0.2226
18335SOL    HW157012   5.403   0.709   8.675  0.1654  2.7690  2.1535
18335SOL    HW257013   5.344   0.706   8.815 -3.0485 -1.4060  0.9058
18336SOL     OW57014   5.226   6.123   8.279  0.5193  0.1581 -0.0337
18336SOL    HW157015   5.289   6.183   8.239  1.0618  0.0727  0.6720
18336SOL    HW257016   5.187   6.174   8.351 -1.2428  0.6898 -1.2949
18337SOL     OW57017   6.024   8.314   0.623  0.3250  0.4242 -0.1107
18337SOL    HW157018   6.023   8.397   0.670  0.3246  0.6714 -0.5444
18337SOL    HW257019   5.973   8.255   0.678  0.8154  0.5465  0.4879
18338SOL     OW57020   2.136   1.514   7.939  0.0574 -0.1218  1.1026
18338SOL    HW157021   2.042   1.505   7.924  0.1500 -0.0569  0.4706
18338SOL    HW257022   2.162   1.429   7.975  0.1773 -1.0182 -0.9507
18339SOL     OW57023  10.069   9.454   1.110  0.7399 -0.2836  0.0156
18339SOL    HW157024  10.050   9.361   1.093  2.3441 -1.1223  2.3417
18339SOL    HW257025  10.011   9.477   1.183  2.3170 -0.3278  1.3276
18340SOL     OW57026   7.978   4.299   6.512  0.3803 -0.1129  0.1471
18340SOL    HW157027   8.008   4.350   6.587 -0.1536  1.0969 -0.4453
18340SOL    HW257028   8.056   4.288   6.458 -0.0036  2.5764 -1.1302
18341SOL     OW57029   1.112   4.225   8.164  0.2781  0.0753 -0.8674
18341SOL    HW157030   1.110   4.131   8.144 -2.1251  0.5287 -3.3619
18341SOL    HW257031   1.168   4.262   8.096  1.8024  0.4409  0.5331
18342SOL     OW57032  10.978   6.310   0.766  0.3395  0.3975 -0.1336
18342SOL    HW157033  10.998   6.339   0.677 -0.3798 -0.9215 -0.7495
18342SOL    HW257034  10.895   6.263   0.758 -0.9871  2.2189  1.6311
18343SOL     OW57035   9.810   9.290   4.273  0.2572  0.4584 -0.2831
18343SOL    HW157036   9.823   9.217   4.212  1.0070 -0.2729  0.7046
18343SOL    HW257037   9.734   9.337   4.239  0.2575 -0.3118 -1.4004
18344SOL     OW57038   8.630   4.318   7.072 -1.2049 -0.4926  0.4396
18344SOL    HW157039   8.721   4.291   7.083  0.1987  2.5733 -2.1671
18344SOL    HW257040   8.613   4.310   6.978 -2.4423  2.1635  0.3403
18345SOL     OW57041   6.269   8.826   4.323  0.2331 -0.5004  0.5965
18345SOL    HW157042   6.304   8.895   4.266  1.1793  0.5923  2.4064
18345SOL    HW257043   6.180   8.855   4.343 -0.1504 -0.9527 -0.3711
18346SOL     OW57044   3.233   2.121   1.273 -0.1878  0.0984  0.1965
18346SOL    HW157045   3.275   2.136   1.357  0.6778 -0.4106 -0.1346
18346SOL    HW257046   3.291   2.162   1.209  0.1613 -1.1831 -0.3293
18347SOL     OW57047   2.847  10.735   4.217  0.5844  0.3561 -0.3719
18347SOL    HW157048   2.816  10.653   4.179 -2.3463  0.8317  0.7265
18347SOL    HW257049   2.880  10.785   4.142 -1.2010 -0.3236 -1.6762
18348SOL     OW57050   6.058   8.872   6.496 -0.5631  0.1633 -0.2619
18348SOL    HW157051   6.004   8.951   6.494  0.1282  0.6358 -0.9817
18348SOL    HW257052   5.999   8.801   6.470 -1.3968  0.2912  1.1747
18349SOL     OW57053   7.800   3.673   5.407 -0.2605 -0.7962 -0.3169
18349SOL    HW157054   7.761   3.611   5.346 -1.8734  0.5434 -0.7520
18349SOL    HW257055   7.808   3.754   5.357  0.3711 -0.2406  0.6445
18350SOL     OW57056   2.192   4.908   4.587 -0.6528  0.2340 -0.5456
18350SOL    HW157057   2.152   4.965   4.652 -0.4933  0.7785 -0.9221
18350SOL    HW257058   2.124   4.895   4.521 -0.1890  1.2727 -1.2563
18351SOL     OW57059   5.985   6.172   7.041 -0.1620 -0.3323 -0.4851
18351SOL    HW157060   5.966   6.182   6.947  0.7627  0.6875 -0.5879
18351SOL    HW257061   5.981   6.261   7.075  0.7915 -0.5347  0.1859
18352SOL     OW57062   8.176   5.764   0.284 -0.6011  0.6214  0.3412
18352SOL    HW157063   8.143   5.789   0.197  0.8807  0.7150 -0.2270
18352SOL    HW257064   8.187   5.669   0.278 -0.9520  0.5627  0.6022
18353SOL     OW57065   7.862   5.401   2.486 -0.2756  0.5069 -0.1043
18353SOL    HW157066   7.861   5.446   2.401 -1.1332  0.5958 -0.0585
18353SOL    HW257067   7.789   5.339   2.480  0.4874 -0.4489  0.0709
18354SOL     OW57068   9.600   4.955  10.070 -0.2595  0.1236  0.1263
18354SOL    HW157069   9.634   4.889  10.130  0.0335  1.1629  1.1471
18354SOL    HW257070   9.522   4.915  10.032 -0.5836 -0.4882  1.3854
18355SOL     OW57071   2.363   5.062  10.803  0.7748 -0.2031  0.1729
18355SOL    HW157072   2.298   5.001  10.836  0.3310  0.5309  0.7004
18355SOL    HW257073   2.381   5.033  10.714 -0.9215  0.0880 -0.2939
18356SOL     OW57074  10.656   0.049   9.988  0.1172  0.0567  0.2345
18356SOL    HW157075  10.579   0.104   9.975 -0.6924 -1.2139 -0.5061
18356SOL    HW257076  10.624  -0.040   9.976  1.6140 -0.5264  0.4087
18357SOL     OW57077   7.504   3.343   4.753 -0.6397  0.0947  0.7518
18357SOL    HW157078   7.486   3.434   4.727  0.4395  0.2156  0.3659
18357SOL    HW257079   7.499   3.345   4.849 -0.6362  0.5621  0.7478
18358SOL     OW57080  10.696  10.836   5.546 -0.1679 -0.4537  0.3277
18358SOL    HW157081  10.640  10.759   5.559  0.2357 -0.7014  0.6060
18358SOL    HW257082  10.641  10.897   5.498 -0.4274 -0.9968 -0.0805
18359SOL     OW57083   3.027   6.821   6.498 -0.4463  0.3745  0.3456
18359SOL    HW157084   2.952   6.810   6.439 -0.6227  0.1158  0.6157
18359SOL    HW257085   2.989   6.816   6.586  0.0260 -0.8083  0.5009
18360SOL     OW57086   3.522   8.973   8.778 -0.2156 -0.3538 -0.2897
18360SOL    HW157087   3.449   8.995   8.836  0.1553 -0.5481  0.2592
18360SOL    HW257088   3.598   8.967   8.836  0.3987  0.6314 -0.9584
18361SOL     OW57089   5.629   1.489   7.921 -0.0563 -0.3286 -0.0133
18361SOL    HW157090   5.604   1.431   7.848  0.5875 -0.7050  0.0602
18361SOL    HW257091   5.671   1.563   7.879  1.0814 -0.9424  0.0117
18362SOL     OW57092   3.248   2.272   5.281 -0.5917 -0.5209  0.3641
18362SOL    HW157093   3.219   2.253   5.191 -0.0543 -0.3313  0.1481
18362SOL    HW257094   3.266   2.185   5.319 -1.2472 -0.6274  0.4357
18363SOL     OW57095   2.888   6.884   9.826 -0.3612 -0.4937 -0.3338
18363SOL    HW157096   2.957   6.824   9.853  3.5556  2.6747 -2.2390
18363SOL    HW257097   2.852   6.846   9.747  0.3593 -1.4646 -0.2105
18364SOL     OW57098   1.987  10.081   0.878  0.0971  0.3607 -0.4995
18364SOL    HW157099   1.976  10.136   0.801  1.3191  1.4458  0.0663
18364SOL    HW257100   1.919  10.013   0.869  0.1402  0.5181 -2.4445
18365SOL     OW57101  11.116   2.088   7.081 -0.2605 -0.6696 -0.2633
18365SOL    HW157102  11.123   2.160   7.019 -1.8377 -0.4377 -0.2187
18365SOL    HW257103  11.183   2.106   7.147 -2.4792  2.5005  1.4134
18366SOL     OW57104   1.089   0.574   5.119  0.6972 -0.2154  0.5788
18366SOL    HW157105   1.044   0.556   5.201 -2.7378  2.3400 -0.4776
18366SOL    HW257106   1.143   0.497   5.103 -1.1440 -2.3101  3.5330
18367SOL     OW57107   1.922   0.454   5.799 -0.3232  0.7066  0.0033
18367SOL    HW157108   1.983   0.502   5.856  1.7726 -1.1776 -0.5168
18367SOL    HW257109   1.977   0.419   5.729 -2.1838 -0.3077 -1.0256
18368SOL     OW57110   7.065   5.292   2.139 -0.0468 -0.0037 -0.6684
18368SOL    HW157111   7.085   5.199   2.146  0.7409  0.2541  0.9514
18368SOL    HW257112   6.970   5.295   2.129 -0.2109 -0.9697  0.3717
18369SOL     OW57113   3.108   8.623   0.274  0.2278  0.4819 -0.3289
18369SOL    HW157114   3.124   8.662   0.188 -0.6824  0.3272 -0.5786
18369SOL    HW257115   3.102   8.529   0.257 -0.4486  0.4926 -0.1858
18370SOL     OW57116   0.127   0.630   2.009  0.0595  0.4495  0.0073
18370SOL    HW157117   0.217   0.608   1.984 -0.3270 -1.4530  0.1378
18370SOL    HW257118   0.085   0.654   1.927  0.5139  0.7202 -0.1524
18371SOL     OW57119   8.087   9.458   3.167 -0.4242 -0.1942 -0.3117
18371SOL    HW157120   8.043   9.432   3.086  1.1251  0.8779 -1.5530
18371SOL    HW257121   8.154   9.391   3.179  0.7077  0.7518 -1.1073
18372SOL     OW57122   0.165   5.349   7.387 -0.0658 -0.0280 -0.0267
18372SOL    HW157123   0.103   5.320   7.319 -1.4245  4.1002 -0.8442
18372SOL    HW257124   0.174   5.274   7.445 -3.3471 -1.9073 -1.6761
18373SOL     OW57125   7.059   0.821   0.866  0.7118 -0.5247 -0.3803
18373SOL    HW157126   7.109   0.871   0.931  0.7824  0.4019 -1.1361
18373SOL    HW257127   6.968   0.835   0.891  0.6299  1.4413 -1.5801
18374SOL     OW57128  10.625   0.172   3.159  0.2290 -0.5318 -0.5313
18374SOL    HW157129  10.572   0.096   3.135 -0.7997 -1.1918  3.2685
18374SOL    HW257130  10.710   0.135   3.181  0.2704 -0.3531 -0.3951
18375SOL     OW57131   4.464   4.415   8.472 -0.1785  0.1174  0.7012
18375SOL    HW157132   4.455   4.320   8.474 -1.4739  0.1776 -0.9553
18375SOL    HW257133   4.391   4.448   8.524  0.0928  0.2366  1.0166
18376SOL     OW57134   5.017   0.631   1.559 -0.1638 -0.0411  0.0195
18376SOL    HW157135   5.024   0.537   1.541  0.1647 -0.4389  1.9904
18376SOL    HW257136   4.923   0.649   1.553 -0.1513 -0.2525 -1.2902
18377SOL     OW57137  11.012   2.151   9.255  0.2736 -0.1956  0.0548
18377SOL    HW157138  10.920   2.179   9.256  0.0689 -0.8085  1.9353
18377SOL    HW257139  11.014   2.073   9.311  1.9934 -0.0377  0.2545
18378SOL     OW57140   7.837   4.730   1.709  0.3746  0.1649  0.4978
18378SOL    HW157141   7.793   4.714   1.793 -1.1356 -3.7631 -0.8322
18378SOL    HW257142   7.766   4.737   1.645  1.5421  1.1271 -0.7473
18379SOL     OW57143   9.118  10.630  10.423  0.0515  0.0266 -0.1252
18379SOL    HW157144   9.052  10.698  10.410  0.4355  0.1985 -1.3076
18379SOL    HW257145   9.200  10.670  10.394  0.7479 -0.1150  1.5036
18380SOL     OW57146   2.630   0.917   4.921 -0.2230 -0.2966 -0.7607
18380SOL    HW157147   2.560   0.966   4.964 -0.4253 -0.3196 -1.0640
18380SOL    HW257148   2.686   0.985   4.883 -0.3088 -0.2890 -0.8750
18381SOL     OW57149   3.235   0.063   5.181  0.7759  0.2514  0.2342
18381SOL    HW157150   3.175   0.138   5.185 -0.3896 -0.5040 -1.6539
18381SOL    HW257151   3.257   0.046   5.273 -1.1768  1.1558  0.9459
18382SOL     OW57152   6.822   1.233   0.839  0.0834 -0.6061 -0.0608
18382SOL    HW157153   6.900   1.218   0.893  1.0397  1.2217 -0.8509
18382SOL    HW257154   6.810   1.328   0.840 -2.3635 -0.8462  0.3001
18383SOL     OW57155   3.076   3.723   7.754  0.0584 -0.2605  0.1186
18383SOL    HW157156   3.105   3.698   7.842  0.9204 -0.8780 -0.3368
18383SOL    HW257157   3.010   3.657   7.732  1.7196 -1.7143 -0.7345
18384SOL     OW57158  11.006   8.253  10.385  0.0942  0.1329  0.0778
18384SOL    HW157159  11.055   8.329  10.416 -1.6718  1.2807  0.1839
18384SOL    HW257160  11.033   8.182  10.444  0.0007  1.2578  1.5540
18385SOL     OW57161   5.476   4.843   3.176  0.0366  0.5122 -0.0588
18385SOL    HW157162   5.547   4.849   3.240  0.1951  2.0923 -0.3410
18385SOL    HW257163   5.521   4.840   3.091 -0.1541 -1.9673 -0.1421
18386SOL     OW57164   7.189   6.173   4.628  0.3689 -0.0960 -0.4023
18386SOL    HW157165   7.111   6.211   4.669 -0.4250 -1.6885 -0.3663
18386SOL    HW257166   7.262   6.210   4.677 -0.4492  0.0120  0.7672
18387SOL     OW57167   9.169   3.992   7.108  1.0862 -0.1991 -0.3662
18387SOL    HW157168   9.209   3.911   7.140  0.1047 -0.4948  0.1774
18387SOL    HW257169   9.076   3.982   7.129  1.1502  1.7263  1.1337
18388SOL     OW57170   3.941   1.981   4.742  0.2221  0.0839  0.2666
18388SOL    HW157171   3.893   2.041   4.800  0.3715 -0.2097  0.6958
18388SOL    HW257172   3.961   2.034   4.665 -0.0518  0.4557  0.4466
18389SOL     OW57173   1.011   4.543   2.610 -0.2779 -0.1332 -0.3827
18389SOL    HW157174   0.967   4.489   2.544 -0.4941 -0.0923 -0.2724
18389SOL    HW257175   0.998   4.495   2.692 -2.2476  1.0756  0.0842
18390SOL     OW57176   0.425   9.660   3.005  0.3817  0.2835  0.3204
18390SOL    HW157177   0.502   9.635   2.954  0.3729  2.4232 -0.8551
18390SOL    HW257178   0.460   9.704   3.082  0.3504 -0.9964  1.0869
18391SOL     OW57179   0.679   8.944   6.084  0.6353 -0.3485 -0.0258
18391SOL    HW157180   0.709   9.010   6.147  0.5617  0.2405 -0.6070
18391SOL    HW257181   0.718   8.862   6.116 -0.0312 -0.2024  1.2389
18392SOL     OW57182   5.472   6.655   6.361 -0.8107 -0.2912  0.3960
18392SOL    HW157183   5.533   6.584   6.380 -1.7616 -0.9142  1.2616
18392SOL    HW257184   5.486   6.719   6.431 -0.7176 -0.1284  0.2320
18393SOL     OW57185   5.178   5.132   0.083  0.2040 -0.0748  0.1410
18393SOL    HW157186   5.177   5.038   0.070 -0.7878  0.1369 -1.6394
18393SOL    HW257187   5.100   5.151   0.136 -0.9683 -0.0426 -1.5384
18394SOL     OW57188   8.757   6.078   6.244  0.1318 -0.1018  0.1125
18394SOL    HW157189   8.817   6.152   6.253 -0.8511  0.7323 -0.0526
18394SOL    HW257190   8.684   6.099   6.302 -0.0435 -1.0787  0.2665
18395SOL     OW57191   5.674   1.715   7.751  0.5860 -0.3143  0.4864
18395SOL    HW157192   5.595   1.751   7.793  1.7280  0.8615  1.7095
18395SOL    HW257193   5.741   1.781   7.766  2.0756 -1.7415  0.3298
18396SOL     OW57194   9.183   4.705   1.513 -0.0658  0.1345  0.7134
18396SOL    HW157195   9.234   4.731   1.437  0.6871  0.2164  1.2400
18396SOL    HW257196   9.139   4.785   1.542 -1.4264 -0.1698 -0.4226
18397SOL     OW57197   7.038   4.315  10.798 -0.1109 -0.4547 -0.2195
18397SOL    HW157198   7.003   4.376  10.864 -0.4275  1.2526 -1.8929
18397SOL    HW257199   6.987   4.332  10.719  0.7909 -1.8890 -1.1679
18398SOL     OW57200  11.030   2.309   9.743  0.0114 -0.7229  0.0001
18398SOL    HW157201  11.071   2.319   9.829 -0.0961  0.7793 -0.0977
18398SOL    HW257202  10.962   2.242   9.757 -0.8067  0.3367  1.3862
18399SOL     OW57203  10.707   7.607   6.527 -0.2747  0.3982  0.3185
18399SOL    HW157204  10.788   7.595   6.478 -0.5116 -0.0108  0.0161
18399SOL    HW257205  10.690   7.701   6.525 -0.4892  0.3474 -0.7341
18400SOL     OW57206   4.289   7.680   7.415  0.2848  0.0083  0.7382
18400SOL    HW157207   4.348   7.644   7.349 -0.6228  0.8053 -0.5347
18400SOL    HW257208   4.348   7.708   7.486  1.1542 -2.3457  1.0605
18401SOL     OW57209   5.374   4.933   7.113  0.4066 -0.6262 -0.1911
18401SOL    HW157210   5.431   4.999   7.152  0.5604 -1.2517  0.6832
18401SOL    HW257211   5.361   4.962   7.023 -1.0614  1.5866  0.6755
18402SOL     OW57212   4.607   6.909   1.741 -0.6357 -0.0712  0.6154
18402SOL    HW157213   4.551   6.835   1.718 -1.2954 -0.4791  3.1764
18402SOL    HW257214   4.696   6.875   1.733 -0.6295  0.4477 -3.0546
18403SOL     OW57215   7.758   8.502   7.996 -0.0281 -0.2417 -0.0505
18403SOL    HW157216   7.752   8.516   7.901  0.2056 -1.9315 -0.3470
18403SOL    HW257217   7.677   8.457   8.019  0.2394 -0.4994  0.4111
18404SOL     OW57218   3.027   7.549   8.003  0.3283  0.7043  0.1700
18404SOL    HW157219   3.028   7.454   7.990  0.5346  0.7357 -0.0522
18404SOL    HW257220   3.089   7.564   8.074  0.7064  0.7246 -0.1619
18405SOL     OW57221   3.896   5.382   9.328  0.3600 -0.0741 -0.4022
18405SOL    HW157222   3.868   5.325   9.256 -1.6492  1.8628 -1.2568
18405SOL    HW257223   3.834   5.363   9.398 -1.3593  2.0220 -1.2291
18406SOL     OW57224   1.108   6.153   8.116 -0.4808  0.6634 -0.1826
18406SOL    HW157225   1.070   6.136   8.030 -1.4195 -0.1545  0.3815
18406SOL    HW257226   1.102   6.248   8.126 -0.5971  0.7428 -0.8995
18407SOL     OW57227   5.700   3.837   7.821 -0.3448  0.6330 -0.1714
18407SOL    HW157228   5.744   3.905   7.769 -0.9325 -0.1590 -1.7639
18407SOL    HW257229   5.607   3.860   7.817 -0.4186  0.4317  0.3509
18408SOL     OW57230   5.389   0.428   5.104 -0.1562 -0.1188 -0.5557
18408SOL    HW157231   5.480   0.400   5.107 -0.0856  0.1895  0.3065
18408SOL    HW257232   5.341   0.356   5.147 -0.4574 -0.7725 -1.9269
18409SOL     OW57233   9.677   1.736   9.600 -0.5748 -0.3061  0.2650
18409SOL    HW157234   9.621   1.710   9.673 -0.8160  0.7571  0.4697
18409SOL    HW257235   9.674   1.662   9.540 -3.1268  0.1603 -0.2844
18410SOL     OW57236   6.168   6.197   9.967 -0.0072  0.0899 -0.1296
18410SOL    HW157237   6.126   6.207   9.881  1.0632  0.6908 -0.6011
18410SOL    HW257238   6.232   6.267   9.970  0.8149 -0.6720  0.6585
18411SOL     OW57239   5.725   0.498   3.575 -0.5453 -0.3072  0.0598
18411SOL    HW157240   5.820   0.507   3.575 -0.3264 -2.0183 -1.6076
18411SOL    HW257241   5.696   0.557   3.506 -0.3869 -1.7730 -1.3220
18412SOL     OW57242   3.617   3.206   5.850 -0.5114 -0.2025  0.5211
18412SOL    HW157243   3.540   3.162   5.815 -1.8196  0.1536  2.7543
18412SOL    HW257244   3.685   3.138   5.849 -1.6482 -1.4027  1.0885
18413SOL     OW57245   3.232   4.546   2.489 -0.6175  0.0890 -0.2724
18413SOL    HW157246   3.174   4.622   2.483 -0.7206 -0.0719 -2.0685
18413SOL    HW257247   3.313   4.574   2.446 -1.2555 -1.2928 -2.5638
18414SOL     OW57248   7.089   5.214   7.783  0.3726  0.1514  0.1149
18414SOL    HW157249   7.038   5.272   7.726  0.4244 -0.3068 -0.4067
18414SOL    HW257250   7.023   5.167   7.834  0.3211  0.4820  0.3549
18415SOL     OW57251   5.631   2.134   2.028 -0.7893  0.6542 -0.0917
18415SOL    HW157252   5.693   2.190   1.983 -0.1717  0.4159  0.4500
18415SOL    HW257253   5.642   2.048   1.986 -1.0609  0.7062 -0.2778
18416SOL     OW57254   4.313  11.262   2.502 -0.5507  0.3405 -0.0008
18416SOL    HW157255   4.370  11.260   2.425 -0.4474 -0.4840  0.0954
18416SOL    HW257256   4.289  11.171   2.517  1.6767  0.0548  2.5927
18417SOL     OW57257   9.893   4.406   3.477  0.1964  0.5359 -0.4516
18417SOL    HW157258   9.932   4.375   3.558  0.3680 -2.2557 -1.5098
18417SOL    HW257259   9.844   4.485   3.503  0.2696 -0.2286  2.3342
18418SOL     OW57260   3.684  10.763   1.572 -0.7941 -0.3944  0.3965
18418SOL    HW157261   3.698  10.671   1.549 -0.0669 -0.2009  0.0122
18418SOL    HW257262   3.724  10.773   1.658 -4.1031 -1.2742  2.1746
18419SOL     OW57263   7.110   3.924  10.165  0.0596  0.9975 -0.0241
18419SOL    HW157264   7.086   3.831  10.163 -0.0610  0.9691  1.3686
18419SOL    HW257265   7.192   3.929  10.117  0.0794  0.1625 -0.0957
18420SOL     OW57266   5.705   7.057   3.348  0.2048 -0.0879 -0.4979
18420SOL    HW157267   5.771   7.015   3.292 -0.0836 -1.8669  0.4414
18420SOL    HW257268   5.750   7.134   3.383  1.4305 -0.6569 -0.7539
18421SOL     OW57269   4.802   1.063   7.494  0.0395  0.0663  0.0324
18421SOL    HW157270   4.868   1.088   7.429 -2.1710  0.7272 -2.1204
18421SOL    HW257271   4.799   1.137   7.555  1.1225  0.1166  0.0416
18422SOL     OW57272   4.958   3.704   1.566 -0.2192 -0.0113  0.2704
18422SOL    HW157273   4.929   3.795   1.574  1.0060  0.3712  0.5063
18422SOL    HW257274   4.880   3.657   1.537 -0.6534  1.2546 -0.7228
18423SOL     OW57275   4.473   9.265   0.817 -0.0901 -0.2766  0.6386
18423SOL    HW157276   4.524   9.262   0.898  0.7382 -1.7484  0.0947
18423SOL    HW257277   4.506   9.192   0.764 -0.4274  0.7978 -1.1526
18424SOL     OW57278   3.979   4.494   8.020  1.2747 -0.4266 -0.2609
18424SOL    HW157279   3.977   4.408   7.978  0.9217  0.2215 -1.6313
18424SOL    HW257280   3.897   4.499   8.070  0.9274 -0.6015 -0.8027
18425SOL     OW57281   9.909   6.418   7.501  0.0622  0.4175 -0.2039
18425SOL    HW157282   9.995   6.412   7.542 -1.1445 -1.3433  2.4059
18425SOL    HW257283   9.854   6.460   7.567 -1.5662 -0.6733 -0.7865
18426SOL     OW57284   8.045   8.030   9.071 -0.8121  0.5133 -0.5937
18426SOL    HW157285   8.099   8.098   9.112 -0.2965  0.6356 -1.4540
18426SOL    HW257286   8.106   7.961   9.047 -1.6565 -1.7969  3.0962
18427SOL     OW57287   1.059   3.854   1.602  0.8794 -0.0465  0.1014
18427SOL    HW157288   1.024   3.854   1.513 -1.3219  1.1167  0.8929
18427SOL    HW257289   1.097   3.767   1.613 -0.7244 -0.9897 -1.2924
18428SOL     OW57290   1.010   4.020   2.965 -0.1322  0.0473 -0.1461
18428SOL    HW157291   0.981   4.017   3.056  0.4757 -1.9372  0.0407
18428SOL    HW257292   0.962   3.949   2.922 -0.2399  0.8096 -1.3353
18429SOL     OW57293   4.755   0.700   3.645 -0.2148 -0.2583 -0.2908
18429SOL    HW157294   4.844   0.699   3.610  1.3420  1.6687  3.0541
18429SOL    HW257295   4.711   0.770   3.599  0.0463 -1.0263 -1.7681
18430SOL     OW57296   8.977   9.187   9.079 -0.4283 -0.3610 -0.0153
18430SOL    HW157297   9.002   9.138   9.157 -1.5730 -2.7183 -1.0203
18430SOL    HW257298   9.040   9.159   9.012  2.9945  4.3906  0.6834
18431SOL     OW57299   0.569   8.845   0.550  0.0817  0.4575 -0.1045
18431SOL    HW157300   0.512   8.914   0.585  0.0574  0.5338 -0.2908
18431SOL    HW257301   0.546   8.767   0.600 -1.1635  0.1539 -1.0918
18432SOL     OW57302   7.159   1.086   5.155 -0.4011 -0.3472  0.3331
18432SOL    HW157303   7.229   1.121   5.101  1.1392 -0.8905  1.8914
18432SOL    HW257304   7.124   1.012   5.105  0.2748 -0.1886 -0.3766
18433SOL     OW57305   1.554   8.879   6.684 -0.1252  0.2691  0.1666
18433SOL    HW157306   1.466   8.848   6.660  0.2309  0.5875 -1.7121
18433SOL    HW257307   1.586   8.814   6.747 -0.7848 -1.2239 -0.9776
18434SOL     OW57308   7.050  10.356   7.716 -0.4195 -0.2294 -0.1240
18434SOL    HW157309   7.013  10.287   7.771  0.9348 -0.8689  0.0253
18434SOL    HW257310   7.019  10.336   7.628 -0.5780 -0.6292  0.0228
18435SOL     OW57311   3.974   8.056   7.848  0.0477 -0.2103  0.2282
18435SOL    HW157312   3.953   8.125   7.911  1.5906 -1.1480  1.8498
18435SOL    HW257313   3.976   8.101   7.763  1.8719  1.9648  1.3213
18436SOL     OW57314   0.689   8.351   9.759 -0.3026  0.5116 -0.5964
18436SOL    HW157315   0.598   8.363   9.734 -0.2870 -0.8788 -1.4037
18436SOL    HW257316   0.685   8.303   9.841 -0.2963  2.0637  0.3516
18437SOL     OW57317   3.698   4.470   1.317 -0.1603  0.4077  0.5654
18437SOL    HW157318   3.645   4.393   1.338 -0.2025  0.5705  1.0800
18437SOL    HW257319   3.669   4.536   1.380  0.2645  0.6687  0.4874
18438SOL     OW57320   6.724   2.506   4.551  0.3543 -0.2067 -0.4671
18438SOL    HW157321   6.767   2.482   4.469 -1.8350 -1.7838 -1.2372
18438SOL    HW257322   6.724   2.425   4.603 -0.6436  0.0690 -0.0168
18439SOL     OW57323   5.277  10.386   0.009  0.0966  0.2754 -0.4093
18439SOL    HW157324   5.210  10.319   0.025  0.7421 -0.0269  1.1466
18439SOL    HW257325   5.358  10.348   0.043  0.4229  1.9538  0.8281
18440SOL     OW57326   6.876   4.702   3.240  0.0372  0.4376 -0.2571
18440SOL    HW157327   6.916   4.710   3.153  0.3105  0.0016 -0.1707
18440SOL    HW257328   6.891   4.788   3.281  0.2982  0.4957 -0.4725
18441SOL     OW57329   0.351   4.443  10.590  0.2311  0.2973 -0.0133
18441SOL    HW157330   0.430   4.417  10.542 -0.4621  1.1807 -1.7376
18441SOL    HW257331   0.318   4.519  10.542 -1.5834  0.0539  0.7634
18442SOL     OW57332   2.026   0.909   3.071 -0.3926  0.3029  0.1062
18442SOL    HW157333   2.003   0.851   2.998 -1.5110  0.9835 -0.1067
18442SOL    HW257334   2.045   0.993   3.030  0.2931  0.3523  0.4985
18443SOL     OW57335   6.375   7.555   1.378  0.1433 -0.2169  0.9594
18443SOL    HW157336   6.394   7.490   1.310  0.3043  0.0454  0.7502
18443SOL    HW257337   6.436   7.627   1.360  0.3447 -0.2400  1.5178
18444SOL     OW57338  10.276   5.780   6.759 -0.2033  0.5620 -0.5297
18444SOL    HW157339  10.202   5.729   6.793 -1.8697  2.6918 -0.7333
18444SOL    HW257340  10.285   5.751   6.668 -2.4312  1.8606 -1.2609
18445SOL     OW57341   0.830   8.889   2.706 -0.5008  0.5837  0.2660
18445SOL    HW157342   0.774   8.939   2.765 -1.1714  0.6960 -0.4576
18445SOL    HW257343   0.844   8.806   2.752 -2.3008  0.0569 -0.0830
18446SOL     OW57344   2.886   4.982   0.873 -0.0692 -0.1553 -0.2575
18446SOL    HW157345   2.898   5.076   0.890  1.2710 -0.5470  1.1785
18446SOL    HW257346   2.928   4.939   0.947 -2.8023 -1.9059  0.4190
18447SOL     OW57347   6.538   0.917   0.993 -0.7623  0.2689 -0.5927
18447SOL    HW157348   6.530   0.982   0.923  0.1794 -0.1041 -1.0784
18447SOL    HW257349   6.476   0.848   0.969  0.9015 -0.7998 -2.2030
18448SOL     OW57350   5.963   2.466   9.344  0.3217  0.5451 -0.4498
18448SOL    HW157351   5.904   2.537   9.367  1.0876  1.8343 -2.1963
18448SOL    HW257352   5.949   2.452   9.250  1.3515 -0.4981 -0.4826
18449SOL     OW57353   4.166   4.765   9.933 -0.3456 -0.4865 -0.1578
18449SOL    HW157354   4.134   4.703   9.868 -0.4603 -0.9484  0.3357
18449SOL    HW257355   4.262   4.761   9.924 -0.3640 -0.4604 -0.3768
18450SOL     OW57356   8.837   5.922   6.864 -0.2568  0.0936 -1.3189
18450SOL    HW157357   8.926   5.893   6.884 -0.1345  0.8152 -0.7289
18450SOL    HW257358   8.802   5.951   6.949 -1.1771 -0.4920 -1.4835
18451SOL     OW57359   7.311   9.205   5.374 -0.7509 -0.4512  0.2572
18451SOL    HW157360   7.364   9.140   5.422  0.2025  0.2095  0.1213
18451SOL    HW257361   7.284   9.268   5.441 -0.7205 -0.3723  0.1955
18452SOL     OW57362   4.700   1.084   3.413 -0.0458  0.7587 -0.5529
18452SOL    HW157363   4.697   1.149   3.483 -0.4315  1.5555 -1.2907
18452SOL    HW257364   4.789   1.092   3.377  0.2046  0.2405 -0.0700
18453SOL     OW57365   0.870   9.235   8.873  0.4578 -0.0646 -0.4894
18453SOL    HW157366   0.960   9.207   8.892  0.3566 -1.7913 -2.1667
18453SOL    HW257367   0.816   9.186   8.934  0.4758 -1.5484 -1.6151
18454SOL     OW57368   8.131   4.955   5.761  0.3138 -0.1752 -0.0431
18454SOL    HW157369   8.083   4.890   5.710  1.8197  0.1254 -1.9959
18454SOL    HW257370   8.192   4.994   5.698 -0.2324  2.8562  1.1096
18455SOL     OW57371   0.287   9.044   0.052 -0.2748  0.8406  0.0607
18455SOL    HW157372   0.229   9.119   0.045 -0.7347  0.4453 -0.4788
18455SOL    HW257373   0.303   9.017  -0.039  1.1150  1.2048  0.1624
18456SOL     OW57374   0.664   7.724   8.639 -0.2286  0.2754  0.6293
18456SOL    HW157375   0.610   7.648   8.617  0.2208  0.4149 -1.1432
18456SOL    HW257376   0.750   7.703   8.604  0.1363  1.2169  0.9277
18457SOL     OW57377   0.206   8.946   3.096 -0.0064 -0.1461  0.3474
18457SOL    HW157378   0.196   9.036   3.126  1.1808 -0.1957  0.9578
18457SOL    HW257379   0.257   8.953   3.015  0.0617 -0.2632  0.3792
18458SOL     OW57380   6.922   0.485  10.382 -0.4093  0.9993  0.0726
18458SOL    HW157381   6.985   0.483  10.310 -0.0722 -0.2003  0.3775
18458SOL    HW257382   6.837   0.492  10.339 -0.2586 -0.3880 -0.4813
18459SOL     OW57383   6.976   1.632   3.226  0.1549  0.2640  0.0397
18459SOL    HW157384   6.989   1.605   3.317 -2.4816 -0.3112  0.3133
18459SOL    HW257385   6.882   1.622   3.211  0.3757  1.2855 -2.4686
18460SOL     OW57386   7.571   4.767   7.905 -0.3038 -0.1367 -0.0381
18460SOL    HW157387   7.617   4.799   7.983  1.8221 -1.7022 -0.5555
18460SOL    HW257388   7.572   4.672   7.915 -1.3232 -0.2991 -1.2948
18461SOL     OW57389  11.169   5.452   6.239  0.0588 -0.3826 -0.2320
18461SOL    HW157390  11.241   5.515   6.245 -0.2629  0.2319 -2.0238
18461SOL    HW257391  11.120   5.465   6.320  1.7901 -0.6417  0.9064
18462SOL     OW57392   9.352   6.573   0.725 -0.5344  0.0999 -0.3401
18462SOL    HW157393   9.384   6.586   0.815 -0.7198  3.6616 -0.6407
18462SOL    HW257394   9.279   6.634   0.717 -0.8031 -0.4531 -2.7958
18463SOL     OW57395   4.997  10.878   0.074  0.2402 -0.0041 -0.0458
18463SOL    HW157396   4.983  10.822   0.150  3.2372 -0.0355  0.5753
18463SOL    HW257397   5.087  10.862   0.048 -0.2733  1.0435 -2.7993
18464SOL     OW57398   0.943   7.078   8.308 -0.2379 -0.1202 -0.3537
18464SOL    HW157399   0.930   7.139   8.380  4.3655 -1.5651  2.0634
18464SOL    HW257400   0.922   6.992   8.344  1.3138 -0.7884 -0.9678
18465SOL     OW57401   4.337   5.032   1.154 -0.0732  0.1507  0.8843
18465SOL    HW157402   4.381   5.011   1.237 -0.7620  0.8506  1.4502
18465SOL    HW257403   4.394   5.096   1.112  0.5602 -0.6288  0.5449
18466SOL     OW57404   0.430   8.075   5.267  0.1973  0.2554  0.9665
18466SOL    HW157405   0.355   8.134   5.266 -0.4701 -0.4851  2.8210
18466SOL    HW257406   0.451   8.060   5.175 -2.7591 -0.5641  0.3384
18467SOL     OW57407   0.241   5.906   4.236 -0.2468 -0.2844 -0.4646
18467SOL    HW157408   0.241   5.816   4.267 -0.7016 -0.0884  0.1114
18467SOL    HW257409   0.149   5.928   4.225 -0.1296  0.0203 -0.8861
18468SOL     OW57410   3.070   9.380   7.168 -0.2418 -0.2390 -0.1452
18468SOL    HW157411   3.096   9.350   7.080 -0.1425  1.1099 -0.6027
18468SOL    HW257412   2.976   9.363   7.172 -0.6201  1.4103 -1.2655
18469SOL     OW57413   8.102   3.629   4.295  0.4810 -0.1877 -0.0663
18469SOL    HW157414   8.051   3.639   4.375 -1.2260  0.1357 -1.1449
18469SOL    HW257415   8.137   3.716   4.276 -0.0430 -0.0133 -0.2512
18470SOL     OW57416   3.012  10.459   4.737 -0.3876  0.5017  0.4949
18470SOL    HW157417   2.934  10.434   4.786 -0.1627 -1.6133 -0.1133
18470SOL    HW257418   2.991  10.544   4.699 -4.5487 -1.9619 -3.7749
18471SOL     OW57419   9.915   3.372  11.253  0.5421  0.2493  0.0174
18471SOL    HW157420   9.923   3.330  11.339 -2.9957  1.2561  1.0149
18471SOL    HW257421   9.932   3.465  11.270  3.3007  0.0448 -1.1691
18472SOL     OW57422   1.900   6.808  11.091 -0.5659 -0.4015  0.0435
18472SOL    HW157423   1.969   6.837  11.031 -0.3839 -2.5321 -0.8637
18472SOL    HW257424   1.919   6.855  11.173  2.6444 -1.6209  0.1672
18473SOL     OW57425   6.697   9.002   1.217 -0.5219 -0.2244  0.5759
18473SOL    HW157426   6.624   8.973   1.162 -1.1250  1.0973  0.6342
18473SOL    HW257427   6.772   8.951   1.186 -1.1850 -0.6327 -0.4089
18474SOL     OW57428   0.595   3.328   6.378  0.3522  0.0592 -0.7382
18474SOL    HW157429   0.502   3.308   6.377  0.3040  0.2084 -0.0722
18474SOL    HW257430   0.599   3.423   6.377  0.4604  0.0746  0.3011
18475SOL     OW57431  10.631   0.997   3.538 -0.4622 -0.4221 -0.1943
18475SOL    HW157432  10.607   0.971   3.627  0.6108 -0.6491  0.0461
18475SOL    HW257433  10.726   1.008   3.541 -0.4403 -0.1906 -1.2529
18476SOL     OW57434   0.782   6.410   1.966 -0.5951  0.7607 -0.2490
18476SOL    HW157435   0.726   6.342   1.928 -1.6924  1.7675 -0.5057
18476SOL    HW257436   0.809   6.374   2.050 -0.8931 -0.1208 -0.5167
18477SOL     OW57437  10.122  11.228   0.877 -0.0312  0.2296  0.0640
18477SOL    HW157438  10.092  11.306   0.924 -0.5268 -0.6673  1.3111
18477SOL    HW257439  10.059  11.160   0.903  0.2578 -0.5304 -1.1724
18478SOL     OW57440   3.633   1.494   4.358  0.1177 -0.3460  0.0329
18478SOL    HW157441   3.680   1.577   4.367  0.2731 -0.4875  0.5489
18478SOL    HW257442   3.688   1.441   4.300  1.5282 -1.1653  1.9880
18479SOL     OW57443   7.929   3.888   8.332  0.1344  0.2928  0.1818
18479SOL    HW157444   7.939   3.886   8.427  1.2344 -0.3130  0.0666
18479SOL    HW257445   7.835   3.880   8.318  0.0235 -0.4071  1.2029
18480SOL     OW57446   6.448   0.746   5.595 -0.5899  0.4648 -0.3189
18480SOL    HW157447   6.411   0.666   5.632 -1.3213  1.3992  1.0731
18480SOL    HW257448   6.373   0.805   5.586  0.3208  1.9359  1.2890
18481SOL     OW57449   4.078  10.343   5.361 -0.4396  0.5730  0.1189
18481SOL    HW157450   4.076  10.354   5.456  1.3511  1.1441  0.1351
18481SOL    HW257451   3.986  10.341   5.335 -1.0072  2.9006  1.6078
18482SOL     OW57452   6.262   7.424   0.057 -0.1709 -0.3551  0.0542
18482SOL    HW157453   6.224   7.374  -0.015  2.9896 -2.1099 -0.5554
18482SOL    HW257454   6.232   7.379   0.136 -1.4337 -0.0906 -0.2620
18483SOL     OW57455   9.559   0.491   5.148 -0.2834 -0.1720  0.3012
18483SOL    HW157456   9.592   0.404   5.127  1.1815  0.1357  1.2040
18483SOL    HW257457   9.616   0.552   5.101 -0.6620  0.3384  0.4831
18484SOL     OW57458   3.877   4.210   1.622 -0.1416  0.0218  0.3279
18484SOL    HW157459   3.892   4.157   1.544 -0.1083 -0.1388  0.4430
18484SOL    HW257460   3.860   4.298   1.588 -0.6896 -0.1601  0.1074
18485SOL     OW57461   7.660   1.967  10.813  0.0948  0.5730 -0.0394
18485SOL    HW157462   7.618   1.881  10.804  2.0553 -0.2135 -3.0830
18485SOL    HW257463   7.705   1.963  10.898 -1.0332 -0.8074  0.5439
18486SOL     OW57464   5.372   3.205   7.601 -0.2782  0.2083 -0.3483
18486SOL    HW157465   5.422   3.254   7.667 -1.7353  0.2541  0.7646
18486SOL    HW257466   5.391   3.113   7.621 -0.5680  0.2265  0.0119
18487SOL     OW57467  10.958   5.938   8.103  0.1681 -0.2287 -0.0104
18487SOL    HW157468  10.986   5.895   8.022  0.6811  0.5363 -0.2603
18487SOL    HW257469  10.922   6.022   8.074  1.2991  0.5018  0.6050
18488SOL     OW57470   1.055   2.590   5.777  0.0973 -0.1223 -0.2027
18488SOL    HW157471   1.089   2.534   5.707  0.2368 -2.8119  1.8797
18488SOL    HW257472   0.967   2.613   5.748  0.9106  0.7072 -2.2282
18489SOL     OW57473   0.735   8.745   9.310  0.2613 -0.3164  0.3322
18489SOL    HW157474   0.714   8.652   9.300 -0.6782  0.0255 -1.2586
18489SOL    HW257475   0.826   8.747   9.338 -0.4607 -1.7738  3.1844
18490SOL     OW57476   6.976   3.205  10.566  0.1996 -0.5568  0.9451
18490SOL    HW157477   6.895   3.183  10.520  0.1598  0.5036  0.4789
18490SOL    HW257478   7.035   3.236  10.497  0.0028  1.4557  1.6068
18491SOL     OW57479  11.249   9.077   0.517 -0.6493 -0.4256 -0.0298
18491SOL    HW157480  11.234   8.990   0.552 -0.9744  0.6635  2.7986
18491SOL    HW257481  11.323   9.111   0.566  0.1829  0.5406 -1.8372
18492SOL     OW57482   3.933   9.037   4.154  0.1724  0.8602 -0.2286
18492SOL    HW157483   3.846   9.068   4.126 -1.4340 -0.4933  2.8021
18492SOL    HW257484   3.953   9.089   4.232  0.7055 -0.7735  0.7757
18493SOL     OW57485   2.654   3.658   4.379 -0.1779  0.7976  0.3436
18493SOL    HW157486   2.695   3.604   4.312  0.2835  1.3115  0.2033
18493SOL    HW257487   2.607   3.726   4.330  0.1506  1.1684  0.5391
18494SOL     OW57488   3.265   3.258   6.012 -0.8098  0.3543  0.0749
18494SOL    HW157489   3.276   3.248   5.917 -1.6783 -2.7907  0.1783
18494SOL    HW257490   3.209   3.335   6.022 -3.2621 -0.9636 -2.2358
18495SOL     OW57491   6.633   9.332   8.202  0.1921  0.8493  0.1474
18495SOL    HW157492   6.711   9.313   8.254 -0.3889 -0.6312  0.5327
18495SOL    HW257493   6.560   9.304   8.257 -0.4021 -1.7393 -1.7555
18496SOL     OW57494   5.461   9.865   1.773 -0.1334  0.4216  0.5936
18496SOL    HW157495   5.381   9.832   1.815 -0.7012  1.2734  0.1995
18496SOL    HW257496   5.526   9.797   1.789 -1.5557 -1.4823 -1.1807
18497SOL     OW57497   8.069   6.580  11.195 -0.2227  0.1447 -0.5512
18497SOL    HW157498   8.080   6.496  11.150 -0.2342 -0.4108  0.4542
18497SOL    HW257499   8.025   6.558  11.277  0.5921  1.0176  0.1400
18498SOL     OW57500   7.813   2.402   1.173 -0.1124 -0.3486  0.1771
18498SOL    HW157501   7.746   2.368   1.113 -0.2602  1.3915 -0.6834
18498SOL    HW257502   7.825   2.493   1.147  1.3820 -0.1536  1.4286
18499SOL     OW57503   0.350  10.343   6.999  0.8323  0.0313  0.4217
18499SOL    HW157504   0.368  10.325   7.092  1.0185  0.3494  0.4482
18499SOL    HW257505   0.305  10.427   7.000  1.6089  0.4565  0.1561
18500SOL     OW57506   0.692   7.201   6.406 -0.8244  0.2599 -0.0530
18500SOL    HW157507   0.776   7.174   6.369 -0.0043  0.5393  1.5153
18500SOL    HW257508   0.646   7.119   6.425 -0.8300  0.1021 -0.7313
18501SOL     OW57509   0.710   0.563   7.110  0.3843 -0.0781 -0.2201
18501SOL    HW157510   0.738   0.647   7.074 -0.7663  0.1371 -0.6632
18501SOL    HW257511   0.709   0.576   7.205 -1.2894  0.9367 -0.3415
18502SOL     OW57512   4.818   8.326   8.636 -0.0754  0.0312 -0.2365
18502SOL    HW157513   4.817   8.407   8.585  0.9523  1.0117  1.1954
18502SOL    HW257514   4.756   8.341   8.707  2.3858  0.9520  1.8955
18503SOL     OW57515   8.224   3.455   6.738  0.2033  0.1991  0.0246
18503SOL    HW157516   8.218   3.509   6.658  0.5770 -1.7681 -1.4018
18503SOL    HW257517   8.308   3.480   6.777 -0.3054  1.6932  0.2214
18504SOL     OW57518   9.313   7.387   3.138 -0.0444  0.4477  0.1445
18504SOL    HW157519   9.300   7.311   3.196 -0.6355  2.2938  2.5953
18504SOL    HW257520   9.300   7.352   3.050 -2.1502 -1.9569  1.2611
18505SOL     OW57521  10.395   1.150   7.502 -0.4118 -0.6777 -0.6145
18505SOL    HW157522  10.351   1.110   7.577 -0.2311  1.5026  0.7438
18505SOL    HW257523  10.443   1.078   7.462 -2.7949 -2.5122 -0.3969
18506SOL     OW57524   8.554  10.830   9.458 -0.3688 -0.2594  0.2035
18506SOL    HW157525   8.555  10.911   9.407  1.4718  0.3411  1.1038
18506SOL    HW257526   8.474  10.834   9.510 -0.5666  0.7185 -0.1609
18507SOL     OW57527   6.750   4.926   0.430 -0.0441  0.5633 -0.9378
18507SOL    HW157528   6.813   4.986   0.470  0.9704 -0.2824 -1.2139
18507SOL    HW257529   6.795   4.842   0.428 -1.1898 -0.0703 -1.1570
18508SOL     OW57530  10.146   7.142   3.245  0.3273  0.6630 -0.2514
18508SOL    HW157531  10.222   7.102   3.201  0.4904  2.6583 -1.8978
18508SOL    HW257532  10.183   7.214   3.296 -0.0181 -0.8802  2.3689
18509SOL     OW57533   7.988   9.293  11.213  0.4564  0.3890  0.5697
18509SOL    HW157534   8.048   9.365  11.193  0.2828  0.8833  1.7373
18509SOL    HW257535   7.938   9.280  11.132 -0.5251  2.5841  0.7318
18510SOL     OW57536   8.341   3.396   4.050 -0.4867  0.1623 -0.3520
18510SOL    HW157537   8.254   3.427   4.024  0.2429  0.6875 -2.3669
18510SOL    HW257538   8.381   3.471   4.093 -1.0809 -0.1436  0.7619
18511SOL     OW57539   7.644   8.619  10.875 -0.2929 -0.1776 -0.2844
18511SOL    HW157540   7.674   8.537  10.915 -0.5105 -0.6051 -0.9634
18511SOL    HW257541   7.549   8.616  10.881 -0.2980  0.0547 -0.2499
18512SOL     OW57542  10.621   4.364   7.446 -0.3111 -0.6408  0.2283
18512SOL    HW157543  10.699   4.413   7.418 -0.9348  0.8633  1.0199
18512SOL    HW257544  10.653   4.274   7.456  1.6123  0.1177  1.5696
18513SOL     OW57545   1.295   6.618   6.365  0.4107 -0.1548 -0.3429
18513SOL    HW157546   1.298   6.528   6.397  1.6156 -0.4357 -1.1653
18513SOL    HW257547   1.257   6.610   6.277  2.1352 -0.1182 -1.1264
18514SOL     OW57548   0.179   3.883   9.130 -0.2968  0.1813 -0.1981
18514SOL    HW157549   0.267   3.912   9.106  0.6565 -1.3786  1.1992
18514SOL    HW257550   0.193   3.811   9.192 -2.5278 -1.5195 -1.5137
18515SOL     OW57551   5.749   4.069   8.099 -0.6332  0.1243 -0.5130
18515SOL    HW157552   5.677   4.018   8.060 -1.6573 -0.1739  1.5818
18515SOL    HW257553   5.824   4.010   8.097 -1.1015 -0.4849 -0.5525
18516SOL     OW57554   5.544   3.942   3.280  0.3383  1.0335 -0.2905
18516SOL    HW157555   5.530   3.997   3.203 -0.7456  1.8801  0.4706
18516SOL    HW257556   5.639   3.942   3.292  0.4968  1.1504 -1.4275
18517SOL     OW57557   4.257   4.022   1.900  0.1657 -0.4677 -0.1905
18517SOL    HW157558   4.302   4.046   1.981 -1.9348 -2.3375  1.6774
18517SOL    HW257559   4.317   3.963   1.855  1.0190 -0.0957  0.4316
18518SOL     OW57560   8.168   7.141   6.960 -0.3529 -0.3656  0.5046
18518SOL    HW157561   8.257   7.145   6.995  0.1077  1.4370 -0.7410
18518SOL    HW257562   8.143   7.049   6.968  1.9587 -1.0930  0.0638
18519SOL     OW57563   7.623  10.954   6.527  1.0103  0.8567  0.0159
18519SOL    HW157564   7.651  10.925   6.440  0.3793  0.6786 -0.1368
18519SOL    HW257565   7.551  10.895   6.550  3.3035 -1.2950  2.1474
18520SOL     OW57566   1.903   8.430   1.552  0.1977 -0.0264  0.2902
18520SOL    HW157567   1.965   8.408   1.482  0.2109  0.1582  0.2423
18520SOL    HW257568   1.945   8.504   1.598 -0.3686  0.6465 -0.2562
18521SOL     OW57569   1.483   8.878   4.842 -0.3451  0.0897  0.3816
18521SOL    HW157570   1.534   8.843   4.915 -2.0372  0.7039  1.9302
18521SOL    HW257571   1.491   8.811   4.773  1.2543 -0.5183  1.1034
18522SOL     OW57572   4.282   6.636   4.867 -0.6841 -0.1341  0.3526
18522SOL    HW157573   4.284   6.724   4.905  2.0145  0.1535 -0.1928
18522SOL    HW257574   4.328   6.581   4.931 -0.1431 -0.5914 -0.4088
18523SOL     OW57575  10.669   6.458   0.406 -0.3524  0.0343 -0.4385
18523SOL    HW157576  10.630   6.509   0.336  2.2357  0.7911 -1.4396
18523SOL    HW257577  10.643   6.367   0.388 -1.4952  0.4732 -1.0917
18524SOL     OW57578   1.957   2.500  10.224  0.2444 -0.1348 -0.5731
18524SOL    HW157579   2.038   2.463  10.259 -0.1310 -0.2892  0.1494
18524SOL    HW257580   1.954   2.471  10.133  0.6549 -0.7032 -0.4060
18525SOL     OW57581   8.472   3.605   1.490  0.0107 -0.4956 -0.4999
18525SOL    HW157582   8.526   3.593   1.412  2.9473  1.0716  1.0938
18525SOL    HW257583   8.435   3.693   1.480 -0.0694 -0.5125 -0.3544
18526SOL     OW57584   0.777   2.253  10.221 -0.3650  0.1284  0.2059
18526SOL    HW157585   0.744   2.226  10.307  0.3676  0.6976  0.6823
18526SOL    HW257586   0.866   2.217  10.218 -0.0270  0.9546  0.1138
18527SOL     OW57587  10.939   1.700   0.814  0.4784  0.1035  0.0683
18527SOL    HW157588  11.013   1.757   0.834  1.4212 -1.3019  0.7286
18527SOL    HW257589  10.949   1.625   0.872 -2.9413  1.0129  2.1440
18528SOL     OW57590   4.920  10.407   3.786  0.2297  0.3412  0.3301
18528SOL    HW157591   4.889  10.378   3.872 -0.6708  2.7336  0.8670
18528SOL    HW257592   4.887  10.340   3.725  1.9361 -2.1013  1.8764
18529SOL     OW57593   6.330   0.690   1.654 -0.0288  0.5060  0.0814
18529SOL    HW157594   6.243   0.676   1.617 -0.0785  0.1345  0.3336
18529SOL    HW257595   6.366   0.601   1.665 -0.2639  0.5615  1.5124
18530SOL     OW57596   5.781   2.426   0.011 -0.1678 -0.5501 -0.5421
18530SOL    HW157597   5.786   2.520   0.025 -0.5590 -0.5053 -0.6714
18530SOL    HW257598   5.799   2.388   0.097  2.9369 -0.4832 -1.0631
18531SOL     OW57599  10.346   3.907   5.097  0.0288 -0.4758  0.0984
18531SOL    HW157600  10.441   3.915   5.097 -0.0875  2.7876  2.4163
18531SOL    HW257601  10.324   3.885   5.188 -1.4779  0.4122 -0.0203
18532SOL     OW57602   6.587   9.501   4.706  0.3080 -0.0773 -0.2080
18532SOL    HW157603   6.574   9.479   4.799 -2.4586  0.0990 -0.4493
18532SOL    HW257604   6.610   9.594   4.707 -0.4139  0.1108  0.3099
18533SOL     OW57605   9.858   1.072   3.980  0.3960  0.5632 -0.2866
18533SOL    HW157606   9.837   1.164   3.964  1.9962  1.1323  0.6694
18533SOL    HW257607   9.813   1.025   3.910 -1.5035  1.9297 -0.0703
18534SOL     OW57608  10.463   6.445   4.598 -0.4599 -0.8059 -0.2994
18534SOL    HW157609  10.419   6.529   4.608  1.0095  0.4923 -3.2298
18534SOL    HW257610  10.422   6.388   4.662  0.3827  2.8125  3.9202
18535SOL     OW57611   5.338   2.373   0.183 -0.2071  0.1259 -0.0498
18535SOL    HW157612   5.256   2.401   0.142 -0.7913  0.6488  1.3942
18535SOL    HW257613   5.390   2.453   0.190  0.1270 -0.0682 -0.3176
18536SOL     OW57614   9.356   9.006   4.775  0.3178 -0.2551  0.3444
18536SOL    HW157615   9.418   9.026   4.705  0.5244  0.2645  0.6691
18536SOL    HW257616   9.411   9.001   4.854  0.1410 -1.2053  0.4166
18537SOL     OW57617   6.777   3.643  10.402 -0.2170 -0.7878 -0.0975
18537SOL    HW157618   6.782   3.576  10.470 -1.4555 -0.6898  0.1193
18537SOL    HW257619   6.712   3.610  10.340 -0.6694  0.0939 -0.1099
18538SOL     OW57620   4.919   0.123   7.760  0.3138 -0.0491  0.1562
18538SOL    HW157621   4.966   0.095   7.682  1.2719 -1.4642  1.2006
18538SOL    HW257622   4.968   0.085   7.833 -0.7766  0.9087  1.4353
18539SOL     OW57623   5.793   7.828   6.197 -0.2498 -0.5835 -0.2989
18539SOL    HW157624   5.826   7.887   6.265 -1.6015  0.6180 -0.6353
18539SOL    HW257625   5.872   7.788   6.160  0.6429  0.2972  0.5867
18540SOL     OW57626   3.351  10.662   3.023 -0.0235  0.4500 -0.2341
18540SOL    HW157627   3.338  10.616   2.941  0.7080 -0.4077  0.1207
18540SOL    HW257628   3.349  10.755   2.999  0.5619  0.2050 -1.2754
18541SOL     OW57629   1.931   2.194   3.730  0.6273 -0.3503  0.1287
18541SOL    HW157630   1.880   2.145   3.794 -0.3767 -1.4169 -1.4161
18541SOL    HW257631   2.001   2.134   3.704  1.1496  0.1493  0.3650
18542SOL     OW57632   1.689   4.393   1.091  0.1781 -0.2606  0.1160
18542SOL    HW157633   1.782   4.381   1.108  0.2014  1.9700  2.1403
18542SOL    HW257634   1.681   4.395   0.996  2.2983  0.1409 -0.0841
18543SOL     OW57635  11.222   8.677   6.362  0.6388  0.3327  0.3481
18543SOL    HW157636  11.254   8.685   6.272  0.1670  0.1046  0.1594
18543SOL    HW257637  11.301   8.655   6.413  0.9901  0.9252  0.0675
18544SOL     OW57638   9.862   1.271   3.399  0.2840 -0.2667 -0.4975
18544SOL    HW157639   9.896   1.184   3.423  1.7732  0.4564  0.1265
18544SOL    HW257640   9.890   1.328   3.471 -1.4003  0.5981 -0.4718
18545SOL     OW57641   9.274   8.282   3.469  0.3993  0.2911  0.3680
18545SOL    HW157642   9.185   8.286   3.504  0.2395  0.1856 -0.0215
18545SOL    HW257643   9.328   8.322   3.537 -0.0846  1.3959  0.1294
18546SOL     OW57644   6.294   8.969   7.579 -0.0576  1.1885  0.5078
18546SOL    HW157645   6.381   8.997   7.608  0.2626  0.5244  0.2085
18546SOL    HW257646   6.257   8.923   7.654  0.8743 -0.7601 -0.1641
18547SOL     OW57647   4.687  11.103   5.381 -0.3456  0.2815 -0.2667
18547SOL    HW157648   4.690  11.013   5.348  2.4872 -0.6722  2.1619
18547SOL    HW257649   4.598  11.113   5.415 -0.3039 -2.2005  0.7746
18548SOL     OW57650   0.513   2.256  11.207 -0.2947  0.5219 -0.3290
18548SOL    HW157651   0.535   2.185  11.268  0.8954  1.2065  0.0715
18548SOL    HW257652   0.529   2.336  11.257  0.2381  1.0885 -1.3850
18549SOL     OW57653   8.848   9.214  10.489 -0.4102 -0.4004  0.4668
18549SOL    HW157654   8.824   9.128  10.455 -3.0267  0.5472 -0.2894
18549SOL    HW257655   8.829   9.275  10.418  3.4598  0.7124  0.1562
18550SOL     OW57656  10.738   7.315   7.926 -0.3843 -0.1207  0.6196
18550SOL    HW157657  10.758   7.407   7.946  0.7967 -0.4094  0.8509
18550SOL    HW257658  10.688   7.284   8.002 -0.2877  0.1703  0.8045
18551SOL     OW57659   5.325   2.188   7.625 -0.8121  0.2308 -0.0936
18551SOL    HW157660   5.361   2.125   7.562 -0.9095  1.1288 -1.0788
18551SOL    HW257661   5.313   2.268   7.574 -2.3760  0.5235  0.6920
18552SOL     OW57662   9.107   5.296  10.935  0.0572  0.9017 -0.2599
18552SOL    HW157663   9.105   5.227  10.869  1.7713  0.4280  0.1066
18552SOL    HW257664   9.129   5.375  10.887 -1.0305  1.0334 -0.5600
18553SOL     OW57665   2.255   3.447   0.053  0.1915 -0.4127 -0.9203
18553SOL    HW157666   2.174   3.457   0.003 -0.4399  1.4038  0.3260
18553SOL    HW257667   2.230   3.393   0.128 -0.8381  2.7202  1.1879
18554SOL     OW57668   3.078   9.646   6.560 -0.4796 -0.3212  0.7269
18554SOL    HW157669   3.141   9.631   6.630 -0.9017 -0.3830  1.0997
18554SOL    HW257670   2.992   9.635   6.602 -0.7464  0.2192  0.3368
18555SOL     OW57671   1.001   4.975   1.715  0.2088  1.0026  0.0739
18555SOL    HW157672   1.034   4.988   1.804 -1.2354  5.1990  0.2347
18555SOL    HW257673   0.906   4.968   1.725  0.0964  0.6915 -1.0634
18556SOL     OW57674   1.933   3.696   3.316 -0.4778 -0.1607  0.3426
18556SOL    HW157675   1.839   3.715   3.320 -0.6024 -0.2753 -1.3648
18556SOL    HW257676   1.960   3.691   3.407 -1.0937  4.8753  1.1218
18557SOL     OW57677   6.081   1.616   1.054 -0.1403 -0.2917 -0.2042
18557SOL    HW157678   6.012   1.666   1.098 -0.4295 -2.0436  1.5295
18557SOL    HW257679   6.161   1.664   1.073 -0.7437  1.2509 -1.4155
18558SOL     OW57680   2.903   5.482   6.354  0.3734  0.3761 -0.2474
18558SOL    HW157681   2.847   5.405   6.358 -1.8385  1.9104 -0.1968
18558SOL    HW257682   2.986   5.450   6.318  0.3173 -2.4129  1.8079
18559SOL     OW57683   9.604   8.538   9.131 -0.1723 -0.2730  0.2125
18559SOL    HW157684   9.518   8.502   9.151 -0.2656 -0.1039  0.1201
18559SOL    HW257685   9.588   8.631   9.113  0.0884 -0.1384  0.6399
18560SOL     OW57686   9.739   0.952   3.748 -0.2411 -0.3410 -0.2622
18560SOL    HW157687   9.649   0.921   3.734  0.2184 -1.0706 -1.8032
18560SOL    HW257688   9.730   1.046   3.761 -1.3434 -0.5900  0.9778
18561SOL     OW57689   3.108   6.152   9.688  0.4170 -0.9837 -0.4011
18561SOL    HW157690   3.121   6.186   9.600  0.1811 -1.3305 -0.5757
18561SOL    HW257691   3.066   6.067   9.675  0.9088 -1.3004  0.0218
18562SOL     OW57692   6.111   2.888  10.240 -0.4984 -0.9614 -0.1379
18562SOL    HW157693   6.097   2.958  10.303  1.2454 -0.8164  0.1543
18562SOL    HW257694   6.159   2.821  10.289  0.3999 -1.0816 -1.1311
18563SOL     OW57695   4.152   2.795   9.258  0.5990 -0.0248 -0.1126
18563SOL    HW157696   4.057   2.791   9.252  0.6081 -0.6156  0.0999
18563SOL    HW257697   4.171   2.882   9.292  0.0913 -0.2036  0.6440
18564SOL     OW57698   9.883   5.682   1.616 -0.1661  0.5642  0.0133
18564SOL    HW157699   9.931   5.763   1.595 -1.7058  1.3132 -0.7555
18564SOL    HW257700   9.794   5.712   1.633  0.0007 -0.4728  3.6688
18565SOL     OW57701   2.444   3.094   6.324 -0.6728 -0.1769  0.1202
18565SOL    HW157702   2.402   3.114   6.240  1.5425 -1.1290 -1.3091
18565SOL    HW257703   2.473   3.003   6.315  2.9796  0.8164  0.3165
18566SOL     OW57704   3.386   7.829   3.571  0.7958 -0.3478  0.1975
18566SOL    HW157705   3.438   7.790   3.642  0.3419  0.7938  1.1985
18566SOL    HW257706   3.450   7.871   3.514  1.0588  0.0606  0.7873
18567SOL     OW57707   1.017   5.888  10.840  0.1299  0.6729 -0.8909
18567SOL    HW157708   0.926   5.878  10.813 -0.0047 -0.6795 -0.0573
18567SOL    HW257709   1.012   5.927  10.927  0.0182 -3.2335  1.0916
18568SOL     OW57710   5.626   9.261   6.670 -0.3183  0.7841  0.2623
18568SOL    HW157711   5.657   9.212   6.746 -1.2965  0.1816  0.3009
18568SOL    HW257712   5.557   9.317   6.705 -0.2635  1.0505 -0.0545
18569SOL     OW57713   6.965   8.639   5.306  0.1531 -0.5698 -0.3768
18569SOL    HW157714   6.923   8.595   5.380 -0.6538  0.6269 -0.0970
18569SOL    HW257715   7.031   8.696   5.346  0.6268 -0.8910 -0.6811
18570SOL     OW57716   3.301   7.605   1.533  0.4332 -0.0489 -0.2298
18570SOL    HW157717   3.253   7.624   1.613  0.4204  0.1490 -0.2841
18570SOL    HW257718   3.285   7.680   1.476 -1.0624 -1.0156 -1.1448
18571SOL     OW57719   8.151   9.077   2.106 -0.0264 -0.4662  0.6239
18571SOL    HW157720   8.057   9.078   2.086  0.2602 -0.8999 -0.8629
18571SOL    HW257721   8.155   9.087   2.201 -1.5876 -0.6132  0.7370
18572SOL     OW57722   8.763   2.636   3.325 -0.4085 -0.7511 -0.8957
18572SOL    HW157723   8.789   2.668   3.238  0.4801 -0.0001 -0.3817
18572SOL    HW257724   8.833   2.576   3.350 -1.0068 -1.4918 -0.9666
18573SOL     OW57725   7.736   0.787   0.708 -0.1105 -1.1776  0.5463
18573SOL    HW157726   7.738   0.705   0.659 -1.9465 -0.1166 -1.4671
18573SOL    HW257727   7.660   0.834   0.673  1.8249  2.1235  0.3975
18574SOL     OW57728   5.861   8.310   2.183 -0.4171  0.1587 -0.8371
18574SOL    HW157729   5.894   8.304   2.272  1.5461 -0.9596 -1.5742
18574SOL    HW257730   5.788   8.247   2.181 -0.9850  0.7592  0.1484
18575SOL     OW57731  11.170   4.046   1.112  0.8019  0.3853 -0.1789
18575SOL    HW157732  11.185   4.098   1.191  0.6546 -0.1959  0.2362
18575SOL    HW257733  11.130   3.965   1.143 -0.6881  0.7693 -0.9889
18576SOL     OW57734  11.256   9.263   1.218  0.6146 -0.1545 -0.2752
18576SOL    HW157735  11.199   9.317   1.164  1.2723 -0.2439 -1.0676
18576SOL    HW257736  11.310   9.215   1.156  0.6992 -1.0151  0.4386
18577SOL     OW57737   0.512   3.656   2.427  0.3035  0.3387  0.1698
18577SOL    HW157738   0.548   3.567   2.432 -0.1975 -0.1570 -2.8400
18577SOL    HW257739   0.440   3.656   2.490  0.9271 -1.0443  0.9401
18578SOL     OW57740   8.102   8.771   3.967 -0.1422 -0.1723  0.4833
18578SOL    HW157741   8.046   8.814   3.901 -0.5378  0.7233  1.3763
18578SOL    HW257742   8.143   8.843   4.014  2.4083 -0.7947 -0.6313
18579SOL     OW57743   0.408   8.951   2.924  0.4281 -0.6221 -0.0175
18579SOL    HW157744   0.417   8.962   2.830  1.0436 -2.6298 -0.2430
18579SOL    HW257745   0.444   9.032   2.961 -1.3223  0.9011 -1.4925
18580SOL     OW57746   3.019   2.848   4.485 -0.3566  0.5210  0.2967
18580SOL    HW157747   2.982   2.824   4.400  1.5106  0.8085 -0.6550
18580SOL    HW257748   3.103   2.803   4.488 -0.7929 -0.2831  2.4634
18581SOL     OW57749   3.397   7.351   8.352  0.1559 -0.4587  1.0203
18581SOL    HW157750   3.390   7.438   8.391  1.2208  0.9038 -1.6240
18581SOL    HW257751   3.487   7.324   8.368 -0.0738 -0.9812  1.5192
18582SOL     OW57752   8.112   9.013   9.552 -0.3545 -0.1051 -0.0673
18582SOL    HW157753   8.159   9.095   9.541 -2.0805  1.0580  0.8191
18582SOL    HW257754   8.059   9.026   9.630 -0.4621 -2.1932  0.2710
18583SOL     OW57755   2.552   6.854   0.725 -0.9219  0.1824  0.0176
18583SOL    HW157756   2.632   6.804   0.711 -0.4998  0.6231  0.7900
18583SOL    HW257757   2.515   6.820   0.806 -1.3033  0.2570 -0.1211
18584SOL     OW57758   7.778  10.717   4.409 -0.2093  0.0766 -0.0958
18584SOL    HW157759   7.683  10.723   4.411 -0.5159 -2.7266 -1.3168
18584SOL    HW257760   7.807  10.767   4.485 -2.4806  2.7280 -0.8024
18585SOL     OW57761   5.560   4.566   9.350 -0.5430  0.5078 -0.0992
18585SOL    HW157762   5.573   4.602   9.263  0.1251 -0.3322 -0.3560
18585SOL    HW257763   5.466   4.546   9.354 -0.8509  1.8583 -0.0935
18586SOL     OW57764  10.544   2.048   9.620  0.9345  0.5150  0.1477
18586SOL    HW157765  10.498   2.038   9.537  2.6388 -0.3034 -0.7587
18586SOL    HW257766  10.502   2.122   9.662  0.0952  1.0224 -1.5011
18587SOL     OW57767   0.398   0.865   4.427 -0.1084  0.0129 -0.2940
18587SOL    HW157768   0.475   0.814   4.402 -1.1616 -1.5604 -0.5047
18587SOL    HW257769   0.429   0.922   4.498  1.2653 -0.4996 -0.4514
18588SOL     OW57770   9.348   9.594   5.411  0.7520  0.1623 -0.0619
18588SOL    HW157771   9.293   9.631   5.342 -0.4568 -0.4954  0.5151
18588SOL    HW257772   9.347   9.499   5.395  0.0693 -0.0507  1.0988
18589SOL     OW57773   3.437   0.687   7.945 -0.2183  0.5475  0.1778
18589SOL    HW157774   3.366   0.735   7.903 -0.9693 -0.4486  0.2799
18589SOL    HW257775   3.517   0.726   7.909 -0.8014  1.9357  0.3536
18590SOL     OW57776   4.093   4.869   4.511 -0.5041 -0.0486  0.3694
18590SOL    HW157777   4.082   4.851   4.604 -0.7102 -1.7935  0.0362
18590SOL    HW257778   4.060   4.791   4.467 -0.0480  0.5794 -1.1641
18591SOL     OW57779  10.519  10.495   1.086 -0.0952  0.5403  0.1596
18591SOL    HW157780  10.439  10.545   1.101 -1.6744 -0.3617 -3.9849
18591SOL    HW257781  10.580  10.559   1.049 -0.1582  0.5170  0.0157
18592SOL     OW57782   3.783   4.036   9.832  0.3553  0.7416 -0.1245
18592SOL    HW157783   3.849   3.967   9.827  1.1344  1.5093 -0.8062
18592SOL    HW257784   3.700   3.989   9.842  0.8796 -0.2813 -0.4273
18593SOL     OW57785   9.759   7.461   0.441  0.2826  0.1675  0.1965
18593SOL    HW157786   9.768   7.524   0.513  4.2815  1.9090 -1.5888
18593SOL    HW257787   9.690   7.498   0.386 -0.8346  0.2930  1.5968
18594SOL     OW57788   1.881   3.855  10.927 -0.0023 -0.5308  0.3969
18594SOL    HW157789   1.868   3.928  10.988  0.4810  0.8891 -1.1055
18594SOL    HW257790   1.921   3.786  10.979 -0.9000  0.0820  1.9861
18595SOL     OW57791   1.135   0.592  10.538 -0.5045  0.2957 -0.3775
18595SOL    HW157792   1.228   0.612  10.525 -0.7881  1.2768 -0.9136
18595SOL    HW257793   1.089   0.642  10.471 -1.5977  1.5360  1.2283
18596SOL     OW57794   7.791   0.601  10.941  0.0049  0.4522 -0.0063
18596SOL    HW157795   7.823   0.660  10.873  1.2568 -1.2368 -0.9851
18596SOL    HW257796   7.827   0.636  11.023  1.6251  0.4838 -0.6976
18597SOL     OW57797   6.991   2.698   2.588 -0.7108  0.0735 -1.0905
18597SOL    HW157798   6.934   2.753   2.533 -0.4010  1.5373  0.0011
18597SOL    HW257799   6.930   2.656   2.649 -0.9390 -0.7252 -1.8574
18598SOL     OW57800   8.101   4.586  10.939  0.0141 -0.1121  0.0888
18598SOL    HW157801   8.175   4.643  10.958  0.0592  0.5851 -1.9314
18598SOL    HW257802   8.047   4.589  11.018  0.4834  1.9962  0.3931
18599SOL     OW57803   0.965   7.314   0.046  0.7701  1.0763  0.3485
18599SOL    HW157804   0.922   7.280   0.125  0.3052 -0.0511 -0.3758
18599SOL    HW257805   0.976   7.238  -0.010  0.1268  2.0393 -1.1328
18600SOL     OW57806   8.416   4.118   8.940  0.4615  0.8256 -0.4685
18600SOL    HW157807   8.360   4.151   8.870 -0.3111  1.1977  0.3107
18600SOL    HW257808   8.467   4.194   8.968 -1.3211  1.4328  1.3288
18601SOL     OW57809   9.130   5.587   5.828  0.3218  0.3998 -0.4438
18601SOL    HW157810   9.136   5.493   5.815  1.3976  0.2549  0.8363
18601SOL    HW257811   9.114   5.623   5.740 -0.0392 -0.9485 -0.9506
18602SOL     OW57812   7.119   7.963   1.022  0.0273 -0.2072 -0.7278
18602SOL    HW157813   7.183   7.924   1.081 -1.0232 -1.2027 -0.2141
18602SOL    HW257814   7.106   7.897   0.953 -0.8179 -0.2374 -0.5496
18603SOL     OW57815   3.451   1.006   5.418 -0.3634  0.2127 -0.1389
18603SOL    HW157816   3.432   0.997   5.511 -1.4204 -1.0758 -0.4496
18603SOL    HW257817   3.366   0.996   5.375  0.1643  0.3999 -1.2571
18604SOL     OW57818   3.740   4.873   3.796  0.2003  0.2209  0.4605
18604SOL    HW157819   3.818   4.866   3.851 -0.1942 -1.7333  0.8535
18604SOL    HW257820   3.697   4.954   3.824  0.2276 -0.5002  2.7852
18605SOL     OW57821   7.002   4.174   6.621  0.0695 -0.2746 -0.0173
18605SOL    HW157822   6.994   4.168   6.716  2.3374  0.0969  0.2565
18605SOL    HW257823   6.914   4.153   6.588 -1.0208  0.5258  2.1701
18606SOL     OW57824   3.718  10.892   7.708 -0.4726 -0.5646  0.3810
18606SOL    HW157825   3.767  10.970   7.683  0.1804 -0.9738  0.3759
18606SOL    HW257826   3.772  10.819   7.678 -1.1303 -1.0185  0.2870
18607SOL     OW57827   8.472   3.169   2.581  0.0954  0.1603 -0.0710
18607SOL    HW157828   8.422   3.243   2.615 -0.2493 -0.2049  0.2206
18607SOL    HW257829   8.416   3.132   2.513 -0.4703 -0.8248  0.8964
18608SOL     OW57830   1.725   6.953   5.056  0.2837 -0.3055  0.5055
18608SOL    HW157831   1.782   6.985   5.126 -0.1562  2.2716 -0.2094
18608SOL    HW257832   1.718   7.027   4.995 -1.8705 -1.3753 -0.6655
18609SOL     OW57833   5.598   6.116  10.601  0.3527 -0.0389 -0.1620
18609SOL    HW157834   5.515   6.160  10.583  0.2764  0.2900  0.9389
18609SOL    HW257835   5.650   6.128  10.521 -0.9429 -0.9582 -1.1868
18610SOL     OW57836   1.888   2.204   8.575  0.1628 -0.3032  0.8076
18610SOL    HW157837   1.920   2.283   8.532 -0.3474 -0.5569 -0.0681
18610SOL    HW257838   1.917   2.132   8.519 -1.3537 -0.5795  0.3126
18611SOL     OW57839   0.063   4.872   4.597 -0.0108 -0.2546  0.5280
18611SOL    HW157840   0.138   4.923   4.627 -1.4401  2.7126 -0.5403
18611SOL    HW257841   0.093   4.830   4.516  0.3227  1.6069 -0.3698
18612SOL     OW57842   7.892   4.231   7.117  0.1085 -0.1494 -0.2806
18612SOL    HW157843   7.869   4.308   7.168  1.9527 -0.5940  1.3303
18612SOL    HW257844   7.936   4.173   7.179  0.8841 -1.4790 -1.9876
18613SOL     OW57845   6.284   7.680   5.022  0.0868  0.5621  0.3174
18613SOL    HW157846   6.365   7.672   5.071  0.3630  1.9649  0.1376
18613SOL    HW257847   6.217   7.696   5.088 -0.4181 -2.3816  0.6495
18614SOL     OW57848   7.479   0.380   9.655 -0.0189  0.7302 -0.1376
18614SOL    HW157849   7.434   0.330   9.724 -1.3173  1.9699 -0.0335
18614SOL    HW257850   7.409   0.409   9.596  0.9285  0.7670 -1.2786
18615SOL     OW57851   8.061   0.271   4.188  0.5973  0.4641 -0.5462
18615SOL    HW157852   7.965   0.271   4.185  0.2982 -0.9425  3.0921
18615SOL    HW257853   8.087   0.343   4.131 -2.5914  0.8155 -1.7646
18616SOL     OW57854   9.398   7.818   1.619  0.7500  0.2780 -0.0920
18616SOL    HW157855   9.333   7.866   1.669  1.0066 -0.6239  1.1478
18616SOL    HW257856   9.352   7.790   1.540 -0.2658 -0.0240  0.5910
18617SOL     OW57857   8.132  10.905   0.218 -0.1587 -0.1391  0.1495
18617SOL    HW157858   8.105  10.856   0.140  0.0009 -0.3525  0.2276
18617SOL    HW257859   8.089  10.859   0.290 -0.8968  0.4950  0.1207
18618SOL     OW57860  10.957   8.832   2.196  0.0238 -0.3714  0.1855
18618SOL    HW157861  10.876   8.836   2.146 -0.8091 -1.4437  1.3906
18618SOL    HW257862  11.015   8.777   2.144  0.3823  1.2291 -1.1810
18619SOL     OW57863   6.461  10.616   4.775 -0.0982  0.9051  0.0222
18619SOL    HW157864   6.532  10.588   4.717 -1.8284 -0.9348 -1.2968
18619SOL    HW257865   6.404  10.670   4.719 -1.7264 -0.7929 -0.0371
18620SOL     OW57866   1.791   5.289   0.500  0.4911 -0.2249 -0.3153
18620SOL    HW157867   1.865   5.333   0.542 -0.4826  1.4757 -0.2986
18620SOL    HW257868   1.802   5.307   0.407  0.7360 -1.0005 -0.4425
18621SOL     OW57869   9.155  11.259   4.921  0.0035  0.1843 -0.0453
18621SOL    HW157870   9.111  11.205   4.855 -1.1683 -1.9338  2.2707
18621SOL    HW257871   9.247  11.231   4.917 -0.2552 -0.7011 -0.0865
18622SOL     OW57872   4.869   5.627   3.889 -0.2770 -0.1511 -0.0434
18622SOL    HW157873   4.813   5.583   3.825 -0.8313 -0.2011  0.4652
18622SOL    HW257874   4.816   5.700   3.920  0.2919  0.3433 -0.2184
18623SOL     OW57875  10.664   1.482   1.690  0.2797 -0.6463  0.1317
18623SOL    HW157876  10.581   1.445   1.718  0.1006 -0.1612  0.2612
18623SOL    HW257877  10.719   1.407   1.670 -0.7968 -1.0047 -1.7864
18624SOL     OW57878   8.755   9.123   5.341  0.0756  0.5233  0.3248
18624SOL    HW157879   8.842   9.099   5.311  0.9301  2.6509  0.9149
18624SOL    HW257880   8.726   9.048   5.393  1.6157 -0.1665  0.2434
18625SOL     OW57881   7.381   4.376   4.297 -0.5276  0.3189 -0.0733
18625SOL    HW157882   7.430   4.453   4.269 -1.5320  1.6153  1.5473
18625SOL    HW257883   7.336   4.404   4.377 -2.3093 -1.4048 -0.3909
18626SOL     OW57884   0.171   5.282   4.673  0.6026  0.0996  0.1979
18626SOL    HW157885   0.138   5.370   4.658  1.4311  0.9152  2.6169
18626SOL    HW257886   0.263   5.286   4.647  0.2442 -0.5973 -1.3088
18627SOL     OW57887   3.405   1.492   9.655 -0.1383 -0.1685  0.6665
18627SOL    HW157888   3.397   1.400   9.681 -0.6417 -0.3773 -0.2059
18627SOL    HW257889   3.359   1.540   9.724  0.9320 -0.4744  1.6335
18628SOL     OW57890   4.475   9.553   8.806  0.1037  0.1399  0.2809
18628SOL    HW157891   4.533   9.619   8.844  0.3321 -1.2379  2.5217
18628SOL    HW257892   4.462   9.489   8.877 -3.3145 -0.1515 -0.4249
18629SOL     OW57893   6.282   9.638   0.380 -0.0415 -0.5350 -0.0014
18629SOL    HW157894   6.325   9.606   0.459  0.0082 -4.0085 -1.2606
18629SOL    HW257895   6.352   9.642   0.315  0.1757  3.4533  0.2178
18630SOL     OW57896   1.958   8.390   9.425  0.1706  0.6916 -0.0336
18630SOL    HW157897   1.950   8.468   9.480 -0.1462  1.9174 -1.7577
18630SOL    HW257898   1.873   8.381   9.382 -0.5075 -1.8070  1.5687
18631SOL     OW57899   7.311   0.407   4.069  0.8379 -0.6247 -0.4814
18631SOL    HW157900   7.327   0.388   3.977 -1.2369  2.3217 -1.6098
18631SOL    HW257901   7.216   0.413   4.077  0.9563 -0.8631  1.8837
18632SOL     OW57902   2.033   3.865   5.583  0.1754  0.2917 -0.2322
18632SOL    HW157903   2.069   3.819   5.658 -0.2089  0.0506 -0.1937
18632SOL    HW257904   2.055   3.810   5.508  0.4182  0.4515 -0.2811
18633SOL     OW57905   3.400   0.136   3.304  0.0983  0.4582  0.1254
18633SOL    HW157906   3.422   0.043   3.306  2.9628  1.0506  2.6161
18633SOL    HW257907   3.307   0.139   3.326 -0.4136 -1.8025 -1.3659
18634SOL     OW57908   9.546  10.872   2.178  0.4935 -0.4184  0.3444
18634SOL    HW157909   9.570  10.816   2.104 -1.1229  0.1369 -0.6356
18634SOL    HW257910   9.568  10.819   2.255  1.8209 -1.1732 -0.4974
18635SOL     OW57911   9.134   0.747  10.976  0.4465 -0.3889  0.8663
18635SOL    HW157912   9.118   0.794  11.058  0.0118  0.0246  0.5469
18635SOL    HW257913   9.092   0.800  10.909 -0.0737 -1.2423  0.4973
18636SOL     OW57914   3.646   4.289   1.834  0.5527 -0.1312  0.2531
18636SOL    HW157915   3.710   4.332   1.775  1.7776 -3.0795 -0.7447
18636SOL    HW257916   3.688   4.207   1.860 -1.7008 -0.8542  1.9499
18637SOL     OW57917   0.527   3.386   3.188 -0.3210  0.2920  0.3061
18637SOL    HW157918   0.550   3.474   3.161 -1.2842  0.8895  1.3273
18637SOL    HW257919   0.611   3.339   3.192  0.0936  0.8469 -1.2286
18638SOL     OW57920   9.328   7.233  11.161  0.0977  0.2443  0.7718
18638SOL    HW157921   9.403   7.220  11.219  1.5607  1.7862 -0.6666
18638SOL    HW257922   9.361   7.289  11.091 -1.7631 -0.9888 -1.2210
18639SOL     OW57923   9.012   1.590   7.127 -0.3751  0.4731  0.2031
18639SOL    HW157924   9.090   1.583   7.071  1.0514 -1.1762  2.2622
18639SOL    HW257925   8.940   1.562   7.071  0.6109  1.1207 -1.4813
18640SOL     OW57926   5.586   3.844  10.904  0.4525 -0.1140  0.2650
18640SOL    HW157927   5.535   3.909  10.952  1.6271  1.0764 -0.0367
18640SOL    HW257928   5.602   3.775  10.968  3.1083  2.0246  2.1415
18641SOL     OW57929   6.253   9.198  10.049 -0.2575 -0.4586 -0.6709
18641SOL    HW157930   6.312   9.129  10.079  0.3562  0.3733  0.1078
18641SOL    HW257931   6.171   9.182  10.094 -0.9063 -2.0566 -2.3147
18642SOL     OW57932   4.564   1.251   7.612 -0.4809 -0.7485 -0.2914
18642SOL    HW157933   4.656   1.266   7.590  0.4750 -1.6003  2.6778
18642SOL    HW257934   4.537   1.331   7.658 -0.2778 -1.6204  1.4106
18643SOL     OW57935   3.102  10.431   1.893  0.2606  0.5121  0.5170
18643SOL    HW157936   3.177  10.372   1.903  0.6048  0.3997 -2.0054
18643SOL    HW257937   3.036  10.396   1.953  0.8202 -1.8577 -0.1281
18644SOL     OW57938   7.299   4.283   0.093 -0.0655 -0.6404  0.0505
18644SOL    HW157939   7.371   4.225   0.115 -0.3868 -1.0114  0.1352
18644SOL    HW257940   7.331   4.335   0.020 -0.2906 -1.9497 -1.0162
18645SOL     OW57941   0.507   4.589   7.593 -0.1388 -0.6526  0.1852
18645SOL    HW157942   0.594   4.551   7.596 -0.1868 -0.7157  1.2580
18645SOL    HW257943   0.506   4.641   7.512  0.6604 -1.1738 -0.1691
18646SOL     OW57944   0.099   8.945   1.717 -0.1077  0.3015 -0.0181
18646SOL    HW157945   0.141   8.861   1.736 -0.1238 -0.0852 -1.5270
18646SOL    HW257946   0.047   8.964   1.794 -0.2314 -1.1622  0.2959
18647SOL     OW57947  10.531   6.748   1.509  0.2800  0.2896  0.0880
18647SOL    HW157948  10.486   6.670   1.541 -1.8626  1.2961 -0.3160
18647SOL    HW257949  10.482   6.821   1.547  2.0187  1.4691  0.1739
18648SOL     OW57950   6.595   8.958   8.308  0.2401 -0.2759 -0.7585
18648SOL    HW157951   6.670   9.012   8.282 -0.3393 -1.0877 -4.7497
18648SOL    HW257952   6.632   8.869   8.317  0.4172 -0.0221  1.4848
18649SOL     OW57953   2.853   0.227   8.434  0.0996 -0.6157 -0.2280
18649SOL    HW157954   2.818   0.184   8.355  0.0343  2.4529 -2.0389
18649SOL    HW257955   2.775   0.258   8.481  0.1874 -0.0022 -0.4761
18650SOL     OW57956   5.215  10.403   9.203 -0.1794  0.3920  0.2680
18650SOL    HW157957   5.261  10.414   9.120  2.1614 -0.9239  1.2813
18650SOL    HW257958   5.206  10.491   9.239 -1.1643  0.9623 -1.3091
18651SOL     OW57959   7.461   1.216   6.073 -0.0012 -0.3588 -0.7151
18651SOL    HW157960   7.484   1.305   6.098 -0.6903 -0.3261 -0.1644
18651SOL    HW257961   7.405   1.185   6.144  1.5980 -1.8442 -0.0302
18652SOL     OW57962   6.062   6.086   0.096  0.9367 -0.2739 -0.3070
18652SOL    HW157963   6.064   6.177   0.066  0.9471  0.1181  0.8299
18652SOL    HW257964   6.046   6.034   0.017 -1.3475  0.8637 -0.6703
18653SOL     OW57965  10.583   3.037   6.882 -0.7597  0.2588 -0.0508
18653SOL    HW157966  10.505   2.983   6.876 -0.6080 -0.0324  0.4901
18653SOL    HW257967  10.645   2.984   6.933  0.4888 -0.3273 -2.0819
18654SOL     OW57968   2.142   2.748  11.095  0.2124  0.2503 -0.7214
18654SOL    HW157969   2.123   2.837  11.067 -0.5521 -0.2092 -1.6906
18654SOL    HW257970   2.060   2.700  11.085  0.8783 -0.8340 -1.2665
18655SOL     OW57971   3.413   0.685   1.597 -0.2447 -0.0496  0.3456
18655SOL    HW157972   3.445   0.597   1.576  2.2638  0.8986 -0.2590
18655SOL    HW257973   3.467   0.712   1.672 -0.2086  1.3473 -0.1555
18656SOL     OW57974   7.625   1.079   8.432  0.6096 -0.5517  0.0018
18656SOL    HW157975   7.601   0.994   8.469  0.0684 -0.5102 -0.2467
18656SOL    HW257976   7.583   1.143   8.489 -2.5798 -0.4968 -2.1296
18657SOL     OW57977   9.234   7.645   3.484  0.5599 -0.1191  0.3071
18657SOL    HW157978   9.225   7.699   3.563  0.1570 -0.8561  0.7739
18657SOL    HW257979   9.279   7.702   3.422 -0.6677  1.0891  0.4688
18658SOL     OW57980   5.812   5.350  11.085 -0.0775 -0.5902 -0.0551
18658SOL    HW157981   5.837   5.422  11.028 -0.6680 -0.6295 -0.3755
18658SOL    HW257982   5.891   5.329  11.134  0.9630 -1.7134 -2.0884
18659SOL     OW57983   5.870   0.833   0.073 -0.0730  0.0169  0.5690
18659SOL    HW157984   5.860   0.746   0.035 -1.2180 -2.0590  4.9684
18659SOL    HW257985   5.913   0.818   0.158  1.2065  3.9930  0.8317
18660SOL     OW57986   2.956  10.713   2.646 -0.4998  0.1025  0.0245
18660SOL    HW157987   2.871  10.756   2.648 -0.0345  1.1177 -0.7250
18660SOL    HW257988   3.003  10.758   2.575 -0.1290 -1.9400 -1.0952
18661SOL     OW57989   7.764   6.611   1.228 -0.0642  0.6778 -0.1662
18661SOL    HW157990   7.698   6.674   1.256  0.2735  0.8471  0.2547
18661SOL    HW257991   7.802   6.649   1.148 -1.5149 -0.1407 -1.2864
18662SOL     OW57992   0.280   3.675   1.046 -0.1332 -0.1383 -0.5716
18662SOL    HW157993   0.201   3.695   0.996 -0.8673 -0.8029  0.2809
18662SOL    HW257994   0.349   3.727   1.005 -0.7999 -0.3338 -1.9775
18663SOL     OW57995   8.670  10.690  11.112  0.1303  0.4378  0.2061
18663SOL    HW157996   8.637  10.629  11.178 -0.4991  0.0516 -0.4611
18663SOL    HW257997   8.760  10.709  11.141  1.7048 -3.4826 -1.3356
18664SOL     OW57998   4.756   3.374   0.133 -0.4547  0.1434 -0.3621
18664SOL    HW157999   4.744   3.469   0.143  2.1190  0.5297 -0.3865
18664SOL    HW258000   4.701   3.350   0.058 -0.7847  1.6740 -0.6357
18665SOL     OW58001   2.497   3.148   3.951  0.0637 -0.4251  0.4925
18665SOL    HW158002   2.464   3.112   4.034  1.6262 -1.6785  0.6221
18665SOL    HW258003   2.577   3.097   3.933  1.5337  1.9748 -0.1488
18666SOL     OW58004   3.258   9.986   2.284 -0.2069 -0.8096 -0.5326
18666SOL    HW158005   3.294  10.024   2.204 -0.6875  0.0769 -0.3348
18666SOL    HW258006   3.173  10.027   2.294 -0.1395 -0.8875  0.4575
18667SOL     OW58007   7.035   2.492   0.278 -0.0964  0.1606  0.6672
18667SOL    HW158008   7.039   2.578   0.236  0.1994  0.3239  1.0221
18667SOL    HW258009   7.080   2.504   0.362  1.7679 -0.8370 -0.1329
18668SOL     OW58010   8.048   9.546   9.452  0.0875 -0.1862 -0.2492
18668SOL    HW158011   8.052   9.470   9.510 -2.0917 -1.4739 -1.6564
18668SOL    HW258012   8.136   9.553   9.416  1.4304  0.4225  2.7831
18669SOL     OW58013   5.040   0.714   1.033 -0.2449 -0.1868 -0.1468
18669SOL    HW158014   5.094   0.781   1.074  0.5084  0.4160 -2.0339
18669SOL    HW258015   5.030   0.743   0.942 -1.8597 -1.4503 -0.4231
18670SOL     OW58016  10.795   5.879   8.910  0.3102  0.2018 -0.0342
18670SOL    HW158017  10.851   5.876   8.988  0.1986  2.6429  0.2323
18670SOL    HW258018  10.828   5.809   8.854  1.0939 -0.9255  1.7372
18671SOL     OW58019   1.426   6.953   8.957 -0.3326 -0.2501  0.5224
18671SOL    HW158020   1.461   6.870   8.925 -0.8820 -0.4089  0.3311
18671SOL    HW258021   1.503   7.011   8.962  0.0933 -0.8322  0.8859
18672SOL     OW58022   0.490   8.136   2.332 -0.0996 -0.3338 -0.7289
18672SOL    HW158023   0.542   8.163   2.407 -0.8418  1.8331 -0.9432
18672SOL    HW258024   0.554   8.097   2.272  1.1335  1.2469 -0.5203
18673SOL     OW58025   5.174   9.873   5.020  0.0385  0.6847 -0.8411
18673SOL    HW158026   5.125   9.947   5.055 -1.1047  0.1166 -1.1896
18673SOL    HW258027   5.159   9.876   4.926 -1.1192 -0.7211 -0.7365
18674SOL     OW58028   3.303   3.177   0.817  0.9391  0.4989  0.3191
18674SOL    HW158029   3.328   3.184   0.725  3.2799 -0.3965  0.8275
18674SOL    HW258030   3.210   3.199   0.818  0.8058  0.3448 -2.2739
18675SOL     OW58031   1.153   5.220   6.043 -0.1813  0.7330  0.3227
18675SOL    HW158032   1.215   5.217   5.970 -0.8935 -0.0182 -0.2700
18675SOL    HW258033   1.208   5.222   6.122  0.6134 -0.8040 -0.1524
18676SOL     OW58034   5.871  10.771   9.450  0.2305 -0.8863  0.4459
18676SOL    HW158035   5.795  10.792   9.395 -0.5484 -2.3091  0.9534
18676SOL    HW258036   5.841  10.786   9.540  1.1884  0.4549  0.5775
18677SOL     OW58037   1.450   5.748   9.129 -0.1380 -0.4054 -0.2571
18677SOL    HW158038   1.534   5.712   9.157  0.7105  1.9846  0.4478
18677SOL    HW258039   1.391   5.672   9.128  1.6825 -1.9030  0.5233
18678SOL     OW58040   7.831   3.916   5.225  0.1907 -0.2771 -0.4687
18678SOL    HW158041   7.837   3.858   5.149  1.6673  0.5445 -1.0330
18678SOL    HW258042   7.912   3.968   5.221  0.2685 -0.1687  1.6283
18679SOL     OW58043  10.819  10.751   4.700 -0.8019 -0.6164 -0.2070
18679SOL    HW158044  10.780  10.755   4.788 -1.1431  0.5283 -0.3912
18679SOL    HW258045  10.758  10.799   4.645  0.0030 -0.3027 -0.8469
18680SOL     OW58046   1.405   1.858   5.317 -0.1041  0.1504 -0.6058
18680SOL    HW158047   1.366   1.907   5.244  0.6447  3.1202  0.8219
18680SOL    HW258048   1.489   1.901   5.332 -0.8842  0.7508  2.9637
18681SOL     OW58049   3.445   4.503   8.001 -0.0498 -0.2106 -0.7294
18681SOL    HW158050   3.489   4.518   7.918 -1.4977 -1.9060 -1.9018
18681SOL    HW258051   3.421   4.590   8.032  1.2471  0.5038 -1.6581
18682SOL     OW58052   9.057   8.875   9.470 -0.0468 -0.0397 -0.5516
18682SOL    HW158053   9.018   8.860   9.556  0.7737 -1.8864 -0.4440
18682SOL    HW258054   9.045   8.792   9.424 -0.7041  0.9913 -2.3507
18683SOL     OW58055  10.390   0.930   5.858 -0.3433  0.1609 -0.4751
18683SOL    HW158056  10.342   0.882   5.791 -3.6221  0.1548  1.6135
18683SOL    HW258057  10.477   0.892   5.858 -1.3488 -2.3946 -2.2172
18684SOL     OW58058   8.006   3.139  10.235 -0.8399 -0.2974 -0.2563
18684SOL    HW158059   7.951   3.063  10.217  1.2209 -1.8977 -0.1828
18684SOL    HW258060   8.032   3.128  10.326 -0.4558  0.4786 -0.2647
18685SOL     OW58061   2.937   3.062   9.505  0.0473 -0.5678  0.6938
18685SOL    HW158062   3.013   3.012   9.536 -0.3330 -0.6364  1.5427
18685SOL    HW258063   2.878   2.996   9.469  0.0220 -0.6143  0.8182
18686SOL     OW58064   2.268   2.009   4.921 -0.2862  0.2037  0.2970
18686SOL    HW158065   2.288   1.932   4.975  1.3446  1.1334  1.0977
18686SOL    HW258066   2.178   1.995   4.891 -1.0836 -0.6049  2.8520
18687SOL     OW58067   6.962   4.670   9.026  0.0040  0.2874 -0.2283
18687SOL    HW158068   7.029   4.635   8.968  0.5359  1.0309 -0.0656
18687SOL    HW258069   6.959   4.763   9.007 -1.1733  0.2251 -0.4199
18688SOL     OW58070   6.907   1.075   3.679 -0.2618 -0.4612 -0.5999
18688SOL    HW158071   6.896   1.034   3.765  0.8194  2.7410  1.2404
18688SOL    HW258072   6.994   1.115   3.683 -0.2764 -0.0340 -3.1323
18689SOL     OW58073   8.083   9.588   5.448 -0.2018 -0.3222 -0.2357
18689SOL    HW158074   8.093   9.536   5.368  0.3605  0.4667 -0.6968
18689SOL    HW258075   8.045   9.528   5.512  1.2813 -1.5625 -0.4745
18690SOL     OW58076   7.343   8.368   0.654 -0.2340  0.3024  0.2079
18690SOL    HW158077   7.288   8.337   0.582 -0.3523 -0.5011  0.6239
18690SOL    HW258078   7.428   8.327   0.638 -0.1734  0.3691  0.3583
18691SOL     OW58079   6.957   5.814   6.211  0.2425  0.1544  0.5990
18691SOL    HW158080   7.029   5.839   6.153 -0.0921  1.6821  0.7952
18691SOL    HW258081   6.879   5.850   6.170 -0.0806  0.6974  1.6409
18692SOL     OW58082   3.033   7.230   3.369  0.0479  0.4927  0.5209
18692SOL    HW158083   3.052   7.322   3.352 -1.9752  0.9543  0.4909
18692SOL    HW258084   3.084   7.182   3.303  1.7057  1.5019  0.9957
18693SOL     OW58085   8.572   8.654   2.154  0.4724  0.3747 -0.1046
18693SOL    HW158086   8.563   8.596   2.230  0.2695 -0.0481 -0.4506
18693SOL    HW258087   8.485   8.692   2.143  0.3325 -0.0659 -0.5271
18694SOL     OW58088   8.720   5.484   6.969  0.3548  0.2729 -0.0408
18694SOL    HW158089   8.740   5.434   6.889  0.0016 -0.1508  0.1311
18694SOL    HW258090   8.638   5.528   6.950  1.6686  2.5004 -0.9694
18695SOL     OW58091   0.659   4.098   7.104 -0.3734  0.3022 -0.0004
18695SOL    HW158092   0.612   4.071   7.183 -1.6087 -1.0547 -1.1398
18695SOL    HW258093   0.601   4.162   7.063  1.1919  2.6106  1.1551
18696SOL     OW58094   7.281   8.127   7.108  0.3112  0.1808 -0.3122
18696SOL    HW158095   7.197   8.084   7.092 -0.4335  1.4709 -0.0345
18696SOL    HW258096   7.298   8.177   7.028  0.8500 -0.1062 -0.3823
18697SOL     OW58097   1.395  10.736   8.591  0.1815  0.3820  0.3554
18697SOL    HW158098   1.464  10.792   8.555 -0.9164  2.3175  1.1040
18697SOL    HW258099   1.440  10.682   8.656  1.3075  0.2457 -0.5052
18698SOL     OW58100   0.100   2.072   3.781 -0.5061 -0.2588 -0.0598
18698SOL    HW158101   0.081   2.120   3.701  2.6438  1.3668  0.0106
18698SOL    HW258102   0.066   2.128   3.851  1.4311  1.0159 -0.0780
18699SOL     OW58103   3.093  10.449   5.163 -0.0900  0.4308 -0.3789
18699SOL    HW158104   3.178  10.470   5.199  0.1685 -0.9221 -0.1244
18699SOL    HW258105   3.055  10.387   5.226 -1.8342  2.0008  0.2045
18700SOL     OW58106   7.521   2.862   2.154 -0.1017 -0.7834  0.2283
18700SOL    HW158107   7.502   2.795   2.220 -0.3961 -1.3835 -0.4487
18700SOL    HW258108   7.611   2.844   2.126  0.6905  0.5761  1.7134
18701SOL     OW58109   1.923   4.757   7.899 -0.2293 -0.3538  0.3030
18701SOL    HW158110   1.866   4.833   7.889  1.7084  0.9756 -1.9473
18701SOL    HW258111   1.994   4.787   7.956  0.5467 -0.4244 -0.5957
18702SOL     OW58112   7.702   9.614  11.246 -0.2768  0.4010  0.3825
18702SOL    HW158113   7.770   9.578  11.302  0.7461  2.4003  0.4750
18702SOL    HW258114   7.625   9.560  11.265  0.7038 -0.5679  1.8136
18703SOL     OW58115   4.114   7.443   3.149  0.0118  0.3876  0.1586
18703SOL    HW158116   4.185   7.404   3.201 -1.8050 -0.6931  1.9809
18703SOL    HW258117   4.146   7.531   3.128  2.6312 -0.6659 -0.7386
18704SOL     OW58118   7.205   2.141   4.500 -0.0175  0.2732 -0.7110
18704SOL    HW158119   7.233   2.056   4.467  1.4669  0.0880  0.8747
18704SOL    HW258120   7.113   2.130   4.523  0.1419 -0.8793 -0.5914
18705SOL     OW58121  10.525   3.940   2.912  0.5070  0.1969  0.4636
18705SOL    HW158122  10.456   3.881   2.943 -0.2043  0.7369 -0.0382
18705SOL    HW258123  10.484   4.026   2.911  0.1765  0.1324 -2.6682
18706SOL     OW58124   7.609   8.389  10.304  0.1430  0.0446 -0.2847
18706SOL    HW158125   7.566   8.383  10.219 -0.8357  4.1482 -0.2711
18706SOL    HW258126   7.692   8.432  10.286  0.1341  0.5322  0.7783
18707SOL     OW58127   2.504   1.157   3.929 -0.9523 -0.3658  0.2186
18707SOL    HW158128   2.484   1.083   3.872 -0.0987 -1.1611  0.9034
18707SOL    HW258129   2.600   1.157   3.936 -0.9373  0.8179  0.2286
18708SOL     OW58130   9.559   2.172  10.840  0.9424 -0.3634 -0.2631
18708SOL    HW158131   9.530   2.096  10.891 -0.5848  1.1987  1.3177
18708SOL    HW258132   9.617   2.220  10.899  0.1820  0.7963 -0.4234
18709SOL     OW58133   1.753   9.847   7.876 -0.1674  0.0294  0.0784
18709SOL    HW158134   1.683   9.906   7.847  1.4343  1.1407 -1.7364
18709SOL    HW258135   1.713   9.760   7.874 -1.2507  0.4960 -2.0014
18710SOL     OW58136   8.800   5.936   8.071 -0.3826 -0.3370  0.2297
18710SOL    HW158137   8.879   5.955   8.020 -1.2448 -1.3301 -1.5581
18710SOL    HW258138   8.776   6.020   8.110  0.3485  0.4722 -0.9776
18711SOL     OW58139  10.847   8.367   8.581  0.3068  0.0833  0.0062
18711SOL    HW158140  10.792   8.415   8.520  0.4166 -1.0927 -1.0530
18711SOL    HW258141  10.855   8.425   8.657 -0.5902  1.1794 -0.7089
18712SOL     OW58142   8.015   8.457   6.096  0.1084  0.2223  0.1794
18712SOL    HW158143   8.033   8.521   6.027  0.0780  0.7908  0.6966
18712SOL    HW258144   7.934   8.415   6.069  0.9457 -0.7404 -0.9834
18713SOL     OW58145   8.424   9.343   6.888 -0.6247  0.1314  0.4489
18713SOL    HW158146   8.381   9.394   6.958 -0.3496  1.1860 -0.1347
18713SOL    HW258147   8.367   9.353   6.812  0.8514  1.9775 -0.4902
18714SOL     OW58148   8.725   1.945   6.253  0.2724  0.2491 -0.9136
18714SOL    HW158149   8.780   1.984   6.186  0.2320  1.3440 -0.3263
18714SOL    HW258150   8.647   2.001   6.256 -0.2291 -0.4342 -0.7193
18715SOL     OW58151   1.582   1.625  10.478  0.5766 -0.1543  0.1463
18715SOL    HW158152   1.559   1.591  10.392 -2.1017  1.1789  0.2539
18715SOL    HW258153   1.671   1.660  10.467  0.6950 -0.9374 -1.7520
18716SOL     OW58154   2.837   8.970   0.719  0.5681 -0.0262 -0.3082
18716SOL    HW158155   2.922   9.005   0.744 -0.1445  0.6741  1.2671
18716SOL    HW258156   2.789   9.045   0.685  0.2782 -0.2392 -0.3760
18717SOL     OW58157   4.314   8.977   3.041 -0.0374 -0.2114 -0.1621
18717SOL    HW158158   4.280   8.887   3.034 -1.5259  0.2760  0.4726
18717SOL    HW258159   4.275   9.023   2.967 -0.0987  0.1669  0.1033
18718SOL     OW58160   2.858   5.569  10.080 -0.2889 -0.9657 -0.1121
18718SOL    HW158161   2.791   5.531  10.024 -1.7717 -3.1890  2.8770
18718SOL    HW258162   2.937   5.570  10.026 -2.2586  0.2400 -3.2330
18719SOL     OW58163   5.313   1.491   4.121  0.1781 -0.7237 -0.4720
18719SOL    HW158164   5.379   1.529   4.179 -0.6910  1.2790 -0.7096
18719SOL    HW258165   5.341   1.516   4.033 -2.3827  3.0227 -0.4703
18720SOL     OW58166  11.161   9.323   8.046  0.5421 -0.7102 -0.0117
18720SOL    HW158167  11.066   9.308   8.043  0.6003 -1.2879  0.7641
18720SOL    HW258168  11.170   9.412   8.078  0.2623 -0.9333  0.7167
18721SOL     OW58169  10.121   2.176  10.629  0.0736 -0.5095 -0.0684
18721SOL    HW158170  10.188   2.212  10.571 -2.1667  0.4868 -2.2301
18721SOL    HW258171  10.122   2.082  10.612  1.6666 -0.7029  0.8551
18722SOL     OW58172   4.123   0.729   2.094  0.1081  0.2009 -0.0138
18722SOL    HW158173   4.138   0.821   2.073 -0.9242  0.7471  1.5114
18722SOL    HW258174   4.029   0.721   2.106  0.2361 -0.9340  0.3981
18723SOL     OW58175   1.578   6.438  11.259  0.1829  0.0537  0.1936
18723SOL    HW158176   1.567   6.437  11.164  1.1096 -1.0790  0.0684
18723SOL    HW258177   1.644   6.506  11.274  1.5758 -1.1411 -0.2152
18724SOL     OW58178   2.889   0.780   0.973  0.0688  0.5646  0.0588
18724SOL    HW158179   2.939   0.699   0.985 -0.2628  0.1137 -1.3291
18724SOL    HW258180   2.851   0.798   1.059  3.0951  1.3140  1.3734
18725SOL     OW58181   3.429   5.412   4.644  0.0392  0.2436  0.5290
18725SOL    HW158182   3.522   5.409   4.664  0.3793  1.1096 -0.8347
18725SOL    HW258183   3.424   5.416   4.549 -1.3653  1.0226  0.6046
18726SOL     OW58184   4.302   2.339   2.745  0.4403  0.5244 -0.0345
18726SOL    HW158185   4.299   2.308   2.654 -0.2795 -0.7707  0.3988
18726SOL    HW258186   4.232   2.403   2.751  1.4901  1.7937 -0.7679
18727SOL     OW58187   0.524  10.376   2.461 -0.4349 -0.0972  0.2522
18727SOL    HW158188   0.447  10.320   2.473 -1.1492  0.3929 -1.5993
18727SOL    HW258189   0.490  10.465   2.467  0.1527  0.1241  0.3278
18728SOL     OW58190   5.877  11.144   9.141 -0.3276 -0.6826 -0.0833
18728SOL    HW158191   5.966  11.173   9.160 -0.7193  0.9378 -0.5438
18728SOL    HW258192   5.885  11.049   9.126  1.6864 -0.2652 -2.1597
18729SOL     OW58193   3.184   1.843   0.811  0.2605  0.4699  0.4927
18729SOL    HW158194   3.267   1.858   0.856  0.4978 -2.2907  1.1478
18729SOL    HW258195   3.200   1.875   0.722  1.9664  0.1967  0.6606
18730SOL     OW58196   1.922   3.674   2.438 -0.5597  0.6940 -0.3411
18730SOL    HW158197   2.003   3.634   2.407 -0.9901 -0.0062 -0.5907
18730SOL    HW258198   1.929   3.766   2.412 -0.9477  0.1221 -2.6283
18731SOL     OW58199  10.721   8.307  10.154 -0.0413 -0.1970 -0.2739
18731SOL    HW158200  10.682   8.310  10.241  0.0010 -0.8605 -0.2292
18731SOL    HW258201  10.654   8.266  10.099  0.7007 -1.6933 -0.1215
18732SOL     OW58202   2.656   3.000   3.078 -0.3896 -0.0074  0.2053
18732SOL    HW158203   2.565   2.999   3.050  0.0772  1.0219 -1.4518
18732SOL    HW258204   2.687   2.911   3.062 -1.1216 -0.4053  0.9242
18733SOL     OW58205   6.482   0.403   9.844  0.7477 -0.0090 -0.2671
18733SOL    HW158206   6.494   0.309   9.856  0.3760  0.1986  2.3761
18733SOL    HW258207   6.460   0.436   9.932 -1.2787  2.2231 -1.4895
18734SOL     OW58208   7.496   3.482   3.317  0.2060  0.7782 -0.5226
18734SOL    HW158209   7.487   3.470   3.411 -0.9689  0.5695 -0.6541
18734SOL    HW258210   7.567   3.422   3.292 -1.4018 -1.3739 -0.1926
18735SOL     OW58211   6.117   3.669   4.245 -0.5153  0.3493 -0.6812
18735SOL    HW158212   6.070   3.749   4.267  0.0765  0.5178  0.0207
18735SOL    HW258213   6.048   3.602   4.241 -0.8373  0.5891  0.3190
18736SOL     OW58214   6.265   2.699   4.217 -0.6264  0.9609  0.1444
18736SOL    HW158215   6.182   2.709   4.172 -0.6337  1.1381  0.1954
18736SOL    HW258216   6.274   2.605   4.231 -0.6635  0.9137 -0.1490
18737SOL     OW58217   1.852   4.170   2.916 -0.1150 -0.0542 -0.1400
18737SOL    HW158218   1.764   4.183   2.951 -0.9519  2.0528 -2.7467
18737SOL    HW258219   1.910   4.210   2.981 -1.3158  0.9193  0.3601
18738SOL     OW58220   0.993   6.451   6.307  0.9713  0.7677  0.9605
18738SOL    HW158221   1.080   6.413   6.319 -0.1859 -1.5504  2.8634
18738SOL    HW258222   0.968   6.428   6.218  2.2695  1.5104  0.3730
18739SOL     OW58223   0.875  10.200   0.779  0.0963 -0.2231  0.5138
18739SOL    HW158224   0.808  10.189   0.846 -0.8484  0.6562 -0.2505
18739SOL    HW258225   0.874  10.294   0.759 -0.4685 -0.6038 -1.5170
18740SOL     OW58226   6.342   5.489   9.010 -0.5400 -0.2101 -0.5304
18740SOL    HW158227   6.340   5.561   8.948  0.8915 -1.0557 -1.6254
18740SOL    HW258228   6.435   5.480   9.033 -1.0349  0.2704  2.0089
18741SOL     OW58229   3.743   8.975   9.580 -0.7798 -0.6060  0.2873
18741SOL    HW158230   3.822   8.999   9.531 -1.2382 -0.1781 -0.2578
18741SOL    HW258231   3.721   9.053   9.630 -0.8479 -0.7340  0.4599
18742SOL     OW58232   6.836   5.989   0.600  0.6917 -0.8571 -0.3223
18742SOL    HW158233   6.870   5.900   0.596  1.3942 -0.5743 -0.9773
18742SOL    HW258234   6.744   5.979   0.625  0.6133 -1.7977 -0.9334
18743SOL     OW58235  10.162   8.074   7.348  0.3034  0.1392 -0.0127
18743SOL    HW158236  10.130   8.164   7.361  1.7516  0.3125  3.3427
18743SOL    HW258237  10.240   8.085   7.294  0.7308  0.9910  0.7452
18744SOL     OW58238   8.991   5.893   0.449 -0.6248 -0.2468 -0.5820
18744SOL    HW158239   8.914   5.893   0.393  0.1642 -2.8931 -1.7974
18744SOL    HW258240   9.042   5.969   0.420 -3.1716  2.2528  1.0208
18745SOL     OW58241   6.240  11.088   0.213 -0.1161  0.6721 -0.2499
18745SOL    HW158242   6.171  11.051   0.158  0.5891  2.2737 -2.3264
18745SOL    HW258243   6.193  11.145   0.274 -0.9090 -1.1230  0.9021
18746SOL     OW58244   6.437   6.734   4.884  0.4810 -0.6695  0.2721
18746SOL    HW158245   6.443   6.664   4.950 -1.3718  0.3057  1.5685
18746SOL    HW258246   6.468   6.812   4.930 -1.0957  0.0826  0.1187
18747SOL     OW58247   5.266   7.226  10.924  0.1402 -0.4461  0.0522
18747SOL    HW158248   5.171   7.220  10.913  0.2897 -0.9763 -1.1134
18747SOL    HW258249   5.298   7.258  10.839  0.9461  0.3887  0.6469
18748SOL     OW58250   9.935   7.659   6.829  0.0908  0.7805 -0.6069
18748SOL    HW158251   9.851   7.641   6.789 -0.4426 -1.4720  1.2355
18748SOL    HW258252   9.959   7.746   6.800 -2.3157  1.0090 -2.1088
18749SOL     OW58253  10.273   3.687   7.976  0.6353 -0.5864 -0.0851
18749SOL    HW158254  10.199   3.634   8.002 -1.3663  2.9416  2.2155
18749SOL    HW258255  10.324   3.700   8.056  1.6622  0.0750 -0.8026
18750SOL     OW58256   7.765   6.975   7.310  0.4306 -0.6140 -0.4562
18750SOL    HW158257   7.706   6.951   7.380 -0.3163 -0.1441 -0.9051
18750SOL    HW258258   7.728   7.056   7.274  1.3143 -0.3359 -0.7822
18751SOL     OW58259   4.479   0.956   4.891  0.2650  0.1681 -0.5022
18751SOL    HW158260   4.536   0.905   4.949 -1.6277 -1.0471  0.3982
18751SOL    HW258261   4.487   0.913   4.806 -1.5973 -2.0921  0.3185
18752SOL     OW58262   0.666   5.985   7.939 -0.5039 -0.4449 -0.1927
18752SOL    HW158263   0.597   5.945   7.885 -0.3117 -1.1017  0.0434
18752SOL    HW258264   0.620   6.014   8.018 -0.8531  0.8317 -0.8262
18753SOL     OW58265  11.130   7.541   0.231 -0.0085 -0.2279  0.2189
18753SOL    HW158266  11.074   7.543   0.154  0.1790 -0.1914  0.0830
18753SOL    HW258267  11.171   7.627   0.233  0.6537 -0.5294 -0.1347
18754SOL     OW58268  10.614  10.383   4.805 -0.1458  0.1358 -0.2956
18754SOL    HW158269  10.671  10.370   4.881 -1.6557  0.7630  0.9987
18754SOL    HW258270  10.595  10.294   4.774  2.9089 -0.0849 -1.9218
18755SOL     OW58271   9.645   9.649   3.746  0.3251  0.1041 -0.1415
18755SOL    HW158272   9.681   9.665   3.659  0.4244 -1.0752 -0.3344
18755SOL    HW258273   9.589   9.572   3.736 -0.6177  0.6683  0.5975
18756SOL     OW58274   7.534   8.541   0.940  0.3371 -0.2031 -0.4977
18756SOL    HW158275   7.609   8.561   0.885 -1.0601  0.8443 -2.1254
18756SOL    HW258276   7.549   8.450   0.968  1.7174 -0.3379 -1.5640
18757SOL     OW58277   0.773  10.915   4.684 -0.2775  0.3176  0.5580
18757SOL    HW158278   0.779  10.929   4.589  0.5041  0.6939  0.6571
18757SOL    HW258279   0.855  10.872   4.708 -0.9649 -0.8445  0.8965
18758SOL     OW58280   6.455   4.021   7.252 -1.0494 -0.2629  0.1790
18758SOL    HW158281   6.408   3.938   7.261  1.3216 -2.3125 -3.6272
18758SOL    HW258282   6.548   3.997   7.256 -0.2505  2.3596 -0.2438
18759SOL     OW58283   9.979   4.979   3.447  0.0624  0.1147  0.0602
18759SOL    HW158284  10.004   4.945   3.533 -2.1270  0.1862  0.7971
18759SOL    HW258285  10.006   4.911   3.386  1.3745 -0.0784  0.8165
18760SOL     OW58286   6.693   6.261   6.435  0.0731  0.6960  0.4404
18760SOL    HW158287   6.656   6.214   6.359 -0.0797  0.1194  0.8613
18760SOL    HW258288   6.669   6.352   6.421  0.8118  0.7387 -0.6615
18761SOL     OW58289   1.004   7.020  11.196 -0.6697  0.0903  0.5101
18761SOL    HW158290   0.994   7.073  11.117 -2.1038 -1.8332 -0.6870
18761SOL    HW258291   0.961   6.937  11.175 -1.1745 -0.4716  3.3527
18762SOL     OW58292   6.214   3.607   7.645 -0.2936  0.4293  0.4909
18762SOL    HW158293   6.305   3.615   7.675 -0.0397 -0.8406  0.1367
18762SOL    HW258294   6.177   3.539   7.701 -0.5872 -0.1077 -0.3374
18763SOL     OW58295   7.183   0.228   5.944  0.9829  0.1332 -0.4497
18763SOL    HW158296   7.273   0.251   5.963  0.7036  2.0246 -1.1860
18763SOL    HW258297   7.173   0.139   5.976  2.5457  0.5780  1.4048
18764SOL     OW58298   9.306   6.306  10.789  0.1892 -0.1360 -0.7234
18764SOL    HW158299   9.271   6.265  10.868  0.2267 -1.1688 -1.2198
18764SOL    HW258300   9.230   6.316  10.732  0.1347  0.7467 -0.5172
18765SOL     OW58301   1.541   9.124  11.146  0.7160  0.3743 -0.3454
18765SOL    HW158302   1.568   9.143  11.056 -0.1527  1.3267 -0.4242
18765SOL    HW258303   1.577   9.037  11.164  0.8979  0.1669 -1.6216
18766SOL     OW58304   4.117   7.757   0.687  0.3692 -0.3835  0.0897
18766SOL    HW158305   4.129   7.663   0.678  1.9030 -0.1545 -0.7719
18766SOL    HW258306   4.071   7.769   0.770  3.0404 -1.7442  1.9058
18767SOL     OW58307   7.071   2.506   3.479  0.4565  0.2251  0.5627
18767SOL    HW158308   7.148   2.563   3.476  0.9324 -0.2557  2.4268
18767SOL    HW258309   7.081   2.457   3.561 -0.1863 -2.1617 -0.6810
18768SOL     OW58310   4.879   3.745   8.297  0.0646  0.0659  0.0686
18768SOL    HW158311   4.877   3.814   8.231  0.1117  0.1881  0.1934
18768SOL    HW258312   4.963   3.701   8.283  0.8135  1.1054  1.0655
18769SOL     OW58313   5.271   4.370   7.751 -0.2082  0.2569 -0.0325
18769SOL    HW158314   5.343   4.309   7.767  0.1616  0.4861 -0.7670
18769SOL    HW258315   5.195   4.314   7.739 -0.5175  0.0603  2.3786
18770SOL     OW58316   9.177  10.722   2.084  0.0391 -0.3160  0.2029
18770SOL    HW158317   9.271  10.735   2.088 -0.1238  0.5912  2.4488
18770SOL    HW258318   9.141  10.811   2.076 -0.6509 -0.6635 -0.8018
18771SOL     OW58319  10.336   6.682   4.667 -0.0768  0.1433 -0.5701
18771SOL    HW158320  10.266   6.706   4.606 -0.3168  2.4679  0.5145
18771SOL    HW258321  10.416   6.713   4.624 -0.0109 -0.1625 -0.6648
18772SOL     OW58322  10.019   5.982   0.902 -0.1513  0.0826 -0.4811
18772SOL    HW158323   9.979   5.960   0.818  1.0465  2.1901 -1.6849
18772SOL    HW258324  10.107   5.943   0.897 -0.2416 -0.1974  0.0239
18773SOL     OW58325   7.139   7.554   1.774  0.0444 -0.2378 -0.7100
18773SOL    HW158326   7.050   7.529   1.800  0.2827 -0.7199 -0.3464
18773SOL    HW258327   7.195   7.519   1.843  0.5246  0.0180 -0.9657
18774SOL     OW58328   9.414   1.896   1.786  0.1089  0.0530  0.5685
18774SOL    HW158329   9.329   1.871   1.822 -1.6463  2.4294 -1.4845
18774SOL    HW258330   9.402   1.891   1.691  2.1922  0.7140  0.2036
18775SOL     OW58331   0.282   7.020   1.014 -0.7782  0.2341 -0.3106
18775SOL    HW158332   0.367   7.063   1.025 -0.8580  0.1649  0.6906
18775SOL    HW258333   0.272   7.009   0.920  0.1803  0.5362 -0.4531
18776SOL     OW58334   5.691   0.383   3.045  0.0306 -0.2412  0.5470
18776SOL    HW158335   5.606   0.425   3.061  0.4986  0.3327  1.6057
18776SOL    HW258336   5.755   0.447   3.076  1.0535  0.6987 -3.0721
18777SOL     OW58337   4.817   0.927   1.861 -0.5977 -0.0383 -0.1452
18777SOL    HW158338   4.810   0.939   1.956  0.4217 -0.6879  0.0271
18777SOL    HW258339   4.738   0.879   1.837 -0.3266 -0.8694  0.5700
18778SOL     OW58340   1.079   0.841   7.890 -0.0244  0.6721 -0.1923
18778SOL    HW158341   1.097   0.928   7.925  0.9093  1.0975 -1.6146
18778SOL    HW258342   1.042   0.857   7.803 -0.9874 -0.3457  0.0136
18779SOL     OW58343  10.694  10.534   3.355  0.0620 -0.0150 -0.1002
18779SOL    HW158344  10.781  10.515   3.319  0.6915  2.9860 -0.4651
18779SOL    HW258345  10.644  10.566   3.280 -0.5510  0.6305  0.5693
18780SOL     OW58346   9.071   2.121   3.098  0.1815  0.0001  0.2957
18780SOL    HW158347   9.119   2.195   3.134  0.8570 -1.0138  1.5489
18780SOL    HW258348   8.979   2.149   3.099  0.6370  1.8054 -1.7682
18781SOL     OW58349   4.646  11.211   2.993 -0.4493  0.4884  0.4029
18781SOL    HW158350   4.559  11.173   2.981  0.3873 -1.8942  1.1061
18781SOL    HW258351   4.679  11.225   2.904 -0.9458 -0.1999  0.0984
18782SOL     OW58352   1.879   9.850  10.169 -0.3542  0.5070  0.7781
18782SOL    HW158353   1.880   9.876  10.077 -0.3049 -0.0530  0.6175
18782SOL    HW258354   1.786   9.855  10.193 -0.5497 -0.6528  0.3133
18783SOL     OW58355   1.761   9.020   5.511  0.8313 -0.5195 -0.9095
18783SOL    HW158356   1.676   9.033   5.468  1.1934 -1.2532 -1.8686
18783SOL    HW258357   1.759   8.930   5.544  0.7388 -0.1173  0.2510
18784SOL     OW58358   0.029   8.771   5.589 -0.4241  0.6846  0.0519
18784SOL    HW158359   0.017   8.713   5.514  0.5425 -3.1583  2.5704
18784SOL    HW258360  -0.059   8.802   5.610 -1.1914 -0.8083 -0.7683
18785SOL     OW58361   8.822   0.898  10.069 -0.3403 -0.5405 -0.3319
18785SOL    HW158362   8.904   0.935  10.036 -0.7993 -0.2878 -1.2045
18785SOL    HW258363   8.772   0.974  10.100  0.8778 -0.9004  2.8990
18786SOL     OW58364   6.138   0.583   8.440 -0.2412  0.6574  0.2337
18786SOL    HW158365   6.084   0.595   8.518  0.6849 -1.5322  1.2966
18786SOL    HW258366   6.107   0.500   8.402  1.1256  0.3021 -0.1673
18787SOL     OW58367   6.069   8.604   3.686 -0.0092 -0.3212  0.5948
18787SOL    HW158368   5.992   8.616   3.742 -0.8385 -0.0826 -0.5586
18787SOL    HW258369   6.101   8.516   3.707 -1.6582 -1.1354 -0.1468
18788SOL     OW58370   0.388   2.012   1.696  0.6325 -0.2943 -0.1695
18788SOL    HW158371   0.351   1.998   1.783  1.2838  0.3023  0.2089
18788SOL    HW258372   0.325   2.069   1.652  0.5708 -0.1583  0.0979
18789SOL     OW58373   6.099   2.060   2.069 -0.3382  0.0611  0.4207
18789SOL    HW158374   6.103   2.151   2.042 -4.4711 -0.3007 -2.4308
18789SOL    HW258375   6.166   2.016   2.018 -0.6826  1.0654 -0.9353
18790SOL     OW58376   0.681   2.772   0.611 -0.3145 -0.4044  0.3262
18790SOL    HW158377   0.612   2.824   0.570 -1.3980 -0.7459  1.6316
18790SOL    HW258378   0.762   2.821   0.593 -0.8313 -0.1424 -1.4774
18791SOL     OW58379   5.355  10.481  10.816 -0.0640  0.3667 -0.0081
18791SOL    HW158380   5.334  10.389  10.800  1.3709 -0.3417  1.8247
18791SOL    HW258381   5.449  10.487  10.800  0.2053  1.0641  1.6147
18792SOL     OW58382  11.140   2.674   9.410 -0.1428  0.0450 -0.1867
18792SOL    HW158383  11.121   2.681   9.503  0.1307 -0.5121 -0.0834
18792SOL    HW258384  11.226   2.715   9.400 -0.3476  0.4592 -0.2610
18793SOL     OW58385   6.442   4.736   4.378 -0.1810 -0.2276  0.5964
18793SOL    HW158386   6.351   4.755   4.353  0.1297 -2.8257 -3.2568
18793SOL    HW258387   6.435   4.697   4.465 -2.6114  0.5668  0.8326
18794SOL     OW58388   0.265  10.623   6.406 -0.0504 -0.0394 -0.0447
18794SOL    HW158389   0.202  10.639   6.477 -0.2241 -1.0188  0.0458
18794SOL    HW258390   0.299  10.709   6.384 -0.5920  0.3768  0.6849
18795SOL     OW58391   0.047   0.541   9.242  0.0118 -0.5790 -0.2169
18795SOL    HW158392  -0.000   0.460   9.223 -0.5778 -0.0607 -1.0339
18795SOL    HW258393   0.137   0.513   9.258 -0.4731 -1.5476  1.0115
18796SOL     OW58394   1.398   2.103   2.833 -0.2264  0.3119 -0.2050
18796SOL    HW158395   1.425   2.176   2.889 -1.9057  0.3530  0.6149
18796SOL    HW258396   1.398   2.027   2.891 -2.2771  0.4059 -0.0117
18797SOL     OW58397   4.198   2.252   6.444 -0.5004  0.3765 -0.3338
18797SOL    HW158398   4.202   2.276   6.351 -2.0643  1.3305 -0.1900
18797SOL    HW258399   4.264   2.307   6.486  0.8770 -0.7108 -0.9545
18798SOL     OW58400   9.785   8.760   4.551  0.4662  0.2200 -0.1186
18798SOL    HW158401   9.826   8.842   4.522  0.2245  0.1828 -0.5807
18798SOL    HW258402   9.799   8.700   4.478  1.3222 -0.3959  0.5226
18799SOL     OW58403   0.914   9.011   5.196  1.1723  0.7555 -0.0579
18799SOL    HW158404   0.863   9.070   5.251 -0.2298 -0.7689  0.3575
18799SOL    HW258405   0.998   9.003   5.240 -0.7876 -2.6460  3.6705
18800SOL     OW58406   8.400   5.575   6.190  0.2882  0.2979 -0.4127
18800SOL    HW158407   8.410   5.480   6.198  0.8700  0.3602 -0.4052
18800SOL    HW258408   8.399   5.591   6.095 -2.3870  0.0223 -0.5256
18801SOL     OW58409   4.298   3.465   5.267  0.2867 -0.0944  0.3415
18801SOL    HW158410   4.345   3.546   5.248 -0.8448 -0.0105 -2.5134
18801SOL    HW258411   4.206   3.490   5.269 -0.0721 -1.2674 -0.3601
18802SOL     OW58412   0.660   4.935   8.831 -0.4246 -0.3621 -0.3166
18802SOL    HW158413   0.706   4.942   8.915 -0.9573  1.3528 -0.1363
18802SOL    HW258414   0.718   4.979   8.769 -1.4745  1.2384 -0.2092
18803SOL     OW58415   7.387   5.291   3.378  0.2677 -0.4968 -0.0562
18803SOL    HW158416   7.477   5.319   3.394  1.2764 -2.9770 -0.8632
18803SOL    HW258417   7.335   5.370   3.390  2.6797  1.3481 -0.8129
18804SOL     OW58418  11.148   5.401   7.667 -1.0586 -0.3699 -0.4516
18804SOL    HW158419  11.098   5.466   7.618 -0.8317  0.8013  0.8024
18804SOL    HW258420  11.121   5.413   7.758  1.1184  0.0207  0.2202
18805SOL     OW58421   2.302   0.194   7.875  0.5339  0.6834 -0.2185
18805SOL    HW158422   2.223   0.140   7.876  1.7720 -1.2268  0.2535
18805SOL    HW258423   2.361   0.151   7.937  2.1313  1.7791 -0.9077
18806SOL     OW58424   1.672  10.937   6.298  0.3867  0.7974 -0.2911
18806SOL    HW158425   1.576  10.929   6.303  0.3671  0.5580 -0.9316
18806SOL    HW258426   1.700  10.936   6.389 -0.1944  0.4560 -0.1056
18807SOL     OW58427   2.626   2.190  10.875 -0.0137  0.7623  0.0031
18807SOL    HW158428   2.618   2.264  10.816 -2.3114 -0.7154 -1.7512
18807SOL    HW258429   2.556   2.130  10.848  1.1187 -1.6340  1.9178
18808SOL     OW58430   4.388   6.664   6.086 -0.1675 -0.5647 -0.5041
18808SOL    HW158431   4.468   6.637   6.131  0.3732 -0.9458 -1.6551
18808SOL    HW258432   4.319   6.653   6.152  0.8861  1.1190  0.9520
18809SOL     OW58433   0.297   3.174   4.312 -0.6549 -0.5362 -0.1044
18809SOL    HW158434   0.285   3.129   4.228 -0.1724  1.0324 -1.0680
18809SOL    HW258435   0.391   3.163   4.331 -0.2033  1.2059 -1.0932
18810SOL     OW58436   5.634   8.871   7.571 -0.6104 -0.0182  0.3617
18810SOL    HW158437   5.715   8.876   7.521 -1.1331 -3.2683 -1.0844
18810SOL    HW258438   5.651   8.921   7.651  2.7214 -0.3616 -0.0065
18811SOL     OW58439  10.741   0.975   5.335  0.1531 -0.4869 -0.6511
18811SOL    HW158440  10.693   0.892   5.341 -1.3647  0.3615 -0.7627
18811SOL    HW258441  10.679   1.041   5.364  1.4251  0.6082 -0.3166
18812SOL     OW58442   4.359   8.168   2.265 -0.0950 -0.0493 -0.3516
18812SOL    HW158443   4.426   8.105   2.287 -0.8690 -1.0230 -0.7070
18812SOL    HW258444   4.406   8.251   2.254  0.8707 -0.4606  0.5423
18813SOL     OW58445   3.209   5.001   3.130  0.4782 -0.0209  0.6045
18813SOL    HW158446   3.144   5.069   3.149  1.5371  0.5085  2.5503
18813SOL    HW258447   3.291   5.050   3.118  1.0615 -0.8793  1.0271
18814SOL     OW58448   9.120   9.087   1.020  0.2182 -0.5909 -0.2235
18814SOL    HW158449   9.048   9.030   0.993 -0.4303  0.3402 -0.5203
18814SOL    HW258450   9.140   9.137   0.941  0.0311  0.3552  0.3218
18815SOL     OW58451   6.501  10.537   9.352 -0.0031  0.5970 -0.0972
18815SOL    HW158452   6.579  10.497   9.314 -0.0475  3.0472 -3.2349
18815SOL    HW258453   6.432  10.473   9.338  1.2230 -1.4159  2.3124
18816SOL     OW58454   4.453   2.922   6.925  0.4898  0.9254 -0.1078
18816SOL    HW158455   4.437   2.829   6.939  1.7988  1.1055  4.0834
18816SOL    HW258456   4.477   2.929   6.833  2.3182 -3.2219 -0.1700
18817SOL     OW58457   8.164   4.056  10.123  0.0586 -0.5060 -0.3747
18817SOL    HW158458   8.229   3.986  10.127  0.9108  0.3142  1.4339
18817SOL    HW258459   8.217   4.137  10.120 -0.8922  0.1026 -1.2761
18818SOL     OW58460   3.679   6.519   4.507 -0.3371  0.2576  0.2272
18818SOL    HW158461   3.715   6.431   4.501  1.2032  0.9535 -1.4661
18818SOL    HW258462   3.748   6.571   4.550 -0.6958  0.9168  0.0224
18819SOL     OW58463   7.657   0.486   7.463 -0.0808  0.7118  0.4601
18819SOL    HW158464   7.578   0.434   7.479 -2.3902  3.7495 -0.3080
18819SOL    HW258465   7.723   0.448   7.522 -2.1733 -1.7090  1.4005
18820SOL     OW58466   9.436   7.117   5.493  0.3096  0.1448 -0.0195
18820SOL    HW158467   9.492   7.089   5.566  1.3217 -0.1066 -0.8606
18820SOL    HW258468   9.367   7.051   5.489 -0.1327  0.5134  1.1063
18821SOL     OW58469   4.326   6.261   2.446 -0.7573  0.0350 -0.3014
18821SOL    HW158470   4.282   6.342   2.472  0.3396  0.3665  0.5913
18821SOL    HW258471   4.270   6.191   2.480 -0.0609  0.4494  1.9146
18822SOL     OW58472   8.761   6.220  10.353 -0.3824  0.0128  0.0234
18822SOL    HW158473   8.668   6.198  10.351 -0.4790  0.3786  0.3979
18822SOL    HW258474   8.797   6.165  10.423 -0.7679  1.5495  1.4843
18823SOL     OW58475   6.066   8.625   1.165 -0.4424  0.2282 -0.1854
18823SOL    HW158476   6.023   8.686   1.105 -1.9245  1.3587  1.8994
18823SOL    HW258477   5.998   8.561   1.188  0.2597 -0.5118 -0.1047
18824SOL     OW58478   4.249  10.948   2.365 -0.1063  0.0797  0.0722
18824SOL    HW158479   4.260  10.940   2.460 -2.5578  1.5748  0.5819
18824SOL    HW258480   4.161  10.914   2.349  0.7552 -1.4020 -1.9216
18825SOL     OW58481   9.345   7.019   1.359  0.7025 -0.6233  0.0330
18825SOL    HW158482   9.400   6.946   1.388  2.7106  0.4278 -0.9600
18825SOL    HW258483   9.270   7.017   1.418  1.7097 -2.2095  1.3584
18826SOL     OW58484   1.715   0.648   2.683 -0.0584  0.4627 -0.2111
18826SOL    HW158485   1.717   0.672   2.776  0.2243  2.5753 -0.6970
18826SOL    HW258486   1.712   0.553   2.683  0.5998  0.3739  1.9580
18827SOL     OW58487   8.445   5.166  10.338  0.5840  0.9324  0.3474
18827SOL    HW158488   8.376   5.100  10.333  0.3786  1.2130 -1.0853
18827SOL    HW258489   8.526   5.118  10.322  0.3193  1.1540 -2.0658
18828SOL     OW58490   9.955   2.596   7.368  0.2955  0.1501  0.2520
18828SOL    HW158491   9.949   2.649   7.288  2.8647 -0.2063 -0.2692
18828SOL    HW258492  10.049   2.578   7.378  0.0962  0.3264  3.4830
18829SOL     OW58493  10.275   2.569   6.050  0.4582 -0.1203  0.8891
18829SOL    HW158494  10.256   2.519   5.971  1.1332 -0.7152  1.0974
18829SOL    HW258495  10.291   2.658   6.018  1.7214 -0.5560  0.2208
18830SOL     OW58496  10.005   6.379   9.086  0.7204  0.3218  0.6674
18830SOL    HW158497   9.962   6.402   9.168  0.3382  0.5843  0.4004
18830SOL    HW258498  10.009   6.283   9.087  0.6170  0.3201  0.9425
18831SOL     OW58499   6.767   0.571   4.813 -0.2045  0.2822 -0.5258
18831SOL    HW158500   6.725   0.570   4.899  0.0037 -2.0486 -0.4005
18831SOL    HW258501   6.700   0.606   4.754 -0.9335  0.3117  0.3004
18832SOL     OW58502   0.673   6.284   5.936 -0.1778  0.2808  0.2078
18832SOL    HW158503   0.632   6.212   5.889 -0.3043  0.8393 -0.5430
18832SOL    HW258504   0.627   6.362   5.906  1.1158  0.8710 -0.3171
18833SOL     OW58505   3.565   4.388   6.523 -0.0495 -0.0769  1.2311
18833SOL    HW158506   3.527   4.379   6.436  0.4375  0.5098  0.9491
18833SOL    HW258507   3.617   4.469   6.518  3.2269 -2.0280  0.8578
18834SOL     OW58508   2.826   3.979   4.538  0.0299 -0.2204 -0.0458
18834SOL    HW158509   2.886   4.026   4.480  0.0168 -1.5979 -1.2570
18834SOL    HW258510   2.866   3.893   4.549 -1.2583 -0.8665 -0.1470
18835SOL     OW58511  11.012   3.112   1.872  0.3464 -0.3301 -0.1274
18835SOL    HW158512  10.965   3.173   1.929 -2.3806 -0.3451 -2.1719
18835SOL    HW258513  11.020   3.032   1.925 -3.7154 -0.9582 -0.1380
18836SOL     OW58514   6.970   8.283   9.763 -0.6588  0.3592  0.3915
18836SOL    HW158515   7.057   8.313   9.734  0.0597 -0.9077  1.1770
18836SOL    HW258516   6.980   8.266   9.856 -2.0787  1.2445  0.7424
18837SOL     OW58517   5.664   9.017   1.321  0.0155 -0.3804 -0.0873
18837SOL    HW158518   5.729   9.086   1.306 -1.4955  1.1520 -0.0009
18837SOL    HW258519   5.636   8.992   1.233 -0.1519 -0.1559 -0.0985
18838SOL     OW58520   9.036   1.247  10.089 -0.1112  0.5091  0.2208
18838SOL    HW158521   9.053   1.157  10.116 -2.6007 -0.0860 -0.0007
18838SOL    HW258522   9.107   1.267  10.027  0.5310 -1.2383  0.3332
18839SOL     OW58523   1.433   0.501   8.556 -0.0542  0.5077 -0.3613
18839SOL    HW158524   1.494   0.427   8.565 -1.1983 -0.5998 -1.3151
18839SOL    HW258525   1.424   0.536   8.644  0.1484 -0.7993  0.1974
18840SOL     OW58526   8.143   1.285   2.686  0.3883 -0.2991 -0.0829
18840SOL    HW158527   8.207   1.352   2.710  0.8136  0.0641 -2.0970
18840SOL    HW258528   8.059   1.318   2.718  0.7560  0.6779 -0.1152
18841SOL     OW58529   7.686   6.015   5.312  0.6287  0.2999  0.2464
18841SOL    HW158530   7.655   6.012   5.403  1.4008 -0.9348  0.4910
18841SOL    HW258531   7.611   6.047   5.263  0.4159  1.6921  1.4032
18842SOL     OW58532   4.040   1.111   8.754  0.1505 -1.0679 -0.3338
18842SOL    HW158533   3.976   1.105   8.683 -1.3336 -1.1948  0.9577
18842SOL    HW258534   3.990   1.142   8.829  2.1646  1.4798  0.0988
18843SOL     OW58535   4.055  10.334   5.637  0.2457 -1.4403 -0.2600
18843SOL    HW158536   4.047  10.390   5.714  0.3368 -0.4980 -0.9236
18843SOL    HW258537   4.113  10.263   5.665  0.9802 -0.6429  0.2802
18844SOL     OW58538   2.205   1.249   6.310  0.1233  0.0836 -0.6040
18844SOL    HW158539   2.222   1.341   6.289 -1.2528  0.7047  0.8506
18844SOL    HW258540   2.292   1.214   6.330  0.4180  1.7933  1.4836
18845SOL     OW58541   7.137   1.673   2.474  0.1623 -0.4272 -0.4794
18845SOL    HW158542   7.132   1.590   2.521  0.5919  1.5333  3.4571
18845SOL    HW258543   7.052   1.683   2.431 -0.8397 -1.7974  1.0876
18846SOL     OW58544   3.863   7.399   7.845 -0.3242  0.0968 -0.4544
18846SOL    HW158545   3.905   7.347   7.777  0.0780 -1.1829  0.7138
18846SOL    HW258546   3.771   7.376   7.841 -0.0916 -1.0234  0.2923
18847SOL     OW58547   4.311   0.157   5.161  0.5121  0.0355 -0.8343
18847SOL    HW158548   4.344   0.187   5.246 -0.2561  0.6405 -0.7428
18847SOL    HW258549   4.226   0.117   5.180  0.6089 -0.3837 -1.2411
18848SOL     OW58550   7.203   0.136   5.261 -0.0620 -0.0719 -0.2473
18848SOL    HW158551   7.163   0.220   5.238 -2.4602 -1.0231  0.1577
18848SOL    HW258552   7.257   0.155   5.337  0.2537  1.2751 -0.7856
18849SOL     OW58553   7.195  10.444   1.321  0.4835  0.5985 -0.1277
18849SOL    HW158554   7.288  10.422   1.316 -0.1280 -2.4277  0.0787
18849SOL    HW258555   7.163  10.431   1.232  0.2902  1.9531 -0.2694
18850SOL     OW58556  10.030  10.310   5.666  0.3200  0.0994 -0.1589
18850SOL    HW158557  10.051  10.341   5.577  0.0198  2.6872  0.5967
18850SOL    HW258558  10.001  10.220   5.653 -1.7685  1.0137 -3.0210
18851SOL     OW58559   6.277   1.632   0.175 -0.8907  0.2465  0.0584
18851SOL    HW158560   6.339   1.595   0.239  0.8436 -0.9437 -2.1898
18851SOL    HW258561   6.329   1.695   0.125 -1.3618 -0.9882 -2.0910
18852SOL     OW58562   2.651   2.702  10.630  0.8486 -0.0900 -0.3846
18852SOL    HW158563   2.579   2.678  10.688 -0.3068  0.3952 -1.5909
18852SOL    HW258564   2.724   2.720  10.690 -0.4387  0.9091  0.9529
18853SOL     OW58565   8.413   2.792   9.922  0.0845 -0.6859 -0.1944
18853SOL    HW158566   8.431   2.765  10.013  0.1233 -2.4873 -0.6965
18853SOL    HW258567   8.485   2.851   9.900  0.5386 -0.8842  0.6932
18854SOL     OW58568  10.597   6.603   0.178 -0.0560 -0.4785 -0.1536
18854SOL    HW158569  10.521   6.615   0.121  2.3041  2.5628 -3.0373
18854SOL    HW258570  10.608   6.687   0.223  0.7572 -1.3846  1.4656
18855SOL     OW58571   8.857   0.614   9.177  0.0324  0.1902 -0.2893
18855SOL    HW158572   8.944   0.580   9.154  0.4005  1.1941 -0.4435
18855SOL    HW258573   8.821   0.646   9.095  0.4329  1.7546  0.1001
18856SOL     OW58574   6.956   8.389   2.393  0.3413  0.4725 -0.9562
18856SOL    HW158575   7.015   8.463   2.404  0.6445  0.4279 -2.1392
18856SOL    HW258576   7.015   8.314   2.379  0.0229  0.4238 -2.1236
18857SOL     OW58577   7.892   6.543   0.173  0.4254  0.3900  0.1750
18857SOL    HW158578   7.854   6.627   0.148  0.1052 -0.1606 -1.3362
18857SOL    HW258579   7.819   6.491   0.205  0.4333  0.3293  0.0947
18858SOL     OW58580   9.019   3.531   4.903 -0.6751  0.6171 -0.2599
18858SOL    HW158581   9.085   3.532   4.972 -0.8051 -0.2712 -0.1128
18858SOL    HW258582   8.987   3.441   4.902 -1.2079  0.8088 -0.9731
18859SOL     OW58583  10.177   9.121   2.712  0.0841 -0.1789 -0.6615
18859SOL    HW158584  10.098   9.173   2.726  0.8111  0.6086  0.7695
18859SOL    HW258585  10.146   9.031   2.710 -0.9558  0.1672 -1.0608
18860SOL     OW58586   9.459   3.401  10.908  0.2323  0.3166  0.4223
18860SOL    HW158587   9.435   3.361  10.825  1.1721  0.1761  0.2084
18860SOL    HW258588   9.515   3.336  10.951 -0.9471  0.0080  1.5694
18861SOL     OW58589   3.139  10.302   2.596  0.4204 -0.3049  0.2369
18861SOL    HW158590   3.046  10.309   2.572  0.6668 -2.5317 -1.6833
18861SOL    HW258591   3.184  10.286   2.513  2.3256 -1.0099  1.3547
18862SOL     OW58592   9.153   6.134   8.492 -0.6678 -0.2387 -0.0621
18862SOL    HW158593   9.177   6.182   8.413 -0.1404 -0.5080 -0.0723
18862SOL    HW258594   9.184   6.188   8.564  0.0015 -0.5849 -0.0751
18863SOL     OW58595   5.069   3.378   1.729  0.3209 -0.3309 -0.0470
18863SOL    HW158596   5.034   3.384   1.818 -1.0690 -0.1816 -0.5800
18863SOL    HW258597   5.065   3.285   1.707  0.0286 -0.2847 -0.1935
18864SOL     OW58598   8.085   0.458   1.311 -0.3612  0.6897 -0.7632
18864SOL    HW158599   8.104   0.393   1.243 -0.2244 -0.0444 -0.0279
18864SOL    HW258600   8.171   0.486   1.342 -0.3984  1.7261 -1.5286
18865SOL     OW58601   7.585   7.287   4.855 -0.6522  0.1523 -0.0300
18865SOL    HW158602   7.609   7.329   4.773 -1.1509 -1.1118 -0.8513
18865SOL    HW258603   7.515   7.341   4.891 -0.6951  0.4929 -0.6323
18866SOL     OW58604  10.426   0.926   7.350  0.1465  0.4553 -0.5974
18866SOL    HW158605  10.362   0.875   7.400 -2.0511  1.5409 -2.1813
18866SOL    HW258606  10.496   0.863   7.330  0.4808 -0.3683  2.5575
18867SOL     OW58607   8.618   1.574   9.734 -0.0058 -0.1815  0.3850
18867SOL    HW158608   8.633   1.537   9.821 -0.4437  1.7593  1.3477
18867SOL    HW258609   8.672   1.520   9.676  1.2860 -0.7728  2.0291
18868SOL     OW58610   3.058   6.392   1.505 -0.4249  0.2246  0.1455
18868SOL    HW158611   3.120   6.461   1.525  1.8362 -1.4226 -0.7442
18868SOL    HW258612   3.066   6.380   1.410 -0.2940 -1.6355  0.3598
18869SOL     OW58613   9.164   1.776   1.904  0.5106  0.7433 -0.3393
18869SOL    HW158614   9.136   1.803   1.991 -0.5713  1.6390 -0.9470
18869SOL    HW258615   9.085   1.745   1.861  0.7483  1.6201 -1.4698
18870SOL     OW58616   8.711   3.271   3.893 -0.2734  0.0372  0.6486
18870SOL    HW158617   8.699   3.279   3.988  1.3428  2.6663  0.7550
18870SOL    HW258618   8.625   3.291   3.856 -0.6666  0.0849  1.5568
18871SOL     OW58619   7.987   1.278   1.568  0.1355  0.6124  0.3829
18871SOL    HW158620   7.978   1.200   1.623  2.4077  0.7027  0.9833
18871SOL    HW258621   7.912   1.333   1.592 -2.6735 -2.1122 -1.4675
18872SOL     OW58622  10.150   4.590   0.480  0.1592 -0.0323  0.3770
18872SOL    HW158623  10.059   4.613   0.460  0.7782  0.0849 -2.8989
18872SOL    HW258624  10.145   4.541   0.562 -2.8132  0.2589  0.4754
18873SOL     OW58625   6.148   6.477   2.018  1.2087  0.0262  0.3060
18873SOL    HW158626   6.206   6.478   2.094 -2.1339  1.3242  3.1052
18873SOL    HW258627   6.153   6.566   1.982 -0.7949  0.9960  2.1915
18874SOL     OW58628   9.049   3.576   0.768  0.5959 -0.4736 -0.6636
18874SOL    HW158629   8.985   3.583   0.696  0.1452  1.0975 -0.1605
18874SOL    HW258630   9.024   3.496   0.813 -0.9964  0.0368 -0.5473
18875SOL     OW58631  10.550   7.830   2.955  0.3826  0.3042 -0.3697
18875SOL    HW158632  10.495   7.884   2.899 -1.3325  0.6492  1.5458
18875SOL    HW258633  10.625   7.887   2.977 -1.9917  2.6521  2.6555
18876SOL     OW58634   0.215   6.157   1.311 -0.0193 -0.2599  0.1394
18876SOL    HW158635   0.161   6.233   1.333  0.4054 -0.0287  0.3959
18876SOL    HW258636   0.209   6.100   1.388 -1.0353 -0.9019 -0.3899
18877SOL     OW58637  10.519  10.081   2.881  0.3654 -0.2468  0.1185
18877SOL    HW158638  10.542   9.999   2.837 -2.8156 -0.0066 -2.3373
18877SOL    HW258639  10.559  10.149   2.826 -0.0158 -0.0779  0.0449
18878SOL     OW58640   2.131   3.818   6.784  0.0116 -0.0177  0.2580
18878SOL    HW158641   2.115   3.898   6.734  2.3322 -0.5014 -1.4084
18878SOL    HW258642   2.208   3.837   6.838 -1.2655 -0.1713  2.2604
18879SOL     OW58643   0.086   2.738   7.033 -0.0935 -0.1882  0.0286
18879SOL    HW158644   0.112   2.652   6.999 -0.0407 -0.1739  0.0327
18879SOL    HW258645   0.148   2.799   6.994 -1.4739  0.1530 -1.7360
18880SOL     OW58646   2.714  10.858   2.696  0.1093 -0.0564  0.3097
18880SOL    HW158647   2.664  10.905   2.763  0.8681  0.3797  0.5872
18880SOL    HW258648   2.717  10.920   2.622  1.7601  0.6806  0.9510
18881SOL     OW58649  10.639   3.759   7.529 -0.5851  0.0738 -0.2436
18881SOL    HW158650  10.588   3.709   7.465  0.5073 -1.1140 -0.2117
18881SOL    HW258651  10.585   3.837   7.547 -2.0246 -0.7655 -0.7744
18882SOL     OW58652   0.120   6.828   6.881  0.2957 -0.3709  0.2836
18882SOL    HW158653   0.033   6.868   6.877 -0.6261 -2.3314 -1.5951
18882SOL    HW258654   0.175   6.884   6.826 -0.2217 -0.0573  0.0795
18883SOL     OW58655   3.711   6.701   4.811 -0.3722  0.0821  0.0686
18883SOL    HW158656   3.707   6.745   4.726 -2.1442  0.1140  0.1432
18883SOL    HW258657   3.624   6.712   4.848  0.5174  0.5219  2.1436
18884SOL     OW58658   4.338   6.486   9.979 -0.5034  0.8484 -1.0197
18884SOL    HW158659   4.343   6.411   9.921 -0.2590 -0.5137  0.6938
18884SOL    HW258660   4.328   6.449  10.067 -0.7938  2.8184 -0.1590
18885SOL     OW58661   1.881  10.669   0.014  0.2155  0.3996 -0.5172
18885SOL    HW158662   1.837  10.606  -0.043 -1.1317 -0.3102  1.2195
18885SOL    HW258663   1.913  10.616   0.087 -0.8116  1.6864  0.9076
18886SOL     OW58664   3.825   6.895   8.219  0.2181  0.4492  0.3306
18886SOL    HW158665   3.770   6.916   8.143  0.8927  2.8325  0.4456
18886SOL    HW258666   3.891   6.835   8.184 -0.1498  0.6099 -0.6863
18887SOL     OW58667   0.318   6.399   5.130 -0.1147 -0.3756  0.2917
18887SOL    HW158668   0.262   6.468   5.165  0.6681  0.3528  0.1312
18887SOL    HW258669   0.319   6.414   5.035  1.1883  0.2716  0.3898
18888SOL     OW58670   2.497   6.667   0.970  0.0709 -0.1737 -0.0152
18888SOL    HW158671   2.560   6.696   1.036  1.1624 -0.1716 -1.0340
18888SOL    HW258672   2.417   6.716   0.991  1.4493  2.6700 -0.8809
18889SOL     OW58673  10.490   5.488   6.866 -0.5394  0.0058  0.3126
18889SOL    HW158674  10.496   5.414   6.806 -0.0944 -0.3279  0.7648
18889SOL    HW258675  10.396   5.501   6.879 -0.6107 -0.8594  0.6920
18890SOL     OW58676   4.979   1.652   0.132  0.9986  0.3530 -0.1065
18890SOL    HW158677   5.069   1.655   0.099  0.8978 -1.0376 -0.5463
18890SOL    HW258678   4.971   1.566   0.173 -0.4675 -0.0016 -1.0474
18891SOL     OW58679   7.848   1.070   7.660 -0.3160  0.1640  0.5551
18891SOL    HW158680   7.794   1.023   7.723  1.1029 -1.4922  0.6176
18891SOL    HW258681   7.819   1.037   7.575 -1.0667  1.1334  0.4177
18892SOL     OW58682   0.606   3.341   9.086  0.3228  0.4224 -0.1479
18892SOL    HW158683   0.563   3.427   9.079  0.3145  0.3932 -0.4511
18892SOL    HW258684   0.566   3.288   9.017 -0.4767 -0.1795  0.7560
18893SOL     OW58685   4.210   3.729   8.655  0.1818 -1.4376  0.1010
18893SOL    HW158686   4.305   3.733   8.660  0.3238  4.7411 -0.6696
18893SOL    HW258687   4.189   3.763   8.568 -2.7125 -0.8962  0.9116
18894SOL     OW58688   5.138   8.443   8.672 -0.0750  0.6072 -0.4689
18894SOL    HW158689   5.148   8.382   8.599 -1.5727  1.8976 -1.8255
18894SOL    HW258690   5.189   8.519   8.646  0.9346  0.3741  0.7413
18895SOL     OW58691   7.368   8.779   2.678 -0.1296  0.2127 -0.2021
18895SOL    HW158692   7.310   8.757   2.751 -0.1394 -0.8108 -0.4904
18895SOL    HW258693   7.412   8.696   2.658  1.4719  0.9775  0.0411
18896SOL     OW58694   0.556  10.786   6.368 -0.0409  0.5188  0.0686
18896SOL    HW158695   0.615  10.751   6.435  1.5911  1.8007 -0.6277
18896SOL    HW258696   0.472  10.795   6.412  1.0394  1.5520  2.0420
18897SOL     OW58697   9.765   1.205   5.153 -0.1897  0.3053  0.1906
18897SOL    HW158698   9.709   1.138   5.115 -1.9736  1.2648  1.0356
18897SOL    HW258699   9.853   1.166   5.152 -1.2512 -2.3025  1.2428
18898SOL     OW58700   4.789   2.105   6.448  0.2133  0.1096  0.1074
18898SOL    HW158701   4.727   2.046   6.405 -0.9092 -0.2148  2.0462
18898SOL    HW258702   4.737   2.181   6.472  1.0501  0.7256  0.0142
18899SOL     OW58703   6.228   7.148   2.429 -0.6027  0.4619 -0.3529
18899SOL    HW158704   6.317   7.182   2.439 -0.4577  0.9714 -2.7694
18899SOL    HW258705   6.238   7.073   2.371 -1.7762  0.6764 -0.8528
18900SOL     OW58706   6.274   0.241   6.864  0.1893 -0.4623  0.0269
18900SOL    HW158707   6.333   0.232   6.790  0.2289 -2.2678  0.2423
18900SOL    HW258708   6.209   0.306   6.836  0.8274 -0.3136 -1.1464
18901SOL     OW58709   6.382   1.773   2.558 -0.2724  0.4256 -0.0548
18901SOL    HW158710   6.408   1.779   2.650 -1.3508  1.1742  0.2102
18901SOL    HW258711   6.464   1.784   2.510  0.1292  1.2103  0.7895
18902SOL     OW58712   7.466   9.466   7.258  0.6480  0.2862 -0.7931
18902SOL    HW158713   7.402   9.410   7.300 -0.2036  2.5432  1.1612
18902SOL    HW258714   7.548   9.450   7.305  0.1703  1.3299  0.4467
18903SOL     OW58715   0.168   6.789   6.456 -0.9433  0.2876 -0.1678
18903SOL    HW158716   0.251   6.785   6.504 -1.8944  0.3180  1.5944
18903SOL    HW258717   0.193   6.802   6.365  0.9664  1.1122  0.4205
18904SOL     OW58718   7.733   9.759  10.704 -0.0474 -0.3921 -0.6759
18904SOL    HW158719   7.791   9.748  10.629 -0.7646 -1.8626 -1.0644
18904SOL    HW258720   7.784   9.808  10.768 -0.2676  3.2573 -3.0258
18905SOL     OW58721  10.293   6.448   5.414  0.5617 -0.0135 -0.5251
18905SOL    HW158722  10.245   6.506   5.474  2.3207  0.8612  0.0914
18905SOL    HW258723  10.240   6.449   5.334  0.1146  1.8352 -0.2677
18906SOL     OW58724   9.409   1.621   4.648 -0.3395 -0.3126  0.0987
18906SOL    HW158725   9.420   1.716   4.656  0.1817 -0.2530 -1.1182
18906SOL    HW258726   9.488   1.592   4.602 -0.0677 -1.4727  1.2527
18907SOL     OW58727   4.762   3.032   9.932  0.5838  0.7402  0.1694
18907SOL    HW158728   4.744   2.983   9.852  0.3465  1.7572 -0.4271
18907SOL    HW258729   4.834   3.091   9.908  0.4762  1.0827  0.6859
18908SOL     OW58730   0.319   2.610   3.257 -0.7601 -0.2680  0.5857
18908SOL    HW158731   0.406   2.579   3.281 -1.1123 -0.5738  1.5257
18908SOL    HW258732   0.291   2.663   3.332 -0.3916  1.9344 -0.7473
18909SOL     OW58733   0.404   5.885   1.437  0.0858 -0.1834  0.8023
18909SOL    HW158734   0.355   5.948   1.490  0.0821  0.6603 -0.1721
18909SOL    HW258735   0.342   5.856   1.370  0.2287 -0.8751  0.9589
18910SOL     OW58736   5.724   1.205   9.480 -0.4432 -0.1962 -0.1081
18910SOL    HW158737   5.759   1.136   9.425 -0.7630 -0.1617 -0.3571
18910SOL    HW258738   5.779   1.281   9.460 -0.2359 -0.3164  0.0002
18911SOL     OW58739   2.704   2.981   6.664 -0.5712  0.0191  0.2424
18911SOL    HW158740   2.793   2.995   6.631 -0.6715  0.5805  0.2033
18911SOL    HW258741   2.658   3.063   6.646 -0.3461  0.7564  2.6673
18912SOL     OW58742   8.621   0.259   6.573 -0.3256  0.7096  0.5902
18912SOL    HW158743   8.711   0.255   6.607  0.2397  3.4447 -0.3126
18912SOL    HW258744   8.606   0.173   6.533  1.8631  0.1674  0.8071
18913SOL     OW58745   1.349   1.861   7.920  0.1962 -0.5045 -0.8089
18913SOL    HW158746   1.326   1.905   8.002  0.8213 -0.6291 -0.5645
18913SOL    HW258747   1.280   1.796   7.907 -0.2410 -0.0621 -0.7026
18914SOL     OW58748   2.896   1.904   2.944  0.3556 -0.1137  0.0670
18914SOL    HW158749   2.941   1.833   2.991  0.1196 -0.7285 -0.6197
18914SOL    HW258750   2.955   1.979   2.953  0.7142 -0.4460  0.6200
18915SOL     OW58751   3.739   1.905   7.189 -0.1143 -0.3836  0.2383
18915SOL    HW158752   3.650   1.895   7.156 -1.0365  3.6602  0.9919
18915SOL    HW258753   3.790   1.930   7.112 -0.3699  0.5655  0.3747
18916SOL     OW58754   8.601   6.112   8.443 -1.4118 -0.4810  0.3568
18916SOL    HW158755   8.693   6.126   8.462 -0.4743 -0.1202 -3.5742
18916SOL    HW258756   8.558   6.192   8.475 -0.6982 -1.1137  3.2235
18917SOL     OW58757   7.118   9.481  10.102 -1.1447  0.4583 -0.0732
18917SOL    HW158758   7.096   9.395  10.064 -0.6083 -0.2915  1.2678
18917SOL    HW258759   7.122   9.540  10.026  0.4791 -1.1004 -1.2642
18918SOL     OW58760   5.575   6.445   7.519  0.6422  0.3736 -0.3898
18918SOL    HW158761   5.555   6.530   7.558  0.7206 -0.0277  0.5507
18918SOL    HW258762   5.496   6.394   7.531  0.8461  0.0791 -0.2915
18919SOL     OW58763   4.968  10.712   5.737  0.4261 -0.6961  0.1557
18919SOL    HW158764   4.912  10.680   5.808 -0.0279  1.5770  0.9017
18919SOL    HW258765   4.914  10.774   5.689  1.7667  0.2678 -0.1758
18920SOL     OW58766   8.766   8.527   9.387  0.2796  0.4066  0.3629
18920SOL    HW158767   8.798   8.445   9.422  0.7208  1.6115  3.0144
18920SOL    HW258768   8.776   8.590   9.459  1.6829  3.2305 -2.0538
18921SOL     OW58769   4.901   2.583  10.609 -0.4962  0.6608 -0.1435
18921SOL    HW158770   4.923   2.495  10.577 -3.3148 -0.3993  0.5084
18921SOL    HW258771   4.971   2.603  10.672  1.1473 -0.3178 -1.5540
18922SOL     OW58772   3.441   1.345   6.812 -0.5834 -0.4115  0.0330
18922SOL    HW158773   3.509   1.411   6.800 -0.7231  0.2983  2.5584
18922SOL    HW258774   3.394   1.343   6.728  0.6592  1.2326 -0.7624
18923SOL     OW58775   0.480   5.953   2.675  0.6907 -0.3259  0.0930
18923SOL    HW158776   0.439   5.871   2.704 -0.2100 -0.0618 -0.3747
18923SOL    HW258777   0.406   6.013   2.663  0.8911 -0.5841 -3.2542
18924SOL     OW58778   7.573   4.418  10.107  0.3051  0.5343 -0.3806
18924SOL    HW158779   7.531   4.352  10.161 -0.4182  2.2536  1.2720
18924SOL    HW258780   7.665   4.392  10.104 -0.3742 -1.9810 -2.0766
18925SOL     OW58781   7.027   0.351   2.540 -0.0657  0.0500 -0.2641
18925SOL    HW158782   7.075   0.432   2.558  2.0477 -1.5299  1.8693
18925SOL    HW258783   6.955   0.352   2.602  1.6604 -0.9152  1.9264
18926SOL     OW58784   6.461   3.538   7.847 -0.1040  0.2782 -0.0117
18926SOL    HW158785   6.495   3.477   7.913 -0.6001 -1.5159 -1.3290
18926SOL    HW258786   6.539   3.578   7.808  0.2573  0.1055  0.5336
18927SOL     OW58787   0.427   0.245   8.800 -0.3514 -0.0056  0.0288
18927SOL    HW158788   0.400   0.153   8.797 -0.3404 -0.0015 -0.2258
18927SOL    HW258789   0.490   0.249   8.872 -1.9895  0.2570  1.5137
18928SOL     OW58790   9.207   3.543   4.508 -0.1989 -0.1225 -0.0695
18928SOL    HW158791   9.253   3.587   4.580 -0.7764  0.8386 -0.2548
18928SOL    HW258792   9.116   3.572   4.517 -0.9041 -2.3313  0.5653
18929SOL     OW58793   8.210   7.016   1.958 -0.1897 -0.0600 -0.0755
18929SOL    HW158794   8.304   7.001   1.962  0.4607  3.2666  0.4972
18929SOL    HW258795   8.188   7.050   2.045 -1.7739 -0.0505 -0.4471
18930SOL     OW58796   1.258   2.254   7.698  0.0331  0.0513  1.0153
18930SOL    HW158797   1.188   2.206   7.654  0.2002  1.9103 -1.4827
18930SOL    HW258798   1.278   2.326   7.640  1.8831  1.4198  3.1730
18931SOL     OW58799   6.621   9.930   2.304  0.4931 -0.1196 -0.2161
18931SOL    HW158800   6.569   9.869   2.252  1.4576  0.8971 -2.5021
18931SOL    HW258801   6.662   9.988   2.240  1.6196  1.3499  1.7134
18932SOL     OW58802   9.639   4.275   3.391  0.0175 -0.3559 -0.0501
18932SOL    HW158803   9.658   4.270   3.485  1.0071  0.5909 -0.1732
18932SOL    HW258804   9.724   4.293   3.351 -0.5022 -0.1204 -1.0719
18933SOL     OW58805   9.799   4.783   8.911 -0.6969  0.0082  0.5649
18933SOL    HW158806   9.861   4.750   8.976  1.3982 -0.0952 -1.3505
18933SOL    HW258807   9.774   4.706   8.860 -1.2692  0.2807  0.4283
18934SOL     OW58808   9.332   5.490   6.486 -1.0212 -0.4115  0.3626
18934SOL    HW158809   9.296   5.561   6.539 -1.3922  0.5181 -1.0560
18934SOL    HW258810   9.327   5.523   6.396  0.4023 -1.5560 -0.1785
18935SOL     OW58811   8.420   6.593   0.761  0.5326 -0.2885 -0.0864
18935SOL    HW158812   8.469   6.529   0.709  0.0458 -1.1364  0.4733
18935SOL    HW258813   8.442   6.572   0.852  0.7145  0.6340  0.0912
18936SOL     OW58814   5.493   3.943   0.616  0.3644 -0.4913 -0.1107
18936SOL    HW158815   5.573   3.967   0.663  0.7419 -0.3278 -0.8351
18936SOL    HW258816   5.519   3.868   0.562  0.4866  0.6252 -1.6454
18937SOL     OW58817   3.174   3.120   5.196  0.9190 -0.4425 -0.0948
18937SOL    HW158818   3.194   3.028   5.214  1.6699 -0.1331  0.7348
18937SOL    HW258819   3.247   3.150   5.142  1.2870 -0.0377  0.6080
18938SOL     OW58820   8.300   6.514   5.931  0.0972  0.2836  0.1933
18938SOL    HW158821   8.300   6.422   5.956 -3.1565  0.4202  1.1397
18938SOL    HW258822   8.313   6.561   6.014 -0.5299  0.6746  0.0737
18939SOL     OW58823   3.963   5.309   4.826  0.0734 -1.1137  0.2679
18939SOL    HW158824   3.929   5.364   4.896 -0.6382  0.1695 -1.0215
18939SOL    HW258825   4.057   5.304   4.842  0.4149  1.7719 -0.3788
18940SOL     OW58826   4.075   3.860   0.860  0.0657 -0.3714  0.4888
18940SOL    HW158827   4.164   3.835   0.833 -0.2061  0.7602 -1.7443
18940SOL    HW258828   4.019   3.795   0.819 -0.2618  0.3823 -0.2915
18941SOL     OW58829   7.656   9.811  10.179 -0.3976 -0.3144 -0.1294
18941SOL    HW158830   7.653   9.898  10.219 -0.2886 -0.5774  0.4595
18941SOL    HW258831   7.569   9.775  10.195 -0.8388  0.1353 -1.4129
18942SOL     OW58832   2.632  10.412   8.768  0.2671  0.0773 -0.1276
18942SOL    HW158833   2.562  10.375   8.822 -0.5831  3.6701  1.5814
18942SOL    HW258834   2.608  10.504   8.758  4.1101  1.2128 -0.5261
18943SOL     OW58835   1.934   8.645   9.526  0.4934  0.0327 -0.0912
18943SOL    HW158836   1.852   8.655   9.478  0.5397 -0.6613 -0.3272
18943SOL    HW258837   2.000   8.690   9.472  0.0257  1.9529  0.8538
18944SOL     OW58838   5.944   3.136   6.436  0.1796 -0.4353  1.1905
18944SOL    HW158839   5.939   3.159   6.529  1.1000 -1.0699  1.4200
18944SOL    HW258840   6.030   3.169   6.408  0.0012 -0.4479  0.6281
18945SOL     OW58841   5.119   4.731   4.203 -0.2518  0.4088  0.2496
18945SOL    HW158842   5.194   4.679   4.231 -1.4940 -3.1385 -2.3066
18945SOL    HW258843   5.043   4.677   4.224 -1.5820  0.5494 -3.4921
18946SOL     OW58844   8.725   4.560   8.121  0.4976 -0.6245 -0.1820
18946SOL    HW158845   8.676   4.520   8.193  0.7936  1.0377  1.0086
18946SOL    HW258846   8.668   4.549   8.045 -0.7927 -0.6077  0.7341
18947SOL     OW58847   2.067   5.328  10.571  0.4790 -0.0150  0.4921
18947SOL    HW158848   1.982   5.331  10.615  0.4696  0.7488  0.4454
18947SOL    HW258849   2.057   5.264  10.501 -0.6907  1.4542 -0.7701
18948SOL     OW58850   0.815  11.145   2.502 -0.0478 -0.1741 -0.6976
18948SOL    HW158851   0.737  11.144   2.447 -1.5889  1.4579  1.3117
18948SOL    HW258852   0.839  11.238   2.509  0.7189 -0.4371  0.5072
18949SOL     OW58853   6.625  10.999   0.834 -0.1940  0.0958 -0.6675
18949SOL    HW158854   6.556  10.940   0.805  0.3434 -1.5617  1.2090
18949SOL    HW258855   6.680  10.946   0.890  2.8590  1.2537 -2.3248
18950SOL     OW58856   9.180   4.963   2.252 -0.4810  0.2699  0.0935
18950SOL    HW158857   9.104   5.021   2.247 -0.6244 -0.0207 -1.7432
18950SOL    HW258858   9.146   4.877   2.226 -0.1020 -0.4937  1.9881
18951SOL     OW58859   5.763   1.874   0.700 -0.2361  0.9358  0.0863
18951SOL    HW158860   5.681   1.923   0.688 -0.6929 -0.2135 -2.0419
18951SOL    HW258861   5.826   1.919   0.643 -0.3370 -0.1723 -0.9317
18952SOL     OW58862   9.916   2.894  10.789 -0.0960 -0.1180  0.3800
18952SOL    HW158863   9.868   2.976  10.776  1.1990  0.6103  0.0385
18952SOL    HW258864   9.941   2.867  10.700  0.6043 -0.1957  0.6012
18953SOL     OW58865   7.487   7.352  10.665 -0.3526 -0.2058  0.0795
18953SOL    HW158866   7.551   7.348  10.594 -1.6333  1.3026 -1.2245
18953SOL    HW258867   7.403   7.364  10.621 -0.9979  2.6099  1.8494
18954SOL     OW58868   5.601  10.733   9.904  0.3664 -0.0155  0.5892
18954SOL    HW158869   5.548  10.654   9.909  0.4784 -0.3077 -1.7717
18954SOL    HW258870   5.604  10.754   9.811  3.7773  0.4141  0.6715
18955SOL     OW58871   8.066   6.948   2.484  0.4864 -0.2512  0.1346
18955SOL    HW158872   8.089   7.041   2.480 -0.1058 -0.0713  0.7371
18955SOL    HW258873   7.992   6.944   2.545 -0.1509 -0.9945 -0.6592
18956SOL     OW58874   4.438   7.185   2.840 -0.9055 -0.6153 -0.0524
18956SOL    HW158875   4.454   7.093   2.817  0.3485 -0.2524 -0.7053
18956SOL    HW258876   4.493   7.235   2.779  0.8187  0.4760  2.2644
18957SOL     OW58877   4.119  11.000   7.413 -0.0355 -0.1586  0.0949
18957SOL    HW158878   4.029  11.000   7.380 -0.1058 -3.2336  0.0499
18957SOL    HW258879   4.112  10.964   7.501  1.0425  0.8476  0.6159
18958SOL     OW58880  10.185   3.499   2.705 -0.3414  0.0315 -0.5230
18958SOL    HW158881  10.177   3.490   2.610  2.8877 -1.4584 -0.8106
18958SOL    HW258882  10.171   3.411   2.739  1.5609 -0.1332 -0.0235
18959SOL     OW58883   2.090   1.451   6.129 -0.2478 -0.1123  0.0490
18959SOL    HW158884   2.028   1.483   6.195 -1.6599 -1.2029 -0.7269
18959SOL    HW258885   2.092   1.356   6.141 -0.8720 -0.3866 -1.7444
18960SOL     OW58886   7.096   0.877  10.179  0.1618  0.2561 -0.1625
18960SOL    HW158887   7.092   0.811  10.249 -1.6996 -1.7301 -1.9710
18960SOL    HW258888   7.009   0.916  10.179  0.8149  1.7550 -0.0617
18961SOL     OW58889   6.102   3.610   0.069  0.4547  0.1628  0.1290
18961SOL    HW158890   6.185   3.579   0.032  0.1246 -0.0213 -0.4643
18961SOL    HW258891   6.095   3.700   0.039  1.1513  0.6757  1.4101
18962SOL     OW58892   5.250   2.730   5.012 -0.3794  0.5622  0.9435
18962SOL    HW158893   5.291   2.694   4.933 -2.4130 -0.6807  0.3825
18962SOL    HW258894   5.305   2.699   5.084  0.6244  0.4103  0.1414
18963SOL     OW58895   4.457   4.765   1.947  0.0591 -0.5402 -0.1068
18963SOL    HW158896   4.501   4.683   1.923  0.2014 -0.7108  0.7096
18963SOL    HW258897   4.369   4.738   1.974  0.1719 -0.4459  0.3538
18964SOL     OW58898   9.133   5.119   9.498 -0.1947 -0.0149  0.5533
18964SOL    HW158899   9.224   5.115   9.528 -0.1795 -0.7233  0.4277
18964SOL    HW258900   9.109   5.028   9.480 -0.9510  0.1555  0.6459
18965SOL     OW58901  10.394   4.535   2.652 -0.5140 -0.5071  0.3418
18965SOL    HW158902  10.362   4.548   2.563 -1.8646 -1.9211  0.5786
18965SOL    HW258903  10.317   4.552   2.707  0.5994  1.6216  1.3838
18966SOL     OW58904   7.402   2.108   2.650 -0.2345  0.1677  0.1715
18966SOL    HW158905   7.328   2.168   2.660 -0.1817  0.3898 -0.6890
18966SOL    HW258906   7.363   2.029   2.611 -0.2953 -0.3480  1.2405
18967SOL     OW58907   4.155   3.454   0.435 -0.1689  0.3103 -0.6191
18967SOL    HW158908   4.214   3.444   0.361 -2.5660  1.4710 -2.8131
18967SOL    HW258909   4.091   3.383   0.425  0.2315 -0.3694  1.1861
18968SOL     OW58910  10.410   9.662   0.535  0.2408 -0.0762  0.1311
18968SOL    HW158911  10.382   9.600   0.602  0.1106  0.3732  0.4977
18968SOL    HW258912  10.407   9.613   0.453 -4.1057  0.5314 -0.3206
18969SOL     OW58913   8.361  11.264   6.637 -0.2862  0.1065  0.0967
18969SOL    HW158914   8.342  11.171   6.621  0.8533 -0.5073  1.9511
18969SOL    HW258915   8.281  11.298   6.677 -0.5895 -0.1569 -0.2744
18970SOL     OW58916   6.302   3.439   0.114 -0.0059  0.1253  0.3892
18970SOL    HW158917   6.367   3.380   0.076 -0.8081 -0.8113  0.4079
18970SOL    HW258918   6.243   3.381   0.162 -2.0985  0.6505 -1.3989
18971SOL     OW58919  10.453   4.037  10.445 -0.4667  0.4688 -0.3988
18971SOL    HW158920  10.375   4.075  10.405 -1.6310 -0.0443  1.2476
18971SOL    HW258921  10.448   4.063  10.537 -0.0424 -1.6112  0.2705
18972SOL     OW58922   6.646   0.465   7.930  0.1344 -0.2047 -0.4065
18972SOL    HW158923   6.623   0.558   7.927  1.9816  0.2834 -0.3381
18972SOL    HW258924   6.588   0.424   7.866 -1.8806  0.6962  0.7327
18973SOL     OW58925   4.631   4.255   6.948 -0.4701 -0.4966 -0.5273
18973SOL    HW158926   4.683   4.330   6.922 -1.0454  0.1426  0.1089
18973SOL    HW258927   4.541   4.278   6.922 -0.9296 -0.2025  1.1444
18974SOL     OW58928   7.032   4.029  11.141 -0.7441 -0.2916 -0.1719
18974SOL    HW158929   7.035   3.961  11.073 -2.4317 -2.0562  1.3906
18974SOL    HW258930   6.957   4.083  11.117 -1.2606 -0.8369  0.1890
18975SOL     OW58931   7.698   4.234   4.855  0.4419 -0.1969 -0.0879
18975SOL    HW158932   7.729   4.226   4.765 -1.0384 -3.0554 -0.4717
18975SOL    HW258933   7.692   4.143   4.886 -2.9201  0.3889  1.4409
18976SOL     OW58934   1.040  10.553   5.637  0.2228 -0.2703  0.0809
18976SOL    HW158935   1.122  10.509   5.661  0.0001  0.9489  3.5251
18976SOL    HW258936   1.067  10.635   5.596  0.6275 -1.3590 -1.9674
18977SOL     OW58937   3.140   6.145  10.034  0.1848 -0.1799  0.1936
18977SOL    HW158938   3.055   6.111  10.064  0.5299  0.5178  2.1305
18977SOL    HW258939   3.205   6.094  10.081  0.7262  2.3486  2.4433
18978SOL     OW58940   8.734   9.125   2.197 -0.0877 -0.2219 -0.1353
18978SOL    HW158941   8.699   9.159   2.280  0.1707  1.1669 -0.5704
18978SOL    HW258942   8.825   9.105   2.217  0.0557  0.3926 -0.1502
18979SOL     OW58943   1.149   2.360   0.364 -0.0939 -0.0696 -0.3934
18979SOL    HW158944   1.100   2.442   0.371 -0.1598 -0.1168 -0.2924
18979SOL    HW258945   1.241   2.386   0.375 -0.1478 -0.0610  0.0295
18980SOL     OW58946   6.937   1.652   8.736  0.0820  0.2562  0.1011
18980SOL    HW158947   7.031   1.667   8.742 -0.1334  2.2801 -0.7427
18980SOL    HW258948   6.923   1.620   8.647 -0.2661  2.7241 -0.8140
18981SOL     OW58949   7.221   4.476   7.686  0.7914 -0.2395  0.1767
18981SOL    HW158950   7.178   4.425   7.755  2.1067 -0.1483  1.1191
18981SOL    HW258951   7.236   4.414   7.615  0.3782 -0.6015  0.4029
18982SOL     OW58952  10.903   1.907   4.056 -0.0044  1.1085 -0.3259
18982SOL    HW158953  10.934   1.989   4.093 -1.7381  0.7029  2.2213
18982SOL    HW258954  10.827   1.931   4.003  1.6306  1.5034 -2.6551
18983SOL     OW58955   3.915   8.243   8.029  0.5508 -0.4157 -0.0032
18983SOL    HW158956   3.901   8.255   8.122 -0.0839 -1.4041  0.0449
18983SOL    HW258957   3.903   8.330   7.991  2.2000  0.2841  0.9744
18984SOL     OW58958   0.267  10.502   2.963 -0.3797  0.5781  0.3915
18984SOL    HW158959   0.185  10.510   2.914 -0.8662  0.8473  1.2125
18984SOL    HW258960   0.262  10.572   3.028 -0.2735 -0.4322  1.5261
18985SOL     OW58961   4.075   5.934   5.445 -0.6353 -0.5326  0.2329
18985SOL    HW158962   4.138   5.930   5.517  0.3321  0.7192 -0.4999
18985SOL    HW258963   4.081   5.849   5.403  0.8274 -0.3282 -0.0166
18986SOL     OW58964   3.672   4.061   7.587  0.0916  1.0381  0.2355
18986SOL    HW158965   3.756   4.050   7.632 -0.7402  1.3071  1.9358
18986SOL    HW258966   3.690   4.124   7.517  1.5226  0.3076 -0.0846
18987SOL     OW58967   7.730   7.296   6.062  0.0359  0.7410  0.1965
18987SOL    HW158968   7.685   7.357   6.121  1.3410  1.5185  0.4368
18987SOL    HW258969   7.821   7.327   6.061  0.6430 -0.9371 -0.0344
18988SOL     OW58970   5.907   7.772   3.120 -0.1368 -0.3564 -0.1430
18988SOL    HW158971   5.927   7.686   3.083  1.1563 -0.7217  1.2870
18988SOL    HW258972   5.991   7.818   3.121 -0.7271  0.7639 -0.4649
18989SOL     OW58973   6.083   3.230   9.818 -0.0542  0.3047 -0.2742
18989SOL    HW158974   6.120   3.144   9.840 -0.1206 -0.2192 -2.0391
18989SOL    HW258975   6.155   3.291   9.833  0.4833 -0.2673 -0.4264
18990SOL     OW58976   8.112   2.084   8.115  0.7761  0.0748 -0.0677
18990SOL    HW158977   8.038   2.042   8.160  0.3986 -0.3148 -1.0391
18990SOL    HW258978   8.189   2.039   8.148  0.4023 -1.1767 -0.8502
18991SOL     OW58979   3.138   8.593   4.335  0.3092 -0.5896 -1.1583
18991SOL    HW158980   3.124   8.674   4.286 -0.1467 -1.1528 -1.9718
18991SOL    HW258981   3.059   8.583   4.389  1.1216  0.4166  0.3041
18992SOL     OW58982   2.956   2.628  10.775  0.1691 -0.4094  0.4639
18992SOL    HW158983   2.987   2.544  10.744  0.2890 -0.5670  1.0028
18992SOL    HW258984   2.979   2.690  10.705  1.2105 -0.6094  0.6100
18993SOL     OW58985   5.510   6.460   5.997  0.4294 -0.3589  0.0019
18993SOL    HW158986   5.594   6.450   6.041  1.0301 -1.2535 -1.2679
18993SOL    HW258987   5.497   6.377   5.951 -1.4504 -0.4675  0.6504
18994SOL     OW58988   7.118   8.998   2.698 -0.2712 -0.8262  0.0848
18994SOL    HW158989   7.154   9.057   2.632 -0.3762 -0.0139  0.7322
18994SOL    HW258990   7.049   9.050   2.741 -0.1575 -1.3036  0.8705
18995SOL     OW58991   4.053   6.801   2.070  0.8125 -1.1620  0.6003
18995SOL    HW158992   3.983   6.736   2.068 -1.0120  0.6805 -0.9945
18995SOL    HW258993   4.055   6.831   2.161  0.0064 -1.7647  0.8313
18996SOL     OW58994   1.106  10.118   3.814  0.6992  0.2135  0.5137
18996SOL    HW158995   1.016  10.124   3.783  1.3179  2.7740 -1.1097
18996SOL    HW258996   1.159  10.111   3.734  1.9675 -2.0538  1.4509
18997SOL     OW58997   5.102   4.809   9.323 -0.1691 -0.4744  0.6679
18997SOL    HW158998   5.150   4.740   9.278 -1.8806 -0.5070 -1.2293
18997SOL    HW258999   5.037   4.839   9.260 -2.3456 -0.0970  2.9177
18998SOL     OW59000   9.069   1.435   5.695  0.8622  0.2540  0.5540
18998SOL    HW159001   8.989   1.482   5.671  0.8771 -0.1025 -0.2310
18998SOL    HW259002   9.110   1.413   5.611  1.8142  0.4783  0.9564
18999SOL     OW59003   5.714   8.514   4.721 -0.5440  0.8251  0.1418
18999SOL    HW159004   5.702   8.515   4.816 -2.0338  2.9074  0.0130
18999SOL    HW259005   5.725   8.422   4.699 -1.5228  0.1521  2.2001
19000SOL     OW59006   6.763   4.685   8.074 -0.0751 -1.3291  0.2812
19000SOL    HW159007   6.763   4.638   8.158 -3.7606 -0.3239  1.0409
19000SOL    HW259008   6.710   4.763   8.090  2.2112  0.9188 -2.1004
19001SOL     OW59009   4.907   0.453   2.536 -0.3121  0.0641 -0.2815
19001SOL    HW159010   4.871   0.384   2.591  1.8777  0.1509  1.4175
19001SOL    HW259011   4.889   0.426   2.446 -0.0468 -2.4156  0.3625
19002SOL     OW59012   1.345   0.731   6.759 -0.0825 -0.3242 -0.2038
19002SOL    HW159013   1.300   0.784   6.693 -0.7644 -0.7919 -0.1271
19002SOL    HW259014   1.309   0.763   6.842 -0.7694 -1.1303 -0.1720
19003SOL     OW59015   4.634   4.773   8.076 -0.3560  0.6221  0.5069
19003SOL    HW159016   4.558   4.812   8.119 -2.1546 -1.3251 -0.7084
19003SOL    HW259017   4.643   4.823   7.994  0.8960  2.0434  1.4511
19004SOL     OW59018   3.053   5.049   8.604 -0.4308 -0.4072 -0.1723
19004SOL    HW159019   3.032   5.040   8.511 -3.5432  0.6792  0.2856
19004SOL    HW259020   3.139   5.008   8.614 -0.1792 -0.9194 -3.4199
19005SOL     OW59021   8.410   6.315   1.607  0.5498  0.0064 -0.0929
19005SOL    HW159022   8.363   6.385   1.653 -2.0578 -1.4680 -0.3406
19005SOL    HW259023   8.444   6.259   1.677 -1.2259 -0.8623  0.1093
19006SOL     OW59024   8.806   1.098   1.262  0.0972 -0.2616  0.1779
19006SOL    HW159025   8.833   1.115   1.171 -0.0693  1.3099  0.4036
19006SOL    HW259026   8.759   1.015   1.258  2.2936 -1.5634 -0.7433
19007SOL     OW59027   0.448   7.415   8.150 -0.2770  0.3008  0.0700
19007SOL    HW159028   0.424   7.457   8.068 -0.5144  0.8002  0.3906
19007SOL    HW259029   0.473   7.326   8.125  1.2695  0.9256 -0.7629
19008SOL     OW59030  10.623   1.393  11.233 -0.4420  0.4368 -1.1953
19008SOL    HW159031  10.544   1.424  11.188  0.9277  4.1927 -1.4007
19008SOL    HW259032  10.685   1.373  11.162  0.2279  2.0067 -1.1042
19009SOL     OW59033  10.323   8.017   8.308 -0.4220 -0.5247  0.1422
19009SOL    HW159034  10.323   8.056   8.220 -0.3153  4.4510  2.0250
19009SOL    HW259035  10.416   8.002   8.327  0.1709  3.1869  0.9901
19010SOL     OW59036   5.427   5.645  10.398 -0.0328  0.3775 -0.0418
19010SOL    HW159037   5.350   5.665  10.345  0.1474 -0.1969 -0.5440
19010SOL    HW259038   5.469   5.730  10.413  0.8706  0.4107 -2.3400
19011SOL     OW59039   4.475  10.944   8.959 -0.1569  0.0357  0.2336
19011SOL    HW159040   4.481  11.035   8.931  0.4869 -0.3329 -0.8873
19011SOL    HW259041   4.397  10.911   8.915  2.2662 -1.2879 -3.5953
19012SOL     OW59042   6.648   7.101   9.097  0.3140 -0.0238 -0.1526
19012SOL    HW159043   6.697   7.026   9.129 -0.1169 -0.5810 -0.7822
19012SOL    HW259044   6.613   7.073   9.012  1.2730  1.3439 -1.0393
19013SOL     OW59045   5.269   6.365   9.980 -0.3381 -0.5687  0.5492
19013SOL    HW159046   5.275   6.373   9.885 -0.2560 -0.0797  0.5921
19013SOL    HW259047   5.358   6.346  10.008 -0.7451 -3.0995  0.3326
19014SOL     OW59048   6.529   2.064   0.345  0.2125  0.2224  0.0781
19014SOL    HW159049   6.604   2.069   0.404  0.7028 -0.0686 -0.5030
19014SOL    HW259050   6.563   2.018   0.268 -1.0323 -1.6609  0.5672
19015SOL     OW59051  10.606   9.522   3.728 -0.2880 -0.5368 -0.0415
19015SOL    HW159052  10.699   9.539   3.717 -0.3931  0.0410 -0.0346
19015SOL    HW259053  10.585   9.557   3.814 -0.1911 -2.0364  0.6167
19016SOL     OW59054   1.777   9.821   9.798 -0.9765  0.1567  0.1933
19016SOL    HW159055   1.832   9.821   9.719 -0.2937  0.6108  0.6583
19016SOL    HW259056   1.696   9.779   9.770 -0.6925  0.1802 -0.7175
19017SOL     OW59057   4.961   3.155   0.463 -0.2516 -0.1420 -0.8302
19017SOL    HW159058   4.997   3.206   0.391  0.1788 -0.6854 -1.0071
19017SOL    HW259059   4.874   3.192   0.477  0.2827  1.0517 -0.5267
19018SOL     OW59060   2.519  10.758   5.435 -0.5450 -0.0817 -0.0349
19018SOL    HW159061   2.444  10.715   5.395  0.1653  1.8092 -3.8644
19018SOL    HW259062   2.483  10.839   5.472 -0.8630 -0.8173  1.3293
19019SOL     OW59063   9.642   4.208   3.661  0.4517  0.2532 -0.2806
19019SOL    HW159064   9.699   4.207   3.738  0.6091  0.7007 -0.3910
19019SOL    HW259065   9.581   4.280   3.676 -0.3361 -0.4598  0.0119
19020SOL     OW59066   9.824   9.662  10.065 -0.2697  0.0102 -0.1975
19020SOL    HW159067   9.918   9.653  10.047 -0.2855 -1.2059  0.2265
19020SOL    HW259068   9.800   9.746  10.025  0.8862  0.1052 -0.7458
19021SOL     OW59069   3.962   4.175  10.362  0.3552 -0.1553 -0.2208
19021SOL    HW159070   3.881   4.193  10.410  0.5745  0.5749 -0.1171
19021SOL    HW259071   4.031   4.219  10.413  0.5334  1.0453 -1.4317
19022SOL     OW59072   4.336   2.243   1.842  0.5069 -0.7105 -0.2091
19022SOL    HW159073   4.337   2.335   1.871  2.7164 -1.1970  1.4770
19022SOL    HW259074   4.360   2.247   1.749 -0.2461  0.4436 -0.3836
19023SOL     OW59075   2.626   0.620   9.822  0.4064  0.2768 -0.1364
19023SOL    HW159076   2.616   0.686   9.753 -0.0578 -0.4124 -0.7382
19023SOL    HW259077   2.719   0.623   9.844  0.1353  2.2810  1.0126
19024SOL     OW59078   3.202   3.221   6.835  0.1192  0.0028 -0.0961
19024SOL    HW159079   3.220   3.315   6.828  0.8291 -0.1343 -0.2352
19024SOL    HW259080   3.132   3.204   6.772 -1.3259  0.7558  1.2339
19025SOL     OW59081   4.960   1.849  10.049 -0.3738  0.1068 -0.4803
19025SOL    HW159082   5.046   1.891  10.062  0.2078 -1.2076  0.1086
19025SOL    HW259083   4.904   1.919  10.017  1.3171  0.6640 -2.4151
19026SOL     OW59084  11.224   8.283   8.981  0.2560 -0.3001 -0.2110
19026SOL    HW159085  11.307   8.244   8.953  1.2226  0.7789  1.0169
19026SOL    HW259086  11.161   8.257   8.914  1.5010 -1.4645 -0.9728
19027SOL     OW59087   6.334   2.931  11.037 -0.5344  0.2706  0.5854
19027SOL    HW159088   6.261   2.894  10.987  0.6365 -1.8485  0.3228
19027SOL    HW259089   6.344   3.020  11.003 -1.5222 -0.1932 -1.0117
19028SOL     OW59090   0.878   3.566   6.468 -0.9272 -0.8997 -0.7314
19028SOL    HW159091   0.811   3.625   6.433 -1.0773 -0.7678 -0.2238
19028SOL    HW259092   0.903   3.605   6.551  1.7102  0.5346 -2.0729
19029SOL     OW59093   0.180   1.144   5.456  0.2786 -0.5617 -0.4957
19029SOL    HW159094   0.188   1.218   5.516 -0.9248 -1.2479  0.5534
19029SOL    HW259095   0.121   1.175   5.387  0.6818 -0.1779 -0.6712
19030SOL     OW59096   1.295   7.642   0.509  0.5837  0.3555 -0.6739
19030SOL    HW159097   1.299   7.570   0.572  0.5405  0.0775 -0.9848
19030SOL    HW259098   1.332   7.606   0.429 -0.9745  0.1333 -1.3407
19031SOL     OW59099  10.743   9.953   2.362 -0.1267 -0.2590 -0.8425
19031SOL    HW159100  10.708   9.940   2.451  1.1467  1.6359  0.0009
19031SOL    HW259101  10.667   9.942   2.305 -1.3234  0.0907  0.6097
19032SOL     OW59102   6.998   2.468   1.933 -0.5595  0.1045  0.1307
19032SOL    HW159103   6.904   2.453   1.945 -0.7792  1.7995  0.7898
19032SOL    HW259104   7.032   2.383   1.905 -1.6050 -1.7013  3.7445
19033SOL     OW59105   0.230   4.092   2.043 -1.2684  0.3710 -0.9314
19033SOL    HW159106   0.237   4.036   1.965 -1.0414 -1.6713  0.4660
19033SOL    HW259107   0.230   4.030   2.116 -0.2386  2.2702  0.7678
19034SOL     OW59108   8.662   3.549  10.781  0.3906 -0.4469  0.7846
19034SOL    HW159109   8.600   3.533  10.852  1.9184  0.9679  2.5236
19034SOL    HW259110   8.636   3.634  10.745  1.2332  0.1378  1.5008
19035SOL     OW59111   1.353   0.963   1.274 -0.3281  0.1922 -0.1391
19035SOL    HW159112   1.301   0.893   1.315 -2.5267  0.5923 -2.0384
19035SOL    HW259113   1.373   1.023   1.346 -1.5250 -0.5868  0.8777
19036SOL     OW59114   9.609   0.477   8.234  0.1117  0.3416  0.2035
19036SOL    HW159115   9.703   0.485   8.216 -0.2676  1.1772 -1.6732
19036SOL    HW259116   9.567   0.519   8.159 -1.7904 -0.6270  0.6668
19037SOL     OW59117   4.127   2.586   2.700  0.2689  0.6994  0.7917
19037SOL    HW159118   4.108   2.603   2.608 -1.3585 -0.8218  0.7830
19037SOL    HW259119   4.059   2.633   2.747  0.8542  1.1385  1.2093
19038SOL     OW59120   2.957   2.921   2.337 -0.0899  0.2970  0.0876
19038SOL    HW159121   2.946   2.852   2.402 -0.0609 -2.0316 -2.2163
19038SOL    HW259122   3.041   2.961   2.360  1.2620 -2.2462  0.0279
19039SOL     OW59123  10.974   7.890   6.631 -0.2962 -0.4952  0.7434
19039SOL    HW159124  11.014   7.843   6.704 -0.7381  0.0028  1.3182
19039SOL    HW259125  10.880   7.888   6.649 -0.3568  0.2176  0.5477
19040SOL     OW59126  10.975   7.266   0.369 -0.3249  0.0756  0.1180
19040SOL    HW159127  10.984   7.236   0.278 -1.3426  0.7438 -0.2167
19040SOL    HW259128  10.920   7.344   0.364  1.2138  1.3004  1.1137
19041SOL     OW59129  10.507   7.619  10.938  0.0936  0.0871 -0.5203
19041SOL    HW159130  10.494   7.529  10.909  1.1149 -0.5272  0.8332
19041SOL    HW259131  10.598   7.623  10.966  0.1668  1.6446 -0.8653
19042SOL     OW59132   6.596   4.067   9.961 -0.1427  0.2937  0.0821
19042SOL    HW159133   6.533   4.002   9.931  1.0382 -0.4157 -0.9773
19042SOL    HW259134   6.671   4.056   9.903  0.9047  1.2107  1.1987
19043SOL     OW59135  10.262   1.901   6.399 -0.3371 -0.0164 -0.7296
19043SOL    HW159136  10.353   1.928   6.388 -0.4973  0.0635 -2.0770
19043SOL    HW259137  10.266   1.820   6.450  0.4268  0.3797 -0.1472
19044SOL     OW59138   1.370   0.096   0.189 -0.0407  0.0548 -0.1013
19044SOL    HW159139   1.424   0.167   0.226  0.2199 -0.4306  0.4664
19044SOL    HW259140   1.408   0.016   0.225 -2.4135 -0.2219  2.0292
19045SOL     OW59141  10.604   4.892   1.177 -0.2169 -0.0674 -0.1188
19045SOL    HW159142  10.536   4.824   1.180 -0.4359  0.1361 -0.4158
19045SOL    HW259143  10.581   4.945   1.100 -0.1025  0.4011  0.1699
19046SOL     OW59144   5.926   6.790   2.485  0.6435  0.1266 -0.4456
19046SOL    HW159145   5.906   6.849   2.558 -1.5104 -1.2349  0.1552
19046SOL    HW259146   5.841   6.756   2.458  1.6699 -1.5807 -1.7292
19047SOL     OW59147   2.113   7.397   9.941 -0.2557 -0.5402 -0.4839
19047SOL    HW159148   2.197   7.382   9.984  0.2609 -1.4302 -1.7328
19047SOL    HW259149   2.120   7.485   9.906 -0.4495 -0.0353  0.7060
19048SOL     OW59150   9.622   2.330   1.347 -0.1011  0.7737  0.8879
19048SOL    HW159151   9.575   2.403   1.388  0.2438  0.6125  1.5815
19048SOL    HW259152   9.561   2.297   1.281 -0.8407  0.7697  1.5561
19049SOL     OW59153  10.566   8.979   2.918  0.7029  0.1421 -0.3238
19049SOL    HW159154  10.558   8.925   2.997  0.5593  2.2509  1.1965
19049SOL    HW259155  10.481   9.022   2.910  0.0587 -1.3755 -2.7574
19050SOL     OW59156   0.089  10.984   3.868  0.0223 -0.1384 -0.5072
19050SOL    HW159157   0.057  10.900   3.903 -2.6624  0.7942 -0.4389
19050SOL    HW259158   0.029  11.003   3.796  1.6109  0.9795 -1.5853
19051SOL     OW59159   7.219   1.905   8.456  0.1245  0.2186 -0.4726
19051SOL    HW159160   7.129   1.888   8.425 -0.4053 -0.3943  1.2965
19051SOL    HW259161   7.241   1.990   8.419 -1.6887  0.9890  0.0968
19052SOL     OW59162   1.135   2.666   9.059 -0.1887 -0.2293  0.1768
19052SOL    HW159163   1.194   2.611   9.112  1.2352 -2.3289 -3.2095
19052SOL    HW259164   1.053   2.616   9.055 -0.2880 -0.0827  0.3900
19053SOL     OW59165   6.260   3.937   0.831  0.0169  0.1482 -0.3331
19053SOL    HW159166   6.230   3.923   0.741 -0.5610  0.5294 -0.2067
19053SOL    HW259167   6.248   3.852   0.874 -1.7786  0.5121 -0.0399
19054SOL     OW59168   5.820  10.960   9.947 -0.4432  0.1134  0.5030
19054SOL    HW159169   5.885  10.966  10.017  0.0703 -2.6954  0.3970
19054SOL    HW259170   5.740  10.933   9.991 -0.7374  0.5744  0.2598
19055SOL     OW59171   7.761   2.708   8.533  0.9217 -0.1834  0.0493
19055SOL    HW159172   7.783   2.622   8.496 -2.1999 -1.7105  1.3295
19055SOL    HW259173   7.749   2.691   8.626 -0.5464  1.4706  0.2144
19056SOL     OW59174   6.774   7.376   1.346 -0.4705  0.1347  0.0119
19056SOL    HW159175   6.775   7.452   1.288  4.3281  1.1424  1.0183
19056SOL    HW259176   6.762   7.412   1.433  1.2615 -0.2730  0.4436
19057SOL     OW59177   2.296  10.447   9.332 -0.0704 -0.1514  0.1876
19057SOL    HW159178   2.250  10.442   9.249 -0.8582 -1.7220  0.6996
19057SOL    HW259179   2.386  10.421   9.311  0.0025  0.4873 -0.3423
19058SOL     OW59180   6.843  10.206   8.238 -0.5279 -0.1622  0.7115
19058SOL    HW159181   6.922  10.225   8.290 -0.8533 -0.9135  1.5110
19058SOL    HW259182   6.773  10.252   8.285 -0.3645  1.7999 -0.8592
19059SOL     OW59183   6.189  10.306   8.649 -0.2516 -0.5621  0.3559
19059SOL    HW159184   6.146  10.260   8.722 -0.3729  0.6270  1.0663
19059SOL    HW259185   6.202  10.395   8.682 -1.0464  0.2341 -1.3586
19060SOL     OW59186   8.241   2.232  10.281 -0.7278 -0.1339  0.7766
19060SOL    HW159187   8.153   2.219  10.247 -0.5349  0.5071  0.0210
19060SOL    HW259188   8.234   2.307  10.339 -0.4252  0.7613 -0.3152
19061SOL     OW59189   9.288   1.655   3.732  0.1072  0.0248  0.5968
19061SOL    HW159190   9.270   1.621   3.820  2.3888 -1.1137  0.7161
19061SOL    HW259191   9.293   1.576   3.677 -1.8332  0.7478 -0.7329
19062SOL     OW59192   8.677   5.553   0.978 -0.4203 -0.2487  0.1549
19062SOL    HW159193   8.748   5.539   0.914 -0.0587 -2.3089  0.9272
19062SOL    HW259194   8.695   5.639   1.015  0.3724  0.2339 -1.2505
19063SOL     OW59195   0.748   2.897  10.456 -0.2586  0.6984  0.0867
19063SOL    HW159196   0.836   2.916  10.488  0.4487 -2.5080  0.3991
19063SOL    HW259197   0.751   2.917  10.363  1.4957 -1.1344 -0.3302
19064SOL     OW59198   3.152  10.597   6.938 -0.1462  1.1926 -1.1597
19064SOL    HW159199   3.178  10.602   6.845  1.0908 -0.0090 -0.9304
19064SOL    HW259200   3.128  10.505   6.950 -0.0955  1.2967 -0.2360
19065SOL     OW59201   3.113   4.713   0.264 -0.2370 -0.4459 -0.3101
19065SOL    HW159202   3.137   4.624   0.291 -1.3030 -0.4054  0.8913
19065SOL    HW259203   3.022   4.705   0.233 -0.5676  0.3184  0.4183
19066SOL     OW59204   3.493   5.049   9.450 -0.2233 -0.0362  0.0216
19066SOL    HW159205   3.581   5.079   9.426 -0.2930 -0.3985 -0.7099
19066SOL    HW259206   3.443   5.054   9.369 -0.2195 -2.1529 -0.1776
19067SOL     OW59207  11.048  11.150  10.105 -0.1570  0.0045  0.5173
19067SOL    HW159208  11.097  11.081  10.061  0.1098  0.4589  0.0846
19067SOL    HW259209  11.114  11.200  10.153  0.0082  1.3051 -0.9757
19068SOL     OW59210   8.567   5.160   8.592  0.5090 -0.1834  0.1746
19068SOL    HW159211   8.547   5.068   8.611  1.2637  0.0689  2.5423
19068SOL    HW259212   8.513   5.209   8.654  2.6264  0.8043  1.3188
19069SOL     OW59213   5.420   9.167   1.013 -0.0471 -0.7992 -0.0603
19069SOL    HW159214   5.416   9.189   0.920 -0.5134 -1.9725 -0.3393
19069SOL    HW259215   5.508   9.195   1.040  0.0590 -0.3563 -0.8234
19070SOL     OW59216   5.305   4.702   7.220  0.0362  0.5563  0.1053
19070SOL    HW159217   5.332   4.793   7.211 -2.1457  1.1263 -1.4028
19070SOL    HW259218   5.309   4.667   7.131  1.1510 -0.9657  0.7042
19071SOL     OW59219   9.808  10.859   1.059 -0.1122  0.0840  0.2880
19071SOL    HW159220   9.839  10.885   0.973 -0.6975  0.8227  0.2809
19071SOL    HW259221   9.752  10.783   1.043  0.6127 -0.4201  0.1457
19072SOL     OW59222  10.006   7.002  10.625 -0.2346 -0.6210 -0.7873
19072SOL    HW159223   9.917   6.982  10.596 -0.4699 -0.3574 -0.2515
19072SOL    HW259224  10.053   6.919  10.615 -0.3530 -0.5914 -1.7285
19073SOL     OW59225   9.371   3.627   7.663 -0.3365  0.1879 -0.0680
19073SOL    HW159226   9.454   3.671   7.643 -0.8752  1.4601  0.3835
19073SOL    HW259227   9.396   3.548   7.711  0.5802  1.1765  1.1460
19074SOL     OW59228   9.317   6.006  11.147  0.0104 -0.1063 -0.2362
19074SOL    HW159229   9.285   6.081  11.098 -2.2135 -1.2629 -0.6587
19074SOL    HW259230   9.264   5.933  11.117  0.8270 -1.5003  1.5359
19075SOL     OW59231   2.133   3.954   2.956 -0.4117 -0.6219 -0.0260
19075SOL    HW159232   2.165   3.964   2.867  1.2463 -0.4063  0.5522
19075SOL    HW259233   2.113   4.043   2.984  2.6539 -0.1303  1.0090
19076SOL     OW59234   0.811   6.585   9.091 -0.5453 -0.1893  0.4212
19076SOL    HW159235   0.873   6.634   9.037  0.1612  0.3432  1.6779
19076SOL    HW259236   0.731   6.638   9.090 -0.8158 -0.5890 -0.7317
19077SOL     OW59237   4.567   9.410   8.183  0.3954  0.0878 -0.8872
19077SOL    HW159238   4.565   9.448   8.095  1.0488 -2.1178 -1.9210
19077SOL    HW259239   4.533   9.322   8.172  0.6172 -0.2870  1.0651
19078SOL     OW59240   3.055   5.619   2.823  0.0427  0.4748  0.3761
19078SOL    HW159241   3.132   5.615   2.880  0.8687 -0.6952 -0.7643
19078SOL    HW259242   3.091   5.633   2.735 -1.1188  0.8983 -0.0544
19079SOL     OW59243   2.846   1.976   4.507  0.0126  0.0915  0.1335
19079SOL    HW159244   2.918   1.913   4.511  1.3366  1.5763  0.1429
19079SOL    HW259245   2.804   1.969   4.593  2.5421  1.9191  1.6212
19080SOL     OW59246   5.887   9.426   7.931  0.3691 -0.2949  0.2736
19080SOL    HW159247   5.936   9.410   7.851  1.3281  2.0740  0.3208
19080SOL    HW259248   5.941   9.388   8.000  0.4874 -0.6545 -0.0143
19081SOL     OW59249   3.864   8.268   8.321  0.5098  0.2240 -0.5685
19081SOL    HW159250   3.820   8.352   8.314  0.9312  0.6853  1.5829
19081SOL    HW259251   3.794   8.203   8.320  0.0572  0.7097 -0.5919
19082SOL     OW59252   0.606   4.421   3.454 -0.8162  0.6410  0.0373
19082SOL    HW159253   0.622   4.465   3.370 -1.6627  2.3417  0.7072
19082SOL    HW259254   0.693   4.414   3.494 -0.1032 -1.8859 -1.6796
19083SOL     OW59255   9.061   2.624   7.074 -0.0749  0.5806  0.4797
19083SOL    HW159256   9.027   2.713   7.083  0.3308  0.6522  1.4790
19083SOL    HW259257   9.050   2.585   7.161  0.8712  0.0747  0.3862
19084SOL     OW59258   6.089   0.223   7.882 -0.0834  0.1663 -0.0149
19084SOL    HW159259   6.064   0.315   7.894  2.2882  1.1765 -1.9797
19084SOL    HW259260   6.043   0.197   7.803 -1.7759 -0.8280  1.2370
19085SOL     OW59261   3.814   9.734   0.430 -0.6794  0.8049 -0.1211
19085SOL    HW159262   3.896   9.686   0.439 -1.6589 -0.8253  0.4029
19085SOL    HW259263   3.757   9.677   0.378 -1.3369  2.1298 -0.9359
19086SOL     OW59264   7.521   1.712   1.250  0.1048  0.0124 -0.3035
19086SOL    HW159265   7.500   1.805   1.246  2.3326  0.6095  0.3757
19086SOL    HW259266   7.582   1.698   1.177  1.0647 -0.5323  0.5879
19087SOL     OW59267   3.501   6.322   2.119 -0.2295  0.6820 -0.0495
19087SOL    HW159268   3.531   6.405   2.156  1.8190 -0.4035  0.9092
19087SOL    HW259269   3.483   6.267   2.195  1.8656 -0.8479 -0.5661
19088SOL     OW59270   8.248   1.813   0.535 -0.0073 -0.5342  0.3941
19088SOL    HW159271   8.262   1.786   0.626 -0.7724 -1.7652  0.1663
19088SOL    HW259272   8.154   1.827   0.529  0.0965 -0.0427 -0.1084
19089SOL     OW59273   6.136   4.432   0.487 -0.2869 -0.3098  0.1998
19089SOL    HW159274   6.090   4.402   0.408 -0.6479  0.8105 -0.0328
19089SOL    HW259275   6.103   4.521   0.501  0.5077 -0.1418  1.0586
19090SOL     OW59276   9.215   3.507   8.972 -0.0248 -0.0159  0.5541
19090SOL    HW159277   9.137   3.507   9.028 -0.2800  2.9966  0.3608
19090SOL    HW259278   9.288   3.508   9.034 -0.2341  0.0896  0.8038
19091SOL     OW59279   9.572   1.028   8.753  0.1177  0.2252  0.5799
19091SOL    HW159280   9.585   1.121   8.737  1.7249  0.1117  1.0515
19091SOL    HW259281   9.588   0.986   8.668 -1.8876  0.4407  0.0442
19092SOL     OW59282   8.337   1.300   4.491 -0.6923 -0.1102 -0.1848
19092SOL    HW159283   8.387   1.321   4.412  0.6162  0.4037  0.7435
19092SOL    HW259284   8.297   1.216   4.472  1.6766 -1.2608 -0.4911
19093SOL     OW59285   7.851   9.476   1.983  0.1129 -0.5368 -0.0165
19093SOL    HW159286   7.866   9.562   2.023 -0.8268 -0.0674 -0.6482
19093SOL    HW259287   7.765   9.449   2.015 -0.0740 -0.7482 -0.6904
19094SOL     OW59288   1.830   2.617   3.496 -0.1517  0.6353 -0.3744
19094SOL    HW159289   1.866   2.545   3.444  1.4018  0.2718  1.1299
19094SOL    HW259290   1.848   2.592   3.587 -3.8268  0.6487  0.5266
19095SOL     OW59291   6.442   0.076   8.240 -0.1888  0.0226  0.2651
19095SOL    HW159292   6.360   0.102   8.200 -0.2813  1.8745  1.5562
19095SOL    HW259293   6.430  -0.017   8.260 -1.2927 -0.1620 -1.1040
19096SOL     OW59294   5.597   1.310   7.721  0.0322  0.2464 -0.5490
19096SOL    HW159295   5.661   1.241   7.739 -0.6415  0.3207  2.6968
19096SOL    HW259296   5.512   1.270   7.740 -0.2951  2.2771  3.3377
19097SOL     OW59297   6.969   8.018   4.902  0.1345 -0.2039  0.4674
19097SOL    HW159298   6.958   8.025   4.997  0.2114  0.0056  0.4613
19097SOL    HW259299   7.042   7.957   4.892  0.5872  0.3167  0.5591
19098SOL     OW59300   8.649   9.834   5.760 -0.4287  0.4980  0.8241
19098SOL    HW159301   8.603   9.851   5.843 -1.0179  0.6621  0.4657
19098SOL    HW259302   8.676   9.743   5.766 -0.8232  0.3951  1.0229
19099SOL     OW59303   1.583  10.807   8.937  0.3603  0.1075  0.4772
19099SOL    HW159304   1.668  10.793   8.895  0.5452  0.4068  0.7502
19099SOL    HW259305   1.600  10.875   9.002 -0.4029  1.2035 -0.4308
19100SOL     OW59306   5.502   5.152   3.033  0.7957 -0.0339 -0.0623
19100SOL    HW159307   5.522   5.142   2.940  1.7078  0.0930  0.1167
19100SOL    HW259308   5.587   5.151   3.076  0.4560  1.0589  0.6640
19101SOL     OW59309   8.502   4.045  10.764  0.2559  0.3272  0.1201
19101SOL    HW159310   8.521   3.965  10.715  1.0120  0.8034 -0.3877
19101SOL    HW259311   8.421   4.026  10.811  0.7708 -0.9865  0.5433
19102SOL     OW59312   7.015   1.436   2.176 -0.0716  0.5701 -0.5553
19102SOL    HW159313   7.044   1.354   2.217  1.1409  0.6044 -1.2836
19102SOL    HW259314   6.948   1.470   2.235  3.0709  1.7803  2.6719
19103SOL     OW59315   0.812   2.140   3.379 -0.5805 -0.6556  0.1868
19103SOL    HW159316   0.844   2.200   3.312  2.8038 -0.5268  1.7153
19103SOL    HW259317   0.762   2.074   3.331 -0.3453  0.7364 -2.1109
19104SOL     OW59318   8.475   4.272   9.247  0.6251  0.1312 -0.3355
19104SOL    HW159319   8.433   4.201   9.297  0.8792 -0.7010 -1.2856
19104SOL    HW259320   8.402   4.313   9.200  0.7665 -0.8898 -1.4674
19105SOL     OW59321   6.940   4.365   7.723  0.4132 -0.5879  0.2294
19105SOL    HW159322   6.921   4.457   7.706  1.0344 -0.4683  0.1404
19105SOL    HW259323   6.897   4.346   7.806  0.9551  0.0021  0.6505
19106SOL     OW59324   1.806   3.388   5.746 -0.0597 -0.8155 -0.0638
19106SOL    HW159325   1.731   3.415   5.692  0.0794 -0.3264 -0.0208
19106SOL    HW259326   1.766   3.357   5.828 -0.2312 -0.7993 -0.1397
19107SOL     OW59327   0.974  10.509   8.602 -0.0274 -0.3585 -0.4427
19107SOL    HW159328   1.002  10.566   8.673  3.0647 -1.6067 -0.4719
19107SOL    HW259329   1.048  10.449   8.589 -1.0929 -1.2056 -3.6602
19108SOL     OW59330   4.983   3.587   2.110 -0.2309  0.6604  0.7677
19108SOL    HW159331   5.062   3.534   2.104 -0.6781 -0.0446  0.9635
19108SOL    HW259332   4.921   3.544   2.051 -0.1402  1.8178 -0.2064
19109SOL     OW59333   6.297   5.709  10.012  0.2821  0.1339 -0.1396
19109SOL    HW159334   6.231   5.642   9.996  0.0396  0.4708 -0.5704
19109SOL    HW259335   6.279   5.776   9.947  2.4227 -0.7630 -1.7956
19110SOL     OW59336   7.299   3.623   6.651  0.8366 -1.0031  0.3721
19110SOL    HW159337   7.292   3.684   6.578  0.7382 -1.7708 -0.2802
19110SOL    HW259338   7.353   3.552   6.617  0.8438 -1.3393  1.0712
19111SOL     OW59339   7.161   3.108   4.499  0.0951  0.0099 -0.4203
19111SOL    HW159340   7.220   3.124   4.425  1.0016  2.5823  0.7099
19111SOL    HW259341   7.168   3.014   4.516  1.3825 -0.2993 -2.3316
19112SOL     OW59342   3.189   8.316   0.540  0.1249 -0.1890  0.1642
19112SOL    HW159343   3.252   8.340   0.608  1.2171 -0.5330 -0.7034
19112SOL    HW259344   3.115   8.375   0.555  1.6588  1.9994 -0.2982
19113SOL     OW59345   9.649   8.915   9.834 -0.1885 -0.5764 -0.0240
19113SOL    HW159346   9.598   8.981   9.787 -1.2714  0.4839  2.4521
19113SOL    HW259347   9.647   8.944   9.925  3.0696 -1.6797  0.5343
19114SOL     OW59348   8.175   9.907   2.282 -0.3451 -0.6904  0.4243
19114SOL    HW159349   8.164  10.001   2.266  0.0730 -0.7215 -0.0707
19114SOL    HW259350   8.263   9.899   2.319  0.1476 -1.0159 -0.7657
19115SOL     OW59351   0.033   7.057   4.248  0.2957 -0.0901 -0.0647
19115SOL    HW159352  -0.044   7.002   4.264 -0.3180  0.8168  0.1971
19115SOL    HW259353  -0.003   7.144   4.234  1.0644 -0.1039 -2.6466
19116SOL     OW59354  10.338  10.573   7.077 -0.4584  0.2442  0.3674
19116SOL    HW159355  10.381  10.588   7.161 -2.0643  0.2329  1.2267
19116SOL    HW259356  10.304  10.659   7.052 -1.1714 -0.0122  0.4269
19117SOL     OW59357   9.699   5.741   9.059  0.1384  0.2351 -0.1852
19117SOL    HW159358   9.607   5.735   9.033  0.5936 -1.2944 -1.6057
19117SOL    HW259359   9.701   5.706   9.148 -0.4389 -1.4908 -0.7956
19118SOL     OW59360   3.015   0.436   2.084 -0.4192 -0.5723  0.4472
19118SOL    HW159361   3.008   0.452   1.990  0.3265  1.9154  0.7410
19118SOL    HW259362   3.081   0.367   2.092 -0.1079 -0.4327 -0.8446
19119SOL     OW59363   9.219   5.815   7.238  0.4324  0.0568 -0.1189
19119SOL    HW159364   9.210   5.761   7.317 -0.3126  1.0826  0.5211
19119SOL    HW259365   9.261   5.896   7.269  1.0056  0.1031 -0.9586
19120SOL     OW59366   4.703   0.740   6.370 -0.3517  0.2097  0.0411
19120SOL    HW159367   4.710   0.748   6.275 -0.4976 -1.2422 -0.1025
19120SOL    HW259368   4.792   0.725   6.400 -0.5136 -1.0835 -0.0635
19121SOL     OW59369   9.458   7.070   7.144 -0.3741 -0.4108  0.1485
19121SOL    HW159370   9.508   7.081   7.064  1.1845 -0.0305  1.1271
19121SOL    HW259371   9.383   7.129   7.134  1.1584  1.6355  0.0188
19122SOL     OW59372   2.952   6.057   0.777 -0.1598 -0.0924 -0.3043
19122SOL    HW159373   2.954   6.066   0.872  0.4758 -0.0637 -0.3186
19122SOL    HW259374   2.924   6.143   0.746 -0.0720 -0.0090 -0.1553
19123SOL     OW59375  10.810   1.167   9.174 -0.0787  0.1155  0.1406
19123SOL    HW159376  10.855   1.236   9.126 -0.6967  0.0610 -0.5362
19123SOL    HW259377  10.840   1.177   9.264  1.9257 -0.4540 -0.4094
19124SOL     OW59378   9.158   6.507   5.327  0.1140 -0.4791  0.3279
19124SOL    HW159379   9.207   6.530   5.406  0.3872 -1.0126  0.3166
19124SOL    HW259380   9.093   6.443   5.356 -2.0222  1.7034  0.7712
19125SOL     OW59381   6.529   0.658   4.662  0.0087  0.0055 -0.2231
19125SOL    HW159382   6.481   0.591   4.614  1.0695 -2.4690  1.9298
19125SOL    HW259383   6.470   0.733   4.664 -1.4164 -0.9454 -2.3569
19126SOL     OW59384   1.133  11.276   5.903 -0.4541 -0.0536 -0.2853
19126SOL    HW159385   1.068  11.207   5.886  0.0526 -0.4224 -0.7624
19126SOL    HW259386   1.213  11.228   5.926  0.1734  0.3436 -1.5843
19127SOL     OW59387   4.884   0.391   7.149  0.2975  0.4529  0.1643
19127SOL    HW159388   4.885   0.476   7.193 -0.0348 -0.0216  1.1189
19127SOL    HW259389   4.859   0.329   7.217  1.4649 -0.5525 -0.2744
19128SOL     OW59390   2.861   2.978   6.327  0.3847  0.3658 -0.3186
19128SOL    HW159391   2.925   2.964   6.397 -1.8233  0.4490  1.8206
19128SOL    HW259392   2.888   3.061   6.287  0.4993  1.4362  1.8507
19129SOL     OW59393   0.735   6.486  10.979 -0.0916  0.4027 -0.2653
19129SOL    HW159394   0.672   6.558  10.980  0.5568  0.9782  0.2469
19129SOL    HW259395   0.805   6.516  10.921  1.2105  1.1378  1.5575
19130SOL     OW59396   4.957   3.900   8.037  0.1731  0.1416 -0.0175
19130SOL    HW159397   4.871   3.877   8.001 -0.0594 -0.1769  0.7184
19130SOL    HW259398   4.967   3.993   8.020  0.5013 -0.1656 -1.7755
19131SOL     OW59399   2.732   5.023   2.191 -0.7059  0.0629  0.3081
19131SOL    HW159400   2.683   4.953   2.234 -1.3264  1.3464  1.8015
19131SOL    HW259401   2.800   5.047   2.254 -1.8833  2.2600  0.8663
19132SOL     OW59402   7.175   1.882  10.535  0.1401 -0.1191  0.4211
19132SOL    HW159403   7.092   1.833  10.533 -2.0775  3.2775  0.9627
19132SOL    HW259404   7.182   1.919  10.447  1.5482 -1.0029  0.1435
19133SOL     OW59405   0.541   1.187   8.865 -0.6408  0.0732 -0.6085
19133SOL    HW159406   0.632   1.201   8.893  0.1666 -0.6838 -2.6530
19133SOL    HW259407   0.488   1.217   8.939  1.2603  0.8087  0.5249
19134SOL     OW59408   2.190   0.478   5.666 -0.1886 -0.6026 -0.4536
19134SOL    HW159409   2.266   0.528   5.637 -0.9149 -0.7401 -2.8747
19134SOL    HW259410   2.219   0.430   5.743  1.9326 -0.0816 -0.8822
19135SOL     OW59411  10.652   9.282   0.557 -0.5148 -0.6190 -0.6932
19135SOL    HW159412  10.576   9.262   0.612  0.2799 -1.9463 -0.0353
19135SOL    HW259413  10.622   9.262   0.468 -0.0477 -4.2978 -0.1780
19136SOL     OW59414   3.632   2.976   6.062 -0.6329  0.4704  0.5025
19136SOL    HW159415   3.700   3.008   6.120 -2.0084 -0.0639  2.5201
19136SOL    HW259416   3.558   3.035   6.077 -1.0977  0.1758 -0.5357
19137SOL     OW59417   8.757   6.016   1.664  0.3858 -0.4600  0.0096
19137SOL    HW159418   8.826   6.058   1.612  0.2159  0.8178  0.7775
19137SOL    HW259419   8.682   6.075   1.657 -0.4388 -1.5129 -0.2802
19138SOL     OW59420   1.240  10.240   9.733  0.2830 -0.3496  0.1529
19138SOL    HW159421   1.151  10.215   9.707  0.9383 -0.7158 -1.9433
19138SOL    HW259422   1.297  10.188   9.676  1.7644  2.3557 -1.0253
19139SOL     OW59423   2.204  10.418   4.033 -0.6609 -1.1352  0.2899
19139SOL    HW159424   2.203  10.481   4.105 -0.0863 -0.9975  0.1839
19139SOL    HW259425   2.278  10.361   4.052  0.7115  0.0608 -1.1603
19140SOL     OW59426   5.192   7.646   1.860  0.1526 -0.5121 -0.3073
19140SOL    HW159427   5.148   7.561   1.855 -0.1092 -0.5669  2.0208
19140SOL    HW259428   5.135   7.699   1.915  1.9129  0.1001  1.0320
19141SOL     OW59429   3.300  11.000   4.270  0.2528  0.6764  0.0902
19141SOL    HW159430   3.343  10.961   4.346 -1.5770 -1.0160  0.3144
19141SOL    HW259431   3.278  11.089   4.299 -0.7166 -0.0401  1.7167
19142SOL     OW59432   3.870   3.403   6.152  0.6487  0.1790  0.1044
19142SOL    HW159433   3.851   3.492   6.121  0.3048  0.1756  0.2966
19142SOL    HW259434   3.962   3.406   6.178  1.3476 -0.1661 -2.1201
19143SOL     OW59435   5.694   1.162   8.751  0.5092 -0.1621 -0.0441
19143SOL    HW159436   5.739   1.234   8.707  0.5190 -1.2203 -1.8754
19143SOL    HW259437   5.604   1.192   8.759  1.1260  1.3381  2.2301
19144SOL     OW59438   1.080   9.666  10.164 -0.4629 -0.7897  0.4928
19144SOL    HW159439   1.054   9.580  10.131 -0.7896 -1.0147  1.3087
19144SOL    HW259440   0.998   9.712  10.181 -0.3080 -0.6505  0.8913
19145SOL     OW59441   2.935   2.442   9.269  0.0506 -0.0817  0.1588
19145SOL    HW159442   2.959   2.502   9.198 -1.9567  0.5338 -0.0478
19145SOL    HW259443   2.896   2.367   9.225  1.2682 -0.9574  0.5039
19146SOL     OW59444   2.367   5.623   1.905 -0.2338 -0.6800  0.1366
19146SOL    HW159445   2.283   5.667   1.920 -0.5766 -1.7142  1.4883
19146SOL    HW259446   2.358   5.539   1.951  0.2874 -2.3314 -2.5894
19147SOL     OW59447   0.255   2.485   8.685  0.0277  0.5418  0.3994
19147SOL    HW159448   0.228   2.573   8.711  0.5628  1.1544 -1.0491
19147SOL    HW259449   0.256   2.486   8.590  2.2597 -0.3101  0.3460
19148SOL     OW59450  10.187   3.463   5.311  0.2369 -0.7001 -0.2074
19148SOL    HW159451  10.150   3.530   5.368  1.8015 -1.2432  1.5763
19148SOL    HW259452  10.278   3.490   5.297  0.2190 -1.2223 -1.4465
19149SOL     OW59453   5.188   3.414   9.235 -0.5917  0.0665 -0.5314
19149SOL    HW159454   5.115   3.444   9.181 -1.2048 -0.8224 -0.2303
19149SOL    HW259455   5.198   3.482   9.302  1.5554  2.2790 -2.8822
19150SOL     OW59456   7.805  10.528   6.884  0.0801  1.1127  0.0897
19150SOL    HW159457   7.876  10.590   6.899  1.0892 -0.3223  1.5390
19150SOL    HW259458   7.819  10.498   6.794  2.1697 -0.1159  0.7570
19151SOL     OW59459   8.282   8.658   3.748 -0.6580 -0.1162 -0.1676
19151SOL    HW159460   8.189   8.676   3.763 -0.5631 -0.3172  0.7160
19151SOL    HW259461   8.324   8.675   3.832 -0.0526 -1.1091 -0.2514
19152SOL     OW59462   3.246   4.737   2.191  0.3196 -0.6771 -0.1732
19152SOL    HW159463   3.217   4.711   2.104  1.1085 -2.0781 -0.0462
19152SOL    HW259464   3.291   4.821   2.177 -4.4523  2.2658 -0.2197
19153SOL     OW59465   2.654   7.587   1.859  0.3058 -0.2205 -0.5172
19153SOL    HW159466   2.742   7.593   1.895  0.6766 -0.2642 -1.3919
19153SOL    HW259467   2.642   7.668   1.809  0.0249 -0.4179 -0.7783
19154SOL     OW59468   1.442   5.730   6.319  0.0966  0.2465  0.0283
19154SOL    HW159469   1.473   5.665   6.382  0.4462 -1.2398 -1.6098
19154SOL    HW259470   1.363   5.767   6.360  0.5479 -0.3595  1.5110
19155SOL     OW59471  10.925   1.339   9.774 -0.1329 -0.5447 -0.3917
19155SOL    HW159472  10.939   1.244   9.778 -2.2761 -0.9070 -0.2664
19155SOL    HW259473  10.983   1.374   9.841 -2.0952 -2.2082  2.4256
19156SOL     OW59474   4.179   5.273   7.683 -0.3383  0.3386 -0.6622
19156SOL    HW159475   4.084   5.261   7.691 -0.5946  2.5834  0.3690
19156SOL    HW259476   4.215   5.186   7.701 -2.1365 -0.1905  0.7220
19157SOL     OW59477   2.752   6.707   1.694  0.3452 -0.6972  0.0409
19157SOL    HW159478   2.713   6.774   1.751 -0.4107 -0.5209 -0.6641
19157SOL    HW259479   2.796   6.756   1.625 -0.3200 -0.9092 -0.5509
19158SOL     OW59480   5.533  10.015   5.233 -0.4370 -0.0390 -1.1629
19158SOL    HW159481   5.518  10.024   5.327  0.9785 -0.5194 -0.8728
19158SOL    HW259482   5.502  10.098   5.196 -0.0605  0.5694 -0.1567
19159SOL     OW59483   5.827   0.824   6.000  0.2595  0.3813 -0.4108
19159SOL    HW159484   5.840   0.828   5.906 -0.6611 -0.8864 -0.6194
19159SOL    HW259485   5.732   0.821   6.011  0.3555  0.5612  0.5703
19160SOL     OW59486   4.050   8.666   8.305  0.1414  0.9349 -0.1732
19160SOL    HW159487   3.987   8.606   8.265  0.7010  1.1299 -1.4254
19160SOL    HW259488   3.997   8.739   8.337 -0.6806 -0.6457  2.3531
19161SOL     OW59489  10.861   8.415   6.917 -0.5890  0.2019 -0.1257
19161SOL    HW159490  10.915   8.491   6.939  0.7248  0.2218 -2.9740
19161SOL    HW259491  10.828   8.434   6.829 -2.7466 -1.2261  0.3031
19162SOL     OW59492   2.884   0.412   3.919 -0.5339  0.3945 -0.8779
19162SOL    HW159493   2.817   0.349   3.891 -0.6927 -0.2339  0.7968
19162SOL    HW259494   2.843   0.461   3.990  0.6494  0.2544 -0.0765
19163SOL     OW59495   9.369   5.251   4.849  0.3030  0.2397  0.1556
19163SOL    HW159496   9.322   5.289   4.924 -1.2267 -2.3080  0.6010
19163SOL    HW259497   9.302   5.206   4.799  1.5899  0.4371 -1.8708
19164SOL     OW59498   6.067  10.429   3.417 -0.1165 -0.2599 -0.2964
19164SOL    HW159499   5.987  10.421   3.470  0.4437  2.1807  1.0692
19164SOL    HW259500   6.138  10.405   3.477  0.5233  2.4222  0.1432
19165SOL     OW59501   9.197   7.449   4.663  0.0563 -0.1514  0.5848
19165SOL    HW159502   9.136   7.384   4.629  0.3387 -1.4014  2.3396
19165SOL    HW259503   9.234   7.408   4.741  2.5328  0.9057  0.0361
19166SOL     OW59504   2.982   3.916   3.041  0.0673 -0.5294  0.2596
19166SOL    HW159505   3.025   3.841   3.000  2.2658  0.5169  0.4766
19166SOL    HW259506   2.973   3.980   2.970  0.8387  0.0395  0.6563
19167SOL     OW59507  10.232   1.901   2.876 -0.0419  0.5365  0.0720
19167SOL    HW159508  10.187   1.979   2.909 -1.2197  0.6126 -1.5689
19167SOL    HW259509  10.176   1.870   2.804  0.5943 -1.6023  0.4283
19168SOL     OW59510   3.534   6.667   1.527  0.0539  0.4417  0.2756
19168SOL    HW159511   3.461   6.622   1.485 -0.9599  0.6146  1.7637
19168SOL    HW259512   3.586   6.702   1.455 -0.3182 -1.2257 -0.8807
19169SOL     OW59513   2.414   8.532   4.647 -0.2517 -0.2456  1.0802
19169SOL    HW159514   2.370   8.497   4.570 -1.5279 -1.3370  2.2529
19169SOL    HW259515   2.477   8.595   4.612 -0.2119 -1.3012 -0.8841
19170SOL     OW59516   6.136   9.967   4.036  0.0564  0.3695 -0.6139
19170SOL    HW159517   6.116   9.879   4.004 -1.1106  0.7192 -0.8930
19170SOL    HW259518   6.092   9.972   4.121 -0.3909  0.8748 -0.8648
19171SOL     OW59519   1.088   0.754   9.996 -0.1701  0.1288 -0.3225
19171SOL    HW159520   1.183   0.750   9.988 -0.0871  0.4424  0.5171
19171SOL    HW259521   1.057   0.680   9.943  0.5443 -0.1395 -0.3740
19172SOL     OW59522   3.248   0.412   5.802 -0.1492 -0.1300  0.4743
19172SOL    HW159523   3.282   0.352   5.868 -1.7971 -3.0371 -1.1271
19172SOL    HW259524   3.188   0.469   5.851  0.0135 -1.0281  1.7852
19173SOL     OW59525  10.698   3.963   8.298  0.7029  0.4859  0.3225
19173SOL    HW159526  10.625   3.913   8.262  1.0780 -1.0674  1.5792
19173SOL    HW259527  10.735   4.010   8.223 -0.6680  0.1512 -0.6006
19174SOL     OW59528   6.892   0.842   1.989 -0.1234 -0.4744 -0.3685
19174SOL    HW159529   6.841   0.830   1.909 -0.0333  1.7973 -0.8486
19174SOL    HW259530   6.910   0.754   2.020 -2.8757 -1.4031 -1.1138
19175SOL     OW59531  10.518   2.444   1.400  0.9292  0.2860  0.2833
19175SOL    HW159532  10.570   2.385   1.455  1.6580 -1.2505 -1.9131
19175SOL    HW259533  10.582   2.507   1.366  0.2979  1.9051  1.9530
19176SOL     OW59534   9.657   5.865   6.881 -0.2536 -0.2359 -0.7235
19176SOL    HW159535   9.668   5.774   6.906 -0.4773 -0.6170 -1.9479
19176SOL    HW259536   9.564   5.874   6.861 -0.1080  0.0675 -1.2898
19177SOL     OW59537   9.377   3.052   6.022 -0.2081  0.5854  0.0278
19177SOL    HW159538   9.418   3.062   6.108 -0.5408 -1.5929  0.5192
19177SOL    HW259539   9.289   3.018   6.042  0.1092 -1.0667 -1.1547
19178SOL     OW59540   3.537  10.175   5.935  0.1565 -0.1511 -0.5875
19178SOL    HW159541   3.577  10.262   5.927 -1.6256  0.7783  0.0249
19178SOL    HW259542   3.531  10.161   6.029 -0.1726 -0.6325 -0.6784
19179SOL     OW59543   3.403  10.643   2.488 -0.3078  0.2816  0.0178
19179SOL    HW159544   3.325  10.643   2.433 -0.1136  1.3976 -0.2918
19179SOL    HW259545   3.456  10.571   2.456 -0.9053 -0.0577 -0.2154
19180SOL     OW59546   5.500   2.653   5.262 -0.3069  0.5351  0.1529
19180SOL    HW159547   5.569   2.628   5.325  0.8336  1.1507 -0.8123
19180SOL    HW259548   5.449   2.719   5.308 -0.1808  0.1620  0.8465
19181SOL     OW59549   0.069   0.044   8.865  0.1736 -0.1964 -0.0665
19181SOL    HW159550   0.132  -0.028   8.879 -0.0115 -0.3735 -0.1349
19181SOL    HW259551   0.099   0.113   8.924 -0.3359 -0.7708  0.9036
19182SOL     OW59552   8.106   9.424   5.220  0.2179 -0.1016  0.2457
19182SOL    HW159553   8.060   9.393   5.142  0.5673  1.9063 -0.8344
19182SOL    HW259554   8.170   9.487   5.186  0.6665  0.5079  2.1222
19183SOL     OW59555   0.985   9.937   5.327 -0.4014 -0.7540  0.5568
19183SOL    HW159556   1.055   9.941   5.262 -1.5374  1.1077 -0.6307
19183SOL    HW259557   0.938   9.856   5.307 -0.2452 -0.6086 -0.4341
19184SOL     OW59558  10.696   4.989   6.115 -0.2304  0.3534 -0.1951
19184SOL    HW159559  10.736   4.923   6.058 -1.8589 -0.2266 -0.7447
19184SOL    HW259560  10.682   4.943   6.198 -2.9559 -0.6639 -1.0978
19185SOL     OW59561  10.776   6.415   3.129 -0.0304 -0.5780 -0.3331
19185SOL    HW159562  10.823   6.332   3.116  4.0696  0.9985  2.2812
19185SOL    HW259563  10.699   6.392   3.180  2.9825 -2.6758  3.8981
19186SOL     OW59564  10.957   7.788   5.675  0.0694 -0.3386 -0.7308
19186SOL    HW159565  10.952   7.876   5.637  2.0693  0.5760  0.9013
19186SOL    HW259566  10.892   7.788   5.745  0.2469 -0.0485 -0.5635
19187SOL     OW59567   7.269   9.829  10.026  0.6843  0.6455  0.4497
19187SOL    HW159568   7.219   9.767   9.973 -0.6988  2.0863  0.0042
19187SOL    HW259569   7.327   9.873   9.965  2.7763 -1.1707  0.9989
19188SOL     OW59570   2.259   0.975   7.634 -0.4036  0.3141  0.0496
19188SOL    HW159571   2.268   0.976   7.539 -0.1941  0.6195  0.0723
19188SOL    HW259572   2.329   1.031   7.666  1.6001 -2.2875  0.5719
19189SOL     OW59573   1.051   9.098   4.684  0.6447 -0.6567  0.5919
19189SOL    HW159574   1.136   9.054   4.673  1.3154  0.3269  1.6783
19189SOL    HW259575   0.992   9.048   4.628  1.9408 -1.3467 -0.2348
19190SOL     OW59576   6.672   2.066  10.065 -0.6431 -0.1683  0.0268
19190SOL    HW159577   6.669   2.108  10.151  0.3406  0.9720 -0.4707
19190SOL    HW259578   6.701   1.976  10.083  0.2906  0.2771  0.8280
19191SOL     OW59579   8.058   0.222   6.958  0.2098  0.0280  0.3477
19191SOL    HW159580   8.060   0.225   7.053 -2.6385 -1.3559  0.5503
19191SOL    HW259581   8.105   0.141   6.935 -0.8014 -0.6785  0.7308
19192SOL     OW59582   8.747   8.274   3.315  0.4305  0.9546  0.1540
19192SOL    HW159583   8.679   8.334   3.346  0.7606  0.3191  2.3085
19192SOL    HW259584   8.824   8.328   3.304  1.0761  0.8920  3.2901
19193SOL     OW59585   5.303   0.579   1.994 -0.0782  0.3795  0.1835
19193SOL    HW159586   5.250   0.656   2.015 -1.4234 -0.0913 -1.3116
19193SOL    HW259587   5.341   0.599   1.908 -0.0032 -0.4118  0.0297
19194SOL     OW59588   6.296   1.495   8.513  0.2399 -0.5040  0.2086
19194SOL    HW159589   6.310   1.437   8.588  2.3365 -0.1936  0.1138
19194SOL    HW259590   6.383   1.529   8.493 -0.7454  1.8160 -0.4443
19195SOL     OW59591   3.677   9.253   4.770  0.1563  0.1713 -0.2499
19195SOL    HW159592   3.749   9.263   4.833  0.6156  0.7120 -0.8467
19195SOL    HW259593   3.701   9.175   4.719  0.4016  0.4287 -0.5369
19196SOL     OW59594   3.117   3.109   4.363 -0.2234 -0.2079  0.1377
19196SOL    HW159595   3.161   3.117   4.279  0.4936  0.6684  0.5765
19196SOL    HW259596   3.131   3.018   4.390 -1.1406 -0.7161 -1.0413
19197SOL     OW59597   7.191   9.119   5.621  0.2421 -0.2782  0.0463
19197SOL    HW159598   7.121   9.172   5.582  1.9145  1.5596 -0.5798
19197SOL    HW259599   7.253   9.182   5.656  2.9127 -1.7000 -1.7048
19198SOL     OW59600   7.079   5.643   1.421  0.4233  0.5322  0.1317
19198SOL    HW159601   7.162   5.686   1.399  0.5446  1.3916  2.0807
19198SOL    HW259602   7.037   5.702   1.484 -1.6935  0.1142 -0.7922
19199SOL     OW59603   4.128   8.224   3.345  0.5923 -0.2257  0.0217
19199SOL    HW159604   4.158   8.134   3.338  2.0008  0.2310 -0.1240
19199SOL    HW259605   4.198   8.269   3.393 -1.4848  0.1481  2.9840
19200SOL     OW59606   1.463   7.250   1.709  0.6497  0.1161 -0.6856
19200SOL    HW159607   1.466   7.194   1.631  0.7905 -0.1984 -0.4589
19200SOL    HW259608   1.479   7.190   1.782 -2.4581 -0.1540 -0.0915
19201SOL     OW59609   4.741   8.860   3.055 -0.4009  0.4592 -0.3951
19201SOL    HW159610   4.779   8.804   2.987 -0.9677  1.1802 -1.3446
19201SOL    HW259611   4.646   8.846   3.047 -0.5965  1.9464 -1.0544
19202SOL     OW59612   6.256  11.154   3.570  0.2219 -0.1660 -0.1223
19202SOL    HW159613   6.258  11.223   3.636  3.1163 -0.4325  0.1805
19202SOL    HW259614   6.288  11.197   3.490  0.4487 -0.7532 -0.3491
19203SOL     OW59615   9.438   7.428   4.920 -0.4247  0.0015  0.3068
19203SOL    HW159616   9.450   7.486   4.845  0.1188 -0.5950 -0.0779
19203SOL    HW259617   9.473   7.344   4.891  0.8735  0.0482  1.6324
19204SOL     OW59618   5.164   9.419   2.797 -0.2139 -0.3280  0.0410
19204SOL    HW159619   5.169   9.338   2.747  0.7723  0.5060 -1.2611
19204SOL    HW259620   5.231   9.409   2.865 -0.6746 -0.9286  0.4218
19205SOL     OW59621  10.297   1.094   0.170  0.2475  0.3552  0.4275
19205SOL    HW159622  10.220   1.044   0.197  0.3937 -1.2093 -1.7661
19205SOL    HW259623  10.366   1.067   0.230  0.5595 -2.9241 -1.1859
19206SOL     OW59624   4.012   9.546   5.165  0.1367 -0.0735 -0.2893
19206SOL    HW159625   4.020   9.542   5.070 -1.2643 -1.8203 -0.3906
19206SOL    HW259626   4.101   9.533   5.197  0.5402 -0.0165 -1.3414
19207SOL     OW59627   5.640   3.633   5.734 -0.6332  0.6961 -0.5620
19207SOL    HW159628   5.630   3.715   5.685  0.2536  0.0610 -1.8917
19207SOL    HW259629   5.689   3.657   5.812  1.0451  1.2326 -1.7092
19208SOL     OW59630   7.338   3.548   2.548 -0.1798  0.5267  0.6504
19208SOL    HW159631   7.377   3.580   2.629  0.7262 -1.0994  0.9073
19208SOL    HW259632   7.364   3.456   2.543 -1.0885  0.3037 -0.9669
19209SOL     OW59633   6.205   7.567   1.813 -0.5631 -0.0469  0.0421
19209SOL    HW159634   6.204   7.479   1.852 -0.5040  0.7447  1.9231
19209SOL    HW259635   6.168   7.624   1.880  1.2003  1.6742 -0.3517
19210SOL     OW59636   1.489   3.382   7.421 -0.3751 -0.2443  0.2999
19210SOL    HW159637   1.524   3.295   7.403  0.2426 -0.2293  1.3260
19210SOL    HW259638   1.555   3.442   7.387 -0.5770 -0.1843  0.0146
19211SOL     OW59639   4.400   9.317   7.343 -0.2846 -0.4394 -0.0677
19211SOL    HW159640   4.444   9.361   7.270  0.5744  0.2845  0.8688
19211SOL    HW259641   4.381   9.386   7.406  1.5164 -1.4140  1.6610
19212SOL     OW59642  10.937  10.348   9.478 -0.4564  0.1949 -0.2045
19212SOL    HW159643  11.028  10.318   9.488 -1.1051 -2.6035 -1.7083
19212SOL    HW259644  10.902  10.350   9.567  0.1625 -2.0703  0.1536
19213SOL     OW59645   4.359   9.164   8.298  0.6024 -0.3051  0.0314
19213SOL    HW159646   4.334   9.161   8.205  2.3918 -1.4299 -0.4613
19213SOL    HW259647   4.296   9.107   8.341 -0.3488  0.3519 -0.4411
19214SOL     OW59648   5.257   2.691   8.971 -0.3915  0.1463 -0.2063
19214SOL    HW159649   5.176   2.721   9.012 -1.5224 -2.8826  0.0004
19214SOL    HW259650   5.318   2.681   9.044 -0.1035  1.4296 -0.2372
19215SOL     OW59651   4.399   3.547   5.763  0.0314 -0.2970 -0.2425
19215SOL    HW159652   4.401   3.559   5.668  2.1642 -0.5632 -0.2817
19215SOL    HW259653   4.436   3.628   5.798 -0.7120 -0.2133  0.3808
19216SOL     OW59654   0.202   2.165   0.314  0.0734  0.6693  0.7713
19216SOL    HW159655   0.295   2.185   0.310  0.1613  0.2501  0.6641
19216SOL    HW259656   0.193   2.081   0.268 -0.2021  0.1848  1.6836
19217SOL     OW59657  11.185   3.697   6.848  0.5780  0.4633  0.8213
19217SOL    HW159658  11.121   3.766   6.863  0.4647  1.0125 -1.7079
19217SOL    HW259659  11.145   3.618   6.885 -2.5276  0.3923 -2.1638
19218SOL     OW59660   8.860   6.347   3.585  0.8101  0.5050 -0.0374
19218SOL    HW159661   8.832   6.311   3.669  0.7826 -0.1670 -0.3227
19218SOL    HW259662   8.942   6.393   3.605  2.2082 -1.8022 -0.0307
19219SOL     OW59663   7.635   0.118  10.247 -0.6631  0.3940 -0.4880
19219SOL    HW159664   7.561   0.060  10.264  0.1895 -0.6624 -0.2281
19219SOL    HW259665   7.606   0.204  10.275 -1.3025 -0.2541  0.9049
19220SOL     OW59666   8.053   0.279   5.589  0.0427 -0.1738 -0.6270
19220SOL    HW159667   8.133   0.275   5.641  1.9485  2.2926 -3.0741
19220SOL    HW259668   8.061   0.206   5.527  0.1209 -0.2474 -0.5312
19221SOL     OW59669   5.143   0.503  11.242  0.0832 -0.4726 -0.4296
19221SOL    HW159670   5.201   0.574  11.268 -1.8866  0.6237  1.3250
19221SOL    HW259671   5.201   0.430  11.222  2.0699  0.7818  0.4632
19222SOL     OW59672   8.621   8.486   0.071 -0.3298 -0.1396 -0.8905
19222SOL    HW159673   8.527   8.498   0.087 -0.3040 -0.1149 -0.7558
19222SOL    HW259674   8.661   8.567   0.103  0.2562 -1.8509  3.4861
19223SOL     OW59675  10.749   1.322   7.887 -0.0998  0.0371  0.2274
19223SOL    HW159676  10.718   1.394   7.832  0.8388  0.4172  0.1699
19223SOL    HW259677  10.813   1.276   7.832  0.6042  0.2259  0.8801
19224SOL     OW59678  10.104   6.564   3.310 -0.4639  0.2638  0.2410
19224SOL    HW159679  10.027   6.608   3.274  0.3212 -0.9709 -3.3904
19224SOL    HW259680  10.172   6.631   3.310 -0.5980  0.4005 -0.1407
19225SOL     OW59681   8.514   0.535   3.940 -0.9945  0.0471 -0.5012
19225SOL    HW159682   8.586   0.514   3.880  0.0235  2.5343 -0.2790
19225SOL    HW259683   8.520   0.469   4.009  0.1426 -0.6791 -1.2512
19226SOL     OW59684   4.504   7.871   7.846 -0.8025  0.5357  0.4411
19226SOL    HW159685   4.545   7.956   7.828  1.0462 -0.4882 -0.4782
19226SOL    HW259686   4.456   7.851   7.766 -1.4617  0.8186  0.7592
19227SOL     OW59687   3.565   4.142   9.071 -0.3237 -0.4699 -0.0642
19227SOL    HW159688   3.575   4.190   8.989  1.8751  0.1528  0.4876
19227SOL    HW259689   3.654   4.122   9.098 -0.9553 -0.4767  2.2708
19228SOL     OW59690   3.734   1.349   6.135 -0.0519  0.0426 -0.1799
19228SOL    HW159691   3.734   1.294   6.057 -2.7514  1.2002 -1.1101
19228SOL    HW259692   3.666   1.414   6.119 -0.6031  0.4589  3.0958
19229SOL     OW59693   3.513   4.555   2.103  0.0340  0.0597 -0.0449
19229SOL    HW159694   3.583   4.589   2.047 -0.7655  0.5178 -0.7938
19229SOL    HW259695   3.493   4.469   2.066 -0.8128  0.5548 -0.7829
19230SOL     OW59696   5.727   8.406   7.862 -0.0532 -0.5674  0.3807
19230SOL    HW159697   5.643   8.446   7.887  0.0608 -0.1417  0.0844
19230SOL    HW259698   5.793   8.464   7.900  0.1789  1.2082 -2.4595
19231SOL     OW59699   7.531  10.638   3.197  0.2365  0.4022  0.0001
19231SOL    HW159700   7.612  10.614   3.240  0.4120 -1.4238 -1.2181
19231SOL    HW259701   7.552  10.635   3.103 -1.1455  0.1722 -0.3241
19232SOL     OW59702   4.592   5.100   2.946 -0.1540 -0.3682 -0.2466
19232SOL    HW159703   4.528   5.053   2.892 -0.4885  0.1208 -0.2771
19232SOL    HW259704   4.555   5.098   3.034 -0.1794 -0.1379 -0.2530
19233SOL     OW59705   2.213   4.247   2.121  0.1653 -0.3207  0.2615
19233SOL    HW159706   2.201   4.154   2.104 -3.6606 -0.0310  0.4008
19233SOL    HW259707   2.278   4.276   2.057 -0.0746 -2.7018 -1.1603
19234SOL     OW59708   3.116   8.016  10.224  0.0261 -0.4372  0.3199
19234SOL    HW159709   3.210   8.031  10.232  0.0197 -0.1486 -0.0975
19234SOL    HW259710   3.085   8.091  10.173 -0.4469 -0.4729  0.5562
19235SOL     OW59711   9.443   6.850   9.762  0.2123  0.5714  0.3153
19235SOL    HW159712   9.433   6.939   9.726 -0.2706  0.4861  0.2390
19235SOL    HW259713   9.460   6.864   9.855  2.0351  0.8212 -0.0210
19236SOL     OW59714   9.535  10.844   2.924  0.9182 -0.3438  0.1402
19236SOL    HW159715   9.526  10.749   2.933  1.9152 -0.4911 -0.2296
19236SOL    HW259716   9.504  10.879   3.007  0.1185 -0.9554  0.1181
19237SOL     OW59717   7.412   1.956   5.253  0.0471  0.2242 -0.3989
19237SOL    HW159718   7.322   1.942   5.226 -0.1540 -2.0711  1.1889
19237SOL    HW259719   7.461   1.964   5.170 -1.4934  1.0107 -1.2761
19238SOL     OW59720   1.931   1.534   6.330 -0.3241  0.4258 -0.4516
19238SOL    HW159721   1.889   1.605   6.380  0.7531 -0.5212  2.0008
19238SOL    HW259722   1.897   1.454   6.370  2.1590 -0.3697  0.2657
19239SOL     OW59723  10.126   2.599   7.073 -0.1837 -0.5557 -0.3883
19239SOL    HW159724  10.054   2.540   7.098  0.9344 -1.1028  1.7964
19239SOL    HW259725  10.199   2.573   7.129  1.1156  1.3258 -1.0993
19240SOL     OW59726   6.179   0.759   4.801 -0.1389 -0.1698 -0.8617
19240SOL    HW159727   6.133   0.836   4.833  0.3554  0.3476 -1.3565
19240SOL    HW259728   6.252   0.748   4.861  0.3040  0.2971 -1.2975
19241SOL     OW59729   1.633   7.673   2.255  0.4099 -0.0253  0.6017
19241SOL    HW159730   1.570   7.633   2.316 -0.5657 -2.4719 -1.8145
19241SOL    HW259731   1.714   7.622   2.268  0.1234 -0.7234 -0.2657
19242SOL     OW59732   1.216   9.432   9.234 -0.3693  0.3414 -0.7681
19242SOL    HW159733   1.213   9.490   9.310 -1.0188 -1.0866  0.3402
19242SOL    HW259734   1.179   9.349   9.265 -0.2115 -0.4331 -2.5156
19243SOL     OW59735   5.774   6.852   1.719 -0.3380  0.5782 -0.4026
19243SOL    HW159736   5.801   6.831   1.808 -0.0999  0.8828 -0.4016
19243SOL    HW259737   5.686   6.814   1.711 -0.8016  1.4561  0.3103
19244SOL     OW59738   4.845   0.119   3.483 -0.4855 -0.5674  0.1707
19244SOL    HW159739   4.911   0.051   3.468  1.0903  1.2244 -1.4728
19244SOL    HW259740   4.772   0.093   3.428 -0.5015 -1.6625  0.6711
19245SOL     OW59741   6.128   7.797   9.831 -0.1528  0.2196  0.4360
19245SOL    HW159742   6.036   7.783   9.810 -0.9574  2.4860  2.0614
19245SOL    HW259743   6.145   7.736   9.903 -0.1935 -0.5943 -0.2283
19246SOL     OW59744   1.938   6.245   5.245 -1.2367  1.0612  0.1705
19246SOL    HW159745   2.028   6.269   5.269 -0.6605 -0.0761 -0.7827
19246SOL    HW259746   1.919   6.299   5.168  0.1605 -1.4998 -2.1450
19247SOL     OW59747   4.865  10.828   4.147  0.8929  0.8010 -0.2681
19247SOL    HW159748   4.837  10.745   4.108 -1.6140  1.7068 -0.5715
19247SOL    HW259749   4.914  10.802   4.225  2.0668 -0.9607 -1.5168
19248SOL     OW59750   9.394  11.185   6.555 -0.3168  0.3412  0.1053
19248SOL    HW159751   9.309  11.169   6.514 -0.1093  0.0581 -0.2176
19248SOL    HW259752   9.437  11.099   6.556  0.4686  0.6930 -0.8822
19249SOL     OW59753   0.119   6.533   0.920 -0.1445 -0.2464 -0.0171
19249SOL    HW159754   0.064   6.611   0.909  0.9623  0.6718  0.6871
19249SOL    HW259755   0.104   6.482   0.841 -2.3671 -0.2770  0.3654
19250SOL     OW59756   7.686   7.383   6.924  0.1610  0.2446  0.1262
19250SOL    HW159757   7.674   7.398   6.830  1.7265  1.3834  0.0742
19250SOL    HW259758   7.639   7.455   6.965 -1.3096 -0.7539  0.3087
19251SOL     OW59759   2.024   0.972   0.224  0.4491 -0.3034 -0.2889
19251SOL    HW159760   2.002   0.995   0.314 -0.5738 -1.7635 -0.1396
19251SOL    HW259761   2.114   0.940   0.228  1.2315  1.7543 -0.2006
19252SOL     OW59762   0.611   1.471   1.463 -0.2614 -0.2826  0.0079
19252SOL    HW159763   0.570   1.547   1.422 -1.5141  1.1980  3.6043
19252SOL    HW259764   0.550   1.445   1.532  2.0684 -1.9003  1.6109
19253SOL     OW59765   6.288   2.446   7.498  0.1074 -0.0994  0.3501
19253SOL    HW159766   6.220   2.454   7.564 -0.3697  0.1883 -0.1608
19253SOL    HW259767   6.301   2.536   7.466  0.5542 -0.1887  0.2715
19254SOL     OW59768   9.211   6.664  10.337 -0.0977  0.2661  0.6135
19254SOL    HW159769   9.241   6.746  10.298  0.2872 -0.8167 -1.5255
19254SOL    HW259770   9.138   6.690  10.394  0.2157  2.1106  0.2478
19255SOL     OW59771   2.521   6.455   4.217 -0.3105 -0.5978 -0.5376
19255SOL    HW159772   2.573   6.523   4.173  2.1402 -0.7693  1.8246
19255SOL    HW259773   2.432   6.467   4.183  0.2901  2.8660 -1.2771
19256SOL     OW59774   1.987   1.583   0.801  0.2075 -0.0690 -0.4602
19256SOL    HW159775   2.072   1.548   0.825  1.0284  1.4604 -1.0063
19256SOL    HW259776   1.925   1.535   0.856  1.3926 -1.3074 -0.1638
19257SOL     OW59777   0.065   4.881   9.215 -0.5259  0.3921 -0.4578
19257SOL    HW159778   0.005   4.948   9.181 -0.2122  0.8736 -0.0904
19257SOL    HW259779   0.103   4.841   9.137 -2.7655 -1.3071 -0.7817
19258SOL     OW59780   4.186   8.997   1.360  0.1719 -0.1084 -0.0767
19258SOL    HW159781   4.235   9.018   1.281 -0.4581 -0.5581 -0.6023
19258SOL    HW259782   4.109   8.949   1.329 -0.7822  0.8499  0.6893
19259SOL     OW59783   2.494   2.641   3.341  0.0426  0.3801  0.4001
19259SOL    HW159784   2.547   2.573   3.383  1.2110  2.0886  1.8206
19259SOL    HW259785   2.404   2.609   3.349  0.4125 -0.3044  2.4544
19260SOL     OW59786   7.520   2.039   6.917 -0.0248 -0.3168  1.1038
19260SOL    HW159787   7.463   1.964   6.900 -0.2974  0.2293 -0.5265
19260SOL    HW259788   7.607   2.010   6.886 -0.6545  0.9190 -2.2331
19261SOL     OW59789   0.921   6.568   0.958  0.1810  0.7039  0.1152
19261SOL    HW159790   0.877   6.548   1.041 -2.2022  2.1286 -0.7123
19261SOL    HW259791   0.955   6.657   0.970  0.9712  0.4249 -0.0098
19262SOL     OW59792   3.753   9.838   7.013 -1.0993  0.2208 -0.1142
19262SOL    HW159793   3.807   9.867   7.087 -0.0825  0.2346 -0.8435
19262SOL    HW259794   3.766   9.743   7.010 -0.8226  0.2685 -0.5126
19263SOL     OW59795  10.559   3.326   7.890  0.6183 -0.4181  0.4429
19263SOL    HW159796  10.605   3.401   7.851  0.8016 -0.7076  0.0968
19263SOL    HW259797  10.537   3.355   7.978  0.2279  0.2373  0.1398
19264SOL     OW59798   1.790   9.027   5.160  0.5807 -0.3189 -0.8376
19264SOL    HW159799   1.831   9.107   5.193  2.2291 -1.1910 -0.6610
19264SOL    HW259800   1.815   8.960   5.224 -0.6937 -1.0139 -1.0295
19265SOL     OW59801   4.342  10.327   5.829 -0.5122 -0.3786 -0.4133
19265SOL    HW159802   4.426  10.327   5.782 -0.1979  1.5455  0.0814
19265SOL    HW259803   4.321  10.234   5.839  1.1694 -0.8960 -1.2310
19266SOL     OW59804  11.060  10.438   2.797 -0.2553 -0.7280 -0.1185
19266SOL    HW159805  11.021  10.362   2.840  0.7728 -0.7866  0.7458
19266SOL    HW259806  10.994  10.467   2.734 -0.8338 -2.0752 -0.1580
19267SOL     OW59807   1.961   9.180   4.336  0.6740 -0.2571  0.7931
19267SOL    HW159808   1.915   9.160   4.418  0.1950  0.6536  0.7588
19267SOL    HW259809   2.040   9.226   4.364  1.4428 -1.5631  0.8347
19268SOL     OW59810   3.458   0.611   4.794  0.5721  0.5382  0.0781
19268SOL    HW159811   3.481   0.627   4.703 -2.5967 -0.1446 -0.9855
19268SOL    HW259812   3.389   0.544   4.790  2.7136 -2.2148  3.2501
19269SOL     OW59813   3.004   0.358   7.139  0.0749 -0.4231 -0.1467
19269SOL    HW159814   3.070   0.348   7.207 -0.5158  3.0315  1.1661
19269SOL    HW259815   2.921   0.345   7.185 -0.3123  1.5624 -0.2010
19270SOL     OW59816   7.265   0.740   8.897 -0.0799 -0.6911  0.9797
19270SOL    HW159817   7.279   0.693   8.814 -1.0227  2.6065 -1.2650
19270SOL    HW259818   7.169   0.748   8.902  0.0542  1.7874  0.6545
19271SOL     OW59819   3.946   3.546   7.430  0.2253 -0.5766  0.6467
19271SOL    HW159820   4.034   3.539   7.394  1.8065 -1.3879  4.2870
19271SOL    HW259821   3.893   3.489   7.374  1.6841  0.6264 -2.1888
19272SOL     OW59822   5.121   6.197   4.123 -0.4768 -0.1242 -0.5427
19272SOL    HW159823   5.045   6.144   4.149  0.5331 -0.2495  2.4911
19272SOL    HW259824   5.092   6.287   4.136 -0.3057 -0.1525  0.0535
19273SOL     OW59825  10.190   2.728   8.637  0.1054 -0.2373  0.5412
19273SOL    HW159826  10.197   2.762   8.548 -1.1000  0.7110  0.7714
19273SOL    HW259827  10.100   2.748   8.663 -0.2202 -2.3627  1.2388
19274SOL     OW59828   7.540   8.948   3.482 -0.2177  0.4269  0.3551
19274SOL    HW159829   7.562   9.032   3.441  0.0097  0.1697 -0.0499
19274SOL    HW259830   7.510   8.893   3.410  1.0986 -0.3420  0.3628
19275SOL     OW59831   2.979   3.607   9.372  0.4168  0.2579  0.5433
19275SOL    HW159832   2.990   3.512   9.361  1.8823  0.4839 -0.0767
19275SOL    HW259833   2.890   3.616   9.405 -0.1769 -1.2627 -0.4994
19276SOL     OW59834   2.949  10.541   7.567 -0.0499  0.7873  0.3392
19276SOL    HW159835   2.895  10.469   7.535 -0.3841  1.6878 -1.2550
19276SOL    HW259836   2.902  10.620   7.539  2.1922  1.6168 -1.4210
19277SOL     OW59837   8.116   3.460   5.752  0.0608  0.1242 -0.1981
19277SOL    HW159838   8.141   3.540   5.706 -1.7592  0.2924 -0.9760
19277SOL    HW259839   8.031   3.436   5.715 -0.7746 -0.6029  2.0105
19278SOL     OW59840   5.936   8.918   4.817 -0.0084 -0.3490 -0.6140
19278SOL    HW159841   5.844   8.908   4.841  0.1648  0.0066  0.2593
19278SOL    HW259842   5.943   9.008   4.786 -0.0620 -0.5548 -1.2432
19279SOL     OW59843   3.499   2.515   3.653 -0.2798 -0.2293 -0.1981
19279SOL    HW159844   3.581   2.468   3.668 -0.6162 -0.4113  1.1468
19279SOL    HW259845   3.442   2.451   3.610 -0.2203 -0.5752  0.2347
19280SOL     OW59846   9.157   7.941   8.653 -0.6097 -0.5219  0.1051
19280SOL    HW159847   9.140   8.024   8.610 -2.0415 -1.6054 -1.5607
19280SOL    HW259848   9.071   7.913   8.686 -0.2350 -1.5111  0.2908
19281SOL     OW59849   5.356  11.208   1.759  0.7795  0.0007 -0.0866
19281SOL    HW159850   5.316  11.140   1.813 -1.7104 -1.0744 -3.0179
19281SOL    HW259851   5.335  11.290   1.804  0.0890 -0.9103  1.3161
19282SOL     OW59852   3.756  10.059   6.144 -0.2468 -0.1200 -0.7160
19282SOL    HW159853   3.832  10.102   6.106  0.5301 -1.2054 -0.4105
19282SOL    HW259854   3.791  10.004   6.213 -1.3556 -0.3327 -0.2980
19283SOL     OW59855   6.664   8.274  10.817 -0.0692 -0.4194 -0.2068
19283SOL    HW159856   6.727   8.210  10.783 -2.3434 -2.3531 -1.0565
19283SOL    HW259857   6.658   8.339  10.748  0.7933 -0.3325 -0.2199
19284SOL     OW59858   8.731   4.784   1.855  0.2965  0.3316 -0.6460
19284SOL    HW159859   8.761   4.844   1.924 -0.6345  0.1683 -0.0829
19284SOL    HW259860   8.647   4.819   1.827  0.3263 -0.0196 -1.1897
19285SOL     OW59861   7.594   5.433   4.657 -0.0465  0.2674  0.2329
19285SOL    HW159862   7.570   5.480   4.577  1.6127  0.2595 -0.3146
19285SOL    HW259863   7.594   5.501   4.724 -0.6166  0.4447  0.0634
19286SOL     OW59864   0.485   6.321   9.278 -0.1963  0.0358  0.0017
19286SOL    HW159865   0.403   6.365   9.255  0.2470 -0.3666 -2.7199
19286SOL    HW259866   0.460   6.258   9.346 -1.5317  1.8873  1.3118
19287SOL     OW59867   5.036   2.363   5.149  0.5320 -0.4534 -0.3063
19287SOL    HW159868   5.019   2.294   5.212  0.5046  0.1097  0.3132
19287SOL    HW259869   5.124   2.393   5.169  0.2132  0.2920  0.0162
19288SOL     OW59870   6.937   4.918   1.433 -0.2747  0.0934 -0.4390
19288SOL    HW159871   7.029   4.947   1.429 -0.0402  0.2772  3.0349
19288SOL    HW259872   6.940   4.825   1.410  0.7416  0.1762 -0.6905
19289SOL     OW59873   7.058   7.552   0.745 -0.2406  0.8797  0.2943
19289SOL    HW159874   7.127   7.527   0.807  0.9765 -0.3932 -1.4583
19289SOL    HW259875   7.013   7.469   0.726 -0.4950  1.2273 -0.6309
19290SOL     OW59876   9.339   2.848   9.099 -0.8479 -0.7730 -0.4425
19290SOL    HW159877   9.377   2.910   9.162 -1.8020 -0.3089 -0.3132
19290SOL    HW259878   9.409   2.835   9.034  0.0476 -1.0432  0.5446
19291SOL     OW59879   6.615  10.290  10.113  0.5755  1.0271  0.0157
19291SOL    HW159880   6.605  10.293  10.018 -1.8224  1.0583  0.2100
19291SOL    HW259881   6.561  10.216  10.140  1.8397  0.5328  1.3267
19292SOL     OW59882   5.550  10.374   4.140  0.0189 -0.1512  0.3727
19292SOL    HW159883   5.602  10.338   4.068  1.5827  1.2120  0.7615
19292SOL    HW259884   5.608  10.438   4.181 -1.4731  0.3539  1.7677
19293SOL     OW59885   4.332   4.243   2.056 -0.6455 -0.5704  0.0336
19293SOL    HW159886   4.420   4.205   2.055  0.2838  1.3999 -1.9311
19293SOL    HW259887   4.290   4.205   2.134  2.8070  0.3142  2.5648
19294SOL     OW59888   7.865  11.186   0.138  0.1049  0.1725  0.1564
19294SOL    HW159889   7.928  11.258   0.132 -1.0918  1.2382 -0.1738
19294SOL    HW259890   7.881  11.134   0.059  0.2879  0.6825 -0.1534
19295SOL     OW59891   0.534   5.463   0.683 -0.0304 -0.2030 -0.1112
19295SOL    HW159892   0.521   5.428   0.771 -0.1985  0.2584  0.0524
19295SOL    HW259893   0.452   5.447   0.637 -0.4887  0.8942  0.2893
19296SOL     OW59894   3.164   0.790   3.847  0.4490 -0.3541  0.9046
19296SOL    HW159895   3.150   0.774   3.753  4.6583  2.1608 -0.4274
19296SOL    HW259896   3.237   0.732   3.871  1.9331  1.6538  1.5040
19297SOL     OW59897   1.037   6.673   2.561  0.6252  0.0704  0.7613
19297SOL    HW159898   1.078   6.647   2.643 -0.5176 -1.8255  0.8046
19297SOL    HW259899   0.951   6.707   2.587  0.0416 -1.0284  0.3840
19298SOL     OW59900   6.256  11.241   4.924 -0.9833 -0.0849 -0.1650
19298SOL    HW159901   6.161  11.231   4.914 -0.6758 -0.5359 -4.2628
19298SOL    HW259902   6.273  11.332   4.898 -0.3144  0.3568  1.6579
19299SOL     OW59903   0.601   7.985   3.098 -0.1741 -0.0281  0.3204
19299SOL    HW159904   0.619   7.896   3.128  1.4360  1.0684  2.9129
19299SOL    HW259905   0.508   7.998   3.118  0.4503  0.1125  3.7924
19300SOL     OW59906   6.787   0.520   3.947  0.7234 -0.5024  0.6474
19300SOL    HW159907   6.834   0.455   3.893  2.3039  1.6215 -0.7072
19300SOL    HW259908   6.716   0.471   3.987  0.7581 -2.6998 -1.7154
19301SOL     OW59909   3.082   3.518   8.411  0.9414 -0.2027 -0.0518
19301SOL    HW159910   3.096   3.586   8.344 -0.7931  0.4904  0.2445
19301SOL    HW259911   3.157   3.527   8.470  0.0859  2.4514  0.7707
19302SOL     OW59912   5.379   7.059   8.867  0.2287  0.1329  0.1419
19302SOL    HW159913   5.393   7.063   8.773 -0.7538 -1.1927 -0.0839
19302SOL    HW259914   5.465   7.038   8.904 -0.0132 -3.0123 -0.7995
19303SOL     OW59915   9.781   7.312   7.839 -0.1387  0.0190  0.1210
19303SOL    HW159916   9.792   7.329   7.933 -1.9793 -0.3753  0.4628
19303SOL    HW259917   9.708   7.367   7.813  0.2225 -0.0244 -1.0512
19304SOL     OW59918   9.610  11.195   1.270  0.5423  0.3406  0.0613
19304SOL    HW159919   9.688  11.144   1.290  0.9816 -0.1055 -2.4412
19304SOL    HW259920   9.605  11.194   1.174 -1.0900  2.5497  0.0567
19305SOL     OW59921  10.205   4.950   8.330 -0.2071  0.5033  0.5173
19305SOL    HW159922  10.200   4.908   8.416  1.8222 -0.2373  0.3176
19305SOL    HW259923  10.271   5.019   8.340 -0.4698  0.8820 -0.2668
19306SOL     OW59924   3.175   5.224   1.604  0.1178 -0.4576 -0.7615
19306SOL    HW159925   3.100   5.266   1.647  0.7684 -1.2049  1.1995
19306SOL    HW259926   3.247   5.233   1.667  0.7827 -2.7665 -1.1002
19307SOL     OW59927   9.035   2.479   6.499 -0.1687  0.0373  0.0367
19307SOL    HW159928   9.105   2.514   6.555  1.1549 -0.4382 -1.2332
19307SOL    HW259929   9.078   2.467   6.414 -2.3425  1.7033 -1.4007
19308SOL     OW59930   8.464   9.399  10.288 -0.5472 -0.4552 -0.1732
19308SOL    HW159931   8.535   9.363  10.235 -0.4203 -0.3700 -0.0645
19308SOL    HW259932   8.419   9.460  10.230  0.7418  1.0608  0.3621
19309SOL     OW59933   5.139   8.046   8.413  0.1669  0.0997  0.3184
19309SOL    HW159934   5.141   8.014   8.504 -1.1725  0.1545  0.3847
19309SOL    HW259935   5.174   7.973   8.362  0.2510 -0.2103  0.8052
19310SOL     OW59936   6.803  11.038   4.754 -0.1218  0.2519 -0.1154
19310SOL    HW159937   6.799  11.114   4.812 -2.2406  0.7628 -0.8566
19310SOL    HW259938   6.748  10.973   4.797  0.1715 -0.2015 -0.4216
19311SOL     OW59939   9.338   5.309   2.623  0.3935 -0.2377  0.3852
19311SOL    HW159940   9.311   5.230   2.577  1.3375 -1.2914  1.5415
19311SOL    HW259941   9.403   5.350   2.566 -1.6259  0.9378 -1.2193
19312SOL     OW59942   6.976   7.410   4.314 -0.2292  0.5714  0.0190
19312SOL    HW159943   6.983   7.380   4.405  1.3627  2.1701  0.4898
19312SOL    HW259944   6.933   7.495   4.320 -2.0893 -0.2401 -0.9940
19313SOL     OW59945   5.853  10.571   1.010  0.5422 -0.0574  0.3636
19313SOL    HW159946   5.810  10.656   1.023 -0.2355 -0.4077  0.1429
19313SOL    HW259947   5.881  10.546   1.098  3.5046  1.7869  0.0889
19314SOL     OW59948   2.296   5.382   0.561  0.2135  0.2020  0.0438
19314SOL    HW159949   2.311   5.290   0.538  1.8791  0.4108  0.1861
19314SOL    HW259950   2.333   5.390   0.649 -2.1208  0.4563  1.0630
19315SOL     OW59951   9.981   5.918   0.424 -0.2462 -0.8070 -0.4504
19315SOL    HW159952   9.919   5.876   0.484 -0.4887  1.1823  0.7893
19315SOL    HW259953   9.937   5.916   0.339 -2.0784  0.5482  0.3973
19316SOL     OW59954   1.014   2.989   3.283 -0.3384  0.3775 -0.0526
19316SOL    HW159955   0.955   2.923   3.246  0.4978  0.7356 -2.1911
19316SOL    HW259956   1.079   2.938   3.331  0.1136 -0.4010 -1.4167
19317SOL     OW59957   5.144   5.130   2.051  0.0155 -0.1505  0.2135
19317SOL    HW159958   5.191   5.171   2.124  1.1752  0.9113 -1.0619
19317SOL    HW259959   5.178   5.040   2.048  0.7558  0.1166  0.3410
19318SOL     OW59960   0.425   2.629   0.125  0.4142  0.2610  0.7039
19318SOL    HW159961   0.482   2.705   0.135  1.4612 -0.8059  3.7358
19318SOL    HW259962   0.441   2.598   0.036  2.6807  1.4470  0.6457
19319SOL     OW59963   6.004   9.158  10.235  0.2358 -0.0349 -0.0840
19319SOL    HW159964   5.939   9.218  10.273  0.1517 -0.1442 -0.0543
19319SOL    HW259965   5.979   9.072  10.269  1.7999  0.2126  1.8575
19320SOL     OW59966   0.969   9.839   8.862 -0.3708  0.5193  0.5384
19320SOL    HW159967   1.041   9.780   8.886 -0.1297  0.0184 -1.3015
19320SOL    HW259968   0.895   9.808   8.914  0.5038  0.5104  1.8273
19321SOL     OW59969   3.982  10.966   4.694 -0.9566  0.1542  0.1894
19321SOL    HW159970   3.953  11.048   4.734 -1.1804 -0.1398  0.6354
19321SOL    HW259971   3.909  10.906   4.708 -0.7219 -0.1701  0.0183
19322SOL     OW59972   4.707   2.941   0.180 -0.4716 -0.0268  0.3985
19322SOL    HW159973   4.646   2.953   0.107 -1.2798 -0.0702  1.0564
19322SOL    HW259974   4.791   2.922   0.138 -1.2042 -1.4081 -0.5025
19323SOL     OW59975   8.542  10.005   7.696 -0.1766  0.0239  0.1694
19323SOL    HW159976   8.599   9.928   7.683  0.3334  0.7024 -2.0689
19323SOL    HW259977   8.457   9.978   7.660  0.2391  0.7240 -1.4471
19324SOL     OW59978   4.333   9.242   1.875 -0.7046 -0.6621 -0.1479
19324SOL    HW159979   4.323   9.334   1.852  1.2523  0.3616  2.6609
19324SOL    HW259980   4.259   9.224   1.934 -1.1390 -0.9659 -0.7675
19325SOL     OW59981   6.190  11.056   3.097  0.6633  0.4342 -0.3152
19325SOL    HW159982   6.229  11.054   3.010  0.0617 -0.5217 -0.5817
19325SOL    HW259983   6.265  11.050   3.156  0.9838 -0.7863 -0.8127
19326SOL     OW59984   7.052   6.478   2.402  0.2311  0.5003  0.0009
19326SOL    HW159985   7.079   6.569   2.416 -0.4004  0.5892  0.7042
19326SOL    HW259986   6.958   6.482   2.390 -0.1425 -0.2428  2.1568
19327SOL     OW59987   1.273   2.798   5.425 -0.1934  0.8014  0.0406
19327SOL    HW159988   1.355   2.843   5.406  0.4382 -0.9607 -1.7440
19327SOL    HW259989   1.295   2.704   5.419 -1.9896  0.2603  1.1323
19328SOL     OW59990   4.243   2.093   6.015 -0.6283  0.6457  0.0757
19328SOL    HW159991   4.199   2.097   5.931 -0.0485  0.7486 -0.2270
19328SOL    HW259992   4.263   2.000   6.027 -0.2170  0.7043 -0.1586
19329SOL     OW59993   7.625   2.338   4.506 -0.2705 -0.1118 -0.3467
19329SOL    HW159994   7.691   2.271   4.490 -0.2112 -0.3314  0.7287
19329SOL    HW259995   7.630   2.354   4.600 -1.4109  0.2191 -0.3287
19330SOL     OW59996   4.106   0.780   0.423 -0.2153 -0.1352  0.4187
19330SOL    HW159997   4.095   0.832   0.343  0.9482 -0.1563  0.2388
19330SOL    HW259998   4.019   0.742   0.438 -0.6128  0.3816 -0.4703
19331SOL     OW59999   9.680  10.169   8.076  0.7827 -0.0013 -0.1692
19331SOL    HW160000   9.691  10.106   8.005 -2.0483  1.7091 -2.3180
19331SOL    HW260001   9.717  10.251   8.042  0.6559  0.5126  0.8847
19332SOL     OW60002   2.081   5.721   4.224 -1.3131  0.0063 -0.3440
19332SOL    HW160003   2.131   5.791   4.265  1.0915 -1.6026 -0.2958
19332SOL    HW260004   1.992   5.733   4.256 -0.4677  1.5491  1.6325
19333SOL     OW60005   7.239   3.514   3.107  0.1014  0.1064  0.1783
19333SOL    HW160006   7.170   3.556   3.159  0.1433  0.3312  0.0578
19333SOL    HW260007   7.314   3.573   3.115  0.3060 -0.1779  0.3742
19334SOL     OW60008   4.584   7.733   0.899 -0.0717  0.4806  0.5403
19334SOL    HW160009   4.629   7.695   0.824 -1.4572 -0.7147  0.2765
19334SOL    HW260010   4.500   7.687   0.903  0.1040  0.2550  3.0301
19335SOL     OW60011   0.920   0.951   1.287 -0.5243 -0.0579  0.2125
19335SOL    HW160012   0.862   0.945   1.212 -0.7827 -2.4800  0.5244
19335SOL    HW260013   0.966   1.034   1.275 -2.4734  0.9133 -1.1637
19336SOL     OW60014   1.712   2.994   2.015  0.2488 -0.0319  0.2194
19336SOL    HW160015   1.803   2.973   2.034  0.6039 -0.1984 -1.4953
19336SOL    HW260016   1.665   2.911   2.022  0.6200 -0.3542 -0.9078
19337SOL     OW60017   7.547   5.336   6.521  0.3531 -0.6665 -0.0133
19337SOL    HW160018   7.544   5.315   6.614 -0.0756  2.2324  0.6959
19337SOL    HW260019   7.595   5.262   6.482  1.4754 -1.4511  2.6160
19338SOL     OW60020   1.188   8.528   2.144  0.1998 -0.0680 -0.3006
19338SOL    HW160021   1.150   8.584   2.076  1.5425 -0.1255 -1.1560
19338SOL    HW260022   1.249   8.585   2.190  1.2084 -0.6642 -0.8565
19339SOL     OW60023   8.657   7.591   3.938  1.0372  0.2835  0.3187
19339SOL    HW160024   8.721   7.599   3.867  0.0345 -0.4276 -0.7020
19339SOL    HW260025   8.623   7.680   3.951  1.3883  0.4537  0.0699
19340SOL     OW60026   3.918   3.530   5.563 -0.3911  0.0659  0.9622
19340SOL    HW160027   3.979   3.469   5.521 -0.1556  0.0350  1.3403
19340SOL    HW260028   3.843   3.534   5.504 -0.5091 -0.7728  1.0440
19341SOL     OW60029   3.393   0.378   0.264 -0.2599  0.4167  0.1957
19341SOL    HW160030   3.359   0.357   0.351  1.4715 -0.9761  0.5946
19341SOL    HW260031   3.487   0.389   0.277  0.1928 -0.8232 -1.6544
19342SOL     OW60032   9.808   3.413   4.746  0.4881  0.6549  0.4353
19342SOL    HW160033   9.883   3.460   4.710  1.1417  0.0421  0.9486
19342SOL    HW260034   9.811   3.432   4.840 -0.5758  1.3930  0.3436
19343SOL     OW60035   9.419   4.711   3.996  0.2742  0.7234 -0.6690
19343SOL    HW160036   9.444   4.633   3.946 -2.5745 -0.5468 -0.3200
19343SOL    HW260037   9.465   4.783   3.953 -0.7337 -0.5164 -4.1522
19344SOL     OW60038   0.848   9.167   8.603  0.1702 -0.2502 -0.2031
19344SOL    HW160039   0.847   9.210   8.689 -2.6776  2.4001 -1.3903
19344SOL    HW260040   0.768   9.114   8.602  0.4692 -0.7024 -1.0396
19345SOL     OW60041   5.515   4.730   0.973  0.3181 -0.6638 -0.8259
19345SOL    HW160042   5.557   4.748   0.889  0.7766 -0.2390 -0.5129
19345SOL    HW260043   5.544   4.641   0.996  0.7840 -0.5031 -0.7735
19346SOL     OW60044   6.867   7.773   8.370 -0.3718 -0.0798  0.4203
19346SOL    HW160045   6.882   7.832   8.443 -0.3429  1.5853 -0.8657
19346SOL    HW260046   6.955   7.753   8.337 -0.4395  0.1691  0.0887
19347SOL     OW60047   9.242   7.114   6.191  0.5431 -0.0483 -0.9227
19347SOL    HW160048   9.156   7.126   6.229  0.9237  0.2862 -0.1437
19347SOL    HW260049   9.250   7.183   6.126  0.3181  0.0720 -0.8217
19348SOL     OW60050   7.196   2.611   6.472 -0.2574  0.2458 -0.2692
19348SOL    HW160051   7.138   2.683   6.497 -0.7435 -1.1103  2.9998
19348SOL    HW260052   7.283   2.641   6.495 -0.4164 -0.0325  0.7306
19349SOL     OW60053   7.749   8.158   4.204 -0.4004 -0.5861  0.9068
19349SOL    HW160054   7.805   8.116   4.269  2.7668  0.3727 -0.9639
19349SOL    HW260055   7.727   8.243   4.243  2.5065  0.5196  0.4568
19350SOL     OW60056   8.431  10.280   6.060  0.1405  0.4629 -0.2244
19350SOL    HW160057   8.524  10.300   6.050 -0.3600  1.7770 -3.1170
19350SOL    HW260058   8.388  10.365   6.062 -0.9885 -0.0451  2.8356
19351SOL     OW60059   9.065   9.600   9.163  0.1147  0.1509 -0.2872
19351SOL    HW160060   9.142   9.630   9.114 -0.2774  1.3078 -0.2178
19351SOL    HW260061   9.042   9.674   9.219  0.2578 -0.9714  1.3004
19352SOL     OW60062   3.257  10.654   3.333 -0.0623 -0.4669 -0.1938
19352SOL    HW160063   3.236  10.579   3.278  1.1600 -0.8715 -0.1415
19352SOL    HW260064   3.341  10.632   3.373  0.3994  0.9878 -0.2952
19353SOL     OW60065  10.307   8.201   8.902 -0.4347 -0.0498 -0.5795
19353SOL    HW160066  10.226   8.251   8.908  0.0965  0.8227 -0.4552
19353SOL    HW260067  10.354   8.219   8.983 -0.7125 -1.6645 -0.0161
19354SOL     OW60068   8.215   3.164   6.276  0.1832  0.1772 -0.4577
19354SOL    HW160069   8.308   3.186   6.286 -0.5333  3.0724  0.9619
19354SOL    HW260070   8.193   3.116   6.355  0.4135 -0.3226 -0.6943
19355SOL     OW60071   3.561   1.197  10.585 -0.0680 -0.2119  0.8033
19355SOL    HW160072   3.638   1.248  10.609 -1.1292  1.6571  0.3664
19355SOL    HW260073   3.500   1.210  10.658 -0.3985 -0.8152  0.6477
19356SOL     OW60074   4.070   8.860   0.317  0.2912 -0.2575 -0.1034
19356SOL    HW160075   4.137   8.830   0.377 -1.1833 -0.2465  1.6310
19356SOL    HW260076   4.002   8.793   0.322 -0.9385  0.9666  0.1390
19357SOL     OW60077   8.619   8.770   3.119  0.0170 -0.0379 -0.8838
19357SOL    HW160078   8.568   8.823   3.057  1.6639  1.3255 -1.1590
19357SOL    HW260079   8.630   8.828   3.194 -1.3691 -1.4306  0.4706
19358SOL     OW60080   3.276   6.039   9.198  0.6177  0.4987  0.1206
19358SOL    HW160081   3.277   5.944   9.211 -1.4871  0.3684 -0.3271
19358SOL    HW260082   3.352   6.056   9.142  0.5888 -1.0453 -0.4471
19359SOL     OW60083   8.941   5.715   1.530 -0.2470 -0.6748 -0.4953
19359SOL    HW160084   9.011   5.650   1.522 -0.4559 -0.9172 -0.3206
19359SOL    HW260085   8.988   5.799   1.531 -0.0729 -0.6875 -2.5957
19360SOL     OW60086   4.701  11.248   8.303 -0.3152  0.2560 -0.4096
19360SOL    HW160087   4.771  11.310   8.280  0.4792 -0.5517 -0.2334
19360SOL    HW260088   4.624  11.303   8.318  0.3990  1.2149 -0.1424
19361SOL     OW60089   6.309   0.127   2.769 -0.2794 -0.1683 -0.3777
19361SOL    HW160090   6.388   0.162   2.810 -0.0971 -1.8935  0.8550
19361SOL    HW260091   6.239   0.145   2.831 -0.5160 -0.2759 -0.6100
19362SOL     OW60092   0.043  10.171   9.308 -0.4719  0.6495  0.1626
19362SOL    HW160093  -0.037  10.210   9.274  0.6271  2.8279 -0.1104
19362SOL    HW260094   0.076  10.116   9.237  0.6040  3.3530 -1.5976
19363SOL     OW60095   6.476   4.626   5.890 -0.2394  0.1000  0.1852
19363SOL    HW160096   6.538   4.554   5.905  0.8701  0.7484 -1.0955
19363SOL    HW260097   6.466   4.667   5.976  0.4933 -0.4847  0.5642
19364SOL     OW60098   7.753  10.656   3.396  0.2797 -0.2925 -0.2371
19364SOL    HW160099   7.842  10.667   3.364  0.0490 -2.3863 -1.8710
19364SOL    HW260100   7.763  10.609   3.479  0.7176  0.2408  0.0141
19365SOL     OW60101   3.895   3.753   6.296  0.3697 -0.2346  0.2245
19365SOL    HW160102   3.958   3.713   6.357 -1.9111 -2.2078  1.4416
19365SOL    HW260103   3.924   3.725   6.210  1.1635 -1.1278  0.7602
19366SOL     OW60104   9.928   7.931   5.459 -0.2562 -0.0449  0.1657
19366SOL    HW160105   9.842   7.889   5.449 -0.3940  0.4754 -1.1119
19366SOL    HW260106   9.985   7.861   5.490 -1.5329  0.0777  3.0798
19367SOL     OW60107   4.712   1.182  10.074 -0.0400  0.6066  0.0107
19367SOL    HW160108   4.694   1.096  10.037  0.1806 -0.1511  1.5962
19367SOL    HW260109   4.639   1.199  10.132  0.2698  1.1693  0.2448
19368SOL     OW60110   0.277   4.530   5.785  0.2169  0.0884 -0.4275
19368SOL    HW160111   0.342   4.532   5.855 -0.3858  1.1421  0.1289
19368SOL    HW260112   0.303   4.600   5.725  0.6555 -0.7232 -1.2087
19369SOL     OW60113   3.840   6.321  11.221 -0.6135  0.0020  0.2749
19369SOL    HW160114   3.797   6.241  11.190  0.2924 -1.2828  2.1512
19369SOL    HW260115   3.889   6.294  11.298  1.1486  2.0329 -0.0286
19370SOL     OW60116   0.101   2.108   0.746  0.1811 -0.6493 -0.1886
19370SOL    HW160117   0.090   2.172   0.677  1.1961  0.4272  0.6015
19370SOL    HW260118   0.020   2.114   0.798 -0.9140 -2.0000 -1.6476
19371SOL     OW60119   5.652  10.094   3.023  0.0954 -0.3365  0.5357
19371SOL    HW160120   5.562  10.097   2.989 -0.7885  1.7841  2.8177
19371SOL    HW260121   5.703  10.142   2.959 -0.6074 -0.5023 -0.1760
19372SOL     OW60122   1.398   3.506   2.327 -0.5688 -0.3976  0.0139
19372SOL    HW160123   1.322   3.539   2.375  1.4666 -0.7996  3.9733
19372SOL    HW260124   1.402   3.560   2.248 -3.1930  1.6995  1.1524
19373SOL     OW60125   7.912   6.811   7.783 -0.0526  0.1946 -0.3602
19373SOL    HW160126   7.952   6.753   7.847  1.4114  1.8225  0.2718
19373SOL    HW260127   7.844   6.758   7.742 -0.0354 -1.3598  1.4827
19374SOL     OW60128   2.194  11.034   0.440 -0.2713 -0.6649 -0.1374
19374SOL    HW160129   2.213  11.083   0.360 -0.3298 -0.2932  0.0749
19374SOL    HW260130   2.265  11.058   0.500 -0.8858  0.0112  0.3396
19375SOL     OW60131   4.526   2.136   3.329  0.5097 -0.0788 -0.9024
19375SOL    HW160132   4.514   2.050   3.370 -0.9031 -0.2331 -1.5674
19375SOL    HW260133   4.584   2.183   3.389 -0.4939 -0.7249  0.6429
19376SOL     OW60134   3.798   4.353   8.893 -0.3413  0.0882  0.0389
19376SOL    HW160135   3.759   4.430   8.936  1.7397  1.4061 -0.2893
19376SOL    HW260136   3.836   4.302   8.965 -0.0786  0.3734  0.1077
19377SOL     OW60137   5.822   8.690   1.372  0.7838 -0.9288 -0.0670
19377SOL    HW160138   5.866   8.774   1.369 -0.7592 -0.0646  0.2683
19377SOL    HW260139   5.811   8.666   1.280 -0.4325  0.1817 -0.2428
19378SOL     OW60140  10.274   5.721   3.055 -0.5905  0.4003  0.0177
19378SOL    HW160141  10.229   5.790   3.006 -1.1122 -0.1690 -0.3248
19378SOL    HW260142  10.205   5.659   3.077 -0.0913 -0.1243  0.1311
19379SOL     OW60143   5.560  10.085   8.784 -0.6930 -0.2814 -0.0026
19379SOL    HW160144   5.655  10.091   8.776 -0.7076  2.9267  1.1178
19379SOL    HW260145   5.540  10.125   8.869 -3.0008 -1.8872  0.3162
19380SOL     OW60146   1.653   6.678   7.310 -0.5940  0.0343 -0.6947
19380SOL    HW160147   1.696   6.757   7.279  0.0925 -0.2717 -0.5311
19380SOL    HW260148   1.702   6.606   7.271  1.2284 -0.4226  2.1287
19381SOL     OW60149  11.235   5.187   9.760  0.2891 -0.0339  0.2419
19381SOL    HW160150  11.297   5.259   9.746 -1.3215  1.0237 -2.2442
19381SOL    HW260151  11.290   5.108   9.763  1.9331  1.0769  0.8740
19382SOL     OW60152   1.417   6.404   7.795  0.1364  0.3249 -0.5911
19382SOL    HW160153   1.453   6.408   7.883 -1.2637  0.8976 -0.0057
19382SOL    HW260154   1.389   6.494   7.777  0.5166  0.2362 -1.6760
19383SOL     OW60155   4.637   0.135   7.652 -0.9506  0.0014 -0.1258
19383SOL    HW160156   4.632   0.185   7.570 -1.2871  0.1399 -0.0253
19383SOL    HW260157   4.729   0.139   7.677 -1.0870  1.2575  0.2916
19384SOL     OW60158   9.626   1.622   5.340 -0.4105 -0.2901  0.2431
19384SOL    HW160159   9.685   1.668   5.400  0.9331 -0.0347 -1.1882
19384SOL    HW260160   9.628   1.531   5.369  1.0940 -0.3733 -0.0251
19385SOL     OW60161   7.949  11.210   2.584  0.6963  0.3526  0.6936
19385SOL    HW160162   8.012  11.270   2.543 -0.9212  0.8432 -1.2650
19385SOL    HW260163   7.975  11.123   2.552  0.1068  0.6154 -0.5893
19386SOL     OW60164   7.829   6.179   1.355  0.1107 -0.0932 -0.1626
19386SOL    HW160165   7.871   6.093   1.350 -1.2331 -0.8922  1.5134
19386SOL    HW260166   7.741   6.165   1.320 -0.5983  0.2309  1.4242
19387SOL     OW60167   7.568   7.857   5.914  0.3570  0.2988 -0.4461
19387SOL    HW160168   7.478   7.885   5.897 -0.1252  0.0512  1.4651
19387SOL    HW260169   7.600   7.916   5.982  1.5462  0.2025 -0.9012
19388SOL     OW60170  10.734   7.105   7.067 -0.1135  0.1317  0.1462
19388SOL    HW160171  10.678   7.088   7.142 -0.6494 -1.9410 -0.6600
19388SOL    HW260172  10.790   7.028   7.061  1.3885  1.2052 -0.3531
19389SOL     OW60173   4.792   0.990   1.179  0.0539  0.1786 -0.4034
19389SOL    HW160174   4.859   0.971   1.244  0.5820 -1.7753 -1.4262
19389SOL    HW260175   4.835   1.050   1.117  0.7735 -0.7815 -0.8602
19390SOL     OW60176   6.491  11.190   1.471  0.2737  0.8560  0.1695
19390SOL    HW160177   6.493  11.098   1.500  2.0426  1.1886  1.2722
19390SOL    HW260178   6.499  11.240   1.552 -4.3813  2.2211  0.0698
19391SOL     OW60179  10.399   3.341   6.502 -0.1900  0.7719 -0.0748
19391SOL    HW160180  10.330   3.277   6.518 -0.1552  0.3534 -1.5050
19391SOL    HW260181  10.443   3.351   6.587 -1.1579  0.0496  0.5236
19392SOL     OW60182   8.311   4.778   2.949 -0.1528  0.1182 -0.3088
19392SOL    HW160183   8.222   4.809   2.934  0.5292  2.4544  0.0489
19392SOL    HW260184   8.360   4.809   2.873  0.6933  0.4128  0.3429
19393SOL     OW60185   7.803   5.666   3.650 -0.1081  0.9267 -0.0961
19393SOL    HW160186   7.755   5.748   3.637 -1.0911  0.4780  0.5685
19393SOL    HW260187   7.736   5.598   3.645  0.8173  0.0798 -1.4307
19394SOL     OW60188   2.686   7.010   9.987  0.3629 -0.1243 -1.0208
19394SOL    HW160189   2.614   6.999   9.924  0.7217 -0.9529 -1.2999
19394SOL    HW260190   2.760   6.965   9.947  0.6264 -0.5792 -0.0576
19395SOL     OW60191   3.882   8.165   9.939  0.0056 -0.5786 -0.3665
19395SOL    HW160192   3.941   8.151  10.013 -0.6974  1.2896  0.6120
19395SOL    HW260193   3.803   8.202   9.979 -0.5095  0.1857 -2.0295
19396SOL     OW60194  10.821   5.224  10.758  1.4693 -1.4084  0.0092
19396SOL    HW160195  10.881   5.206  10.831  0.8034  1.2769  1.3641
19396SOL    HW260196  10.877   5.257  10.688  1.7249  0.3541  0.9950
19397SOL     OW60197   5.224   7.349  10.321  0.0830 -0.4072 -0.1893
19397SOL    HW160198   5.296   7.289  10.301  0.4237 -0.6943  1.6916
19397SOL    HW260199   5.218   7.406  10.245  2.2055 -0.4770 -0.4589
19398SOL     OW60200   2.717   8.096   4.865 -0.0122 -0.2106 -0.1382
19398SOL    HW160201   2.755   8.053   4.788  1.2592 -1.2134  0.9911
19398SOL    HW260202   2.791   8.145   4.903 -0.9292  1.3217 -0.2288
19399SOL     OW60203   7.408  10.154   7.022 -0.3449 -0.1747 -0.0407
19399SOL    HW160204   7.447  10.068   7.040  2.6361  0.4169 -2.7044
19399SOL    HW260205   7.457  10.215   7.077 -1.6410  0.0445  0.9390
19400SOL     OW60206   7.508   9.275  10.666 -0.1814 -0.1219  0.1344
19400SOL    HW160207   7.454   9.197  10.677  0.2833 -0.4476  0.1449
19400SOL    HW260208   7.543   9.292  10.754  0.9311 -0.8045 -0.1555
19401SOL     OW60209   2.446   0.424   7.151 -0.2388  0.7565  0.0582
19401SOL    HW160210   2.511   0.428   7.080 -0.3614 -0.0572 -0.1090
19401SOL    HW260211   2.381   0.491   7.127 -0.1120  0.7126 -0.4271
19402SOL     OW60212   3.163   6.924   4.311 -0.4527  0.4742 -0.2545
19402SOL    HW160213   3.251   6.889   4.295 -0.2956  0.1660  1.1818
19402SOL    HW260214   3.105   6.859   4.271 -0.0791 -0.1303  0.1641
19403SOL     OW60215   0.331  11.147  11.164 -0.1159  0.2728 -0.0031
19403SOL    HW160216   0.271  11.210  11.203  0.5667  0.7357  0.3355
19403SOL    HW260217   0.417  11.171  11.200  0.1486 -0.9034  0.2061
19404SOL     OW60218   5.089   1.819   9.785 -0.1214  0.2088 -0.0902
19404SOL    HW160219   5.151   1.829   9.857 -1.3663  3.3253  0.6750
19404SOL    HW260220   5.021   1.762   9.820  0.5325 -0.3676  0.2762
19405SOL     OW60221   9.643   7.593   4.800  0.5211 -0.1591 -0.2805
19405SOL    HW160222   9.672   7.571   4.889 -2.2243 -1.3812  0.4005
19405SOL    HW260223   9.610   7.682   4.807  0.8537 -0.0371 -0.2360
19406SOL     OW60224   4.014   9.006   2.140 -0.2116 -0.2449 -0.2254
19406SOL    HW160225   3.942   9.058   2.175 -1.0427 -0.7948 -1.0606
19406SOL    HW260226   4.074   9.071   2.103 -1.1438  0.1517 -1.0978
19407SOL     OW60227   8.049   0.225   7.221  0.3234 -0.6398 -0.4493
19407SOL    HW160228   8.116   0.179   7.272 -0.1872 -1.4419 -0.4966
19407SOL    HW260229   7.999   0.274   7.286  2.1674  1.6061 -0.5843
19408SOL     OW60230   1.318   4.514   2.197  0.5274  0.2522  0.6092
19408SOL    HW160231   1.365   4.582   2.246  0.6610  0.0257  0.7982
19408SOL    HW260232   1.370   4.502   2.117  1.0862 -0.3697  1.0597
19409SOL     OW60233   2.390   9.616   5.792  0.4842  0.1558  0.2510
19409SOL    HW160234   2.367   9.651   5.878 -1.1919 -1.0852  0.3584
19409SOL    HW260235   2.329   9.543   5.778  1.4951 -0.4378 -1.4806
19410SOL     OW60236  10.862   9.649   4.407  0.6152  0.3778 -0.3729
19410SOL    HW160237  10.860   9.574   4.466 -0.2843 -0.6662 -1.6499
19410SOL    HW260238  10.771   9.674   4.397  0.8348  1.1004 -0.6203
19411SOL     OW60239   7.485   7.145   6.888 -0.3891 -0.1776  0.0427
19411SOL    HW160240   7.423   7.086   6.846 -1.2093 -0.2297  1.2820
19411SOL    HW260241   7.529   7.189   6.815 -1.0181 -1.0255 -0.8698
19412SOL     OW60242   7.812   3.743   5.024  0.6456  0.1252  0.1972
19412SOL    HW160243   7.906   3.724   5.017  1.0017  1.2421  1.5559
19412SOL    HW260244   7.770   3.658   5.015  1.7203 -0.2877 -1.3111
19413SOL     OW60245   1.991   0.484   0.292 -0.1410 -0.1119 -0.0398
19413SOL    HW160246   2.007   0.522   0.206  0.6064  2.2273  1.0354
19413SOL    HW260247   1.942   0.552   0.339  0.2083 -0.9618  1.6327
19414SOL     OW60248  10.467   2.714   2.804 -0.0564 -0.2270 -0.6653
19414SOL    HW160249  10.452   2.638   2.860  0.5110 -0.3047 -0.6083
19414SOL    HW260250  10.520   2.773   2.857 -2.6823  1.4362  0.2807
19415SOL     OW60251   0.304   4.081   6.330 -0.2325  0.0871  0.1771
19415SOL    HW160252   0.233   4.069   6.393 -1.7194  1.0570 -1.2473
19415SOL    HW260253   0.378   4.110   6.384 -1.0171 -0.5135  1.6471
19416SOL     OW60254   2.575   9.425   8.116  0.0573 -0.3363 -0.2372
19416SOL    HW160255   2.610   9.512   8.097 -1.7371 -0.0461 -2.5740
19416SOL    HW260256   2.498   9.442   8.171  1.5624 -0.7539  2.1331
19417SOL     OW60257   7.495  10.608   3.637 -0.0099  0.5989 -0.1861
19417SOL    HW160258   7.456  10.553   3.570 -1.4796 -0.5660  1.5335
19417SOL    HW260259   7.577  10.565   3.660 -0.1334  0.2980 -0.3153
19418SOL     OW60260   9.863   2.281   1.691  0.0881  0.0976  0.4073
19418SOL    HW160261   9.779   2.278   1.644 -0.5308  0.2722  1.4572
19418SOL    HW260262   9.929   2.270   1.624 -0.7596  0.7781 -0.5648
19419SOL     OW60263   4.978   0.351   1.174 -0.2503 -0.0624  0.1149
19419SOL    HW160264   4.950   0.290   1.243  0.8371 -0.3995  0.2823
19419SOL    HW260265   5.074   0.350   1.179 -0.1990  1.3418 -0.1713
19420SOL     OW60266   6.816  10.259   4.060  0.4390  0.0695 -0.0945
19420SOL    HW160267   6.745  10.293   4.115  0.9309  0.1914  0.4778
19420SOL    HW260268   6.810  10.164   4.068 -1.5065 -0.0953 -2.4086
19421SOL     OW60269  10.028   8.299   5.012  0.3634  1.3532  0.1865
19421SOL    HW160270   9.969   8.333   5.079 -0.1101  0.3673  0.2931
19421SOL    HW260271  10.068   8.221   5.051 -0.8219  0.0537 -1.0532
19422SOL     OW60272   8.490   6.754   1.164 -0.3666 -0.4217  0.1033
19422SOL    HW160273   8.409   6.731   1.118 -0.6560 -1.6534  1.1668
19422SOL    HW260274   8.559   6.740   1.099 -0.9857  0.5911 -0.7979
19423SOL     OW60275   8.950   4.698   0.132  0.5134  0.1970 -0.1985
19423SOL    HW160276   8.967   4.660   0.219 -1.0683  0.2102  0.1546
19423SOL    HW260277   9.020   4.761   0.119  1.4600 -0.6666  0.5458
19424SOL     OW60278   0.921   4.969   9.376 -0.4092 -0.3907 -0.4329
19424SOL    HW160279   0.910   5.062   9.361 -1.4359 -0.7595 -2.2575
19424SOL    HW260280   1.016   4.957   9.386 -0.3630  0.9652  0.9374
19425SOL     OW60281   0.516   3.536  10.009 -0.5719  0.5289  0.0696
19425SOL    HW160282   0.604   3.560  10.039 -0.8850  0.3549  1.1625
19425SOL    HW260283   0.487   3.612   9.960  0.7450  0.0322 -1.5978
19426SOL     OW60284   4.281   3.013   9.488 -0.0455 -0.0324  0.2893
19426SOL    HW160285   4.354   2.951   9.488  0.5113  0.6073  1.4865
19426SOL    HW260286   4.221   2.979   9.555 -0.4278 -0.0539 -0.0558
19427SOL     OW60287   5.142   8.120   9.571  0.2669  0.2331  0.2200
19427SOL    HW160288   5.060   8.159   9.601  0.7872  1.4696  0.1017
19427SOL    HW260289   5.131   8.110   9.476  0.4590  0.9550  0.1142
19428SOL     OW60290  10.946   4.046   7.730  0.5649 -0.4489  1.2988
19428SOL    HW160291  10.950   4.068   7.637 -1.1027  3.0432  1.8639
19428SOL    HW260292  10.895   3.965   7.734 -4.1280  2.0086 -0.7626
19429SOL     OW60293   6.805   6.923   9.662 -0.2622 -0.3853 -0.1038
19429SOL    HW160294   6.894   6.957   9.665 -1.4965  3.3211  0.1333
19429SOL    HW260295   6.765   6.966   9.586 -2.3381 -0.3599  0.9096
19430SOL     OW60296   2.611   4.275   9.693  0.3866  0.4026  0.5437
19430SOL    HW160297   2.667   4.348   9.665  0.5115  1.0973  2.4780
19430SOL    HW260298   2.540   4.274   9.629  0.2035  2.4427  0.6387
19431SOL     OW60299   3.167  10.592   3.905  0.5187 -0.4970  0.0927
19431SOL    HW160300   3.081  10.626   3.878 -1.2948 -3.0894  2.0927
19431SOL    HW260301   3.224  10.669   3.904 -1.9419  1.4605 -0.8078
19432SOL     OW60302   5.177   7.554   0.608 -0.1023  0.3911  0.3638
19432SOL    HW160303   5.211   7.573   0.695  0.4118 -0.7066  0.4216
19432SOL    HW260304   5.236   7.487   0.574 -0.2768  0.8280 -0.8445
19433SOL     OW60305   5.959   2.774   8.046 -0.0204 -0.4675 -0.0293
19433SOL    HW160306   5.871   2.807   8.027 -0.1579 -0.2889  0.8742
19433SOL    HW260307   5.992   2.833   8.113  0.8058 -0.5199 -0.3834
19434SOL     OW60308   1.226   7.183   8.453 -0.3974  0.6808 -0.5164
19434SOL    HW160309   1.318   7.168   8.474 -0.0378  1.2801 -1.5568
19434SOL    HW260310   1.188   7.217   8.534  0.1558 -0.0882  0.0842
19435SOL     OW60311   4.199   6.342   9.557 -0.4735  0.3403 -0.0600
19435SOL    HW160312   4.245   6.352   9.473 -1.8518 -0.6613 -0.9900
19435SOL    HW260313   4.181   6.431   9.585 -0.2068  0.6941 -0.9570
19436SOL     OW60314  10.259   5.758   1.563  0.0342  0.0283 -0.6498
19436SOL    HW160315  10.256   5.847   1.527 -1.1953 -0.8565 -2.9595
19436SOL    HW260316  10.351   5.745   1.584  0.1786  1.9862  0.1831
19437SOL     OW60317   2.492  10.686  10.688 -0.5043 -0.3808  0.1159
19437SOL    HW160318   2.508  10.776  10.717 -0.2168 -1.0234  2.1069
19437SOL    HW260319   2.530  10.682  10.600 -0.2960  1.3641  0.0901
19438SOL     OW60320   4.678   8.883   9.225  0.4496  0.1158 -0.1996
19438SOL    HW160321   4.585   8.907   9.223  0.8598  2.0836  1.3892
19438SOL    HW260322   4.713   8.914   9.142  0.0673  1.1992  0.0268
19439SOL     OW60323   0.920  10.418   9.780 -0.0233 -0.3945 -0.3181
19439SOL    HW160324   0.834  10.455   9.799 -1.0757 -2.6585 -0.2719
19439SOL    HW260325   0.920  10.334   9.826  2.3071 -0.3770 -0.1666
19440SOL     OW60326   2.191   7.927   1.236 -0.9500  0.6519  0.0269
19440SOL    HW160327   2.218   7.838   1.258  0.6683  1.0664 -0.1229
19440SOL    HW260328   2.252   7.983   1.284 -0.9231  1.6537 -1.1192
19441SOL     OW60329   2.196   4.658   4.772  0.2597  0.0511 -0.1409
19441SOL    HW160330   2.150   4.728   4.725  1.9252  0.6457 -0.9705
19441SOL    HW260331   2.229   4.601   4.702  2.3129  0.6492  0.2827
19442SOL     OW60332   6.554   2.884   2.951  0.1056  0.0244  0.5297
19442SOL    HW160333   6.534   2.945   3.022 -0.4621 -0.3822  0.7267
19442SOL    HW260334   6.566   2.940   2.874  1.0952  0.5009  1.0057
19443SOL     OW60335   6.934   0.666   2.777  0.8374 -0.2842  0.6657
19443SOL    HW160336   6.847   0.705   2.783  0.9670  0.8007 -2.6831
19443SOL    HW260337   6.993   0.741   2.764  1.9458 -1.1768  0.3748
19444SOL     OW60338   0.769   1.190   2.968 -0.2784  0.7717  0.2516
19444SOL    HW160339   0.673   1.189   2.963 -0.3593 -1.4059  1.1696
19444SOL    HW260340   0.789   1.152   3.053  1.4086  0.1498 -0.3771
19445SOL     OW60341   3.347   7.172   9.491 -0.2798 -0.1387 -0.0262
19445SOL    HW160342   3.421   7.112   9.487 -0.6659 -0.7963  1.7260
19445SOL    HW260343   3.309   7.170   9.403 -2.0335 -4.7936  0.5557
19446SOL     OW60344  10.401   7.693   5.420 -0.4699  0.0976 -0.7195
19446SOL    HW160345  10.475   7.645   5.457 -0.9961 -0.9951 -1.0487
19446SOL    HW260346  10.397   7.774   5.471  0.7513  0.0400 -0.4967
19447SOL     OW60347   3.174   7.597   1.784 -0.4638  0.3590 -0.0283
19447SOL    HW160348   3.222   7.651   1.847  0.5159  0.0648 -0.4952
19447SOL    HW260349   3.195   7.507   1.809  0.0466  0.2434 -0.8522
19448SOL     OW60350   7.721   8.548   7.227  0.0478  0.3616  0.5056
19448SOL    HW160351   7.770   8.603   7.166  0.4578 -0.2500  0.2769
19448SOL    HW260352   7.652   8.509   7.174  2.1141 -2.4488 -0.3086
19449SOL     OW60353   8.094   3.134   5.729  0.3743  0.3071 -0.2525
19449SOL    HW160354   8.182   3.166   5.744  1.2864 -1.7091 -0.9485
19449SOL    HW260355   8.098   3.091   5.643 -1.4201  0.6415 -0.5453
19450SOL     OW60356   9.582   6.980  11.162  0.7375 -0.2213 -0.1614
19450SOL    HW160357   9.572   6.885  11.161  2.6298 -0.4579 -0.2602
19450SOL    HW260358   9.517   7.010  11.226  0.4441 -1.6181  0.2343
19451SOL     OW60359   6.378  11.208   2.605  0.2122  0.0051  0.3202
19451SOL    HW160360   6.360  11.285   2.659  0.9314  0.8621 -0.6154
19451SOL    HW260361   6.468  11.221   2.575 -0.4860  0.0486 -1.8743
19452SOL     OW60362   4.743   1.346   2.389 -0.3321  0.0820 -0.0121
19452SOL    HW160363   4.725   1.428   2.345 -1.5140 -1.4320 -2.5901
19452SOL    HW260364   4.811   1.304   2.335 -2.8831 -2.4889 -1.5276
19453SOL     OW60365   0.978   3.217   8.962 -0.3841 -0.5947 -0.4460
19453SOL    HW160366   0.928   3.298   8.966 -0.9068 -0.8149 -1.9315
19453SOL    HW260367   1.068   3.245   8.943 -0.3038 -0.3113  0.3036
19454SOL     OW60368   9.129   3.386   7.702  0.1188 -0.1210  0.0016
19454SOL    HW160369   9.153   3.408   7.792 -0.4477  2.4427 -0.3728
19454SOL    HW260370   9.200   3.424   7.649 -0.4759  0.0165 -0.7055
19455SOL     OW60371  10.708   3.298   9.178  0.0557 -0.6628 -0.0794
19455SOL    HW160372  10.676   3.223   9.228 -1.8617  0.0433 -0.1623
19455SOL    HW260373  10.797   3.313   9.212 -0.6454 -1.1035  2.0966
19456SOL     OW60374  10.655   7.658  10.532 -0.1164  1.1546  0.0511
19456SOL    HW160375  10.587   7.710  10.575 -0.4280  1.7160 -1.0978
19456SOL    HW260376  10.727   7.657  10.595 -0.4904  2.1288  0.5112
19457SOL     OW60377   3.968   1.193  10.304 -0.4109  0.2530  0.5275
19457SOL    HW160378   3.949   1.269  10.249  0.8304  0.9959  1.0650
19457SOL    HW260379   3.888   1.141  10.303 -1.1689  1.3981 -0.1343
19458SOL     OW60380   6.516   7.853   9.539  0.1053  0.9458 -0.0756
19458SOL    HW160381   6.483   7.898   9.617  1.7166  1.4247  0.3573
19458SOL    HW260382   6.510   7.919   9.469 -0.3666  0.8489 -0.1301
19459SOL     OW60383   1.820   2.862   3.387 -0.6437 -0.0970 -0.1525
19459SOL    HW160384   1.837   2.774   3.420 -1.2644 -0.1222  0.1143
19459SOL    HW260385   1.888   2.917   3.426 -0.6758 -0.3357  0.2431
19460SOL     OW60386   2.129   8.649   9.059 -0.1665 -0.4630  0.8922
19460SOL    HW160387   2.146   8.738   9.028  0.8142 -1.6539 -2.3520
19460SOL    HW260388   2.033   8.644   9.066 -0.3104  0.5088 -0.0971
19461SOL     OW60389   7.944   8.029   4.991  0.2075  0.2172 -0.2132
19461SOL    HW160390   8.020   8.084   5.014  0.2344 -0.6513  2.0723
19461SOL    HW260391   7.900   8.014   5.075 -1.4894 -0.7917 -1.2361
19462SOL     OW60392   3.386   3.685   4.434  0.1337 -0.6500 -0.6179
19462SOL    HW160393   3.310   3.705   4.379  1.3471  0.5778 -1.9297
19462SOL    HW260394   3.454   3.745   4.404  1.9841 -2.4292 -0.2316
19463SOL     OW60395   3.258   8.461   3.815  0.0682 -0.7052  0.2583
19463SOL    HW160396   3.256   8.404   3.892  1.7361 -0.9443  0.1649
19463SOL    HW260397   3.296   8.406   3.746 -0.2747 -0.1182 -0.4068
19464SOL     OW60398   7.375   2.078   8.847  0.6283 -0.0733 -0.4642
19464SOL    HW160399   7.296   2.026   8.833  1.9586 -1.3919 -4.4372
19464SOL    HW260400   7.444   2.014   8.860  1.3130  1.0290  1.8060
19465SOL     OW60401   3.284   1.536   5.481  0.2434 -0.8236 -0.3580
19465SOL    HW160402   3.360   1.479   5.467  1.2570  0.9105 -2.6021
19465SOL    HW260403   3.321   1.619   5.511 -1.1223 -0.9804  1.9806
19466SOL     OW60404   6.892   5.728   0.549  0.3166 -0.8618 -0.4256
19466SOL    HW160405   6.835   5.756   0.477  0.9367  1.2949 -0.1475
19466SOL    HW260406   6.964   5.682   0.505  1.1282  1.1439 -1.3512
19467SOL     OW60407   7.208   2.059   3.750  0.0439  0.5757  0.0052
19467SOL    HW160408   7.284   2.002   3.756 -0.4672 -0.1221 -0.0242
19467SOL    HW260409   7.236   2.133   3.696  0.6403  0.2345 -0.1490
19468SOL     OW60410   8.630   7.536   7.893 -0.5696 -0.0513 -0.2285
19468SOL    HW160411   8.545   7.573   7.870 -0.7620  1.7357  2.9140
19468SOL    HW260412   8.609   7.462   7.951 -0.0431  1.1918  1.6190
19469SOL     OW60413   8.923   0.757  10.464  0.2524 -0.1324  0.0503
19469SOL    HW160414   8.853   0.810  10.428  0.2808 -1.7152 -2.6435
19469SOL    HW260415   8.881   0.705  10.533 -0.3512  1.4224  0.8925
19470SOL     OW60416   8.829   1.194   4.535 -0.0197  0.1581 -0.2988
19470SOL    HW160417   8.756   1.177   4.476 -1.0004  2.5199  0.1020
19470SOL    HW260418   8.886   1.118   4.527 -0.0678  0.3599 -4.3062
19471SOL     OW60419   7.983   3.633   0.904 -0.0784  0.1839 -0.6827
19471SOL    HW160420   8.018   3.573   0.969 -1.2849 -1.6894 -1.6761
19471SOL    HW260421   8.060   3.673   0.864  0.6849  1.1549  1.6275
19472SOL     OW60422   5.001   9.127  10.377  0.2203  0.7842 -0.2626
19472SOL    HW160423   5.057   9.162  10.307  2.9779 -0.5597  1.0928
19472SOL    HW260424   5.029   9.035  10.386 -3.1119 -0.3619 -0.2511
19473SOL     OW60425   8.406  10.760   5.060  0.5115 -0.0254 -0.5093
19473SOL    HW160426   8.358  10.806   4.992 -0.8309 -0.5701  0.0291
19473SOL    HW260427   8.464  10.826   5.098 -0.6839  0.9925 -0.3935
19474SOL     OW60428   1.467   9.944   8.056 -0.1013  0.3722  0.6577
19474SOL    HW160429   1.493   9.998   8.131  1.3636  0.9271 -0.1984
19474SOL    HW260430   1.537   9.958   7.992 -2.2031  1.3380 -1.5615
19475SOL     OW60431   5.881   6.572   0.047  0.0185 -0.3896 -0.5047
19475SOL    HW160432   5.808   6.550  -0.011  0.0890 -0.9691 -0.3755
19475SOL    HW260433   5.939   6.626  -0.007  0.5827 -1.7564 -1.3053
19476SOL     OW60434   8.843   7.908   0.113 -0.6303 -0.2721  0.2457
19476SOL    HW160435   8.921   7.965   0.111  0.1478 -1.3163 -0.0212
19476SOL    HW260436   8.833   7.878   0.022  0.1951 -2.1512  0.7365
19477SOL     OW60437   2.571   5.640  10.178 -1.0243 -0.3806 -0.8597
19477SOL    HW160438   2.584   5.578  10.249 -0.9110  0.4955 -0.0839
19477SOL    HW260439   2.483   5.674  10.191  0.2872  2.7124  1.3669
19478SOL     OW60440   5.167   0.380   0.830  0.1184 -0.0093 -0.8978
19478SOL    HW160441   5.251   0.412   0.864  0.0546 -0.2459 -0.5139
19478SOL    HW260442   5.105   0.395   0.901 -0.0021 -0.5681 -0.8788
19479SOL     OW60443   2.039   7.626   6.302 -0.0962 -0.4165 -0.5034
19479SOL    HW160444   2.042   7.680   6.223  0.4935 -0.8490 -0.7848
19479SOL    HW260445   2.129   7.625   6.333 -0.5244  0.8078  0.9131
19480SOL     OW60446  10.427   0.884   6.199 -0.6939  0.3431 -0.0273
19480SOL    HW160447  10.404   0.793   6.216 -1.0418  0.2849 -0.7660
19480SOL    HW260448  10.348   0.923   6.161 -0.3115  0.7421 -0.4405
19481SOL     OW60449   5.003  11.121   1.717 -0.4663 -0.1572  1.0705
19481SOL    HW160450   4.991  11.215   1.705  1.9633  0.4270  2.4909
19481SOL    HW260451   5.012  11.087   1.628  0.3335  1.2694  0.5634
19482SOL     OW60452   0.990   8.470   4.093  0.1369  0.0749  0.5131
19482SOL    HW160453   0.924   8.525   4.050  0.4543 -1.2543 -1.8380
19482SOL    HW260454   1.064   8.471   4.032  0.5378 -2.0933  0.9100
19483SOL     OW60455   4.126   3.288   2.725  0.7022 -0.2780 -0.5701
19483SOL    HW160456   4.138   3.228   2.652 -1.1381 -0.0229 -1.1431
19483SOL    HW260457   4.178   3.365   2.702  0.0492 -0.1594 -1.6744
19484SOL     OW60458   8.674   9.936   8.868  0.2884 -0.0467 -0.0868
19484SOL    HW160459   8.638   9.853   8.901  0.5105 -0.4117 -0.7461
19484SOL    HW260460   8.599   9.981   8.829 -0.5369  1.4969  2.9663
19485SOL     OW60461   6.234   4.770   7.017 -0.5425  0.5707 -0.0058
19485SOL    HW160462   6.145   4.794   6.992 -1.3089 -0.5617  1.4544
19485SOL    HW260463   6.233   4.770   7.113  0.0451 -2.7107  0.1159
19486SOL     OW60464   9.449   2.484   4.586  0.2107  0.4306  0.2474
19486SOL    HW160465   9.363   2.447   4.604  0.0586  0.1483 -0.9615
19486SOL    HW260466   9.432   2.577   4.570 -0.2314  0.0058 -2.1326
19487SOL     OW60467   1.440   5.995   9.435 -0.6360 -0.9082 -0.3069
19487SOL    HW160468   1.520   6.040   9.463 -0.8382 -1.5325  1.4083
19487SOL    HW260469   1.428   6.022   9.344  0.0875  1.2784  0.1751
19488SOL     OW60470   2.056   7.467   4.332  0.0662  0.1157  0.7467
19488SOL    HW160471   2.108   7.400   4.287  3.5190  1.6036  2.1623
19488SOL    HW260472   2.110   7.493   4.407 -2.3919  2.4998  1.8666
19489SOL     OW60473  10.784   5.073   8.377  0.8800 -0.1941 -0.3157
19489SOL    HW160474  10.813   5.134   8.444 -1.0107  0.1171  0.2718
19489SOL    HW260475  10.846   5.000   8.383  2.4478  1.0911 -0.2137
19490SOL     OW60476   0.922   2.568   1.029  0.3295 -0.2752  0.3110
19490SOL    HW160477   0.946   2.656   0.999 -0.5046  0.3838  1.4763
19490SOL    HW260478   0.830   2.558   1.003  0.8161 -1.4159 -1.1098
19491SOL     OW60479   1.307  11.161   6.321  0.2821 -0.5647 -0.0785
19491SOL    HW160480   1.245  11.101   6.280  0.1167 -0.5858  0.1972
19491SOL    HW260481   1.261  11.245   6.323  0.7624 -0.2620 -1.0674
19492SOL     OW60482   8.686   5.546   3.567  0.6641  0.1909 -0.3191
19492SOL    HW160483   8.731   5.465   3.545  0.5199 -0.4287  1.4745
19492SOL    HW260484   8.743   5.616   3.535  2.8636 -0.5694  1.6878
19493SOL     OW60485   4.088  10.376   2.295 -0.2548  0.6613 -0.6382
19493SOL    HW160486   4.080  10.302   2.356  0.4203  0.2319 -1.0568
19493SOL    HW260487   4.019  10.360   2.230  0.8854 -0.4933 -1.6268
19494SOL     OW60488   6.412   5.719   1.159 -0.3528  0.4848  0.5827
19494SOL    HW160489   6.451   5.726   1.246  2.3848  2.7672 -0.6332
19494SOL    HW260490   6.465   5.653   1.114 -1.0067  0.1530  0.2881
19495SOL     OW60491   7.481   7.012   4.408 -0.0010  0.4546 -0.5095
19495SOL    HW160492   7.562   6.971   4.378  1.6344  1.6716  1.9258
19495SOL    HW260493   7.483   7.100   4.368  1.6969  1.7195  2.0415
19496SOL     OW60494   2.965   3.409   7.484 -0.1470 -0.1100 -0.2667
19496SOL    HW160495   2.976   3.501   7.460  0.6119 -0.3088 -0.6989
19496SOL    HW260496   2.901   3.375   7.421 -2.1711  0.6387  1.2462
19497SOL     OW60497   2.122   5.199   5.620 -0.4145 -0.5761  0.6824
19497SOL    HW160498   2.049   5.142   5.644 -2.1762  1.8993  1.5775
19497SOL    HW260499   2.115   5.273   5.680 -0.3778  2.2753 -2.5680
19498SOL     OW60500   7.778   9.942   1.451 -0.9396  0.5123  0.5775
19498SOL    HW160501   7.821   9.948   1.537 -0.1670 -2.3530  0.4665
19498SOL    HW260502   7.707  10.007   1.456  0.1464  1.6609  2.7080
19499SOL     OW60503   7.067   0.209   0.508 -0.5393  0.0179 -0.8399
19499SOL    HW160504   7.155   0.173   0.520 -0.4865 -0.7803 -3.1111
19499SOL    HW260505   7.071   0.296   0.547  0.8456 -0.5164  0.2918
19500SOL     OW60506   7.000   2.877   3.157  0.1727 -0.2054 -0.2513
19500SOL    HW160507   7.088   2.915   3.146 -0.2025  0.6075 -0.4730
19500SOL    HW260508   6.998   2.851   3.250  0.8557 -0.7763 -0.3841
19501SOL     OW60509   1.248   2.362   1.561  0.2447  0.0124  0.0100
19501SOL    HW160510   1.186   2.422   1.519  1.1598 -0.3895 -2.0526
19501SOL    HW260511   1.324   2.417   1.582 -0.2775  0.2478  1.3749
19502SOL     OW60512   4.818   8.501   4.636 -0.9573  0.5919 -0.2545
19502SOL    HW160513   4.839   8.592   4.615  0.7322  0.3534  0.2023
19502SOL    HW260514   4.759   8.507   4.711  1.3602  1.3758  1.6776
19503SOL     OW60515  10.704   7.472   8.734  0.0001  0.2500 -0.5891
19503SOL    HW160516  10.691   7.520   8.652  0.8398  1.9974  0.2501
19503SOL    HW260517  10.618   7.471   8.775  0.0071  1.2314 -0.5364
19504SOL     OW60518   1.778   1.778   6.070  0.6365 -0.0549  0.2874
19504SOL    HW160519   1.872   1.761   6.082  1.2022  1.8133 -1.0146
19504SOL    HW260520   1.750   1.814   6.154  0.9516 -1.0196  0.8282
19505SOL     OW60521   3.324   2.490   0.883 -0.1650  0.1350 -0.0599
19505SOL    HW160522   3.401   2.543   0.905 -0.9485  1.2930 -0.0517
19505SOL    HW260523   3.258   2.553   0.857 -1.8395 -0.6541  2.0189
19506SOL     OW60524   4.401   5.962   2.546  0.3729  0.2858  0.2894
19506SOL    HW160525   4.388   5.959   2.452  1.3716 -3.4213  0.1357
19506SOL    HW260526   4.386   5.873   2.576  0.2551  1.2843  3.6695
19507SOL     OW60527   0.438   2.643   8.970  0.4511  0.4706  0.1604
19507SOL    HW160528   0.388   2.674   8.895 -1.8208  2.8673  2.4274
19507SOL    HW260529   0.517   2.696   8.970 -0.7277  2.3298  0.7562
19508SOL     OW60530   3.327   9.223   8.567  0.4341  0.7601  0.8321
19508SOL    HW160531   3.242   9.182   8.582  0.8241 -0.2795  0.2866
19508SOL    HW260532   3.375   9.160   8.513  0.8391  2.2112 -0.5799
19509SOL     OW60533   3.195   9.204   6.672  0.3794 -0.6166  0.5474
19509SOL    HW160534   3.290   9.206   6.685  0.8122 -1.1519 -2.0226
19509SOL    HW260535   3.162   9.158   6.749  2.1800 -0.5035  1.4607
19510SOL     OW60536   5.484   5.266   8.039  0.0937  0.2844  0.1611
19510SOL    HW160537   5.498   5.245   8.131  0.4433  1.6929  0.4476
19510SOL    HW260538   5.396   5.233   8.020  0.4839 -1.0711  0.6639
19511SOL     OW60539   5.955  10.093   5.274  0.1283 -0.9476  0.8527
19511SOL    HW160540   6.030  10.046   5.310  0.0683 -0.1195  2.1427
19511SOL    HW260541   5.884  10.028   5.274  0.3083 -1.1517  1.6204
19512SOL     OW60542   7.544   1.947   5.002 -1.2616  0.1477  0.2325
19512SOL    HW160543   7.634   1.938   5.035 -0.9631  1.7557 -0.0694
19512SOL    HW260544   7.541   1.892   4.924 -0.4700  0.2500  0.1257
19513SOL     OW60545  10.864   3.543   1.433 -0.3408 -0.1564  0.4735
19513SOL    HW160546  10.887   3.581   1.517  0.5094  1.8999 -0.6198
19513SOL    HW260547  10.817   3.613   1.387  0.6240 -0.6283 -1.3456
19514SOL     OW60548   6.883   1.715   0.771 -0.0325 -0.0038 -0.2703
19514SOL    HW160549   6.792   1.704   0.799 -0.1814  1.4157 -0.1660
19514SOL    HW260550   6.878   1.728   0.677  0.0158  0.6259 -0.1869
19515SOL     OW60551  10.024   3.630   0.882  0.3320 -0.2773  0.5667
19515SOL    HW160552  10.101   3.618   0.938  0.7314  0.9533  0.3069
19515SOL    HW260553   9.970   3.553   0.900  1.2112 -0.7293  1.4077
19516SOL     OW60554   8.408   3.046   4.883  0.3587  0.0854  0.0538
19516SOL    HW160555   8.395   3.135   4.916 -1.8265 -0.7288  1.6867
19516SOL    HW260556   8.356   3.042   4.803 -1.0652 -0.1745  0.9515
19517SOL     OW60557   8.916   9.061   5.920 -0.7208  0.0494  0.1047
19517SOL    HW160558   8.825   9.034   5.934 -0.7453  0.0189 -0.1055
19517SOL    HW260559   8.957   8.984   5.881 -0.8299  0.3665 -0.6554
19518SOL     OW60560   5.892   6.792   1.974  0.0315 -0.1129  0.8534
19518SOL    HW160561   5.830   6.805   2.046  0.0946 -0.1149  0.9083
19518SOL    HW260562   5.978   6.788   2.016 -0.0712 -1.8654  0.9766
19519SOL     OW60563   6.547   8.541   4.557  0.0626  0.1400  0.1931
19519SOL    HW160564   6.461   8.565   4.522  0.5304 -1.2902 -2.1718
19519SOL    HW260565   6.595   8.623   4.561 -0.3609  0.5292 -1.7027
19520SOL     OW60566  10.050   6.470   4.706  0.5895 -0.6044 -0.5615
19520SOL    HW160567  10.088   6.519   4.633 -0.2749  0.1866 -0.4943
19520SOL    HW260568   9.957   6.465   4.686  0.3493 -0.4289  0.4560
19521SOL     OW60569   0.537  10.028   4.537 -0.0648  0.1826  0.4997
19521SOL    HW160570   0.467  10.070   4.487 -0.4813  0.9573  1.6859
19521SOL    HW260571   0.518   9.934   4.531  0.8085  0.0920 -2.0922
19522SOL     OW60572   1.365   7.502   6.977 -0.2205 -0.1799 -0.3691
19522SOL    HW160573   1.311   7.504   6.898  0.1903  0.8119 -0.6272
19522SOL    HW260574   1.402   7.413   6.979  0.6423  0.1272 -1.8809
19523SOL     OW60575   0.875   5.788   0.577  0.0375 -0.3971 -0.2950
19523SOL    HW160576   0.837   5.772   0.664 -0.3068  2.7760  0.2659
19523SOL    HW260577   0.965   5.757   0.584 -0.4591 -1.7319  0.6095
19524SOL     OW60578   3.520   6.307   5.987  0.1105 -0.1710 -0.5706
19524SOL    HW160579   3.459   6.303   6.061 -0.8278 -0.6071 -1.3442
19524SOL    HW260580   3.567   6.223   5.992  0.5484  0.0946 -0.0721
19525SOL     OW60581   0.325   9.963   1.367  0.1911 -0.7458  0.4966
19525SOL    HW160582   0.332   9.892   1.303 -0.4619  0.2658 -0.7527
19525SOL    HW260583   0.371  10.037   1.327 -0.3275 -0.0522  1.1323
19526SOL     OW60584   2.631   2.840   6.886  0.8245 -0.2952  0.7049
19526SOL    HW160585   2.637   2.749   6.855  3.1075 -0.3725  1.1919
19526SOL    HW260586   2.644   2.892   6.807 -0.0430 -0.3847  0.4957
19527SOL     OW60587   6.745   3.871  10.774  0.7222  0.7498 -0.6646
19527SOL    HW160588   6.797   3.946  10.802  0.9075 -0.1987  1.8128
19527SOL    HW260589   6.808   3.811  10.734  1.4530  0.0387  1.4192
19528SOL     OW60590   9.234   0.342   3.001 -0.5966 -0.3450 -0.1464
19528SOL    HW160591   9.236   0.345   2.905  0.4926  0.7065 -0.1184
19528SOL    HW260592   9.319   0.377   3.028 -0.9858 -0.3836  1.2142
19529SOL     OW60593   0.601   5.041   0.587 -0.1926  0.1285 -0.6115
19529SOL    HW160594   0.646   4.961   0.562  0.0151  0.5421 -1.6221
19529SOL    HW260595   0.666   5.091   0.637 -0.6646 -0.7796  0.9631
19530SOL     OW60596   7.500   1.740  10.276  0.1435  0.4730  0.4034
19530SOL    HW160597   7.410   1.718  10.253  0.2545  1.6020 -1.2949
19530SOL    HW260598   7.540   1.657  10.300 -0.6485 -0.4460 -1.3376
19531SOL     OW60599   6.559   4.044   3.772 -0.3157 -0.2104 -0.1657
19531SOL    HW160600   6.553   4.077   3.861 -0.9545 -2.2427  0.5941
19531SOL    HW260601   6.626   4.099   3.730 -1.0748  1.7551  1.0684
19532SOL     OW60602   0.311   1.652   8.070  0.2365 -0.3877 -0.2872
19532SOL    HW160603   0.396   1.608   8.067 -0.0454 -1.0004  0.3957
19532SOL    HW260604   0.318   1.723   8.005  0.9198 -1.0439 -0.9490
19533SOL     OW60605   5.127   3.922  10.092 -0.0875 -0.0397  0.3174
19533SOL    HW160606   5.142   3.848  10.151  1.5970  0.0656  0.0721
19533SOL    HW260607   5.163   3.893  10.008 -0.2669  0.7008 -0.0223
19534SOL     OW60608   3.455   1.941   0.937  0.2370  0.0572 -0.2463
19534SOL    HW160609   3.452   1.949   1.033  1.2171  3.5031 -0.3590
19534SOL    HW260610   3.527   1.999   0.911 -0.4054 -0.3219 -3.1334
19535SOL     OW60611   0.556  10.303   5.441 -0.0022  0.7643 -0.1799
19535SOL    HW160612   0.614  10.269   5.508 -1.1448 -1.4647 -0.2393
19535SOL    HW260613   0.489  10.351   5.489 -0.8233 -0.8350  0.3303
19536SOL     OW60614   1.431   6.033   9.161  0.7099 -0.3141 -0.5185
19536SOL    HW160615   1.437   5.937   9.163 -0.8275 -0.4258 -0.5180
19536SOL    HW260616   1.473   6.057   9.078 -0.5460 -1.1472 -1.4243
19537SOL     OW60617   1.347   9.728  10.134  0.5954  0.3929 -0.4961
19537SOL    HW160618   1.341   9.822  10.148  0.9583  0.3685 -0.1405
19537SOL    HW260619   1.257   9.697  10.136  0.4165  0.8392 -1.3918
19538SOL     OW60620   6.052   8.365   7.205 -0.2057 -0.0834  0.2176
19538SOL    HW160621   6.091   8.453   7.210  1.1374 -0.5379 -1.3461
19538SOL    HW260622   5.959   8.381   7.190  0.0066  1.0847  0.0192
19539SOL     OW60623   5.955   0.093   3.523 -0.2852  0.3940  0.2873
19539SOL    HW160624   5.883   0.155   3.531 -0.0795  0.8823 -1.2230
19539SOL    HW260625   6.034   0.147   3.531 -0.0989  0.1385  0.1825
19540SOL     OW60626   2.557  10.922   1.484 -0.1374  0.1803 -0.1591
19540SOL    HW160627   2.615  10.867   1.536 -1.5927  0.7398  2.1698
19540SOL    HW260628   2.507  10.860   1.430  0.1681 -0.5657  0.3988
19541SOL     OW60629   3.311   2.898   2.352  0.2180  0.4544 -0.1742
19541SOL    HW160630   3.401   2.925   2.333 -0.4787  2.4184 -1.0201
19541SOL    HW260631   3.283   2.852   2.273  0.5083 -0.2730  0.1412
19542SOL     OW60632   8.613   2.437   0.328 -0.1613 -0.1926 -0.2007
19542SOL    HW160633   8.680   2.382   0.288 -0.9532 -1.6660  0.4090
19542SOL    HW260634   8.557   2.463   0.255  1.3030  1.4637 -0.7927
19543SOL     OW60635   9.961   9.988   6.142 -0.6361 -0.3407  0.1822
19543SOL    HW160636   9.959   9.918   6.076 -2.1706 -0.7141  0.5915
19543SOL    HW260637  10.017  10.055   6.103  0.7702 -1.7033 -0.2922
19544SOL     OW60638   4.734   7.737  11.193  0.4357  0.2429  0.6459
19544SOL    HW160639   4.653   7.745  11.243  0.4873 -0.5043  0.8612
19544SOL    HW260640   4.792   7.803  11.230  0.7560 -0.8334  2.1412
19545SOL     OW60641   3.692   0.669   5.676  0.5429 -0.2927  0.1663
19545SOL    HW160642   3.673   0.596   5.734  0.4851 -0.9985 -0.7134
19545SOL    HW260643   3.636   0.740   5.708 -2.0866 -1.6728 -1.0417
19546SOL     OW60644   7.159   3.137   9.874 -0.7022  0.0326  0.2971
19546SOL    HW160645   7.165   3.073   9.944  0.4755 -0.9718 -0.6758
19546SOL    HW260646   7.240   3.126   9.824 -1.1082  1.3260 -0.7094
19547SOL     OW60647   5.294   5.287   4.806 -0.1028  0.1276  0.3872
19547SOL    HW160648   5.296   5.363   4.748  0.8057 -0.8085 -0.8676
19547SOL    HW260649   5.242   5.316   4.881 -3.1191  0.7928 -1.7594
19548SOL     OW60650   0.223   5.560   2.373  0.2860  0.4669 -0.1406
19548SOL    HW160651   0.141   5.513   2.389  0.4973 -0.0495 -0.5266
19548SOL    HW260652   0.196   5.642   2.333  0.0362 -1.3195 -4.1184
19549SOL     OW60653   1.358   5.826   8.789 -0.3312  0.8393  0.2493
19549SOL    HW160654   1.375   5.734   8.811  0.0672  0.4768 -1.4384
19549SOL    HW260655   1.348   5.869   8.874  0.2538 -0.6064  1.0964
19550SOL     OW60656   9.772   5.785  10.856  0.6085  0.3957 -0.1883
19550SOL    HW160657   9.770   5.852  10.924 -0.8935  0.2324 -0.0346
19550SOL    HW260658   9.692   5.735  10.870  2.2436 -2.2386  0.4879
19551SOL     OW60659   7.949   7.204   3.543 -0.2561 -0.8335 -0.5186
19551SOL    HW160660   7.955   7.254   3.625  1.4213  1.2431 -1.8056
19551SOL    HW260661   8.040   7.192   3.516 -0.7758  0.5378 -3.2017
19552SOL     OW60662   9.359   1.573   7.405  0.3960  0.5973 -0.5363
19552SOL    HW160663   9.411   1.533   7.475  2.2315 -0.8884 -2.6294
19552SOL    HW260664   9.297   1.505   7.380 -0.2946  1.1458 -0.3465
19553SOL     OW60665   2.369   4.246   9.522 -0.2928 -0.1584  0.2142
19553SOL    HW160666   2.274   4.257   9.522 -0.3889 -0.7191 -1.6276
19553SOL    HW260667   2.400   4.300   9.449  0.7931 -0.1205  0.6731
19554SOL     OW60668   7.761   1.686   7.612  0.3226  0.6275  0.1068
19554SOL    HW160669   7.839   1.706   7.664  0.2932  0.8748  0.0568
19554SOL    HW260670   7.689   1.720   7.664  0.0811 -1.0466  0.9487
19555SOL     OW60671   5.922   1.809   1.810 -0.3902 -0.1770  0.4087
19555SOL    HW160672   6.000   1.853   1.842 -0.9046  1.7177 -0.7946
19555SOL    HW260673   5.870   1.879   1.770 -1.7500 -1.7243 -0.6359
19556SOL     OW60674   0.651   4.630  10.681  1.0260 -0.1744  0.3818
19556SOL    HW160675   0.572   4.612  10.733 -1.0041  1.8509 -1.7631
19556SOL    HW260676   0.705   4.684  10.738  0.0363 -0.0953  1.2841
19557SOL     OW60677   8.295  10.070   5.983 -0.4602  0.5649  0.1821
19557SOL    HW160678   8.224  10.123   5.948  0.1725  0.9499 -0.5562
19557SOL    HW260679   8.357  10.134   6.019  0.0891  0.3033 -0.2891
19558SOL     OW60680   2.356   7.500   4.933 -0.6617 -0.3119  0.7035
19558SOL    HW160681   2.388   7.423   4.981  1.4942  0.6473  0.9109
19558SOL    HW260682   2.343   7.468   4.844  0.4811 -0.8872  0.7209
19559SOL     OW60683   9.594   7.088   1.906  0.8285  0.4300 -0.3790
19559SOL    HW160684   9.621   7.009   1.952  0.6390  0.5880  0.0061
19559SOL    HW260685   9.503   7.100   1.930  0.3103 -0.2500 -1.8820
19560SOL     OW60686   8.372   5.897  10.360 -0.2071  0.7386 -0.5282
19560SOL    HW160687   8.354   5.885  10.454  0.8043 -1.1463 -0.5231
19560SOL    HW260688   8.344   5.814  10.320 -0.0266  1.2822 -1.8002
19561SOL     OW60689   2.876   3.419  10.991  0.1470 -1.1946  0.6984
19561SOL    HW160690   2.922   3.474  10.928 -1.7201  0.6670  0.8739
19561SOL    HW260691   2.826   3.480  11.046 -0.7094 -2.9517  2.0049
19562SOL     OW60692   6.061   6.073   7.347  0.2377  0.1578 -0.6319
19562SOL    HW160693   6.080   6.002   7.408 -0.5529 -0.6762 -1.3258
19562SOL    HW260694   6.146   6.110   7.325  0.4991  1.0865  1.6603
19563SOL     OW60695   6.824   6.010   1.619 -0.4570 -0.1153 -0.7656
19563SOL    HW160696   6.797   5.918   1.615  0.1317 -0.4276  1.2983
19563SOL    HW260697   6.884   6.014   1.693 -1.9282  2.2829  0.4052
19564SOL     OW60698   5.334   5.692   8.929 -0.1168  0.3957  0.2883
19564SOL    HW160699   5.375   5.626   8.985  3.2171  0.1997 -2.1073
19564SOL    HW260700   5.381   5.773   8.948  1.4798  0.2212 -2.3583
19565SOL     OW60701   2.577   2.010   2.830  1.3174  0.0645  0.5441
19565SOL    HW160702   2.623   1.936   2.790  1.2918  1.1661 -1.6513
19565SOL    HW260703   2.594   2.001   2.924  0.5906 -3.2134  0.4949
19566SOL     OW60704   9.923   7.960   9.445 -0.0298  0.1190  0.3282
19566SOL    HW160705   9.853   7.933   9.504 -0.4353 -0.9753 -0.6108
19566SOL    HW260706  10.001   7.968   9.501 -1.2709  3.5635  1.8357
19567SOL     OW60707   3.387   3.327   8.148  0.9132  0.5455 -0.2222
19567SOL    HW160708   3.293   3.344   8.154  0.8018  0.1797 -0.8840
19567SOL    HW260709   3.427   3.414   8.144  0.7093  0.7419  1.3763
19568SOL     OW60710   6.088   9.587  11.192  0.6727  0.0654  0.5279
19568SOL    HW160711   6.099   9.513  11.132  1.8859 -0.1446  0.9846
19568SOL    HW260712   6.123   9.662  11.144 -0.2933  0.3098  0.1779
19569SOL     OW60713   8.779   4.122   3.687  0.0751 -0.1289 -0.2053
19569SOL    HW160714   8.866   4.093   3.662  0.4024 -0.7893  1.5841
19569SOL    HW260715   8.786   4.217   3.695  0.4910 -0.1273 -0.5656
19570SOL     OW60716   8.770   9.569   8.615  0.0330 -0.0404 -0.0924
19570SOL    HW160717   8.681   9.539   8.629  0.1083 -0.1767  0.0916
19570SOL    HW260718   8.771   9.659   8.649 -0.6007  0.7453 -2.0021
19571SOL     OW60719   3.516   3.868   9.741  0.0166  0.1163 -0.0858
19571SOL    HW160720   3.445   3.908   9.690  1.0359  1.3622 -0.5946
19571SOL    HW260721   3.567   3.819   9.676  0.3106  0.2418  0.0476
19572SOL     OW60722   0.955   7.870   3.925 -0.0851 -0.0461 -0.8541
19572SOL    HW160723   0.877   7.815   3.923 -0.0630 -0.0658 -1.1475
19572SOL    HW260724   0.978   7.874   4.018 -0.3441 -0.1667 -0.7825
19573SOL     OW60725   6.355  10.022   7.259 -0.2676 -0.8990  0.1250
19573SOL    HW160726   6.422  10.071   7.212 -0.4089  2.4062  2.9718
19573SOL    HW260727   6.284  10.012   7.195 -0.8202  4.0844 -0.4681
19574SOL     OW60728   5.470   5.301   6.843 -0.2009  0.0976 -0.1644
19574SOL    HW160729   5.469   5.205   6.842 -2.3140  0.0790 -0.0999
19574SOL    HW260730   5.403   5.326   6.780 -1.0292  1.5005  1.2037
19575SOL     OW60731   3.364   8.432   8.937  0.6696 -0.0422  0.3694
19575SOL    HW160732   3.339   8.508   8.883 -0.3626 -0.1863  0.6287
19575SOL    HW260733   3.457   8.419   8.918  0.8183  1.1695  0.1710
19576SOL     OW60734   0.774   5.656   4.458 -0.3294 -0.1127  0.4653
19576SOL    HW160735   0.847   5.613   4.502 -2.2326 -1.6478  2.3384
19576SOL    HW260736   0.783   5.631   4.366  0.5160 -1.7648  0.9651
19577SOL     OW60737   1.934   0.003   0.373 -0.6323 -0.7450 -0.1414
19577SOL    HW160738   1.877  -0.059   0.329 -1.7707 -1.6305  2.3820
19577SOL    HW260739   2.009   0.014   0.314 -1.3161 -3.0102 -1.5370
19578SOL     OW60740   2.662   3.748   1.194  0.4500  0.2709 -0.3226
19578SOL    HW160741   2.698   3.698   1.268 -0.3556 -0.2802 -0.2858
19578SOL    HW260742   2.636   3.832   1.233  1.1405  0.4453 -0.2316
19579SOL     OW60743   0.371   8.571   5.740 -0.4648 -0.2806  0.2878
19579SOL    HW160744   0.334   8.660   5.744  0.9516  0.2953  1.7319
19579SOL    HW260745   0.423   8.571   5.660 -0.3803  0.2447  0.3329
19580SOL     OW60746   8.053   4.725   9.711 -0.0067  0.6188 -0.1469
19580SOL    HW160747   8.094   4.724   9.797 -2.8513  2.1379  1.3924
19580SOL    HW260748   8.082   4.644   9.669  1.6218 -0.0772  2.1614
19581SOL     OW60749   5.175   0.111   0.858  0.1144  0.4580 -0.0644
19581SOL    HW160750   5.185   0.200   0.824  1.0690  0.0426 -0.9044
19581SOL    HW260751   5.264   0.078   0.868 -0.2267 -1.3286 -2.2642
19582SOL     OW60752   9.121   9.175   0.758 -0.2228 -0.0151  0.2728
19582SOL    HW160753   9.038   9.129   0.775  0.7432 -1.4009  1.4889
19582SOL    HW260754   9.110   9.214   0.672 -2.4739  0.5812  0.7594
19583SOL     OW60755   2.509  10.651   9.423  0.3730  0.3344 -0.4272
19583SOL    HW160756   2.426  10.602   9.420  1.2058 -1.1052 -0.7137
19583SOL    HW260757   2.509  10.703   9.343 -0.2115  0.2736 -0.4722
19584SOL     OW60758   7.065   5.251   4.564  0.1730  0.0397 -0.3467
19584SOL    HW160759   7.146   5.213   4.597  1.0878  0.7151 -1.6950
19584SOL    HW260760   7.015   5.177   4.530  1.1425 -0.1982 -1.3236
19585SOL     OW60761   1.709   8.466   8.061  0.5797 -1.0301  0.0463
19585SOL    HW160762   1.768   8.437   8.131 -0.0728 -0.9893  0.6209
19585SOL    HW260763   1.718   8.399   7.993  2.2936 -0.3486 -0.4719
19586SOL     OW60764   1.926   2.385   1.573 -0.9026  0.2194  0.1842
19586SOL    HW160765   2.005   2.337   1.549 -1.5218 -0.7409  0.0277
19586SOL    HW260766   1.853   2.328   1.546 -1.6695  1.5230 -0.5974
19587SOL     OW60767   1.537   7.553   5.431 -0.3763  0.3065 -0.1005
19587SOL    HW160768   1.594   7.555   5.354  1.3642  0.7245  1.1547
19587SOL    HW260769   1.573   7.620   5.489 -2.4846  0.9499  0.5412
19588SOL     OW60770   0.326   1.102  10.734 -0.4976  0.3314 -0.5394
19588SOL    HW160771   0.254   1.077  10.677  1.2575 -1.4599 -2.1449
19588SOL    HW260772   0.363   1.019  10.765  3.2710  0.8153 -3.0197
19589SOL     OW60773   4.320   8.092   1.183 -0.0831  0.0850  0.0109
19589SOL    HW160774   4.338   8.031   1.111  0.9816  0.6596 -0.2339
19589SOL    HW260775   4.225   8.089   1.193  0.0302 -3.5552  1.7113
19590SOL     OW60776   3.042   6.481   6.688 -0.4670  0.1433 -0.3326
19590SOL    HW160777   3.083   6.530   6.617  0.1984 -1.7637 -1.3446
19590SOL    HW260778   3.089   6.509   6.767  0.7154  0.2533 -1.0436
19591SOL     OW60779   0.048   2.682   1.092 -0.1078  0.4524 -0.5533
19591SOL    HW160780  -0.005   2.602   1.091 -1.0597  1.0737 -0.9664
19591SOL    HW260781   0.015   2.731   1.168  2.0052 -0.5156  1.1122
19592SOL     OW60782   9.658   8.960   1.685 -0.1122 -0.7674 -0.6960
19592SOL    HW160783   9.667   9.014   1.607  0.7439 -1.0885 -0.8314
19592SOL    HW260784   9.644   9.022   1.756 -0.8502 -0.4691 -1.0955
19593SOL     OW60785  11.125   1.135  10.201  0.3107 -0.0267  0.0751
19593SOL    HW160786  11.204   1.170  10.244  1.2018 -2.4791  0.5854
19593SOL    HW260787  11.088   1.076  10.266 -0.7137 -0.5982 -1.0111
19594SOL     OW60788   8.227   3.378   2.670  0.1982 -0.6008  0.2377
19594SOL    HW160789   8.247   3.459   2.624 -0.5901 -0.2789  0.4597
19594SOL    HW260790   8.234   3.400   2.763  0.1074 -0.8228  0.2995
19595SOL     OW60791   0.492   9.809   2.386 -0.7859  0.0240  0.2190
19595SOL    HW160792   0.481   9.888   2.333 -0.3667  0.4402  0.7345
19595SOL    HW260793   0.489   9.841   2.476  0.3014 -0.4130  0.4293
19596SOL     OW60794  10.645   6.978  11.033  0.3060  0.2022  0.1322
19596SOL    HW160795  10.717   6.960  10.973  0.0544 -1.6710  0.3403
19596SOL    HW260796  10.601   7.053  10.995  1.3266  0.2900 -0.9473
19597SOL     OW60797   0.077   0.004   0.389  0.7587 -0.0288  0.1571
19597SOL    HW160798  -0.003   0.050   0.363  0.7659 -1.0582 -1.9057
19597SOL    HW260799   0.118  -0.020   0.306  1.5170 -2.4060  1.1357
19598SOL     OW60800  10.806   9.402   2.872 -0.0242 -0.1987 -0.7747
19598SOL    HW160801  10.808   9.312   2.839 -0.8462 -0.0511 -1.2497
19598SOL    HW260802  10.723   9.408   2.919  1.7175 -0.8628  2.7372
19599SOL     OW60803  10.101   3.438   8.032 -0.1755 -0.5380 -0.4844
19599SOL    HW160804  10.155   3.431   8.111  0.7151  0.6904 -0.9463
19599SOL    HW260805  10.104   3.351   7.993  2.3002 -0.2997 -0.9824
19600SOL     OW60806  11.093   8.496   2.339  0.5215  0.1185  0.1138
19600SOL    HW160807  11.058   8.537   2.259 -0.7570 -1.5025 -0.2017
19600SOL    HW260808  11.125   8.570   2.391  0.0344  1.3436 -1.2495
19601SOL     OW60809   2.018   9.496   3.336 -0.3785 -0.6055 -0.4544
19601SOL    HW160810   1.985   9.583   3.358  1.9416  0.2129  0.0340
19601SOL    HW260811   1.939   9.443   3.325 -1.8363  1.3100  0.1809
19602SOL     OW60812  10.707   3.415   0.711  0.1992 -0.3425  0.5700
19602SOL    HW160813  10.793   3.435   0.748  0.1650  0.3279  0.3137
19602SOL    HW260814  10.652   3.488   0.739  1.0026  2.2684 -3.7062
19603SOL     OW60815   6.731   8.348   8.120  0.4518  0.2824 -0.6761
19603SOL    HW160816   6.738   8.366   8.214  0.7017 -1.6028 -0.3057
19603SOL    HW260817   6.731   8.435   8.079  1.0819  1.1141  1.0053
19604SOL     OW60818   0.572   7.448   8.640 -0.1124  0.8922  0.0197
19604SOL    HW160819   0.522   7.415   8.715 -0.4768 -0.0721 -0.6237
19604SOL    HW260820   0.661   7.459   8.673 -0.4350  1.2094  0.7954
19605SOL     OW60821  10.383   0.993   4.589  0.4695 -0.8005  0.0769
19605SOL    HW160822  10.460   0.987   4.532 -0.2639 -2.3267 -0.7933
19605SOL    HW260823  10.405   0.938   4.665 -0.5475 -3.0164 -1.1591
19606SOL     OW60824   0.990  10.516   0.212  0.6520 -0.2093 -0.1906
19606SOL    HW160825   1.009  10.468   0.293  1.3670 -1.0880 -0.8507
19606SOL    HW260826   1.071  10.564   0.194  1.3631 -1.8685 -1.6105
19607SOL     OW60827   3.413   2.807   1.465 -0.0201 -0.1152 -0.2861
19607SOL    HW160828   3.414   2.869   1.392 -4.2858  0.5925 -0.0249
19607SOL    HW260829   3.385   2.860   1.540 -1.7310 -1.8777  0.4100
19608SOL     OW60830   2.555   5.914   3.808  0.0501  0.6420  0.3622
19608SOL    HW160831   2.559   6.008   3.789  0.9775  0.6836  0.7135
19608SOL    HW260832   2.642   5.893   3.840 -0.4036 -0.1730  1.0801
19609SOL     OW60833  10.440   6.160   0.869 -0.3084  0.4600  0.0554
19609SOL    HW160834  10.433   6.203   0.955 -2.4301 -1.0575  0.7501
19609SOL    HW260835  10.433   6.231   0.806 -2.7734  1.3370  1.1621
19610SOL     OW60836   0.863   8.995   0.924 -0.3799  0.3151  1.4667
19610SOL    HW160837   0.850   9.086   0.951 -1.2628  0.9197 -0.7256
19610SOL    HW260838   0.919   9.000   0.846 -0.2203 -1.0465  1.4587
19611SOL     OW60839   6.628   4.499   6.629  0.0323  0.0192 -0.0798
19611SOL    HW160840   6.607   4.422   6.682 -2.2225 -1.3663 -2.7387
19611SOL    HW260841   6.660   4.463   6.547  1.7818  2.0616 -0.3709
19612SOL     OW60842   0.609   1.191   8.600 -0.3349  1.0090 -0.0805
19612SOL    HW160843   0.579   1.193   8.691 -0.3812 -0.5300 -0.0284
19612SOL    HW260844   0.535   1.223   8.549 -1.4878 -1.0211  0.2038
19613SOL     OW60845   0.149   8.399   3.509  0.2260 -0.2932 -0.4893
19613SOL    HW160846   0.064   8.366   3.480 -0.8243  1.1352  0.7911
19613SOL    HW260847   0.213   8.339   3.469 -1.3194 -1.0303 -2.0066
19614SOL     OW60848   4.615   0.565  11.077 -0.0135  0.2125 -0.2734
19614SOL    HW160849   4.650   0.619  11.007  0.4007 -1.5728 -1.5183
19614SOL    HW260850   4.684   0.565  11.144  0.8998 -0.4862 -1.1950
19615SOL     OW60851  11.233   6.212   7.898  0.3470  0.3983  0.2221
19615SOL    HW160852  11.178   6.191   7.822  0.8250  2.4593 -0.7783
19615SOL    HW260853  11.171   6.229   7.969 -0.1124 -1.3964  0.3050
19616SOL     OW60854   6.526   9.675   2.222 -0.3471  0.0636 -0.4502
19616SOL    HW160855   6.617   9.665   2.194 -0.1517 -1.4687  0.5652
19616SOL    HW260856   6.477   9.612   2.168 -1.0005  1.5415 -1.6588
19617SOL     OW60857   5.488   6.541   8.490 -0.0854 -0.7454  0.7836
19617SOL    HW160858   5.477   6.578   8.402 -3.4896 -0.6158  1.1438
19617SOL    HW260859   5.583   6.528   8.498  0.5059  0.6285 -2.3000
19618SOL     OW60860   5.852  11.161  10.723  0.4622  0.3718  0.1998
19618SOL    HW160861   5.863  11.229  10.790  1.5360  1.3890 -0.9375
19618SOL    HW260862   5.789  11.100  10.760 -1.2980  2.4923  0.9015
19619SOL     OW60863  10.223  11.064   0.689 -0.3214 -0.0104  0.0952
19619SOL    HW160864  10.186  11.126   0.751  0.3844 -0.7999  1.3532
19619SOL    HW260865  10.147  11.029   0.643 -0.7686  1.3795 -0.2744
19620SOL     OW60866   1.385   1.317   7.457  0.1747 -0.6764 -0.6140
19620SOL    HW160867   1.299   1.330   7.499  0.6243 -1.3301  0.5712
19620SOL    HW260868   1.411   1.404   7.428 -1.5690 -0.6716 -2.4394
19621SOL     OW60869   0.831   6.386  11.259  0.0472  0.6021  0.6018
19621SOL    HW160870   0.922   6.415  11.257 -0.2457  1.5353  0.5355
19621SOL    HW260871   0.796   6.413  11.174  0.3089 -1.8197 -0.3687
19622SOL     OW60872   2.926   2.490  10.112 -0.7999 -0.3022 -0.6226
19622SOL    HW160873   2.967   2.456  10.191 -0.8952 -2.5762 -1.4652
19622SOL    HW260874   2.981   2.456  10.041 -1.9481 -0.1640 -1.6118
19623SOL     OW60875   1.477   0.001   5.418 -0.5189  0.8135 -0.2978
19623SOL    HW160876   1.567  -0.029   5.426 -0.3592  0.6425 -2.1437
19623SOL    HW260877   1.429  -0.076   5.387 -1.1073  1.1619 -0.2762
19624SOL     OW60878   5.845   2.386   7.036 -0.3784 -0.1316 -0.3429
19624SOL    HW160879   5.805   2.300   7.019  0.1419 -0.4417 -0.0171
19624SOL    HW260880   5.933   2.366   7.067 -1.6376  0.2547  4.1350
19625SOL     OW60881   5.382  10.507   8.552 -0.3507 -0.2858 -0.1918
19625SOL    HW160882   5.427  10.506   8.636  1.0136  2.3077 -0.7756
19625SOL    HW260883   5.415  10.586   8.509 -5.7325  2.1608 -0.5684
19626SOL     OW60884   7.203   1.831   1.594  0.1675 -0.7216 -0.1465
19626SOL    HW160885   7.193   1.793   1.507  2.4370 -2.5183  0.2663
19626SOL    HW260886   7.160   1.769   1.653  1.3776 -1.2095  0.2607
19627SOL     OW60887   7.655   7.632   1.121 -0.1030  0.1221  0.0774
19627SOL    HW160888   7.668   7.578   1.199  0.8158  1.5574  0.9739
19627SOL    HW260889   7.709   7.591   1.054 -1.4115 -1.5104 -0.0404
19628SOL     OW60890   7.935   3.793   6.914  0.7744 -0.3976  0.6713
19628SOL    HW160891   7.986   3.866   6.949  1.2593 -0.5780  0.3568
19628SOL    HW260892   7.999   3.742   6.864 -0.5907  2.1667 -4.2948
19629SOL     OW60893  10.575   8.024   9.670  0.0681 -0.8459  0.5381
19629SOL    HW160894  10.488   7.993   9.646 -0.6921  0.5215  1.3723
19629SOL    HW260895  10.622   8.030   9.587 -1.6848  1.4217 -0.4020
19630SOL     OW60896   1.056   2.175   8.645 -0.4242  0.0661  0.4978
19630SOL    HW160897   1.107   2.126   8.709 -1.8381 -0.0124  1.6126
19630SOL    HW260898   1.050   2.117   8.569  1.3433  0.1946  0.2060
19631SOL     OW60899   4.621   9.864   7.506 -0.8008  0.1871  0.5245
19631SOL    HW160900   4.548   9.848   7.446  0.4656 -0.5558 -0.8972
19631SOL    HW260901   4.681   9.920   7.456  0.0494 -0.0024  1.2914
19632SOL     OW60902   6.157   9.933   5.388 -0.0703 -0.6110  0.3010
19632SOL    HW160903   6.244   9.965   5.365 -0.3038  0.8291  1.2533
19632SOL    HW260904   6.139   9.862   5.326  1.5552 -0.5815 -0.2323
19633SOL     OW60905   3.895   4.463   4.605 -0.4356 -0.3661  0.3547
19633SOL    HW160906   3.831   4.392   4.606 -0.8759  0.0300  2.1224
19633SOL    HW260907   3.979   4.420   4.624 -0.2721 -0.7485 -1.0791
19634SOL     OW60908   0.401   9.220   7.587  0.3532 -0.2588  0.0158
19634SOL    HW160909   0.364   9.135   7.566  0.3177  0.0088 -1.0256
19634SOL    HW260910   0.436   9.209   7.676 -2.3687 -0.4669  1.1582
19635SOL     OW60911   6.634   8.453   1.309 -0.2511 -0.3558  0.1543
19635SOL    HW160912   6.604   8.530   1.358  0.7234 -0.2868  0.6636
19635SOL    HW260913   6.646   8.385   1.375 -0.9017 -0.9027 -0.2701
19636SOL     OW60914  10.274   7.134   3.895  0.2450 -0.0461  0.3872
19636SOL    HW160915  10.290   7.226   3.916  2.4657 -0.3807  0.3581
19636SOL    HW260916  10.358   7.091   3.912 -0.5463 -1.9407 -0.3191
19637SOL     OW60917   0.653   6.354   9.044 -0.1443  0.2688  0.2963
19637SOL    HW160918   0.681   6.443   9.062 -0.2720  0.7595 -1.6772
19637SOL    HW260919   0.612   6.324   9.126  0.7264  1.6617  1.2810
19638SOL     OW60920   3.663   9.428   1.724  0.7500 -0.0590 -0.1208
19638SOL    HW160921   3.691   9.456   1.637  0.0795  0.1736 -0.2650
19638SOL    HW260922   3.736   9.376   1.756  1.4416  0.7157 -0.4001
19639SOL     OW60923   1.563   6.931   0.065 -0.1128 -0.1841 -0.0739
19639SOL    HW160924   1.496   6.990   0.031  0.1174  0.6764  0.9277
19639SOL    HW260925   1.621   6.987   0.116 -0.6083 -1.4589  1.9884
19640SOL     OW60926   5.039   9.262   7.352  0.0189  0.1464  0.7966
19640SOL    HW160927   5.018   9.216   7.434  0.5752  2.1964  2.1907
19640SOL    HW260928   5.114   9.215   7.317  0.2082 -0.3745  1.8507
19641SOL     OW60929  10.826   9.104   8.125 -0.7616  0.7028 -0.3148
19641SOL    HW160930  10.854   9.159   8.199  0.0681  0.6659 -0.5931
19641SOL    HW260931  10.804   9.020   8.165  1.7673 -0.0318 -0.3222
19642SOL     OW60932   5.516   6.263  10.348 -0.7184  0.2501  0.1483
19642SOL    HW160933   5.440   6.320  10.342 -1.6790 -0.8073  1.5414
19642SOL    HW260934   5.479   6.175  10.356  0.7017 -0.5099 -1.0714
19643SOL     OW60935   4.949   6.881   0.367  0.1356  0.6662 -0.1457
19643SOL    HW160936   4.897   6.808   0.333 -1.4108  1.1536  1.0720
19643SOL    HW260937   4.960   6.939   0.292  2.7338 -1.4515 -1.5752
19644SOL     OW60938   4.671   9.154  11.003  0.6331 -0.5867 -0.1317
19644SOL    HW160939   4.721   9.198  10.935  0.0248  1.2883  0.5638
19644SOL    HW260940   4.580   9.170  10.979  0.3686  1.8193  2.0474
19645SOL     OW60941   8.466  10.173   8.762 -0.7149 -0.1528  0.7494
19645SOL    HW160942   8.455  10.199   8.670 -0.9156  0.8642  1.0466
19645SOL    HW260943   8.472  10.256   8.809  0.2264 -0.6620  1.5637
19646SOL     OW60944   7.052   9.640   3.200  0.3000 -0.0419  0.0475
19646SOL    HW160945   7.100   9.641   3.284  2.2666 -0.7694 -1.0060
19646SOL    HW260946   6.974   9.588   3.218  1.7997 -2.1565  0.9320
19647SOL     OW60947   0.060   6.919   0.426  0.4823  0.8290 -0.5069
19647SOL    HW160948   0.015   6.863   0.363 -0.8139  0.5076  0.6413
19647SOL    HW260949  -0.010   6.970   0.467  1.2063  0.6682  1.0013
19648SOL     OW60950  10.478  10.368   5.768 -0.3514  0.0653  0.3352
19648SOL    HW160951  10.415  10.424   5.813  1.2994  1.0470  1.5783
19648SOL    HW260952  10.508  10.307   5.836  0.9802  0.5099  0.1895
19649SOL     OW60953   9.366   4.593  10.286 -0.4421  0.4603  0.5712
19649SOL    HW160954   9.313   4.514  10.276  0.2405  0.0794 -0.0747
19649SOL    HW260955   9.360   4.615  10.379 -1.1925  0.0489  0.6243
19650SOL     OW60956   1.129   2.991   8.758 -0.3005  0.2133 -0.3910
19650SOL    HW160957   1.065   2.966   8.691 -0.0554  0.0673 -0.5724
19650SOL    HW260958   1.181   3.060   8.716 -0.9237  0.9969  0.0802
19651SOL     OW60959  10.831   1.875   5.590 -0.4874  0.2142 -0.0182
19651SOL    HW160960  10.736   1.878   5.585 -0.4318  0.3487 -3.0911
19651SOL    HW260961  10.859   1.963   5.562  0.5605  0.1449  0.7496
19652SOL     OW60962   2.379   0.452   5.300 -0.0146  0.7532 -0.6211
19652SOL    HW160963   2.338   0.536   5.280 -1.5479 -0.1526 -1.5202
19652SOL    HW260964   2.454   0.447   5.241 -0.5592  1.0330 -1.3516
19653SOL     OW60965   4.645   3.996   3.715 -0.5283  0.1741  0.4315
19653SOL    HW160966   4.624   3.960   3.629 -1.4953  1.2070  0.2119
19653SOL    HW260967   4.712   3.937   3.750 -0.6886 -0.7115 -0.6942
19654SOL     OW60968  11.113   8.158   6.229  0.1663  0.3058 -0.1078
19654SOL    HW160969  11.115   8.247   6.266 -0.7625 -0.0832  0.9208
19654SOL    HW260970  11.128   8.101   6.304 -0.2774 -0.4548 -0.5927
19655SOL     OW60971   0.061   9.703   4.567  0.3190 -0.2588  0.3302
19655SOL    HW160972   0.109   9.784   4.580 -0.8520  0.3685  0.9200
19655SOL    HW260973  -0.031   9.729   4.568 -0.0530 -1.1800 -2.3300
19656SOL     OW60974   1.469   2.136   8.169 -0.1991  0.3142  0.3582
19656SOL    HW160975   1.484   2.208   8.230  2.0932 -0.7741  1.1810
19656SOL    HW260976   1.556   2.115   8.134 -1.0734 -0.8611 -1.2530
19657SOL     OW60977   7.797   2.316   5.034  0.0086 -0.0007 -0.1156
19657SOL    HW160978   7.703   2.296   5.030  0.3338 -1.4617 -1.3055
19657SOL    HW260979   7.826   2.311   4.943  1.2505  0.4672  0.2428
19658SOL     OW60980   2.991   9.829  10.875  0.3201  0.1013  0.6855
19658SOL    HW160981   3.072   9.797  10.915  0.8324 -0.8581 -1.0167
19658SOL    HW260982   2.965   9.760  10.814 -0.5458  1.3719 -0.4516
19659SOL     OW60983   4.704   3.462   8.738 -0.0590  0.0683 -0.0030
19659SOL    HW160984   4.717   3.528   8.671  0.0567 -0.9947 -1.0555
19659SOL    HW260985   4.688   3.381   8.690  0.5277 -0.8241  1.2426
19660SOL     OW60986   0.712  10.428   5.254 -0.5056  0.8927 -0.5306
19660SOL    HW160987   0.651  10.376   5.306 -0.0261  1.9836  1.2001
19660SOL    HW260988   0.722  10.510   5.303  0.8431  1.5193 -1.7763
19661SOL     OW60989   0.692  10.168   5.820 -1.0946  0.1027 -0.0295
19661SOL    HW160990   0.733  10.089   5.786  0.8743  1.1536 -0.2466
19661SOL    HW260991   0.724  10.238   5.764 -3.4058  1.0204 -0.3430
19662SOL     OW60992  10.638   5.109   2.485 -0.3010  0.1178  0.3226
19662SOL    HW160993  10.722   5.116   2.529 -0.8556  1.6348  1.2243
19662SOL    HW260994  10.638   5.022   2.445  1.8248  0.2370 -0.0154
19663SOL     OW60995   6.797  11.223   5.473  0.0297  0.0700  0.3181
19663SOL    HW160996   6.722  11.169   5.449 -0.1425  0.6930 -0.6374
19663SOL    HW260997   6.835  11.249   5.389  0.0141  1.5421  0.7355
19664SOL     OW60998   0.306   7.805   0.952 -0.6891  0.2923  0.0737
19664SOL    HW160999   0.233   7.856   0.917 -1.0476  0.1254  0.5716
19664SOL    HW261000   0.281   7.714   0.937  0.0144  0.2462 -0.9422
19665SOL     OW61001   1.348   6.614   4.595  0.1465  0.1983  0.0192
19665SOL    HW161002   1.278   6.596   4.658 -0.5795  0.1016 -0.7891
19665SOL    HW261003   1.421   6.559   4.623 -0.8506 -1.4112 -0.3864
19666SOL     OW61004   6.218   5.543   0.717  0.7239 -0.3050 -0.2886
19666SOL    HW161005   6.231   5.606   0.645  1.5516  2.9969  2.4806
19666SOL    HW261006   6.293   5.485   0.710 -0.0979 -1.2106 -3.0126
19667SOL     OW61007   7.557   0.272  11.130  0.5943 -0.5301  0.4859
19667SOL    HW161008   7.638   0.318  11.153 -0.8870  2.0040  0.9810
19667SOL    HW261009   7.513   0.257  11.214 -1.4352  2.1521  0.0183
19668SOL     OW61010  11.182  11.246  10.943 -0.4412  0.6412 -0.0963
19668SOL    HW161011  11.172  11.317  11.006 -1.1029  0.8253 -0.3939
19668SOL    HW261012  11.252  11.275  10.885  0.3723  0.3390  0.7200
19669SOL     OW61013   5.414   9.411   3.242 -0.8666  0.1332  0.0100
19669SOL    HW161014   5.468   9.400   3.320 -0.4597  1.1094 -0.1167
19669SOL    HW261015   5.476   9.408   3.169 -1.3289 -1.5670 -0.3621
19670SOL     OW61016   6.928   0.583   3.232 -0.5632 -0.2211 -0.0377
19670SOL    HW161017   6.842   0.575   3.272 -0.8953 -1.5267 -0.9597
19670SOL    HW261018   6.931   0.674   3.200 -0.3627  0.8044  2.6156
19671SOL     OW61019   1.660   0.575   6.309  0.2141 -1.4721 -0.6162
19671SOL    HW161020   1.585   0.523   6.338 -0.5634 -0.5727 -0.9643
19671SOL    HW261021   1.624   0.636   6.244  0.6841  0.8332  1.1540
19672SOL     OW61022   5.600   4.147   0.258  0.7603 -0.3294 -0.1163
19672SOL    HW161023   5.550   4.136   0.177  0.4786 -0.3322  0.0562
19672SOL    HW261024   5.535   4.139   0.328  1.2943 -2.3615  0.2126
19673SOL     OW61025   1.687   0.977   1.606  0.7517  0.5269  0.0711
19673SOL    HW161026   1.598   0.997   1.637  0.9132 -0.5908  1.3606
19673SOL    HW261027   1.675   0.943   1.518 -0.0959  0.4207  0.2200
19674SOL     OW61028   0.022   2.104   4.377  0.2398  0.0114 -0.3157
19674SOL    HW161029   0.105   2.126   4.419  0.8935 -0.9688 -1.0341
19674SOL    HW261030  -0.044   2.121   4.444  1.0377  0.5721  0.3534
19675SOL     OW61031   8.384   5.582   8.183 -0.1232 -0.1479  0.8264
19675SOL    HW161032   8.319   5.544   8.124 -0.6033 -0.9286  1.8273
19675SOL    HW261033   8.400   5.514   8.249  0.3419  0.7154  1.6340
19676SOL     OW61034   4.491   4.165   1.312 -0.4354  0.6630  0.5653
19676SOL    HW161035   4.509   4.092   1.252  0.7798  1.1197  0.3390
19676SOL    HW261036   4.494   4.126   1.399 -1.5957  0.1113  0.3774
19677SOL     OW61037  10.994   0.437   1.023 -0.9260  0.4906  0.1416
19677SOL    HW161038  11.068   0.410   0.969 -1.9251  1.4518 -1.8001
19677SOL    HW261039  10.934   0.480   0.962 -2.8248  0.2658  1.7567
19678SOL     OW61040   0.566   3.611   7.915 -0.9745 -0.1836  0.2848
19678SOL    HW161041   0.485   3.597   7.964 -0.2710  0.4742  1.7068
19678SOL    HW261042   0.609   3.525   7.914 -0.6233 -0.0443  1.5696
19679SOL     OW61043   3.574  10.979   4.758  0.1075  0.1083  0.1919
19679SOL    HW161044   3.635  11.023   4.818  1.6554 -1.1231 -0.3836
19679SOL    HW261045   3.621  10.899   4.732 -1.4198 -0.4449 -0.9885
19680SOL     OW61046   7.884   5.716   6.356  0.4729 -0.2687  0.8650
19680SOL    HW161047   7.933   5.659   6.416 -0.1840  0.3309  2.0038
19680SOL    HW261048   7.945   5.734   6.284  1.4953 -0.5142  1.6508
19681SOL     OW61049   6.476   8.991   6.207  0.7027  0.7420  0.0967
19681SOL    HW161050   6.552   9.049   6.211  0.8636  0.5205  0.2378
19681SOL    HW261051   6.466   8.969   6.115 -0.4763  2.4830 -0.2516
19682SOL     OW61052   1.467   0.333   6.354  0.4747  0.2371 -0.7330
19682SOL    HW161053   1.383   0.374   6.378  0.5971 -0.2095  0.4968
19682SOL    HW261054   1.482   0.267   6.421  1.4958 -0.1549 -1.3223
19683SOL     OW61055   7.979  10.434  10.020  0.4543 -0.1613 -0.2772
19683SOL    HW161056   7.896  10.478  10.036 -1.9270 -3.4139 -2.2943
19683SOL    HW261057   8.022  10.431  10.105 -2.2723  0.2686  1.2162
19684SOL     OW61058   0.460   4.234   2.243  0.4975  0.4455 -0.6476
19684SOL    HW161059   0.486   4.173   2.174 -0.8628 -0.4582 -0.4172
19684SOL    HW261060   0.499   4.198   2.323  0.6043  0.4955 -0.6771
19685SOL     OW61061  11.281  10.785   3.209 -0.1903 -0.2214  0.2273
19685SOL    HW161062  11.194  10.746   3.217 -0.8338  0.8626 -1.0193
19685SOL    HW261063  11.288  10.845   3.283  0.2250 -1.5601  1.3153
19686SOL     OW61064  11.205   5.799   7.319  0.0814  0.3138 -0.5535
19686SOL    HW161065  11.151   5.861   7.271 -0.3802  0.2522 -0.1247
19686SOL    HW261066  11.292   5.838   7.320 -0.3302  1.2648  0.2370
19687SOL     OW61067  11.126   1.225   8.127 -0.0011 -0.0397  0.7737
19687SOL    HW161068  11.057   1.289   8.145  0.7183  0.7424  0.8402
19687SOL    HW261069  11.105   1.151   8.184 -1.7910 -0.5989 -0.5303
19688SOL     OW61070   5.001   4.643   3.830 -0.0575 -0.2076 -0.3914
19688SOL    HW161071   5.082   4.615   3.786 -1.3520 -1.0453 -2.3736
19688SOL    HW261072   4.995   4.586   3.907  1.2387 -0.0837 -0.1615
19689SOL     OW61073   7.037   3.595   4.744  0.4901  0.5793  0.2326
19689SOL    HW161074   7.047   3.608   4.838 -2.3013 -0.7087  0.8044
19689SOL    HW261075   7.042   3.500   4.732 -2.0223  0.4574 -0.4239
19690SOL     OW61076   5.618   5.529   1.468  0.2405  0.1936 -0.3153
19690SOL    HW161077   5.709   5.555   1.453  0.5656 -0.0779  0.9921
19690SOL    HW261078   5.606   5.543   1.562 -0.8389 -0.4903 -0.3467
19691SOL     OW61079   8.357   3.313   1.866 -0.1316  0.1964 -0.2003
19691SOL    HW161080   8.370   3.218   1.871 -0.8516  0.1424  0.8788
19691SOL    HW261081   8.315   3.336   1.949 -3.2258  0.9536 -1.8333
19692SOL     OW61082   5.660   0.644   0.547 -0.1356 -0.6153  0.7004
19692SOL    HW161083   5.640   0.737   0.557  0.5037 -0.5053  1.0258
19692SOL    HW261084   5.745   0.634   0.589  0.8279 -0.9234 -1.2069
19693SOL     OW61085  10.009   5.521  10.385  0.2681  0.2541 -0.2977
19693SOL    HW161086  10.031   5.613  10.398  0.5548  0.0878  0.4211
19693SOL    HW261087  10.052   5.475  10.457  0.6638 -0.5239 -1.0025
19694SOL     OW61088   7.835   1.331   7.768  0.1360  0.5296  0.2897
19694SOL    HW161089   7.838   1.235   7.765 -0.1993  0.5006  0.7006
19694SOL    HW261090   7.915   1.359   7.724  0.2470  0.0597  0.1851
19695SOL     OW61091   5.840  10.161   1.162  0.3932  0.9487  0.4901
19695SOL    HW161092   5.877  10.140   1.077 -0.1873 -1.6700  0.7960
19695SOL    HW261093   5.745  10.151   1.150  0.1975  1.8722  1.1398
19696SOL     OW61094   0.437   2.665   2.916 -0.2913  0.5365 -0.0755
19696SOL    HW161095   0.493   2.601   2.871 -0.2593  0.2720  0.3396
19696SOL    HW261096   0.488   2.746   2.916  0.6467 -0.0186  1.4214
19697SOL     OW61097   9.339   9.094  10.879 -0.1330  0.1055 -0.1319
19697SOL    HW161098   9.322   9.060  10.791 -2.3549  2.1568 -0.6033
19697SOL    HW261099   9.433   9.112  10.880  0.0634 -0.6277 -1.8238
19698SOL     OW61100   3.699   9.178   8.433  0.3799  0.3605  0.3082
19698SOL    HW161101   3.709   9.211   8.522 -0.0227  0.4980  0.3049
19698SOL    HW261102   3.662   9.251   8.384 -3.1471 -0.7972  0.8955
19699SOL     OW61103   2.694   7.609   9.339  0.0752 -0.1167  0.0137
19699SOL    HW161104   2.769   7.661   9.310  1.4794 -3.2637 -2.6040
19699SOL    HW261105   2.732   7.528   9.372 -2.0909 -1.9888 -1.7613
19700SOL     OW61106   3.496   4.822  10.130 -0.6212  0.2442  0.5872
19700SOL    HW161107   3.489   4.736  10.173 -0.1580 -1.0246 -1.7153
19700SOL    HW261108   3.590   4.839  10.126 -0.7288  2.4108  3.7077
19701SOL     OW61109   2.780   9.213   0.175  0.4018 -0.2004 -0.1896
19701SOL    HW161110   2.799   9.295   0.131  0.0018  1.3896  2.3761
19701SOL    HW261111   2.694   9.227   0.216 -0.9664 -2.8953 -1.8218
19702SOL     OW61112   4.095   7.273   0.642  0.7119 -0.7636  0.6868
19702SOL    HW161113   4.138   7.334   0.582  0.6741 -0.8301  0.5927
19702SOL    HW261114   4.143   7.284   0.724 -0.1221  0.3357  1.0393
19703SOL     OW61115   0.950   7.293   7.034  0.0241 -0.1935 -0.2881
19703SOL    HW161116   0.983   7.359   7.096  1.1420  0.0225 -1.0901
19703SOL    HW261117   0.903   7.231   7.089  3.3781 -1.6033  1.2850
19704SOL     OW61118   7.906   5.971   4.603  0.5181 -0.1803  0.7399
19704SOL    HW161119   7.905   5.917   4.524  1.1837 -0.7155  1.0865
19704SOL    HW261120   7.963   5.923   4.664 -0.5237 -0.1230  1.7898
19705SOL     OW61121   2.019   0.640   6.008  0.1017 -0.3293  0.5414
19705SOL    HW161122   2.113   0.647   5.991  0.5418 -2.7301  1.6024
19705SOL    HW261123   2.011   0.568   6.070 -2.3245  1.0421  1.9639
19706SOL     OW61124   8.491   7.710   0.704  0.1800  0.2378 -0.0062
19706SOL    HW161125   8.398   7.689   0.695  0.5143 -2.3011  1.3606
19706SOL    HW261126   8.531   7.680   0.623 -0.1235  1.2200 -0.5439
19707SOL     OW61127   2.518   8.180   0.948 -0.3572 -0.0832 -0.1021
19707SOL    HW161128   2.584   8.114   0.929 -0.2381  0.7117 -2.8880
19707SOL    HW261129   2.437   8.130   0.959  0.0187 -0.8118 -0.5391
19708SOL     OW61130  10.550  10.961  10.899  0.5160  0.7205  0.3032
19708SOL    HW161131  10.551  10.870  10.869 -1.9648  1.3395 -2.1427
19708SOL    HW261132  10.575  10.957  10.991  1.1571 -2.3384  0.0795
19709SOL     OW61133   7.017   2.637   1.715  0.0853 -0.0088  0.1877
19709SOL    HW161134   7.029   2.624   1.809  0.9182 -0.1544  0.0668
19709SOL    HW261135   7.034   2.551   1.676 -0.5892 -0.0280 -0.0699
19710SOL     OW61136   1.490   3.383   0.238  0.2801  0.1154 -0.1315
19710SOL    HW161137   1.520   3.329   0.312 -3.1771 -2.7404 -0.5375
19710SOL    HW261138   1.526   3.339   0.161 -1.1232 -0.6287 -0.3829
19711SOL     OW61139   8.605   8.856   8.762  0.2127  0.3883  0.1320
19711SOL    HW161140   8.594   8.939   8.808 -0.8360  0.1856  0.2613
19711SOL    HW261141   8.645   8.798   8.828 -2.3127 -0.2341  1.2203
19712SOL     OW61142   2.456   9.571   2.284 -0.1398 -0.3938 -0.0469
19712SOL    HW161143   2.417   9.506   2.226 -2.0986 -0.3674  1.1546
19712SOL    HW261144   2.414   9.654   2.261  0.0553 -0.1352  0.4903
19713SOL     OW61145   4.424   0.342   7.966 -0.0015 -0.3485  0.2264
19713SOL    HW161146   4.348   0.341   7.908  1.2593  0.0643 -1.5514
19713SOL    HW261147   4.493   0.383   7.913  1.0138  0.8526  2.3386
19714SOL     OW61148   7.175  10.690   9.558  0.2831  0.1412  0.0100
19714SOL    HW161149   7.139  10.771   9.523  0.1949 -0.8337 -2.3616
19714SOL    HW261150   7.193  10.636   9.481  2.2130 -1.3445  1.3780
19715SOL     OW61151   8.854   5.908   0.151 -0.6222  0.2558  0.0520
19715SOL    HW161152   8.916   5.981   0.154 -0.1585 -0.1638  1.6030
19715SOL    HW261153   8.822   5.907   0.061 -0.6215  2.3466 -0.0102
19716SOL     OW61154  10.880  10.311   1.728  0.0202 -0.4406 -0.5474
19716SOL    HW161155  10.845  10.387   1.681  1.7318  0.5564 -0.2863
19716SOL    HW261156  10.842  10.236   1.683 -2.0142  0.5441 -0.5905
19717SOL     OW61157   7.304   4.809   1.549  0.3344  0.1609  0.0874
19717SOL    HW161158   7.245   4.733   1.550  1.4782 -0.9377 -3.2484
19717SOL    HW261159   7.255   4.877   1.503  0.0822  0.7779  1.2377
19718SOL     OW61160  10.087   1.743   0.503  0.3024  0.5088  0.1365
19718SOL    HW161161  10.054   1.683   0.570  1.3391  0.6955  0.8402
19718SOL    HW261162  10.075   1.696   0.421 -0.6278  0.1099  0.4777
19719SOL     OW61163   1.935   5.060   8.059  0.5316  0.4463 -0.1767
19719SOL    HW161164   1.889   5.041   7.977  2.2491 -0.7984 -0.9274
19719SOL    HW261165   1.895   5.141   8.091 -3.1859 -1.3089  0.0954
19720SOL     OW61166   1.339   6.041   7.032 -0.1684 -0.1678 -0.2529
19720SOL    HW161167   1.304   6.128   7.053 -0.8676 -0.1042 -1.5779
19720SOL    HW261168   1.270   5.980   7.057  0.8568 -0.4933  1.9618
19721SOL     OW61169   5.192   1.005   7.514 -0.2930  0.0335  0.3327
19721SOL    HW161170   5.283   0.977   7.511  0.4043  2.1253  0.3998
19721SOL    HW261171   5.142   0.924   7.518  1.5567 -1.1598  0.3549
19722SOL     OW61172   3.098   4.134   6.222  0.2410  0.2409  0.2772
19722SOL    HW161173   3.096   4.097   6.310  0.0353 -1.7960 -0.5180
19722SOL    HW261174   3.006   4.139   6.196  0.3743 -1.8944 -0.8225
19723SOL     OW61175   1.891   4.047   1.180  0.3572 -0.0276 -0.3031
19723SOL    HW161176   1.839   4.115   1.222  1.0311 -0.6635  1.6494
19723SOL    HW261177   1.958   4.023   1.245  2.2609 -0.1886 -2.2042
19724SOL     OW61178   4.260  10.629   0.536  0.4956  0.3169  0.3749
19724SOL    HW161179   4.195  10.563   0.512 -0.5516  2.0912 -2.0671
19724SOL    HW261180   4.333  10.612   0.477  1.4899 -0.3897  1.7328
19725SOL     OW61181   8.108   2.825   5.053 -0.0851 -0.3225  0.2183
19725SOL    HW161182   8.159   2.897   5.090  0.1138  0.3113 -1.2441
19725SOL    HW261183   8.024   2.864   5.029  0.6797 -0.0679 -2.3245
19726SOL     OW61184  10.738   5.082   4.081  0.1788  0.1043  0.5120
19726SOL    HW161185  10.815   5.126   4.118  0.5179  0.7854 -0.9323
19726SOL    HW261186  10.672   5.087   4.150  0.3781  2.4240  0.6032
19727SOL     OW61187   3.085   8.745   7.779 -0.5782 -0.3786  0.1519
19727SOL    HW161188   3.004   8.759   7.730 -0.8741  1.3157  1.0642
19727SOL    HW261189   3.151   8.796   7.731 -0.0713 -1.5587 -0.4500
19728SOL     OW61190   8.371   9.544   9.233 -0.2052 -0.0603 -0.6304
19728SOL    HW161191   8.387   9.450   9.227 -0.8483 -0.3217  1.1034
19728SOL    HW261192   8.287   9.556   9.187 -2.1578 -1.0481  2.3567
19729SOL     OW61193   8.698   4.806  10.537  0.0478  0.5099 -0.3678
19729SOL    HW161194   8.671   4.848  10.619  0.8815 -0.1551  0.2683
19729SOL    HW261195   8.787   4.839  10.522 -0.3153  1.0968 -1.3452
19730SOL     OW61196  11.066   7.003   3.274 -0.0386 -0.1578 -0.0758
19730SOL    HW161197  10.980   7.040   3.297  0.0693  0.9401 -1.3081
19730SOL    HW261198  11.118   7.079   3.247  0.9245 -0.9664 -0.5442
19731SOL     OW61199   3.793   6.716   3.121  0.2020  0.1537 -1.1027
19731SOL    HW161200   3.811   6.721   3.027 -2.4684 -0.3508 -1.7263
19731SOL    HW261201   3.737   6.640   3.130  0.1901  0.3526  0.8984
19732SOL     OW61202   6.686   7.704   8.678  0.9142  0.4205 -0.8335
19732SOL    HW161203   6.688   7.612   8.649  1.8168 -0.3761  1.5137
19732SOL    HW261204   6.594   7.721   8.696  0.7590 -0.1092 -1.0893
19733SOL     OW61205   4.659   4.849   6.143  0.1990 -0.9911  0.0814
19733SOL    HW161206   4.684   4.793   6.069  3.5493 -1.5071  1.4197
19733SOL    HW261207   4.697   4.935   6.122 -2.0129 -0.0708 -0.4026
19734SOL     OW61208   3.367   8.016   1.680  0.9887  0.4451 -0.3126
19734SOL    HW161209   3.416   7.940   1.712 -0.8939  0.2919  2.5367
19734SOL    HW261210   3.283   7.979   1.651  1.4283  1.0360 -2.5090
19735SOL     OW61211  10.343   0.684   8.282 -0.6005 -0.1122 -0.0384
19735SOL    HW161212  10.302   0.739   8.349 -0.2447 -2.4184  2.2061
19735SOL    HW261213  10.436   0.686   8.303 -0.0622  1.2780 -2.2135
19736SOL     OW61214   1.677   3.279   5.956 -0.6332 -0.4827  0.0532
19736SOL    HW161215   1.667   3.303   6.049  0.6383 -1.7698  0.5531
19736SOL    HW261216   1.589   3.256   5.928 -1.1240  0.4294  0.7911
19737SOL     OW61217   1.817   9.280   3.239 -0.4960 -0.1462 -0.7743
19737SOL    HW161218   1.889   9.236   3.284 -0.8717  0.1806  0.1708
19737SOL    HW261219   1.740   9.260   3.292 -0.7783  1.1004 -0.6777
19738SOL     OW61220   2.333   2.448   7.601  0.2538 -0.2521  0.1113
19738SOL    HW161221   2.245   2.460   7.636  0.0434 -1.9455  0.2557
19738SOL    HW261222   2.327   2.369   7.548  0.8496  1.5451 -2.8568
19739SOL     OW61223   7.235  11.144   7.313  0.3543  0.2735 -0.0902
19739SOL    HW161224   7.155  11.163   7.362 -0.5495  0.9039 -1.7223
19739SOL    HW261225   7.287  11.089   7.372 -0.1568  1.8731  2.0042
19740SOL     OW61226  10.941   8.708   8.485 -0.6119 -0.0922  0.6015
19740SOL    HW161227  11.004   8.721   8.415 -0.0523 -1.7544  0.7633
19740SOL    HW261228  10.860   8.685   8.441 -1.1750  2.0916  0.3913
19741SOL     OW61229   3.294   0.822   0.592 -0.5214 -0.3173  0.4415
19741SOL    HW161230   3.305   0.747   0.533 -0.5992 -1.9979  2.4795
19741SOL    HW261231   3.200   0.830   0.603 -0.4888 -0.2658  0.6786
19742SOL     OW61232   2.596   2.325   5.507  0.1658  0.8268  0.5505
19742SOL    HW161233   2.508   2.360   5.521  0.1548  2.0428 -1.9859
19742SOL    HW261234   2.653   2.402   5.509  0.7809  0.4184 -0.5121
19743SOL     OW61235   3.792   6.033   0.055 -0.3770  0.2290  0.2364
19743SOL    HW161236   3.880   6.070   0.063 -0.2911 -0.2538  1.9373
19743SOL    HW261237   3.778   5.986   0.137 -1.5789 -1.1313 -0.6881
19744SOL     OW61238   5.169  10.156   7.125 -0.9715 -0.0830  0.0755
19744SOL    HW161239   5.077  10.131   7.126 -0.8706 -0.6721 -1.5720
19744SOL    HW261240   5.200  10.130   7.038  1.5240 -2.6886  1.5668
19745SOL     OW61241   5.587   8.318   0.914  0.5718  0.0509  0.3361
19745SOL    HW161242   5.593   8.253   0.984  0.7882 -0.2595  0.0289
19745SOL    HW261243   5.540   8.391   0.954  2.6515  0.8256  1.5333
19746SOL     OW61244   0.756   4.907   8.519  0.1790  0.7063  0.2706
19746SOL    HW161245   0.795   4.874   8.439  0.9027  0.3779  0.7511
19746SOL    HW261246   0.691   4.840   8.543 -2.2999  2.2428 -1.6685
19747SOL     OW61247   5.367   7.966   1.576 -0.3324  0.3892 -0.4306
19747SOL    HW161248   5.328   7.880   1.560  0.4604 -0.2015  0.6594
19747SOL    HW261249   5.419   7.984   1.498  1.0984 -1.0590  0.1359
19748SOL     OW61250   0.159   3.430   5.805 -0.1519  0.3134  0.1920
19748SOL    HW161251   0.086   3.432   5.742  1.1475  0.0465 -1.3932
19748SOL    HW261252   0.118   3.446   5.890 -1.6910  3.3123 -0.9781
19749SOL     OW61253   6.597   2.903   2.679 -0.6323  0.1769 -0.0085
19749SOL    HW161254   6.559   2.827   2.635 -1.6995  0.0605  1.0638
19749SOL    HW261255   6.684   2.913   2.639  0.1599 -2.5236  0.8099
19750SOL     OW61256   4.670  10.348   4.399 -0.5379  1.0340 -0.4224
19750SOL    HW161257   4.575  10.344   4.406 -0.3543 -0.6771  2.6581
19750SOL    HW261258   4.692  10.438   4.424 -1.3151  1.3647 -0.9097
19751SOL     OW61259   2.184   0.820   0.975 -0.3812 -0.0249 -0.4879
19751SOL    HW161260   2.129   0.757   0.928 -0.1865 -0.9046  0.4390
19751SOL    HW261261   2.131   0.900   0.979 -1.2001 -0.5633 -0.4358
19752SOL     OW61262   4.675  10.845   1.857 -0.0368 -0.5045  0.2943
19752SOL    HW161263   4.738  10.855   1.928  0.6644  0.6371 -0.4689
19752SOL    HW261264   4.717  10.885   1.781 -1.8954  0.7825 -0.1133
19753SOL     OW61265   5.675   2.141   3.231  0.0446 -0.5300 -0.3180
19753SOL    HW161266   5.764   2.161   3.262 -0.4093  1.8674 -0.3929
19753SOL    HW261267   5.637   2.089   3.301  1.5787 -1.9094 -0.4313
19754SOL     OW61268   7.322   2.724   3.467 -0.2358 -0.3432  0.5507
19754SOL    HW161269   7.361   2.754   3.385 -0.2928 -0.6541  0.4090
19754SOL    HW261270   7.393   2.727   3.531 -0.3319  0.4654  0.6322
19755SOL     OW61271   7.007   0.625   1.792 -0.0761  0.4282  0.9880
19755SOL    HW161272   6.919   0.606   1.760  0.9083  0.7432 -2.2570
19755SOL    HW261273   7.015   0.720   1.786  0.8517  0.3105  0.0598
19756SOL     OW61274   8.115   7.275   5.485 -0.1793  0.3478 -0.1571
19756SOL    HW161275   8.202   7.285   5.447 -0.6462  0.4514 -1.2538
19756SOL    HW261276   8.127   7.290   5.579  0.7022  2.1599 -0.5166
19757SOL     OW61277   4.922  10.552   6.658 -0.7456  0.0325  0.1460
19757SOL    HW161278   4.976  10.617   6.613  0.1654 -1.6259 -1.2928
19757SOL    HW261279   4.961  10.544   6.745  1.1408 -0.8245 -0.7216
19758SOL     OW61280  10.757   4.772   3.512  0.3728 -0.1620 -0.0029
19758SOL    HW161281  10.674   4.745   3.551  1.1307 -0.1938  1.6639
19758SOL    HW261282  10.741   4.862   3.483 -0.9061 -0.9061 -1.8144
19759SOL     OW61283   6.353   9.365   7.273 -0.8121 -0.5137  0.0386
19759SOL    HW161284   6.313   9.452   7.279 -1.0084 -0.6917  1.7808
19759SOL    HW261285   6.280   9.307   7.255 -0.7957 -0.4205 -0.3418
19760SOL     OW61286   3.399   8.973   1.781 -0.7580 -0.2051 -0.3166
19760SOL    HW161287   3.418   8.958   1.689  1.2104 -1.0588  0.1827
19760SOL    HW261288   3.412   8.889   1.823 -0.4505  0.4333  0.9228
19761SOL     OW61289   4.828   8.419   4.340 -0.1580 -0.2052  1.0802
19761SOL    HW161290   4.801   8.422   4.432 -1.7117 -1.8547  0.7337
19761SOL    HW261291   4.888   8.493   4.331 -1.4422  1.2028  2.9615
19762SOL     OW61292   1.282   2.891   2.372 -0.3368 -0.0921 -0.1660
19762SOL    HW161293   1.346   2.954   2.404 -0.4893  0.6307 -1.2312
19762SOL    HW261294   1.244   2.933   2.294 -1.1365 -1.0818 -0.3274
19763SOL     OW61295   8.657  10.447   5.764  0.2715 -0.1988 -0.0822
19763SOL    HW161296   8.619  10.526   5.802 -4.0468 -1.6726 -0.8787
19763SOL    HW261297   8.725  10.421   5.826  0.4965  2.9905  1.2045
19764SOL     OW61298   3.478  10.202  10.033 -0.0831 -0.5319  0.5112
19764SOL    HW161299   3.468  10.120   9.985 -0.0303 -0.2725  0.0532
19764SOL    HW261300   3.389  10.228  10.056 -0.0322 -1.3227  1.7003
19765SOL     OW61301   5.302   2.400   5.227  0.4264 -0.3355  0.4613
19765SOL    HW161302   5.307   2.336   5.298 -1.1879  1.2124  2.0787
19765SOL    HW261303   5.283   2.483   5.271  0.4745  0.8945 -1.7089
19766SOL     OW61304   2.405   4.318   7.081 -0.1840 -0.0317 -0.9263
19766SOL    HW161305   2.433   4.361   7.000 -0.4321  1.7832 -0.0909
19766SOL    HW261306   2.486   4.306   7.130 -0.4444  3.3319  0.5912
19767SOL     OW61307   9.804   6.853   0.531  0.3849 -0.1547  0.5210
19767SOL    HW161308   9.871   6.797   0.493 -0.5060 -2.4439  2.0954
19767SOL    HW261309   9.813   6.937   0.485  2.8154 -1.0745 -0.8367
19768SOL     OW61310   5.313  10.891   8.896  0.2656 -0.9682 -0.6919
19768SOL    HW161311   5.325  10.976   8.938  0.9717 -0.9951 -0.8312
19768SOL    HW261312   5.230  10.858   8.931  0.5283 -0.7017  0.1941
19769SOL     OW61313   1.094   6.365   9.233  0.1583 -0.0896 -0.1659
19769SOL    HW161314   1.185   6.359   9.206  0.6050 -0.3687  1.2819
19769SOL    HW261315   1.062   6.275   9.229  0.5514 -0.3181  1.1800
19770SOL     OW61316   6.318   6.162   4.975 -0.1824 -0.0913  0.3049
19770SOL    HW161317   6.334   6.097   4.907  0.5333  0.4323 -0.0506
19770SOL    HW261318   6.395   6.157   5.032  1.0715  2.0334 -1.0595
19771SOL     OW61319   2.307   8.182   5.621 -0.0055  0.4000 -0.4419
19771SOL    HW161320   2.340   8.125   5.691 -0.1440  0.1293 -0.5944
19771SOL    HW261321   2.254   8.124   5.567  0.2737  0.5593 -0.8908
19772SOL     OW61322   7.914   4.471   8.049 -0.4976 -0.3274 -0.1938
19772SOL    HW161323   7.829   4.469   8.093  0.0029  0.4479  0.8404
19772SOL    HW261324   7.913   4.393   7.993 -1.4737 -0.9091  0.5908
19773SOL     OW61325   2.290   7.340   8.944 -0.3736 -0.0951  0.4915
19773SOL    HW161326   2.298   7.403   9.016 -1.2164 -0.3902  0.8536
19773SOL    HW261327   2.359   7.365   8.883  0.7242 -0.1909  1.6667
19774SOL     OW61328   3.699   6.497   1.665  0.0480 -1.1182 -0.9377
19774SOL    HW161329   3.651   6.559   1.609  1.8069 -0.3844 -1.7136
19774SOL    HW261330   3.634   6.430   1.688 -2.0386  1.1082  0.1713
19775SOL     OW61331   2.030   0.373  11.135 -0.5907 -0.2492  0.5622
19775SOL    HW161332   1.982   0.375  11.052  0.4362 -0.3810 -0.0421
19775SOL    HW261333   2.060   0.283  11.143  0.6987  0.1342  0.2610
19776SOL     OW61334   7.202  10.384   6.669  0.8542  0.7382 -0.6614
19776SOL    HW161335   7.291  10.353   6.659  0.8449  0.5846 -0.2886
19776SOL    HW261336   7.154  10.344   6.596  1.0832  0.8152 -0.8566
19777SOL     OW61337   7.462   1.693   7.257 -0.1289  0.0169  0.4583
19777SOL    HW161338   7.384   1.742   7.232  0.1646  0.9588  1.3544
19777SOL    HW261339   7.458   1.688   7.352 -0.6818 -2.6011  0.3811
19778SOL     OW61340   4.021   6.859  11.077  0.5524 -0.2511  0.0398
19778SOL    HW161341   3.926   6.871  11.080  0.0829 -3.1446 -1.1167
19778SOL    HW261342   4.052   6.898  11.160 -1.2855  2.7130 -0.5167
19779SOL     OW61343   3.199   8.981   3.615 -0.1217  1.1263 -0.2803
19779SOL    HW161344   3.189   8.886   3.612 -4.6514  1.4007 -1.6630
19779SOL    HW261345   3.246   9.003   3.535  0.0010  0.1570 -0.4859
19780SOL     OW61346   1.766  10.721   9.380 -0.0553  0.5487 -0.1332
19780SOL    HW161347   1.740  10.629   9.375  1.4664  0.1409 -1.0649
19780SOL    HW261348   1.792  10.733   9.472 -0.1977  0.0312 -0.0220
19781SOL     OW61349   1.510   4.905   5.782  0.4921  0.3824  0.3032
19781SOL    HW161350   1.567   4.828   5.778 -0.1149 -0.3694  3.5276
19781SOL    HW261351   1.430   4.878   5.738  0.6466 -0.4899  0.5407
19782SOL     OW61352   4.648   6.439   4.047 -0.9038 -0.6008  0.8500
19782SOL    HW161353   4.687   6.526   4.056  0.6989 -1.3389  1.3787
19782SOL    HW261354   4.628   6.412   4.137  0.6154 -1.6385  0.8965
19783SOL     OW61355   7.464   3.233  11.047 -0.6616 -0.0593 -0.4428
19783SOL    HW161356   7.461   3.137  11.047 -0.1489 -0.0775 -0.4872
19783SOL    HW261357   7.545   3.254  11.095 -0.4223  0.3382 -1.0127
19784SOL     OW61358  10.831   7.314   9.196 -0.5783 -0.0045  0.6460
19784SOL    HW161359  10.889   7.287   9.125 -1.5623 -0.7600  0.0921
19784SOL    HW261360  10.854   7.405   9.213  0.2911 -0.0838 -0.0232
19785SOL     OW61361  10.730   9.805   1.710  0.2545 -0.8287  0.0987
19785SOL    HW161362  10.717   9.724   1.662 -0.2964 -0.4044 -0.4907
19785SOL    HW261363  10.753   9.869   1.642  0.2186 -0.3906  0.4975
19786SOL     OW61364   7.087   4.125   9.874 -0.7432  0.4045  0.0055
19786SOL    HW161365   7.158   4.140   9.936  0.0313 -2.2027 -0.1225
19786SOL    HW261366   7.115   4.048   9.824 -1.9613  1.5698 -2.6635
19787SOL     OW61367   3.331   8.142   4.374  0.3802  0.3141 -0.6120
19787SOL    HW161368   3.426   8.145   4.372  0.4372  1.6288  1.2116
19787SOL    HW261369   3.304   8.233   4.389 -1.0247 -0.3497  1.3480
19788SOL     OW61370   4.473   5.351   1.782 -0.9340 -0.0795 -0.2842
19788SOL    HW161371   4.398   5.402   1.752 -0.3195  1.2698  0.4000
19788SOL    HW261372   4.520   5.328   1.702 -1.8014 -0.5162 -0.6810
19789SOL     OW61373   1.321   9.094   0.767 -0.5392 -0.2183 -0.1625
19789SOL    HW161374   1.370   9.078   0.848 -1.2906  0.1801  0.3851
19789SOL    HW261375   1.374   9.157   0.719  0.2558 -0.9720 -0.3090
19790SOL     OW61376   6.960   2.848   1.474  0.3262 -0.6321  0.6818
19790SOL    HW161377   6.998   2.777   1.526  0.0453 -2.4447 -1.4487
19790SOL    HW261378   6.873   2.816   1.451 -0.3748  1.0687  0.8854
19791SOL     OW61379   4.790   6.843  10.071  0.0911  0.2502 -0.6377
19791SOL    HW161380   4.733   6.766  10.076  0.6441 -0.3710 -2.9932
19791SOL    HW261381   4.879   6.808  10.079  0.2919  0.8240 -0.3016
19792SOL     OW61382   7.808   3.093   9.961  0.1520 -0.6680 -0.5957
19792SOL    HW161383   7.837   3.069  10.049 -0.5263  0.5543 -0.0080
19792SOL    HW261384   7.859   3.036   9.903  3.7291  1.2212  0.3543
19793SOL     OW61385   5.543   9.881   0.237  0.0237 -0.3382  0.9890
19793SOL    HW161386   5.506   9.793   0.248 -1.2510 -0.4056 -2.5466
19793SOL    HW261387   5.636   9.866   0.221 -0.6897 -1.5659 -3.0379
19794SOL     OW61388   9.590   6.287   8.566 -0.8691 -0.7472 -0.5135
19794SOL    HW161389   9.540   6.326   8.495 -1.2335 -0.7576 -0.2657
19794SOL    HW261390   9.567   6.194   8.563 -0.8510 -0.7551 -0.4071
19795SOL     OW61391   3.884   6.019   7.687  0.7795 -0.5915  0.1283
19795SOL    HW161392   3.884   5.934   7.643 -3.1011 -0.5804 -0.2209
19795SOL    HW261393   3.797   6.027   7.725  2.2189  1.6559  3.5115
19796SOL     OW61394   5.284   4.432   0.078  0.1556 -0.2614  1.0651
19796SOL    HW161395   5.309   4.504   0.019 -2.2181  0.8936  1.3576
19796SOL    HW261396   5.365   4.410   0.124  1.0185  2.0800  0.7952
19797SOL     OW61397   5.606   9.650   9.235 -0.1694 -1.1135  0.0921
19797SOL    HW161398   5.603   9.745   9.225  1.2949 -1.0285  0.2369
19797SOL    HW261399   5.568   9.634   9.321  0.7565 -0.5156  0.6362
19798SOL     OW61400   8.873   8.733   8.223 -0.0512 -0.4317  0.4858
19798SOL    HW161401   8.920   8.791   8.283  1.0207  0.4477 -1.1289
19798SOL    HW261402   8.941   8.693   8.169 -1.0526  1.0167 -2.0385
19799SOL     OW61403  10.165   0.129   6.362 -0.5419  0.2789 -0.1613
19799SOL    HW161404  10.246   0.162   6.401 -0.5346  0.8994 -0.6635
19799SOL    HW261405  10.190   0.109   6.271 -1.0380  0.8610 -0.4318
19800SOL     OW61406   5.599   2.576   7.810  0.2013 -0.2517  0.2451
19800SOL    HW161407   5.530   2.630   7.849 -0.9878 -0.1881 -1.7998
19800SOL    HW261408   5.566   2.486   7.818 -0.4511 -0.1723 -1.2785
19801SOL     OW61409   0.757   7.674   3.928  0.3599  0.4523 -0.4038
19801SOL    HW161410   0.687   7.715   3.877 -2.0473 -1.0165  1.5226
19801SOL    HW261411   0.749   7.581   3.909  0.0550 -0.0185  1.7915
19802SOL     OW61412  10.438   0.574   0.639 -0.2997  0.4570 -0.4553
19802SOL    HW161413  10.377   0.526   0.582 -0.2053  0.1973 -0.3409
19802SOL    HW261414  10.518   0.522   0.637  0.1559  1.1732 -1.1574
19803SOL     OW61415   9.640  10.323  10.832 -0.1488 -0.6299 -0.2316
19803SOL    HW161416   9.735  10.315  10.827 -0.0683 -2.0160  1.7961
19803SOL    HW261417   9.608  10.259  10.769  0.3864 -2.7066  1.4536
19804SOL     OW61418   4.640   0.552   9.313 -0.3089  0.1808 -0.3226
19804SOL    HW161419   4.662   0.596   9.231 -0.9387 -0.8792 -1.0817
19804SOL    HW261420   4.553   0.514   9.298 -0.1405 -0.6100  0.5997
19805SOL     OW61421   2.559   8.902   0.091  0.4336  0.4282 -0.2949
19805SOL    HW161422   2.552   8.825   0.034  1.4170 -0.5644  0.8743
19805SOL    HW261423   2.483   8.896   0.149 -0.7483  1.6141 -1.6290
19806SOL     OW61424  11.154   5.486   3.621  0.3663  0.6727 -0.5883
19806SOL    HW161425  11.133   5.396   3.596 -0.6627  0.4949  0.7979
19806SOL    HW261426  11.249   5.489   3.623  0.4141 -0.3292 -0.8496
19807SOL     OW61427   7.956   4.111   8.135  0.5814 -0.2333 -0.1331
19807SOL    HW161428   7.881   4.122   8.076  1.4753 -1.5491 -1.5865
19807SOL    HW261429   7.939   4.028   8.179  0.8022 -0.1357  0.1362
19808SOL     OW61430   4.982   8.642  10.655 -0.3636  0.1949 -0.2951
19808SOL    HW161431   4.970   8.606  10.567  3.2730  2.1050 -1.7747
19808SOL    HW261432   4.972   8.737  10.645  1.7070  0.6099  0.9405
19809SOL     OW61433   2.257  10.593  10.183  0.4130  0.7909 -0.7015
19809SOL    HW161434   2.188  10.659  10.173  0.6553  1.4201  1.4160
19809SOL    HW261435   2.338  10.639  10.159  0.1828 -0.0121 -3.4172
19810SOL     OW61436   8.713  10.560   4.458  0.1893  0.1256 -0.7593
19810SOL    HW161437   8.685  10.576   4.548  1.7778  0.9085 -0.3703
19810SOL    HW261438   8.672  10.476   4.434  0.5123 -0.5765  1.0266
19811SOL     OW61439   1.347  10.037   6.579  0.9306  0.4241  0.2660
19811SOL    HW161440   1.356  10.131   6.562  2.1935  0.5470  1.4943
19811SOL    HW261441   1.295  10.033   6.660  1.7021  0.1122  0.7555
19812SOL     OW61442   4.031   9.621   6.809 -0.4281 -0.6632  0.9372
19812SOL    HW161443   4.084   9.563   6.755  1.1276 -0.0810  1.7863
19812SOL    HW261444   4.045   9.708   6.772 -2.1455 -0.6800  0.1420
19813SOL     OW61445   2.481   8.893   0.851  0.2993  0.0758  0.4769
19813SOL    HW161446   2.393   8.909   0.886  1.0980  1.6765  1.9370
19813SOL    HW261447   2.470   8.893   0.756 -1.2223  0.5497  0.6323
19814SOL     OW61448   3.787  11.216   9.440 -0.0102  0.6957  0.3910
19814SOL    HW161449   3.810  11.299   9.398  1.0106  0.9127  1.3292
19814SOL    HW261450   3.840  11.150   9.395 -0.9039  0.5036 -0.4313
19815SOL     OW61451   4.513   4.446   6.539  0.0096  0.2978 -0.0053
19815SOL    HW161452   4.480   4.356   6.538 -0.7134  0.5270  1.0090
19815SOL    HW261453   4.451   4.495   6.486 -1.1601  0.6592  1.5990
19816SOL     OW61454   9.768   0.723   1.281 -0.3048  0.4285 -0.3160
19816SOL    HW161455   9.815   0.783   1.223  0.1989 -0.7970 -1.2161
19816SOL    HW261456   9.701   0.684   1.225 -0.2939 -0.2249  0.1260
19817SOL     OW61457   1.331   3.589   0.059  0.2323  0.1801 -0.2914
19817SOL    HW161458   1.360   3.531   0.129 -1.2089 -0.9463 -0.5806
19817SOL    HW261459   1.412   3.627   0.024  1.2179 -1.5280  0.0257
19818SOL     OW61460   3.805  11.041   4.978  0.3662  0.3955  0.6909
19818SOL    HW161461   3.727  11.032   5.034  1.5461  0.4378  2.4382
19818SOL    HW261462   3.866  10.976   5.012  1.2780  0.7046 -0.3153
19819SOL     OW61463   5.012   3.300   0.253  0.8422  0.3780 -0.3231
19819SOL    HW161464   5.058   3.257   0.181  1.0987 -2.7686  1.5027
19819SOL    HW261465   4.921   3.306   0.223  0.5196 -2.7222 -0.3506
19820SOL     OW61466   8.469   8.583   7.693  0.7129 -0.8047 -0.5051
19820SOL    HW161467   8.426   8.518   7.638 -0.1444 -0.4831 -0.2378
19820SOL    HW261468   8.563   8.569   7.678  0.5409 -1.9126 -0.6583
19821SOL     OW61469   6.812   2.344   3.406  0.1477 -0.3732 -0.0692
19821SOL    HW161470   6.903   2.334   3.378  0.5405 -2.5446  1.6805
19821SOL    HW261471   6.815   2.411   3.474  0.6138 -1.0721  0.6103
19822SOL     OW61472   9.905   0.027   7.385 -0.6429 -0.5472 -0.0451
19822SOL    HW161473   9.933   0.036   7.476  0.9765 -0.9852 -0.4625
19822SOL    HW261474   9.977   0.063   7.334 -1.1446 -1.0943 -1.1852
19823SOL     OW61475   3.308   6.479  10.697  0.4804 -0.3405  0.4925
19823SOL    HW161476   3.366   6.463  10.771  1.5754  1.4635  0.0610
19823SOL    HW261477   3.367   6.497  10.623 -0.6041 -0.7121 -0.4961
19824SOL     OW61478   9.480   3.059   9.199 -0.0169  0.2507 -0.2529
19824SOL    HW161479   9.489   3.023   9.287  0.9901  1.8956  0.3695
19824SOL    HW261480   9.451   3.149   9.213 -1.0149  0.1811 -1.6683
19825SOL     OW61481   5.280   7.376   9.411 -0.2221  0.3921 -0.0208
19825SOL    HW161482   5.259   7.304   9.471  1.4400 -0.5344 -0.5075
19825SOL    HW261483   5.369   7.358   9.382 -0.9279  0.8707 -2.6907
19826SOL     OW61484   6.810   1.156   7.705 -0.0701  0.2315 -0.4566
19826SOL    HW161485   6.866   1.079   7.710  1.7040  1.4307 -0.6537
19826SOL    HW261486   6.778   1.157   7.615 -1.5084 -1.1582  0.0039
19827SOL     OW61487   3.674   8.263   1.775  0.2742  0.3297 -0.4849
19827SOL    HW161488   3.636   8.213   1.847  0.9485  0.5065 -0.0019
19827SOL    HW261489   3.759   8.292   1.807  0.9425 -0.2804 -1.6416
19828SOL     OW61490   9.930   2.788   4.250 -0.5772  0.1030 -0.2052
19828SOL    HW161491   9.995   2.761   4.314  0.7480  0.3658 -1.3849
19828SOL    HW261492   9.877   2.709   4.235 -0.6973 -0.0493  0.9365
19829SOL     OW61493   2.477   1.673   9.312 -0.1110  0.0855 -0.4598
19829SOL    HW161494   2.453   1.609   9.245  0.1353 -2.2014  1.5030
19829SOL    HW261495   2.394   1.709   9.342 -0.3428 -0.1763 -0.7826
19830SOL     OW61496   3.829   4.762   7.889  0.0699  0.2100 -0.0277
19830SOL    HW161497   3.843   4.686   7.832  0.6055 -0.1164  0.5347
19830SOL    HW261498   3.883   4.745   7.966 -1.2862  0.2484  0.9696
19831SOL     OW61499   8.294   0.860   6.305 -0.0215 -0.3428 -0.5065
19831SOL    HW161500   8.221   0.871   6.366  0.0271  0.8074 -0.6309
19831SOL    HW261501   8.266   0.904   6.225 -0.2681 -2.2040 -1.5104
19832SOL     OW61502  10.827   1.344  10.230 -0.4586  0.3845  0.4596
19832SOL    HW161503  10.913   1.304  10.244  0.0159  1.0687 -0.4237
19832SOL    HW261504  10.767   1.270  10.230  0.5595 -0.6003 -2.6467
19833SOL     OW61505   9.388   4.430   8.278 -0.2609 -0.1986 -0.0420
19833SOL    HW161506   9.400   4.437   8.373  1.3153  2.0073 -0.3011
19833SOL    HW261507   9.296   4.406   8.267  0.3465 -4.4740  2.0448
19834SOL     OW61508   4.367   5.120   3.374 -0.5001  0.3904 -0.6583
19834SOL    HW161509   4.456   5.149   3.395 -0.4004  1.0131 -1.8235
19834SOL    HW261510   4.362   5.031   3.406 -0.3151  1.1887  1.7559
19835SOL     OW61511   0.088   7.633   7.967  0.2393  0.8805 -0.0014
19835SOL    HW161512   0.054   7.636   8.056  1.5978  1.3435  0.5276
19835SOL    HW261513   0.051   7.553   7.930 -1.7555  1.5793  0.3684
19836SOL     OW61514   4.027   3.960  10.596 -0.3745  0.1822  0.2988
19836SOL    HW161515   3.956   3.902  10.567  0.4388 -1.7707  2.0266
19836SOL    HW261516   4.104   3.929  10.548 -0.0114  0.0787  0.9435
19837SOL     OW61517   1.908   7.848   8.385 -0.6601  0.4984  0.1660
19837SOL    HW161518   1.995   7.822   8.414 -0.5297 -1.4374 -1.6479
19837SOL    HW261519   1.870   7.768   8.348 -3.2115  1.2914  0.8373
19838SOL     OW61520   5.390   3.245   9.096 -0.5685  0.6902  0.2354
19838SOL    HW161521   5.297   3.225   9.110 -0.5619  0.6346  0.1973
19838SOL    HW261522   5.390   3.314   9.029 -0.5408  0.0137 -0.4715
19839SOL     OW61523   2.733   6.211   6.547  0.6460 -0.4504  0.4383
19839SOL    HW161524   2.734   6.261   6.466  0.1073  0.7171  1.1203
19839SOL    HW261525   2.714   6.121   6.520 -1.3631  0.2276 -0.6074
19840SOL     OW61526   7.789   7.796   8.756 -0.3464  0.1554 -0.9192
19840SOL    HW161527   7.751   7.755   8.678  0.8087  0.1835 -1.5147
19840SOL    HW261528   7.750   7.883   8.758 -1.3474 -0.2814 -0.7378
19841SOL     OW61529   8.270   9.859   5.806  0.5073 -0.4026  0.7503
19841SOL    HW161530   8.309   9.912   5.875 -0.1995  0.6581  0.3460
19841SOL    HW261531   8.197   9.910   5.773  1.7057 -0.1552 -1.8266
19842SOL     OW61532   3.603   4.795   1.897 -0.0220 -0.1905 -0.1999
19842SOL    HW161533   3.604   4.890   1.885  1.9343 -0.4368 -3.0803
19842SOL    HW261534   3.693   4.774   1.923 -1.0513 -1.1064  3.0205
19843SOL     OW61535   0.323   7.513  10.874 -1.0027  0.5830 -0.3703
19843SOL    HW161536   0.231   7.491  10.858 -0.7613 -0.6317 -0.1565
19843SOL    HW261537   0.334   7.504  10.968 -0.7604  1.1256 -0.3452
19844SOL     OW61538   7.172   0.175   8.718  0.5969 -0.1499 -0.2263
19844SOL    HW161539   7.137   0.231   8.649  0.6211  0.2015  0.0433
19844SOL    HW261540   7.108   0.104   8.726  0.1089  0.3107  0.0383
19845SOL     OW61541   1.301   3.732   9.574 -0.2001  0.0214  0.1085
19845SOL    HW161542   1.297   3.698   9.485 -2.3077  0.9990 -0.2180
19845SOL    HW261543   1.232   3.686   9.621 -0.7250  1.2411  0.5802
19846SOL     OW61544   9.774   4.521   5.705  0.2731  0.1141 -1.1393
19846SOL    HW161545   9.824   4.461   5.760 -1.8800  0.6774  1.6639
19846SOL    HW261546   9.706   4.466   5.665 -1.0879  0.4194  0.6441
19847SOL     OW61547  10.965   9.495   5.184  0.6200  0.3897  0.0431
19847SOL    HW161548  11.022   9.419   5.195 -1.6387 -1.1403  2.1906
19847SOL    HW261549  10.924   9.483   5.099 -0.1773 -1.1861  0.6227
19848SOL     OW61550  10.725   9.012   0.688 -0.0449  0.0116  0.3987
19848SOL    HW161551  10.775   9.027   0.769 -0.9632  0.7531  0.8543
19848SOL    HW261552  10.742   9.091   0.635  1.7631 -1.1174 -0.8266
19849SOL     OW61553   8.135   1.660   2.320 -0.2661  0.4316  0.0490
19849SOL    HW161554   8.094   1.597   2.379  0.2612 -0.2017 -0.2462
19849SOL    HW261555   8.149   1.611   2.239  0.6835  0.7557  0.0100
19850SOL     OW61556   9.645  10.918   7.615  0.3209  0.0735  0.2979
19850SOL    HW161557   9.656  10.855   7.543  0.6359  1.8580 -1.3104
19850SOL    HW261558   9.679  11.000   7.580 -0.4383  1.2538  2.1732
19851SOL     OW61559   0.073   4.329  11.014 -0.4391  0.3384 -0.2169
19851SOL    HW161560   0.071   4.378  11.096 -2.6971  0.8192 -0.4991
19851SOL    HW261561   0.098   4.393  10.948  0.4584  0.1688 -0.0515
19852SOL     OW61562   6.097   6.098   3.009 -0.4773 -0.5733  0.0802
19852SOL    HW161563   6.143   6.098   3.093 -1.3373  1.6527  0.6207
19852SOL    HW261564   6.166   6.110   2.944  0.1513 -1.8747  0.4839
19853SOL     OW61565   0.016   5.802   4.436 -0.4503  0.6436 -0.0835
19853SOL    HW161566   0.097   5.780   4.483 -0.3480  0.3474 -0.3993
19853SOL    HW261567  -0.054   5.760   4.486 -0.0578 -2.8913 -2.1723
19854SOL     OW61568   3.484  10.926   2.886  0.1018  0.5115 -0.0585
19854SOL    HW161569   3.463  11.015   2.912 -1.3299  0.3214 -0.4837
19854SOL    HW261570   3.469  10.924   2.792 -0.0201 -0.2167 -0.0330
19855SOL     OW61571   3.378   2.908   6.439  0.1747 -0.3039  0.0682
19855SOL    HW161572   3.380   2.823   6.394  2.1287  0.1044 -0.7022
19855SOL    HW261573   3.375   2.885   6.532  0.9240 -1.2470 -0.1220
19856SOL     OW61574   9.679   8.011   0.115 -0.0551 -0.3074  0.7184
19856SOL    HW161575   9.761   8.061   0.112 -0.6442  0.7976  1.9108
19856SOL    HW261576   9.619   8.059   0.058  0.2499 -1.4290 -0.6051
19857SOL     OW61577   1.945   6.204   4.518  0.1613  0.0764 -0.3082
19857SOL    HW161578   1.968   6.156   4.597 -0.6163  1.3813  0.7588
19857SOL    HW261579   1.849   6.207   4.519  0.0470 -1.3584 -2.2341
19858SOL     OW61580  10.824   6.660   4.385  1.0431 -1.0906  0.4456
19858SOL    HW161581  10.756   6.715   4.347  0.3339 -1.4108  1.2421
19858SOL    HW261582  10.903   6.715   4.383  0.8280 -0.8002 -0.6817
19859SOL     OW61583  10.890  10.582   2.190  0.3161 -0.2736  0.3001
19859SOL    HW161584  10.980  10.596   2.161  1.3494 -1.8921  2.4407
19859SOL    HW261585  10.895  10.581   2.286 -1.7459 -1.7128  0.4684
19860SOL     OW61586   4.166   2.656   4.827  0.3294 -0.0827  0.4427
19860SOL    HW161587   4.122   2.681   4.908 -0.6523 -0.2466 -0.0167
19860SOL    HW261588   4.254   2.631   4.854 -0.3361 -1.3023  1.6534
19861SOL     OW61589   0.359   3.613   6.897 -0.3450  0.2918  1.1518
19861SOL    HW161590   0.403   3.597   6.980  0.1945  1.3893  1.0956
19861SOL    HW261591   0.351   3.527   6.857  2.6555  0.1368  0.7137
19862SOL     OW61592   6.915   4.743   1.936 -0.2159  0.2671 -0.8578
19862SOL    HW161593   7.001   4.702   1.948 -1.4164 -1.7987  1.6067
19862SOL    HW261594   6.896   4.731   1.843  1.3396 -0.9577 -1.0698
19863SOL     OW61595   9.820   3.297   6.777  0.7225 -0.2708  0.0354
19863SOL    HW161596   9.914   3.313   6.777  0.8558 -0.6838 -2.3248
19863SOL    HW261597   9.784   3.367   6.723  0.0981 -1.8332 -1.6829
19864SOL     OW61598   4.614   3.176   7.758 -0.0219 -0.1308 -0.6544
19864SOL    HW161599   4.649   3.170   7.847  0.5499  0.9808 -0.7891
19864SOL    HW261600   4.681   3.224   7.709 -0.9972  0.5726 -1.3219
19865SOL     OW61601   5.598   6.668  10.719  0.1653  0.1711 -0.2140
19865SOL    HW161602   5.603   6.575  10.697  0.1276 -0.2639  1.4813
19865SOL    HW261603   5.683   6.689  10.757 -0.5275  0.2493  1.3891
19866SOL     OW61604   8.700   6.342   1.805 -0.1720 -0.2288 -0.1256
19866SOL    HW161605   8.629   6.278   1.811 -0.2845 -0.5628 -3.4235
19866SOL    HW261606   8.689   6.397   1.883 -2.6555 -1.6342  0.6268
19867SOL     OW61607   0.848   3.229   2.267  0.1738  0.8281 -0.7142
19867SOL    HW161608   0.912   3.293   2.235 -0.6671  0.8109 -2.5796
19867SOL    HW261609   0.890   3.144   2.254  0.3663  0.8843 -0.4684
19868SOL     OW61610   9.821   1.658   1.626 -0.0138  0.3799  0.2283
19868SOL    HW161611   9.865   1.582   1.589  0.0372  0.3461  0.3597
19868SOL    HW261612   9.733   1.655   1.588 -1.5785 -2.2536  3.5812
19869SOL     OW61613   0.160   1.137   4.593  0.2488  0.4236 -0.0210
19869SOL    HW161614   0.157   1.210   4.532  0.6054  0.1249 -0.4021
19869SOL    HW261615   0.252   1.111   4.596  0.2563  0.4959  0.7259
19870SOL     OW61616   8.746   4.021  10.319  0.1916 -0.0710 -0.2304
19870SOL    HW161617   8.744   4.105  10.364 -1.7637 -0.2130  0.0209
19870SOL    HW261618   8.775   3.959  10.387  0.4218  0.1993 -0.0771
19871SOL     OW61619   4.354   1.884   8.458 -0.6679 -0.4642  0.1311
19871SOL    HW161620   4.319   1.962   8.414  2.7952  0.4823 -1.2869
19871SOL    HW261621   4.352   1.905   8.551 -0.7000  0.9429 -0.1716
19872SOL     OW61622   9.897   1.606   9.105  0.5326 -0.6145 -0.2510
19872SOL    HW161623   9.869   1.598   9.014 -2.7205 -3.7774  0.7819
19872SOL    HW261624   9.992   1.594   9.103  0.4985 -0.9893 -3.1788
19873SOL     OW61625  11.245   4.188   9.846  0.3168 -0.1070  0.2603
19873SOL    HW161626  11.173   4.251   9.839  0.4875  0.0769  0.1459
19873SOL    HW261627  11.204   4.108   9.879 -0.1013 -0.2893 -0.6598
19874SOL     OW61628   5.260   0.403   9.210 -0.7164  0.5521  0.5674
19874SOL    HW161629   5.188   0.340   9.205  0.1058 -0.4662  1.1684
19874SOL    HW261630   5.265   0.427   9.303 -0.9686  1.4398  0.3544
19875SOL     OW61631   3.455   0.939   4.839  0.4668  0.2936  0.1925
19875SOL    HW161632   3.516   0.874   4.873  1.4998  1.6156  0.9071
19875SOL    HW261633   3.375   0.889   4.823  1.6213 -1.4215 -0.5283
19876SOL     OW61634   0.045   4.197   5.195 -0.6243 -0.0742  0.1511
19876SOL    HW161635   0.083   4.267   5.142 -1.1607  0.1251  0.0291
19876SOL    HW261636   0.093   4.202   5.278  1.0157 -1.1115 -0.6728
19877SOL     OW61637   1.094   2.343   0.931  0.5400  0.0820  0.4504
19877SOL    HW161638   1.046   2.267   0.899 -1.8611  1.1698  1.1981
19877SOL    HW261639   1.123   2.388   0.852 -0.0150 -0.4287 -0.0547
19878SOL     OW61640   8.183   1.357   4.854 -0.0785 -0.1318 -0.3550
19878SOL    HW161641   8.163   1.319   4.939  1.3301  0.0291  0.0770
19878SOL    HW261642   8.175   1.451   4.867 -3.7620 -0.1303 -1.4742
19879SOL     OW61643   4.678  10.645  11.067  0.1035  0.4172 -0.1788
19879SOL    HW161644   4.636  10.639  10.981  1.2108 -0.8934 -0.6621
19879SOL    HW261645   4.767  10.676  11.048  1.2494 -2.3996  0.1267
19880SOL     OW61646   2.056   4.034   9.890  0.1009  0.3611 -0.9868
19880SOL    HW161647   1.990   4.089   9.932  0.0149  0.7491 -1.6255
19880SOL    HW261648   2.023   3.945   9.899  0.2685  0.3890  0.1100
19881SOL     OW61649   7.989   9.208   5.283  0.0475 -0.2925 -0.4430
19881SOL    HW161650   8.036   9.290   5.269 -2.3415  1.0045 -1.5633
19881SOL    HW261651   7.992   9.194   5.378  2.2604 -0.0904 -0.4316
19882SOL     OW61652   5.910   0.848   0.373 -0.0002 -0.0349 -0.0446
19882SOL    HW161653   5.831   0.796   0.388 -1.1106  0.6040 -2.9256
19882SOL    HW261654   5.972   0.816   0.438 -2.2543 -1.3095  1.6600
19883SOL     OW61655   7.020   3.776   6.228  0.0886  0.0301  0.2056
19883SOL    HW161656   6.984   3.800   6.313  0.3705 -1.2041  0.6887
19883SOL    HW261657   7.102   3.730   6.249  1.3278  1.6637 -0.8113
19884SOL     OW61658   1.170   2.404   5.038  0.7401  0.2542 -0.7406
19884SOL    HW161659   1.110   2.403   4.964  0.1190  2.9788 -0.3894
19884SOL    HW261660   1.161   2.317   5.078 -3.7221  0.7302 -0.1951
19885SOL     OW61661   6.719   9.367   4.982  0.2796 -0.8008 -0.3375
19885SOL    HW161662   6.789   9.331   4.928  0.3715  0.7759 -1.3457
19885SOL    HW261663   6.750   9.454   5.006 -0.1433 -1.1438  1.5635
19886SOL     OW61664   5.663  10.759   1.069 -0.4015  0.4097  0.5279
19886SOL    HW161665   5.711  10.839   1.090 -0.1478  0.0344  1.4042
19886SOL    HW261666   5.572  10.788   1.058 -0.2239  0.8931  0.3061
19887SOL     OW61667  10.706   7.240   7.325 -0.1481  0.0445 -0.0745
19887SOL    HW161668  10.724   7.330   7.300 -0.1766  0.0718  0.0015
19887SOL    HW261669  10.755   7.227   7.406  1.5009 -0.6400 -1.1416
19888SOL     OW61670   5.086   8.904   6.229  0.5954 -0.3710  0.9626
19888SOL    HW161671   5.147   8.858   6.171  2.5011  0.6123  2.0697
19888SOL    HW261672   5.104   8.997   6.215 -1.7478  0.0406  0.2505
19889SOL     OW61673   0.216   7.874   7.942  0.5304  0.5275 -0.0799
19889SOL    HW161674   0.210   7.779   7.935  3.1727  0.3109 -0.0616
19889SOL    HW261675   0.221   7.892   8.035 -0.4342  0.7716 -0.0557
19890SOL     OW61676   9.172   9.925   8.243 -0.2089 -0.0084  0.5028
19890SOL    HW161677   9.160   9.905   8.336 -0.4926 -0.7886  0.3090
19890SOL    HW261678   9.104   9.990   8.224 -1.5293 -1.3681  0.3744
19891SOL     OW61679   2.469   4.514   6.151  0.4537  0.0542 -0.2335
19891SOL    HW161680   2.397   4.499   6.090 -0.4106 -1.8829  1.1322
19891SOL    HW261681   2.537   4.554   6.099  0.0366 -2.1522 -2.6847
19892SOL     OW61682   0.527   8.488   7.222  0.0247  0.4527 -0.2333
19892SOL    HW161683   0.473   8.505   7.145  0.5470  0.5381 -0.5903
19892SOL    HW261684   0.565   8.574   7.243 -1.3757  0.7830  1.1136
19893SOL     OW61685   9.830   3.264  11.022 -0.1845  0.1552  0.2487
19893SOL    HW161686   9.858   3.298  11.107 -1.1742  0.6197  0.4060
19893SOL    HW261687   9.909   3.266  10.968  0.2399  0.7548  0.8727
19894SOL     OW61688   9.496   5.315   4.572 -0.7837  0.4182 -0.1804
19894SOL    HW161689   9.472   5.342   4.660 -0.1721 -2.4150  0.9721
19894SOL    HW261690   9.438   5.241   4.552 -0.7047  0.7913 -2.0520
19895SOL     OW61691   8.378   3.900   5.515  0.0873  0.0800  0.4498
19895SOL    HW161692   8.321   3.841   5.466  1.8748 -0.1772 -1.4716
19895SOL    HW261693   8.328   3.922   5.594 -0.3375 -4.7266  1.8215
19896SOL     OW61694  10.351   5.073   7.688  0.2825  0.6269  0.0267
19896SOL    HW161695  10.393   4.988   7.694  0.4416  0.6691 -0.4349
19896SOL    HW261696  10.380   5.120   7.766 -0.9947 -0.2510  1.0737
19897SOL     OW61697   0.301   3.380   4.123  0.1561 -0.4240  0.0928
19897SOL    HW161698   0.271   3.329   4.198 -2.2093  1.6151  0.6617
19897SOL    HW261699   0.234   3.447   4.111  0.8510 -0.1472 -3.3552
19898SOL     OW61700   3.726   1.187  10.988  0.0617 -0.8310 -0.5098
19898SOL    HW161701   3.658   1.190  10.921  0.6753 -3.3149 -1.3622
19898SOL    HW261702   3.789   1.123  10.955  2.4617  0.8072  0.5992
19899SOL     OW61703   7.774   4.900   3.005 -0.3585 -0.1784 -0.4618
19899SOL    HW161704   7.777   4.929   3.096  1.3378  0.0965 -0.5702
19899SOL    HW261705   7.688   4.928   2.973 -1.8077 -1.9895  1.5760
19900SOL     OW61706  10.055   3.645  10.935 -0.2312 -0.3141 -0.5278
19900SOL    HW161707  10.079   3.738  10.933 -0.2948 -0.2512  0.9515
19900SOL    HW261708   9.998   3.634  10.859  0.3785  0.6761 -1.1583
19901SOL     OW61709   1.584   1.128   6.292 -0.3148  0.2535 -0.8225
19901SOL    HW161710   1.502   1.078   6.290  0.5222 -1.3218  0.9811
19901SOL    HW261711   1.651   1.062   6.308  0.9616  1.8432  0.7370
19902SOL     OW61712   2.732   3.852   5.512 -0.1767  0.0926 -0.1837
19902SOL    HW161713   2.745   3.895   5.427 -0.4519 -0.1669 -0.3587
19902SOL    HW261714   2.645   3.879   5.540 -0.3093 -0.2615 -0.2445
19903SOL     OW61715   6.477   6.857   0.678 -0.4407 -0.0824 -0.2630
19903SOL    HW161716   6.477   6.815   0.763  1.5815 -0.3057 -0.3198
19903SOL    HW261717   6.478   6.784   0.615 -3.0085  0.0644 -0.5574
19904SOL     OW61718   3.814   0.778   0.189 -0.2303 -0.0903 -0.8089
19904SOL    HW161719   3.864   0.735   0.259 -2.1329 -1.0853  0.0081
19904SOL    HW261720   3.750   0.832   0.235 -0.9576 -0.0972 -1.7758
19905SOL     OW61721   4.368   2.994   1.939 -1.1271  0.3213  0.4886
19905SOL    HW161722   4.458   2.997   1.906 -1.6062  0.9628 -0.8150
19905SOL    HW261723   4.365   2.915   1.993  0.5612  0.9553  1.6203
19906SOL     OW61724   2.450   7.444   3.601 -0.1109  0.2517  0.0003
19906SOL    HW161725   2.491   7.360   3.579 -0.7340 -0.2427  0.6986
19906SOL    HW261726   2.435   7.440   3.695  1.6586  1.9717  0.4163
19907SOL     OW61727   9.806   8.191   6.250  0.0145  0.2388 -0.5614
19907SOL    HW161728   9.711   8.181   6.242  0.0712  0.1193 -1.1392
19907SOL    HW261729   9.819   8.232   6.335 -0.4126 -1.7742  0.5396
19908SOL     OW61730   1.674   8.600   1.055  0.3408 -0.4770 -0.1485
19908SOL    HW161731   1.643   8.524   1.104 -1.0890  1.1799  1.6863
19908SOL    HW261732   1.629   8.596   0.971  0.4893 -1.7573 -0.1782
19909SOL     OW61733   8.398   3.189   2.885  0.0159  0.2575 -0.0135
19909SOL    HW161734   8.445   3.111   2.855  1.2702  0.6518  0.8596
19909SOL    HW261735   8.467   3.253   2.903 -0.9127  1.1081  0.5993
19910SOL     OW61736   2.588   5.867   4.749  0.0173 -0.0786 -0.3822
19910SOL    HW161737   2.533   5.884   4.825 -0.3908  0.5478 -0.8108
19910SOL    HW261738   2.632   5.784   4.769 -1.2887 -0.7333 -0.1588
19911SOL     OW61739   9.629   6.346   2.509  0.6195 -0.2149  0.4297
19911SOL    HW161740   9.606   6.435   2.481  0.0200 -0.9082 -1.4867
19911SOL    HW261741   9.550   6.312   2.550 -0.2431 -0.8628 -1.6178
19912SOL     OW61742   2.717   1.902  10.903 -0.4320 -0.5302  0.3312
19912SOL    HW161743   2.704   1.996  10.890 -0.2725 -0.0505  3.0376
19912SOL    HW261744   2.809   1.894  10.930 -0.7444 -1.2811  1.2464
19913SOL     OW61745   1.349   6.496  10.157  0.0925 -0.2767  0.0429
19913SOL    HW161746   1.317   6.412  10.124 -1.0008  0.2676 -0.3379
19913SOL    HW261747   1.440   6.479  10.182 -0.2831 -1.7068  0.5115
19914SOL     OW61748   8.067   4.423   8.520  0.1771 -0.3425 -0.9651
19914SOL    HW161749   7.998   4.406   8.585  0.6724 -1.4139 -0.6954
19914SOL    HW261750   8.035   4.498   8.470 -0.5366  0.0648  0.0682
19915SOL     OW61751   5.120   0.193   8.132  0.1531  0.7920 -0.2745
19915SOL    HW161752   5.160   0.160   8.212 -0.3684  1.1298  0.1288
19915SOL    HW261753   5.177   0.263   8.103  0.9666 -0.0809 -0.8279
19916SOL     OW61754   5.826   9.267  10.481 -0.6480 -0.8629  0.7035
19916SOL    HW161755   5.793   9.177  10.488  1.0498 -1.5838 -0.0047
19916SOL    HW261756   5.763   9.319  10.531 -2.3666 -2.2477  0.1147
19917SOL     OW61757  11.268   4.778   1.620 -0.6867  0.1788 -0.0959
19917SOL    HW161758  11.277   4.848   1.555  1.8033 -1.1786 -1.3972
19917SOL    HW261759  11.353   4.774   1.663 -1.7083 -0.1800  2.0255
19918SOL     OW61760   0.145   2.868   0.573 -0.2115 -0.0392  0.1936
19918SOL    HW161761   0.100   2.889   0.655 -1.4249  2.7017 -1.0466
19918SOL    HW261762   0.087   2.805   0.529 -0.0467 -0.7484  0.9554
19919SOL     OW61763   2.052  10.476   6.448 -0.2607 -0.0141 -0.3333
19919SOL    HW161764   2.005  10.527   6.514 -0.6640 -1.3546  0.4469
19919SOL    HW261765   2.138  10.516   6.443  0.6180 -1.2640  2.7462
19920SOL     OW61766   7.310   0.991   2.888 -0.3434 -0.7501  0.1182
19920SOL    HW161767   7.290   0.942   2.968  0.0988 -2.9013 -1.0199
19920SOL    HW261768   7.301   1.083   2.914  0.5558 -1.3368  2.8302
19921SOL     OW61769   7.055   8.611   1.557 -0.4756  0.9259  0.0147
19921SOL    HW161770   7.029   8.519   1.566  1.6374  0.4225  1.8909
19921SOL    HW261771   6.974   8.656   1.534 -1.4607 -1.4671 -1.6058
19922SOL     OW61772   9.505   6.172   2.090 -0.3451  0.0223 -0.1018
19922SOL    HW161773   9.553   6.195   2.011 -0.1263  1.1048  0.3218
19922SOL    HW261774   9.558   6.104   2.132 -0.0282  0.0477 -0.4541
19923SOL     OW61775   4.363   6.753   0.341 -0.2144  0.5782 -0.0840
19923SOL    HW161776   4.306   6.813   0.390  0.6714  0.7007  0.8206
19923SOL    HW261777   4.354   6.780   0.250 -0.3322  1.6591  0.2404
19924SOL     OW61778   5.927   7.590   6.465  0.2317 -0.0342 -0.3884
19924SOL    HW161779   5.832   7.600   6.472  0.0709 -0.7188 -1.3847
19924SOL    HW261780   5.959   7.605   6.554 -1.0090 -1.6993  0.4120
19925SOL     OW61781   9.659   8.288   1.842 -0.1379 -0.7100 -0.3399
19925SOL    HW161782   9.753   8.270   1.842  0.2293  1.0656  0.6086
19925SOL    HW261783   9.622   8.217   1.896  1.0773  0.3273  2.0132
19926SOL     OW61784   5.489   8.755  10.055 -0.8009 -0.5421  0.3170
19926SOL    HW161785   5.499   8.808  10.134  0.4556  2.2491 -1.5655
19926SOL    HW261786   5.420   8.798  10.005  0.5613 -0.3151 -1.4832
19927SOL     OW61787   3.698   5.378   9.935 -0.8721  0.2624  0.5162
19927SOL    HW161788   3.673   5.330   9.855 -0.9536 -0.8628  1.1920
19927SOL    HW261789   3.626   5.439   9.949 -1.4587 -0.3874  0.3996
19928SOL     OW61790   3.749   8.512   7.498 -0.3088 -0.5267 -0.6009
19928SOL    HW161791   3.785   8.600   7.501  0.2151 -0.6772 -1.7192
19928SOL    HW261792   3.819   8.459   7.458 -0.8536 -1.3126 -0.5358
19929SOL     OW61793   4.544   1.363   6.326 -0.3297 -0.0115 -0.1409
19929SOL    HW161794   4.485   1.438   6.336 -0.8043 -0.4997  0.8626
19929SOL    HW261795   4.531   1.312   6.406  2.7378  0.7543  0.9876
19930SOL     OW61796  10.883   5.867   3.218  0.3284  0.3869  0.4866
19930SOL    HW161797  10.937   5.804   3.170 -0.7975 -2.2052  2.3616
19930SOL    HW261798  10.943   5.906   3.281  1.2102  1.8445 -1.1785
19931SOL     OW61799   5.995  10.167   7.248 -0.0878  0.6915 -0.2550
19931SOL    HW161800   6.039  10.144   7.166 -0.9534 -1.1594 -0.2625
19931SOL    HW261801   6.065  10.200   7.304  1.1390 -1.0662 -0.6607
19932SOL     OW61802  10.719   5.678   0.400 -0.1302 -0.0428 -0.5898
19932SOL    HW161803  10.653   5.713   0.460  0.2589 -0.5983  0.1832
19932SOL    HW261804  10.680   5.598   0.365 -0.1199 -0.0363 -0.6166
19933SOL     OW61805   5.923   9.948   2.474  0.0133 -0.2532  0.2867
19933SOL    HW161806   5.857   9.901   2.526  0.1059 -0.0413  0.6000
19933SOL    HW261807   5.987   9.881   2.450  1.8887  0.1924  3.4121
19934SOL     OW61808   1.661   8.700   6.874 -0.3348 -0.7724  0.0853
19934SOL    HW161809   1.693   8.666   6.958  0.3407 -0.0118  0.1510
19934SOL    HW261810   1.707   8.648   6.808  1.8709  0.9255  0.1589
19935SOL     OW61811   6.112   9.072   6.150  0.0684 -0.3001  0.2133
19935SOL    HW161812   6.020   9.053   6.134 -0.2441  0.2056  1.3058
19935SOL    HW261813   6.111   9.151   6.204  1.0761 -1.1579  1.5585
19936SOL     OW61814   9.697   1.241   3.812  0.4176  0.7227 -0.1858
19936SOL    HW161815   9.651   1.310   3.859  2.2373  0.8637  1.5220
19936SOL    HW261816   9.743   1.286   3.742 -0.0883  0.9118 -0.4038
19937SOL     OW61817   7.744   7.291   4.257  0.3434 -0.1106 -0.0786
19937SOL    HW161818   7.659   7.248   4.267 -0.0314  0.8687  1.4784
19937SOL    HW261819   7.774   7.267   4.170  0.0275 -3.1826  0.5620
19938SOL     OW61820   7.479   9.516   0.393  0.5672 -0.0728  0.5717
19938SOL    HW161821   7.570   9.507   0.367  0.2357  0.1675 -0.7298
19938SOL    HW261822   7.471   9.606   0.425  0.4456  0.4328 -0.8208
19939SOL     OW61823   6.271   3.554   3.680 -0.8050  0.6284  0.4028
19939SOL    HW161824   6.294   3.646   3.691  0.4767  0.1001  2.5357
19939SOL    HW261825   6.301   3.512   3.760 -1.1277 -1.7106 -0.6402
19940SOL     OW61826   8.292   2.022   1.301 -0.1884  0.0525  0.0839
19940SOL    HW161827   8.281   2.008   1.395 -2.0070 -1.6522 -0.3123
19940SOL    HW261828   8.240   2.099   1.281  0.4693  0.6140  0.5147
19941SOL     OW61829   2.000   0.617   2.386  0.5899  0.4537 -0.3090
19941SOL    HW161830   1.916   0.587   2.353 -0.1264  2.1783 -0.1434
19941SOL    HW261831   2.059   0.543   2.373 -0.8823 -0.6854 -0.6716
19942SOL     OW61832   5.315   4.433   9.393  0.3635  0.5454 -0.3038
19942SOL    HW161833   5.353   4.375   9.459 -0.9561  1.8573  1.7345
19942SOL    HW261834   5.233   4.390   9.368 -0.9216  1.7023  1.6617
19943SOL     OW61835   5.747   5.434   5.876 -0.1345  0.3865 -0.3410
19943SOL    HW161836   5.694   5.396   5.947 -0.8820 -0.9190 -1.5407
19943SOL    HW261837   5.837   5.427   5.907 -0.4740  0.2395  0.6617
19944SOL     OW61838   4.776   9.224   6.529 -0.2667  0.7973  0.0041
19944SOL    HW161839   4.810   9.169   6.459 -0.0155 -0.1791  0.8569
19944SOL    HW261840   4.779   9.313   6.494  0.5107  0.4089 -0.9591
19945SOL     OW61841   3.378   3.839   0.018 -0.1731  0.1509 -0.5948
19945SOL    HW161842   3.297   3.852   0.067 -0.2395  1.1665 -0.9468
19945SOL    HW261843   3.365   3.757  -0.030 -1.0183  0.3371 -0.6977
19946SOL     OW61844   7.850   0.568   5.655  0.1661 -0.4257 -0.0700
19946SOL    HW161845   7.792   0.549   5.582  1.9760 -0.3205 -1.5897
19946SOL    HW261846   7.934   0.529   5.631  0.7374 -0.7154  2.1216
19947SOL     OW61847   8.017   4.204   9.028  1.2278  0.8985 -0.9680
19947SOL    HW161848   7.927   4.174   9.015  1.3507 -0.9800  1.7701
19947SOL    HW261849   8.007   4.298   9.048 -0.4405  0.3184  1.3961
19948SOL     OW61850   6.053   8.453   0.941 -0.0128  0.6693  0.9382
19948SOL    HW161851   6.057   8.423   1.032 -1.1816  2.5657  1.6760
19948SOL    HW261852   6.144   8.455   0.911  0.3040 -0.9320  1.7052
19949SOL     OW61853   0.761  10.630   5.701  0.2775  0.2045 -0.0521
19949SOL    HW161854   0.679  10.581   5.688  0.0468  0.5665  0.0353
19949SOL    HW261855   0.826  10.562   5.719  0.1210 -0.1331 -0.7267
19950SOL     OW61856   8.093   7.156   0.941  0.4365  0.2843 -0.3378
19950SOL    HW161857   8.174   7.205   0.928  1.1902 -0.6472  0.6053
19950SOL    HW261858   8.121   7.065   0.947 -0.4430  0.0852  1.6989
19951SOL     OW61859   1.562   6.862   7.766  0.0389  0.1440 -0.4494
19951SOL    HW161860   1.631   6.822   7.819  0.5123  2.4207  0.7646
19951SOL    HW261861   1.512   6.915   7.827 -1.4230  0.3459 -1.7394
19952SOL     OW61862   4.977   1.173   3.335  0.3027  0.4476 -0.1375
19952SOL    HW161863   4.978   1.207   3.246 -0.6251  0.5192 -0.1313
19952SOL    HW261864   5.025   1.237   3.386  0.3262  0.7080 -0.4836
19953SOL     OW61865   6.432   0.204   7.875 -0.0198 -0.1032  0.5056
19953SOL    HW161866   6.364   0.160   7.824  0.7938 -1.5586  0.6049
19953SOL    HW261867   6.513   0.158   7.851  0.5788  0.0623  2.0986
19954SOL     OW61868   4.843   5.665   9.972 -0.0653 -0.0637 -0.0847
19954SOL    HW161869   4.848   5.571   9.988 -0.7129 -0.4928 -2.1144
19954SOL    HW261870   4.901   5.680   9.896  0.3005  1.2346  0.4214
19955SOL     OW61871   8.245   8.934   7.863 -0.1258 -0.3277 -0.6298
19955SOL    HW161872   8.212   9.006   7.808 -1.2520 -0.6485 -0.4117
19955SOL    HW261873   8.187   8.861   7.842 -0.1079 -0.6636  0.4587
19956SOL     OW61874   0.034  11.064   1.421  1.0766  0.3795  0.6131
19956SOL    HW161875  -0.035  11.012   1.459 -0.2341  1.8721  0.3759
19956SOL    HW261876   0.034  11.146   1.471  0.0891  1.9154 -1.7380
19957SOL     OW61877   9.718   1.202   8.470  0.2464  0.4204 -0.2950
19957SOL    HW161878   9.761   1.276   8.427 -1.6716  1.7717 -0.0409
19957SOL    HW261879   9.713   1.228   8.562 -0.4440 -0.0367 -0.1964
19958SOL     OW61880   8.790   0.748   8.656 -0.6480  0.1200  0.6692
19958SOL    HW161881   8.871   0.798   8.668  0.2954 -1.5342  1.6270
19958SOL    HW261882   8.806   0.697   8.576 -1.6694  1.3968 -0.3989
19959SOL     OW61883   7.558   1.049   0.790  0.1336 -0.1239 -0.0631
19959SOL    HW161884   7.589   1.128   0.746 -1.2658 -0.5938 -1.9926
19959SOL    HW261885   7.481   1.022   0.740 -0.8818 -1.3470  2.0230
19960SOL     OW61886  10.045   9.186   0.983 -0.3149  0.2154  0.0013
19960SOL    HW161887  10.112   9.176   0.915  1.0694  3.3243  0.7711
19960SOL    HW261888  10.034   9.097   1.018  1.4601 -0.8520 -1.9038
19961SOL     OW61889   0.870   8.536   3.197  0.0074 -0.1291 -0.0479
19961SOL    HW161890   0.848   8.591   3.273 -0.6578  2.8849 -2.2089
19961SOL    HW261891   0.789   8.533   3.146  0.9516 -0.3737 -1.5845
19962SOL     OW61892  10.469   5.516  10.452 -0.1631 -0.3161  0.4109
19962SOL    HW161893  10.376   5.517  10.476 -0.2978 -1.1384 -0.0432
19962SOL    HW261894  10.508   5.450  10.509 -0.2132 -1.2621 -0.6210
19963SOL     OW61895   3.701   9.265   8.728 -0.2060  0.8592  0.8965
19963SOL    HW161896   3.633   9.239   8.790 -0.3389 -1.9446 -0.2737
19963SOL    HW261897   3.681   9.356   8.708 -4.0983  0.0026  0.0704
19964SOL     OW61898  10.734   5.484   0.911  1.2235  0.3844 -0.6963
19964SOL    HW161899  10.729   5.532   0.829 -2.8591  3.4416  0.9772
19964SOL    HW261900  10.810   5.521   0.956  2.2470  0.1563 -2.1590
19965SOL     OW61901   4.255   5.131   7.079  0.4420 -0.0316 -0.0737
19965SOL    HW161902   4.201   5.053   7.093  1.8853 -1.4105 -1.6688
19965SOL    HW261903   4.312   5.135   7.156 -0.5044  0.2288  0.6278
19966SOL     OW61904   3.376   5.112   9.879 -0.6623 -0.5846 -0.3523
19966SOL    HW161905   3.287   5.147   9.868 -1.0242 -0.9748  1.1018
19966SOL    HW261906   3.363   5.019   9.897  0.0019 -0.5668  0.2843
19967SOL     OW61907   4.553   2.637   2.899  0.3089 -0.0728 -0.1553
19967SOL    HW161908   4.482   2.696   2.871 -1.7737 -2.9302 -1.3981
19967SOL    HW261909   4.509   2.555   2.919  2.9909 -1.0966  2.1460
19968SOL     OW61910   3.480   6.405   1.808  0.5199 -0.6935 -0.4647
19968SOL    HW161911   3.387   6.408   1.783  0.3559 -1.8691 -0.0750
19968SOL    HW261912   3.478   6.388   1.903  1.1328 -0.1976 -0.3624
19969SOL     OW61913   5.939   4.278   4.093  0.1341  0.1970 -0.0723
19969SOL    HW161914   5.884   4.210   4.130  2.4608 -1.4220  0.6334
19969SOL    HW261915   5.888   4.314   4.020 -2.7780  0.5018  1.9686
19970SOL     OW61916   3.055   3.340   5.573  0.1778 -0.4439  0.1217
19970SOL    HW161917   3.078   3.371   5.485 -0.1270 -0.2395  0.1126
19970SOL    HW261918   2.966   3.371   5.587  1.4540  2.9957  2.0263
19971SOL     OW61919  10.512   0.224   0.770 -0.5011  0.4279 -0.2623
19971SOL    HW161920  10.435   0.251   0.819  0.0302  2.2650 -0.3558
19971SOL    HW261921  10.488   0.140   0.731 -1.6713 -0.0711  1.4151
19972SOL     OW61922   4.607   0.545   4.423 -0.2089  0.2045 -0.3360
19972SOL    HW161923   4.701   0.534   4.441  0.3900  5.2995  1.3476
19972SOL    HW261924   4.566   0.534   4.509 -0.8330  0.2357 -0.6311
19973SOL     OW61925  11.032   4.017   8.508 -0.0370 -0.3086 -0.1490
19973SOL    HW161926  10.970   4.067   8.562  1.5142  0.9330  0.5627
19973SOL    HW261927  11.033   4.061   8.424 -1.0761 -1.1305 -0.6105
19974SOL     OW61928   8.081   5.840   3.758 -0.5386 -0.2739  0.3625
19974SOL    HW161929   8.147   5.789   3.712 -0.9365 -0.9323  0.4982
19974SOL    HW261930   8.017   5.775   3.787 -0.0118  0.0192  2.3381
19975SOL     OW61931   8.283   1.500   7.850 -0.4257  0.2555  0.1055
19975SOL    HW161932   8.361   1.451   7.823  1.3922  2.0786  1.6501
19975SOL    HW261933   8.257   1.459   7.933  0.8993  1.5358  1.2284
19976SOL     OW61934   5.517   6.700   5.890 -0.2164  0.6066  0.3710
19976SOL    HW161935   5.547   6.680   5.801 -0.4672  1.7579  0.0119
19976SOL    HW261936   5.519   6.615   5.935 -0.4242 -0.0688 -0.8287
19977SOL     OW61937   6.923   0.666   7.757  0.7716  0.5118  0.0623
19977SOL    HW161938   6.857   0.674   7.825  1.1682 -0.7436  0.6200
19977SOL    HW261939   6.878   0.692   7.676 -0.0863  0.7192  0.5986
19978SOL     OW61940   9.926   6.190   6.284  0.2024 -0.1689 -0.0755
19978SOL    HW161941   9.957   6.122   6.344 -0.8601 -0.7688 -0.1876
19978SOL    HW261942   9.860   6.238   6.334  0.1926  0.1152 -0.3585
19979SOL     OW61943   6.719   7.074   1.520 -0.1260  0.0323  0.8441
19979SOL    HW161944   6.710   7.057   1.427  0.5704  0.5742  0.6661
19979SOL    HW261945   6.665   7.152   1.536  2.1337  1.8592  0.2376
19980SOL     OW61946   4.946   1.485   4.723 -0.1531 -0.0626  0.3859
19980SOL    HW161947   4.859   1.511   4.753 -0.6056  0.8422 -1.4978
19980SOL    HW261948   4.929   1.430   4.647  0.8602  1.7942 -1.2858
19981SOL     OW61949   0.706   3.733   6.947 -0.7198  0.2160  0.5034
19981SOL    HW161950   0.622   3.778   6.932 -0.2099  2.6775  3.8912
19981SOL    HW261951   0.681   3.643   6.966 -2.3855  0.4349 -0.4277
19982SOL     OW61952   4.860   9.743   9.686 -0.2054  0.0942 -0.9033
19982SOL    HW161953   4.923   9.744   9.615 -0.9051  1.2643 -1.5345
19982SOL    HW261954   4.778   9.717   9.645 -0.6604  0.9766 -0.5716
19983SOL     OW61955   6.013   6.708   0.575 -0.8739 -0.5287  0.1234
19983SOL    HW161956   6.000   6.614   0.562 -0.3521 -0.4283 -1.3796
19983SOL    HW261957   5.934   6.748   0.538  0.2361 -0.2690 -2.1138
19984SOL     OW61958   9.176   8.916  10.642  0.7442 -0.3933  0.1319
19984SOL    HW161959   9.102   8.973  10.662  2.2554  1.8431 -0.2593
19984SOL    HW261960   9.168   8.896  10.549  0.5207 -0.2921  0.1297
19985SOL     OW61961   4.687   0.063   7.337 -0.5822 -1.0752 -0.3660
19985SOL    HW161962   4.616   0.060   7.272 -0.6275  1.9423 -0.5804
19985SOL    HW261963   4.753   0.002   7.302 -2.1651 -2.4051 -1.2143
19986SOL     OW61964   5.344   0.414   2.745  0.3742  0.0213 -0.4256
19986SOL    HW161965   5.392   0.460   2.676  1.5096 -0.2771  0.1410
19986SOL    HW261966   5.335   0.478   2.816  4.0999 -1.1363  1.3814
19987SOL     OW61967   3.869   5.462   4.455  0.0295  0.5387 -0.0597
19987SOL    HW161968   3.914   5.462   4.371 -2.3211  0.1686 -1.3751
19987SOL    HW261969   3.820   5.544   4.457 -1.6931 -0.4428 -0.0950
19988SOL     OW61970   1.326  10.958   6.860  0.0255 -0.0922 -0.5637
19988SOL    HW161971   1.399  10.973   6.800 -0.8330  0.5743 -1.4606
19988SOL    HW261972   1.367  10.955   6.947  1.0184  1.1071 -0.9678
19989SOL     OW61973   8.354  11.268   1.363 -0.0660 -0.2148 -0.1986
19989SOL    HW161974   8.340  11.250   1.270 -0.6998  1.4416 -0.4547
19989SOL    HW261975   8.444  11.301   1.367 -0.8688  2.2215 -0.6755
19990SOL     OW61976   8.339   5.257   9.000  0.0428  0.0757  0.5379
19990SOL    HW161977   8.423   5.215   9.020  0.0236  0.5292  1.6508
19990SOL    HW261978   8.275   5.185   9.005  0.1444  0.0355  1.4199
19991SOL     OW61979   5.283   4.224   5.489 -0.3234 -0.1116 -0.3588
19991SOL    HW161980   5.268   4.130   5.479  0.4708 -0.0284 -3.1578
19991SOL    HW261981   5.378   4.233   5.488 -0.3843  0.7072  0.3094
19992SOL     OW61982  10.104   4.490   4.835 -1.3547  0.4346 -0.1496
19992SOL    HW161983  10.114   4.480   4.929 -1.3858 -1.3349 -0.2886
19992SOL    HW261984  10.194   4.491   4.801 -1.3404 -0.8540 -0.2209
19993SOL     OW61985   0.498   7.464   9.927 -0.0036  0.8129 -0.1869
19993SOL    HW161986   0.561   7.400   9.894  0.9042  1.9677 -0.7590
19993SOL    HW261987   0.419   7.449   9.874 -0.5099 -1.0909  0.9885
19994SOL     OW61988   7.740   9.201   0.951 -0.2952 -0.5497  0.3102
19994SOL    HW161989   7.682   9.244   1.013  1.6546  0.3296  1.6235
19994SOL    HW261990   7.806   9.267   0.929 -0.4489 -1.1069 -2.0825
19995SOL     OW61991   1.416   5.340   9.122 -0.2912 -0.0187 -0.1924
19995SOL    HW161992   1.386   5.250   9.110  1.2700 -1.2832  3.7826
19995SOL    HW261993   1.336   5.389   9.142 -0.8153 -1.4463  1.5053
19996SOL     OW61994   4.691   6.486   9.641  0.2938  0.0951  0.8078
19996SOL    HW161995   4.726   6.457   9.557  2.0711  0.4755  1.3750
19996SOL    HW261996   4.655   6.407   9.681  0.8573 -0.4039  0.3464
19997SOL     OW61997   2.656   1.878   9.965 -0.2702  0.8372  0.8641
19997SOL    HW161998   2.744   1.859   9.998 -0.1817  1.7392  1.1785
19997SOL    HW261999   2.600   1.867  10.042 -0.3532  0.8280  0.8017
19998SOL     OW62000   1.553   1.913   8.689  0.2985  0.2072 -0.4267
19998SOL    HW162001   1.636   1.878   8.655  1.0290  1.4591 -0.0085
19998SOL    HW262002   1.571   2.005   8.705 -0.8145  0.2301  0.8561
19999SOL     OW62003   7.182   2.719   9.050  0.1955  0.4884  0.0901
19999SOL    HW162004   7.269   2.680   9.060 -0.3001 -0.4759  0.9828
19999SOL    HW262005   7.151   2.728   9.140 -0.1751  1.9200 -0.1629
20000SOL     OW62006   8.432   7.953   0.582  0.0169  0.0047 -0.3357
20000SOL    HW162007   8.448   7.885   0.647  0.9807  0.2913 -0.2484
20000SOL    HW262008   8.383   8.020   0.629  0.5479  0.1277  0.0560
20001SOL     OW62009   2.370   2.517   9.946  0.0285 -0.2065  0.1677
20001SOL    HW162010   2.389   2.570   9.869 -0.0396 -1.5663 -0.8066
20001SOL    HW262011   2.446   2.530  10.003  0.5797 -0.0271 -0.5903
20002SOL     OW62012   3.103   8.702   5.636  0.0740 -0.5314 -0.0448
20002SOL    HW162013   3.034   8.768   5.643 -0.0406 -0.2653 -2.6107
20002SOL    HW262014   3.131   8.687   5.726 -1.5463  1.2418  0.8357
20003SOL     OW62015   2.660   1.305   9.016 -0.1235 -0.0424 -0.3212
20003SOL    HW162016   2.663   1.398   8.995 -0.6933 -0.3071 -1.7005
20003SOL    HW262017   2.585   1.272   8.967  0.7267 -1.4449 -0.7350
20004SOL     OW62018   1.583   5.078   7.713  0.0951 -0.3190 -0.0895
20004SOL    HW162019   1.567   5.172   7.718 -0.0811 -0.3596  0.1250
20004SOL    HW262020   1.611   5.063   7.623 -1.3144 -0.2759 -0.5619
20005SOL     OW62021  10.630   6.904   9.879  0.2432 -0.4553  0.4194
20005SOL    HW162022  10.614   6.813   9.857  0.4408 -0.6588  1.1055
20005SOL    HW262023  10.645   6.947   9.794  1.4856 -1.3137  0.1779
20006SOL     OW62024   7.568  10.615   2.932  0.0913 -0.1664 -0.0227
20006SOL    HW162025   7.613  10.556   2.872  0.4700  0.6585 -0.5538
20006SOL    HW262026   7.529  10.682   2.876  0.7137  0.7895  0.6585
20007SOL     OW62027   4.923   8.171   2.694 -0.0368  0.1322 -0.3161
20007SOL    HW162028   4.856   8.117   2.735 -0.7311  1.1274 -0.0972
20007SOL    HW262029   4.893   8.261   2.708  1.2951  0.5954 -0.3007
20008SOL     OW62030   6.545   4.854   3.810  0.4415  0.2786  0.3188
20008SOL    HW162031   6.587   4.802   3.741 -0.1886 -1.2311  1.0144
20008SOL    HW262032   6.451   4.834   3.801  0.2112  1.1058  0.7765
20009SOL     OW62033   8.212   3.827   7.801  0.5476  0.0725  0.0530
20009SOL    HW162034   8.133   3.800   7.754  0.4854  0.4601 -0.0741
20009SOL    HW262035   8.204   3.787   7.887 -1.4375  2.6832  1.2463
20010SOL     OW62036   9.821   5.643   3.930 -0.1565 -0.6329  0.0449
20010SOL    HW162037   9.798   5.734   3.908  0.1667 -0.7866 -0.9706
20010SOL    HW262038   9.748   5.613   3.985 -0.6280  0.0058 -0.2139
20011SOL     OW62039   2.420   0.652   1.442  0.1454 -0.4706 -0.6642
20011SOL    HW162040   2.494   0.697   1.483 -1.4680  0.4345  1.4516
20011SOL    HW262041   2.437   0.657   1.348  0.9253  3.0037 -0.4460
20012SOL     OW62042   7.641   8.316   5.390  0.3428 -0.5183  0.0795
20012SOL    HW162043   7.697   8.267   5.451 -0.2630 -1.3925 -0.0486
20012SOL    HW262044   7.563   8.337   5.441 -0.0502 -1.0172 -0.3117
20013SOL     OW62045   1.261   4.383   1.052  0.5355  0.3840 -0.4504
20013SOL    HW162046   1.300   4.389   1.139  1.2294  1.2204 -0.8151
20013SOL    HW262047   1.327   4.417   0.993 -0.4764  1.1734 -1.1620
20014SOL     OW62048   0.368   7.290   7.317  0.4729 -0.3397  0.0962
20014SOL    HW162049   0.376   7.364   7.377  0.5404  0.0608 -0.4022
20014SOL    HW262050   0.322   7.223   7.368  0.5502 -0.0166  0.6014
20015SOL     OW62051   3.655   8.439   7.126  0.3019 -0.5148  0.2944
20015SOL    HW162052   3.649   8.509   7.061 -0.5240 -2.2593 -1.6431
20015SOL    HW262053   3.574   8.446   7.176 -0.1085 -0.4846 -0.3570
20016SOL     OW62054   1.714   7.024   5.776 -0.6148  1.0589  0.5980
20016SOL    HW162055   1.734   6.973   5.855  0.4918 -0.8460 -0.8177
20016SOL    HW262056   1.798   7.066   5.753  0.4630 -2.1489 -2.0475
20017SOL     OW62057  11.195   9.639   2.075 -0.3429 -0.5368 -0.0942
20017SOL    HW162058  11.258   9.660   2.145 -0.3868 -2.0697  0.4280
20017SOL    HW262059  11.150   9.722   2.059  2.9547  1.1346 -1.7400
20018SOL     OW62060   7.490   6.292   0.479 -0.6542 -0.9695  0.3913
20018SOL    HW162061   7.466   6.380   0.450 -0.2776 -0.9849  0.0286
20018SOL    HW262062   7.539   6.255   0.406 -0.7206 -1.4457  0.5834
20019SOL     OW62063  11.198   6.451   5.974  0.3717 -0.3347  0.3072
20019SOL    HW162064  11.147   6.529   5.954  0.3543 -0.1091  1.1867
20019SOL    HW262065  11.135   6.379   5.970  0.7555 -0.6577 -2.5678
20020SOL     OW62066   5.066   6.011   5.090 -0.1727 -0.5126  0.8477
20020SOL    HW162067   5.004   5.941   5.113  0.9897 -1.6507  0.6723
20020SOL    HW262068   5.012   6.080   5.053 -1.2928 -1.7075  0.1512
20021SOL     OW62069   4.614   8.943   4.548  0.1317  0.1598 -0.6380
20021SOL    HW162070   4.582   8.875   4.490 -1.4806  0.0568  0.3221
20021SOL    HW262071   4.560   9.020   4.528 -0.0871  0.2772  0.3334
20022SOL     OW62072  10.127   9.039   4.107 -0.0787  0.3889 -0.1361
20022SOL    HW162073  10.119   9.134   4.110  0.4154  0.4227  0.1606
20022SOL    HW262074  10.042   9.009   4.075 -0.6441  0.8571  0.8735
20023SOL     OW62075   6.526   1.845   1.383 -0.6568 -0.1243  0.2581
20023SOL    HW162076   6.432   1.851   1.362 -0.5184  0.4620 -0.2074
20023SOL    HW262077   6.567   1.914   1.331  0.1133 -0.7612  0.0012
20024SOL     OW62078   7.260   0.890   4.772  0.2914 -0.1880  0.6111
20024SOL    HW162079   7.332   0.868   4.712 -0.9166  0.7380 -1.2948
20024SOL    HW262080   7.271   0.831   4.846 -0.3716 -4.3727 -2.2434
20025SOL     OW62081   5.731   2.631   9.356  0.0058 -0.2871 -0.0258
20025SOL    HW162082   5.706   2.702   9.298 -0.0996 -1.3835 -1.3662
20025SOL    HW262083   5.652   2.577   9.364  0.6013 -1.2547 -0.5348
20026SOL     OW62084   7.924   5.167   6.208  0.1831 -0.2872  0.3519
20026SOL    HW162085   7.894   5.086   6.250 -2.0158  1.1287  1.6734
20026SOL    HW262086   7.919   5.148   6.114  1.7689 -2.3288  0.5986
20027SOL     OW62087   9.193   0.730   4.487 -0.6435  0.4207  0.6345
20027SOL    HW162088   9.282   0.741   4.520 -1.6088  1.9198  3.0459
20027SOL    HW262089   9.150   0.673   4.551 -1.3808 -0.4642 -0.6071
20028SOL     OW62090   3.847   4.404   1.108 -0.2587 -0.3441 -0.0958
20028SOL    HW162091   3.824   4.426   1.198  1.9174 -0.7445  0.6059
20028SOL    HW262092   3.806   4.473   1.055 -1.5353 -0.0920  1.1763
20029SOL     OW62093   6.286   0.307   1.129 -0.3081  0.4571  0.2604
20029SOL    HW162094   6.296   0.220   1.166 -0.5251 -0.0339 -0.8159
20029SOL    HW262095   6.191   0.319   1.121 -0.2620 -0.3397 -2.1478
20030SOL     OW62096   3.416   0.037   2.482 -1.2030 -0.2261  0.3152
20030SOL    HW162097   3.458   0.117   2.453  0.2823 -0.8879  0.5564
20030SOL    HW262098   3.326   0.063   2.502 -0.4204  1.6987  1.7238
20031SOL     OW62099   3.815   5.500   0.419 -0.0883  0.4259 -0.1026
20031SOL    HW162100   3.891   5.451   0.452  0.3432  1.8065  1.0428
20031SOL    HW262101   3.753   5.501   0.492 -0.2817  1.1754 -0.2710
20032SOL     OW62102   1.465   1.799   0.216  0.1722 -0.3800  0.0369
20032SOL    HW162103   1.497   1.723   0.168  0.7104 -0.2947  0.2523
20032SOL    HW262104   1.373   1.807   0.191  0.5688 -0.0357 -1.3506
20033SOL     OW62105   9.861   5.691   8.813  0.3746 -0.4328  0.9953
20033SOL    HW162106   9.811   5.729   8.886  0.8643  0.8371  0.7031
20033SOL    HW262107   9.952   5.708   8.836  0.5263  0.1516  0.0011
20034SOL     OW62108   0.911   0.677  10.726  0.3269  0.0173  0.2928
20034SOL    HW162109   0.931   0.651  10.816 -1.4727 -0.8430  0.5021
20034SOL    HW262110   0.986   0.647  10.674 -0.7655 -4.2553  0.7775
20035SOL     OW62111   6.774  10.634   3.542  0.1359  0.8436  0.3706
20035SOL    HW162112   6.745  10.586   3.620  0.7123  3.0141  2.0124
20035SOL    HW262113   6.834  10.574   3.498 -1.3450 -1.0099  0.7259
20036SOL     OW62114   7.249   7.641   4.789  0.1481 -0.1103  0.3578
20036SOL    HW162115   7.285   7.607   4.706  0.7482  0.5843  0.3259
20036SOL    HW262116   7.287   7.728   4.798 -0.3919  0.0619  1.0707
20037SOL     OW62117   8.406   8.058   2.885 -0.0376 -0.2518  0.0811
20037SOL    HW162118   8.392   8.127   2.950  0.0172 -1.0315  0.9343
20037SOL    HW262119   8.451   7.989   2.933 -0.2468 -0.9551 -0.7197
20038SOL     OW62120   8.836   5.663  11.147 -0.4215  0.1424 -0.0008
20038SOL    HW162121   8.779   5.616  11.208  0.2588 -1.5493 -0.5929
20038SOL    HW262122   8.925   5.643  11.178 -0.1072  0.6447 -0.5608
20039SOL     OW62123   4.484   5.236   6.527  0.3808 -0.5845 -0.6968
20039SOL    HW162124   4.523   5.202   6.608  0.4469 -0.3245 -0.6172
20039SOL    HW262125   4.438   5.315   6.554 -2.3830 -2.2106 -0.3331
20040SOL     OW62126   9.621   8.535   5.254  0.5418 -0.6982  0.4478
20040SOL    HW162127   9.571   8.605   5.211  2.7594  1.3848  1.0872
20040SOL    HW262128   9.603   8.547   5.347  0.8244 -1.0953  0.5550
20041SOL     OW62129   1.684   7.190  10.512  0.3550  0.4006 -0.2133
20041SOL    HW162130   1.633   7.253  10.564  0.4625  0.1043  0.2568
20041SOL    HW262131   1.636   7.184  10.429 -0.1437  0.4479  0.0642
20042SOL     OW62132   7.688   5.642   8.517  0.2090  0.3342  0.1066
20042SOL    HW162133   7.675   5.686   8.433  2.8209 -0.4562 -0.8221
20042SOL    HW262134   7.725   5.710   8.574  1.8000  0.0749 -0.5438
20043SOL     OW62135   3.753   4.488   8.172 -0.3116 -0.8239  0.1813
20043SOL    HW162136   3.657   4.492   8.172 -0.2841  2.3343  2.0617
20043SOL    HW262137   3.781   4.565   8.221  3.2564 -1.2395 -0.9278
20044SOL     OW62138   6.047   8.515   7.842 -0.3110 -0.7695  0.4803
20044SOL    HW162139   6.047   8.608   7.820 -3.0372 -0.7946  0.0768
20044SOL    HW262140   5.995   8.510   7.922  0.8045 -1.8703  1.1788
20045SOL     OW62141   7.704   8.478   5.054  0.2281  0.6199  0.4542
20045SOL    HW162142   7.631   8.537   5.038 -0.1380  0.1761  0.4667
20045SOL    HW262143   7.738   8.505   5.140 -0.7920 -0.0465  1.0935
20046SOL     OW62144   0.201   2.723   3.465  0.8749  0.4411  0.3605
20046SOL    HW162145   0.112   2.759   3.465 -0.2986 -2.2846  0.0802
20046SOL    HW262146   0.233   2.741   3.554 -0.6068  0.0085  1.0168
20047SOL     OW62147   2.090   0.839   9.495  0.0287 -0.0030 -0.1521
20047SOL    HW162148   1.994   0.829   9.494 -0.0226  0.5026 -0.3113
20047SOL    HW262149   2.107   0.913   9.436  0.6516 -1.2029 -1.5618
20048SOL     OW62150   9.704   4.551   9.323 -0.4171 -0.2195 -0.0702
20048SOL    HW162151   9.719   4.578   9.232 -1.2351 -1.3614 -0.5742
20048SOL    HW262152   9.689   4.632   9.370 -0.2044  0.3744 -0.9978
20049SOL     OW62153   7.387  10.038   2.837  0.2308  0.1451  0.9156
20049SOL    HW162154   7.455  10.085   2.886  0.3884 -0.4004  1.2195
20049SOL    HW262155   7.313  10.098   2.836  0.2508  0.1941  1.7580
20050SOL     OW62156   7.066  10.217   3.394  0.2831 -0.1235 -0.2892
20050SOL    HW162157   7.115  10.186   3.318 -3.0365  1.5465 -3.4654
20050SOL    HW262158   7.017  10.140   3.424  0.8029 -0.5623 -0.5578
20051SOL     OW62159   7.666   8.773   8.396  0.5317  0.1990  0.0155
20051SOL    HW162160   7.640   8.693   8.442  0.3671  0.8154  1.0149
20051SOL    HW262161   7.749   8.798   8.437  1.3832 -0.2862 -1.3373
20052SOL     OW62162  10.324  10.613   0.371 -0.1181 -0.1242  0.2743
20052SOL    HW162163  10.394  10.657   0.419 -0.1589  0.6070 -0.3124
20052SOL    HW262164  10.305  10.534   0.422  1.5764 -0.6860  0.0979
20053SOL     OW62165   4.907   9.166   4.305 -0.1436  0.0539  0.5002
20053SOL    HW162166   4.962   9.099   4.265  1.1788  0.9931  0.6578
20053SOL    HW262167   4.821   9.154   4.265  0.3591 -0.9695 -0.3317
20054SOL     OW62168   6.253   7.258   3.455 -0.2775  1.2049  0.0850
20054SOL    HW162169   6.285   7.178   3.496 -0.4451  1.5078  0.8084
20054SOL    HW262170   6.231   7.231   3.365  0.3414  0.6061  0.1063
20055SOL     OW62171   2.341   4.639   7.152  0.3446  0.1080  0.5957
20055SOL    HW162172   2.426   4.683   7.153  0.6767 -0.3938 -1.2336
20055SOL    HW262173   2.346   4.574   7.222  1.6890 -0.2859  0.1568
20056SOL     OW62174   8.693   2.546   9.867  0.3049  0.1213 -0.3322
20056SOL    HW162175   8.628   2.486   9.831 -0.4807  0.8514 -0.1709
20056SOL    HW262176   8.641   2.616   9.906  1.1446 -0.2133  1.4767
20057SOL     OW62177   5.390   0.968   6.416 -0.2107  0.4507 -0.3221
20057SOL    HW162178   5.378   0.873   6.424  1.0563  0.1661 -1.3544
20057SOL    HW262179   5.346   1.005   6.492 -1.7099 -0.8828 -0.5042
20058SOL     OW62180   9.128   1.164   8.914 -0.7335 -0.3445 -0.3464
20058SOL    HW162181   9.152   1.105   8.843 -0.9929  0.8572 -1.4701
20058SOL    HW262182   9.115   1.107   8.990 -0.3664 -1.6432 -1.2351
20059SOL     OW62183   8.737   3.993   3.946  0.4594 -0.3146  0.1446
20059SOL    HW162184   8.657   4.042   3.969 -0.4881 -0.4599 -2.4679
20059SOL    HW262185   8.787   4.054   3.892  2.3141 -0.1598  1.8909
20060SOL     OW62186   4.800   6.379   6.245 -0.4959 -0.3041 -0.0516
20060SOL    HW162187   4.765   6.465   6.272  3.8309  1.5055  0.5495
20060SOL    HW262188   4.810   6.331   6.327 -1.1750 -0.6784 -0.1832
20061SOL     OW62189   7.312   7.100   1.862 -0.4997 -0.5799  0.2015
20061SOL    HW162190   7.331   7.184   1.821  0.5994 -0.5369  0.7572
20061SOL    HW262191   7.376   7.093   1.933 -1.6134 -1.1713  1.1741
20062SOL     OW62192   6.474   9.096   1.511 -0.0514  0.6453 -0.4000
20062SOL    HW162193   6.546   9.159   1.505 -0.7615  1.5091 -0.0856
20062SOL    HW262194   6.517   9.011   1.517  0.9604  1.2031  0.5403
20063SOL     OW62195   2.995   4.431   3.398  0.0250  0.0324  0.1790
20063SOL    HW162196   2.949   4.403   3.318 -0.2872  3.5585 -1.0652
20063SOL    HW262197   2.949   4.387   3.469 -0.0296 -2.8308 -1.4756
20064SOL     OW62198   6.133  11.041   6.083  0.2634  0.2085 -0.3442
20064SOL    HW162199   6.112  11.095   6.008  0.4809  2.4336  1.1060
20064SOL    HW262200   6.194  11.094   6.135 -2.2606  0.2087  2.9544
20065SOL     OW62201   4.357   4.955   0.861  0.0655 -0.0843  0.2432
20065SOL    HW162202   4.335   4.981   0.950 -2.4958  1.6509 -0.7768
20065SOL    HW262203   4.428   5.014   0.835  1.2638 -1.0164  1.2840
20066SOL     OW62204   1.658   9.490   8.734  0.3245 -0.3511  0.2764
20066SOL    HW162205   1.680   9.403   8.701 -1.3000 -0.5721 -0.3116
20066SOL    HW262206   1.605   9.473   8.812  0.7493  0.1390  0.6811
20067SOL     OW62207   7.044   2.591  10.970  0.2396 -0.5262  0.4955
20067SOL    HW162208   6.965   2.617  10.922  0.9928  2.3321  0.6237
20067SOL    HW262209   7.066   2.505  10.934 -2.6386 -1.2356  0.1386
20068SOL     OW62210   7.286   5.894   0.275 -0.2299  0.1510  0.1638
20068SOL    HW162211   7.316   5.913   0.364 -1.2309 -0.7369  0.7123
20068SOL    HW262212   7.196   5.928   0.272 -0.4214 -0.3883 -0.3041
20069SOL     OW62213   9.728   9.889   8.888  0.4181  0.2684  0.5092
20069SOL    HW162214   9.798   9.953   8.895  0.3110  0.6549 -1.4790
20069SOL    HW262215   9.743   9.846   8.804 -1.7959  0.4695 -0.0507
20070SOL     OW62216   6.368   9.873   1.640 -0.1925  0.1760  0.2399
20070SOL    HW162217   6.281   9.898   1.610  0.8914  1.4899 -2.0872
20070SOL    HW262218   6.378   9.782   1.614 -0.7105  0.1468  0.1431
20071SOL     OW62219  10.772   6.641   8.025  0.1066 -0.4238 -0.4078
20071SOL    HW162220  10.699   6.660   8.084 -0.1814 -2.7720  0.0704
20071SOL    HW262221  10.802   6.728   7.997 -1.8707  0.6617  0.5606
20072SOL     OW62222   5.739   2.136  10.444 -0.8629 -0.3877  0.1241
20072SOL    HW162223   5.810   2.198  10.465 -2.3392  0.8435  1.7828
20072SOL    HW262224   5.726   2.086  10.524 -0.6165 -1.9564 -0.7806
20073SOL     OW62225   5.899   9.620   3.903 -0.3530  0.1453 -0.0828
20073SOL    HW162226   5.877   9.527   3.913  1.5832 -0.2725  0.7719
20073SOL    HW262227   5.878   9.660   3.987 -5.2736  1.5429 -1.6615
20074SOL     OW62228   0.084   3.173  10.982 -0.1085 -0.2541  0.1985
20074SOL    HW162229   0.170   3.162  10.941 -0.7271 -1.9921 -0.7531
20074SOL    HW262230   0.040   3.238  10.927  0.0294 -0.5707 -0.2990
20075SOL     OW62231  11.268   3.888   4.070  0.4473 -0.2214 -0.3153
20075SOL    HW162232  11.263   3.933   3.986  2.0791  0.4204 -0.1036
20075SOL    HW262233  11.327   3.815   4.055  0.9604  0.0546  0.3325
20076SOL     OW62234   8.575  11.022   0.277 -0.5426  0.1909  0.0240
20076SOL    HW162235   8.541  11.040   0.189  1.6421  0.1671 -0.8994
20076SOL    HW262236   8.669  11.009   0.264 -0.0594  0.7048  2.4591
20077SOL     OW62237   0.672   5.692   0.753  0.6062  0.3643  0.1413
20077SOL    HW162238   0.617   5.616   0.730 -2.9324  2.4495  0.9349
20077SOL    HW262239   0.662   5.752   0.679  0.7083  1.3298  0.8897
20078SOL     OW62240   8.696   7.550   6.427  0.2830 -0.1230  0.1912
20078SOL    HW162241   8.637   7.477   6.447  0.2539 -0.9182 -2.4706
20078SOL    HW262242   8.639   7.627   6.430 -0.3753 -0.5873  0.0103
20079SOL     OW62243   5.604   6.406   0.807  0.1319  0.1601 -0.2701
20079SOL    HW162244   5.632   6.459   0.732  0.8743  0.6959  0.3633
20079SOL    HW262245   5.670   6.424   0.874 -0.9675  0.3182  0.7955
20080SOL     OW62246   3.428   1.889   3.108  0.3074 -0.1511  0.3464
20080SOL    HW162247   3.445   1.903   3.015 -0.5904  0.9030  0.3209
20080SOL    HW262248   3.469   1.805   3.127 -0.5986 -1.0089 -1.2934
20081SOL     OW62249   5.430   5.349   0.048 -0.2351  0.1564 -0.0570
20081SOL    HW162250   5.379   5.424   0.079  0.2961  0.9696 -1.0803
20081SOL    HW262251   5.371   5.302  -0.011  0.1367  1.0597 -1.1888
20082SOL     OW62252  11.011   5.755  10.207  0.5833  0.3336  0.1750
20082SOL    HW162253  11.091   5.753  10.259  0.2019 -0.0046  0.7629
20082SOL    HW262254  10.941   5.747  10.271  0.0761  0.6427 -0.3319
20083SOL     OW62255   3.975   7.912   6.001 -0.7291  0.1623  0.3368
20083SOL    HW162256   4.024   7.919   5.919 -0.5998 -0.1258  0.3866
20083SOL    HW262257   4.042   7.902   6.068 -0.6069  3.6053  0.9278
20084SOL     OW62258   9.262   5.079   2.473  0.5491  0.2555  0.3698
20084SOL    HW162259   9.348   5.045   2.499 -0.0448 -0.7153  1.1551
20084SOL    HW262260   9.240   5.031   2.394  1.8949  2.4658 -1.4654
20085SOL     OW62261   9.986   4.849   7.494 -0.5552 -0.0976 -0.5837
20085SOL    HW162262  10.003   4.759   7.521  2.0170  0.4671 -0.1533
20085SOL    HW262263   9.964   4.895   7.575  2.4983  0.5596 -0.0310
20086SOL     OW62264   1.103   0.361   6.298  0.5845 -0.2591 -0.5449
20086SOL    HW162265   1.082   0.374   6.390 -0.7067  0.5632 -0.9261
20086SOL    HW262266   1.062   0.278   6.275  0.0720  0.0028 -0.5995
20087SOL     OW62267  10.911   4.060   0.653 -0.3128  0.6473 -0.5629
20087SOL    HW162268  11.002   4.047   0.629  0.0164  0.8877  0.4861
20087SOL    HW262269  10.866   3.981   0.622  0.7226 -0.6923  1.1558
20088SOL     OW62270  10.343  10.179   9.637 -0.1251  0.6893  0.3746
20088SOL    HW162271  10.310  10.137   9.557  0.7013  0.5282  0.1117
20088SOL    HW262272  10.307  10.268   9.633 -0.9940  0.3518  0.3905
20089SOL     OW62273   7.889  10.707   0.087  0.2240  0.8782 -0.2876
20089SOL    HW162274   7.833  10.746   0.154  1.0333 -1.2231  1.7478
20089SOL    HW262275   7.835  10.641   0.045  0.7011 -0.1609  0.6906
20090SOL     OW62276   4.172   1.978   0.575  0.8313  0.8637 -0.4311
20090SOL    HW162277   4.112   1.922   0.623  0.5399  0.4316 -1.2806
20090SOL    HW262278   4.218   2.028   0.642 -0.8673  1.6127  0.2345
20091SOL     OW62279   8.037   2.495   8.607  0.0582 -0.2369 -0.0182
20091SOL    HW162280   7.979   2.556   8.653  3.0008  0.4326  3.1728
20091SOL    HW262281   7.986   2.414   8.603 -1.9271  0.8944  0.5596
20092SOL     OW62282   1.081   9.487   3.751 -0.0023 -0.3874 -0.1564
20092SOL    HW162283   1.109   9.443   3.670  0.7759  0.8634 -0.5865
20092SOL    HW262284   1.007   9.434   3.782  1.6583 -2.7134  0.0347
20093SOL     OW62285   1.006   5.816   7.337  0.3800 -0.0284 -0.3693
20093SOL    HW162286   1.020   5.762   7.414  0.8318  0.3355 -0.1912
20093SOL    HW262287   0.951   5.762   7.280 -0.5761 -0.0111  0.5061
20094SOL     OW62288  10.148   7.087   2.214 -0.1486  0.5542 -0.5324
20094SOL    HW162289  10.061   7.112   2.183 -1.0439 -1.0612  0.5001
20094SOL    HW262290  10.173   7.013   2.158 -0.0211  0.1936 -0.0110
20095SOL     OW62291   8.149   2.915   9.489 -0.7888  0.1476  1.0267
20095SOL    HW162292   8.213   2.855   9.451  0.0053  0.4916  1.7795
20095SOL    HW262293   8.172   2.918   9.582 -0.8201  1.6031  1.0065
20096SOL     OW62294   8.936   4.554  10.374 -0.7805 -0.3567  0.5100
20096SOL    HW162295   9.008   4.530  10.316 -0.0582  0.5332  1.0034
20096SOL    HW262296   8.927   4.480  10.434 -1.3649 -1.1692 -0.5449
20097SOL     OW62297   5.316   5.294   3.416  0.3626  0.3996 -0.1343
20097SOL    HW162298   5.308   5.294   3.320  0.3405 -0.1342 -0.1344
20097SOL    HW262299   5.244   5.238   3.445 -0.0534  1.1097  0.2348
20098SOL     OW62300   7.033   3.863   0.351 -0.2821 -0.6698 -0.3420
20098SOL    HW162301   7.095   3.922   0.393  0.2500 -1.2866 -0.2395
20098SOL    HW262302   7.056   3.865   0.258 -0.2985 -0.6724 -0.3462
20099SOL     OW62303  10.985   5.061   3.290 -0.0925 -0.0692  0.4962
20099SOL    HW162304  10.954   5.121   3.223  0.4576  1.2187  1.3458
20099SOL    HW262305  10.976   4.975   3.251  3.3482  0.7504 -2.5706
20100SOL     OW62306   1.161   8.870   9.026 -0.1832  0.0793 -0.0867
20100SOL    HW162307   1.107   8.940   8.990  0.6257  1.5317  1.4158
20100SOL    HW262308   1.196   8.905   9.107  0.1320 -2.1445  0.8214
20101SOL     OW62309  10.616   5.790   4.125 -0.2746  0.6558 -0.4141
20101SOL    HW162310  10.546   5.777   4.189  0.3114  2.0676  0.5731
20101SOL    HW262311  10.582   5.857   4.066  0.7884  2.5485  1.0243
20102SOL     OW62312   0.747   2.368   7.341 -0.0794  0.2327  0.0380
20102SOL    HW162313   0.758   2.383   7.435 -1.2649  0.7761  0.1119
20102SOL    HW262314   0.794   2.440   7.299 -1.8004  1.5792  0.2979
20103SOL     OW62315   5.706   3.951   7.543 -0.0789  0.2311 -0.2011
20103SOL    HW162316   5.692   4.045   7.529 -1.4583  0.4585  2.2496
20103SOL    HW262317   5.802   3.941   7.541  0.0633  1.4763 -1.4627
20104SOL     OW62318  10.065   9.577   1.812 -0.2398  1.0398  0.1150
20104SOL    HW162319  10.014   9.497   1.824  1.9431 -0.2657  1.3943
20104SOL    HW262320  10.073   9.613   1.900 -0.3512  2.1300 -0.3116
20105SOL     OW62321   8.647   9.598   9.318  0.3950  0.1134 -0.6913
20105SOL    HW162322   8.678   9.508   9.317 -0.4826 -0.3501  2.7489
20105SOL    HW262323   8.552   9.591   9.307  0.4535  0.7672 -1.7657
20106SOL     OW62324   6.566   1.763  10.344  0.1787  0.3838 -0.1594
20106SOL    HW162325   6.523   1.729  10.422  1.1649  0.2674  0.3560
20106SOL    HW262326   6.525   1.848  10.329  0.0234  0.4414  0.5337
20107SOL     OW62327   0.637   3.699   5.343  0.1000  0.7374  0.1964
20107SOL    HW162328   0.688   3.772   5.380 -0.3990  1.3739 -0.3518
20107SOL    HW262329   0.549   3.734   5.333 -0.7503 -0.6778  2.1201
20108SOL     OW62330   4.564   7.858   0.095 -0.1301  0.2496  0.9826
20108SOL    HW162331   4.594   7.917   0.025 -0.1650 -1.4345 -0.5162
20108SOL    HW262332   4.487   7.902   0.131  1.1663  2.2262  1.5226
20109SOL     OW62333   0.461   0.462  10.569  0.1057  0.1707  0.5243
20109SOL    HW162334   0.515   0.532  10.605  0.0366 -1.3441  3.9104
20109SOL    HW262335   0.373   0.480  10.602 -0.3565 -0.3989 -0.3297
20110SOL     OW62336   6.389   3.652   9.504 -0.2600  0.1903  0.4239
20110SOL    HW162337   6.393   3.569   9.551 -1.4610  0.4337  0.9982
20110SOL    HW262338   6.433   3.715   9.561 -0.4338  0.1894  0.5606
20111SOL     OW62339  11.061   2.787   1.939  0.4513  0.0322 -0.1656
20111SOL    HW162340  11.008   2.723   1.987 -0.7787  1.3569  0.3351
20111SOL    HW262341  11.149   2.777   1.974  0.2060 -1.1157  0.1638
20112SOL     OW62342   7.914   8.023   6.404  0.3749  0.0651 -0.2514
20112SOL    HW162343   7.981   8.066   6.350  0.8659 -1.9482 -1.3695
20112SOL    HW262344   7.964   7.978   6.472  0.1810 -1.1765 -0.8998
20113SOL     OW62345   7.451   7.066   6.003 -0.2981 -0.6286  0.4047
20113SOL    HW162346   7.460   6.996   6.069  0.4718  0.2218  1.2369
20113SOL    HW262347   7.365   7.104   6.021 -0.2046 -0.5751  0.7625
20114SOL     OW62348   4.009   0.189   8.578 -0.3041 -0.3840  0.2883
20114SOL    HW162349   4.050   0.252   8.519 -1.9642 -0.2830 -0.8347
20114SOL    HW262350   3.923   0.226   8.598 -1.0324 -1.9250  0.2055
20115SOL     OW62351   8.516   6.146  10.351 -0.2234  0.2372 -0.0011
20115SOL    HW162352   8.482   6.185  10.270  0.5011  0.3097 -0.2747
20115SOL    HW262353   8.456   6.074  10.371 -0.6290  0.4679 -0.3865
20116SOL     OW62354   1.766  10.074   9.881  0.1945 -0.3411  0.2183
20116SOL    HW162355   1.763   9.979   9.865 -2.2980 -0.6005  1.6081
20116SOL    HW262356   1.703  10.110   9.819  2.4465  0.7264 -1.5813
20117SOL     OW62357   9.356   2.766   1.185 -0.2139  0.5509  0.1529
20117SOL    HW162358   9.397   2.681   1.173  0.3300  0.7117  0.8287
20117SOL    HW262359   9.423   2.830   1.160 -1.0715  0.7934 -1.7376
20118SOL     OW62360   6.493   6.820   2.505 -0.7255  0.0384  0.0541
20118SOL    HW162361   6.464   6.822   2.596 -1.6313 -0.2455 -0.2245
20118SOL    HW262362   6.589   6.819   2.511 -0.6761  2.4715  0.9637
20119SOL     OW62363   4.396   1.497   2.611  0.0879 -0.3073 -0.1935
20119SOL    HW162364   4.476   1.545   2.630 -1.0902  2.0714 -0.8659
20119SOL    HW262365   4.370   1.458   2.694  0.6484  0.9554  0.5942
20120SOL     OW62366   8.989   4.063   8.369 -0.4128  0.1237 -0.2354
20120SOL    HW162367   8.907   4.113   8.358  1.5374  3.8084  0.4161
20120SOL    HW262368   9.029   4.100   8.448  1.7843 -1.8228 -0.3362
20121SOL     OW62369   2.107   6.019   1.931  0.0110  0.3408  0.7718
20121SOL    HW162370   2.183   6.076   1.949 -1.0375  2.3635 -0.7806
20121SOL    HW262371   2.132   5.970   1.853  1.6081 -2.8329  3.0698
20122SOL     OW62372   9.590   0.223   1.095  0.0309  0.4651  0.5445
20122SOL    HW162373   9.496   0.215   1.081  0.0685 -1.3299  1.0399
20122SOL    HW262374   9.628   0.147   1.051  1.2213  0.9963  0.5985
20123SOL     OW62375   7.725   5.744   1.007 -0.5848 -0.5017  0.2621
20123SOL    HW162376   7.768   5.794   1.077 -1.1038  2.5716 -1.4233
20123SOL    HW262377   7.749   5.791   0.927  1.2514 -4.7207 -1.9723
20124SOL     OW62378   5.893   8.617   1.797 -0.6708  0.2488  0.0318
20124SOL    HW162379   5.927   8.705   1.783  0.7545 -0.3457 -0.4258
20124SOL    HW262380   5.922   8.593   1.885 -1.2911  0.3364  0.2628
20125SOL     OW62381   3.306   2.984   6.920  0.1619 -0.8174 -0.0584
20125SOL    HW162382   3.250   3.061   6.910  0.7275 -0.2433  0.9957
20125SOL    HW262383   3.394   3.020   6.934  0.7114 -1.6896 -1.0553
20126SOL     OW62384  10.567   1.398   7.517  0.6607 -0.2690 -0.1857
20126SOL    HW162385  10.534   1.319   7.475 -1.8810  0.9049 -0.6100
20126SOL    HW262386  10.492   1.433   7.565  1.3498  2.3910 -0.8590
20127SOL     OW62387   3.711   3.851   1.153 -0.5143  0.4288  0.2247
20127SOL    HW162388   3.748   3.936   1.176  2.2139 -0.1759 -1.5536
20127SOL    HW262389   3.680   3.860   1.063  0.3336 -0.5640 -0.1965
20128SOL     OW62390   4.987   2.929   7.116  0.1085  0.5397 -0.0799
20128SOL    HW162391   4.993   2.908   7.210 -0.1247  0.1624 -0.1476
20128SOL    HW262392   4.952   3.018   7.114  0.7426  0.8041  0.2040
20129SOL     OW62393  10.392   8.340   9.104  0.0473 -0.6315  0.7873
20129SOL    HW162394  10.311   8.377   9.139 -1.1411 -1.5209 -0.8938
20129SOL    HW262395  10.449   8.416   9.090 -1.1272  0.2082  0.4017
20130SOL     OW62396   2.547   6.006   9.676 -0.7598 -0.5057 -0.1077
20130SOL    HW162397   2.627   6.004   9.728  0.0994 -1.4135 -1.3915
20130SOL    HW262398   2.498   5.929   9.703 -1.5874  0.4376  1.1983
20131SOL     OW62399   9.281  10.212   0.535  0.1331  0.3027 -0.5969
20131SOL    HW162400   9.295  10.242   0.446  2.4653 -0.3370 -0.4912
20131SOL    HW262401   9.201  10.258   0.563 -0.1675  1.1612 -2.6917
20132SOL     OW62402  10.164   9.259   9.903  0.6611  0.2500 -0.6366
20132SOL    HW162403  10.093   9.290   9.846  0.8337  1.5785 -0.1709
20132SOL    HW262404  10.124   9.189   9.955 -0.1189  0.5011 -0.8848
20133SOL     OW62405   2.826   4.405   9.283 -0.9708  0.2291 -0.3515
20133SOL    HW162406   2.792   4.316   9.269 -2.2917  0.8266 -1.1365
20133SOL    HW262407   2.858   4.433   9.198  0.5254  0.1085  0.1408
20134SOL     OW62408   4.728   6.948   4.669  0.1125  0.7691  0.6242
20134SOL    HW162409   4.693   7.028   4.629  0.1270  0.1799 -0.6390
20134SOL    HW262410   4.793   6.917   4.605  0.0859 -0.2648  1.0919
20135SOL     OW62411   0.217   3.746   5.983  0.2264 -0.1406 -0.1749
20135SOL    HW162412   0.287   3.811   5.982 -0.7952  1.1083  1.7501
20135SOL    HW262413   0.212   3.718   6.075 -0.7230 -1.4398 -0.5846
20136SOL     OW62414   5.088   0.065   5.425 -0.8293  0.2119  0.3764
20136SOL    HW162415   5.054   0.090   5.511 -0.6370  2.5813 -0.1488
20136SOL    HW262416   5.020   0.093   5.364 -0.3693 -0.1853 -0.3311
20137SOL     OW62417   6.440   6.661   4.240 -0.4439  0.1680  0.5590
20137SOL    HW162418   6.445   6.706   4.324  1.6905  1.2777 -0.0892
20137SOL    HW262419   6.505   6.590   4.246  3.4940  3.1502 -1.6086
20138SOL     OW62420   9.021   4.441   9.546  0.0366  0.6282  0.4593
20138SOL    HW162421   9.007   4.371   9.610 -0.5997 -0.1531 -0.5092
20138SOL    HW262422   9.099   4.414   9.498 -0.9574 -0.1573 -0.8104
20139SOL     OW62423   0.434   3.334   8.116  0.8775 -0.0662 -0.2068
20139SOL    HW162424   0.525   3.331   8.089  0.3481  0.9700 -2.3090
20139SOL    HW262425   0.425   3.419   8.159  0.9765 -0.3507  0.3915
20140SOL     OW62426   3.603   1.305   4.584  0.7706  0.2959 -0.0134
20140SOL    HW162427   3.625   1.370   4.651  2.6861  1.4111 -1.6201
20140SOL    HW262428   3.647   1.336   4.505 -2.1489 -0.4319 -2.1029
20141SOL     OW62429   5.174   1.159   2.061 -0.6660 -0.3935 -0.3362
20141SOL    HW162430   5.250   1.126   2.012 -0.4629 -0.2329 -0.1289
20141SOL    HW262431   5.112   1.184   1.992 -0.6836 -0.8728 -0.5019
20142SOL     OW62432   2.665   9.000   0.993 -0.3806  0.1975 -0.3641
20142SOL    HW162433   2.604   8.938   0.954 -0.0470 -0.0832 -0.4515
20142SOL    HW262434   2.727   9.020   0.922 -0.1972  0.2463 -0.1913
20143SOL     OW62435   2.085   9.999   7.956 -0.5206 -0.0574  0.1308
20143SOL    HW162436   2.039   9.943   8.018 -1.3520 -0.3188 -0.6847
20143SOL    HW262437   2.164   9.951   7.933 -1.6025 -1.3284 -1.1600
20144SOL     OW62438   8.595   1.057   1.803  0.4470 -0.0579 -0.1913
20144SOL    HW162439   8.651   0.980   1.804  0.2707 -0.1785  0.4864
20144SOL    HW262440   8.515   1.028   1.758 -1.4233 -1.5769  3.6612
20145SOL     OW62441   1.681   4.205   3.169 -0.1950  1.0357 -0.2800
20145SOL    HW162442   1.758   4.241   3.213  0.4144  1.8813 -1.9650
20145SOL    HW262443   1.641   4.280   3.125 -3.5735  1.2151  2.6278
20146SOL     OW62444   1.658   6.570   2.978 -0.0111  0.0099 -0.1945
20146SOL    HW162445   1.656   6.475   2.965  2.1300 -0.0347 -0.6565
20146SOL    HW262446   1.585   6.603   2.926 -0.9707 -1.3894  0.2072
20147SOL     OW62447   8.583  10.697   2.028 -0.0870  0.7523 -0.3775
20147SOL    HW162448   8.654  10.738   2.078  1.6065 -2.1347 -0.1917
20147SOL    HW262449   8.616  10.694   1.938 -0.1849 -0.1443 -0.3890
20148SOL     OW62450   0.623   7.870   5.969  0.2892 -0.2867  0.1707
20148SOL    HW162451   0.718   7.874   5.956  0.0895  0.3914 -1.2553
20148SOL    HW262452   0.611   7.892   6.062  1.3671  2.1412 -0.1976
20149SOL     OW62453   4.421   8.676   5.215  0.5530  0.0252 -0.2302
20149SOL    HW162454   4.514   8.656   5.223  0.7291 -0.2503 -2.2754
20149SOL    HW262455   4.417   8.746   5.149 -0.6755  0.0466 -0.1589
20150SOL     OW62456   8.989   8.183   6.794 -0.2680  0.5780  0.0510
20150SOL    HW162457   9.019   8.106   6.744 -3.0072  0.2059 -1.2112
20150SOL    HW262458   8.933   8.146   6.862 -2.4880  1.4185 -1.2282
20151SOL     OW62459   7.092   0.267  10.029 -0.1761  0.3910  0.2800
20151SOL    HW162460   7.017   0.263  10.088 -1.0199 -1.4788 -0.8347
20151SOL    HW262461   7.100   0.360  10.006 -2.7903  0.5264 -0.3553
20152SOL     OW62462   0.243   6.033   0.558  0.1899 -0.0535 -0.2617
20152SOL    HW162463   0.149   6.040   0.574  0.3056  3.6767 -0.3009
20152SOL    HW262464   0.251   6.028   0.463  0.0054  1.2249 -0.3654
20153SOL     OW62465   7.759   8.524   0.760 -0.0179  0.4141  0.1086
20153SOL    HW162466   7.718   8.508   0.675 -0.3660  1.1784  0.1185
20153SOL    HW262467   7.816   8.449   0.774 -1.3173 -0.6255  0.0244
20154SOL     OW62468   1.239   2.513   7.495  0.4227  0.2522  0.1818
20154SOL    HW162469   1.194   2.538   7.414 -0.3018  1.9442  1.0388
20154SOL    HW262470   1.331   2.507   7.471 -0.0019 -1.5383 -1.2335
20155SOL     OW62471   8.410   8.322   9.918 -0.4824  0.2575 -0.0135
20155SOL    HW162472   8.352   8.270   9.863 -0.9021  0.1587  0.5121
20155SOL    HW262473   8.485   8.264   9.935 -1.9208 -1.0675  2.3620
20156SOL     OW62474  10.908  10.576   8.628 -0.1651  0.3820  0.0973
20156SOL    HW162475  11.002  10.566   8.616 -0.1287  1.4039 -0.5605
20156SOL    HW262476  10.899  10.638   8.700 -0.3238  0.6874 -0.1826
20157SOL     OW62477  11.094   7.153   8.146  0.3217  0.2637 -0.4528
20157SOL    HW162478  11.038   7.227   8.170 -2.3949 -1.9114  0.4354
20157SOL    HW262479  11.056   7.120   8.064 -1.9381 -3.0872  1.6742
20158SOL     OW62480   1.842   7.592   3.556 -0.5196 -0.0300 -0.2996
20158SOL    HW162481   1.773   7.631   3.610  1.5845 -0.8593  3.3959
20158SOL    HW262482   1.827   7.498   3.563  1.8150 -0.3778  2.2485
20159SOL     OW62483  10.598  10.475   8.757 -0.5410 -0.2342  0.6399
20159SOL    HW162484  10.626  10.525   8.681  0.5920 -0.5668  0.8258
20159SOL    HW262485  10.673  10.419   8.779 -0.9818 -0.4215  1.7693
20160SOL     OW62486   5.564   8.059   9.768  0.0296 -0.1842  0.2882
20160SOL    HW162487   5.541   7.994   9.836  1.2831 -0.1122  0.8175
20160SOL    HW262488   5.495   8.050   9.703 -0.2676 -1.5031  0.7331
20161SOL     OW62489   5.117   2.800   3.406  0.3729  0.3017 -0.4987
20161SOL    HW162490   5.028   2.793   3.440  0.4307  0.8787 -0.2257
20161SOL    HW262491   5.167   2.841   3.476  0.9357 -0.3247 -0.5199
20162SOL     OW62492   2.733   8.509  10.956  0.6653  0.0122 -0.4910
20162SOL    HW162493   2.814   8.531  10.909  1.0419 -0.8589 -0.2793
20162SOL    HW262494   2.673   8.478  10.888  1.4877 -2.0365 -0.3629
20163SOL     OW62495   3.223  10.833   5.479  0.0698  0.1036  0.5513
20163SOL    HW162496   3.268  10.753   5.509 -1.7888 -0.6492  1.4789
20163SOL    HW262497   3.235  10.895   5.550 -0.7929 -0.2824  1.0448
20164SOL     OW62498   3.278  10.743   7.175 -0.2731  0.6270  0.3426
20164SOL    HW162499   3.243  10.711   7.092 -0.6089  1.7660  0.0395
20164SOL    HW262500   3.204  10.739   7.235 -0.0962  0.0488  0.5279
20165SOL     OW62501  10.158   1.809  10.233 -0.1280  0.5828 -0.0208
20165SOL    HW162502  10.192   1.792  10.145  0.0064 -0.7387  0.2679
20165SOL    HW262503  10.128   1.724  10.264 -0.6121  1.1214  1.0367
20166SOL     OW62504   6.987   8.214  10.740 -0.2861 -0.1545  0.6030
20166SOL    HW162505   7.052   8.265  10.788 -1.4254  1.1923  0.7868
20166SOL    HW262506   6.979   8.259  10.656 -2.2019  0.7663  1.2238
20167SOL     OW62507   3.728   1.588   8.953 -0.2259  0.2602  0.9089
20167SOL    HW162508   3.730   1.573   9.048  4.5795  1.2930  1.2607
20167SOL    HW262509   3.724   1.500   8.915 -3.6471 -0.1410  1.8529
20168SOL     OW62510   4.501   7.041   3.955  0.8902  0.5177 -0.1613
20168SOL    HW162511   4.578   7.083   3.916  1.0729  1.5859  1.2431
20168SOL    HW262512   4.462   7.110   4.010 -0.9366 -0.0759 -0.6502
20169SOL     OW62513   9.938   9.023   6.556  0.0847 -0.7083  0.2835
20169SOL    HW162514   9.868   8.988   6.611  0.6783 -0.8380  0.9656
20169SOL    HW262515  10.003   9.057   6.617  0.3762 -0.0937 -0.3496
20170SOL     OW62516   3.803   8.856   2.002  0.1041  0.2611 -0.1147
20170SOL    HW162517   3.885   8.811   2.023 -1.2241 -1.6131  1.3518
20170SOL    HW262518   3.768   8.808   1.927 -1.5790 -1.6884  1.7820
20171SOL     OW62519   2.623   1.279   6.749 -0.1977  0.2173  0.2269
20171SOL    HW162520   2.668   1.276   6.664 -3.5090 -2.9848 -1.6905
20171SOL    HW262521   2.687   1.243   6.811  1.6973  0.9425 -1.1978
20172SOL     OW62522   2.485   9.042   1.370  0.0500 -0.0749  0.1727
20172SOL    HW162523   2.542   9.044   1.447 -0.4653 -0.3081  0.5744
20172SOL    HW262524   2.413   8.983   1.396  1.1761 -2.3056 -1.4184
20173SOL     OW62525   2.303   4.460   4.575  0.3189  0.0474 -0.1230
20173SOL    HW162526   2.316   4.500   4.489 -0.9938 -1.4339 -1.0638
20173SOL    HW262527   2.309   4.366   4.559  2.2851 -0.2442  1.8370
20174SOL     OW62528   8.125   5.798   6.734  0.1589 -0.0698  0.0922
20174SOL    HW162529   8.054   5.860   6.714  0.0522 -0.5227 -1.0261
20174SOL    HW262530   8.202   5.854   6.746 -0.5049  0.4846  2.0588
20175SOL     OW62531   4.667   1.342  10.491 -0.4619 -0.4108 -0.5837
20175SOL    HW162532   4.621   1.404  10.435 -3.6414 -0.9958  1.1236
20175SOL    HW262533   4.639   1.256  10.458  0.5800 -0.8354 -0.3777
20176SOL     OW62534   4.363   7.247  10.431 -0.3423 -0.3853  0.8384
20176SOL    HW162535   4.283   7.238  10.483 -0.6540 -2.2266  0.0968
20176SOL    HW262536   4.417   7.172  10.457 -0.5109 -1.3716 -1.4464
20177SOL     OW62537   3.375   9.183   7.443  0.5719 -0.1437 -0.0416
20177SOL    HW162538   3.449   9.133   7.478  1.5852  0.7808 -0.8165
20177SOL    HW262539   3.415   9.250   7.389 -0.6876  2.0513  1.5869
20178SOL     OW62540  10.386   7.289   3.034  0.0789  0.3311  0.4426
20178SOL    HW162541  10.400   7.196   3.014 -0.3336  0.7198 -2.0773
20178SOL    HW262542  10.454   7.310   3.098  0.0485 -1.7429  1.2303
20179SOL     OW62543   1.139   3.224   0.928  0.8816 -0.1048  0.8583
20179SOL    HW162544   1.058   3.274   0.918  0.1890 -0.9803  1.7825
20179SOL    HW262545   1.110   3.133   0.932  1.8040 -0.3784  2.0971
20180SOL     OW62546   6.775  11.217  11.034 -0.0588 -0.6779  0.3214
20180SOL    HW162547   6.683  11.214  11.058 -0.3007 -0.0424 -0.4962
20180SOL    HW262548   6.800  11.309  11.043  1.3184 -1.2239  3.4285
20181SOL     OW62549  10.741   4.117   4.609  0.6424 -0.3525  0.4308
20181SOL    HW162550  10.816   4.162   4.648  1.2980 -0.7291 -0.3541
20181SOL    HW262551  10.683   4.097   4.682  2.4216 -2.1813  1.4039
20182SOL     OW62552   5.109  10.621   8.279  0.4558 -0.9697  0.0291
20182SOL    HW162553   5.120  10.569   8.358 -1.3526 -1.8819 -0.2662
20182SOL    HW262554   5.044  10.573   8.227 -1.6706  1.7615 -0.0666
20183SOL     OW62555   6.938   7.300   6.192 -0.1115  0.2494 -0.0244
20183SOL    HW162556   6.940   7.334   6.281 -1.2835  1.0155 -0.2748
20183SOL    HW262557   7.024   7.323   6.156 -0.0047  0.8135  0.5782
20184SOL     OW62558   4.202   9.084  10.830 -0.4783 -0.0396  0.4803
20184SOL    HW162559   4.119   9.129  10.841 -0.1323  2.3501 -4.1965
20184SOL    HW262560   4.177   8.997  10.797 -1.0247 -0.9318  3.0113
20185SOL     OW62561   4.595  11.111   7.031 -0.2015 -0.0823  0.0534
20185SOL    HW162562   4.602  11.036   7.090 -2.2499  1.0981  1.9477
20185SOL    HW262563   4.662  11.172   7.061 -0.4558  0.0286  0.3966
20186SOL     OW62564   8.907   4.355   8.160  0.0486  0.0211  0.2778
20186SOL    HW162565   8.852   4.430   8.137 -0.5518 -0.1439  1.1267
20186SOL    HW262566   8.854   4.278   8.137  0.4373 -0.1460 -0.0726
20187SOL     OW62567   7.682   6.747   1.846  0.5786  0.0137 -0.0102
20187SOL    HW162568   7.673   6.736   1.751  1.9964  0.2237 -0.1927
20187SOL    HW262569   7.758   6.805   1.857  2.0108 -1.9569  1.2843
20188SOL     OW62570   6.973   2.005   0.941  0.2136 -0.3832  0.7609
20188SOL    HW162571   7.053   1.978   0.896 -0.6552  0.2497 -1.2865
20188SOL    HW262572   6.921   1.925   0.949  0.7334 -0.6561  1.4027
20189SOL     OW62573   3.617   6.089   6.901 -0.1618 -0.1527 -0.3146
20189SOL    HW162574   3.568   6.162   6.940  0.2934 -0.9034  1.7810
20189SOL    HW262575   3.662   6.048   6.975  0.9522 -1.5380 -1.6994
20190SOL     OW62576   3.413   6.545   5.541  0.1176 -0.4217 -0.1584
20190SOL    HW162577   3.420   6.611   5.472  1.8284 -1.0841 -0.6587
20190SOL    HW262578   3.323   6.553   5.572  0.0651  1.6409 -0.6946
20191SOL     OW62579   2.954   8.981   1.576  0.0039  0.5620  0.0057
20191SOL    HW162580   2.994   8.965   1.491 -0.0573  0.4531 -0.0030
20191SOL    HW262581   2.992   8.914   1.634 -0.9219 -0.1929 -0.2416
20192SOL     OW62582   1.540   8.078   6.815  0.2587 -0.0814  0.0668
20192SOL    HW162583   1.529   8.164   6.774 -0.6837 -0.5618 -0.7385
20192SOL    HW262584   1.573   8.097   6.903  2.5129  0.9902 -0.9250
20193SOL     OW62585   2.609   9.482   5.905  0.1659  0.3134  0.4739
20193SOL    HW162586   2.524   9.455   5.938 -0.9381  2.8961  0.0144
20193SOL    HW262587   2.590   9.520   5.819  1.9613 -0.1004 -0.1474
20194SOL     OW62588   0.845   3.956  11.258 -0.1259  0.1585 -0.1425
20194SOL    HW162589   0.768   3.906  11.284  0.3473 -0.7225 -0.4052
20194SOL    HW262590   0.897   3.896  11.205  1.1411  0.4796  0.6804
20195SOL     OW62591   3.573   4.945   0.059 -0.1543 -0.6309 -0.7889
20195SOL    HW162592   3.612   4.939   0.146 -1.9857 -0.2679  0.0864
20195SOL    HW262593   3.604   4.867   0.013  1.1587 -0.6222  0.0227
20196SOL     OW62594  10.047   4.552   6.760  0.3482 -0.1672  0.2520
20196SOL    HW162595  10.091   4.538   6.843 -0.2938 -0.0113  0.6249
20196SOL    HW262596  10.091   4.492   6.699  0.2359 -0.9350  0.9067
20197SOL     OW62597   9.187  10.181   9.414  0.4500  0.4724 -0.5087
20197SOL    HW162598   9.193  10.218   9.502  1.4043 -0.9114  0.0464
20197SOL    HW262599   9.277  10.174   9.385  0.1640  0.5107 -1.4361
20198SOL     OW62600   4.163   8.915   4.639 -0.6935  0.4363  0.1526
20198SOL    HW162601   4.100   8.876   4.578  0.7314 -1.0896 -0.4604
20198SOL    HW262602   4.119   8.992   4.674 -2.5436 -0.0849 -0.8766
20199SOL     OW62603  11.249  10.149   5.522  0.8380 -0.1305  0.2894
20199SOL    HW162604  11.342  10.171   5.517  0.3171  2.2323 -3.4200
20199SOL    HW262605  11.218  10.156   5.431 -3.1658  0.3100  1.4802
20200SOL     OW62606   9.206   6.483   6.510  0.0748 -0.4657 -0.0613
20200SOL    HW162607   9.213   6.531   6.427 -0.5198 -1.9020 -0.9763
20200SOL    HW262608   9.193   6.392   6.484  0.0219 -0.9718  1.6268
20201SOL     OW62609   0.794   6.969   1.242 -0.3993  0.2538  0.1916
20201SOL    HW162610   0.785   6.973   1.337 -2.6376 -0.3286  0.0608
20201SOL    HW262611   0.754   7.050   1.210  0.1310  0.3376 -0.2866
20202SOL     OW62612   3.587   8.093   2.036  0.0911  0.5289 -0.2868
20202SOL    HW162613   3.654   8.074   1.970 -0.8297  1.2028 -1.4378
20202SOL    HW262614   3.562   8.007   2.070  0.9798  0.2133 -0.3841
20203SOL     OW62615   5.869   8.532   7.481 -0.3930  0.1229 -0.4629
20203SOL    HW162616   5.940   8.550   7.543 -1.9708 -0.4806  1.6219
20203SOL    HW262617   5.912   8.533   7.395  1.7024  2.0487  0.4878
20204SOL     OW62618   5.894   6.594   7.227  0.1794  0.6940 -0.2117
20204SOL    HW162619   5.833   6.642   7.171 -0.6486  0.0371  0.0977
20204SOL    HW262620   5.969   6.652   7.236 -1.7565  3.0938  2.1464
20205SOL     OW62621   9.630   2.702   3.934  0.3765 -0.0929  0.0458
20205SOL    HW162622   9.569   2.640   3.974 -0.5939  0.5438 -0.4088
20205SOL    HW262623   9.649   2.664   3.848 -0.8071  0.5814 -0.5374
20206SOL     OW62624   1.846   5.996   0.518  0.1313 -0.0073 -0.4896
20206SOL    HW162625   1.793   5.954   0.451 -0.7705  1.9920 -1.1092
20206SOL    HW262626   1.934   6.001   0.480 -0.6281  2.2074 -2.1267
20207SOL     OW62627   5.343   6.844  11.189 -0.1675  0.1042  0.5490
20207SOL    HW162628   5.368   6.904  11.119 -2.1471 -0.0967 -0.4196
20207SOL    HW262629   5.261   6.879  11.223 -0.5043 -1.1452  1.0963
20208SOL     OW62630   0.658   4.023   3.062 -0.3457 -0.2581  0.0963
20208SOL    HW162631   0.732   4.082   3.077  0.9564 -1.5879 -0.7740
20208SOL    HW262632   0.604   4.068   2.997  0.8197 -0.1438 -0.8307
20209SOL     OW62633   0.112   2.811   1.574  0.3419 -0.4232  0.0764
20209SOL    HW162634   0.144   2.844   1.490 -0.2478 -1.3093 -0.5122
20209SOL    HW262635   0.112   2.888   1.631 -0.0103  0.3707 -0.9532
20210SOL     OW62636   0.097  11.142   7.470  0.2518  0.6822  0.6230
20210SOL    HW162637   0.154  11.216   7.491  0.5480  0.3264  1.0950
20210SOL    HW262638   0.018  11.155   7.522  0.0783  0.9459  0.2971
20211SOL     OW62639   5.128   7.694   3.225 -0.6788  0.3555  0.4187
20211SOL    HW162640   5.119   7.782   3.189 -3.2792  0.0333  0.1053
20211SOL    HW262641   5.186   7.649   3.164 -2.2150  0.8265 -1.4769
20212SOL     OW62642   5.862  10.906   4.694 -0.3488 -0.5456  0.5365
20212SOL    HW162643   5.892  10.818   4.672 -0.8250 -0.6005  0.0999
20212SOL    HW262644   5.842  10.946   4.610  1.1120  0.4511  0.6154
20213SOL     OW62645  11.166   1.661   2.458 -1.0420 -0.4711 -0.2245
20213SOL    HW162646  11.187   1.668   2.551 -0.0420  1.9521 -0.5612
20213SOL    HW262647  11.250   1.674   2.413 -1.7413 -0.1501 -1.4887
20214SOL     OW62648   5.837   2.018   0.236 -0.3244 -0.3344 -0.5220
20214SOL    HW162649   5.912   2.046   0.183  0.8803 -0.8000  0.8834
20214SOL    HW262650   5.784   1.966   0.176  0.8563 -0.6074 -1.3757
20215SOL     OW62651   3.817   1.443   5.829  0.2310  0.0986  0.9196
20215SOL    HW162652   3.840   1.475   5.742  2.3219 -0.3035  1.2749
20215SOL    HW262653   3.770   1.361   5.813 -1.9889  1.4600  0.1293
20216SOL     OW62654  10.806   4.396   6.452 -0.0296  0.3015  0.2484
20216SOL    HW162655  10.777   4.473   6.403 -1.5242  1.3798  2.6239
20216SOL    HW262656  10.816   4.428   6.542 -0.9166 -2.2917  1.3519
20217SOL     OW62657   6.575   0.384   7.614 -0.7002 -0.3826  0.1171
20217SOL    HW162658   6.585   0.448   7.544 -3.0847  0.4875  0.4503
20217SOL    HW262659   6.485   0.397   7.645  0.6556  0.4341  4.4127
20218SOL     OW62660   7.106   2.175   9.299  0.3886  0.3664  0.4168
20218SOL    HW162661   7.131   2.251   9.352 -1.1506  0.9829  0.3098
20218SOL    HW262662   7.021   2.199   9.261  0.9627 -0.4668 -1.5206
20219SOL     OW62663   0.894   5.645   8.263 -0.0791  0.5867  0.2752
20219SOL    HW162664   0.808   5.606   8.248 -0.2654 -0.6548  3.6104
20219SOL    HW262665   0.895   5.724   8.209 -2.2093 -0.7464 -1.9208
20220SOL     OW62666   6.467   0.817  10.812  0.2976 -0.1840  0.6360
20220SOL    HW162667   6.491   0.730  10.845  0.1524 -0.4134  0.1476
20220SOL    HW262668   6.400   0.799  10.746 -0.1489  0.3424  0.9374
20221SOL     OW62669   2.966   6.351   8.451 -0.1717  0.8987  0.3291
20221SOL    HW162670   3.030   6.398   8.397 -0.2823  1.8557  1.0041
20221SOL    HW262671   3.019   6.304   8.515 -0.1182  1.5564  0.7819
20222SOL     OW62672   7.103   0.653   2.093 -1.1147  0.5974 -0.1395
20222SOL    HW162673   7.172   0.673   2.156 -0.8102  1.0453 -0.5968
20222SOL    HW262674   7.120   0.563   2.066  0.6223  1.3391 -1.8230
20223SOL     OW62675   8.320   2.130   2.943  0.1802  0.3306  0.0353
20223SOL    HW162676   8.302   2.123   2.850 -0.0316 -1.0640  0.1579
20223SOL    HW262677   8.283   2.214   2.969 -2.1757 -0.4282 -0.6111
20224SOL     OW62678   5.673   1.644   8.234 -1.1849  0.4910  0.4713
20224SOL    HW162679   5.677   1.678   8.145 -2.5693  1.0109  0.5834
20224SOL    HW262680   5.748   1.682   8.278 -0.5306  0.2874 -0.4467
20225SOL     OW62681   9.740   0.973   6.394 -0.0740 -0.2120 -0.3864
20225SOL    HW162682   9.763   0.902   6.334  0.6331  0.6747 -1.2078
20225SOL    HW262683   9.733   0.931   6.480  1.2008 -1.1275 -0.7020
20226SOL     OW62684   3.261   2.132   4.851  0.1960  0.3150  0.8441
20226SOL    HW162685   3.240   2.151   4.942  1.6394 -0.6169  1.4094
20226SOL    HW262686   3.210   2.053   4.831 -0.2365  0.6055  0.7859
20227SOL     OW62687   5.919   4.246   0.209  0.5832 -0.2442  0.3185
20227SOL    HW162688   5.835   4.290   0.194  0.4212 -0.5962  0.1883
20227SOL    HW262689   5.963   4.251   0.125  0.5155 -0.4360  0.2721
20228SOL     OW62690   8.931  10.486  10.749 -0.0615 -0.1583 -0.3781
20228SOL    HW162691   8.900  10.575  10.733  0.7001  0.1945 -0.0089
20228SOL    HW262692   8.938  10.446  10.662 -1.1701 -0.1328 -0.4868
20229SOL     OW62693   4.024   7.020   0.615  0.4903 -0.4352  0.3711
20229SOL    HW162694   4.045   7.113   0.621 -0.3266  0.2285 -3.8995
20229SOL    HW262695   3.931   7.015   0.636  0.1808  0.0352 -0.7846
20230SOL     OW62696   1.713   3.526   3.525 -0.4143  0.4388 -0.4897
20230SOL    HW162697   1.678   3.583   3.457 -2.5862 -1.2013 -0.8711
20230SOL    HW262698   1.661   3.446   3.518  1.0270 -0.7615  1.4433
20231SOL     OW62699   2.554   1.536  11.164  0.0897  0.4485  0.0733
20231SOL    HW162700   2.549   1.625  11.129  1.0532  0.2199 -0.7124
20231SOL    HW262701   2.622   1.540  11.231 -0.4585  0.4788  0.6339
20232SOL     OW62702   7.461  10.529   8.446 -0.1308 -0.2654 -0.3238
20232SOL    HW162703   7.423  10.610   8.410  1.6923  0.3341 -1.0134
20232SOL    HW262704   7.413  10.514   8.527 -0.2150  1.7716  0.0527
20233SOL     OW62705   1.862   4.868   0.660 -0.4045 -0.0225  0.2074
20233SOL    HW162706   1.887   4.868   0.568 -2.4794 -0.2025 -0.4136
20233SOL    HW262707   1.945   4.867   0.708  0.7269  0.8450 -1.6308
20234SOL     OW62708   5.028   8.217   1.838 -0.0048  0.3269  0.1203
20234SOL    HW162709   4.998   8.157   1.769 -3.0514 -1.6734  2.8401
20234SOL    HW262710   5.001   8.303   1.808 -1.0232 -0.4629 -1.3606
20235SOL     OW62711   0.895  10.655   6.913 -0.2691  0.2406 -0.2198
20235SOL    HW162712   0.868  10.747   6.910 -1.0697  0.0603  0.7794
20235SOL    HW262713   0.976  10.655   6.963 -1.2475  0.2277  1.4458
20236SOL     OW62714   9.888   9.010   3.405  0.2938  0.4684 -0.1650
20236SOL    HW162715   9.844   8.957   3.340  0.8673  0.6912 -0.7452
20236SOL    HW262716   9.966   8.960   3.429 -0.2314  0.0885  0.8319
20237SOL     OW62717  11.101   0.816   5.120 -0.2683  0.1332  0.5901
20237SOL    HW162718  11.094   0.886   5.185 -0.4696  1.6545 -1.0076
20237SOL    HW262719  11.194   0.797   5.115 -0.0763  1.1451  0.1705
20238SOL     OW62720   4.202   3.823   8.147 -0.5237  0.8936 -0.3375
20238SOL    HW162721   4.159   3.745   8.112 -0.9157  1.4944 -1.2361
20238SOL    HW262722   4.261   3.852   8.076  1.2141  0.2279  0.7724
20239SOL     OW62723   2.189  11.206   5.730  0.4327 -0.2456  0.1372
20239SOL    HW162724   2.208  11.137   5.793 -1.2257 -1.9755 -1.1179
20239SOL    HW262725   2.095  11.198   5.713  0.0761  2.6941  0.2996
20240SOL     OW62726   0.105  10.319   8.875 -0.6693  0.2800 -0.5743
20240SOL    HW162727   0.066  10.232   8.866 -0.6877  0.3914 -1.6956
20240SOL    HW262728   0.181  10.317   8.817 -0.3448  0.8285 -0.1706
20241SOL     OW62729   4.845   9.972   5.102 -0.2320 -0.6430 -0.0513
20241SOL    HW162730   4.750   9.965   5.096 -0.6005  1.9064  1.3030
20241SOL    HW262731   4.860  10.034   5.174  2.5164 -2.1323  0.8044
20242SOL     OW62732   0.659   4.867   4.197 -0.9475 -0.1278 -0.4912
20242SOL    HW162733   0.701   4.785   4.173  0.1396 -0.3403  1.9367
20242SOL    HW262734   0.710   4.934   4.152 -0.1662 -0.6215 -0.3574
20243SOL     OW62735   0.810   0.711   2.121 -0.3178 -0.4488 -0.5885
20243SOL    HW162736   0.746   0.735   2.188 -1.9563 -1.4966 -1.7222
20243SOL    HW262737   0.895   0.715   2.166 -0.9472  2.5070  0.5635
20244SOL     OW62738   6.190  11.118   9.985 -0.1567 -0.6450 -0.2269
20244SOL    HW162739   6.204  11.025   9.968 -0.9144 -0.5911 -1.2563
20244SOL    HW262740   6.115  11.121  10.045  0.1365 -0.7131  0.1418
20245SOL     OW62741   6.244   8.080  10.581 -0.2667 -0.0667 -0.7177
20245SOL    HW162742   6.176   8.141  10.555  0.5365  1.4416  0.5334
20245SOL    HW262743   6.207   8.033  10.656 -0.9330 -1.2688 -1.7594
20246SOL     OW62744   1.941   3.610   5.680  0.1181 -0.1790  0.5485
20246SOL    HW162745   2.030   3.579   5.691 -0.0334 -0.7271  0.2285
20246SOL    HW262746   1.886   3.535   5.701 -0.2518 -0.0812 -0.0620
20247SOL     OW62747   5.024   2.417   3.727 -0.0746  0.4256  0.1038
20247SOL    HW162748   5.095   2.355   3.739  0.2386  0.5440 -1.0518
20247SOL    HW262749   5.066   2.503   3.730 -0.4954  0.6080  1.6357
20248SOL     OW62750   3.834   5.244   6.367  0.0731 -0.3690  0.1493
20248SOL    HW162751   3.771   5.273   6.433 -0.7746 -0.3855 -0.6271
20248SOL    HW262752   3.899   5.194   6.415 -1.8237 -2.4658  0.6685
20249SOL     OW62753   0.476  11.263   9.958  0.1667 -0.2129  0.1228
20249SOL    HW162754   0.393  11.215   9.959  0.1019 -0.2411  3.2894
20249SOL    HW262755   0.463  11.335  10.020  2.7001 -0.6645  1.3094
20250SOL     OW62756   9.160   6.883   6.407 -0.4277 -0.2609  0.3539
20250SOL    HW162757   9.221   6.951   6.433  0.8319 -1.3710  0.3772
20250SOL    HW262758   9.077   6.909   6.448 -0.1017  1.4649  0.0043
20251SOL     OW62759   7.786   1.904   6.894  0.4556 -0.4340 -0.1807
20251SOL    HW162760   7.876   1.884   6.920  0.8514  0.1696 -1.0528
20251SOL    HW262761   7.733   1.844   6.946  1.4064 -1.3705 -0.2501
20252SOL     OW62762   9.698  10.667   3.136 -0.4256 -0.2497 -0.1565
20252SOL    HW162763   9.618  10.719   3.134 -1.2661 -1.5139 -1.7978
20252SOL    HW262764   9.668  10.576   3.134  1.0245 -0.7503 -1.2442
20253SOL     OW62765   7.796   1.981   9.971 -0.2091  0.0490 -0.1944
20253SOL    HW162766   7.725   2.042   9.951 -0.8193 -0.8508 -0.8441
20253SOL    HW262767   7.753   1.897   9.985  0.7165 -0.4920 -0.4903
20254SOL     OW62768   3.382   6.888   6.422 -0.2638 -0.2214  0.0826
20254SOL    HW162769   3.452   6.948   6.397 -0.1829  0.0802  1.0234
20254SOL    HW262770   3.333   6.935   6.489 -0.1247 -1.2561  0.9242
20255SOL     OW62771   4.922   2.099   9.258  0.2864  0.3723 -0.1017
20255SOL    HW162772   4.863   2.173   9.274  0.1478  0.0462  0.9055
20255SOL    HW262773   5.000   2.139   9.219 -0.3953  0.8610 -1.0162
20256SOL     OW62774   1.589   1.976   0.699 -0.3855  0.0507 -0.7403
20256SOL    HW162775   1.633   1.898   0.733 -1.9058  0.3960  2.4541
20256SOL    HW262776   1.513   1.943   0.652 -0.2098 -0.4239 -0.6954
20257SOL     OW62777   9.500  10.126   9.156 -0.5187 -0.1959  0.6223
20257SOL    HW162778   9.495  10.043   9.109  0.7337 -0.5664  1.1037
20257SOL    HW262779   9.448  10.186   9.103 -0.5260 -1.0162 -0.3424
20258SOL     OW62780   7.255   2.726   7.322  0.2114 -0.0938  0.3491
20258SOL    HW162781   7.323   2.783   7.358 -0.1812  0.1508  0.7219
20258SOL    HW262782   7.273   2.640   7.359  0.3251 -0.0345  0.4322
20259SOL     OW62783   9.378   0.880   3.400 -0.3573  0.1314  0.0468
20259SOL    HW162784   9.357   0.798   3.356  0.3552  0.7351 -1.4882
20259SOL    HW262785   9.466   0.902   3.370  0.0039  0.7932  1.4845
20260SOL     OW62786   1.250   8.837   0.908  0.7027  0.0737  0.3046
20260SOL    HW162787   1.171   8.860   0.957  0.9302  1.4559  0.0731
20260SOL    HW262788   1.221   8.832   0.817  0.5870 -0.9799  0.3850
20261SOL     OW62789   0.931   4.386   3.523  0.5906  0.2974 -0.1638
20261SOL    HW162790   0.963   4.476   3.517 -1.6225  1.0329 -2.5470
20261SOL    HW262791   0.941   4.364   3.616  0.8391  3.1350  0.5862
20262SOL     OW62792   6.524   4.104   7.579 -0.2801 -0.6290  0.6369
20262SOL    HW162793   6.604   4.134   7.537 -1.1942  1.0915 -0.0028
20262SOL    HW262794   6.519   4.011   7.559 -0.9311  0.1337 -3.6597
20263SOL     OW62795   9.451   2.245   1.174 -0.6045  0.3723 -0.4890
20263SOL    HW162796   9.415   2.204   1.095 -2.8276  1.3623 -0.0744
20263SOL    HW262797   9.444   2.177   1.242  2.4665 -0.9266 -1.2681
20264SOL     OW62798   1.044  11.196   7.815 -0.1624 -0.8562 -0.2199
20264SOL    HW162799   1.105  11.225   7.882 -0.5027  0.0438 -0.2890
20264SOL    HW262800   1.069  11.245   7.737 -2.3716  1.3346  0.3018
20265SOL     OW62801   2.216  10.608   4.243  1.1209 -0.0777  0.1233
20265SOL    HW162802   2.235  10.555   4.320  0.2621 -1.4893 -0.5807
20265SOL    HW262803   2.224  10.698   4.273 -1.0455 -0.5267  2.4192
20266SOL     OW62804   7.859   5.772  10.946  0.8600 -0.9117 -0.5766
20266SOL    HW162805   7.785   5.765  10.885  1.0715  0.0531 -0.9681
20266SOL    HW262806   7.881   5.865  10.945 -0.1711 -0.5447  2.2109
20267SOL     OW62807   2.680   4.867   1.598  0.1927 -0.0054 -0.8716
20267SOL    HW162808   2.681   4.962   1.584 -2.0827  0.0837 -0.8822
20267SOL    HW262809   2.748   4.851   1.663  0.6815  1.6186 -0.9380
20268SOL     OW62810   8.141   4.394   0.368  0.0430  0.0310 -0.0399
20268SOL    HW162811   8.217   4.413   0.423  1.0125 -3.1738 -0.1009
20268SOL    HW262812   8.111   4.308   0.396 -2.0400  0.1164 -1.7325
20269SOL     OW62813  11.059   0.347   9.492 -0.0360 -0.3837 -0.1682
20269SOL    HW162814  11.017   0.293   9.559  0.0601 -0.9519 -0.5585
20269SOL    HW262815  11.105   0.414   9.542 -2.7266  1.3149  0.2543
20270SOL     OW62816  10.151   3.700   7.354  0.1458 -0.2148 -0.1503
20270SOL    HW162817  10.191   3.614   7.361  1.7587  0.2630 -2.5241
20270SOL    HW262818  10.168   3.741   7.439  0.2354 -1.8281  0.6545
20271SOL     OW62819   8.837   6.367  10.855 -0.2363 -0.0304  0.1622
20271SOL    HW162820   8.745   6.353  10.878 -0.4745 -0.1834 -0.8620
20271SOL    HW262821   8.837   6.447  10.802  0.0587 -0.6418 -0.7881
20272SOL     OW62822   8.561  10.637   7.074 -0.2696  0.1831 -1.1625
20272SOL    HW162823   8.529  10.710   7.022  3.4630  0.8261 -2.9124
20272SOL    HW262824   8.552  10.561   7.016 -1.9702 -0.3853 -0.2258
20273SOL     OW62825   4.842   5.350   5.038 -0.1498 -0.5591  0.2636
20273SOL    HW162826   4.852   5.327   5.130  1.4883 -0.6415  0.1058
20273SOL    HW262827   4.813   5.268   4.996  1.5940 -1.2718  0.3472
20274SOL     OW62828   0.996   4.680   8.955  0.4538  0.9138 -0.3748
20274SOL    HW162829   1.055   4.755   8.958 -0.7716  1.8733  0.6328
20274SOL    HW262830   0.911   4.716   8.929  0.0618 -0.2648 -0.7789
20275SOL     OW62831   1.609   6.919   2.854  0.3669  0.3474 -0.4231
20275SOL    HW162832   1.671   6.968   2.908 -0.4548 -0.6703  1.5304
20275SOL    HW262833   1.665   6.871   2.792  1.2425  2.7971 -1.7000
20276SOL     OW62834   5.608   4.033   1.125  0.4252  0.1664 -0.6138
20276SOL    HW162835   5.524   4.070   1.097  0.3396 -0.2526 -0.9267
20276SOL    HW262836   5.585   3.951   1.169  0.7749 -0.9407 -2.4100
20277SOL     OW62837   5.082   4.275  10.266 -0.3392  0.3511 -0.4690
20277SOL    HW162838   5.099   4.237  10.180 -0.6426  0.4793 -0.5854
20277SOL    HW262839   5.050   4.201  10.318  1.5804 -0.1661  0.0837
20278SOL     OW62840   0.230   7.386   3.725 -0.4796  0.1533 -0.4283
20278SOL    HW162841   0.279   7.455   3.770  1.5666 -0.5205 -1.5001
20278SOL    HW262842   0.250   7.306   3.773 -0.3929 -0.1576 -0.9680
20279SOL     OW62843   2.642   2.892   7.687  0.0819  0.0954  1.2737
20279SOL    HW162844   2.606   2.805   7.673 -2.0353  1.0702  0.0791
20279SOL    HW262845   2.663   2.895   7.780 -0.5575 -1.4187  1.4947
20280SOL     OW62846   5.049   2.631   4.669 -0.5138 -0.2261  0.3921
20280SOL    HW162847   5.087   2.584   4.744  0.9161  1.5222  0.8344
20280SOL    HW262848   4.976   2.680   4.706  0.1818  0.6240  0.6580
20281SOL     OW62849   5.181   4.784   3.419  0.0452 -0.0895  0.1773
20281SOL    HW162850   5.266   4.801   3.459 -0.5788  0.3947  1.3401
20281SOL    HW262851   5.174   4.689   3.415  0.1803 -0.1411  1.0957
20282SOL     OW62852   9.942  10.122   2.828  0.4962  0.4377  0.0225
20282SOL    HW162853   9.965  10.085   2.913 -2.9763 -3.1716 -0.3143
20282SOL    HW262854   9.879  10.191   2.847 -0.9640 -0.9584  0.4722
20283SOL     OW62855   3.950   1.492   5.599  0.4878 -0.1843 -0.2701
20283SOL    HW162856   4.025   1.432   5.605  1.2547  0.8061  0.3960
20283SOL    HW262857   3.879   1.438   5.565  1.5306 -1.1276 -1.0470
20284SOL     OW62858   3.604   7.882   8.651 -0.0801  0.3116 -0.5018
20284SOL    HW162859   3.672   7.916   8.592  0.5901 -1.1205 -0.5925
20284SOL    HW262860   3.535   7.852   8.592  0.5247 -0.9806 -0.5869
20285SOL     OW62861   6.775   3.738   8.404  0.5100 -0.0896 -0.1215
20285SOL    HW162862   6.811   3.816   8.361 -0.6914  2.6171  3.3547
20285SOL    HW262863   6.689   3.726   8.364 -0.4464  2.1537  1.1164
20286SOL     OW62864   0.616   0.713   3.354  0.1022  0.2319 -0.1001
20286SOL    HW162865   0.609   0.624   3.317  2.6450  0.1397 -0.4815
20286SOL    HW262866   0.622   0.698   3.448  1.1628 -0.0622 -0.2060
20287SOL     OW62867  10.611   1.394  10.885 -0.6445 -0.1871  0.1952
20287SOL    HW162868  10.674   1.383  10.813 -2.3345 -0.4008 -1.3422
20287SOL    HW262869  10.593   1.488  10.887 -0.9042 -0.2320  0.0457
20288SOL     OW62870   2.172   8.554   4.132  0.6384 -0.5615 -0.3911
20288SOL    HW162871   2.084   8.536   4.164  0.3140 -0.6898 -1.3177
20288SOL    HW262872   2.196   8.638   4.172 -0.4213  0.1246 -1.1448
20289SOL     OW62873   2.712   3.583   1.602  0.1106 -0.2237 -0.9656
20289SOL    HW162874   2.734   3.659   1.656  0.5841  0.2660 -1.8270
20289SOL    HW262875   2.709   3.510   1.663  0.5170  0.3405 -0.2579
20290SOL     OW62876   5.092   5.935   3.872  0.0396 -0.1032  0.1352
20290SOL    HW162877   5.074   6.028   3.861  1.3556  0.0326 -1.1023
20290SOL    HW262878   5.021   5.904   3.929 -0.0340  1.7739  1.1592
20291SOL     OW62879   6.475  10.409   7.622  0.5516  0.0832 -0.1903
20291SOL    HW162880   6.476  10.316   7.600  1.3778  0.5761 -2.4196
20291SOL    HW262881   6.552  10.421   7.678  2.0574 -0.1108 -2.1412
20292SOL     OW62882  11.056   1.401   3.480 -0.2900  0.0250  0.4468
20292SOL    HW162883  11.067   1.369   3.390 -3.2412 -1.5848  0.5193
20292SOL    HW262884  11.077   1.326   3.535 -0.5264  0.3509  0.9892
20293SOL     OW62885  10.181   8.621   0.907 -0.1396  0.9806 -0.3487
20293SOL    HW162886  10.087   8.638   0.916 -1.2089 -2.7506 -2.1031
20293SOL    HW262887  10.196   8.625   0.812  1.1669  0.4606 -0.1810
20294SOL     OW62888   6.409   5.248   5.560  0.0733 -0.0457 -0.3927
20294SOL    HW162889   6.475   5.310   5.530  0.8637 -0.8208 -0.2847
20294SOL    HW262890   6.436   5.164   5.524 -1.9460 -0.0840 -2.0194
20295SOL     OW62891   9.850   7.858   8.377 -0.0271  0.0258 -0.6904
20295SOL    HW162892   9.931   7.899   8.408  0.0254  0.3509 -1.2460
20295SOL    HW262893   9.873   7.820   8.293 -0.7677  1.2943 -1.5047
20296SOL     OW62894   1.269   8.615   8.179  0.1942 -0.6019  0.5236
20296SOL    HW162895   1.354   8.621   8.136  0.3600 -0.3444  0.8888
20296SOL    HW262896   1.216   8.561   8.119  0.2314  0.2444 -0.2998
20297SOL     OW62897   5.036   3.706   0.242 -0.6839  0.0237 -0.9218
20297SOL    HW162898   5.085   3.637   0.287 -1.6189 -1.1533 -1.6542
20297SOL    HW262899   5.096   3.736   0.173  0.4875  1.3603  0.6062
20298SOL     OW62900   5.219   3.767  10.319 -0.8553 -0.1682 -0.0644
20298SOL    HW162901   5.277   3.702  10.278  0.1383  1.5137 -1.4307
20298SOL    HW262902   5.278   3.832  10.356 -1.8560  0.6896  0.0558
20299SOL     OW62903   2.052   1.783   6.108  0.0482  0.3024 -0.0843
20299SOL    HW162904   2.133   1.796   6.157  1.0538 -0.1061 -1.5487
20299SOL    HW262905   2.078   1.730   6.033 -1.8606 -1.0130  0.1156
20300SOL     OW62906   8.292   0.492   0.847  0.5632 -0.2342  0.0513
20300SOL    HW162907   8.288   0.438   0.926 -1.0579 -0.4314 -0.1365
20300SOL    HW262908   8.352   0.563   0.869  0.4837 -0.5328  1.3043
20301SOL     OW62909   7.025   0.804   6.898 -0.0764  0.0052  0.4836
20301SOL    HW162910   7.071   0.847   6.971  0.1394 -0.3491  0.5572
20301SOL    HW262911   7.012   0.714   6.928  2.6663 -1.0232 -1.0406
20302SOL     OW62912   5.891   5.791   7.285  0.1998  0.1844 -0.0371
20302SOL    HW162913   5.832   5.784   7.360 -1.8760 -1.1474 -1.6881
20302SOL    HW262914   5.959   5.726   7.302 -0.3951 -0.2985  0.5859
20303SOL     OW62915   3.780   3.287   9.659  0.1814  0.1268 -0.0060
20303SOL    HW162916   3.836   3.338   9.601 -0.1205  2.2943  1.4853
20303SOL    HW262917   3.752   3.213   9.606 -0.4163  2.1550 -2.7757
20304SOL     OW62918   3.687   7.491   7.515  0.2513 -0.1996 -0.1030
20304SOL    HW162919   3.718   7.573   7.476 -2.1126  0.0718 -1.6373
20304SOL    HW262920   3.597   7.511   7.543 -1.1981 -2.7951 -2.5154
20305SOL     OW62921   1.421   3.346   6.433 -0.5843 -0.6312 -0.3863
20305SOL    HW162922   1.342   3.298   6.457  0.7294 -2.0814  1.2455
20305SOL    HW262923   1.468   3.359   6.515  0.0552  1.8371 -1.0425
20306SOL     OW62924   9.245   1.317   2.893 -0.1640  0.0843  0.3356
20306SOL    HW162925   9.255   1.223   2.909 -0.3039  0.0424  0.1850
20306SOL    HW262926   9.152   1.334   2.903 -0.3262 -0.0227 -0.7828
20307SOL     OW62927   1.473   2.073   3.374 -0.1054 -0.3181  0.4089
20307SOL    HW162928   1.381   2.056   3.354  0.1073  0.8302 -1.8896
20307SOL    HW262929   1.512   1.986   3.381 -0.5810 -0.9556 -2.9889
20308SOL     OW62930   2.918   2.809   5.784 -0.0303  0.0769  0.8105
20308SOL    HW162931   2.922   2.844   5.873 -0.3346  0.4900  0.6630
20308SOL    HW262932   2.994   2.750   5.778  1.5751  2.0671  0.4799
20309SOL     OW62933   0.110  10.186   6.994 -0.9861 -0.1070 -0.0084
20309SOL    HW162934   0.195  10.230   6.992 -0.8323 -0.3397  0.9883
20309SOL    HW262935   0.064  10.224   7.069 -1.5919 -0.3032 -0.2669
20310SOL     OW62936   2.511   7.127   1.082  0.4193  0.0316  0.0214
20310SOL    HW162937   2.583   7.162   1.135  1.3009 -1.6779  0.0301
20310SOL    HW262938   2.551   7.058   1.030 -1.4810 -2.0662  1.1461
20311SOL     OW62939   8.382   8.692  10.155 -0.3590 -0.3057  0.1517
20311SOL    HW162940   8.319   8.752  10.194 -1.5308 -1.9737  0.9242
20311SOL    HW262941   8.338   8.658  10.077  0.5328  0.2384 -0.6220
20312SOL     OW62942   9.929   2.748   2.490 -0.0659 -0.2028 -0.1654
20312SOL    HW162943   9.842   2.775   2.518 -0.6075  0.4720 -2.3363
20312SOL    HW262944   9.915   2.701   2.408  1.5847 -0.3141 -0.4195
20313SOL     OW62945   1.365   3.139   8.019  0.5306  0.0340 -0.1772
20313SOL    HW162946   1.454   3.142   8.055  1.0878 -1.2162 -1.3911
20313SOL    HW262947   1.360   3.056   7.973 -1.2617  0.1184 -0.1991
20314SOL     OW62948   6.080   6.846   3.196  1.0249 -0.0497 -0.0745
20314SOL    HW162949   6.031   6.845   3.113  0.5390 -0.1358  0.2046
20314SOL    HW262950   6.160   6.895   3.176  1.2706 -0.7155 -0.7878
20315SOL     OW62951   2.300  10.404   1.732  0.5111 -0.0963 -0.2996
20315SOL    HW162952   2.207  10.426   1.730  0.5779  0.5741  1.7333
20315SOL    HW262953   2.338  10.450   1.657 -0.6484  0.3245 -0.6438
20316SOL     OW62954   7.448   2.148  11.210  0.0521 -0.3875 -0.0879
20316SOL    HW162955   7.488   2.073  11.256 -0.3824 -1.2561 -1.0799
20316SOL    HW262956   7.519   2.185  11.159  0.1445 -0.4481 -0.0047
20317SOL     OW62957   1.278   3.595   2.037 -0.7375  0.0194  0.4038
20317SOL    HW162958   1.366   3.586   1.999 -1.3389  0.1113 -1.0462
20317SOL    HW262959   1.257   3.688   2.029 -1.2504 -0.1202  0.1139
20318SOL     OW62960   5.486   3.467   1.036 -0.0556 -0.2199  0.5161
20318SOL    HW162961   5.525   3.390   0.996 -0.0880 -1.0838  2.0609
20318SOL    HW262962   5.462   3.439   1.124 -1.2192  1.2061  0.7014
20319SOL     OW62963   2.278   3.675   0.412 -0.2622 -0.3099  0.3505
20319SOL    HW162964   2.339   3.681   0.339  1.8478 -0.0440  2.0645
20319SOL    HW262965   2.311   3.737   0.477 -1.2882 -1.4764  2.0814
20320SOL     OW62966   9.769   3.605   7.785 -0.4162  0.3314 -0.1883
20320SOL    HW162967   9.736   3.589   7.874  0.5188  2.8049  0.7151
20320SOL    HW262968   9.693   3.640   7.738 -0.1279  2.3524  0.7420
20321SOL     OW62969   7.147   7.082   3.663  0.2712  0.5066  0.3523
20321SOL    HW162970   7.116   6.995   3.688  0.6486 -0.1484 -1.3825
20321SOL    HW262971   7.171   7.123   3.747 -2.0202 -0.1885  1.4258
20322SOL     OW62972   4.966   8.184   0.899 -0.2671  0.0148 -0.7090
20322SOL    HW162973   4.876   8.194   0.930 -0.4650  1.0765 -1.5807
20322SOL    HW262974   4.976   8.250   0.831  0.9431 -0.5915 -1.1568
20323SOL     OW62975  11.176   3.500   7.806  0.3782 -0.9167  0.3988
20323SOL    HW162976  11.091   3.469   7.837  1.2362 -1.0741  2.8474
20323SOL    HW262977  11.173   3.595   7.816  0.4647 -0.9167  0.4288
20324SOL     OW62978   3.743  10.841   4.408  0.3967 -0.1263 -0.0527
20324SOL    HW162979   3.778  10.785   4.339 -3.1404 -0.4173 -1.8319
20324SOL    HW262980   3.678  10.787   4.452  0.7048  0.9423  1.8109
20325SOL     OW62981   3.031   1.403   0.877  0.0012  0.6445 -0.1192
20325SOL    HW162982   2.995   1.339   0.817 -0.2835  1.1670 -0.5106
20325SOL    HW262983   2.974   1.400   0.954 -0.7335  1.2793 -0.6291
20326SOL     OW62984   5.918   0.361   3.366  0.4204  0.0763  0.1086
20326SOL    HW162985   5.866   0.417   3.308  1.8366 -0.0097 -1.3073
20326SOL    HW262986   5.863   0.283   3.378 -1.1363  1.2838  1.2922
20327SOL     OW62987  10.102   5.323   0.976 -0.5923  0.1564  0.1089
20327SOL    HW162988  10.062   5.325   0.889 -1.4780  1.0462  0.5211
20327SOL    HW262989  10.152   5.404   0.981  1.3703 -0.9575 -0.4126
20328SOL     OW62990   9.021   3.702   3.303 -0.6822 -0.0047 -0.0543
20328SOL    HW162991   9.067   3.740   3.229  2.0938 -1.1120  0.9493
20328SOL    HW262992   8.995   3.777   3.357 -0.6738  0.6871 -1.0019
20329SOL     OW62993   2.314   9.478  10.479  0.0243  0.3247  0.4832
20329SOL    HW162994   2.377   9.424  10.526  0.3202 -2.0103 -2.3265
20329SOL    HW262995   2.229   9.451  10.513  0.2437 -1.1777 -0.0908
20330SOL     OW62996   0.360   2.928   6.510 -0.5223  0.4348 -0.4429
20330SOL    HW162997   0.415   2.916   6.433 -0.4226 -0.7220 -0.2072
20330SOL    HW262998   0.283   2.874   6.493  0.6889 -2.0606  1.3867
20331SOL     OW62999   8.552   2.323   4.535 -0.1128 -0.1140 -0.2546
20331SOL    HW163000   8.552   2.419   4.540  0.7547 -0.1384  0.5910
20331SOL    HW263001   8.607   2.296   4.608  0.4748 -1.2270 -1.0791
20332SOL     OW63002   0.108   1.649   9.040  0.3946  0.1134 -0.1765
20332SOL    HW163003   0.056   1.580   9.082  0.8717 -0.5582 -0.6712
20332SOL    HW263004   0.161   1.684   9.112  1.2685 -1.0903 -0.1938
20333SOL     OW63005   3.112   2.620   5.009  0.3171  0.4026  0.3196
20333SOL    HW163006   3.111   2.568   5.090  1.2482 -1.6133 -0.8791
20333SOL    HW263007   3.072   2.562   4.943  0.0733  1.7874 -0.7979
20334SOL     OW63008   9.609   8.303   4.052  0.0001 -0.0142  0.5334
20334SOL    HW163009   9.680   8.361   4.023 -1.0654  0.6208 -0.9564
20334SOL    HW263010   9.537   8.322   3.992 -1.6071 -0.2957  2.2670
20335SOL     OW63011   7.832   0.590   5.079  0.1369  0.6230 -0.0874
20335SOL    HW163012   7.828   0.518   5.016 -1.4618  1.5286 -1.1080
20335SOL    HW263013   7.844   0.668   5.026  2.1258  1.1357  1.0214
20336SOL     OW63014   6.324   3.325   4.483 -0.7308  0.0291  0.2005
20336SOL    HW163015   6.237   3.320   4.522  0.0380  2.5811  2.6002
20336SOL    HW263016   6.384   3.306   4.556  0.7473  3.0363 -0.0557
20337SOL     OW63017   6.895   0.748   1.158 -0.5099  0.4869  1.0842
20337SOL    HW163018   6.829   0.699   1.208 -0.6107 -0.2577  0.2449
20337SOL    HW263019   6.943   0.798   1.224 -0.3762 -0.7740  1.9773
20338SOL     OW63020  10.943   8.410  10.034 -0.1493 -0.5287 -0.1199
20338SOL    HW163021  10.997   8.332  10.045  0.0430 -0.1978  1.6096
20338SOL    HW263022  10.855   8.382  10.060 -0.5589 -0.7147 -1.6284
20339SOL     OW63023   3.254   7.724  11.035  0.1338 -0.5292  0.3942
20339SOL    HW163024   3.276   7.786  10.965  0.3592 -2.8940 -1.8172
20339SOL    HW263025   3.162   7.704  11.020  0.0068 -0.5628  1.2169
20340SOL     OW63026   5.601   1.267   9.716  0.1851 -0.2326 -0.0549
20340SOL    HW163027   5.540   1.200   9.749 -0.1853  0.2861  0.3351
20340SOL    HW263028   5.640   1.227   9.639 -1.7929 -0.0039 -1.2433
20341SOL     OW63029   8.130   8.214   5.482 -0.1952 -0.3768 -0.5546
20341SOL    HW163030   8.217   8.253   5.481 -0.9294  1.3645 -0.8217
20341SOL    HW263031   8.084   8.256   5.409 -2.0696  0.8179  1.1647
20342SOL     OW63032   5.933   5.429   7.996 -0.1975 -0.5244 -0.4723
20342SOL    HW163033   6.002   5.364   8.011 -2.8649 -3.1298  1.6229
20342SOL    HW263034   5.863   5.380   7.953 -2.3362  0.8777  1.2061
20343SOL     OW63035   6.175   3.166   0.555  0.5189 -0.0580  0.1605
20343SOL    HW163036   6.207   3.211   0.633  0.7004 -1.2699  0.8151
20343SOL    HW263037   6.099   3.115   0.587  2.6411 -3.3725  0.4447
20344SOL     OW63038   4.590   0.883   8.263 -0.0008  0.9644  0.9008
20344SOL    HW163039   4.541   0.801   8.273  1.9731 -0.4827 -0.4260
20344SOL    HW263040   4.539   0.933   8.199 -0.2363 -0.1433  0.1808
20345SOL     OW63041   9.309   9.350   5.898 -0.1017 -0.8145  0.8974
20345SOL    HW163042   9.225   9.369   5.855 -0.3418 -1.5724  1.0157
20345SOL    HW263043   9.368   9.417   5.864  0.2122 -2.4044 -2.0786
20346SOL     OW63044   2.161  10.862   5.734  0.5828 -0.2729  0.3110
20346SOL    HW163045   2.231  10.826   5.788 -0.5627 -1.5398  1.0126
20346SOL    HW263046   2.083  10.811   5.758 -0.5600  1.0048 -0.5308
20347SOL     OW63047   4.584   2.699   1.670 -0.3681  0.2897  0.6154
20347SOL    HW163048   4.552   2.747   1.594  0.9228  1.2852  0.6696
20347SOL    HW263049   4.638   2.629   1.633 -1.6084 -0.6703  0.5639
20348SOL     OW63050   2.437   3.843   8.343 -0.3363 -0.2717  0.1930
20348SOL    HW163051   2.480   3.774   8.293 -0.3248  0.7662 -1.3087
20348SOL    HW263052   2.462   3.827   8.433  2.6692 -0.1593 -0.5166
20349SOL     OW63053   4.160  10.272   4.224  0.9133 -0.7420  0.0761
20349SOL    HW163054   4.226  10.248   4.289  0.8993 -1.7083 -0.2524
20349SOL    HW263055   4.201  10.255   4.139  0.6924 -0.1266 -0.1625
20350SOL     OW63056   2.033   3.492   6.941 -0.2688 -0.0479  0.2532
20350SOL    HW163057   1.972   3.427   6.976 -1.5527  0.1417 -1.4713
20350SOL    HW263058   2.045   3.554   7.013  0.3128 -1.7059  1.6367
20351SOL     OW63059   4.417   7.771   2.042  0.5080 -0.1353 -0.3963
20351SOL    HW163060   4.393   7.864   2.038  4.5873  1.2819  1.9150
20351SOL    HW263061   4.475   7.758   1.967  1.5830 -0.1442  0.4046
20352SOL     OW63062   5.100   1.453   1.937 -0.2242  0.0644  0.2982
20352SOL    HW163063   5.071   1.393   1.869 -0.3827 -1.6548  1.8029
20352SOL    HW263064   5.169   1.505   1.896  1.5372 -2.6929 -0.4965
20353SOL     OW63065   2.951  10.778   0.183 -0.2111  0.1013 -0.5163
20353SOL    HW163066   2.916  10.811   0.100 -0.2092  2.1854  0.2569
20353SOL    HW263067   2.881  10.792   0.246  0.1821 -0.4436  0.0486
20354SOL     OW63068   8.580   5.240   4.200 -0.0048 -0.4797 -0.1575
20354SOL    HW163069   8.494   5.216   4.233  0.5693 -1.6625  0.5593
20354SOL    HW263070   8.566   5.321   4.151 -1.7207 -1.2703 -1.0358
20355SOL     OW63071   4.530   6.276   3.871 -0.3934  0.0006 -0.0051
20355SOL    HW163072   4.580   6.350   3.905  0.9071 -1.0654  0.4957
20355SOL    HW263073   4.491   6.236   3.948  2.2907 -2.2256  0.3756
20356SOL     OW63074   7.826   0.013   3.849 -0.6473 -0.4802  0.3642
20356SOL    HW163075   7.742   0.025   3.893 -0.7348  1.7499 -0.3146
20356SOL    HW263076   7.882  -0.029   3.914 -0.8851  2.3309  2.5592
20357SOL     OW63077   3.805   9.125   2.292  0.2886  0.5447  0.1107
20357SOL    HW163078   3.733   9.170   2.248 -1.5276  0.0174  2.3323
20357SOL    HW263079   3.815   9.172   2.375  0.9792 -0.7688  0.8014
20358SOL     OW63080   7.183   2.484   9.829  0.0287  0.1585  0.3094
20358SOL    HW163081   7.278   2.483   9.821  0.0394  0.3748  0.4010
20358SOL    HW263082   7.163   2.414   9.890 -0.2028 -3.1089 -3.1329
20359SOL     OW63083   3.284   3.245   0.301 -0.3004 -0.4531 -0.3385
20359SOL    HW163084   3.321   3.252   0.388  1.2741  1.8951 -1.0974
20359SOL    HW263085   3.191   3.231   0.315 -0.4934  2.1684  1.8215
20360SOL     OW63086   7.830   5.368   6.473  0.2866 -0.0367 -0.0832
20360SOL    HW163087   7.754   5.357   6.415 -0.7285  0.7264  1.0376
20360SOL    HW263088   7.905   5.376   6.414 -0.7637  1.2316 -1.3260
20361SOL     OW63089   5.408   5.829   1.579 -0.5040  0.0081 -0.3782
20361SOL    HW163090   5.394   5.734   1.578  1.2266 -0.2829 -1.2835
20361SOL    HW263091   5.320   5.867   1.583 -1.2650 -1.6237 -0.9618
20362SOL     OW63092   1.352   3.889   1.419 -0.0878 -0.7095  0.4667
20362SOL    HW163093   1.292   3.888   1.494  0.7792 -1.6424  1.1709
20362SOL    HW263094   1.369   3.981   1.403 -0.7893 -0.4753  1.0101
20363SOL     OW63095   3.322   3.005   7.523  0.2557 -0.1159 -1.3017
20363SOL    HW163096   3.319   2.912   7.504 -0.9986  0.1304 -2.4712
20363SOL    HW263097   3.234   3.026   7.556  0.9191  0.4281  0.2370
20364SOL     OW63098   8.007   3.211   2.696  0.2073  0.3825 -0.2785
20364SOL    HW163099   8.041   3.122   2.691  1.3750  0.8728 -1.5829
20364SOL    HW263100   8.086   3.266   2.700 -0.4847  1.3404  1.5270
20365SOL     OW63101  11.100   3.063   8.109  0.2831 -0.7757  0.4862
20365SOL    HW163102  11.057   2.979   8.123  0.2292 -0.9112 -0.4481
20365SOL    HW263103  11.173   3.044   8.050 -0.7088  0.0768 -1.0997
20366SOL     OW63104   7.669   3.820   8.233  0.4558 -0.2793 -0.4653
20366SOL    HW163105   7.647   3.802   8.324 -0.2064 -0.8162 -0.7222
20366SOL    HW263106   7.585   3.827   8.189  0.7332  1.4230 -0.7842
20367SOL     OW63107   0.519   5.121   8.619  0.4263 -1.1869 -0.4535
20367SOL    HW163108   0.567   5.063   8.560 -0.7480 -1.0240 -1.6083
20367SOL    HW263109   0.430   5.087   8.620  0.5328 -1.5741  1.7738
20368SOL     OW63110   6.456  10.086   1.955  0.1140  0.9504 -0.2305
20368SOL    HW163111   6.374  10.124   1.986 -0.2285  1.4320 -1.6264
20368SOL    HW263112   6.436   9.994   1.942 -0.0013  0.9279  0.0977
20369SOL     OW63113   4.540   0.537   0.676  0.1784  0.8962  0.6318
20369SOL    HW163114   4.487   0.584   0.740  0.3772  1.7104  0.2261
20369SOL    HW263115   4.477   0.486   0.625  0.0162  0.2902  1.4305
20370SOL     OW63116   8.032  10.416  11.077  0.9076  0.3558  0.0875
20370SOL    HW163117   8.119  10.451  11.057  1.0835 -0.7665 -1.2466
20370SOL    HW263118   7.976  10.450  11.007  0.2954  0.9276  0.8401
20371SOL     OW63119   2.495  10.392   7.149  1.0726 -0.4165 -0.0126
20371SOL    HW163120   2.543  10.468   7.118 -0.5129 -0.1209 -1.9765
20371SOL    HW263121   2.501  10.396   7.244  1.7030  1.7001 -0.1019
20372SOL     OW63122   9.561   4.082   5.725  0.1564 -0.1754  0.0680
20372SOL    HW163123   9.656   4.091   5.714  0.3248 -0.8749  0.8647
20372SOL    HW263124   9.540   4.000   5.680 -0.0414 -0.1201  0.0601
20373SOL     OW63125   0.868   5.337  11.270  0.5569  0.5419  0.3188
20373SOL    HW163126   0.867   5.293  11.355 -0.7317 -1.1314 -0.5116
20373SOL    HW263127   0.874   5.431  11.291  1.2899  0.1040  2.1959
20374SOL     OW63128   0.894   0.155   6.201  0.4416 -0.1935 -0.3714
20374SOL    HW163129   0.844   0.084   6.162  0.9072 -0.7006 -0.0638
20374SOL    HW263130   0.832   0.228   6.207 -0.9165 -1.4097  1.8855
20375SOL     OW63131   4.381  10.446   7.176 -0.3290 -0.1465  0.5457
20375SOL    HW163132   4.326  10.376   7.140  0.0965 -0.4820  0.5376
20375SOL    HW263133   4.397  10.504   7.102 -0.0025 -0.4806  0.3542
20376SOL     OW63134   4.341   3.478   7.773  0.3837  0.0987 -0.7462
20376SOL    HW163135   4.306   3.564   7.752 -0.5241 -0.1076 -0.1156
20376SOL    HW263136   4.436   3.490   7.771  0.2834  1.4639  0.6769
20377SOL     OW63137   8.249   7.968  10.126  0.3639 -0.5831  0.0844
20377SOL    HW163138   8.225   7.875  10.122  0.6842 -0.6509 -0.4763
20377SOL    HW263139   8.333   7.972  10.080  0.7910 -0.1529  0.8995
20378SOL     OW63140   8.319   8.839   6.932  0.1292 -0.3027  0.5916
20378SOL    HW163141   8.361   8.921   6.905  0.5390 -1.1293 -1.4411
20378SOL    HW263142   8.362   8.816   7.014  0.6952  1.0105  0.6915
20379SOL     OW63143   0.658   6.290   3.741 -0.3027  0.1338  0.3632
20379SOL    HW163144   0.663   6.327   3.829 -2.0725 -0.0890  0.5879
20379SOL    HW263145   0.713   6.347   3.687  0.8972  0.2077  1.6121
20380SOL     OW63146   4.772   7.446   1.777  0.0619 -0.4835  0.8820
20380SOL    HW163147   4.713   7.379   1.813  1.2823 -1.2607  1.4793
20380SOL    HW263148   4.858   7.404   1.774  0.0306 -0.7929 -3.5677
20381SOL     OW63149   5.852   2.202   2.937 -0.5800 -0.0155  0.2994
20381SOL    HW163150   5.841   2.227   2.846 -2.2385 -0.6113  0.2890
20381SOL    HW263151   5.763   2.202   2.972  0.1193  1.5473  2.2999
20382SOL     OW63152   0.409   8.564  10.695  0.1306 -0.0762 -0.6427
20382SOL    HW163153   0.361   8.587  10.615 -1.9208  0.5663  0.6800
20382SOL    HW263154   0.389   8.472  10.709  0.7900 -0.2869 -1.0402
20383SOL     OW63155   2.194   5.228   8.739 -0.5726 -0.0994 -0.4321
20383SOL    HW163156   2.220   5.199   8.652  0.6989 -0.1557 -0.0601
20383SOL    HW263157   2.220   5.321   8.743 -2.9822  0.6692 -0.9889
20384SOL     OW63158   6.482   1.391   2.488 -0.2039  0.2404  1.0536
20384SOL    HW163159   6.443   1.430   2.566  0.0203  3.7610 -0.4014
20384SOL    HW263160   6.407   1.373   2.431 -0.1623  2.1298  0.3155
20385SOL     OW63161   1.037  10.413   8.267  0.0990 -0.0012  0.4845
20385SOL    HW163162   1.082  10.395   8.185 -1.2212  0.7686 -0.4324
20385SOL    HW263163   1.027  10.326   8.308  2.1506 -0.2163  0.6205
20386SOL     OW63164   9.645   0.661  11.111 -0.6902  0.0427 -0.3037
20386SOL    HW163165   9.572   0.678  11.170  0.6484  1.4055  1.0560
20386SOL    HW263166   9.667   0.747  11.075  1.4180  0.0513  0.8204
20387SOL     OW63167  10.315   9.808  10.373 -0.2719  0.5280 -0.4684
20387SOL    HW163168  10.290   9.744  10.307 -0.2575 -0.2314  0.2539
20387SOL    HW263169  10.383   9.861  10.330 -0.6696  0.4097 -1.2526
20388SOL     OW63170   4.983  11.121   0.135  0.1446 -0.4734 -0.6988
20388SOL    HW163171   5.073  11.137   0.163 -0.2914 -0.4206  0.7429
20388SOL    HW263172   4.980  11.027   0.117  0.2362 -0.6661  0.2488
20389SOL     OW63173   2.665   7.076   0.253  0.2524 -0.5790  0.5123
20389SOL    HW163174   2.601   7.018   0.292  0.5954 -0.9668  0.5078
20389SOL    HW263175   2.718   7.019   0.197 -0.6342  0.0619 -1.0436
20390SOL     OW63176   7.605  10.259   6.788  0.1539 -0.2471 -0.4640
20390SOL    HW163177   7.611  10.196   6.860 -0.8069 -1.4627 -1.4176
20390SOL    HW263178   7.695  10.292   6.778 -0.0385  1.5519  2.6300
20391SOL     OW63179   2.806  11.097  10.778 -0.3658 -0.5464  0.7090
20391SOL    HW163180   2.870  11.072  10.845 -1.2485 -3.9962  0.4781
20391SOL    HW263181   2.787  11.015  10.732 -1.2930  1.2985 -2.5036
20392SOL     OW63182   7.694   8.906   5.067  0.4258 -0.2138  0.4598
20392SOL    HW163183   7.769   8.965   5.056  1.0946 -0.6941  2.0924
20392SOL    HW263184   7.707   8.838   5.001  0.0234  1.0465 -0.9808
20393SOL     OW63185   6.929   4.844   2.687  0.1589  0.0777  0.0814
20393SOL    HW163186   6.932   4.800   2.601 -0.5111  1.6630 -0.7963
20393SOL    HW263187   7.005   4.809   2.734  0.0479 -1.4914 -0.8046
20394SOL     OW63188   9.795   8.491  10.920  1.1138  0.6198 -0.0709
20394SOL    HW163189   9.812   8.584  10.908 -0.2231  1.0394  0.9932
20394SOL    HW263190   9.734   8.487  10.994  1.1132 -1.0988 -0.1186
20395SOL     OW63191   6.758   0.287   5.286 -0.0149 -0.1718 -0.0351
20395SOL    HW163192   6.801   0.221   5.232  0.2849  0.8475 -1.0790
20395SOL    HW263193   6.751   0.246   5.373  1.7459 -0.9054 -0.1929
20396SOL     OW63194   9.254   2.309  10.722 -0.3226  0.2153  0.0848
20396SOL    HW163195   9.257   2.234  10.782  1.0616 -0.3976 -0.7188
20396SOL    HW263196   9.340   2.310  10.680 -1.4672  0.2096 -2.4006
20397SOL     OW63197   3.829   3.539   4.352 -0.2322 -0.0254 -0.7063
20397SOL    HW163198   3.902   3.547   4.414 -1.0067 -0.3620  0.2680
20397SOL    HW263199   3.850   3.602   4.283 -0.1264  1.5359  0.6866
20398SOL     OW63200   1.694   9.972   8.229 -0.0805 -0.1621  1.2830
20398SOL    HW163201   1.741   9.989   8.311  0.9725 -1.4903  0.9921
20398SOL    HW263202   1.673   9.879   8.231  0.1494 -0.2703 -0.0391
20399SOL     OW63203   5.277   9.825   6.642  0.4845  0.1340 -0.4967
20399SOL    HW163204   5.365   9.851   6.670  0.4733 -0.0938 -0.2386
20399SOL    HW263205   5.257   9.882   6.569  0.8179  0.2432 -0.5054
20400SOL     OW63206   9.222  10.763   0.726 -0.0999 -0.0558 -0.3331
20400SOL    HW163207   9.183  10.842   0.763 -0.5131 -0.4034 -0.0102
20400SOL    HW263208   9.233  10.704   0.802 -1.4853 -0.9975 -0.8057
20401SOL     OW63209   5.280   4.055  10.877 -0.5942  0.1399  0.3182
20401SOL    HW163210   5.325   4.010  10.805 -0.1110 -1.8818  1.7999
20401SOL    HW263211   5.227   4.122  10.834  0.6304 -0.1640 -1.8104
20402SOL     OW63212   2.078   7.895   8.963 -0.2617  0.6590  0.0393
20402SOL    HW163213   2.068   7.949   8.884  0.0135 -0.6616 -0.9381
20402SOL    HW263214   2.044   7.949   9.034 -1.3864  1.5457 -1.1264
20403SOL     OW63215   6.469   2.603   0.179  0.2859  0.4016  0.6236
20403SOL    HW163216   6.434   2.546   0.247  3.2907 -2.2036  0.2410
20403SOL    HW263217   6.409   2.594   0.106  0.4607 -2.1610  0.7036
20404SOL     OW63218   2.571   3.921   5.845 -0.0534  0.0376  0.1698
20404SOL    HW163219   2.625   3.994   5.815 -1.9736  1.6344  0.4543
20404SOL    HW263220   2.485   3.959   5.862 -1.2416 -2.3700 -0.0133
20405SOL     OW63221   7.984   9.467   7.602  0.1402 -0.0780  0.1844
20405SOL    HW163222   8.030   9.455   7.519  0.1388  0.4082  0.1086
20405SOL    HW263223   7.974   9.379   7.637  0.7765 -0.2267  0.0092
20406SOL     OW63224   0.589   9.835   3.199 -0.4598 -0.0153 -0.7341
20406SOL    HW163225   0.577   9.929   3.181 -1.4106 -0.3344 -1.8266
20406SOL    HW263226   0.681   9.819   3.178 -0.6896  0.3496 -2.1407
20407SOL     OW63227   2.703   9.166   1.206  0.2044 -0.7227  0.0664
20407SOL    HW163228   2.666   9.149   1.119 -1.5108 -3.3198  1.1819
20407SOL    HW263229   2.637   9.133   1.267  0.8552  2.0101  2.4609
20408SOL     OW63230  11.159   5.620   2.736  0.4687 -0.3457 -0.2091
20408SOL    HW163231  11.159   5.590   2.645  0.7374  1.3784 -0.8163
20408SOL    HW263232  11.088   5.684   2.740  0.9444  0.1400  0.6031
20409SOL     OW63233   2.694  10.580   7.054 -0.6452 -0.3971 -0.4057
20409SOL    HW163234   2.628  10.640   7.017  0.8829 -0.9599 -4.4677
20409SOL    HW263235   2.768  10.637   7.076 -0.7338 -0.3416 -0.2422
20410SOL     OW63236   4.098   7.962   4.170 -0.0341 -0.1318 -0.1368
20410SOL    HW163237   4.180   7.982   4.215 -0.7446  0.5653  0.8988
20410SOL    HW263238   4.114   7.986   4.079  1.0323 -0.3872 -0.0335
20411SOL     OW63239   2.398  10.648   2.871  0.4359  0.4309  0.1539
20411SOL    HW163240   2.450  10.677   2.795  1.1295  0.6911  0.7203
20411SOL    HW263241   2.308  10.645   2.838  0.7790  0.1433 -0.7979
20412SOL     OW63242  10.894   7.327   4.641 -0.1177  0.3298  0.4773
20412SOL    HW163243  10.948   7.361   4.569  0.5699  1.4735  1.4933
20412SOL    HW263244  10.941   7.250   4.673 -0.7549 -0.5695 -0.6782
20413SOL     OW63245   4.857   9.065   7.124 -0.4089 -0.2673  0.8413
20413SOL    HW163246   4.881   9.119   7.048 -0.7907 -0.2676  0.7195
20413SOL    HW263247   4.930   9.003   7.132 -1.1620 -1.4258 -0.6273
20414SOL     OW63248   7.653   3.153   8.212  0.2890  0.3089 -0.2427
20414SOL    HW163249   7.580   3.201   8.174 -2.1369 -1.0997  2.2879
20414SOL    HW263250   7.682   3.208   8.285 -1.0588 -0.9733  1.3144
20415SOL     OW63251   1.051   8.306   6.338  0.1597  0.5767 -0.1799
20415SOL    HW163252   1.115   8.239   6.313  0.9915  2.3050 -3.2190
20415SOL    HW263253   1.096   8.359   6.404  1.7108  1.3772 -1.7975
20416SOL     OW63254   4.953   1.156   1.815  0.4892 -0.4396 -0.5588
20416SOL    HW163255   4.882   1.093   1.825  0.0830  0.3309  2.6158
20416SOL    HW263256   4.937   1.198   1.731 -1.6669 -1.6446 -0.8062
20417SOL     OW63257   2.058   3.444   8.827 -0.0156 -0.0092  0.7340
20417SOL    HW163258   2.028   3.358   8.859  0.1934 -0.1385  0.5817
20417SOL    HW263259   2.121   3.423   8.758 -1.2320  0.2736 -0.5020
20418SOL     OW63260  10.998  10.669   6.834 -0.0498 -0.3201 -0.3717
20418SOL    HW163261  11.040  10.604   6.778  0.1037 -0.1049 -0.5079
20418SOL    HW263262  10.947  10.618   6.896  1.0761 -0.6175  0.3376
20419SOL     OW63263   3.990  10.810   2.337  1.4236 -0.0770  0.3208
20419SOL    HW163264   3.921  10.854   2.386 -1.1872 -1.5436 -1.7175
20419SOL    HW263265   4.009  10.731   2.388 -0.1347 -0.7899 -0.0969
20420SOL     OW63266   2.361   1.075   3.177 -0.8508  0.0531 -0.0054
20420SOL    HW163267   2.416   1.078   3.256 -1.7406 -1.1555  0.7034
20420SOL    HW263268   2.314   0.991   3.184 -3.0939  1.1933 -0.3361
20421SOL     OW63269   2.819   9.536   7.238 -0.4468  0.2944  0.0878
20421SOL    HW163270   2.723   9.535   7.237 -0.4507  0.3363 -0.9316
20421SOL    HW263271   2.843   9.608   7.180  0.2218  2.0553  2.4162
20422SOL     OW63272   0.305   9.896   9.764 -0.0853 -0.0445 -0.4173
20422SOL    HW163273   0.353   9.977   9.751 -0.5956  0.3002 -0.1583
20422SOL    HW263274   0.212   9.921   9.762 -0.2371 -0.3938  1.0903
20423SOL     OW63275  10.516  10.214   6.030 -0.1491  0.2421 -0.5289
20423SOL    HW163276  10.533  10.155   6.103 -1.4285  0.7322  0.1914
20423SOL    HW263277  10.424  10.198   6.007  0.0846  0.4657 -1.7007
20424SOL     OW63278   7.956   5.585   2.767  0.1807 -0.6121  0.3335
20424SOL    HW163279   7.993   5.498   2.782 -1.9883 -1.6164  0.2052
20424SOL    HW263280   7.917   5.580   2.680  1.3664  1.0284 -0.3420
20425SOL     OW63281   9.469   2.811   8.830  0.0297  0.2109 -0.3291
20425SOL    HW163282   9.527   2.736   8.818 -0.0198  0.3771 -1.7899
20425SOL    HW263283   9.452   2.843   8.742 -0.3170  1.6778  0.2272
20426SOL     OW63284   8.746  10.874   6.318 -0.4648 -0.8603  0.5825
20426SOL    HW163285   8.665  10.840   6.357 -0.2437 -0.4130  1.4550
20426SOL    HW263286   8.750  10.965   6.348 -1.0358 -0.0118 -1.6726
20427SOL     OW63287   1.787   4.104   5.103  0.3631 -0.1104  0.2646
20427SOL    HW163288   1.826   4.124   5.018 -0.9514  1.0015 -0.1172
20427SOL    HW263289   1.830   4.164   5.164 -0.7178  1.1797 -0.1734
20428SOL     OW63290   4.864   5.506   0.636 -0.3329 -0.0834  0.4559
20428SOL    HW163291   4.945   5.499   0.584  0.1184 -1.7346  1.2914
20428SOL    HW263292   4.894   5.497   0.727 -1.6205 -3.5154  0.6931
20429SOL     OW63293   6.146   0.160   4.626 -0.3747  0.1946  0.2653
20429SOL    HW163294   6.237   0.131   4.629 -0.2812  0.4730  0.2095
20429SOL    HW263295   6.136   0.216   4.704  0.4463  2.8259 -1.3879
20430SOL     OW63296   9.940   6.811   9.284 -0.0940 -0.1345 -0.2180
20430SOL    HW163297   9.986   6.858   9.214  0.7946  2.0778  1.7254
20430SOL    HW263298  10.000   6.815   9.359 -2.1504  0.1173  1.4977
20431SOL     OW63299   9.901   1.933   1.030  0.3631 -0.3483 -0.5043
20431SOL    HW163300   9.974   1.992   1.011 -0.3045  0.2256 -1.3567
20431SOL    HW263301   9.942   1.848   1.046  1.3583  0.3597  0.9147
20432SOL     OW63302   9.151   6.101   0.359 -0.0955  0.3775 -0.5835
20432SOL    HW163303   9.235   6.140   0.380  0.5262 -0.9474 -0.5291
20432SOL    HW263304   9.115   6.157   0.290  0.9216  0.8275 -0.7696
20433SOL     OW63305   5.453   1.736   2.467 -0.9820 -0.6468  0.2342
20433SOL    HW163306   5.442   1.724   2.561  0.3400 -5.0123  0.0664
20433SOL    HW263307   5.520   1.804   2.459 -0.1972 -1.0641  2.5468
20434SOL     OW63308   2.848  10.959   1.949 -0.2962 -0.6849  0.4852
20434SOL    HW163309   2.782  11.016   1.989 -0.9323 -0.8891 -0.2544
20434SOL    HW263310   2.890  10.914   2.023 -1.6331 -1.2618  0.9119
20435SOL     OW63311   3.769   1.852   3.997 -0.7845 -0.2826 -0.4819
20435SOL    HW163312   3.743   1.943   4.015  1.1324 -0.0287  1.4668
20435SOL    HW263313   3.786   1.850   3.903 -0.0829  1.6074 -0.4443
20436SOL     OW63314  10.244   6.413   6.965 -0.5730 -0.2995 -0.9044
20436SOL    HW163315  10.302   6.485   6.991 -0.7165 -0.8758  1.1791
20436SOL    HW263316  10.295   6.362   6.903  0.9584 -0.4280  0.3863
20437SOL     OW63317   5.461   7.410   9.920  0.2354  0.5301 -0.2031
20437SOL    HW163318   5.501   7.375   9.840 -1.1103  3.2469 -2.2254
20437SOL    HW263319   5.533   7.453   9.966  1.0887 -1.3233  0.2884
20438SOL     OW63320   3.776   2.761  10.527  0.2297 -0.3493  0.1073
20438SOL    HW163321   3.756   2.843  10.572  0.1303 -0.7188  0.7477
20438SOL    HW263322   3.827   2.788  10.451 -2.0932  0.5804 -1.2372
20439SOL     OW63323   9.327   0.584   2.261 -0.9842 -0.6134  0.5723
20439SOL    HW163324   9.244   0.562   2.305 -1.3217  0.3965  0.4661
20439SOL    HW263325   9.302   0.605   2.171 -0.7810  0.7789  0.8164
20440SOL     OW63326   5.743   1.911   8.666  0.5506 -0.2565 -0.2418
20440SOL    HW163327   5.682   1.963   8.614  0.6089  0.9614  0.8679
20440SOL    HW263328   5.720   1.820   8.645 -2.3671  0.1183  0.8987
20441SOL     OW63329   3.571   2.710   6.098 -0.0402 -0.2253 -0.3533
20441SOL    HW163330   3.574   2.805   6.111  0.6101 -0.1552 -0.9600
20441SOL    HW263331   3.652   2.690   6.051  0.6853 -1.3306  1.2802
20442SOL     OW63332   4.712   2.350   6.536 -0.6335  0.2207 -0.2300
20442SOL    HW163333   4.740   2.435   6.502  1.6854 -0.6164 -0.5938
20442SOL    HW263334   4.766   2.337   6.614  0.4079 -1.6586 -1.1914
20443SOL     OW63335   6.851   8.963   4.359 -0.5381  0.1226  0.0023
20443SOL    HW163336   6.756   8.967   4.343 -0.4533  1.4510 -0.2874
20443SOL    HW263337   6.887   8.918   4.283 -0.9064 -0.1391 -0.0203
20444SOL     OW63338   3.722   7.992   7.358 -0.2689  0.1226  0.3398
20444SOL    HW163339   3.758   8.076   7.327  1.7975 -0.5959  0.6401
20444SOL    HW263340   3.777   7.926   7.317 -0.9871 -1.0430  1.1961
20445SOL     OW63341   3.720   5.684   2.766 -0.0444  0.6242  0.6344
20445SOL    HW163342   3.684   5.739   2.835 -0.6233  0.0783  0.7734
20445SOL    HW263343   3.651   5.679   2.700  1.3814  3.2056 -1.2202
20446SOL     OW63344   2.378   7.584   0.923  0.3481  0.0730  0.1407
20446SOL    HW163345   2.410   7.532   0.850 -2.2581 -0.7452 -0.5378
20446SOL    HW263346   2.439   7.657   0.930  0.9005 -0.0358 -2.6062
20447SOL     OW63347  10.498   8.114   5.807  0.4095  0.0852  0.1286
20447SOL    HW163348  10.493   8.205   5.778 -0.7365  0.7165  2.0800
20447SOL    HW263349  10.489   8.062   5.728  0.0762  1.6702 -0.9137
20448SOL     OW63350   6.131   6.285   1.765 -0.1494 -0.3719  0.1214
20448SOL    HW163351   6.166   6.365   1.805 -1.0493 -0.2410  0.6720
20448SOL    HW263352   6.193   6.264   1.696  1.3631 -0.5106  1.4714
20449SOL     OW63353   0.152   9.684  10.923  0.5984  0.3141  0.1596
20449SOL    HW163354   0.203   9.761  10.948  3.1878 -0.6221 -1.7466
20449SOL    HW263355   0.191   9.612  10.973 -0.9339 -0.0047  0.9530
20450SOL     OW63356   7.588   0.099  10.819  0.0580 -0.0121  0.0560
20450SOL    HW163357   7.522   0.152  10.774 -0.5205 -0.3285  0.5214
20450SOL    HW263358   7.643   0.163  10.866  0.4958  0.3015 -0.8495
20451SOL     OW63359   3.095   6.680   2.685 -0.8657 -0.1100  0.4237
20451SOL    HW163360   3.102   6.627   2.764 -1.2875 -0.1468  0.4364
20451SOL    HW263361   3.031   6.748   2.707 -0.5436  0.2361  0.3109
20452SOL     OW63362   1.279   1.191   3.902  0.3307  0.3642  0.3067
20452SOL    HW163363   1.244   1.221   3.986  0.0249 -1.5416  0.9055
20452SOL    HW263364   1.348   1.129   3.926  0.0542 -0.4217 -0.8325
20453SOL     OW63365   6.376   3.208   9.840  0.1458  0.2535 -0.1467
20453SOL    HW163366   6.461   3.172   9.866  0.2728  1.2252  0.8826
20453SOL    HW263367   6.312   3.155   9.888  0.2248  0.1288 -0.1777
20454SOL     OW63368   7.549   2.936   8.704  0.8723 -0.0677 -0.5879
20454SOL    HW163369   7.570   2.937   8.610  0.5631 -3.3803 -0.8402
20454SOL    HW263370   7.608   2.869   8.740 -1.0531 -1.0451  0.9469
20455SOL     OW63371   6.614   9.107   1.820 -0.5630 -0.1831  0.8949
20455SOL    HW163372   6.582   9.193   1.846  0.2504  0.9779 -1.6118
20455SOL    HW263373   6.553   9.045   1.860 -3.4871  1.7118 -0.3061
20456SOL     OW63374   8.961  10.935   6.760  0.2419 -0.8565 -0.2182
20456SOL    HW163375   8.900  10.929   6.834 -0.8748  4.9086 -0.1929
20456SOL    HW263376   9.045  10.959   6.799  0.6836 -1.6500 -0.6572
20457SOL     OW63377   1.784   5.456   5.470  0.1239 -0.3845  0.7419
20457SOL    HW163378   1.812   5.498   5.552 -0.7887  2.3334 -0.2178
20457SOL    HW263379   1.847   5.386   5.456  1.8306  0.6963  2.4922
20458SOL     OW63380   4.511   1.595  10.421 -0.2448  0.0003 -0.5315
20458SOL    HW163381   4.434   1.569  10.370 -1.6443  3.0419 -0.1759
20458SOL    HW263382   4.489   1.571  10.511 -0.9216  1.0635 -0.3980
20459SOL     OW63383   0.345   0.604   9.509  0.0353 -0.8027  0.2623
20459SOL    HW163384   0.408   0.536   9.483 -0.6963 -0.3353 -3.0518
20459SOL    HW263385   0.271   0.556   9.544  0.6114 -1.5440  0.4984
20460SOL     OW63386   9.020   9.565   6.762 -1.2633  0.4512  0.3863
20460SOL    HW163387   9.064   9.635   6.713 -0.1711 -0.3620  0.1591
20460SOL    HW263388   8.991   9.607   6.843 -0.6606  1.1794  0.2363
20461SOL     OW63389   8.751   4.547   0.020  0.0230 -0.4365 -0.9847
20461SOL    HW163390   8.739   4.534  -0.074  0.8053 -1.5250 -0.9568
20461SOL    HW263391   8.834   4.595   0.028  0.7453 -1.6530 -0.8242
20462SOL     OW63392  10.976   6.425   8.348  0.4614  0.2873 -0.4800
20462SOL    HW163393  10.915   6.354   8.365 -0.1500  1.2663  1.7471
20462SOL    HW263394  10.948   6.462   8.264 -0.2467 -1.0135 -0.8407
20463SOL     OW63395   8.453   4.110   7.983 -0.7555  0.1343 -0.0256
20463SOL    HW163396   8.448   4.047   7.912  2.5576  1.7384 -1.9589
20463SOL    HW263397   8.441   4.058   8.063  3.0534 -3.3999 -1.3610
20464SOL     OW63398   9.691   5.476  10.052  0.2264 -0.3139  0.1234
20464SOL    HW163399   9.731   5.517  10.128 -0.1488 -0.6815  0.5290
20464SOL    HW263400   9.762   5.470   9.988  0.0213  1.9745 -0.3873
20465SOL     OW63401   8.951   7.949   9.560  0.6641  0.4357 -0.8123
20465SOL    HW163402   8.928   7.914   9.474 -0.9104  3.7079 -1.8934
20465SOL    HW263403   9.037   7.989   9.547  0.8197  0.1598 -0.6258
20466SOL     OW63404   7.189   9.812   7.780 -0.0796  0.4537  0.7404
20466SOL    HW163405   7.236   9.735   7.811 -0.6466 -0.5687 -0.8335
20466SOL    HW263406   7.104   9.807   7.823 -1.0762 -1.2726 -1.2476
20467SOL     OW63407   3.153   1.376   3.095  0.6537 -0.0511  1.0491
20467SOL    HW163408   3.114   1.396   3.180 -1.8048 -0.4950  0.1161
20467SOL    HW263409   3.199   1.456   3.069  0.3053  0.5322  2.2013
20468SOL     OW63410   6.816  11.001   6.441  0.0277  0.2737  0.1107
20468SOL    HW163411   6.748  11.030   6.502 -2.7926  0.0141 -2.6268
20468SOL    HW263412   6.850  11.081   6.403 -0.9613  0.3486 -0.6540
20469SOL     OW63413   0.399   9.808   4.680 -0.1334 -0.3859  0.4711
20469SOL    HW163414   0.417   9.750   4.606  1.3652 -1.5022  1.6263
20469SOL    HW263415   0.468   9.787   4.744 -1.3806  0.4959  2.1959
20470SOL     OW63416   7.510   2.534   3.719  0.0080 -0.8872 -0.0983
20470SOL    HW163417   7.516   2.440   3.735  1.7418 -0.7589  0.1975
20470SOL    HW263418   7.586   2.555   3.666 -0.2531  0.3917 -0.0140
20471SOL     OW63419   5.298   5.572   9.771 -0.2801  0.3925  0.3592
20471SOL    HW163420   5.266   5.625   9.844  0.2351  0.2495  0.7024
20471SOL    HW263421   5.224   5.565   9.712 -0.5661  0.9130  0.6420
20472SOL     OW63422  10.604   2.287  11.239 -0.0985 -0.5899 -0.3572
20472SOL    HW163423  10.516   2.278  11.201 -0.2284  0.3677 -0.3030
20472SOL    HW263424  10.589   2.285  11.334 -0.1621  0.3374 -0.3384
20473SOL     OW63425   8.568   9.719   9.590 -0.0986 -0.5167 -0.4205
20473SOL    HW163426   8.535   9.807   9.570 -2.6814 -1.2768  0.1387
20473SOL    HW263427   8.572   9.675   9.506  0.2722 -0.1761 -0.5859
20474SOL     OW63428  11.050   4.315   6.934 -0.2674 -0.1153  0.1761
20474SOL    HW163429  11.089   4.387   6.884  0.1012 -0.0080  0.6145
20474SOL    HW263430  11.116   4.247   6.933  0.1731  0.2858  1.4191
20475SOL     OW63431  10.524   0.261   2.536  0.0840  0.0906  0.0210
20475SOL    HW163432  10.598   0.316   2.563 -1.3941  1.2383  1.9866
20475SOL    HW263433  10.447   0.305   2.573 -1.2815 -2.7884  0.8206
20476SOL     OW63434   6.830   1.203   2.838 -0.0918 -0.1549  0.4403
20476SOL    HW163435   6.899   1.246   2.890  0.2518 -1.5854  1.2231
20476SOL    HW263436   6.790   1.274   2.788 -0.1925  1.2400  2.4002
20477SOL     OW63437   9.731   3.750   7.300 -0.0334  0.2309  0.1874
20477SOL    HW163438   9.766   3.838   7.283  0.9957 -0.6583 -3.0609
20477SOL    HW263439   9.808   3.698   7.323 -0.0982 -0.4191 -0.9619
20478SOL     OW63440   2.379   3.028   4.616 -0.0181  0.3593  0.0189
20478SOL    HW163441   2.398   3.086   4.689 -1.2072  1.9518 -0.8642
20478SOL    HW263442   2.429   3.065   4.543  0.0076 -0.3389 -0.3256
20479SOL     OW63443   7.712   2.052   7.809 -1.1506 -0.9440  0.2567
20479SOL    HW163444   7.787   2.011   7.767  0.2077  1.7147 -0.1638
20479SOL    HW263445   7.750   2.109   7.876 -2.8688 -0.4462  0.8646
20480SOL     OW63446   8.348   4.927   1.437  0.2463  0.0059  0.5503
20480SOL    HW163447   8.254   4.944   1.427  0.5654  1.7996  0.1615
20480SOL    HW263448   8.356   4.886   1.523 -0.9978 -1.3281  0.0732
20481SOL     OW63449   8.206   0.944   3.837  0.2125 -0.6969 -0.5211
20481SOL    HW163450   8.112   0.934   3.822  0.1297  0.5488 -0.9691
20481SOL    HW263451   8.242   0.856   3.824 -0.3445 -0.5211 -4.8003
20482SOL     OW63452   5.550   9.548   1.718  0.7807 -0.7879  0.1310
20482SOL    HW163453   5.511   9.467   1.684 -1.7064  0.9896 -1.6550
20482SOL    HW263454   5.496   9.571   1.793 -0.4306  0.6414 -1.1210
20483SOL     OW63455   0.993   5.849   4.653  0.1499 -0.2359 -0.7961
20483SOL    HW163456   1.015   5.888   4.738 -0.8284  0.7720 -0.9773
20483SOL    HW263457   0.897   5.850   4.651  0.1650 -0.0777 -1.9759
20484SOL     OW63458   3.986   6.896   2.959 -0.2332 -0.1573 -0.7756
20484SOL    HW163459   3.943   6.973   2.923 -0.5488  0.3748  0.6655
20484SOL    HW263460   4.051   6.931   3.019  0.3561 -1.0024 -0.9122
20485SOL     OW63461   2.912   8.712   4.472 -0.4739 -0.8036  0.0157
20485SOL    HW163462   2.905   8.769   4.548 -0.3728  0.6792 -1.0391
20485SOL    HW263463   2.831   8.726   4.424 -0.1355 -0.9803 -0.6242
20486SOL     OW63464   3.890   8.189   5.847 -0.0255  0.7655 -0.1401
20486SOL    HW163465   3.975   8.181   5.889 -0.1162  1.4164  0.1829
20486SOL    HW263466   3.880   8.108   5.797  0.4867  0.3865  0.3560
20487SOL     OW63467   7.669   5.270   8.167  0.8011  0.0750 -0.2366
20487SOL    HW163468   7.602   5.256   8.099  0.8725 -1.3879 -0.0469
20487SOL    HW263469   7.623   5.313   8.238  0.3820  0.2989 -0.6359
20488SOL     OW63470   1.183   3.078   4.143  0.3568 -0.0128 -0.2930
20488SOL    HW163471   1.224   3.019   4.080  1.9011  1.7346 -1.0220
20488SOL    HW263472   1.115   3.123   4.094  1.7231  1.5292 -0.8818
20489SOL     OW63473  10.890   7.772   9.563 -0.6117  0.0316 -0.0261
20489SOL    HW163474  10.938   7.852   9.586 -0.2264 -0.4446  0.8630
20489SOL    HW263475  10.831   7.800   9.493  2.0057  0.2991 -2.3198
20490SOL     OW63476   8.207   2.036   9.774  0.6945  0.1754 -0.1647
20490SOL    HW163477   8.115   2.064   9.768  0.8201  0.4479 -0.9580
20490SOL    HW263478   8.219   2.011   9.866 -0.5240 -1.0517 -0.2967
20491SOL     OW63479   7.285   7.789   8.778 -0.1527  0.3257  0.4397
20491SOL    HW163480   7.237   7.764   8.858 -0.7045  1.5724  0.5142
20491SOL    HW263481   7.373   7.809   8.808 -0.0277 -0.3505  0.5490
20492SOL     OW63482   1.948   2.667   1.907  0.7143 -0.9112 -0.0325
20492SOL    HW163483   1.877   2.636   1.963 -0.6263 -1.1746 -1.7925
20492SOL    HW263484   2.027   2.651   1.958 -0.3725 -1.9380  1.4207
20493SOL     OW63485   6.552   0.168  10.422 -0.4339 -0.2105 -0.3722
20493SOL    HW163486   6.495   0.227  10.371 -2.6713 -2.2210 -0.4125
20493SOL    HW263487   6.569   0.215  10.503 -2.0340  0.5830 -0.4524
20494SOL     OW63488   9.067   3.028  11.268  0.2746  0.7422 -0.0703
20494SOL    HW163489   9.061   3.087  11.343  2.6261 -0.5313  1.2535
20494SOL    HW263490   8.995   2.966  11.279  2.0957 -1.0693  2.7807
20495SOL     OW63491  10.834   5.779   1.835 -0.4584 -0.6272 -0.4704
20495SOL    HW163492  10.819   5.698   1.785 -1.5749 -0.7687  0.0796
20495SOL    HW263493  10.748   5.821   1.840 -0.1033  0.0438  0.2050
20496SOL     OW63494   2.695   3.668   9.470  0.1453  0.4498 -0.3734
20496SOL    HW163495   2.672   3.761   9.463 -2.6109  0.0454  1.6343
20496SOL    HW263496   2.632   3.632   9.532  0.6969 -2.9391 -1.5420
20497SOL     OW63497   8.747   9.449   5.999  0.3624  0.1664  0.1298
20497SOL    HW163498   8.671   9.479   5.949  1.3301  1.8590 -0.4125
20497SOL    HW263499   8.820   9.457   5.938  1.1708 -0.2155  1.0248
20498SOL     OW63500   2.504   6.636  10.765  0.1854  0.1157 -0.1710
20498SOL    HW163501   2.589   6.596  10.750 -0.3329 -0.3054 -2.2425
20498SOL    HW263502   2.496   6.704  10.698 -1.2729 -0.1382 -0.3002
20499SOL     OW63503   9.963   3.227   8.898  0.2450 -0.2565 -0.2230
20499SOL    HW163504   9.917   3.155   8.942 -0.0880 -0.7441 -1.3046
20499SOL    HW263505  10.052   3.194   8.886  0.9150  0.6571  1.8033
20500SOL     OW63506   8.636   6.349   6.593 -0.2194  0.3440 -0.8601
20500SOL    HW163507   8.698   6.326   6.663  0.7104  1.8467 -1.1361
20500SOL    HW263508   8.550   6.346   6.635  0.4826  4.8840  1.6174
20501SOL     OW63509   7.136   3.808   7.792  0.1190 -0.3403  0.7923
20501SOL    HW163510   7.123   3.800   7.697  0.7769  1.2048  0.5361
20501SOL    HW263511   7.055   3.846   7.824  0.0437 -0.4964  0.7856
20502SOL     OW63512   0.374   3.284   3.717  0.5202  0.4353  0.5823
20502SOL    HW163513   0.422   3.363   3.743  1.1711  0.2368  0.0253
20502SOL    HW263514   0.323   3.312   3.641  0.6342  0.3607  0.4776
20503SOL     OW63515   2.544   3.579   9.770 -0.3152 -0.2690  0.0446
20503SOL    HW163516   2.498   3.663   9.771 -1.2624 -0.7751  0.2276
20503SOL    HW263517   2.561   3.560   9.862  2.4785  1.0584 -0.0948
20504SOL     OW63518   5.982   5.316   0.557  0.1167 -0.2380  0.0480
20504SOL    HW163519   5.941   5.402   0.555  0.0277 -0.2994 -1.1089
20504SOL    HW263520   6.023   5.311   0.644 -0.5759  0.6325  0.4329
20505SOL     OW63521   7.037   4.778  10.838  0.2256 -0.4279 -0.6331
20505SOL    HW163522   7.124   4.744  10.858 -0.5909 -1.9808  0.4681
20505SOL    HW263523   6.983   4.700  10.826 -1.7077  0.4023  1.8615
20506SOL     OW63524   9.373   6.216   9.851 -0.3899  0.1845  0.1412
20506SOL    HW163525   9.397   6.195   9.941 -1.5065  0.4468  0.5089
20506SOL    HW263526   9.384   6.310   9.844  2.9359 -0.1463 -1.0099
20507SOL     OW63527   3.729   2.035  10.633 -0.5872 -0.4525  0.5995
20507SOL    HW163528   3.811   2.085  10.635 -0.4959 -0.2529 -2.7713
20507SOL    HW263529   3.755   1.947  10.609 -1.2959 -0.5595  0.1893
20508SOL     OW63530   6.073   7.972   6.049 -0.3767  1.0635 -0.1775
20508SOL    HW163531   6.100   8.014   5.968  3.0089  0.6082  0.5745
20508SOL    HW263532   6.120   8.019   6.118  0.3552 -1.2907  1.0554
20509SOL     OW63533   8.137   1.390   2.176 -0.3667  0.0910  0.0256
20509SOL    HW163534   8.053   1.391   2.128 -1.6397  0.3494  2.1359
20509SOL    HW263535   8.134   1.310   2.229  0.2869  0.5886  0.8399
20510SOL     OW63536   6.738   2.198   7.408  0.6460 -0.3604  0.4649
20510SOL    HW163537   6.802   2.174   7.475  2.9146  0.4485 -1.2588
20510SOL    HW263538   6.664   2.234   7.456  1.9152 -0.3744  2.5410
20511SOL     OW63539   3.512   8.949   8.036  0.3397  0.2074  0.2017
20511SOL    HW163540   3.548   8.918   8.119 -0.1660 -1.4494 -0.1664
20511SOL    HW263541   3.418   8.955   8.051  0.2936  0.3325 -0.1195
20512SOL     OW63542   0.993   9.717   0.159 -0.8436 -0.1673  0.3300
20512SOL    HW163543   0.992   9.782   0.229 -2.0210  1.4850 -1.1248
20512SOL    HW263544   0.901   9.694   0.145 -0.4672 -2.2146  0.7984
20513SOL     OW63545   3.642  10.463   1.539 -0.1448 -0.4221  0.0066
20513SOL    HW163546   3.553  10.464   1.504  0.1430  0.3940 -0.7415
20513SOL    HW263547   3.692  10.414   1.474 -0.4278 -2.8263  1.4881
20514SOL     OW63548   3.015   7.825   5.669 -0.0021 -0.5757 -0.6183
20514SOL    HW163549   2.973   7.806   5.753 -1.1172 -1.0269 -1.2643
20514SOL    HW263550   2.943   7.850   5.611  0.7762 -0.0892 -1.3963
20515SOL     OW63551   5.303   8.850   9.841  0.7468 -0.0143  0.1706
20515SOL    HW163552   5.220   8.851   9.890  1.2505  0.0802  1.0459
20515SOL    HW263553   5.294   8.921   9.777  0.1127 -0.0760  0.1869
20516SOL     OW63554   7.844   6.852   9.607 -0.4726  0.5063  0.1289
20516SOL    HW163555   7.937   6.830   9.603 -0.4215  0.5345  0.9356
20516SOL    HW263556   7.800   6.767   9.610 -0.5116  0.4852 -0.7817
20517SOL     OW63557   8.894   1.337   8.961 -0.2575 -0.0204  0.1224
20517SOL    HW163558   8.861   1.316   8.873  0.7055 -0.3844 -0.1682
20517SOL    HW263559   8.970   1.280   8.971 -0.8841 -0.6565  1.5635
20518SOL     OW63560   7.419   1.606   9.473 -0.6163 -0.5254 -0.8765
20518SOL    HW163561   7.487   1.647   9.420 -0.6782 -1.3905 -1.6669
20518SOL    HW263562   7.413   1.660   9.551 -0.4286  0.7173 -1.6964
20519SOL     OW63563   4.615   4.864   7.445 -0.1309  0.2591 -0.7296
20519SOL    HW163564   4.571   4.932   7.394  0.7989  0.3648 -1.4210
20519SOL    HW263565   4.588   4.782   7.403 -0.1160  0.2883 -0.7955
20520SOL     OW63566   1.397   9.716   3.266 -0.5196 -0.3127 -0.4816
20520SOL    HW163567   1.433   9.769   3.337  3.4746 -1.4973 -1.3996
20520SOL    HW263568   1.365   9.780   3.202  1.6519  1.0238 -0.3448
20521SOL     OW63569   0.659   7.676  11.258 -0.6468  0.5594 -0.5457
20521SOL    HW163570   0.749   7.644  11.254 -1.6574 -2.8643  0.1419
20521SOL    HW263571   0.655   7.730  11.337  1.0219  1.8417 -1.2858
20522SOL     OW63572   5.794   6.650   6.244  0.0496 -0.3491 -0.3149
20522SOL    HW163573   5.880   6.690   6.232 -0.3808  0.1374 -2.0294
20522SOL    HW263574   5.737   6.695   6.181 -2.0906  1.0688  2.4318
20523SOL     OW63575   3.106   1.627   5.213 -0.3338 -0.7416 -0.6387
20523SOL    HW163576   3.159   1.646   5.291 -2.5160 -2.0438  1.3120
20523SOL    HW263577   3.167   1.586   5.152  1.3282 -0.3285  0.6527
20524SOL     OW63578   2.362   9.996   5.511 -0.1880 -0.5151  0.1356
20524SOL    HW163579   2.416  10.070   5.539  3.1180 -2.6096 -0.0627
20524SOL    HW263580   2.377   9.929   5.577 -2.9592 -1.1487  0.2313
20525SOL     OW63581   0.429   1.749   9.736 -0.3932 -0.0168 -0.2221
20525SOL    HW163582   0.429   1.831   9.785  1.3581 -0.6126  0.8824
20525SOL    HW263583   0.490   1.765   9.664 -1.0932  0.0662 -0.8077
20526SOL     OW63584   7.961   6.412   1.347  0.4159 -0.3513  0.0988
20526SOL    HW163585   7.897   6.343   1.329 -0.6732  0.2918  1.3245
20526SOL    HW263586   7.908   6.490   1.365  1.5152  0.1280  1.4671
20527SOL     OW63587   2.492  10.776   7.215  0.1787  0.0493 -0.4816
20527SOL    HW163588   2.525  10.788   7.126 -1.1883 -0.0271 -1.0216
20527SOL    HW263589   2.479  10.682   7.224  0.1117  0.0771 -0.2706
20528SOL     OW63590   1.664   2.437   8.211  0.4535  0.1362 -0.0711
20528SOL    HW163591   1.587   2.466   8.260 -0.6778 -0.2632 -1.5162
20528SOL    HW263592   1.647   2.466   8.121  1.6511 -0.6054 -0.5624
20529SOL     OW63593  11.231   0.084  10.690  0.0922 -0.2858 -0.0999
20529SOL    HW163594  11.254   0.163  10.739  2.1445 -0.3109 -0.8984
20529SOL    HW263595  11.231   0.112  10.599 -0.8186 -0.8570 -0.2819
20530SOL     OW63596   8.759   0.388   1.484 -0.4993 -0.6561 -0.0861
20530SOL    HW163597   8.787   0.376   1.574  0.1667 -0.4943 -0.2670
20530SOL    HW263598   8.686   0.450   1.489  1.3889  1.6376  0.0905
20531SOL     OW63599   6.046   1.048   1.825 -0.3401  0.4165  0.8282
20531SOL    HW163600   6.122   1.014   1.873 -1.6229  0.3130  2.8955
20531SOL    HW263601   6.008   0.971   1.783  0.0991  0.2845  0.6700
20532SOL     OW63602   0.892   1.408   1.268  0.2290  0.2138 -0.1337
20532SOL    HW163603   0.921   1.485   1.219 -0.2974 -0.2100 -1.1399
20532SOL    HW263604   0.957   1.341   1.247 -1.1417 -0.6144 -2.0574
20533SOL     OW63605   6.344   0.386   8.506  0.6792  0.2397 -0.2451
20533SOL    HW163606   6.400   0.345   8.441 -1.4757 -2.1171 -0.8072
20533SOL    HW263607   6.258   0.391   8.464 -0.1055  1.4993  1.3746
20534SOL     OW63608  10.224   6.099   2.650 -0.1736 -0.6096 -0.6073
20534SOL    HW163609  10.305   6.151   2.647 -0.8499  0.4683 -0.5710
20534SOL    HW263610  10.171   6.140   2.718  1.0288 -4.0493  2.7384
20535SOL     OW63611   2.151  11.244   1.392 -0.6960 -0.4100 -0.0967
20535SOL    HW163612   2.196  11.195   1.324  1.7093  0.8315  0.4899
20535SOL    HW263613   2.219  11.264   1.457 -2.1418  1.3790  0.9768
20536SOL     OW63614   9.471   8.967  10.325  0.1583  0.0140  1.6452
20536SOL    HW163615   9.537   8.965  10.255  0.0637 -2.1654  1.5308
20536SOL    HW263616   9.440   9.057  10.327  2.3235  0.8363  0.9275
20537SOL     OW63617   2.314   6.546   4.987  0.6440  0.3075  0.1356
20537SOL    HW163618   2.375   6.610   4.949 -0.4655  1.8208  0.7796
20537SOL    HW263619   2.263   6.515   4.913  1.7987 -0.5482 -0.3237
20538SOL     OW63620   3.275   0.440  10.863 -0.5181  0.5059  0.0361
20538SOL    HW163621   3.275   0.382  10.938  0.2987  0.4420 -0.0012
20538SOL    HW263622   3.183   0.454  10.842 -0.7201 -0.6330  0.1466
20539SOL     OW63623   2.062   4.154   0.955 -0.3195 -0.8361  0.0247
20539SOL    HW163624   2.102   4.081   1.002  2.6954 -0.0077 -0.9875
20539SOL    HW263625   2.039   4.117   0.869  0.6019 -0.7946 -0.2551
20540SOL     OW63626   0.301   9.398  10.685 -0.4198 -0.0058 -0.7976
20540SOL    HW163627   0.273   9.489  10.686 -1.3956 -0.3042 -0.2325
20540SOL    HW263628   0.363   9.391  10.757 -1.9122 -0.2525  0.5063
20541SOL     OW63629   0.910   2.486   8.022  0.7753  0.0358 -0.7872
20541SOL    HW163630   0.881   2.481   7.930 -0.5253  0.5981 -0.4288
20541SOL    HW263631   0.945   2.399   8.040 -2.0643 -1.2334 -0.8633
20542SOL     OW63632   3.594   0.787  10.393 -0.0844 -0.0996  0.2195
20542SOL    HW163633   3.539   0.837  10.453 -1.4479 -1.0923 -0.1486
20542SOL    HW263634   3.640   0.724  10.449 -0.7526 -0.4943  0.3385
20543SOL     OW63635   6.350   6.241   2.891 -0.0131  0.4549 -0.0990
20543SOL    HW163636   6.391   6.215   2.809 -0.6451  0.4973 -0.4336
20543SOL    HW263637   6.388   6.182   2.956 -0.2546 -0.2549 -0.5881
20544SOL     OW63638   2.452   6.119   2.520  0.8034 -0.4456 -0.0988
20544SOL    HW163639   2.389   6.062   2.475 -0.5643  1.1839 -0.3701
20544SOL    HW263640   2.516   6.142   2.454 -1.5168  2.4182 -1.6137
20545SOL     OW63641   2.702   4.881  10.993  0.1097 -0.2199  0.1103
20545SOL    HW163642   2.653   4.952  11.035  0.3373  1.0474 -1.6570
20545SOL    HW263643   2.657   4.801  11.021 -1.4689  0.7515  0.4767
20546SOL     OW63644   4.537   2.820   1.348 -0.0461  0.3543 -0.5267
20546SOL    HW163645   4.614   2.832   1.403 -0.5728  0.0349  0.3095
20546SOL    HW263646   4.538   2.727   1.325 -0.7834  0.0884  0.4442
20547SOL     OW63647   5.716   9.358  10.701 -1.0440  0.1014  0.6713
20547SOL    HW163648   5.721   9.283  10.760  1.5963 -0.1129  0.3290
20547SOL    HW263649   5.725   9.434  10.758 -1.4987  0.0539  0.8098
20548SOL     OW63650   7.827   4.288   9.330 -0.3757 -0.1734  0.1428
20548SOL    HW163651   7.813   4.196   9.309  1.2199 -0.8406  1.8346
20548SOL    HW263652   7.745   4.315   9.372 -0.0212 -1.5012  1.7753
20549SOL     OW63653   2.583   0.648   9.527  0.2912 -1.0555 -0.3233
20549SOL    HW163654   2.510   0.595   9.560 -1.6551  1.6691  0.0057
20549SOL    HW263655   2.543   0.729   9.497  3.2096  0.6450 -0.0189
20550SOL     OW63656   9.600   1.453   7.710  0.3715 -0.2702 -0.0170
20550SOL    HW163657   9.632   1.363   7.706  1.0350 -0.0418  0.0516
20550SOL    HW263658   9.641   1.490   7.787  1.9464  0.7727 -1.2970
20551SOL     OW63659   2.680   4.977   6.415  0.2160 -0.5165  0.0923
20551SOL    HW163660   2.655   4.991   6.506 -0.5953  0.4201 -0.2530
20551SOL    HW263661   2.601   4.942   6.374  0.7635 -1.5414 -0.1368
20552SOL     OW63662   9.585   8.101   7.929  0.0873 -0.5076 -0.6019
20552SOL    HW163663   9.576   8.078   7.836  2.1705 -0.2334 -0.9404
20552SOL    HW263664   9.647   8.175   7.929 -0.9419  0.4188  0.9329
20553SOL     OW63665   3.410   5.812  10.592 -0.0580 -0.4391  0.1038
20553SOL    HW163666   3.396   5.738  10.651 -0.0310 -1.4284 -1.0911
20553SOL    HW263667   3.454   5.877  10.646 -0.9565 -0.8985  1.4493
20554SOL     OW63668   1.347   9.998   2.429  0.7272 -0.2257 -0.1310
20554SOL    HW163669   1.319  10.043   2.349  1.3244  0.0071 -0.2126
20554SOL    HW263670   1.425  10.045   2.457  1.9162 -1.7358 -0.7102
20555SOL     OW63671   2.015   4.460   5.129  0.4415  0.1957  0.2523
20555SOL    HW163672   2.016   4.378   5.178 -0.0574  0.1687  0.2252
20555SOL    HW263673   1.950   4.514   5.174 -0.3445  0.0107 -0.6139
20556SOL     OW63674  11.124   5.813   7.877 -0.1683  0.0240 -0.4217
20556SOL    HW163675  11.197   5.758   7.849 -0.0595 -0.2263  0.3307
20556SOL    HW263676  11.047   5.756   7.872  0.2563 -1.0457  2.6571
20557SOL     OW63677   5.054   6.302   2.423 -0.6138  0.4423  0.1400
20557SOL    HW163678   5.060   6.217   2.380 -2.4527 -0.1997  1.0391
20557SOL    HW263679   5.022   6.361   2.354 -2.6392 -0.3727  0.3034
20558SOL     OW63680   7.920   3.393   0.453 -0.0398  0.6326  0.2864
20558SOL    HW163681   7.881   3.412   0.539 -0.3743  2.1701 -0.1890
20558SOL    HW263682   7.858   3.428   0.390  0.7595  0.5376 -0.5725
20559SOL     OW63683   7.513   2.485   0.469 -0.1121 -0.3791  0.0725
20559SOL    HW163684   7.505   2.513   0.561  3.3413 -2.6541  1.2803
20559SOL    HW263685   7.498   2.391   0.472  1.6300 -0.7407 -1.3766
20560SOL     OW63686   6.765   3.618   2.167  0.6613  0.1352 -0.3928
20560SOL    HW163687   6.761   3.611   2.071 -1.2356  2.0807 -0.5248
20560SOL    HW263688   6.808   3.701   2.183 -1.4025  1.1331  0.3211
20561SOL     OW63689   0.308   5.892   7.955 -0.0792  0.5779 -0.0622
20561SOL    HW163690   0.314   5.865   7.863 -2.5305 -0.5192  0.0185
20561SOL    HW263691   0.215   5.902   7.971  0.2120 -0.1725  2.5660
20562SOL     OW63692   1.149   0.562   3.757 -0.4637 -0.4400  0.2619
20562SOL    HW163693   1.075   0.602   3.803 -2.6567 -1.5053 -2.0694
20562SOL    HW263694   1.165   0.620   3.683 -1.0572 -1.7635 -0.9484
20563SOL     OW63695   2.631  11.061   0.327 -0.6138 -0.2680  0.0715
20563SOL    HW163696   2.650  11.100   0.242  4.7883  0.1094  1.1043
20563SOL    HW263697   2.640  10.967   0.313  0.9575 -0.1728  0.2282
20564SOL     OW63698   0.895   3.488   3.339  0.3856  0.0242  0.2377
20564SOL    HW163699   0.831   3.505   3.408  0.7382 -0.0928  0.5972
20564SOL    HW263700   0.842   3.473   3.261  0.0040  0.7847  0.3407
20565SOL     OW63701   4.130   3.017   1.477 -0.3440  0.5675 -0.1365
20565SOL    HW163702   4.118   3.087   1.413 -0.0899  0.5037 -0.2514
20565SOL    HW263703   4.128   2.936   1.425  0.5409  0.5473 -0.1529
20566SOL     OW63704  11.182   2.652   2.485  0.9292  0.7059 -0.5394
20566SOL    HW163705  11.176   2.627   2.577  0.4649  0.6793 -0.5743
20566SOL    HW263706  11.113   2.601   2.442  1.8697 -0.1360 -1.0934
20567SOL     OW63707  11.143   0.602   6.542 -0.4652  0.6222 -0.3913
20567SOL    HW163708  11.174   0.547   6.614 -0.0528 -0.0363 -1.0550
20567SOL    HW263709  11.118   0.684   6.584 -0.1884  0.2692  0.4965
20568SOL     OW63710   0.770  10.862   8.870  0.6729  0.2432 -0.0899
20568SOL    HW163711   0.829  10.928   8.907 -0.6580  2.7247 -2.0453
20568SOL    HW263712   0.699  10.913   8.831 -0.4706 -2.3875 -1.7453
20569SOL     OW63713   4.028   5.818   2.905 -0.8647  0.5026  0.4195
20569SOL    HW163714   4.098   5.847   2.846 -1.1738 -0.6648 -0.5511
20569SOL    HW263715   3.974   5.759   2.852 -2.3299  1.0095  1.2897
20570SOL     OW63716   1.742   0.323   9.132  0.6266  0.0671  0.2477
20570SOL    HW163717   1.723   0.354   9.220  1.7800 -1.0775  0.9260
20570SOL    HW263718   1.762   0.403   9.082 -0.4133  0.7577  0.8933
20571SOL     OW63719   2.093   0.468   9.558 -0.2983 -0.0232 -0.1758
20571SOL    HW163720   2.106   0.374   9.572  0.4473  0.1442  0.3164
20571SOL    HW263721   2.041   0.473   9.478 -0.0301 -0.8458 -0.4171
20572SOL     OW63722   6.699   9.236   5.482  0.3895  0.1349 -0.2101
20572SOL    HW163723   6.662   9.148   5.479 -0.1189  0.2664  1.2518
20572SOL    HW263724   6.684   9.272   5.395 -0.3901 -0.8280 -0.4837
20573SOL     OW63725   5.931   2.467   3.306 -0.2152 -0.1567 -0.3664
20573SOL    HW163726   5.922   2.387   3.255  1.0205 -0.7474  0.2913
20573SOL    HW263727   5.848   2.514   3.293  0.2036 -0.0573 -3.2598
20574SOL     OW63728  10.224   1.082   9.964 -0.2788 -0.0635 -0.2113
20574SOL    HW163729  10.260   1.112  10.047  4.4197 -4.2195 -0.3120
20574SOL    HW263730  10.274   1.130   9.897 -0.3809 -0.4029 -0.5351
20575SOL     OW63731  10.079   3.477   0.594 -0.5886 -0.1714 -0.5500
20575SOL    HW163732  10.073   3.519   0.680  1.9033  0.1151 -0.4577
20575SOL    HW263733  10.087   3.550   0.533 -1.6088 -0.4022 -0.9773
20576SOL     OW63734   1.418   7.799   7.660 -0.5747  0.0146 -0.1973
20576SOL    HW163735   1.466   7.858   7.601 -1.3297  0.9203  0.0895
20576SOL    HW263736   1.413   7.847   7.742 -1.3338 -0.3909 -0.0085
20577SOL     OW63737   4.646   7.054   9.437  0.3936  0.2711 -0.0638
20577SOL    HW163738   4.646   6.971   9.485  2.4203  0.2246 -0.0438
20577SOL    HW263739   4.580   7.107   9.481  0.7605 -0.4858  1.4870
20578SOL     OW63740   7.299   3.931   8.147 -0.5020  0.2234  0.1468
20578SOL    HW163741   7.380   3.965   8.111 -0.5351  0.1414 -0.0086
20578SOL    HW263742   7.317   3.838   8.163 -0.0839  0.5067  1.5142
20579SOL     OW63743   8.724   2.710   8.352 -0.3663 -0.2357 -0.2880
20579SOL    HW163744   8.683   2.720   8.438 -0.4951  1.5224 -0.5093
20579SOL    HW263745   8.651   2.706   8.291 -0.2697  0.9921 -0.5109
20580SOL     OW63746   9.421   6.775   3.285 -0.1141 -0.1455 -0.2819
20580SOL    HW163747   9.508   6.736   3.294 -0.5927 -1.1737  0.0079
20580SOL    HW263748   9.370   6.710   3.238 -0.5075  0.8159 -1.2258
20581SOL     OW63749   9.992   5.325   8.064 -0.2224 -0.0076  0.4194
20581SOL    HW163750   9.935   5.250   8.086  0.6136 -1.3676 -1.7440
20581SOL    HW263751   9.934   5.401   8.069 -1.3431 -0.8894  1.7052
20582SOL     OW63752   8.952   7.431   5.359 -0.5761  0.6291  0.3650
20582SOL    HW163753   8.915   7.455   5.274 -0.9024  3.5222  1.2003
20582SOL    HW263754   9.031   7.486   5.366  1.6514 -2.3402  0.3889
20583SOL     OW63755   1.542   1.840   6.580 -0.2521 -0.3550  0.2874
20583SOL    HW163756   1.581   1.920   6.615  1.7885 -0.5885 -1.2510
20583SOL    HW263757   1.513   1.791   6.658 -0.5839  1.3699  1.3023
20584SOL     OW63758   0.570   0.869  10.849  0.1814  0.0660 -0.0623
20584SOL    HW163759   0.582   0.792  10.794  0.0989 -0.5315  0.7349
20584SOL    HW263760   0.502   0.843  10.912 -0.9815  1.3254 -0.7563
20585SOL     OW63761   4.859   6.144  10.321 -0.6092 -0.3708  0.1033
20585SOL    HW163762   4.882   6.144  10.229 -2.2914 -1.6929 -0.3711
20585SOL    HW263763   4.935   6.104  10.365 -0.0240 -0.2359 -0.7623
20586SOL     OW63764   6.800   8.167   1.983 -0.5493 -0.5402 -0.2904
20586SOL    HW163765   6.812   8.155   2.078 -1.5709  1.2219  0.1160
20586SOL    HW263766   6.867   8.231   1.958 -1.1401  0.0200 -0.4671
20587SOL     OW63767   7.332  11.167  10.772 -0.1527 -0.2265 -0.1961
20587SOL    HW163768   7.386  11.088  10.775 -0.8736 -0.7077  0.8751
20587SOL    HW263769   7.299  11.177  10.861 -0.3297  1.1176 -0.3901
20588SOL     OW63770  10.635   6.692   6.934 -0.1595 -0.1289 -0.3662
20588SOL    HW163771  10.564   6.664   6.877 -1.6506 -1.5424  2.0439
20588SOL    HW263772  10.675   6.766   6.888 -3.6830  1.2539 -1.4927
20589SOL     OW63773   2.450   1.082   2.590  0.8173  1.2417  0.4343
20589SOL    HW163774   2.432   1.159   2.536  1.4518  0.8016 -0.4267
20589SOL    HW263775   2.425   1.109   2.679 -0.9643  1.7299 -0.1638
20590SOL     OW63776   2.845   6.084   3.183  0.3105  0.5188  0.1622
20590SOL    HW163777   2.912   6.076   3.115  0.5324 -0.4950  0.4822
20590SOL    HW263778   2.893   6.114   3.260  0.2958  0.3391  0.2410
20591SOL     OW63779  10.304   5.420   5.783 -0.0417  0.4302  0.5187
20591SOL    HW163780  10.268   5.457   5.863 -0.0910  2.2340 -0.2874
20591SOL    HW263781  10.228   5.385   5.736 -0.4852  2.0654 -0.0697
20592SOL     OW63782   4.072   6.606  10.907  0.5924 -0.1102 -0.0940
20592SOL    HW163783   4.063   6.552  10.985  0.1107 -0.8419 -0.6459
20592SOL    HW263784   4.084   6.695  10.940  3.2661 -0.7396  0.8896
20593SOL     OW63785   3.259   7.565   5.379  0.2981  0.3843 -0.6176
20593SOL    HW163786   3.246   7.658   5.361 -0.1269  0.2901 -0.8172
20593SOL    HW263787   3.353   7.550   5.365  0.4634  0.8863 -0.0762
20594SOL     OW63788   2.100   9.893   6.605  1.1297 -0.3747  0.0715
20594SOL    HW163789   2.167   9.934   6.660  3.2790 -2.0912 -1.0672
20594SOL    HW263790   2.149   9.857   6.531 -0.9887 -2.2632 -0.5324
20595SOL     OW63791   5.125   8.502   2.993 -0.4121  0.5546  0.3197
20595SOL    HW163792   5.105   8.472   3.081 -0.1122  1.1364  0.5949
20595SOL    HW263793   5.220   8.501   2.988 -0.4449 -0.1821 -0.2568
20596SOL     OW63794   9.466   3.488   4.942 -0.0567 -0.0302 -0.3482
20596SOL    HW163795   9.523   3.513   5.014 -2.5981  1.3716  1.3441
20596SOL    HW263796   9.466   3.562   4.882  0.0704 -0.1175 -0.4563
20597SOL     OW63797   5.787   8.278   4.507 -0.1317  0.0280 -0.1997
20597SOL    HW163798   5.691   8.270   4.507 -0.1410 -2.3138  3.2091
20597SOL    HW263799   5.809   8.293   4.599  2.8777 -2.2974 -0.3882
20598SOL     OW63800   1.727   7.700   0.702  0.2089 -0.1449  0.5380
20598SOL    HW163801   1.783   7.623   0.691 -0.7367 -0.5969 -1.5916
20598SOL    HW263802   1.784   7.774   0.683  1.0732 -0.2843  2.3920
20599SOL     OW63803   8.781   4.471   9.900  0.6459  0.1004  0.2464
20599SOL    HW163804   8.744   4.522   9.973 -3.2286  0.0542 -1.4247
20599SOL    HW263805   8.822   4.537   9.844 -2.1313  1.2140 -0.6507
20600SOL     OW63806   4.547  11.104   9.464 -0.0491  0.2057  0.5215
20600SOL    HW163807   4.471  11.116   9.407 -0.3796  1.0588  1.1380
20600SOL    HW263808   4.522  11.144   9.547  0.1308 -1.6809  1.5487
20601SOL     OW63809   0.246   5.594   8.916 -0.2410  0.4535 -0.1446
20601SOL    HW163810   0.157   5.629   8.922 -1.1516 -1.8645  1.1398
20601SOL    HW263811   0.240   5.525   8.851  0.7588  0.6005 -0.4048
20602SOL     OW63812   5.082  10.539   2.076  0.2233 -0.2213  0.3095
20602SOL    HW163813   5.146  10.610   2.087 -0.8101  0.6419  0.8590
20602SOL    HW263814   5.107  10.498   1.993  0.8043  0.8243 -0.0552
20603SOL     OW63815   7.481  10.607   6.515  0.0116  0.2520  0.2170
20603SOL    HW163816   7.532  10.645   6.587  0.9007  0.5936 -0.5798
20603SOL    HW263817   7.464  10.517   6.543 -0.3599  0.6145  1.2105
20604SOL     OW63818   0.362   4.671   0.892 -0.0886  0.0217  0.1117
20604SOL    HW163819   0.402   4.591   0.925  1.9262  1.3691  1.0638
20604SOL    HW263820   0.435   4.730   0.875 -1.3346  0.9392 -2.7293
20605SOL     OW63821  11.238   4.403   8.158  0.2637 -0.3935 -0.3227
20605SOL    HW163822  11.154   4.444   8.178  0.5228  0.8794 -1.7002
20605SOL    HW263823  11.221   4.349   8.081  0.0972 -2.4064  1.0568
20606SOL     OW63824   2.092   3.717   9.763 -0.0242 -0.5948 -0.0818
20606SOL    HW163825   2.070   3.628   9.736 -0.9906  0.0689 -1.6043
20606SOL    HW263826   2.030   3.773   9.717  0.5905  0.8893  0.8024
20607SOL     OW63827   4.822  10.376   9.808 -0.6064 -0.3994 -0.4532
20607SOL    HW163828   4.752  10.441   9.810  0.4975  0.9860 -2.8611
20607SOL    HW263829   4.779  10.294   9.834 -2.7551  0.6852 -0.3658
20608SOL     OW63830   8.370   9.841   5.481 -0.5334 -0.2641  0.1460
20608SOL    HW163831   8.363   9.843   5.576 -2.2745 -0.3450  0.0536
20608SOL    HW263832   8.286   9.878   5.450  0.6765  1.4386 -1.3535
20609SOL     OW63833  10.626   3.142   0.993  0.3109  0.5904 -0.4104
20609SOL    HW163834  10.534   3.117   1.003  0.7035 -1.1234 -0.7776
20609SOL    HW263835  10.623   3.236   0.975 -1.4207  0.4310 -1.2305
20610SOL     OW63836   1.098   9.387   0.452 -0.1228  0.0384  0.4386
20610SOL    HW163837   1.034   9.413   0.386 -0.0793 -0.3711  0.2361
20610SOL    HW263838   1.046   9.353   0.525 -0.1252 -0.6982  0.1016
20611SOL     OW63839   8.953   1.771   8.948  0.1095  0.0845  0.4547
20611SOL    HW163840   8.929   1.788   8.857  1.3413  0.0097  0.0977
20611SOL    HW263841   8.890   1.705   8.977  1.8978 -2.7584 -1.5401
20612SOL     OW63842   8.932   8.100   1.371  0.3365  0.3289  0.4033
20612SOL    HW163843   8.964   8.133   1.287  1.3363  1.0208  1.0365
20612SOL    HW263844   8.973   8.014   1.380 -0.6475 -0.2382 -0.3015
20613SOL     OW63845   8.504   1.303  10.105 -0.0361 -0.4525  0.0644
20613SOL    HW163846   8.459   1.358  10.168 -1.1368 -1.3514  0.0861
20613SOL    HW263847   8.464   1.325  10.021  0.7997  0.0903 -0.2052
20614SOL     OW63848   9.361   2.224  11.161  0.1213 -0.3826  0.3419
20614SOL    HW163849   9.289   2.286  11.176 -0.1279 -0.6848  0.4014
20614SOL    HW263850   9.331   2.169  11.089  0.3528 -0.4203  0.2712
20615SOL     OW63851   2.701   1.614   4.317 -0.2922 -0.1995  0.0069
20615SOL    HW163852   2.760   1.688   4.303 -1.6136  0.8094 -0.5165
20615SOL    HW263853   2.758   1.537   4.317  1.1996  0.8531  1.2362
20616SOL     OW63854  11.222   6.506   7.760 -0.5556  0.3353  0.3291
20616SOL    HW163855  11.134   6.533   7.734 -0.9708 -1.5660 -0.4244
20616SOL    HW263856  11.209   6.459   7.842 -0.8243 -2.7503 -1.3103
20617SOL     OW63857   4.921   4.761   6.309  0.0336 -1.2429 -0.8467
20617SOL    HW163858   4.875   4.706   6.247 -1.7357 -0.7870  0.0065
20617SOL    HW263859   4.918   4.849   6.270 -4.5981 -0.0648  1.4156
20618SOL     OW63860   1.331   6.419   7.322 -0.0290  0.5234  0.1527
20618SOL    HW163861   1.325   6.365   7.401  1.8054 -1.1358 -0.7657
20618SOL    HW263862   1.355   6.506   7.354  2.7485 -0.5677  1.3902
20619SOL     OW63863   5.005   0.285   8.546 -0.2131  0.2414  0.3261
20619SOL    HW163864   5.003   0.244   8.459  0.4918  1.8468 -0.5060
20619SOL    HW263865   5.049   0.369   8.531  3.3062 -0.8996  2.8624
20620SOL     OW63866   4.967   9.363   6.733  0.6536  0.2264  0.8006
20620SOL    HW163867   5.054   9.327   6.715  1.0622  1.8583 -0.7118
20620SOL    HW263868   4.928   9.375   6.646 -1.5250 -1.3833  1.4608
20621SOL     OW63869   7.511   5.240  10.869 -0.1775  0.5974 -0.9821
20621SOL    HW163870   7.553   5.255  10.784  0.9958 -1.4319 -0.8277
20621SOL    HW263871   7.438   5.181  10.849  0.0787  0.1463 -0.6079
20622SOL     OW63872   4.952   0.694  10.853  0.4413 -0.2973  0.4896
20622SOL    HW163873   4.888   0.715  10.786  0.2336  0.5216  0.9293
20622SOL    HW263874   4.988   0.610  10.827 -0.2889 -0.4169 -0.1541
20623SOL     OW63875   4.493  10.077   7.108  0.4450  0.2274  1.0475
20623SOL    HW163876   4.541  10.065   7.190  1.5705 -2.2137  0.1014
20623SOL    HW263877   4.560  10.084   7.041 -0.4809  1.2805  0.1925
20624SOL     OW63878  11.209   5.075   1.500 -0.1830 -0.5178  0.3296
20624SOL    HW163879  11.127   5.124   1.497 -1.6384 -2.8102 -1.1044
20624SOL    HW263880  11.276   5.140   1.521 -1.5731  2.6287 -3.5683
20625SOL     OW63881   2.210   4.084   6.904 -0.1971  0.4329  0.5973
20625SOL    HW163882   2.275   4.059   6.839 -0.1486  0.0524  0.7940
20625SOL    HW263883   2.184   4.173   6.879  0.0793  0.4200  0.2666
20626SOL     OW63884  10.964  11.245   3.631  0.0818  0.0847  0.4827
20626SOL    HW163885  10.893  11.181   3.626  1.5138 -1.6102  0.9386
20626SOL    HW263886  10.952  11.287   3.717  0.2800 -1.0145  1.0670
20627SOL     OW63887   3.424   1.498   8.137 -0.3629 -0.5669  0.1606
20627SOL    HW163888   3.415   1.476   8.230  0.4990 -1.5241  0.0356
20627SOL    HW263889   3.363   1.570   8.124 -0.2287 -0.1544  1.5594
20628SOL     OW63890   2.804  11.158   5.776  0.3623  0.3143 -0.6223
20628SOL    HW163891   2.881  11.210   5.799 -0.8419  2.4736 -1.2117
20628SOL    HW263892   2.833  11.103   5.704  1.0529  2.1094 -1.7874
20629SOL     OW63893   6.149   2.912   5.978 -0.2111  0.2199  0.4099
20629SOL    HW163894   6.209   2.978   5.943 -0.6821  0.5987  0.3047
20629SOL    HW263895   6.100   2.958   6.046 -1.8698  0.5437 -0.9366
20630SOL     OW63896   8.167   0.185   6.378 -0.3426 -0.6719 -0.6752
20630SOL    HW163897   8.184   0.201   6.471 -1.4157 -2.3700 -0.1401
20630SOL    HW263898   8.251   0.154   6.344 -0.0386 -0.3997 -0.1914
20631SOL     OW63899   0.435  10.462   3.514  0.3560 -0.4343  0.2377
20631SOL    HW163900   0.509  10.409   3.486  0.4234 -0.9148  1.2787
20631SOL    HW263901   0.414  10.517   3.438  2.7349  0.8316  0.4220
20632SOL     OW63902   7.668   9.590   3.844 -0.0996 -0.5336  0.5899
20632SOL    HW163903   7.657   9.639   3.926  0.2204 -0.0456  0.3455
20632SOL    HW263904   7.649   9.654   3.775  0.6654 -0.6521  0.2602
20633SOL     OW63905   1.774   5.043   4.775  0.0648 -0.4260 -0.0977
20633SOL    HW163906   1.730   5.125   4.755 -0.3212 -0.8150 -0.8637
20633SOL    HW263907   1.713   4.995   4.830 -0.3185 -0.7939 -0.8268
20634SOL     OW63908   1.864   8.144   2.858  0.3738  0.1434 -0.2553
20634SOL    HW163909   1.855   8.235   2.885 -0.3931 -0.6429  2.5323
20634SOL    HW263910   1.907   8.101   2.932 -0.4032 -1.9901 -0.9479
20635SOL     OW63911   5.692  10.788   5.936 -0.6124  0.3982  0.1120
20635SOL    HW163912   5.686  10.818   6.026 -1.7921 -1.1289  0.5819
20635SOL    HW263913   5.663  10.696   5.939 -0.4100  0.2295 -1.7712
20636SOL     OW63914   1.740  10.346   7.306 -0.5346 -0.1704 -0.5179
20636SOL    HW163915   1.691  10.271   7.340 -0.0567 -0.3700 -0.2535
20636SOL    HW263916   1.807  10.306   7.250  1.1025 -0.1053  1.3071
20637SOL     OW63917   3.624   0.825   9.238  0.0612  0.0416  0.3178
20637SOL    HW163918   3.596   0.785   9.320 -1.5977  0.5341  0.0294
20637SOL    HW263919   3.581   0.911   9.238  1.6595  0.8794 -0.1464
20638SOL     OW63920   9.076   4.824   0.861 -0.8099 -0.1327  0.1919
20638SOL    HW163921   9.110   4.739   0.888  0.4462 -0.0441 -1.0249
20638SOL    HW263922   9.119   4.886   0.919 -1.6173 -0.2847  0.9838
20639SOL     OW63923   9.784   4.251   8.027  0.5239 -0.0113 -0.3076
20639SOL    HW163924   9.851   4.235   7.960 -0.3536 -2.0289 -0.7599
20639SOL    HW263925   9.704   4.212   7.992 -0.8841  2.0769  0.3649
20640SOL     OW63926   9.695   3.207   9.834  0.0619 -0.6933 -1.0430
20640SOL    HW163927   9.704   3.152   9.912  0.8385 -1.6448 -1.7783
20640SOL    HW263928   9.623   3.266   9.854 -0.5383 -1.7324 -0.0698
20641SOL     OW63929   0.485   9.753  10.419 -0.5186 -0.3952  0.2784
20641SOL    HW163930   0.412   9.740  10.358 -1.2667 -0.6675  1.2173
20641SOL    HW263931   0.469   9.840  10.456 -1.4285 -1.1876  1.8541
20642SOL     OW63932   4.115   3.353  10.784 -0.0334 -0.6014 -0.2758
20642SOL    HW163933   4.169   3.408  10.842 -1.0511  1.1502 -0.9040
20642SOL    HW263934   4.048   3.412  10.751  0.4407 -1.5080 -3.2011
20643SOL     OW63935   4.035   8.314  10.367 -0.4822  0.5867  0.3775
20643SOL    HW163936   4.117   8.360  10.349  0.1036 -1.4303 -2.7816
20643SOL    HW263937   4.040   8.291  10.460  2.7738  0.0900  0.1783
20644SOL     OW63938   5.725   8.856   6.535  0.3509  0.1425 -0.0874
20644SOL    HW163939   5.779   8.822   6.607 -0.8857 -0.0758  0.7639
20644SOL    HW263940   5.749   8.802   6.460  1.0507 -0.1936  0.3641
20645SOL     OW63941   8.196  10.608   5.870  0.5075  0.0500  0.4409
20645SOL    HW163942   8.282  10.625   5.906  0.6400 -2.3823  1.4627
20645SOL    HW263943   8.153  10.553   5.935 -0.4218 -1.8538 -1.6535
20646SOL     OW63944   9.649   7.153   2.968 -0.0418 -0.3653  0.4119
20646SOL    HW163945   9.606   7.146   2.883 -1.0114 -2.4986  1.0407
20646SOL    HW263946   9.585   7.122   3.031  0.8456  0.6955  1.9107
20647SOL     OW63947   1.227  10.871   4.273 -0.2388 -0.0263 -0.5794
20647SOL    HW163948   1.259  10.802   4.214 -2.3038 -1.8770  0.3290
20647SOL    HW263949   1.188  10.936   4.215  1.7728  0.4749 -1.4606
20648SOL     OW63950   7.276  10.488   2.081  0.4831  0.7636  0.0363
20648SOL    HW163951   7.371  10.484   2.077  0.5529 -1.9469  1.8462
20648SOL    HW263952   7.251  10.417   2.140 -2.5462  2.9254  1.6227
20649SOL     OW63953   2.972   2.638   2.854  0.2592 -0.0941 -0.4612
20649SOL    HW163954   2.896   2.634   2.796 -0.2880  0.0795  0.2337
20649SOL    HW263955   3.013   2.552   2.845 -0.9656 -0.8054  0.4023
20650SOL     OW63956   9.922   6.626   3.918  0.0817  0.4195  0.4266
20650SOL    HW163957   9.830   6.644   3.938 -0.8168 -1.1949 -1.9011
20650SOL    HW263958   9.926   6.623   3.823  2.7691  1.3438  0.4269
20651SOL     OW63959   6.898   7.983   5.495 -0.3556  0.1136 -0.3066
20651SOL    HW163960   6.886   8.064   5.546  0.9445  0.5913 -0.7327
20651SOL    HW263961   6.978   7.998   5.445  0.8428 -2.0868  0.8399
20652SOL     OW63962   6.454   4.373   7.507 -0.2543 -0.0037  0.4140
20652SOL    HW163963   6.443   4.371   7.412  0.8729  2.0068  0.1861
20652SOL    HW263964   6.479   4.284   7.530  0.8594 -0.2089 -1.3952
20653SOL     OW63965   5.629   8.310   0.644  0.6064  0.1885 -0.2423
20653SOL    HW163966   5.552   8.360   0.616 -0.9551 -1.6914  0.3747
20653SOL    HW263967   5.618   8.301   0.739  0.7652 -1.3405 -0.3414
20654SOL     OW63968   5.066   4.073   8.654  0.2211 -0.2556 -0.3345
20654SOL    HW163969   5.026   4.138   8.596 -3.9145 -0.4386  1.9389
20654SOL    HW263970   5.063   3.991   8.605 -0.3744  0.1436 -0.9768
20655SOL     OW63971   1.446   0.049   9.929  0.5521  0.4121  0.5808
20655SOL    HW163972   1.431  -0.045   9.916  0.2393  0.2102  2.2116
20655SOL    HW263973   1.541   0.059   9.922  0.5896 -0.0290  0.4357
20656SOL     OW63974   5.400   6.791   9.519 -0.5835 -0.3527 -0.1511
20656SOL    HW163975   5.339   6.794   9.446  0.1193  0.0035 -0.7331
20656SOL    HW263976   5.350   6.825   9.593  0.1661  4.7389 -1.5617
20657SOL     OW63977   8.916  10.914   6.082 -0.0790  0.2264 -0.0854
20657SOL    HW163978   8.906  10.966   6.162  1.4295  1.9724 -0.9795
20657SOL    HW263979   8.955  10.832   6.113 -2.5046 -0.4849  1.3444
20658SOL     OW63980   6.191  10.685   3.371  0.3875  0.2530 -0.2818
20658SOL    HW163981   6.139  10.721   3.299 -2.6101  0.1985  1.6756
20658SOL    HW263982   6.150  10.601   3.391 -0.3659  1.2265  2.8195
20659SOL     OW63983   5.486   3.124   7.946  0.5585  0.2072  0.2656
20659SOL    HW163984   5.439   3.060   7.894 -0.0502  1.3950 -0.7005
20659SOL    HW263985   5.530   3.073   8.014  0.6435 -1.2780 -0.8712
20660SOL     OW63986   1.329   1.034   7.918  0.5397  1.0961 -0.7026
20660SOL    HW163987   1.388   1.108   7.912  0.8192  1.2744  2.6068
20660SOL    HW263988   1.380   0.960   7.885  1.2607  1.8626 -1.3520
20661SOL     OW63989   2.478   0.030   2.614  0.4477  0.0868  0.2163
20661SOL    HW163990   2.494  -0.062   2.591 -1.7721 -0.8561  1.9983
20661SOL    HW263991   2.565   0.068   2.624  1.4234 -1.5744 -1.4082
20662SOL     OW63992  10.075   6.731  10.566  0.0750 -0.4087  0.2727
20662SOL    HW163993  10.029   6.713  10.647  1.9426 -2.2847  1.0160
20662SOL    HW263994  10.058   6.654  10.511  2.6344 -1.4641  0.8074
20663SOL     OW63995   8.697   8.920   7.120 -0.0307  0.3235 -0.3179
20663SOL    HW163996   8.716   8.893   7.030  0.7357 -1.1558  0.2487
20663SOL    HW263997   8.712   9.014   7.121  0.6048  0.2526 -1.5817
20664SOL     OW63998   0.269   3.798  10.411  0.3268 -0.1826 -0.1767
20664SOL    HW163999   0.271   3.889  10.439  2.2467 -0.1869 -0.1486
20664SOL    HW264000   0.284   3.748  10.491  1.5559 -0.3817 -0.4983
20665SOL     OW64001   0.357   3.894   3.547  0.3075 -0.7566 -0.3260
20665SOL    HW164002   0.387   3.977   3.510 -0.7026 -0.5107 -0.6286
20665SOL    HW264003   0.274   3.876   3.501 -0.8555 -0.5849  1.6007
20666SOL     OW64004  10.952   5.647   6.700 -0.0064 -0.1362  0.4646
20666SOL    HW164005  11.012   5.686   6.764  0.6620  0.1948 -0.3396
20666SOL    HW264006  10.996   5.566   6.673  0.3222  0.3268 -0.4568
20667SOL     OW64007  10.267   9.504  10.409 -0.2426  0.1615 -0.4080
20667SOL    HW164008  10.240   9.509  10.501  0.8349  1.0408 -0.1208
20667SOL    HW264009  10.334   9.435  10.407  0.1213  0.5163 -0.4357
20668SOL     OW64010   1.546   6.889   0.651 -0.2764 -0.6292 -0.3723
20668SOL    HW164011   1.461   6.900   0.607 -0.6748  0.9208  0.6910
20668SOL    HW264012   1.559   6.972   0.697  0.7992 -1.6572  1.2498
20669SOL     OW64013   3.173  10.841   8.590  0.5720 -1.4913  0.0287
20669SOL    HW164014   3.120  10.821   8.513  0.2358 -0.4770 -0.0155
20669SOL    HW264015   3.112  10.833   8.663  0.8772 -2.3955  0.1998
20670SOL     OW64016   5.299   2.985   2.377 -0.3142  0.0061 -0.1031
20670SOL    HW164017   5.247   3.065   2.380 -0.0119  0.1791  0.9823
20670SOL    HW264018   5.235   2.915   2.363 -1.2750 -0.0805  3.5703
20671SOL     OW64019   3.130   0.080   4.039 -0.5769  1.1170 -0.4162
20671SOL    HW164020   3.200   0.034   3.994  0.2243  2.9669 -1.1555
20671SOL    HW264021   3.174   0.133   4.105 -1.7380 -2.1820  3.4776
20672SOL     OW64022   3.005   7.390   6.157 -0.5391  0.0728 -0.2463
20672SOL    HW164023   3.045   7.303   6.148 -0.3548  0.0822  0.4192
20672SOL    HW264024   3.000   7.404   6.251  2.3287  2.1047 -0.2625
20673SOL     OW64025   1.406   3.868   3.389 -0.2125  0.8664  0.1655
20673SOL    HW164026   1.414   3.920   3.309  1.4665  0.4840  0.0623
20673SOL    HW264027   1.395   3.933   3.458 -0.4365  1.2509 -0.2242
20674SOL     OW64028   2.533   9.234   9.949  0.0677  0.4719 -0.2598
20674SOL    HW164029   2.610   9.225   9.894  0.0643  1.6939 -0.4856
20674SOL    HW264030   2.473   9.287   9.898 -1.5641 -1.6657 -0.7168
20675SOL     OW64031   7.286   9.024   3.703 -0.0389 -0.3180  0.4074
20675SOL    HW164032   7.230   9.000   3.629  1.6516 -1.2268 -0.6381
20675SOL    HW264033   7.348   9.088   3.667  1.1703 -1.2006  0.8649
20676SOL     OW64034   0.676   9.842   8.955 -0.0268  0.5232  0.0365
20676SOL    HW164035   0.662   9.753   8.923  0.5267 -0.6809  2.7985
20676SOL    HW264036   0.596   9.863   9.004  0.9639  0.2923  1.8552
20677SOL     OW64037   3.161   9.424   9.974 -0.0429  0.4458  0.1340
20677SOL    HW164038   3.151   9.331   9.995  0.0330 -0.1789 -2.2870
20677SOL    HW264039   3.096   9.440   9.906 -1.6869  2.8183  2.1106
20678SOL     OW64040   1.139   8.589   3.287 -0.2820 -0.5748  0.0445
20678SOL    HW164041   1.050   8.573   3.258  0.3722 -1.6402 -1.5023
20678SOL    HW264042   1.194   8.541   3.225  1.2658 -3.3669  3.2346
20679SOL     OW64043   3.364   4.291   9.180 -0.2319 -0.1790  0.4732
20679SOL    HW164044   3.293   4.308   9.117  0.1831  2.6163  0.6245
20679SOL    HW264045   3.426   4.237   9.132 -0.8196  0.3021 -0.9050
20680SOL     OW64046   4.092   3.523   4.495 -0.3366  0.3635 -0.0990
20680SOL    HW164047   4.099   3.618   4.507  0.1000  0.5814 -1.7773
20680SOL    HW264048   4.183   3.492   4.494 -0.4532  0.0108 -0.0994
20681SOL     OW64049   9.083   3.659   1.491 -0.1616  0.4121 -0.9309
20681SOL    HW164050   9.110   3.626   1.406  0.5712 -0.6536 -0.2971
20681SOL    HW264051   9.112   3.594   1.554 -1.3617  0.8020  0.0920
20682SOL     OW64052   9.815   5.261   6.226  0.1039  0.3359  0.2107
20682SOL    HW164053   9.889   5.208   6.195 -0.7292 -0.0185 -1.2722
20682SOL    HW264054   9.821   5.256   6.321  1.1446 -0.8827  0.1213
20683SOL     OW64055   3.246   4.915  10.665  0.0304  0.5914  0.2540
20683SOL    HW164056   3.247   4.859  10.743  3.5897  1.2164  0.8444
20683SOL    HW264057   3.313   4.877  10.608 -1.7614  0.7719 -2.1205
20684SOL     OW64058   6.728   3.303   5.281  0.3455 -0.1993  0.3807
20684SOL    HW164059   6.672   3.225   5.276  0.4291 -0.2134 -0.6356
20684SOL    HW264060   6.714   3.336   5.369 -1.2816 -0.2014  0.1680
20685SOL     OW64061   1.651  10.857  11.122 -0.2197  0.2010  0.2678
20685SOL    HW164062   1.669  10.793  11.053  0.6381  2.3220 -1.6143
20685SOL    HW264063   1.569  10.828  11.161 -0.2452 -1.6052 -0.9984
20686SOL     OW64064   6.503   7.390  11.205  0.3640  0.5827  0.3646
20686SOL    HW164065   6.517   7.296  11.211 -1.5035 -0.0389 -3.0404
20686SOL    HW264066   6.432   7.408  11.267  1.8268  0.1829  2.2832
20687SOL     OW64067   2.354   8.888   3.642  0.5145  0.3604 -0.2054
20687SOL    HW164068   2.289   8.820   3.626  0.9796 -0.0576 -0.3340
20687SOL    HW264069   2.307   8.954   3.693 -0.2683  0.5015 -1.0759
20688SOL     OW64070   8.271   9.868  10.871  0.3082  1.4571  0.3458
20688SOL    HW164071   8.226   9.836  10.949 -0.0246 -0.6753 -0.6267
20688SOL    HW264072   8.203   9.870  10.803  1.0091  1.2626 -0.3842
20689SOL     OW64073   8.522   2.156   8.779  0.0188  0.7553  0.1184
20689SOL    HW164074   8.502   2.249   8.769  0.4138  0.8404  0.1136
20689SOL    HW264075   8.492   2.135   8.868 -2.1812  0.3316 -0.6631
20690SOL     OW64076   8.821   3.085   6.936  0.2550 -0.6380  0.2609
20690SOL    HW164077   8.770   3.022   6.886  0.2113 -0.8672  0.5935
20690SOL    HW264078   8.881   3.123   6.872  0.4704 -1.2118  0.1179
20691SOL     OW64079   6.430   2.930   0.434  0.2762 -0.5528  0.2161
20691SOL    HW164080   6.339   2.946   0.458  0.3586 -1.5539  1.2842
20691SOL    HW264081   6.473   3.014   0.444 -0.2735 -0.3494  0.9686
20692SOL     OW64082   2.728   0.048   6.674 -0.1495  0.3329  0.2026
20692SOL    HW164083   2.773  -0.024   6.718  1.0175  0.6414 -0.4736
20692SOL    HW264084   2.792   0.084   6.613 -1.4261  0.5269 -1.0759
20693SOL     OW64085   0.949   2.607   1.892 -0.4819  0.0283  0.0631
20693SOL    HW164086   0.900   2.526   1.908 -3.6099  1.7455  0.0898
20693SOL    HW264087   1.040   2.580   1.890 -1.3696 -3.4907 -0.0051
20694SOL     OW64088   4.504   0.922   1.932  0.5695 -0.3262  0.0092
20694SOL    HW164089   4.558   0.860   1.981  2.0932  1.8003  1.2412
20694SOL    HW264090   4.449   0.868   1.876  2.6014 -2.7338  0.1412
20695SOL     OW64091   9.271   6.331   1.988  0.0986  0.0439 -0.0243
20695SOL    HW164092   9.319   6.290   2.060  0.5054  2.2331  1.0507
20695SOL    HW264093   9.182   6.343   2.022 -0.7160 -2.0720 -1.2331
20696SOL     OW64094  11.184   1.102   7.620  0.4892 -0.8150  0.1806
20696SOL    HW164095  11.182   1.085   7.526 -0.2115  0.1805 -0.0067
20696SOL    HW264096  11.131   1.033   7.659  0.1178 -0.7774 -0.2482
20697SOL     OW64097   3.126   3.806   6.338  0.3326 -0.0886 -0.7166
20697SOL    HW164098   3.110   3.731   6.396 -0.1817 -0.8819 -1.8438
20697SOL    HW264099   3.221   3.815   6.337  0.4244 -0.9635 -0.8405
20698SOL     OW64100   7.323  10.951   9.156 -0.7644 -0.9502 -0.1382
20698SOL    HW164101   7.399  10.975   9.210 -0.3890 -2.3969  0.0309
20698SOL    HW264102   7.339  10.992   9.071 -0.3264 -0.3616  0.2234
20699SOL     OW64103   4.578   1.311   4.416 -0.2813  0.9687 -0.2010
20699SOL    HW164104   4.586   1.344   4.327 -1.1926  0.4315 -0.4953
20699SOL    HW264105   4.645   1.359   4.466  0.9192  0.5509 -1.3595
20700SOL     OW64106   7.637   4.026   9.319 -0.3973 -0.4850 -0.6016
20700SOL    HW164107   7.571   3.968   9.281 -0.1758 -2.2174  1.4216
20700SOL    HW264108   7.717   3.973   9.321  0.9654  1.3392 -2.3986
20701SOL     OW64109   5.880  11.176   6.726  0.1283 -0.1987  0.2194
20701SOL    HW164110   5.912  11.088   6.705 -0.8022 -0.4258 -0.2703
20701SOL    HW264111   5.925  11.199   6.808  0.9357 -0.8225 -0.0353
20702SOL     OW64112   1.364   3.026   6.170 -0.0117 -0.4244 -0.1734
20702SOL    HW164113   1.444   3.024   6.222  0.8492  1.2860 -1.3430
20702SOL    HW264114   1.314   3.098   6.206 -0.3994 -0.6111 -0.3348
20703SOL     OW64115   6.854   5.290   9.990  0.1120  0.1780 -0.2637
20703SOL    HW164116   6.858   5.313   9.897  0.6584  1.2025  0.0035
20703SOL    HW264117   6.941   5.309  10.023 -0.5361  1.4060  0.8216
20704SOL     OW64118   8.780   7.141   7.162 -0.2563 -0.1709  0.4456
20704SOL    HW164119   8.804   7.234   7.165 -2.2182  0.3545  0.8784
20704SOL    HW264120   8.705   7.133   7.221 -1.6189 -1.5554 -1.3546
20705SOL     OW64121   3.431   1.908   8.500  0.1937 -0.1907 -0.2343
20705SOL    HW164122   3.482   1.988   8.495  1.3741 -0.9945 -2.4635
20705SOL    HW264123   3.466   1.853   8.430 -2.5564 -1.5133 -0.6934
20706SOL     OW64124   2.286   0.575   8.350  0.4000 -0.6299 -0.4358
20706SOL    HW164125   2.324   0.652   8.309 -0.0835 -0.1253  0.0579
20706SOL    HW264126   2.276   0.512   8.278  2.2857 -0.8362 -0.5585
20707SOL     OW64127   1.006   2.875   4.379  0.3968 -0.2920 -0.2681
20707SOL    HW164128   1.012   2.843   4.469  1.8668  1.8007  0.4501
20707SOL    HW264129   0.913   2.893   4.366  0.1006 -1.0685  0.6321
20708SOL     OW64130   7.322   0.559   8.653  0.3471 -0.6244 -0.5242
20708SOL    HW164131   7.323   0.588   8.562 -1.0285  1.0620 -0.0488
20708SOL    HW264132   7.414   0.565   8.681  0.5856  0.1057 -1.4210
20709SOL     OW64133  11.224  10.912  10.064 -0.4695 -0.3730  0.6430
20709SOL    HW164134  11.151  10.876  10.114 -0.0508  0.3767  1.8470
20709SOL    HW264135  11.302  10.886  10.113 -0.0807  0.8452  0.7140
20710SOL     OW64136   1.551   1.464   8.106 -0.1190  0.0464 -1.3105
20710SOL    HW164137   1.586   1.534   8.161 -0.5285 -1.4699  1.0082
20710SOL    HW264138   1.463   1.493   8.083 -1.0740 -0.5067  1.3524
20711SOL     OW64139   2.973   1.857   8.552 -0.0726 -0.4089 -0.2071
20711SOL    HW164140   2.962   1.900   8.637 -2.6478 -1.8851  0.2962
20711SOL    HW264141   3.025   1.779   8.571  0.1884 -0.2300 -0.1802
20712SOL     OW64142   3.736   4.745   9.986  0.5301  0.1389 -0.0149
20712SOL    HW164143   3.660   4.754   9.928  1.1208  2.8490 -0.5009
20712SOL    HW264144   3.811   4.761   9.929  1.3057  0.0352  0.9561
20713SOL     OW64145   3.834   3.699   1.830 -0.3030  0.3851 -0.1440
20713SOL    HW164146   3.806   3.609   1.846 -0.0722  0.1823 -0.8332
20713SOL    HW264147   3.815   3.713   1.737 -0.7764  1.2085  0.0704
20714SOL     OW64148   7.877   1.751   7.879 -0.0878 -0.5328  0.3712
20714SOL    HW164149   7.881   1.829   7.825  0.4679  1.1390  2.6692
20714SOL    HW264150   7.969   1.727   7.893 -0.2504 -1.6402 -0.2966
20715SOL     OW64151   4.234   2.964   7.458  0.1209 -0.2389 -0.4129
20715SOL    HW164152   4.311   3.005   7.498 -0.4312 -0.4898  0.9495
20715SOL    HW264153   4.198   3.032   7.400 -1.1625  1.5618  2.2840
20716SOL     OW64154   6.707   0.920   6.257 -0.1260  0.4542  0.1308
20716SOL    HW164155   6.755   0.864   6.319 -2.3673  0.3738  1.9318
20716SOL    HW264156   6.622   0.878   6.248 -1.4488  2.8532  0.5742
20717SOL     OW64157   7.733   0.600   8.421  0.3582 -0.3182  0.7290
20717SOL    HW164158   7.692   0.541   8.357  3.3988 -1.5546 -0.2474
20717SOL    HW264159   7.768   0.542   8.488  3.5372  0.1987 -0.3088
20718SOL     OW64160   1.003   4.965   6.099 -0.0740  0.4509  0.0202
20718SOL    HW164161   0.976   4.931   6.013  0.8463 -0.7171  0.1569
20718SOL    HW264162   1.043   5.050   6.079 -1.0986  0.8308 -0.5232
20719SOL     OW64163   4.909   1.331   7.234  0.3234 -0.1441  0.1845
20719SOL    HW164164   4.961   1.396   7.280 -0.8821  1.7879 -1.0400
20719SOL    HW264165   4.823   1.336   7.275  0.0806 -0.6057 -0.2498
20720SOL     OW64166   9.312   9.090   6.972 -0.1519 -0.2319  0.4413
20720SOL    HW164167   9.321   9.181   6.946  0.1380 -0.7759 -1.5565
20720SOL    HW264168   9.381   9.044   6.924  0.2866 -1.4063  2.0881
20721SOL     OW64169   0.936   1.637  11.113 -0.1592  0.5262  0.5782
20721SOL    HW164170   0.860   1.580  11.127  1.9865 -2.9915 -0.6851
20721SOL    HW264171   0.917   1.682  11.031 -1.6718  1.2695  1.2982
20722SOL     OW64172   5.393   8.202   3.407  0.8708  0.3032  0.4100
20722SOL    HW164173   5.327   8.233   3.345  0.5240  1.4305  1.3050
20722SOL    HW264174   5.476   8.217   3.363  0.7155  2.5233  0.7844
20723SOL     OW64175   6.909   2.149   7.876  0.1022  0.1528  0.6946
20723SOL    HW164176   7.005   2.156   7.875  0.1659 -0.6121  1.0460
20723SOL    HW264177   6.892   2.056   7.888 -0.6813 -0.0999 -1.7391
20724SOL     OW64178   3.064  10.635   9.542 -0.3674  0.4415 -0.1417
20724SOL    HW164179   3.154  10.647   9.573 -1.1277 -0.5154  2.8094
20724SOL    HW264180   3.064  10.549   9.501 -0.1675 -0.1425  1.0324
20725SOL     OW64181   7.844   2.502   9.758  0.7849 -0.4859 -0.2218
20725SOL    HW164182   7.800   2.441   9.818  1.9396 -0.4847  0.6557
20725SOL    HW264183   7.795   2.584   9.768 -1.1208 -1.3208 -1.8062
20726SOL     OW64184   4.093   4.107   7.999  0.0156  0.6207 -0.2234
20726SOL    HW164185   4.014   4.146   7.962 -0.7008 -0.3087  0.2802
20726SOL    HW264186   4.131   4.177   8.052  0.6101  1.6948 -1.9883
20727SOL     OW64187   7.247   6.565   9.086 -0.0425  0.2688 -0.6131
20727SOL    HW164188   7.162   6.609   9.075  0.6484  2.1470  1.0369
20727SOL    HW264189   7.226   6.485   9.134 -0.7481  1.5779  1.3856
20728SOL     OW64190  10.476   5.272   2.098  0.4343  0.1639 -0.1841
20728SOL    HW164191  10.428   5.353   2.080 -1.1382 -0.5698  0.5402
20728SOL    HW264192  10.472   5.224   2.015 -2.0959 -0.8413  0.4060
20729SOL     OW64193   1.817   7.399   6.767 -0.0090  0.6011 -0.1903
20729SOL    HW164194   1.759   7.327   6.743 -0.2004  0.2785  1.1170
20729SOL    HW264195   1.843   7.439   6.684 -1.6412  0.3988 -0.8340
20730SOL     OW64196   5.966   0.258   8.328  0.4280 -0.3873  0.2346
20730SOL    HW164197   5.884   0.211   8.312  0.5875 -0.2809 -0.9568
20730SOL    HW264198   5.983   0.305   8.247  1.0068  0.6217  0.9244
20731SOL     OW64199   4.938  10.264   8.924  0.0995  0.0246  0.3237
20731SOL    HW164200   4.852  10.304   8.911 -0.4939 -1.4264 -0.5143
20731SOL    HW264201   4.997  10.337   8.940 -1.5922  0.9779  2.8661
20732SOL     OW64202   8.788   8.038   9.785 -0.0182  0.5297 -0.3346
20732SOL    HW164203   8.767   7.951   9.819 -0.3992  0.5069 -0.6172
20732SOL    HW264204   8.839   8.021   9.706 -0.5534  0.5483 -0.6898
20733SOL     OW64205   3.178   0.422  10.427  0.1156 -0.0387  0.2991
20733SOL    HW164206   3.086   0.411  10.403  0.9254 -1.3908 -2.6627
20733SOL    HW264207   3.187   0.374  10.509 -1.7850  0.0553  0.6177
20734SOL     OW64208   5.793   3.502   0.934  0.7448  0.6548 -0.0639
20734SOL    HW164209   5.723   3.518   0.871 -0.7036 -0.1595  1.2441
20734SOL    HW264210   5.768   3.553   1.011 -0.0137 -1.7598  1.4423
20735SOL     OW64211   7.492   3.300   6.858  0.2419 -0.4251  0.2809
20735SOL    HW164212   7.541   3.219   6.844 -3.2872 -3.3464  2.6119
20735SOL    HW264213   7.402   3.278   6.831 -0.2626  4.1018 -2.5972
20736SOL     OW64214   2.343  10.895   8.859  0.5555  0.2840  0.4637
20736SOL    HW164215   2.256  10.927   8.885 -1.2572 -2.1211 -2.0554
20736SOL    HW264216   2.380  10.966   8.807 -0.5423  0.8115  0.3750
20737SOL     OW64217   0.442   2.721   5.313  0.6057 -0.4707  0.9390
20737SOL    HW164218   0.349   2.724   5.337  0.4827 -0.3231  0.4687
20737SOL    HW264219   0.485   2.780   5.375  0.4972 -1.1120  1.6315
20738SOL     OW64220   8.830   7.841   3.233 -0.4276 -0.7482  0.1680
20738SOL    HW164221   8.783   7.839   3.317  0.1919 -0.5454  0.5238
20738SOL    HW264222   8.883   7.761   3.234 -0.4654 -0.7753 -0.0565
20739SOL     OW64223   0.732   6.054   4.359  0.6355 -0.0097 -0.8497
20739SOL    HW164224   0.743   6.024   4.268  0.5005  1.6006 -1.4344
20739SOL    HW264225   0.805   6.114   4.372 -1.2760  2.5456 -1.1477
20740SOL     OW64226   8.700   9.116   8.553  0.3325  0.1149  0.4916
20740SOL    HW164227   8.747   9.186   8.598 -0.7866 -0.1106  2.1124
20740SOL    HW264228   8.683   9.051   8.621  0.8081 -1.4776 -0.8448
20741SOL     OW64229   8.091   9.087   6.370  0.5586  0.0583  0.1215
20741SOL    HW164230   8.046   9.041   6.441 -1.4077 -1.3645 -1.9121
20741SOL    HW264231   8.184   9.074   6.389  0.0935 -2.9043  0.8871
20742SOL     OW64232   0.670   1.643   6.206  0.5864 -0.1794 -0.4576
20742SOL    HW164233   0.705   1.594   6.132  2.0681 -0.7173  0.5667
20742SOL    HW264234   0.699   1.733   6.191  2.4146 -0.5929  0.3112
20743SOL     OW64235   0.740   1.126   7.312  0.6900  0.2370  0.6873
20743SOL    HW164236   0.796   1.138   7.389  1.9228  0.1048 -0.1471
20743SOL    HW264237   0.760   1.037   7.282  0.3017  0.3287  0.1533
20744SOL     OW64238   0.340   3.026   6.152 -0.7452 -0.0246 -0.2686
20744SOL    HW164239   0.262   3.028   6.207 -0.5294 -0.6767  0.0748
20744SOL    HW264240   0.315   2.971   6.078 -0.4614 -0.6286  0.0812
20745SOL     OW64241   2.196   4.897   0.206 -0.3586  0.1403  0.0006
20745SOL    HW164242   2.291   4.898   0.221 -0.7201 -0.8196  2.7612
20745SOL    HW264243   2.177   4.808   0.177 -0.6491 -0.3127  1.5120
20746SOL     OW64244   2.758   7.591   5.365  0.0516 -0.1450 -0.2026
20746SOL    HW164245   2.787   7.682   5.355 -1.3919  0.5261  1.1909
20746SOL    HW264246   2.837   7.539   5.349  0.8912  1.3409 -1.1379
20747SOL     OW64247   5.529   0.748  10.881 -0.2900 -0.3714 -0.7371
20747SOL    HW164248   5.483   0.823  10.842 -2.3027  0.5056  2.8205
20747SOL    HW264249   5.621   0.774  10.881 -0.1510 -0.3408 -4.2915
20748SOL     OW64250   5.195   5.459   1.288  0.4106  0.4901  0.3993
20748SOL    HW164251   5.164   5.371   1.270  0.3152  0.5891  0.0694
20748SOL    HW264252   5.284   5.447   1.320  0.5555  0.3003 -0.0584
20749SOL     OW64253   5.789   5.406   4.209 -0.0765 -0.1954  0.3608
20749SOL    HW164254   5.836   5.486   4.185  1.2251 -1.5954 -2.1765
20749SOL    HW264255   5.703   5.416   4.170 -0.5146  0.6184  1.4792
20750SOL     OW64256   1.483   3.898   8.242  0.1409 -0.0823 -0.4259
20750SOL    HW164257   1.479   3.815   8.289 -0.9785 -0.7484 -1.6318
20750SOL    HW264258   1.563   3.891   8.189  0.9503  0.3308  0.6832
20751SOL     OW64259   9.783   6.392   4.609 -0.3866  0.4550  0.4228
20751SOL    HW164260   9.721   6.401   4.537  1.0293  2.0687 -0.6766
20751SOL    HW264261   9.758   6.310   4.652 -1.0507 -0.7764 -2.1223
20752SOL     OW64262   3.809  11.019   9.640 -0.3996 -0.6285 -0.9333
20752SOL    HW164263   3.898  11.025   9.675 -0.8740 -0.0618  0.2518
20752SOL    HW264264   3.797  11.100   9.590 -1.5218  1.3564  2.1899
20753SOL     OW64265   7.583   3.478   1.749 -1.1287  0.0927 -0.0726
20753SOL    HW164266   7.520   3.515   1.688 -2.7691  0.6655  1.8619
20753SOL    HW264267   7.629   3.553   1.786  0.3869 -0.2929 -1.0909
20754SOL     OW64268  10.851   5.744   2.296  0.1392  0.3894  0.0476
20754SOL    HW164269  10.810   5.756   2.382  2.5049  4.7693  0.8639
20754SOL    HW264270  10.785   5.773   2.233 -0.6035 -0.0819  0.5881
20755SOL     OW64271   1.303  10.907   1.152  0.3249 -0.0471  0.0131
20755SOL    HW164272   1.235  10.967   1.122 -0.7562 -0.7021  1.0148
20755SOL    HW264273   1.270  10.820   1.128 -0.0183 -0.4945  1.9135
20756SOL     OW64274   0.551   3.261   2.847  0.3071 -0.5721  0.1147
20756SOL    HW164275   0.536   3.170   2.822 -3.6011 -0.5338  1.5843
20756SOL    HW264276   0.463   3.299   2.852  1.5156  2.3108  2.8837
20757SOL     OW64277   7.606   1.919   3.457 -0.1178  1.1512 -0.2620
20757SOL    HW164278   7.521   1.960   3.440 -0.9171 -0.3360  0.0696
20757SOL    HW264279   7.651   1.922   3.372 -0.7105  1.4334 -0.5678
20758SOL     OW64280   8.189   9.905   3.098 -0.0805  0.5734  0.5018
20758SOL    HW164281   8.096   9.928   3.108 -0.4469 -0.9719  0.8949
20758SOL    HW264282   8.205   9.840   3.166  1.4901  1.3127  0.8778
20759SOL     OW64283   3.039   7.735   6.671 -0.2094  0.2488 -0.0078
20759SOL    HW164284   3.038   7.830   6.679  3.7158  0.8249 -3.2811
20759SOL    HW264285   3.128   7.710   6.696 -0.8692 -2.4650 -0.0945
20760SOL     OW64286   8.173   5.391   7.740  0.1152  0.0276 -0.1318
20760SOL    HW164287   8.115   5.465   7.718  0.2251  0.4782  1.0412
20760SOL    HW264288   8.116   5.314   7.737  0.1904 -0.0191 -2.3130
20761SOL     OW64289   0.164   1.462   8.524 -0.1193  0.4028 -0.5395
20761SOL    HW164290   0.082   1.486   8.567 -0.2795  1.1842 -1.2449
20761SOL    HW264291   0.151   1.489   8.433  0.8373  0.3155 -0.7050
20762SOL     OW64292   5.612   5.695   2.360  0.2846 -0.1043  0.6571
20762SOL    HW164293   5.557   5.773   2.368  0.0670 -0.2667  0.7511
20762SOL    HW264294   5.698   5.722   2.394 -0.5332 -0.7079  3.5374
20763SOL     OW64295   2.840   0.337   5.098  0.5391  0.0287 -0.0295
20763SOL    HW164296   2.845   0.241   5.107 -0.6861 -0.2426 -1.7566
20763SOL    HW264297   2.884   0.370   5.176 -2.4915 -1.9247  2.7926
20764SOL     OW64298   8.352   0.463   8.846  0.2888  0.6597 -0.1963
20764SOL    HW164299   8.352   0.368   8.852 -0.5303  0.7375  1.6871
20764SOL    HW264300   8.266   0.490   8.876  1.6975  2.1242  3.0736
20765SOL     OW64301   8.006  11.210   6.461  0.3320 -0.2001  0.7615
20765SOL    HW164302   8.021  11.299   6.431 -0.6861 -0.6029 -1.1639
20765SOL    HW264303   7.919  11.212   6.500  0.6604 -0.1865  1.5040
20766SOL     OW64304   0.429   5.050   5.351  0.5754  0.5539  0.3488
20766SOL    HW164305   0.480   5.016   5.425  0.3332 -1.5862 -0.4008
20766SOL    HW264306   0.486   5.039   5.275 -1.1476 -2.7133 -0.6516
20767SOL     OW64307   3.829   4.619   0.328 -0.5931 -0.0225  0.3433
20767SOL    HW164308   3.887   4.689   0.358 -0.4313 -0.9447  2.4170
20767SOL    HW264309   3.852   4.605   0.237 -1.4434  3.3680 -0.5186
20768SOL     OW64310   9.969   9.831   9.385  0.5439  0.0165  0.2701
20768SOL    HW164311   9.930   9.763   9.439 -1.0759 -1.1028 -2.1285
20768SOL    HW264312   9.915   9.909   9.402  0.0835 -0.3075  0.3164
20769SOL     OW64313   7.137  10.834   7.081 -0.1785  0.1116  0.0291
20769SOL    HW164314   7.218  10.861   7.124 -1.0650  1.4948  0.9188
20769SOL    HW264315   7.143  10.738   7.077  1.4393  0.1739  0.1429
20770SOL     OW64316   5.735  10.516   6.029  0.6029  0.5931  0.1597
20770SOL    HW164317   5.772  10.461   5.959 -0.0595 -0.8108  0.8583
20770SOL    HW264318   5.685  10.454   6.083 -1.2643  2.1097  0.2577
20771SOL     OW64319   3.838  11.174   8.382  0.1632  0.6509  0.0199
20771SOL    HW164320   3.807  11.088   8.354 -0.8509  0.9915  0.0521
20771SOL    HW264321   3.932  11.173   8.364 -0.0642  0.0218 -1.2517
20772SOL     OW64322   6.221   7.000   0.387 -0.5649 -0.2531 -0.0654
20772SOL    HW164323   6.222   6.951   0.469  5.0346  0.0492  0.4355
20772SOL    HW264324   6.195   6.936   0.321  1.2678 -2.5316  1.2457
20773SOL     OW64325   8.538   3.813   5.856 -0.1020  0.4711 -0.1866
20773SOL    HW164326   8.528   3.877   5.926  0.1568 -0.3900  0.6535
20773SOL    HW264327   8.450   3.803   5.819 -0.0400  1.7177 -0.7115
20774SOL     OW64328   4.908   7.450   7.539  0.0544 -0.4615 -0.0558
20774SOL    HW164329   5.003   7.464   7.540 -0.2344  1.9908  0.3267
20774SOL    HW264330   4.886   7.431   7.630 -0.0522  1.4753  0.3785
20775SOL     OW64331   4.543  10.235   1.344  0.1408 -0.4876  0.3785
20775SOL    HW164332   4.473  10.271   1.289  0.7904  0.5716  0.2076
20775SOL    HW264333   4.503  10.225   1.431  0.1489  1.5518  0.6732
20776SOL     OW64334   9.126   7.925  10.502 -0.0020  0.1244 -0.0133
20776SOL    HW164335   9.090   7.922  10.414  1.5620 -0.2766 -0.6779
20776SOL    HW264336   9.115   8.016  10.529 -0.1832  0.3340 -0.7623
20777SOL     OW64337   8.695   2.786   3.550  0.0995  0.4648 -0.5835
20777SOL    HW164338   8.683   2.701   3.508 -3.3401  0.8619 -0.6522
20777SOL    HW264339   8.693   2.850   3.478  1.1898  0.7412 -0.3922
20778SOL     OW64340   8.100   2.939  10.895 -0.7198  0.1503 -1.1525
20778SOL    HW164341   8.194   2.922  10.893 -0.5808  0.0200  1.8406
20778SOL    HW264342   8.094   3.035  10.903 -0.4409  0.0078  3.6994
20779SOL     OW64343   6.282   8.623   9.198  0.4251  0.3023 -0.1586
20779SOL    HW164344   6.290   8.717   9.188  3.3630  0.7199  3.7700
20779SOL    HW264345   6.302   8.587   9.111  0.7035  3.2473 -1.4029
20780SOL     OW64346   1.521   5.972   6.142 -0.3201  0.2844  0.3743
20780SOL    HW164347   1.568   5.972   6.225 -1.2291  1.8824  0.9289
20780SOL    HW264348   1.528   5.882   6.110 -0.3483 -0.4809  2.3972
20781SOL     OW64349   9.119   5.454   2.650 -0.1452  0.1685  0.5598
20781SOL    HW164350   9.211   5.430   2.649 -0.2783 -0.6001  2.5519
20781SOL    HW264351   9.118   5.547   2.626  1.3560  0.6720  2.2494
20782SOL     OW64352   3.248   8.731   3.139 -0.2548  0.9585  0.3441
20782SOL    HW164353   3.186   8.689   3.080  0.6752 -1.7618  1.1514
20782SOL    HW264354   3.333   8.720   3.096  0.7832 -3.0035  2.8473
20783SOL     OW64355   8.115   0.476   8.960  0.0712  0.1751 -0.2178
20783SOL    HW164356   8.117   0.568   8.934  1.4348  0.4334  0.7101
20783SOL    HW264357   8.033   0.467   9.009 -0.6615  0.5795 -1.3349
20784SOL     OW64358   0.816   9.421   7.168  0.2531 -0.4706 -0.1011
20784SOL    HW164359   0.858   9.420   7.082 -0.6263 -0.7476 -0.5430
20784SOL    HW264360   0.869   9.482   7.220  1.2583 -0.9033 -0.5897
20785SOL     OW64361  10.571   2.141   7.106  0.4522 -0.3064  0.6688
20785SOL    HW164362  10.646   2.166   7.052 -0.3201 -0.6458 -0.6013
20785SOL    HW264363  10.496   2.184   7.064 -0.1312 -0.3079  1.6721
20786SOL     OW64364  11.159   0.727   2.166 -0.4448 -0.0867 -0.4881
20786SOL    HW164365  11.240   0.761   2.202 -0.3474 -2.5016  1.9011
20786SOL    HW264366  11.186   0.666   2.098 -0.3400  0.1152 -0.6286
20787SOL     OW64367  10.404   3.959   8.888  0.3742  0.4272  0.1184
20787SOL    HW164368  10.485   3.992   8.926  1.2472  0.1288 -1.4312
20787SOL    HW264369  10.391   4.010   8.808 -0.1822 -0.5119 -0.4179
20788SOL     OW64370   9.275   1.070   1.006  0.5193 -0.3980  0.1829
20788SOL    HW164371   9.297   0.977   1.021  0.4188 -0.3421  0.7062
20788SOL    HW264372   9.233   1.098   1.088 -1.6336 -0.5236 -0.8067
20789SOL     OW64373   8.929   6.332   7.438  0.0468  0.0057 -0.5892
20789SOL    HW164374   8.924   6.328   7.533  0.2152  0.5835 -0.5504
20789SOL    HW264375   8.944   6.425   7.418  0.0701 -0.1148 -1.1743
20790SOL     OW64376   0.435   9.169   2.581  0.1447  0.8486 -0.5463
20790SOL    HW164377   0.429   9.262   2.559  2.3208  0.6412 -2.4094
20790SOL    HW264378   0.394   9.125   2.507 -0.7354  0.2782  0.2574
20791SOL     OW64379   4.487   8.569   4.590  0.3329 -0.5414  0.1882
20791SOL    HW164380   4.482   8.587   4.684  2.2691  0.1188  0.2080
20791SOL    HW264381   4.458   8.650   4.549  0.1903 -0.5745  0.2241
20792SOL     OW64382   2.364   0.592   2.364 -0.0665  0.1221 -0.1583
20792SOL    HW164383   2.460   0.593   2.373  0.0878 -1.6932 -1.1927
20792SOL    HW264384   2.339   0.503   2.389 -1.3782  0.2352 -1.0122
20793SOL     OW64385   1.898   5.403   8.956 -0.0778  0.1375 -0.2756
20793SOL    HW164386   1.858   5.344   9.020 -0.4889 -0.4260 -1.0268
20793SOL    HW264387   1.906   5.487   9.002 -4.1628  0.9447 -0.6657
20794SOL     OW64388   7.252   2.343   9.004  0.5708 -0.7817  0.3624
20794SOL    HW164389   7.261   2.270   8.942  2.2006 -0.4506  0.1542
20794SOL    HW264390   7.229   2.418   8.950  0.0952 -0.8826  0.4196
20795SOL     OW64391  10.535   2.511   5.948  0.2073  0.5528 -0.1207
20795SOL    HW164392  10.473   2.450   5.988  0.3242 -0.2456 -1.1183
20795SOL    HW264393  10.484   2.591   5.934  0.2038  0.9152  1.7201
20796SOL     OW64394   0.719   7.496   9.668  0.4239 -0.9401 -0.0906
20796SOL    HW164395   0.652   7.560   9.693 -1.7632 -1.1270 -4.4930
20796SOL    HW264396   0.699   7.419   9.722 -1.9885 -0.4719 -0.2114
20797SOL     OW64397   9.364   5.290   6.687  0.1258 -0.5163 -0.3330
20797SOL    HW164398   9.339   5.345   6.613  0.8932 -0.1783 -0.3470
20797SOL    HW264399   9.448   5.253   6.663  0.4490 -0.3012  0.4246
20798SOL     OW64400   4.684   1.530   2.648  0.1734  0.2238 -0.1222
20798SOL    HW164401   4.720   1.618   2.639  0.6320 -0.1681 -3.0930
20798SOL    HW264402   4.716   1.483   2.570 -2.4296 -1.6972 -0.1461
20799SOL     OW64403   5.781   1.006   3.244 -0.0792  0.3856  0.4455
20799SOL    HW164404   5.805   0.955   3.321  1.1102  0.8367  0.4056
20799SOL    HW264405   5.835   0.970   3.173  0.8459  1.6899  0.4315
20800SOL     OW64406  10.842   7.440   0.127  0.8020 -0.7492  0.6994
20800SOL    HW164407  10.844   7.354   0.083 -1.3769 -0.3742 -0.2862
20800SOL    HW264408  10.907   7.492   0.080  0.3541 -1.1375 -0.4058
20801SOL     OW64409   2.436   2.169   1.161  0.9176 -0.1984 -0.5709
20801SOL    HW164410   2.361   2.109   1.169 -1.5004  2.6863  0.4517
20801SOL    HW264411   2.492   2.148   1.236 -0.9943  0.1309  1.0518
20802SOL     OW64412   3.258   8.893   6.513 -0.4083 -0.5091 -0.6818
20802SOL    HW164413   3.253   8.798   6.507 -2.4325 -0.4089 -1.4211
20802SOL    HW264414   3.211   8.915   6.593 -0.1306 -0.1147 -0.6209
20803SOL     OW64415   9.917   4.183   2.331  0.2426  0.4528  0.3190
20803SOL    HW164416  10.004   4.174   2.369  0.5452 -0.8626 -0.5992
20803SOL    HW264417   9.896   4.275   2.341  1.0665  0.4982  1.9801
20804SOL     OW64418   3.565   9.289   9.061  0.0040  0.5630  0.0384
20804SOL    HW164419   3.632   9.355   9.045 -0.7601  1.6007  0.9668
20804SOL    HW264420   3.512   9.288   8.982  0.3307  0.6936 -0.1826
20805SOL     OW64421   4.862  10.543   6.263  1.0594 -0.1175  0.1054
20805SOL    HW164422   4.868  10.498   6.347  2.9205 -0.0301  0.0743
20805SOL    HW264423   4.867  10.636   6.286 -0.7825  0.0399  0.0267
20806SOL     OW64424  10.190   4.457   7.952 -0.4630 -0.2207 -0.1441
20806SOL    HW164425  10.156   4.538   7.915 -0.9210  0.0823  0.8867
20806SOL    HW264426  10.274   4.482   7.991  0.2997 -0.6603 -1.4259
20807SOL     OW64427   1.423   7.292   5.171  0.1787 -0.4495  0.0018
20807SOL    HW164428   1.384   7.262   5.254 -0.1216 -0.1916 -0.0440
20807SOL    HW264429   1.455   7.380   5.189 -0.5257 -0.1089 -0.3429
20808SOL     OW64430   4.121   3.338   1.859  0.2484  0.1180  0.6700
20808SOL    HW164431   4.161   3.414   1.901  0.2410  1.6789 -1.9765
20808SOL    HW264432   4.031   3.365   1.841  0.1412 -0.6437  0.0087
20809SOL     OW64433   5.145   4.477   5.516 -0.2908 -0.2857  0.0637
20809SOL    HW164434   5.174   4.405   5.459  0.6297 -0.3171  0.5558
20809SOL    HW264435   5.220   4.536   5.521 -0.6354  0.1176  0.6077
20810SOL     OW64436   0.553   3.667   6.435 -0.1684  0.0080  0.0672
20810SOL    HW164437   0.483   3.626   6.485 -0.9091  2.4340  1.1715
20810SOL    HW264438   0.508   3.723   6.372  0.8003 -1.2335 -1.8290
20811SOL     OW64439   0.926   8.885   3.611  0.3764  0.3138  0.4159
20811SOL    HW164440   0.957   8.975   3.621  0.5130  0.4576 -1.1023
20811SOL    HW264441   0.882   8.866   3.694  0.8477  1.5676  0.9864
20812SOL     OW64442   4.418   3.222   4.912  0.1064 -0.1368 -0.1900
20812SOL    HW164443   4.507   3.251   4.933 -1.3203  2.8120  2.8634
20812SOL    HW264444   4.411   3.135   4.951  1.6601 -0.4337 -0.5339
20813SOL     OW64445   8.255   2.487   7.618 -0.1376 -0.3730 -0.3069
20813SOL    HW164446   8.199   2.411   7.603  1.3699 -1.3061 -1.4511
20813SOL    HW264447   8.344   2.453   7.612  0.6371  1.7489 -2.5907
20814SOL     OW64448   1.702   9.128   1.001  0.3359 -0.3120 -0.4782
20814SOL    HW164449   1.752   9.209   1.001 -0.5239  0.2332 -0.4817
20814SOL    HW264450   1.745   9.073   1.067 -0.7733  1.2400  1.6676
20815SOL     OW64451   2.037   3.161  10.298  0.0918 -0.1213  0.4593
20815SOL    HW164452   2.108   3.218  10.269 -1.5541  1.7644 -0.0852
20815SOL    HW264453   2.041   3.086  10.239 -0.7890  1.8317 -2.2988
20816SOL     OW64454   5.986   7.284   9.561  0.6735 -0.1770 -0.4383
20816SOL    HW164455   6.038   7.209   9.535  1.0028 -0.5729  1.2381
20816SOL    HW264456   5.975   7.274   9.656 -1.2318  0.6656 -0.5305
20817SOL     OW64457   3.434   5.059  10.451  0.3098 -0.2730 -0.0007
20817SOL    HW164458   3.381   5.116  10.507  0.3163  0.1031 -0.3699
20817SOL    HW264459   3.375   4.987  10.428  0.0848 -0.0675 -0.0778
20818SOL     OW64460   2.065   5.127   9.536 -0.2193 -0.5972 -0.9178
20818SOL    HW164461   2.054   5.057   9.601  0.0895 -2.9268 -3.1999
20818SOL    HW264462   2.007   5.197   9.566  0.2204 -1.3420  2.0509
20819SOL     OW64463   2.763   4.146   8.351 -0.4118 -0.2490 -0.2602
20819SOL    HW164464   2.770   4.072   8.291  0.2700 -0.4795  0.0889
20819SOL    HW264465   2.717   4.213   8.301 -0.7818 -0.8010 -0.6799
20820SOL     OW64466   5.991   8.891   0.048  0.4337  0.1037 -0.2902
20820SOL    HW164467   5.970   8.816  -0.008 -1.3728  1.1843 -1.1605
20820SOL    HW264468   5.969   8.861   0.136  0.6998 -0.7245 -0.4930
20821SOL     OW64469  10.872   0.701   5.030  1.0839  0.1971 -0.4062
20821SOL    HW164470  10.897   0.651   4.953  2.6803  0.0566  0.1472
20821SOL    HW264471  10.956   0.722   5.073  0.2262 -0.3447  1.6675
20822SOL     OW64472   7.536   2.380   4.019  0.6974 -0.9139  0.2754
20822SOL    HW164473   7.505   2.453   3.965  2.4051  0.7306  1.3763
20822SOL    HW264474   7.567   2.314   3.957 -0.2960 -0.4586 -0.7422
20823SOL     OW64475   3.135   2.380  10.003 -0.2693 -0.0947  0.5493
20823SOL    HW164476   3.153   2.328  10.082 -0.0691 -0.9424 -0.0441
20823SOL    HW264477   3.219   2.383   9.957 -0.7354 -0.9322 -0.3939
20824SOL     OW64478   3.019   7.663   8.433 -0.4478  0.4067  0.2228
20824SOL    HW164479   3.032   7.723   8.506 -1.7865  2.4271 -1.0866
20824SOL    HW264480   3.050   7.711   8.356 -0.7131 -0.9512 -0.7778
20825SOL     OW64481   8.920   2.873  11.075 -0.0901 -1.1887  0.6553
20825SOL    HW164482   8.947   2.827  10.996  0.9052  0.1386  0.1789
20825SOL    HW264483   8.987   2.939  11.089 -1.1421 -0.2651  1.6403
20826SOL     OW64484   2.777   3.188   2.758 -0.1137  0.0249  0.2721
20826SOL    HW164485   2.686   3.160   2.771  0.2730 -0.9792  0.9739
20826SOL    HW264486   2.799   3.236   2.837 -0.3266  1.1529 -0.3289
20827SOL     OW64487   3.113   4.466   8.689 -0.1305  0.6576  0.0748
20827SOL    HW164488   3.111   4.535   8.622 -0.7653  0.1819 -0.4028
20827SOL    HW264489   3.038   4.410   8.669  1.4333 -1.2824 -0.7273
20828SOL     OW64490   6.030   9.656   7.264 -0.4966  0.2781  0.2090
20828SOL    HW164491   6.030   9.651   7.168 -1.2454  1.4076  0.1203
20828SOL    HW264492   6.122   9.662   7.288 -0.3149  0.2571 -0.4573
20829SOL     OW64493   4.918   0.857   0.372 -0.8425  0.3888 -0.4961
20829SOL    HW164494   4.836   0.823   0.337 -0.4157 -0.6448 -0.5226
20829SOL    HW264495   4.909   0.952   0.367 -1.3373  0.2745 -2.1411
20830SOL     OW64496   7.425   4.969   9.595 -0.0906 -0.3554 -0.1358
20830SOL    HW164497   7.418   4.913   9.518  0.4911 -1.7589  0.7995
20830SOL    HW264498   7.469   4.915   9.661 -0.6647  0.7652  1.2292
20831SOL     OW64499   5.161   4.739   7.859 -0.0114 -0.7283  0.0047
20831SOL    HW164500   5.171   4.808   7.793  3.7915 -1.1357 -0.0649
20831SOL    HW264501   5.072   4.706   7.847 -0.6799  1.6610 -2.4297
20832SOL     OW64502   8.043   4.371   3.153 -0.1770  0.3344 -0.3324
20832SOL    HW164503   7.989   4.379   3.075  1.6222 -0.4309 -1.7315
20832SOL    HW264504   8.124   4.330   3.122  0.8681  0.6297  1.8141
20833SOL     OW64505  10.757   5.549   2.578  0.2300  0.0644 -0.4008
20833SOL    HW164506  10.762   5.456   2.557 -0.8155  0.2622 -1.6202
20833SOL    HW264507  10.719   5.552   2.666  0.3231 -0.6505 -0.3331
20834SOL     OW64508   7.999   0.034  10.519  0.4798 -0.2759  0.1589
20834SOL    HW164509   8.070   0.068  10.574  0.1197 -0.9193  1.0618
20834SOL    HW264510   7.930   0.100  10.526  1.2435  0.7405 -1.3569
20835SOL     OW64511   4.098   2.703   6.240 -1.1064 -0.1561  0.0276
20835SOL    HW164512   4.116   2.765   6.310 -1.7292 -0.8710  0.8463
20835SOL    HW264513   4.011   2.667   6.261 -1.8846  0.5395 -1.8075
20836SOL     OW64514   6.497   9.700   6.179  0.3602 -0.1862 -0.2411
20836SOL    HW164515   6.455   9.757   6.114  0.9343  0.1106 -0.3564
20836SOL    HW264516   6.537   9.630   6.127  0.9851  0.1557 -0.2250
20837SOL     OW64517   5.960  10.185  11.133  0.2523 -0.1277  0.4552
20837SOL    HW164518   5.895  10.124  11.097  0.2913  1.8619 -3.5370
20837SOL    HW264519   6.038  10.171  11.080  0.9025  2.0122  0.7429
20838SOL     OW64520   6.432   4.469   8.548 -0.3119 -0.5440 -0.2756
20838SOL    HW164521   6.445   4.489   8.455  0.5789 -0.8046 -0.2190
20838SOL    HW264522   6.517   4.436   8.577 -1.1555 -2.5370  0.0976
20839SOL     OW64523   1.074   3.980   6.764 -0.6583 -0.3155  0.0399
20839SOL    HW164524   1.164   4.007   6.777 -0.2652 -1.9552  1.0632
20839SOL    HW264525   1.023   4.033   6.826 -0.2677 -0.1275  0.1999
20840SOL     OW64526   7.994   3.036   9.030 -0.3307 -0.0155 -0.1992
20840SOL    HW164527   7.949   3.119   9.015 -1.9844 -1.1193 -1.7685
20840SOL    HW264528   8.081   3.061   9.061 -0.5526  2.3095 -1.2691
20841SOL     OW64529   8.535  10.467   5.515 -0.5907  0.3558  0.7388
20841SOL    HW164530   8.574  10.473   5.602  1.7855  1.1696 -0.3137
20841SOL    HW264531   8.582  10.395   5.472 -1.9767 -0.2779  0.2168
20842SOL     OW64532   2.337   8.424  10.885  0.8263 -0.0887  0.3254
20842SOL    HW164533   2.402   8.397  10.949  2.0771 -1.4157 -1.4060
20842SOL    HW264534   2.353   8.368  10.809 -2.0313 -0.1626 -0.3712
20843SOL     OW64535   6.039   9.441   5.650 -0.2049  0.2229 -0.1741
20843SOL    HW164536   5.968   9.494   5.687 -0.1402 -0.9900  1.8384
20843SOL    HW264537   6.119   9.480   5.685 -0.1191 -0.7236  0.7314
20844SOL     OW64538   8.794   8.958   3.984  0.3030 -0.1256  0.2892
20844SOL    HW164539   8.843   8.888   3.941  2.1511 -0.6717  2.9764
20844SOL    HW264540   8.735   8.912   4.044 -1.5914  0.6125 -0.9201
20845SOL     OW64541   0.960   4.324   8.674  0.1884  0.0281 -0.4045
20845SOL    HW164542   0.986   4.415   8.690  0.1641 -0.0470  0.1072
20845SOL    HW264543   0.944   4.319   8.580  0.2520  0.5388 -0.4456
20846SOL     OW64544   2.312   3.084   0.075  0.1002 -0.2462 -0.4521
20846SOL    HW164545   2.356   3.109  -0.006  1.7274  4.5269  1.5350
20846SOL    HW264546   2.380   3.041   0.127  0.6394  1.3590  0.2216
20847SOL     OW64547   8.387   0.628   9.762 -0.4991 -0.2050  0.6048
20847SOL    HW164548   8.343   0.657   9.841 -2.7113  0.9988 -0.9830
20847SOL    HW264549   8.339   0.550   9.734 -0.1337 -0.2555  0.0919
20848SOL     OW64550   7.133   5.124   6.439  0.6649  0.1252  0.1614
20848SOL    HW164551   7.062   5.086   6.491  1.9056 -1.9268  0.4660
20848SOL    HW264552   7.148   5.210   6.478 -0.4698 -0.1259  1.2155
20849SOL     OW64553   2.631   3.560   3.012 -0.0624  0.2825  0.0861
20849SOL    HW164554   2.651   3.468   2.999  1.3463  0.2449  2.0846
20849SOL    HW264555   2.537   3.563   3.030  0.0220 -0.8585  0.7521
20850SOL     OW64556   3.719   1.555   5.041 -0.3451 -0.4240 -0.0065
20850SOL    HW164557   3.685   1.606   4.967 -2.9545  0.9597  1.9482
20850SOL    HW264558   3.785   1.612   5.080 -1.8061  0.6907  0.9706
20851SOL     OW64559   9.961   0.852   9.318 -0.8647  0.3122 -0.2114
20851SOL    HW164560   9.911   0.934   9.315 -0.3289  0.6676  0.3605
20851SOL    HW264561  10.044   0.872   9.275 -1.2590 -0.3308 -1.3284
20852SOL     OW64562   3.189   6.234   3.836 -0.0236  0.3162  0.8340
20852SOL    HW164563   3.252   6.171   3.802 -1.0071 -0.4497  0.3632
20852SOL    HW264564   3.123   6.179   3.879 -0.9359  1.0244  0.3555
20853SOL     OW64565   8.823   2.475   5.220 -0.5091 -0.0552 -0.0734
20853SOL    HW164566   8.820   2.567   5.194  0.7997 -0.1798 -0.7238
20853SOL    HW264567   8.747   2.436   5.176 -0.8087  0.6103 -0.1681
20854SOL     OW64568   2.383   4.156   5.180  0.3124 -0.0367  0.9568
20854SOL    HW164569   2.424   4.069   5.170  1.2013  0.3285  1.3648
20854SOL    HW264570   2.336   4.151   5.263 -0.5258 -0.4664  0.4746
20855SOL     OW64571   8.974   8.799   4.735  0.1154 -0.0202 -0.5433
20855SOL    HW164572   8.982   8.822   4.642 -0.7532 -0.8095 -0.8355
20855SOL    HW264573   8.881   8.810   4.754  0.6020  2.2381  0.8364
20856SOL     OW64574   4.929   9.376   9.456 -0.1612 -0.2340  0.0607
20856SOL    HW164575   4.844   9.406   9.426 -0.1512  0.0923  0.3497
20856SOL    HW264576   4.916   9.359   9.550  0.0862 -0.2039  0.1006
20857SOL     OW64577  11.134   7.898   3.616 -0.0998 -0.1589 -0.1628
20857SOL    HW164578  11.057   7.929   3.568  0.6685  0.2768 -1.1802
20857SOL    HW264579  11.207   7.916   3.556  0.7602 -0.7827  0.6734
20858SOL     OW64580   0.783   4.236  10.479 -0.2718 -0.1316  0.8190
20858SOL    HW164581   0.763   4.329  10.481  0.1615 -0.0010 -0.4393
20858SOL    HW264582   0.879   4.232  10.474 -0.3571 -0.5536 -1.7566
20859SOL     OW64583   8.664   7.865   3.430  0.9229  0.2503 -0.7692
20859SOL    HW164584   8.607   7.803   3.476  2.4338 -0.3725  0.3335
20859SOL    HW264585   8.712   7.910   3.500  3.4129 -0.8407 -1.6758
20860SOL     OW64586   8.576   7.553   9.679 -0.0629  0.2221  0.9977
20860SOL    HW164587   8.521   7.474   9.689 -0.1978 -0.1548 -1.9208
20860SOL    HW264588   8.601   7.553   9.587  2.9301  1.7051  1.6855
20861SOL     OW64589   8.418   1.770   1.265  0.8203 -0.5047  0.0662
20861SOL    HW164590   8.428   1.809   1.351  2.0661 -1.9905  0.6487
20861SOL    HW264591   8.325   1.778   1.245  0.3708 -0.8007  1.9032
20862SOL     OW64592   6.785   3.952   1.908  0.3290  0.1856  0.4857
20862SOL    HW164593   6.696   3.936   1.877  0.3859 -0.9512  0.8541
20862SOL    HW264594   6.797   4.047   1.901 -0.5823  0.2468 -0.4304
20863SOL     OW64595   7.262   8.438   2.489 -0.2620 -0.2024 -0.2925
20863SOL    HW164596   7.213   8.515   2.460 -1.8307 -1.7397 -2.0054
20863SOL    HW264597   7.341   8.438   2.434  1.0785  1.5116  1.5016
20864SOL     OW64598   3.215   7.495   7.769  0.2012 -0.5868  0.2456
20864SOL    HW164599   3.179   7.567   7.820 -0.7693 -0.5653 -0.4428
20864SOL    HW264600   3.142   7.435   7.758 -0.1306  0.2061 -2.5373
20865SOL     OW64601  11.219   9.021   6.707  0.2955 -0.2808 -0.1770
20865SOL    HW164602  11.304   9.006   6.664  0.5323 -0.0074  0.1931
20865SOL    HW264603  11.237   9.009   6.800  0.3434  1.5883  0.0807
20866SOL     OW64604   7.735   7.019   7.811 -0.2318  0.1223  0.8210
20866SOL    HW164605   7.685   6.956   7.863  1.0497  0.2879  2.3663
20866SOL    HW264606   7.805   6.967   7.772 -0.9835  0.0674 -0.4939
20867SOL     OW64607   4.682   0.342   3.282  0.5604 -0.5178 -0.2401
20867SOL    HW164608   4.773   0.339   3.312  0.6776  1.5954 -0.1809
20867SOL    HW264609   4.662   0.436   3.277 -1.1177 -0.8893 -1.7715
20868SOL     OW64610   9.070   9.378   9.945 -0.4142  0.8295 -0.1601
20868SOL    HW164611   9.078   9.416  10.032 -0.8565  0.2423  0.1426
20868SOL    HW264612   8.994   9.321   9.950 -3.0428  3.8455 -2.0749
20869SOL     OW64613   9.008   8.187   2.449 -0.6764 -0.6274 -0.5115
20869SOL    HW164614   9.025   8.144   2.533  0.5186  0.5194 -0.1454
20869SOL    HW264615   9.089   8.176   2.399 -0.3857  1.0429 -0.4612
20870SOL     OW64616   0.860   7.351   7.666 -0.2431  0.7776 -0.6727
20870SOL    HW164617   0.842   7.386   7.579 -0.8948  0.3850 -0.6984
20870SOL    HW264618   0.937   7.400   7.696  0.3520  0.5017 -1.7070
20871SOL     OW64619   0.172   4.142   9.641  0.1837  0.1890  0.8336
20871SOL    HW164620   0.132   4.078   9.582  1.6960  1.1424 -1.3379
20871SOL    HW264621   0.098   4.196   9.671 -0.5470  0.2236 -0.9145
20872SOL     OW64622   9.654   6.977   1.646  0.0147  0.2641 -0.0095
20872SOL    HW164623   9.674   7.024   1.727 -1.9739 -1.3822  1.5304
20872SOL    HW264624   9.679   6.887   1.663 -3.3283 -0.7700  0.0321
20873SOL     OW64625   5.054   5.805   0.367  0.4578  0.2047 -0.5374
20873SOL    HW164626   5.059   5.787   0.460  0.5866  1.4300 -0.2955
20873SOL    HW264627   4.961   5.820   0.350  0.5389  0.8737 -0.4207
20874SOL     OW64628  10.677   1.743   5.065  0.0095  0.2561 -1.0776
20874SOL    HW164629  10.625   1.730   5.144  0.4200 -3.3875 -1.2585
20874SOL    HW264630  10.764   1.709   5.088  0.7593  1.1658 -2.4419
20875SOL     OW64631   3.528   5.922   4.347  0.1299  0.0523 -0.3832
20875SOL    HW164632   3.533   5.996   4.407 -0.3145 -0.2382  0.0100
20875SOL    HW264633   3.436   5.918   4.320 -0.6831 -2.4615  2.2884
20876SOL     OW64634   7.464   6.768   2.334  0.1651  0.6065 -0.2666
20876SOL    HW164635   7.400   6.702   2.360 -2.7579  2.8992 -1.0335
20876SOL    HW264636   7.450   6.780   2.240  4.2369 -1.1319 -1.3233
20877SOL     OW64637   0.514   0.777   6.292  0.2297  1.0066  0.2923
20877SOL    HW164638   0.451   0.708   6.275  0.4401  0.1106  2.7157
20877SOL    HW264639   0.465   0.843   6.341  0.0552  2.6294 -1.8983
20878SOL     OW64640   8.239   3.102   9.077  0.2059  0.1181 -0.0528
20878SOL    HW164641   8.334   3.096   9.065  0.0213  0.4863 -2.0930
20878SOL    HW264642   8.222   3.195   9.090 -0.0053  0.2645 -1.2834
20879SOL     OW64643   6.422   8.794   6.716  0.2855 -0.1222 -0.1082
20879SOL    HW164644   6.332   8.765   6.703  0.3395 -0.0497 -0.6542
20879SOL    HW264645   6.453   8.819   6.629  0.4614  0.9341  0.2402
20880SOL     OW64646   6.261   8.019   1.398 -0.5753  1.0063 -0.0350
20880SOL    HW164647   6.210   7.945   1.365  3.0409 -1.9737  0.4152
20880SOL    HW264648   6.284   7.994   1.487  0.7823  2.6793  0.1269
20881SOL     OW64649   8.342   4.964   6.685  0.2224  0.3122  0.6454
20881SOL    HW164650   8.423   4.918   6.662 -0.4216  0.4238 -2.1678
20881SOL    HW264651   8.367   5.019   6.760  2.8488  0.6435 -0.3590
20882SOL     OW64652  10.291   6.137  10.172 -0.3783 -0.5974 -0.2035
20882SOL    HW164653  10.313   6.212  10.227  1.0742 -2.2736  1.6370
20882SOL    HW264654  10.198   6.148  10.153 -0.4093  1.1832  0.7752
20883SOL     OW64655   9.505  11.083  10.394 -0.2829  0.2421  0.5347
20883SOL    HW164656   9.464  11.100  10.309  1.5592 -1.9171 -0.8979
20883SOL    HW264657   9.451  11.014  10.433  0.1635 -0.3808  0.0659
20884SOL     OW64658   4.855   6.995   9.827  0.3948  0.1720  0.2727
20884SOL    HW164659   4.819   6.906   9.822  0.0433  0.3557 -0.5295
20884SOL    HW264660   4.803   7.046   9.765  1.3663  0.6741 -0.1587
20885SOL     OW64661   3.532   9.893   4.375 -0.8865  0.5767  0.2453
20885SOL    HW164662   3.563   9.969   4.424 -0.3256  2.0442 -2.1957
20885SOL    HW264663   3.441   9.913   4.354 -1.0375  0.1063  0.4346
20886SOL     OW64664  10.586   7.348   0.477  0.3916 -0.6374 -0.0313
20886SOL    HW164665  10.533   7.426   0.464 -1.7805 -2.0300 -0.0526
20886SOL    HW264666  10.590   7.306   0.391  1.6152 -0.5356 -0.0452
20887SOL     OW64667   9.895   1.491   1.340  0.7842 -0.2117  0.7346
20887SOL    HW164668   9.877   1.564   1.281  2.4731  0.8893  1.4822
20887SOL    HW264669   9.975   1.517   1.386  1.2789 -2.4150  1.2476
20888SOL     OW64670   7.686   5.529  10.328 -0.1699  0.7111 -0.4361
20888SOL    HW164671   7.773   5.490  10.319 -1.1364 -1.4026 -1.1259
20888SOL    HW264672   7.695   5.615  10.287  1.5414  0.4558 -0.6954
20889SOL     OW64673   1.310   8.168  10.721 -0.6829 -0.8135 -0.2840
20889SOL    HW164674   1.233   8.193  10.773 -0.9676 -0.0523 -1.0629
20889SOL    HW264675   1.328   8.244  10.666  0.9000 -0.8160  0.1880
20890SOL     OW64676  10.625  10.751   1.013 -0.0358  0.8412 -0.0933
20890SOL    HW164677  10.621  10.843   0.985 -0.0886  0.6093 -0.8669
20890SOL    HW264678  10.712  10.741   1.052  0.6632  0.7914 -1.5919
20891SOL     OW64679   6.506   3.450  11.082 -0.9655 -0.3245 -0.1012
20891SOL    HW164680   6.505   3.358  11.110 -1.6526  0.3535  2.3307
20891SOL    HW264681   6.599   3.472  11.077 -0.8117 -0.8619  0.2871
20892SOL     OW64682   4.054  10.824  10.316  0.2773  0.4519 -0.4328
20892SOL    HW164683   4.091  10.865  10.237  2.2119  0.5129  0.4559
20892SOL    HW264684   4.039  10.896  10.376  2.6982  0.0644  0.7432
20893SOL     OW64685   5.395   1.485  10.007 -0.7907  0.8632  0.1644
20893SOL    HW164686   5.331   1.448  10.066 -1.5820 -0.8317 -1.6349
20893SOL    HW264687   5.344   1.511   9.929  0.1803  3.0792  0.1815
20894SOL     OW64688   8.665   3.772   8.229 -0.1606 -0.1745 -0.3491
20894SOL    HW164689   8.671   3.771   8.134 -1.4441 -1.4639 -0.4465
20894SOL    HW264690   8.755   3.756   8.259  0.5098  1.5336 -1.2840
20895SOL     OW64691   0.221   5.296   2.157 -0.6387  0.1472  0.0027
20895SOL    HW164692   0.296   5.323   2.210 -0.6679  0.5107 -0.1382
20895SOL    HW264693   0.181   5.378   2.128 -0.3776 -0.0407 -0.9246
20896SOL     OW64694   4.132   6.077   1.442  0.2948 -0.3188 -0.6469
20896SOL    HW164695   4.136   6.085   1.538 -1.3871 -1.7840 -0.3865
20896SOL    HW264696   4.055   6.128   1.417  0.6313 -0.0772 -1.1903
20897SOL     OW64697  10.301   1.591   4.031  0.4924  0.4613 -0.3029
20897SOL    HW164698  10.358   1.515   4.019  0.2062  0.5629 -3.0647
20897SOL    HW264699  10.352   1.653   4.083  1.1749 -1.1180  0.9752
20898SOL     OW64700   1.037   7.441   5.880  0.2375 -0.1441  0.6643
20898SOL    HW164701   1.045   7.535   5.898 -0.4667 -0.1343  0.9438
20898SOL    HW264702   1.062   7.399   5.963  2.9604 -0.3081 -0.1479
20899SOL     OW64703  10.316   2.609   0.958  0.5514  0.3566 -0.1336
20899SOL    HW164704  10.396   2.562   0.936  0.4728 -0.7697  1.8004
20899SOL    HW264705  10.346   2.684   1.009  0.3525 -0.9924  2.0940
20900SOL     OW64706   9.887   7.743   1.022  0.1950  0.7904 -0.1299
20900SOL    HW164707   9.882   7.838   1.029  0.9636  0.9100 -0.9284
20900SOL    HW264708   9.971   7.721   1.062  1.2022  0.7405 -2.1376
20901SOL     OW64709   1.883   7.069   8.343 -0.0688 -0.5278  0.2429
20901SOL    HW164710   1.944   7.040   8.411  0.2651 -1.4862 -0.4471
20901SOL    HW264711   1.939   7.101   8.272 -0.3787 -0.7334 -0.1016
20902SOL     OW64712   2.520   4.196   4.314  0.3211  0.1159 -0.0015
20902SOL    HW164713   2.515   4.136   4.389  0.0909 -0.6556 -0.6272
20902SOL    HW264714   2.565   4.273   4.349  2.3161 -1.1394  0.3690
20903SOL     OW64715   9.865   3.452  10.637 -0.6622 -0.3118 -0.6941
20903SOL    HW164716   9.956   3.481  10.631  0.1053 -2.6857 -1.5924
20903SOL    HW264717   9.819   3.507  10.574  0.6989 -0.8631 -2.2469
20904SOL     OW64718   0.796   4.606   4.297 -0.4728 -0.5553 -0.2328
20904SOL    HW164719   0.833   4.530   4.342  3.1791  2.2541  2.1224
20904SOL    HW264720   0.736   4.644   4.361 -0.0526  0.0846 -0.2163
20905SOL     OW64721   9.262  10.478   5.756  0.0459  0.6346 -0.1554
20905SOL    HW164722   9.345  10.451   5.796 -0.7810 -0.5293  0.8564
20905SOL    HW264723   9.253  10.571   5.780  0.8766  0.6721  0.0433
20906SOL     OW64724   3.094   8.917   6.206  0.0268  0.2726  0.3186
20906SOL    HW164725   3.114   8.825   6.188 -0.8688  0.5545 -2.5673
20906SOL    HW264726   3.173   8.951   6.247  1.6942 -0.9827 -1.6906
20907SOL     OW64727   2.761  10.737   7.421  0.0404  0.1897  0.0477
20907SOL    HW164728   2.692  10.780   7.471 -0.4282 -1.8898  1.3085
20907SOL    HW264729   2.715  10.672   7.367  0.8767 -0.2768 -0.1269
20908SOL     OW64730   5.112  10.547   8.554 -0.2000 -0.8147  0.0154
20908SOL    HW164731   5.069  10.464   8.575 -0.0946 -1.4926 -2.2335
20908SOL    HW264732   5.204  10.524   8.545  0.1615 -0.0224  1.3527
20909SOL     OW64733  10.487   4.677   6.127  0.4085 -0.3255 -0.0025
20909SOL    HW164734  10.403   4.712   6.157  1.0544  0.1342  1.3459
20909SOL    HW264735  10.466   4.591   6.091 -0.8772  0.4940 -1.3051
20910SOL     OW64736   2.974   9.578   9.506  0.2277  0.2621 -0.0094
20910SOL    HW164737   3.064   9.609   9.496 -0.5662  2.5901 -0.5596
20910SOL    HW264738   2.974   9.531   9.589  2.3338 -1.4823 -0.8734
20911SOL     OW64739   0.404   3.346   9.676 -0.1596  0.0164 -0.1236
20911SOL    HW164740   0.474   3.377   9.618 -2.0231  1.7144 -1.6173
20911SOL    HW264741   0.449   3.314   9.754  2.2171  2.6770 -0.2607
20912SOL     OW64742   6.212   2.042   9.384 -0.0130  0.0197  0.3923
20912SOL    HW164743   6.219   1.953   9.418  0.7450  0.8245  2.5504
20912SOL    HW264744   6.126   2.072   9.414  0.8192  0.8686  2.0605
20913SOL     OW64745   5.636  10.814   6.549 -0.0150 -0.1233  0.2168
20913SOL    HW164746   5.559  10.865   6.525 -0.3148 -0.2408  0.9223
20913SOL    HW264747   5.710  10.865   6.516 -0.4109 -0.2825 -0.9592
20914SOL     OW64748   3.325   2.581   5.593 -0.0223  0.0087 -0.2707
20914SOL    HW164749   3.350   2.496   5.629  1.1925 -0.9130 -2.9797
20914SOL    HW264750   3.316   2.565   5.499 -0.4552  2.7442 -0.7857
20915SOL     OW64751  11.233   0.240   3.969 -0.1516 -0.3302  1.0613
20915SOL    HW164752  11.169   0.175   3.998 -1.0986  0.3396  0.5447
20915SOL    HW264753  11.205   0.322   4.011  0.5198 -0.0710  1.0238
20916SOL     OW64754   8.835   2.181   2.104 -0.1210  0.1165  0.0631
20916SOL    HW164755   8.778   2.211   2.175 -0.1217  0.4470 -0.0752
20916SOL    HW264756   8.777   2.127   2.049  0.4244 -2.0572  1.5248
20917SOL     OW64757   7.093  10.485   0.710 -0.3997 -0.0716  0.1004
20917SOL    HW164758   7.162  10.447   0.656 -0.5240 -0.9194  0.5377
20917SOL    HW264759   7.018  10.427   0.699 -0.2793 -0.5406  1.5717
20918SOL     OW64760   2.433   9.329   0.988 -0.6120 -0.5290  0.3841
20918SOL    HW164761   2.456   9.284   0.907  0.1756 -1.1657  0.9416
20918SOL    HW264762   2.338   9.318   0.996 -0.7568 -0.1127 -0.6397
20919SOL     OW64763  10.823  10.326   9.971 -0.2548 -0.1667  0.2785
20919SOL    HW164764  10.905  10.344  10.016  1.0690  0.9987 -2.3688
20919SOL    HW264765  10.757  10.374  10.021  0.5474 -1.3025  2.5860
20920SOL     OW64766   1.865   4.046   5.457 -0.1400 -0.2171 -0.6931
20920SOL    HW164767   1.907   4.102   5.392 -0.0919  0.9633  0.3154
20920SOL    HW264768   1.938   3.996   5.495  0.3008  1.2327  0.4779
20921SOL     OW64769   3.522   2.591   1.584 -0.4198 -0.0971  0.1269
20921SOL    HW164770   3.461   2.652   1.542 -0.3557 -1.2322 -1.7189
20921SOL    HW264771   3.591   2.646   1.620 -1.2565  1.0333  0.0320
20922SOL     OW64772   9.493   4.286  11.183  0.2616  0.2340 -0.0327
20922SOL    HW164773   9.442   4.363  11.209  0.2409 -0.4841  2.1972
20922SOL    HW264774   9.584   4.312  11.198  0.3664  0.3609 -0.8342
20923SOL     OW64775   4.956   0.416   3.308 -0.2996  0.5130  0.8090
20923SOL    HW164776   4.981   0.449   3.221 -1.4216 -1.6403 -0.4072
20923SOL    HW264777   5.023   0.351   3.329 -1.4527 -0.8797  0.3044
20924SOL     OW64778   2.336   6.935  10.093 -0.5701 -0.8307  0.3117
20924SOL    HW164779   2.293   7.012  10.056  0.7981  0.1189  0.6602
20924SOL    HW264780   2.419   6.929  10.047  0.1085 -1.0544  1.5306
20925SOL     OW64781   8.131   4.348   5.916 -0.0338 -0.4336 -0.4322
20925SOL    HW164782   8.140   4.261   5.955  0.6667 -0.4854 -0.7001
20925SOL    HW264783   8.097   4.331   5.828 -1.6832 -0.3121  0.1513
20926SOL     OW64784   7.037   9.997   7.258  0.6089 -0.8524  0.3149
20926SOL    HW164785   7.082   9.967   7.337 -1.0634 -0.6245  1.3980
20926SOL    HW264786   7.011   9.917   7.212 -0.3846 -1.0433  1.1772
20927SOL     OW64787  11.106   1.338   4.106  0.4280  0.5778 -0.4185
20927SOL    HW164788  11.019   1.338   4.145 -1.0811 -1.2742 -3.3923
20927SOL    HW264789  11.154   1.270   4.154 -0.9480 -0.7979 -0.9054
20928SOL     OW64790   0.748   0.229  10.117 -0.3093 -0.0602 -0.2736
20928SOL    HW164791   0.676   0.188  10.165 -1.0293 -0.3756 -1.5778
20928SOL    HW264792   0.821   0.168  10.126 -0.4504 -0.1463  0.3467
20929SOL     OW64793   5.565   3.417  10.162 -0.1675  0.0243 -0.4452
20929SOL    HW164794   5.657   3.415  10.188 -0.4704  2.6287  1.2428
20929SOL    HW264795   5.529   3.333  10.191  0.8498  0.5122  2.5747
20930SOL     OW64796   7.633   9.915   6.224 -0.8816  0.1301 -0.3073
20930SOL    HW164797   7.575   9.877   6.290  1.2288 -2.0538  0.4130
20930SOL    HW264798   7.641   9.848   6.157 -0.4529  1.0443 -1.2070
20931SOL     OW64799   2.892   9.670   8.345 -0.2735 -0.5089  0.6307
20931SOL    HW164800   2.923   9.699   8.430  2.3617  0.7613 -0.6486
20931SOL    HW264801   2.849   9.748   8.308  3.5614  0.9361 -1.3208
20932SOL     OW64802   8.304   7.108   3.028 -0.5292 -0.4284  0.0052
20932SOL    HW164803   8.272   7.127   2.940  1.8177  2.5572 -0.3654
20932SOL    HW264804   8.311   7.012   3.031 -1.8670 -0.7002 -2.5575
20933SOL     OW64805   1.486   4.501   7.788  0.3455 -0.1162 -0.9560
20933SOL    HW164806   1.442   4.499   7.703 -1.1208  0.9053 -0.2501
20933SOL    HW264807   1.445   4.572   7.835  0.1307 -1.5492  1.1617
20934SOL     OW64808   0.810   1.772   1.237 -0.5653 -0.2670  0.4855
20934SOL    HW164809   0.745   1.709   1.268 -1.6311  0.0179 -1.0670
20934SOL    HW264810   0.871   1.719   1.185 -1.2445 -0.0922 -0.5026
20935SOL     OW64811   7.466   8.253   9.140  0.1346  0.4628  0.1029
20935SOL    HW164812   7.434   8.280   9.227 -1.0415 -0.3794 -0.0470
20935SOL    HW264813   7.508   8.169   9.155 -2.1707 -0.8679 -0.4772
20936SOL     OW64814   4.734   4.254   2.176  0.5025 -0.0076  0.0383
20936SOL    HW164815   4.751   4.226   2.266  0.8890 -1.0158 -0.3339
20936SOL    HW264816   4.818   4.241   2.132 -0.2460 -1.5764 -0.9795
20937SOL     OW64817  11.230   1.519   4.395  0.2346 -0.2837 -0.0774
20937SOL    HW164818  11.247   1.543   4.486 -0.4953 -1.3758  0.3670
20937SOL    HW264819  11.143   1.555   4.376  0.6417  0.4844 -0.5618
20938SOL     OW64820   3.380   4.498   7.256 -0.2392  0.1180 -0.0594
20938SOL    HW164821   3.465   4.527   7.223  0.0302  0.5009  0.9333
20938SOL    HW264822   3.316   4.550   7.208  0.2310  2.4200  1.6345
20939SOL     OW64823   5.948  10.645   1.325  0.1160  0.2013  0.3310
20939SOL    HW164824   5.914  10.728   1.359 -0.4693 -0.4258  1.2970
20939SOL    HW264825   5.900  10.577   1.372  2.2769 -0.7323  1.3269
20940SOL     OW64826   3.342   8.133   3.294 -0.1373 -0.8848 -1.1418
20940SOL    HW164827   3.305   8.216   3.263 -1.8222 -1.7531 -1.5801
20940SOL    HW264828   3.389   8.156   3.375 -0.4841  0.4965 -1.3116
20941SOL     OW64829   8.631   3.132  10.574  0.3682  0.0700 -0.8434
20941SOL    HW164830   8.655   3.047  10.611  0.8354  0.3255 -0.5489
20941SOL    HW264831   8.655   3.195  10.642 -2.4212  0.2643  0.0771
20942SOL     OW64832   1.000   4.696   7.160 -0.6548 -0.7100  0.2404
20942SOL    HW164833   1.000   4.617   7.106  1.5656 -1.5390  1.3001
20942SOL    HW264834   1.035   4.666   7.245  2.4943  1.7474  0.0076
20943SOL     OW64835   2.204   9.565   3.780 -0.5207 -0.0378 -0.1703
20943SOL    HW164836   2.250   9.638   3.737 -0.5272  0.2528  0.3053
20943SOL    HW264837   2.267   9.532   3.844 -0.3505 -0.7529 -0.7025
20944SOL     OW64838   3.045   2.002   3.158 -0.6403 -0.1588 -0.3148
20944SOL    HW164839   3.102   1.952   3.216 -0.9856  0.7989  0.9067
20944SOL    HW264840   2.961   2.003   3.203 -0.6151  1.5753 -0.2190
20945SOL     OW64841   3.992   3.374   3.576  0.2889  0.1281  0.1441
20945SOL    HW164842   3.900   3.400   3.577  0.4406  0.6568  0.7935
20945SOL    HW264843   4.018   3.381   3.484 -0.7402 -1.6107 -0.3374
20946SOL     OW64844   8.996   9.603   3.625  0.3046 -0.5327  0.2048
20946SOL    HW164845   8.943   9.649   3.690  1.2898 -0.1851  0.7761
20946SOL    HW264846   8.980   9.510   3.643 -0.1428 -0.4360  0.3324
20947SOL     OW64847   8.704   1.383   0.942 -1.0872  0.0241 -0.2278
20947SOL    HW164848   8.659   1.462   0.910  1.4534  1.5634 -0.2332
20947SOL    HW264849   8.755   1.352   0.867 -1.8504 -1.5321 -0.1478
20948SOL     OW64850   6.475   5.544   5.682  0.3347  0.0034  0.4166
20948SOL    HW164851   6.543   5.544   5.750  0.5428  0.8495  0.2244
20948SOL    HW264852   6.428   5.462   5.696  0.9424 -0.2645  1.0096
20949SOL     OW64853  10.405   5.090   9.947 -0.1239 -0.1049  0.1326
20949SOL    HW164854  10.464   5.048  10.010 -0.5512  2.6947  2.5905
20949SOL    HW264855  10.460   5.107   9.870  1.6615  0.2789  1.4285
20950SOL     OW64856   5.640  11.208   6.317  0.3428 -0.1448  0.1928
20950SOL    HW164857   5.630  11.134   6.257 -0.6917  1.9804 -2.4804
20950SOL    HW264858   5.553  11.249   6.319  1.1332  1.5879  0.7085
20951SOL     OW64859   4.937  10.765  10.997  0.2211  0.1433  0.4565
20951SOL    HW164860   4.998  10.721  10.938 -0.3836  2.0836 -1.7660
20951SOL    HW264861   4.979  10.760  11.083  1.3085 -2.4932 -0.1441
20952SOL     OW64862   5.055   1.947  11.128  0.5018  0.1440  0.4129
20952SOL    HW164863   5.148   1.964  11.116  0.7685 -0.4640  1.5133
20952SOL    HW264864   5.043   1.941  11.223 -0.4711 -0.7278  0.2587
20953SOL     OW64865   1.289   2.534   5.271 -0.4067  0.4671  0.2335
20953SOL    HW164866   1.241   2.579   5.201 -1.3958  1.8889  1.7433
20953SOL    HW264867   1.372   2.509   5.230 -0.0976  3.0351 -0.9442
20954SOL     OW64868   0.102   6.177   7.373  0.0379  0.3354  0.3114
20954SOL    HW164869   0.149   6.257   7.399  1.7172 -0.1384 -1.0586
20954SOL    HW264870   0.039   6.207   7.307  0.8967  0.5219 -0.4489
20955SOL     OW64871   8.920   5.534   0.549 -0.2794  0.8134  0.3860
20955SOL    HW164872   8.862   5.459   0.533 -0.9347  1.8293 -2.4456
20955SOL    HW264873   8.879   5.579   0.623 -1.6368  0.0678  0.1318
20956SOL     OW64874  10.413   9.788   6.034 -0.0762  0.1990 -0.6320
20956SOL    HW164875  10.334   9.830   6.001 -0.2972  0.6064  0.4037
20956SOL    HW264876  10.475   9.795   5.961 -0.9315  0.0069 -1.3979
20957SOL     OW64877   6.246   5.958   5.300 -0.2906  0.6651  0.4395
20957SOL    HW164878   6.305   6.001   5.238 -0.1248  2.8437  2.0036
20957SOL    HW264879   6.233   6.022   5.369 -1.0530 -1.3883  2.3220
20958SOL     OW64880   0.988   5.445   0.450  1.4012  0.8439 -0.0899
20958SOL    HW164881   0.970   5.468   0.541  1.9216  0.9702 -0.0196
20958SOL    HW264882   0.939   5.510   0.399  2.3128  1.7124  0.1048
20959SOL     OW64883  11.105   0.684   0.692 -0.9003 -0.1979  0.4755
20959SOL    HW164884  11.076   0.721   0.608 -0.2612 -0.2813  0.2138
20959SOL    HW264885  11.024   0.653   0.733 -1.1920 -0.3645 -0.2085
20960SOL     OW64886  10.854   4.800   9.234  0.2103  0.2610  0.4198
20960SOL    HW164887  10.943   4.776   9.260  0.7855  1.7808 -0.0413
20960SOL    HW264888  10.801   4.724   9.258  1.7616 -1.0500 -0.0938
20961SOL     OW64889   7.470   1.813   8.473 -0.3315 -0.0030 -0.3599
20961SOL    HW164890   7.387   1.859   8.485  0.5346  0.8975  3.2432
20961SOL    HW264891   7.534   1.883   8.456 -0.0084 -0.5222 -1.3410
20962SOL     OW64892   5.559   5.939   5.217  0.2206 -0.4953 -0.0183
20962SOL    HW164893   5.492   5.911   5.155  1.8445 -1.9214 -1.2277
20962SOL    HW264894   5.527   5.909   5.302 -1.0296 -0.4166 -0.4337
20963SOL     OW64895   0.617   7.395   1.972  0.0476 -0.1056  0.0762
20963SOL    HW164896   0.616   7.301   1.994  0.2557  0.1133  1.0502
20963SOL    HW264897   0.647   7.397   1.881  0.6405 -0.9443  0.2377
20964SOL     OW64898   9.396  10.700   7.599  0.4391  0.5479  0.1036
20964SOL    HW164899   9.343  10.773   7.632 -0.7009  0.1463 -0.7804
20964SOL    HW264900   9.439  10.665   7.677 -0.4674  0.9953  0.8258
20965SOL     OW64901   1.775   4.364   4.225 -0.1280  0.5606 -0.2851
20965SOL    HW164902   1.846   4.393   4.167 -1.3491  2.2451 -1.0059
20965SOL    HW264903   1.811   4.373   4.313  0.3289  2.1636 -0.5981
20966SOL     OW64904   1.089   8.118   9.899 -0.7197  0.3396  0.2861
20966SOL    HW164905   1.175   8.098   9.864 -0.6443 -0.9317  1.1485
20966SOL    HW264906   1.039   8.037   9.889 -1.3266  0.5876  1.1986
20967SOL     OW64907   1.209   3.647   6.231 -0.9491  0.5945  0.2309
20967SOL    HW164908   1.120   3.633   6.199 -0.5292 -2.1580  0.0066
20967SOL    HW264909   1.211   3.604   6.316  0.6964 -1.3414 -0.7202
20968SOL     OW64910   0.048  10.220   5.248 -0.2869 -0.4499 -0.5481
20968SOL    HW164911   0.143  10.215   5.241 -0.2130  0.3615 -0.3357
20968SOL    HW264912   0.028  10.314   5.239 -1.2695 -0.8066 -2.8326
20969SOL     OW64913  10.745   3.255   3.027 -0.3165  0.0529 -0.6535
20969SOL    HW164914  10.709   3.202   2.956 -0.2559  0.5083 -1.0315
20969SOL    HW264915  10.701   3.223   3.106 -0.4473 -0.3988 -0.9114
20970SOL     OW64916   9.903   1.378   3.637 -0.4689 -0.0331 -0.3976
20970SOL    HW164917   9.870   1.461   3.603 -1.6912  0.0535  0.9238
20970SOL    HW264918   9.975   1.403   3.695  0.5856 -0.0815 -1.6254
20971SOL     OW64919   3.420   5.360   8.732 -0.1739  0.7051  0.4527
20971SOL    HW164920   3.394   5.336   8.821 -0.0845  3.3073  1.2558
20971SOL    HW264921   3.347   5.412   8.699  0.2900  0.7292 -0.5687
20972SOL     OW64922   5.753   1.783   5.871  0.1128  0.2016 -0.3025
20972SOL    HW164923   5.712   1.702   5.843 -2.3140  1.0126  0.6171
20972SOL    HW264924   5.680   1.838   5.901  1.8791  1.7847  1.4186
20973SOL     OW64925   6.902   6.695   9.316  0.3131 -0.6729 -0.5738
20973SOL    HW164926   6.953   6.661   9.390  2.9152 -1.0863 -2.4384
20973SOL    HW264927   6.951   6.771   9.286 -2.1187  1.0957 -0.3397
20974SOL     OW64928   0.965  10.717   1.135 -0.3870 -0.3110 -0.0490
20974SOL    HW164929   1.021  10.640   1.134  0.2835  0.1762 -1.3130
20974SOL    HW264930   1.020  10.787   1.169  0.5549  0.6772 -3.2694
20975SOL     OW64931   4.754   2.086   2.935 -0.2369 -0.3513  1.3550
20975SOL    HW164932   4.825   2.146   2.911 -0.2103 -1.2465 -1.1325
20975SOL    HW264933   4.766   2.070   3.028  1.8442  0.7879  1.3371
20976SOL     OW64934  10.920   4.631  10.180  0.0895  0.0901  0.6665
20976SOL    HW164935  10.891   4.565  10.117  2.0287 -1.4422  1.2524
20976SOL    HW264936  11.010   4.605  10.201 -0.3011  0.8370  3.6581
20977SOL     OW64937  10.665   8.671   1.429 -0.1149 -0.1272 -0.2939
20977SOL    HW164938  10.656   8.636   1.340  2.2765  0.6211 -0.8978
20977SOL    HW264939  10.621   8.607   1.485 -1.6770 -0.6229 -1.9803
20978SOL     OW64940   6.745   8.581   1.123  0.2367 -0.0777  0.3286
20978SOL    HW164941   6.704   8.532   1.194  0.8627  0.5682  1.1630
20978SOL    HW264942   6.792   8.515   1.072  1.6320 -0.3033  1.8256
20979SOL     OW64943   5.059  10.276   9.955  0.1095  0.0997 -0.2923
20979SOL    HW164944   4.981  10.291   9.901  1.0902 -0.3053 -1.8873
20979SOL    HW264945   5.082  10.185   9.938  0.7929  0.1424  0.3576
20980SOL     OW64946   4.401   9.584   4.864  0.1935  0.4855 -0.5488
20980SOL    HW164947   4.393   9.492   4.838 -0.5691  0.9291 -1.9761
20980SOL    HW264948   4.475   9.618   4.813  0.2553  0.7560 -0.2842
20981SOL     OW64949  10.315   8.172   8.076  0.2447  0.0502 -0.2317
20981SOL    HW164950  10.381   8.215   8.022  1.2199 -1.8666 -0.6418
20981SOL    HW264951  10.251   8.137   8.013  0.9287 -1.4424 -0.1410
20982SOL     OW64952   2.792   0.834   5.753 -0.5520  0.3460 -0.6237
20982SOL    HW164953   2.736   0.824   5.676  1.0839  1.2434 -2.0069
20982SOL    HW264954   2.748   0.900   5.807 -1.5775 -0.0925 -0.9052
20983SOL     OW64955   1.494   2.541   8.610  0.5006  0.8379 -0.0380
20983SOL    HW164956   1.424   2.606   8.613  0.0270  0.3716 -0.7223
20983SOL    HW264957   1.573   2.590   8.633 -0.1472  1.2084  1.5032
20984SOL     OW64958   7.399   5.068   8.961 -0.6699 -0.2847 -0.0121
20984SOL    HW164959   7.488   5.095   8.985 -0.5746 -0.6276  0.0187
20984SOL    HW264960   7.343   5.127   9.011 -0.4628 -0.1003  0.0098
20985SOL     OW64961   8.876   7.531   0.949 -0.4061 -0.7904  0.0305
20985SOL    HW164962   8.830   7.531   1.033  1.8563 -2.9991  1.4028
20985SOL    HW264963   8.886   7.439   0.927 -0.0037 -0.2767 -2.1656
20986SOL     OW64964   0.505   3.474   9.354 -0.7010 -0.4719 -0.0960
20986SOL    HW164965   0.444   3.432   9.415 -0.2518  0.5901  1.1514
20986SOL    HW264966   0.575   3.410   9.342  0.0968 -0.0780  1.9577
20987SOL     OW64967   2.829   5.409   6.721 -0.4260  0.4051 -0.1374
20987SOL    HW164968   2.903   5.434   6.776 -0.0062 -1.0774  0.0194
20987SOL    HW264969   2.753   5.409   6.781 -0.3863  1.0165 -0.0854
20988SOL     OW64970   4.233   8.174   8.145 -0.7163  0.0161  0.2912
20988SOL    HW164971   4.138   8.181   8.137 -0.5947  2.5579  0.0460
20988SOL    HW264972   4.267   8.233   8.077  0.9422  0.9612  1.8484
20989SOL     OW64973   6.214   0.611   4.089 -0.5950  0.1123  0.7299
20989SOL    HW164974   6.179   0.635   4.003 -2.0781 -0.1077  1.2422
20989SOL    HW264975   6.189   0.519   4.100 -0.9551  0.3146  1.6436
20990SOL     OW64976   1.641  10.776   8.087 -0.3449 -0.0715 -0.5225
20990SOL    HW164977   1.676  10.837   8.152 -0.3272  0.4673 -1.0364
20990SOL    HW264978   1.558  10.747   8.125  1.2242 -2.4915  1.4106
20991SOL     OW64979   4.824   2.234   5.702  0.2101 -0.4710  0.1438
20991SOL    HW164980   4.857   2.160   5.753  1.3037  0.1654  0.3758
20991SOL    HW264981   4.772   2.285   5.764  2.1079  0.6810  0.8557
20992SOL     OW64982   1.363   4.801   9.806 -0.1189  0.0356  0.5519
20992SOL    HW164983   1.302   4.729   9.794 -0.3139  0.4191 -1.0508
20992SOL    HW264984   1.321   4.858   9.870 -1.4133  0.2389 -0.4366
20993SOL     OW64985   7.513   8.913   2.403 -0.0130  0.4837 -0.6201
20993SOL    HW164986   7.551   8.850   2.464 -0.3083 -0.6896 -1.5803
20993SOL    HW264987   7.502   8.993   2.453  1.8683  0.2621  0.2186
20994SOL     OW64988  10.472   3.289   3.304  0.1503 -0.3905  0.2080
20994SOL    HW164989  10.442   3.198   3.293  0.7119 -0.3416 -2.2753
20994SOL    HW264990  10.402   3.341   3.265  0.6688  0.1274 -0.0266
20995SOL     OW64991   3.990  10.015   9.588 -0.0583  0.2512  0.0431
20995SOL    HW164992   4.002   9.921   9.602 -0.7987  0.2718  0.8702
20995SOL    HW264993   3.939  10.021   9.508 -1.7625 -0.1558  1.0473
20996SOL     OW64994   2.973   8.973   4.626  0.2675 -0.0386 -0.5655
20996SOL    HW164995   3.038   9.044   4.621 -2.4952  2.9748  1.9408
20996SOL    HW264996   3.015   8.907   4.682  1.7652  1.0733 -0.2841
20997SOL     OW64997   9.167   3.969   5.204  1.1221  0.1437  0.7163
20997SOL    HW164998   9.202   3.888   5.241  0.0812 -0.5769  0.1411
20997SOL    HW264999   9.220   3.986   5.127  3.4517  1.7637  2.5071
20998SOL     OW65000   7.679   9.255   7.633 -0.0769 -0.1584 -0.6607
20998SOL    HW165001   7.698   9.207   7.553 -0.0905 -1.2142 -0.0496
20998SOL    HW265002   7.583   9.254   7.640 -0.0299 -1.4443  0.1554
20999SOL     OW65003   1.646   7.447   8.981  0.4623 -0.6001  0.5989
20999SOL    HW165004   1.561   7.440   8.938 -0.2892 -0.3974  1.9909
20999SOL    HW265005   1.710   7.437   8.911 -0.7112 -0.5835 -0.4955
21000SOL     OW65006   7.696   0.796   2.457 -1.1212  0.2037 -0.2683
21000SOL    HW165007   7.704   0.702   2.441  0.0194  0.0982  0.7759
21000SOL    HW265008   7.759   0.814   2.527 -1.4638  1.7140 -0.3130
21001SOL     OW65009   3.316   2.808   6.075  0.8211 -0.6936  0.2603
21001SOL    HW165010   3.394   2.754   6.063  1.5624  0.6580 -1.2704
21001SOL    HW265011   3.348   2.886   6.120  0.2783 -0.2666 -0.0938
21002SOL     OW65012   2.176   7.647   9.558  0.6986 -0.1613  0.0634
21002SOL    HW165013   2.144   7.731   9.526 -0.4529 -1.1152 -1.5167
21002SOL    HW265014   2.259   7.633   9.512  0.1221 -0.5445 -0.9034
21003SOL     OW65015   2.502   2.265   2.152  0.0514 -0.9428  0.7295
21003SOL    HW165016   2.589   2.229   2.142 -0.5651 -2.5483  0.8881
21003SOL    HW265017   2.444   2.189   2.158 -1.3562  0.0709  0.7034
21004SOL     OW65018   2.913  11.008  10.346  0.0060  0.7920 -0.0517
21004SOL    HW165019   2.868  10.986  10.264  1.0146 -1.6806 -0.0465
21004SOL    HW265020   2.854  11.069  10.391 -1.0856  1.3293 -2.0941
21005SOL     OW65021  10.985   2.303   8.264  0.2066  0.6443  0.3525
21005SOL    HW165022  11.073   2.274   8.288  0.1424  0.3939  0.2893
21005SOL    HW265023  10.998   2.391   8.230  0.4409  0.5921  0.3027
21006SOL     OW65024   4.316   9.547   8.223 -0.5103  0.3584 -0.1155
21006SOL    HW165025   4.399   9.548   8.271 -0.4983  0.5910 -0.1371
21006SOL    HW265026   4.313   9.461   8.182 -0.3358  0.3044 -0.0162
21007SOL     OW65027   9.242  10.496   1.503  0.7382 -0.0642 -0.6423
21007SOL    HW165028   9.256  10.522   1.412  1.0824 -0.0053 -0.5769
21007SOL    HW265029   9.314  10.436   1.521  0.6583 -0.0928 -0.4169
21008SOL     OW65030   8.391   8.110   4.557 -0.1745  0.6512  0.1998
21008SOL    HW165031   8.414   8.094   4.465 -0.6521  0.4977  0.1053
21008SOL    HW265032   8.342   8.032   4.583 -1.2014  1.2779  0.1883
21009SOL     OW65033   1.045   8.015   8.036 -0.2296 -0.4912 -0.6266
21009SOL    HW165034   0.989   8.093   8.028  0.4906  0.0957 -0.0864
21009SOL    HW265035   0.985   7.946   8.065 -0.5288  0.3474  0.8449
21010SOL     OW65036  11.220   3.370   9.546 -0.0518 -0.4816 -0.9199
21010SOL    HW165037  11.231   3.445   9.605  0.9721  0.0880 -1.7943
21010SOL    HW265038  11.241   3.294   9.601 -0.4048 -0.0808 -0.2091
21011SOL     OW65039   1.120  11.200   0.153  0.2543  0.0379 -0.2758
21011SOL    HW165040   1.118  11.245   0.237 -0.7215 -1.5469  0.5914
21011SOL    HW265041   1.088  11.266   0.090  1.9742  1.5693  0.3615
21012SOL     OW65042   4.954   0.744   2.238  0.2402  0.0627 -0.3749
21012SOL    HW165043   5.047   0.765   2.234  0.8581 -2.1317  0.7703
21012SOL    HW265044   4.910   0.829   2.241  2.2818  1.1650  0.3745
21013SOL     OW65045   7.678   0.933   7.822 -0.0924  0.3774  0.2380
21013SOL    HW165046   7.654   0.844   7.796 -1.6430  1.0633 -0.8429
21013SOL    HW265047   7.615   0.956   7.890  0.5588  0.5126  0.8008
21014SOL     OW65048  10.679   6.122   5.352 -0.1312 -0.0743 -0.1098
21014SOL    HW165049  10.706   6.123   5.444 -1.5424  0.7113  0.3151
21014SOL    HW265050  10.585   6.135   5.354 -0.3030 -0.8780 -1.6472
21015SOL     OW65051   0.525   9.218   3.026  0.0905  0.0292  0.7945
21015SOL    HW165052   0.434   9.239   3.004 -0.9374 -3.6268  0.8430
21015SOL    HW265053   0.577   9.269   2.964 -1.8648  2.9696  1.3905
21016SOL     OW65054   3.801   4.711   1.476 -0.2668  0.0520 -0.4764
21016SOL    HW165055   3.857   4.710   1.398  0.2424 -0.7335 -0.1185
21016SOL    HW265056   3.829   4.789   1.524  1.0037 -0.6843  0.0227
21017SOL     OW65057   6.790   5.487   0.852 -0.2988 -1.2404  0.2647
21017SOL    HW165058   6.870   5.464   0.898  0.7058  0.6490 -0.4095
21017SOL    HW265059   6.812   5.480   0.759 -0.7831 -0.3307  0.0657
21018SOL     OW65060   8.487   8.644   5.300 -0.1053 -0.1956 -0.4766
21018SOL    HW165061   8.409   8.663   5.248 -0.4931 -0.9111 -0.1655
21018SOL    HW265062   8.531   8.574   5.252 -0.0330 -0.2912 -0.2720
21019SOL     OW65063   1.178   4.435   6.912  0.1656  0.0850  0.4923
21019SOL    HW165064   1.143   4.434   6.823 -0.5850  1.0785  0.7636
21019SOL    HW265065   1.249   4.499   6.910  1.7099 -1.5537  0.0715
21020SOL     OW65066   5.134   3.990   4.161  0.2016 -0.2183  0.2697
21020SOL    HW165067   5.078   3.964   4.234 -0.5923 -0.1455 -0.3038
21020SOL    HW265068   5.192   3.914   4.147 -2.3081 -1.9540 -1.6102
21021SOL     OW65069   0.344   3.326  10.745  0.0067  0.2627  0.2572
21021SOL    HW165070   0.346   3.239  10.785 -1.4523  0.0803 -0.0021
21021SOL    HW265071   0.328   3.386  10.819 -1.7583  0.0126  0.1383
21022SOL     OW65072  10.428   1.028   0.376 -0.4413  0.0472  0.0830
21022SOL    HW165073  10.477   0.946   0.384 -0.7271 -0.0038  1.6417
21022SOL    HW265074  10.496   1.096   0.381 -0.3648 -0.0622  0.6390
21023SOL     OW65075   6.598   3.917  10.394  0.6937  0.0963 -0.4537
21023SOL    HW165076   6.607   3.925  10.489 -1.0834  0.5536 -0.2849
21023SOL    HW265077   6.680   3.878  10.365  2.8476  3.2607  0.8267
21024SOL     OW65078   2.084  11.277  11.104 -0.2321 -0.1902 -0.7012
21024SOL    HW165079   2.150  11.252  11.040  0.1442 -1.7462  0.2441
21024SOL    HW265080   2.023  11.204  11.106  0.6231 -0.9431  1.7926
21025SOL     OW65081   0.590   1.742   6.473  0.1054 -0.0215  0.2938
21025SOL    HW165082   0.573   1.670   6.533 -0.1031 -1.5868 -1.5404
21025SOL    HW265083   0.621   1.700   6.393  1.5849  2.0536 -0.3014
21026SOL     OW65084   6.668   8.938   2.930 -0.3619  0.8075  0.2700
21026SOL    HW165085   6.645   9.014   2.983  0.1396 -0.1373  1.9171
21026SOL    HW265086   6.594   8.877   2.941  0.2312  0.1646  0.7789
21027SOL     OW65087   8.667   8.316  11.083 -0.2866 -0.3000  0.2426
21027SOL    HW165088   8.601   8.298  11.016 -0.1360  0.9365 -0.2707
21027SOL    HW265089   8.619   8.359  11.154 -0.5627 -2.1737  1.2510
21028SOL     OW65090   2.719   8.397   8.268  0.5118  0.1400 -0.7796
21028SOL    HW165091   2.734   8.384   8.361 -3.3868 -1.1663 -0.1487
21028SOL    HW265092   2.762   8.323   8.226  0.8861 -0.1842  0.1510
21029SOL     OW65093   9.299   7.707   3.890 -0.1258  0.8518 -0.2665
21029SOL    HW165094   9.239   7.738   3.958  0.0683 -0.9796  0.8097
21029SOL    HW265095   9.272   7.617   3.875  2.7140 -0.2493  0.7208
21030SOL     OW65096   6.906   1.351   3.864  0.6385 -0.0590 -0.1302
21030SOL    HW165097   6.969   1.298   3.815  1.6400 -0.2961  1.3517
21030SOL    HW265098   6.959   1.394   3.932 -0.8364 -0.5685  1.3969
21031SOL     OW65099  10.441  10.730   6.830  0.1580 -0.3029  0.1089
21031SOL    HW165100  10.470  10.707   6.741  4.2466  0.1607  1.0936
21031SOL    HW265101  10.401  10.650   6.864  2.0104 -1.7664 -0.9469
21032SOL     OW65102   1.477   8.455   4.848  0.1716 -0.6301 -1.2253
21032SOL    HW165103   1.442   8.463   4.759 -0.3776  0.8008 -0.9145
21032SOL    HW265104   1.420   8.511   4.901  1.7582  0.2166 -0.3389
21033SOL     OW65105  11.188   2.055   9.051  0.6158  0.0624  0.5799
21033SOL    HW165106  11.119   2.094   9.105  0.5402 -1.6167  1.7807
21033SOL    HW265107  11.142   1.991   8.996  1.0733 -0.2983  0.6078
21034SOL     OW65108   9.020   7.981   1.662  0.4133 -0.4865 -0.1556
21034SOL    HW165109   9.005   7.938   1.578  0.8243 -2.2148  0.6205
21034SOL    HW265110   9.012   8.074   1.643 -0.3420 -0.8840 -1.9340
21035SOL     OW65111   7.248   9.218   7.586  0.1173  0.3122  0.4806
21035SOL    HW165112   7.171   9.189   7.633  0.2842 -1.9873 -0.5286
21035SOL    HW265113   7.322   9.184   7.636  0.2991 -2.0548 -1.2214
21036SOL     OW65114   6.623   7.020   7.318  0.4604 -0.6806  0.3544
21036SOL    HW165115   6.642   7.114   7.312  1.0668 -0.8522 -0.6516
21036SOL    HW265116   6.533   7.016   7.348 -0.2420  0.2717 -1.4775
21037SOL     OW65117   5.512   1.472  10.352 -0.9271  0.3428 -0.0044
21037SOL    HW165118   5.585   1.427  10.395  0.3808 -0.1930 -2.6272
21037SOL    HW265119   5.492   1.546  10.411  0.7411 -0.3200  1.4858
21038SOL     OW65120   8.227   2.125   5.153  0.2609 -0.2367 -0.0203
21038SOL    HW165121   8.167   2.053   5.136 -1.5756  0.6448  2.1803
21038SOL    HW265122   8.170   2.199   5.177  2.1745  0.8851  1.3840
21039SOL     OW65123  10.489   8.043   4.098 -0.7129 -0.4623 -0.0723
21039SOL    HW165124  10.410   8.027   4.046 -0.1148 -1.5620 -0.6840
21039SOL    HW265125  10.457   8.085   4.178 -2.3714 -3.6124  1.1069
21040SOL     OW65126   7.154   4.932   3.229  0.7111 -0.2996 -0.4643
21040SOL    HW165127   7.216   4.875   3.183  0.1366  0.3336 -2.0878
21040SOL    HW265128   7.120   4.877   3.300  1.3839 -1.4354 -0.9868
21041SOL     OW65129   1.535   2.749   6.514  0.0847  0.8807 -0.0813
21041SOL    HW165130   1.535   2.837   6.477  0.2433  1.7367  1.8052
21041SOL    HW265131   1.448   2.739   6.552  0.2814  0.4747  0.2658
21042SOL     OW65132   9.426   3.353   7.653 -0.2205 -0.5069  0.2677
21042SOL    HW165133   9.380   3.295   7.713 -0.1906  1.0727  1.8889
21042SOL    HW265134   9.448   3.298   7.578 -2.3445 -1.9525  0.6408
21043SOL     OW65135   9.244   7.828   2.300  0.1265  0.0217  0.2522
21043SOL    HW165136   9.161   7.808   2.342  0.5380 -1.9151  0.2414
21043SOL    HW265137   9.308   7.827   2.372  0.1518  1.5502  0.2700
21044SOL     OW65138   4.301   2.482   1.991 -0.2437  0.8914  0.0215
21044SOL    HW165139   4.206   2.481   1.989 -0.2581  1.9466 -0.0504
21044SOL    HW265140   4.325   2.574   2.002  0.7305  0.4847  1.9398
21045SOL     OW65141  10.224   9.478   7.775 -0.3818 -0.1059  0.1036
21045SOL    HW165142  10.148   9.431   7.741  0.4455  0.3242 -2.6270
21045SOL    HW265143  10.299   9.434   7.735  0.4948  2.4541 -1.3234
21046SOL     OW65144   5.582   5.578   5.473  0.8214 -0.0596 -0.5532
21046SOL    HW165145   5.646   5.524   5.427  0.8963  0.3745 -0.9727
21046SOL    HW265146   5.500   5.562   5.427  1.2925  2.0362 -2.3284
21047SOL     OW65147   6.402   2.280   4.337  0.1202 -0.2800  0.0308
21047SOL    HW165148   6.477   2.235   4.374 -0.2331  0.5180  1.8161
21047SOL    HW265149   6.424   2.373   4.342 -0.4720 -0.0925 -0.5924
21048SOL     OW65150   8.565   2.666   5.623 -0.6520 -0.1960 -0.2158
21048SOL    HW165151   8.571   2.740   5.683 -1.6557  1.0153 -1.5507
21048SOL    HW265152   8.539   2.592   5.679 -0.8413  0.7197  0.9446
21049SOL     OW65153   3.226   7.906   8.322  0.1148 -0.0509 -0.2698
21049SOL    HW165154   3.293   7.878   8.259  0.6148  0.2043  0.1460
21049SOL    HW265155   3.274   7.953   8.389 -0.7383  2.2754 -1.1877
21050SOL     OW65156   0.812   8.755   8.179 -0.1272  0.1634 -0.0384
21050SOL    HW165157   0.875   8.711   8.236  2.4532  2.7381 -0.6860
21050SOL    HW265158   0.749   8.795   8.239  0.2436 -0.4091  0.7542
21051SOL     OW65159   4.323   2.526   4.505  0.0546  0.3177  0.1518
21051SOL    HW165160   4.362   2.444   4.473  0.7495  0.0151  1.6840
21051SOL    HW265161   4.320   2.516   4.600  0.3901  2.1916  0.3985
21052SOL     OW65162  10.754   3.454   2.199  1.2604  0.4315 -0.1803
21052SOL    HW165163  10.800   3.538   2.199  3.4445 -0.6898 -0.0936
21052SOL    HW265164  10.771   3.418   2.286  1.0897 -0.4565 -0.5072
21053SOL     OW65165   2.178   2.184   9.670 -0.3180 -0.5436  0.1521
21053SOL    HW165166   2.239   2.131   9.722 -0.7238  0.2073  1.4351
21053SOL    HW265167   2.115   2.217   9.734  0.7598  2.6997 -0.2824
21054SOL     OW65168   7.542   1.451  10.238 -0.3692  0.0362  0.1240
21054SOL    HW165169   7.448   1.456  10.222 -0.1306 -0.1855 -1.5052
21054SOL    HW265170   7.555   1.366  10.280 -0.7369 -0.6421 -1.0897
21055SOL     OW65171   2.883   6.216   3.439  0.9710  0.1835  0.8094
21055SOL    HW165172   2.824   6.176   3.503  0.8442  1.7237  1.7150
21055SOL    HW265173   2.971   6.201   3.476  0.8691  1.5165  1.6520
21056SOL     OW65174   9.989   0.063   5.463 -0.2199  0.1445  0.1878
21056SOL    HW165175  10.071   0.034   5.503 -0.8722 -0.0207  1.4595
21056SOL    HW265176   9.966   0.143   5.510 -0.7315  0.2635 -0.2443
21057SOL     OW65177  10.690  10.445  10.194  0.4758 -0.4431  0.3252
21057SOL    HW165178  10.720  10.503  10.264 -0.1910  1.6315 -1.0202
21057SOL    HW265179  10.603  10.418  10.221  0.8161 -0.9101  0.9924
21058SOL     OW65180   9.524   2.195   8.203 -0.0186 -0.1217 -0.7269
21058SOL    HW165181   9.514   2.278   8.155 -0.5939  0.6013  0.6079
21058SOL    HW265182   9.474   2.132   8.151  0.1758  0.4155 -1.6030
21059SOL     OW65183   6.700   9.453   0.559 -0.6417  0.0066 -0.7717
21059SOL    HW165184   6.631   9.449   0.493 -0.6117 -2.0765 -0.7467
21059SOL    HW265185   6.781   9.446   0.508 -0.4916  1.0355 -0.6908
21060SOL     OW65186   2.772  10.525   0.339 -0.6102  0.0527 -0.4991
21060SOL    HW165187   2.688  10.485   0.360 -1.6100  1.2647 -1.9362
21060SOL    HW265188   2.821  10.457   0.293 -0.3026 -1.0291  1.3477
21061SOL     OW65189   2.397   9.617   6.203  0.3469 -0.7086 -0.1705
21061SOL    HW165190   2.466   9.674   6.167  1.7611 -0.4186  2.6942
21061SOL    HW265191   2.317   9.668   6.193  1.4802  1.6939  1.7839
21062SOL     OW65192   7.061   0.006   3.777  0.1641 -0.6007 -0.1526
21062SOL    HW165193   7.038  -0.055   3.707  0.0280 -1.4068  0.5892
21062SOL    HW265194   7.094  -0.049   3.848 -0.5704  0.1299  0.7813
21063SOL     OW65195   7.128   4.756   1.017  0.1250  0.1015  0.1320
21063SOL    HW165196   7.107   4.686   0.955 -1.5790  1.4389 -0.9218
21063SOL    HW265197   7.131   4.713   1.103  1.5817 -1.6316 -0.7136
21064SOL     OW65198  10.887  11.176   6.344  0.3420  1.1042  0.2491
21064SOL    HW165199  10.808  11.127   6.322  0.4360  0.5312  1.1153
21064SOL    HW265200  10.854  11.262   6.371  0.0733  1.1058 -0.0699
21065SOL     OW65201   3.654  10.712   5.129 -0.1567 -0.5718 -0.2113
21065SOL    HW165202   3.690  10.654   5.196  0.1897 -2.0868 -1.6434
21065SOL    HW265203   3.729  10.739   5.077 -0.4361  0.4994 -0.0896
21066SOL     OW65204   8.146   1.292   8.361 -0.0659  0.2204 -0.4329
21066SOL    HW165205   8.058   1.258   8.377 -0.5140  0.7998 -1.5637
21066SOL    HW265206   8.202   1.245   8.422 -1.4274  1.1803  1.6626
21067SOL     OW65207   7.688   9.952   5.498 -0.2799  0.6266  0.2026
21067SOL    HW165208   7.668   9.991   5.413  2.2199 -0.0224 -0.8012
21067SOL    HW265209   7.724  10.025   5.549 -1.4630  0.9445  0.5917
21068SOL     OW65210  11.132   2.437   2.213 -0.5049  0.2123  0.7366
21068SOL    HW165211  11.196   2.414   2.146 -1.4995 -2.5710  0.5974
21068SOL    HW265212  11.057   2.470   2.164 -0.0799  1.1966  0.7326
21069SOL     OW65213   6.571   9.452   6.087 -0.4989 -0.2280  0.3202
21069SOL    HW165214   6.625   9.373   6.088 -0.7594 -0.5248 -2.2913
21069SOL    HW265215   6.501   9.432   6.025 -2.0989  1.1118  1.6340
21070SOL     OW65216   6.221   5.962  10.093 -0.2395 -1.1424  0.8159
21070SOL    HW165217   6.185   6.050  10.088  0.1646 -0.9677  0.9351
21070SOL    HW265218   6.231   5.935  10.002  0.3823 -0.7541  0.7645
21071SOL     OW65219   2.001   5.342   2.350  0.1027 -0.3843 -0.0451
21071SOL    HW165220   1.971   5.434   2.352  1.5611  0.0977  0.5940
21071SOL    HW265221   1.939   5.296   2.406  1.1416  0.8127  2.2574
21072SOL     OW65222   6.124   3.341   9.328  0.0619 -0.5904  0.0047
21072SOL    HW165223   6.137   3.246   9.325 -1.7891 -0.8660 -1.3398
21072SOL    HW265224   6.063   3.355   9.400 -3.0713 -1.0353 -2.3195
21073SOL     OW65225   2.831   2.664   3.567 -0.8478 -0.4185  0.0539
21073SOL    HW165226   2.823   2.700   3.655  1.2228 -1.9017  0.9322
21073SOL    HW265227   2.834   2.740   3.509  0.3747  0.7121  1.5434
21074SOL     OW65228   2.207   8.903   4.299  0.9969  0.1605  0.6294
21074SOL    HW165229   2.186   8.984   4.346  1.2114  0.2457  0.5820
21074SOL    HW265230   2.188   8.922   4.207 -2.1970 -0.9130  0.9430
21075SOL     OW65231   3.610   6.162  11.192 -0.0353  0.1141 -0.7426
21075SOL    HW165232   3.576   6.222  11.259  1.5082  1.3807 -1.0278
21075SOL    HW265233   3.671   6.106  11.239 -2.0826 -1.9143 -0.3045
21076SOL     OW65234   7.358   1.221  11.081  0.6526  0.4221 -0.0737
21076SOL    HW165235   7.317   1.152  11.132  1.2306  0.4524  0.4439
21076SOL    HW265236   7.417   1.175  11.021  2.8644  0.5212  1.8938
21077SOL     OW65237   2.621   9.020   3.860 -0.0363  0.4451 -0.0320
21077SOL    HW165238   2.706   9.050   3.892  0.6014  1.0149 -2.1425
21077SOL    HW265239   2.591   9.089   3.801 -2.0320  0.2966  0.7304
21078SOL     OW65240   9.742   9.989  10.704 -0.0811  0.3490 -0.3755
21078SOL    HW165241   9.782  10.027  10.626 -0.5257 -0.0549 -0.8054
21078SOL    HW265242   9.654  10.027  10.707  0.0440  0.6141  0.1149
21079SOL     OW65243   1.423   3.685  11.085 -0.2955 -0.2605  0.0261
21079SOL    HW165244   1.515   3.689  11.110  0.0917 -0.3414 -1.2919
21079SOL    HW265245   1.406   3.592  11.073  0.7430 -0.1437 -3.9520
21080SOL     OW65246   3.355   6.819   0.328 -0.1211  0.5411 -0.1508
21080SOL    HW165247   3.359   6.731   0.366 -0.4227  0.5100 -0.1940
21080SOL    HW265248   3.444   6.853   0.339 -0.2441  0.6024  0.7387
21081SOL     OW65249   7.080   0.194  10.636 -0.4111  0.3391 -0.4807
21081SOL    HW165250   7.058   0.205  10.543 -1.6882  1.5367 -0.0695
21081SOL    HW265251   6.998   0.167  10.677  0.2206 -0.4766  0.2607
21082SOL     OW65252   7.472   4.166   4.467  0.0723  0.4138 -0.2378
21082SOL    HW165253   7.418   4.211   4.402 -0.3409  1.3109  0.7042
21082SOL    HW265254   7.552   4.142   4.420  1.3035  4.0390 -0.2856
21083SOL     OW65255   0.498   0.598   5.469 -0.3832 -0.3095  0.6659
21083SOL    HW165256   0.544   0.563   5.393  1.0877  2.0208  0.3582
21083SOL    HW265257   0.547   0.567   5.545 -1.9199 -2.7324  0.7585
21084SOL     OW65258  10.706   4.416   2.830  0.2386 -0.1981 -0.2155
21084SOL    HW165259  10.669   4.328   2.822 -0.8910  0.3246 -0.9385
21084SOL    HW265260  10.716   4.429   2.924 -1.4386 -0.3675  0.0173
21085SOL     OW65261   4.833   0.949   5.549 -0.2355  0.4562  0.1421
21085SOL    HW165262   4.869   0.864   5.576 -1.1779  0.6936  2.3520
21085SOL    HW265263   4.788   0.931   5.466  0.9105 -0.8397 -0.2387
21086SOL     OW65264   9.156   3.891   2.814 -0.5270  0.4136  0.4634
21086SOL    HW165265   9.237   3.898   2.763  1.1537  0.3146  2.9330
21086SOL    HW265266   9.151   3.798   2.839 -1.3126  0.4494  0.4698
21087SOL     OW65267   8.177  10.702  10.745 -0.3731 -0.0278  0.1482
21087SOL    HW165268   8.116  10.683  10.816 -0.7283 -0.0029 -0.1456
21087SOL    HW265269   8.160  10.635  10.679 -0.5860  0.4085 -0.2456
21088SOL     OW65270   9.088   9.067  10.394 -0.2512  0.3663 -0.2526
21088SOL    HW165271   9.059   9.101  10.478 -1.0042  0.3417 -0.5024
21088SOL    HW265272   9.107   9.145  10.341 -1.2925  0.4043 -0.5849
21089SOL     OW65273   6.086  10.683   7.727 -0.2581  0.4904 -0.6866
21089SOL    HW165274   6.129  10.769   7.723  0.1114  0.3212 -0.4940
21089SOL    HW265275   6.143  10.626   7.675  2.0596 -0.6823  2.7967
21090SOL     OW65276   6.159   2.182  10.289 -0.1886 -0.3704  0.2002
21090SOL    HW165277   6.174   2.238  10.366 -0.1068 -0.5227  0.2961
21090SOL    HW265278   6.153   2.094  10.326 -0.4786 -0.4059  0.0669
21091SOL     OW65279   4.852   3.178  10.855  0.1921 -0.5491  0.1160
21091SOL    HW165280   4.874   3.172  10.762 -0.2341  0.2187 -0.0412
21091SOL    HW265281   4.760   3.151  10.859 -0.6428  2.0466 -0.0940
21092SOL     OW65282   5.632   3.885   0.190 -0.2850  0.1311 -0.3351
21092SOL    HW165283   5.659   3.959   0.245  2.0669 -0.6415 -0.3110
21092SOL    HW265284   5.684   3.895   0.110 -2.3431  0.2472 -1.7340
21093SOL     OW65285   1.669   2.347   5.225  0.1479  0.8074 -0.2982
21093SOL    HW165286   1.666   2.387   5.312  2.0695  2.4144 -0.8890
21093SOL    HW265287   1.642   2.416   5.166 -0.6019 -0.1026 -1.0463
21094SOL     OW65288   3.822   0.193   3.073  0.3850  0.5457 -0.7022
21094SOL    HW165289   3.902   0.164   3.030  2.0571  0.8203  1.9466
21094SOL    HW265290   3.770   0.114   3.084  2.1727 -0.4869  1.0490
21095SOL     OW65291   8.645   9.656   6.888 -0.2408  0.4317  0.4334
21095SOL    HW165292   8.562   9.653   6.936 -0.4019 -0.4517  0.1095
21095SOL    HW265293   8.626   9.710   6.811 -1.2163 -1.6508 -0.8858
21096SOL     OW65294   2.892  10.395   8.871 -0.2166 -0.0915  0.3071
21096SOL    HW165295   2.891  10.488   8.895  1.4416  0.9897 -3.1513
21096SOL    HW265296   2.810  10.383   8.823 -0.7806 -0.6888  1.3725
21097SOL     OW65297   0.409   7.614   3.797 -0.3944  0.1311  0.1753
21097SOL    HW165298   0.495   7.635   3.761  0.4898  1.0489  2.5997
21097SOL    HW265299   0.354   7.688   3.774  0.6547  1.6189  2.1235
21098SOL     OW65300   0.042   5.588   5.887 -0.9086 -0.5267 -0.5021
21098SOL    HW165301   0.132   5.561   5.871 -0.0616  0.6461  1.7496
21098SOL    HW265302   0.049   5.682   5.908 -2.4856 -0.6370  0.7040
21099SOL     OW65303   0.060   7.816   6.865  0.4512 -0.3013  0.3981
21099SOL    HW165304   0.107   7.737   6.838  1.3277  0.7500 -1.2725
21099SOL    HW265305   0.128   7.882   6.877 -0.4299  0.7371 -0.1868
21100SOL     OW65306   6.536   2.908   4.639  0.7569  0.2956 -0.3489
21100SOL    HW165307   6.595   2.834   4.623  0.8145 -0.2314  1.9062
21100SOL    HW265308   6.464   2.895   4.577  0.1595 -2.3908  0.7573
21101SOL     OW65309   8.452  10.053   3.133 -0.0790 -0.0891  0.3099
21101SOL    HW165310   8.392   9.989   3.094 -0.7452  0.3838  0.5494
21101SOL    HW265311   8.535  10.006   3.139 -0.7670 -1.2394  1.3037
21102SOL     OW65312   5.344   7.852   3.507 -0.5191 -0.0257 -0.0472
21102SOL    HW165313   5.403   7.829   3.436  0.4895  3.1983 -0.4231
21102SOL    HW265314   5.317   7.768   3.545  0.9796 -1.7393 -2.5200
21103SOL     OW65315   1.834   3.662   0.273 -0.8725 -0.0685 -0.6423
21103SOL    HW165316   1.916   3.663   0.223 -0.8233  4.3789 -0.8327
21103SOL    HW265317   1.838   3.581   0.324  2.0437 -1.6616 -3.0536
21104SOL     OW65318   7.718   1.639  10.987  0.2169  0.0995 -0.6684
21104SOL    HW165319   7.784   1.679  10.930  1.6161  0.0394  0.8334
21104SOL    HW265320   7.719   1.692  11.066 -0.6704 -0.6255 -0.1565
21105SOL     OW65321   3.292   4.266   7.977 -0.4600 -1.2837 -0.0830
21105SOL    HW165322   3.224   4.283   8.043  1.3950  1.5555  1.3043
21105SOL    HW265323   3.337   4.350   7.968  1.6746 -2.5606 -2.3548
21106SOL     OW65324   4.398   6.970   1.554 -0.5169  0.3472  0.3238
21106SOL    HW165325   4.473   6.980   1.612 -0.9497  0.3711  0.8932
21106SOL    HW265326   4.435   6.972   1.466  0.0058  1.7245  0.5478
21107SOL     OW65327   7.756   3.137   0.432 -0.6239  0.5498 -0.4969
21107SOL    HW165328   7.730   3.211   0.487 -1.0714  0.1109 -0.1082
21107SOL    HW265329   7.851   3.131   0.442 -0.7475  0.1895  0.5998
21108SOL     OW65330   0.235   7.760   9.284  0.1469 -0.0763  0.3169
21108SOL    HW165331   0.170   7.707   9.330  2.0994 -1.4277  1.6677
21108SOL    HW265332   0.212   7.850   9.306 -0.3845 -0.5890  2.0390
21109SOL     OW65333   8.710   0.846   6.771 -0.3395 -0.1445  0.1404
21109SOL    HW165334   8.680   0.910   6.836 -3.3012  3.0053 -3.7390
21109SOL    HW265335   8.784   0.889   6.728  0.8941 -1.6856  0.6612
21110SOL     OW65336   9.792   1.125   2.841  0.4325  0.2801 -0.3366
21110SOL    HW165337   9.845   1.190   2.886  0.8967  0.1213 -0.6404
21110SOL    HW265338   9.779   1.055   2.904  0.0813  0.5841 -0.0675
21111SOL     OW65339   0.854   9.846  10.186  0.0783 -0.3571  0.0653
21111SOL    HW165340   0.824   9.922  10.235  1.3783 -0.1165  0.5320
21111SOL    HW265341   0.799   9.844  10.108 -0.2732  0.8005  0.2649
21112SOL     OW65342   5.314   2.111   2.944  0.5008 -0.3522 -0.3910
21112SOL    HW165343   5.285   2.076   3.028 -3.9747  3.0944 -0.1188
21112SOL    HW265344   5.273   2.054   2.879  0.2640 -0.4571 -0.1527
21113SOL     OW65345   5.960   4.069   7.821 -0.6090 -0.1356 -0.8600
21113SOL    HW165346   5.915   4.154   7.825  0.0175  0.1935 -0.6014
21113SOL    HW265347   6.049   4.091   7.791 -0.8352 -0.8615 -2.0995
21114SOL     OW65348   0.782   2.427   7.000 -0.2695 -0.2717  0.3630
21114SOL    HW165349   0.863   2.442   7.048 -0.1878 -0.8047  0.3953
21114SOL    HW265350   0.771   2.332   6.999  0.4741 -0.3833 -1.8686
21115SOL     OW65351   1.188   0.747   6.406 -0.8347  0.4934  0.0826
21115SOL    HW165352   1.116   0.767   6.465 -0.2189 -0.4597  1.2277
21115SOL    HW265353   1.150   0.692   6.338 -1.1529 -0.3289  0.8938
21116SOL     OW65354   5.180  10.939   5.127 -0.0442 -0.2210  0.5051
21116SOL    HW165355   5.189  11.031   5.102 -0.2540 -0.1605  0.6511
21116SOL    HW265356   5.096  10.935   5.172 -1.1411 -0.9124 -1.4751
21117SOL     OW65357   7.462   9.041   2.676 -0.5714 -0.5331 -0.2713
21117SOL    HW165358   7.391   9.098   2.705  0.9070  0.2338  2.0294
21117SOL    HW265359   7.422   8.954   2.671 -1.8207 -0.0231  0.3605
21118SOL     OW65360   8.499  10.227   2.417 -0.0330 -0.2870 -0.7038
21118SOL    HW165361   8.511  10.132   2.423  1.4251 -0.1883 -1.6004
21118SOL    HW265362   8.499  10.246   2.323  1.7046  0.8023 -0.5196
21119SOL     OW65363   8.449   5.377   0.886 -0.1394 -0.1129  0.1538
21119SOL    HW165364   8.423   5.455   0.836 -1.4732  0.5549  1.7847
21119SOL    HW265365   8.511   5.411   0.951 -0.2292 -0.5342  0.4587
21120SOL     OW65366   6.229   4.501  10.099  0.4417 -0.0867 -0.1742
21120SOL    HW165367   6.151   4.500  10.044  0.4540 -3.0768 -0.2662
21120SOL    HW265368   6.294   4.451  10.050  1.0722 -1.2087  1.7077
21121SOL     OW65369   0.919   0.844   4.473  0.4150 -0.5786 -0.2865
21121SOL    HW165370   0.960   0.761   4.447  1.3860 -0.3321  0.3890
21121SOL    HW265371   0.927   0.846   4.569  0.0233  0.1026 -0.2581
21122SOL     OW65372   2.007   6.137   8.769 -0.5004 -0.0702  0.1352
21122SOL    HW165373   2.076   6.127   8.703  1.0462 -0.2898  1.7018
21122SOL    HW265374   1.935   6.082   8.738  0.5914 -0.9761 -0.8605
21123SOL     OW65375   0.560   4.685   2.736  0.4467 -0.2532  0.9148
21123SOL    HW165376   0.554   4.748   2.664  1.4716 -0.1399  0.9138
21123SOL    HW265377   0.600   4.607   2.696 -2.0641 -1.4515  0.5786
21124SOL     OW65378   3.762   2.318   5.650  0.4172 -0.8661 -0.4709
21124SOL    HW165379   3.717   2.267   5.582  0.4119  0.3684 -1.4119
21124SOL    HW265380   3.854   2.320   5.622 -0.0599  2.2022 -2.1380
21125SOL     OW65381   6.107  11.139   8.477 -0.2075  0.1900 -0.2747
21125SOL    HW165382   6.060  11.132   8.394 -0.9741 -0.2550  0.1853
21125SOL    HW265383   6.163  11.061   8.479  0.3337  0.5570 -0.6770
21126SOL     OW65384   9.897   0.877   3.258 -0.2673  0.5847  0.3658
21126SOL    HW165385   9.905   0.941   3.188 -1.0750 -0.7375 -0.9912
21126SOL    HW265386   9.986   0.863   3.289  0.1068  1.0919 -0.4779
21127SOL     OW65387   6.737   8.674   2.003  0.1597 -0.1342  0.1063
21127SOL    HW165388   6.682   8.675   2.081 -0.0520  1.0443 -0.0457
21127SOL    HW265389   6.799   8.746   2.015  0.0439  0.1435 -0.8555
21128SOL     OW65390   3.171  10.434   3.586 -0.2869 -0.6208  0.0514
21128SOL    HW165391   3.248  10.418   3.640 -0.2231 -1.0207 -0.1588
21128SOL    HW265392   3.106  10.471   3.647 -0.4745 -1.7683  0.5677
21129SOL     OW65393   9.835  10.055   9.170  0.0536  0.7815 -0.2682
21129SOL    HW165394   9.802   9.976   9.126  0.4712 -0.1135  0.9537
21129SOL    HW265395   9.775  10.124   9.144 -1.6572 -0.4040  0.3622
21130SOL     OW65396  11.006   9.564   4.178 -0.2333 -0.0092 -0.3026
21130SOL    HW165397  10.974   9.642   4.223 -0.6425  0.1645 -0.8764
21130SOL    HW265398  10.972   9.573   4.089 -1.4352 -1.5336 -0.0190
21131SOL     OW65399   6.870   6.095   2.072  0.0355  0.1401 -0.2866
21131SOL    HW165400   6.823   6.176   2.089  1.7649  1.2724 -0.6748
21131SOL    HW265401   6.807   6.026   2.094 -1.8401  1.5580 -0.9644
21132SOL     OW65402   7.142   0.405   5.189 -0.3634  0.4396 -0.1000
21132SOL    HW165403   7.196   0.458   5.248  0.2722  2.2622 -2.2036
21132SOL    HW265404   7.065   0.459   5.172  0.1957  0.6686 -2.1283
21133SOL     OW65405   0.517   8.692   4.740  0.2813  0.4232  0.0503
21133SOL    HW165406   0.426   8.713   4.722  0.7242  0.0263 -3.1854
21133SOL    HW265407   0.567   8.763   4.699  1.5221  1.4908  3.0687
21134SOL     OW65408   3.222   0.763   7.334 -0.0499 -0.2497  0.2455
21134SOL    HW165409   3.219   0.693   7.269 -0.1122  0.0833 -0.1121
21134SOL    HW265410   3.136   0.805   7.329  0.5788  1.0082 -0.8302
21135SOL     OW65411   8.775   2.311   2.626 -0.1095  0.3688  0.3051
21135SOL    HW165412   8.737   2.374   2.565 -0.2982  0.4608  0.5166
21135SOL    HW265413   8.700   2.273   2.671 -0.2145 -1.8141 -1.5171
21136SOL     OW65414   0.619   1.379   9.133  0.2636 -0.6133 -0.0352
21136SOL    HW165415   0.564   1.446   9.174 -0.1163 -0.3209 -0.9945
21136SOL    HW265416   0.689   1.428   9.092 -0.3920 -0.7247 -1.3322
21137SOL     OW65417   0.654   5.212   5.699 -0.2134 -0.0919 -0.1388
21137SOL    HW165418   0.643   5.307   5.687 -0.5045 -0.2900 -1.6606
21137SOL    HW265419   0.742   5.202   5.736 -0.5601  0.8135  1.0001
21138SOL     OW65420   6.824   9.572   2.941 -0.2042 -1.1837 -0.4879
21138SOL    HW165421   6.756   9.514   2.907 -1.0333  0.5619 -2.0107
21138SOL    HW265422   6.780   9.656   2.952  1.0892 -0.6573  1.0894
21139SOL     OW65423   2.042   5.339   5.360 -0.4448  0.1171 -0.6676
21139SOL    HW165424   2.075   5.261   5.404 -1.8515 -0.6062 -0.8234
21139SOL    HW265425   2.008   5.307   5.276 -0.6039  0.9731 -0.9416
21140SOL     OW65426  11.011   5.861  10.489 -0.0607  0.7529  0.5444
21140SOL    HW165427  11.030   5.835  10.579 -2.0225  0.3150  0.8918
21140SOL    HW265428  10.941   5.802  10.462  1.2328  0.1458 -1.6892
21141SOL     OW65429   4.073   6.548   9.979 -0.3034  0.5243 -0.3171
21141SOL    HW165430   4.093   6.614  10.046 -0.6246  1.7615 -1.3930
21141SOL    HW265431   4.156   6.502   9.965  0.6630  2.4853 -1.4054
21142SOL     OW65432   9.941   0.916   5.904  0.0697  0.0028 -0.2399
21142SOL    HW165433   9.925   0.913   5.998 -0.7439 -0.6709 -0.3850
21142SOL    HW265434   9.983   0.832   5.884  0.1584  0.1065 -0.4898
21143SOL     OW65435   2.239   8.278   3.372 -0.0630 -0.0908  0.3180
21143SOL    HW165436   2.305   8.322   3.318  0.0615 -0.0214  0.5249
21143SOL    HW265437   2.199   8.348   3.423  1.6793 -0.4472  2.3141
21144SOL     OW65438   2.904   6.548   0.248  0.5035 -0.1047 -0.0067
21144SOL    HW165439   2.863   6.570   0.165  1.4633 -1.6365 -0.9323
21144SOL    HW265440   2.974   6.611   0.259  1.3554 -0.8168 -1.1522
21145SOL     OW65441   6.763   9.855  10.184  0.3754 -0.3830 -0.9009
21145SOL    HW165442   6.821   9.932  10.189 -1.0872  0.7052  1.2013
21145SOL    HW265443   6.811   9.786  10.229 -0.1939  0.7915  1.7581
21146SOL     OW65444   5.341   7.662   4.052  0.2960 -0.1512  0.2989
21146SOL    HW165445   5.376   7.590   4.001  0.2019 -0.7679  1.0943
21146SOL    HW265446   5.382   7.654   4.138 -0.4480  0.1622  0.6965
21147SOL     OW65447   9.744   0.348   9.719 -0.3156  0.3308 -0.2809
21147SOL    HW165448   9.832   0.385   9.716 -0.6766  1.3195  0.4876
21147SOL    HW265449   9.736   0.312   9.808 -0.7628  0.4812 -0.2534
21148SOL     OW65450   4.942   6.427   9.009 -0.0297  0.1041  0.1716
21148SOL    HW165451   4.942   6.386   8.922  1.8296 -2.9588  1.4604
21148SOL    HW265452   4.879   6.375   9.059 -0.6696  1.4938  0.8611
21149SOL     OW65453   2.804   9.611   7.752  0.1510 -0.5014 -0.9343
21149SOL    HW165454   2.867   9.682   7.763  1.4011 -1.4869 -1.5069
21149SOL    HW265455   2.793   9.575   7.840 -0.6237  0.4668 -0.6056
21150SOL     OW65456   0.565   4.653   5.022 -0.0242  0.3197 -0.3120
21150SOL    HW165457   0.523   4.604   5.092 -0.0799 -0.9782 -1.1998
21150SOL    HW265458   0.626   4.712   5.066 -0.4305 -0.0982  0.8377
21151SOL     OW65459  10.715   2.053   9.083 -0.2940  0.1507 -0.1955
21151SOL    HW165460  10.630   2.080   9.047 -1.3772  0.2949  2.2873
21151SOL    HW265461  10.760   2.136   9.100 -0.9616  0.2429  1.3287
21152SOL     OW65462   9.122   7.437   5.001  1.0887  0.5087  0.1406
21152SOL    HW165463   9.042   7.481   5.028  1.2295  0.2146  1.0747
21152SOL    HW265464   9.159   7.494   4.933  0.4445  0.9962  0.1918
21153SOL     OW65465  11.268   1.249   4.744  0.4462 -0.5222  0.0994
21153SOL    HW165466  11.329   1.248   4.818  0.1208 -1.1805  0.3576
21153SOL    HW265467  11.321   1.224   4.669  0.2004 -2.5961  0.5640
21154SOL     OW65468   4.084   7.076   2.512  0.0409  0.2578  0.5675
21154SOL    HW165469   4.123   7.034   2.435  1.9108 -0.2957  1.7368
21154SOL    HW265470   4.137   7.156   2.525  0.7371 -0.4058  2.0841
21155SOL     OW65471   1.915   4.712   9.383 -0.3384  0.3503  0.6827
21155SOL    HW165472   1.821   4.717   9.365  0.0198  1.9174 -1.0750
21155SOL    HW265473   1.921   4.710   9.478 -2.1973 -2.3518  0.8814
21156SOL     OW65474  10.743  10.853  10.316  0.2730 -0.1698 -0.0517
21156SOL    HW165475  10.705  10.765  10.315 -0.8867  0.3042 -1.5767
21156SOL    HW265476  10.687  10.902  10.376  0.9833 -0.4686  0.8822
21157SOL     OW65477   9.400   6.262   2.616  0.4808 -0.4364  0.4552
21157SOL    HW165478   9.367   6.224   2.698 -1.2758 -0.6861 -0.3219
21157SOL    HW265479   9.348   6.219   2.547 -0.2869  2.0128 -0.5944
21158SOL     OW65480   5.158   8.483   0.821 -0.6293  0.4721 -0.2952
21158SOL    HW165481   5.120   8.417   0.762 -0.1604  1.5207 -1.8550
21158SOL    HW265482   5.084   8.515   0.872 -0.5589 -2.5833  1.9419
21159SOL     OW65483   7.791   5.860   8.853 -0.3834 -0.0716 -0.1627
21159SOL    HW165484   7.772   5.868   8.760 -0.0118 -1.4303 -0.3869
21159SOL    HW265485   7.791   5.949   8.886  0.0772  0.4853 -1.5882
21160SOL     OW65486   1.032  10.953   0.188 -0.0106  0.5820  0.1707
21160SOL    HW165487   1.065  11.039   0.216  2.1509 -0.2445  0.3686
21160SOL    HW265488   1.068  10.892   0.252  0.7822 -0.7712 -1.4774
21161SOL     OW65489   3.269   1.472   2.347 -0.2093  0.1424  0.3687
21161SOL    HW165490   3.262   1.413   2.272 -1.7909  1.3947 -0.5430
21161SOL    HW265491   3.287   1.415   2.421 -0.2260 -1.3094 -0.7061
21162SOL     OW65492   0.338   6.370   2.343  0.1740  0.9034  0.0951
21162SOL    HW165493   0.354   6.289   2.295 -2.0682  0.0101  0.7338
21162SOL    HW265494   0.424   6.411   2.350  1.3035 -1.1961 -0.6160
21163SOL     OW65495   3.754  10.749   3.865 -0.3525 -0.5657 -0.5323
21163SOL    HW165496   3.692  10.759   3.794 -1.8319  0.5761  0.8482
21163SOL    HW265497   3.780  10.838   3.889  0.4631 -0.9385  0.0708
21164SOL     OW65498   7.792   6.039   7.263  0.3340  0.5840  0.4392
21164SOL    HW165499   7.877   5.995   7.261  0.6928  1.2581  0.5712
21164SOL    HW265500   7.783   6.076   7.175  0.3024  0.7494  0.5123
21165SOL     OW65501   3.260   7.282   3.732 -0.1291 -0.1014 -0.1054
21165SOL    HW165502   3.264   7.375   3.756 -2.3715  0.0003  0.1322
21165SOL    HW265503   3.171   7.271   3.697  0.7159 -1.7734 -1.8665
21166SOL     OW65504   5.891   7.904   5.814  0.2254 -0.3826 -0.2723
21166SOL    HW165505   5.966   7.845   5.808  0.6745  0.1726 -0.2378
21166SOL    HW265506   5.888   7.929   5.907 -0.2703 -0.7463 -0.1901
21167SOL     OW65507   3.991   9.345   4.653 -0.1601 -0.0818  0.0416
21167SOL    HW165508   4.014   9.421   4.599  0.7035  0.5254  1.2314
21167SOL    HW265509   3.981   9.274   4.589  1.3592  0.4819 -0.9109
21168SOL     OW65510  11.104   6.403   2.989 -0.4759 -0.1146  0.1338
21168SOL    HW165511  11.125   6.487   2.949  0.0251  0.1627  0.9743
21168SOL    HW265512  11.127   6.413   3.081 -1.5300 -0.7803  0.4851
21169SOL     OW65513  11.119   0.989   2.296 -0.4573  0.2569  0.6164
21169SOL    HW165514  11.117   0.941   2.213 -1.1372  1.9894 -0.4181
21169SOL    HW265515  11.212   1.000   2.316 -0.2922 -0.2503  0.1309
21170SOL     OW65516   5.586   8.357   1.580  0.2460 -0.7826 -0.2988
21170SOL    HW165517   5.584   8.285   1.642  0.0046  1.6007  2.7140
21170SOL    HW265518   5.677   8.386   1.580  0.4017 -1.2033 -1.7101
21171SOL     OW65519   7.720   2.613   7.655  0.3367  0.1388  0.8947
21171SOL    HW165520   7.804   2.654   7.633  0.2398 -0.4485 -0.7431
21171SOL    HW265521   7.697   2.649   7.741  2.6418 -0.3216  1.7756
21172SOL     OW65522   5.316   9.456   5.182  0.3869  0.1477 -0.4827
21172SOL    HW165523   5.244   9.519   5.180  0.2483  0.0458  0.4870
21172SOL    HW265524   5.390   9.506   5.217  0.1095 -0.3549  0.9029
21173SOL     OW65525   7.954  11.132   9.710  0.3466 -0.4105 -0.3018
21173SOL    HW165526   7.960  11.135   9.805  0.3013 -4.0465 -0.0401
21173SOL    HW265527   7.951  11.224   9.683 -2.4122  0.8056  3.3403
21174SOL     OW65528  10.981   2.501   0.957  0.0306 -0.4436 -0.8470
21174SOL    HW165529  11.014   2.484   1.045 -0.1307  0.5994 -0.5711
21174SOL    HW265530  10.888   2.518   0.968 -0.1758 -1.2320 -1.3448
21175SOL     OW65531   6.391   2.912   0.168  0.1855 -0.1619 -0.0926
21175SOL    HW165532   6.439   2.829   0.169 -1.0978 -0.9356 -0.5164
21175SOL    HW265533   6.380   2.935   0.261 -0.2332 -0.9396  0.0553
21176SOL     OW65534   6.497   6.096   5.206 -0.1652  0.5595 -0.7569
21176SOL    HW165535   6.498   6.034   5.278 -1.0911  1.2034 -0.1729
21176SOL    HW265536   6.542   6.174   5.240  0.6969  0.3469 -1.3713
21177SOL     OW65537   0.840   4.982  10.370  0.5211 -0.0930  0.0825
21177SOL    HW165538   0.750   5.012  10.387  0.3078 -0.2567 -0.7031
21177SOL    HW265539   0.895   5.043  10.419  0.0165  0.5144 -0.0820
21178SOL     OW65540   1.601   0.098   6.172  0.2579  0.1854  0.2518
21178SOL    HW165541   1.684   0.124   6.134  0.7597  0.1869  1.3167
21178SOL    HW265542   1.588   0.158   6.246 -1.6208  1.4412 -1.0030
21179SOL     OW65543   4.788   8.250  11.242  0.2051 -0.6059  0.4271
21179SOL    HW165544   4.737   8.331  11.239  2.6791  1.0410 -2.2959
21179SOL    HW265545   4.878   8.278  11.256  1.4009 -2.6323 -2.2319
21180SOL     OW65546   0.343   3.313   2.448  0.4370  0.0020 -0.5309
21180SOL    HW165547   0.297   3.397   2.442  2.1644  0.9025 -3.7650
21180SOL    HW265548   0.435   3.338   2.452  0.9253 -1.7572 -0.3677
21181SOL     OW65549  10.274  10.550   3.139 -0.0235  0.5313 -0.6009
21181SOL    HW165550  10.231  10.610   3.200  1.2205 -0.2474  1.1260
21181SOL    HW265551  10.233  10.568   3.055 -0.2552  3.2460 -0.0001
21182SOL     OW65552   4.410   4.113   5.176 -0.1233 -0.2910 -0.0306
21182SOL    HW165553   4.414   4.124   5.081 -1.0905 -0.1080 -0.0593
21182SOL    HW265554   4.483   4.055   5.196  0.0775 -0.3525 -0.8882
21183SOL     OW65555   3.165  10.143   1.654 -0.0063  0.4782  0.6112
21183SOL    HW165556   3.156  10.220   1.597  2.4164  0.2470 -0.2043
21183SOL    HW265557   3.211  10.176   1.731 -0.1445  0.1036  0.8530
21184SOL     OW65558   9.051   1.787   5.752  0.6911 -0.3990  0.1285
21184SOL    HW165559   8.985   1.720   5.730  0.0001 -0.2710  1.6289
21184SOL    HW265560   9.132   1.754   5.715 -0.0178 -1.0780 -0.8819
21185SOL     OW65561  10.652   3.743   1.460  0.2709  0.3048 -0.2149
21185SOL    HW165562  10.632   3.697   1.542 -0.5754 -2.2804 -1.7549
21185SOL    HW265563  10.695   3.824   1.488 -0.2360 -0.3361  2.7747
21186SOL     OW65564   0.325   8.023   3.135 -0.5961 -0.1128  0.6917
21186SOL    HW165565   0.258   8.058   3.192 -2.6574  0.0193 -1.6504
21186SOL    HW265566   0.291   7.938   3.107  1.0533 -0.8537  0.7702
21187SOL     OW65567   2.011   8.251   0.511 -0.2181 -0.1421 -0.1634
21187SOL    HW165568   2.036   8.163   0.535  0.1375  0.2357  0.8945
21187SOL    HW265569   2.090   8.289   0.472  1.1570  1.1326  3.3916
21188SOL     OW65570   6.793   3.605   1.570 -0.0191 -0.1951 -0.2515
21188SOL    HW165571   6.881   3.626   1.602  0.0090 -2.0128  1.0254
21188SOL    HW265572   6.757   3.689   1.541  2.0644  0.6203 -0.6694
21189SOL     OW65573   8.491   0.620   1.219  0.8517  0.4444  0.4647
21189SOL    HW165574   8.549   0.577   1.155 -1.0715 -0.9438 -0.4438
21189SOL    HW265575   8.468   0.704   1.178  1.1997  0.4366  0.2502
21190SOL     OW65576   5.810   6.717   8.711  0.0706 -0.0155  0.1857
21190SOL    HW165577   5.797   6.638   8.764 -0.3205 -0.8477 -1.0955
21190SOL    HW265578   5.887   6.759   8.749  1.7231 -2.2494 -0.5160
21191SOL     OW65579   3.898   6.544   5.715  0.5860  0.4788  0.0950
21191SOL    HW165580   3.949   6.479   5.666 -1.8248  1.5167 -4.2993
21191SOL    HW265581   3.947   6.625   5.706  0.8327  0.4036  0.7060
21192SOL     OW65582   6.585  10.371   6.470  0.2042 -0.0003  0.0573
21192SOL    HW165583   6.591  10.276   6.461 -1.3908 -0.0322 -1.3175
21192SOL    HW265584   6.596  10.404   6.381  0.6470  1.1041  0.5032
21193SOL     OW65585   7.394   6.861   5.154 -0.2911 -1.0277 -0.4024
21193SOL    HW165586   7.449   6.901   5.221 -0.5894 -0.4083 -0.5289
21193SOL    HW265587   7.316   6.831   5.201 -1.7252  1.7102 -0.8125
21194SOL     OW65588   2.336   8.766   1.108  0.4525  0.5162  0.4103
21194SOL    HW165589   2.415   8.724   1.142  2.0060  2.1912 -0.9174
21194SOL    HW265590   2.355   8.860   1.113 -0.1511  0.9172 -2.7552
21195SOL     OW65591   1.870   9.335   8.667  0.2717 -0.4795 -0.0390
21195SOL    HW165592   1.838   9.271   8.731 -0.1603 -0.7340 -0.5106
21195SOL    HW265593   1.944   9.377   8.712 -0.4977 -0.1152  0.9236
21196SOL     OW65594   4.700   8.331   6.092 -0.7002 -0.4716 -0.5072
21196SOL    HW165595   4.669   8.327   6.001  0.7495 -1.5734 -1.0011
21196SOL    HW265596   4.661   8.255   6.134  0.6020 -1.4047 -0.9175
21197SOL     OW65597   8.628   0.289   0.457  0.3937  0.1129 -0.3543
21197SOL    HW165598   8.581   0.281   0.540 -0.3924 -1.1457 -0.8846
21197SOL    HW265599   8.560   0.278   0.390  1.2204 -0.3401 -1.1476
21198SOL     OW65600  10.420   1.344   4.383 -0.0810 -0.1487 -0.1147
21198SOL    HW165601  10.509   1.357   4.350 -0.0547 -1.7756 -0.7886
21198SOL    HW265602  10.402   1.251   4.368 -1.6013 -0.0350  0.7567
21199SOL     OW65603   8.374  10.937   2.513 -0.2207  0.0660  0.0993
21199SOL    HW165604   8.421  10.886   2.447  0.6871  0.8251  0.1366
21199SOL    HW265605   8.336  10.872   2.572 -0.6411 -0.6080 -0.8988
21200SOL     OW65606   6.070   4.869   2.619 -0.4986  0.5695  0.6350
21200SOL    HW165607   6.072   4.938   2.553  0.1042  0.8074  0.8981
21200SOL    HW265608   6.032   4.912   2.696 -0.3733  0.5350  0.7158
21201SOL     OW65609   2.690  10.213   9.096  1.0305  0.2431 -0.0413
21201SOL    HW165610   2.769  10.164   9.072  0.2807 -1.1168  0.1418
21201SOL    HW265611   2.629  10.146   9.127 -0.4746  1.1625 -0.8850
21202SOL     OW65612   1.627   6.304   2.875  1.3347 -0.0816  0.3769
21202SOL    HW165613   1.605   6.259   2.794  0.5323  1.5673 -0.3734
21202SOL    HW265614   1.605   6.241   2.944  2.4179 -1.6645 -0.6546
21203SOL     OW65615   5.910   4.987   1.125  0.4368  0.0464  0.4101
21203SOL    HW165616   5.860   4.922   1.076 -1.8576 -0.0935  2.7066
21203SOL    HW265617   5.916   5.062   1.066  0.2865 -1.0773 -1.0999
21204SOL     OW65618   5.461   4.670   1.711  0.0824 -0.2416  0.6062
21204SOL    HW165619   5.459   4.713   1.796 -0.3908 -0.4541  0.7043
21204SOL    HW265620   5.370   4.670   1.682  0.3311  0.4615 -0.2171
21205SOL     OW65621  10.515   7.960  10.937  0.1898 -0.4191 -0.2820
21205SOL    HW165622  10.458   8.035  10.919  2.4845  0.9874 -2.2230
21205SOL    HW265623  10.463   7.884  10.909 -0.5543  0.8405 -2.5657
21206SOL     OW65624   9.787  10.135  10.454  0.3000 -0.4178  0.1818
21206SOL    HW165625   9.731  10.195  10.404  3.2642  1.9657 -0.5761
21206SOL    HW265626   9.853  10.191  10.495  3.6420 -3.1152 -0.9877
21207SOL     OW65627   2.237   9.069   0.811 -0.4012 -0.2236 -0.3900
21207SOL    HW165628   2.169   9.003   0.825 -2.4756  1.3839 -2.0222
21207SOL    HW265629   2.285   9.037   0.734 -0.8637 -0.2442 -0.6755
21208SOL     OW65630   5.372   6.729   7.314  0.2462  0.5655 -0.2158
21208SOL    HW165631   5.297   6.778   7.348  0.5035  2.0795 -1.7391
21208SOL    HW265632   5.427   6.713   7.391 -1.1365  0.2986  0.7546
21209SOL     OW65633   7.282   7.625   9.299 -0.3203  0.6448 -0.6931
21209SOL    HW165634   7.377   7.636   9.308 -0.1920  0.7525 -1.9966
21209SOL    HW265635   7.259   7.678   9.223 -1.4569  0.7357 -0.2977
21210SOL     OW65636   4.858   3.319   1.231  0.1780  0.2790  0.2728
21210SOL    HW165637   4.834   3.373   1.156  1.1009  0.6311  0.2163
21210SOL    HW265638   4.940   3.278   1.205  0.1671 -0.1097  0.8391
21211SOL     OW65639   6.075   2.665   1.509 -0.3600  0.2018 -0.0939
21211SOL    HW165640   6.066   2.749   1.465  1.0527  0.1657 -0.5267
21211SOL    HW265641   6.083   2.687   1.602  1.2558  0.6967 -0.3084
21212SOL     OW65642   5.863   3.813   2.229  0.0512  0.1332  0.7953
21212SOL    HW165643   5.923   3.857   2.289  0.4590 -0.3901  0.7810
21212SOL    HW265644   5.860   3.722   2.260  1.1076 -0.4220 -0.5857
21213SOL     OW65645   7.813   1.202   8.863  0.5234 -0.4047 -0.5847
21213SOL    HW165646   7.849   1.116   8.886  0.5059 -0.0761  0.7781
21213SOL    HW265647   7.798   1.244   8.947 -0.7600  0.4201 -1.1996
21214SOL     OW65648   6.516   9.707   7.823  1.2222 -0.5404 -0.3421
21214SOL    HW165649   6.529   9.793   7.863 -0.2275  1.4526 -3.6642
21214SOL    HW265650   6.449   9.666   7.877  2.0898  0.2826  1.4517
21215SOL     OW65651   2.024   0.924   0.736 -0.0245  0.5343 -0.0430
21215SOL    HW165652   2.109   0.886   0.714 -0.4836 -0.3111 -0.3853
21215SOL    HW265653   2.005   0.983   0.663 -0.2595 -0.1520 -0.5428
21216SOL     OW65654   8.123   2.279   1.054  0.2965 -0.4529  0.3459
21216SOL    HW165655   8.119   2.309   1.145 -0.8263  0.0836  0.1284
21216SOL    HW265656   8.050   2.323   1.011  0.5327 -1.0747 -0.7124
21217SOL     OW65657   2.642   1.558   8.921  0.1975 -0.2609  0.1403
21217SOL    HW165658   2.618   1.607   8.843  1.3751  0.5579  0.2644
21217SOL    HW265659   2.704   1.616   8.968  0.2900 -1.1487  1.1582
21218SOL     OW65660   4.280   2.967  11.155 -0.3442 -0.7437  0.5551
21218SOL    HW165661   4.246   2.988  11.068  0.8060  0.6641  0.4125
21218SOL    HW265662   4.233   3.026  11.214 -0.3535 -0.9422  0.7463
21219SOL     OW65663   1.071   7.309   1.108  0.0973  0.3231 -0.0149
21219SOL    HW165664   0.985   7.305   1.066  0.6224  2.3286 -1.3776
21219SOL    HW265665   1.096   7.217   1.119 -2.0306 -0.3046  0.0816
21220SOL     OW65666   0.123   3.403   7.590  0.7525  0.4590 -0.4241
21220SOL    HW165667   0.043   3.421   7.640  0.8515  0.2744 -0.1940
21220SOL    HW265668   0.157   3.489   7.568 -0.2332  0.5544 -1.7093
21221SOL     OW65669   5.818  10.162   0.877  0.9831  0.4911  0.5474
21221SOL    HW165670   5.807  10.233   0.814  0.9432 -2.1551 -2.7203
21221SOL    HW265671   5.729  10.140   0.904  0.7900  0.2254 -0.2695
21222SOL     OW65672   1.849   2.975   8.370 -0.7581 -0.5277 -0.2306
21222SOL    HW165673   1.878   2.983   8.461 -0.1120 -2.9844 -0.1534
21222SOL    HW265674   1.753   2.968   8.377 -0.6569 -1.5228  0.3582
21223SOL     OW65675   3.526   6.754   8.798  0.5418 -1.0307 -0.4506
21223SOL    HW165676   3.589   6.712   8.739  0.9127 -0.6811 -0.3098
21223SOL    HW265677   3.520   6.694   8.872  2.0782 -0.2577  0.3692
21224SOL     OW65678   6.018   1.829   7.131 -0.9110  0.4212 -0.2205
21224SOL    HW165679   6.071   1.804   7.055 -0.5842  1.7245 -0.4466
21224SOL    HW265680   6.047   1.918   7.152 -1.6562  0.4282  0.8607
21225SOL     OW65681   3.844   9.680   2.891  0.1166  0.3413  0.3987
21225SOL    HW165682   3.842   9.617   2.819  1.4164 -0.9379  1.4158
21225SOL    HW265683   3.770   9.656   2.946 -0.8553  1.2963 -0.4374
21226SOL     OW65684   3.063   9.776   7.439  0.2550 -0.4124  0.5674
21226SOL    HW165685   3.094   9.711   7.376  2.8189  0.8432  0.4226
21226SOL    HW265686   2.983   9.811   7.400  0.2071 -1.6993 -0.5613
21227SOL     OW65687   9.437   3.606   2.869  0.2362 -0.6205  0.1703
21227SOL    HW165688   9.531   3.586   2.863  0.0024 -1.3134 -1.6757
21227SOL    HW265689   9.402   3.539   2.928  0.9346 -0.0811  1.2484
21228SOL     OW65690   1.247   1.531  11.117  0.3361  0.1732 -0.4677
21228SOL    HW165691   1.173   1.589  11.102  0.5761  0.4313 -0.6545
21228SOL    HW265692   1.228   1.454  11.064 -0.8590 -0.6998  1.1525
21229SOL     OW65693   6.155   5.694   7.227  0.5218 -0.0362 -0.0347
21229SOL    HW165694   6.232   5.650   7.190 -0.3247  0.1275 -2.1304
21229SOL    HW265695   6.147   5.775   7.177 -0.5687  0.3278  0.6880
21230SOL     OW65696   8.722  10.940   6.624 -0.7991 -0.1693  0.5271
21230SOL    HW165697   8.710  11.006   6.555 -2.5912 -1.3921 -0.4326
21230SOL    HW265698   8.815  10.942   6.643 -0.4125  0.9612 -1.1859
21231SOL     OW65699   3.829   5.680   3.385 -0.2615 -0.2036  0.1259
21231SOL    HW165700   3.885   5.615   3.343  0.5868 -0.3035  1.3934
21231SOL    HW265701   3.775   5.629   3.446  1.0679  0.3362  1.8306
21232SOL     OW65702   5.558   8.148   2.209  0.4350 -0.0838  0.5161
21232SOL    HW165703   5.492   8.082   2.231  0.4822 -0.5463 -0.6461
21232SOL    HW265704   5.617   8.148   2.284 -0.5808 -0.0380  1.3441
21233SOL     OW65705   0.481   6.808   7.401  0.6111 -0.0342 -0.0303
21233SOL    HW165706   0.565   6.847   7.376  0.3701  0.0477 -0.7413
21233SOL    HW265707   0.488   6.794   7.495  2.6442 -2.8879 -0.4633
21234SOL     OW65708   9.253   0.358   6.225  0.0672  0.0052  0.7122
21234SOL    HW165709   9.199   0.425   6.267 -0.9394 -1.5392  2.0341
21234SOL    HW265710   9.341   0.372   6.260 -0.0855  0.7706  0.7970
21235SOL     OW65711   4.112   4.799   1.970  0.7509 -0.0981  0.4767
21235SOL    HW165712   4.062   4.881   1.966  1.1186  0.3063  2.7517
21235SOL    HW265713   4.065   4.740   1.911  0.0064  1.4965 -0.5945
21236SOL     OW65714   0.939   6.263   4.329  0.4185  0.1530  0.4044
21236SOL    HW165715   0.980   6.349   4.317 -1.6201  1.1935  0.6267
21236SOL    HW265716   0.913   6.261   4.421 -3.3954  1.1675 -0.4944
21237SOL     OW65717   9.954   4.172   9.544  0.7445 -0.5506  0.3925
21237SOL    HW165718   9.873   4.126   9.520 -0.3819  1.1963  0.7001
21237SOL    HW265719   9.968   4.149   9.636 -0.6753  0.8803  1.0071
21238SOL     OW65720  10.690   1.647   9.245 -0.0989 -0.3834 -0.1315
21238SOL    HW165721  10.649   1.664   9.160 -0.6522  0.3279  0.2716
21238SOL    HW265722  10.734   1.728   9.268  2.3616 -1.3693 -0.9514
21239SOL     OW65723   6.572   7.130  11.247  0.2718  0.6654 -0.2757
21239SOL    HW165724   6.487   7.094  11.271  0.2333 -0.0358 -1.4171
21239SOL    HW265725   6.617   7.143  11.330 -0.8312  0.7633  0.3234
21240SOL     OW65726   3.706   3.301   2.440 -0.1183  1.2764  0.1129
21240SOL    HW165727   3.689   3.211   2.414 -0.5621  1.6321 -0.9241
21240SOL    HW265728   3.786   3.325   2.393 -0.7959  1.8578 -0.7806
21241SOL     OW65729   8.846   5.021   3.794  0.0871 -0.3113  0.8051
21241SOL    HW165730   8.759   5.004   3.759 -0.6778  3.6689  0.3475
21241SOL    HW265731   8.905   4.973   3.735 -1.6615 -3.5823  1.4753
21242SOL     OW65732   1.361   2.773   7.583 -0.0397 -0.0350  0.3479
21242SOL    HW165733   1.275   2.811   7.569  0.2260  0.4003 -0.1444
21242SOL    HW265734   1.346   2.701   7.645 -0.5428  0.8757  1.3141
21243SOL     OW65735   7.876   6.539   3.492  0.6051  0.4913  0.3006
21243SOL    HW165736   7.826   6.568   3.416 -0.1928  0.3298  0.7521
21243SOL    HW265737   7.842   6.590   3.565  0.4735 -0.2542  0.7764
21244SOL     OW65738   0.597   0.978   6.110 -0.3708  0.8254 -0.1708
21244SOL    HW165739   0.590   1.010   6.200  1.7947  2.8266 -0.6115
21244SOL    HW265740   0.574   0.886   6.115 -2.7013  1.4117  1.9782
21245SOL     OW65741  10.950   3.445   8.350 -0.1052 -0.0487 -0.0492
21245SOL    HW165742  11.009   3.482   8.416  2.1863 -1.0968 -1.3853
21245SOL    HW265743  10.962   3.351   8.358  0.5669 -0.1837 -2.1968
21246SOL     OW65744   7.297   3.390  10.648  0.2468  0.4442 -0.2275
21246SOL    HW165745   7.264   3.372  10.561  0.0970 -0.8123  0.0649
21246SOL    HW265746   7.329   3.305  10.680  0.8624  0.9968  0.6995
21247SOL     OW65747   8.596  10.304   1.462 -0.0885 -0.2624  0.4939
21247SOL    HW165748   8.646  10.385   1.474 -1.1329  0.1691  2.3614
21247SOL    HW265749   8.553  10.290   1.547 -0.1968 -2.6090  0.1051
21248SOL     OW65750  10.268   1.424   6.092  0.5350 -0.6268 -0.4242
21248SOL    HW165751  10.267   1.479   6.014 -1.2136 -2.1981 -1.6080
21248SOL    HW265752  10.282   1.336   6.059 -1.3949 -1.4877  0.8575
21249SOL     OW65753   9.189   4.321   3.690  0.6706 -0.7317 -0.3539
21249SOL    HW165754   9.235   4.259   3.633  2.4140 -0.3626  0.5773
21249SOL    HW265755   9.258   4.375   3.727 -0.7560  1.5224 -0.7901
21250SOL     OW65756   9.932  10.152   9.412  1.0287  0.2562 -0.1031
21250SOL    HW165757   9.885  10.115   9.337 -1.3202 -2.2484  2.3169
21250SOL    HW265758   9.906  10.244   9.413 -1.9252 -0.4452 -0.4021
21251SOL     OW65759   4.364   3.566   1.774 -0.0982  0.6796  0.0763
21251SOL    HW165760   4.299   3.520   1.826 -0.5994  1.0668 -0.2016
21251SOL    HW265761   4.414   3.496   1.732 -1.4654  0.3556 -1.0956
21252SOL     OW65762   0.387   4.178   7.598 -0.1914 -0.3102 -0.1989
21252SOL    HW165763   0.454   4.176   7.667 -0.1663 -0.4399 -0.2267
21252SOL    HW265764   0.306   4.155   7.643 -0.5166  1.4073  0.1670
21253SOL     OW65765   1.365  11.025   7.843 -0.0153 -0.1327  0.0733
21253SOL    HW165766   1.404  11.021   7.931 -0.1085 -1.4762  0.0688
21253SOL    HW265767   1.336  11.116   7.834 -0.8174 -0.1815  1.7849
21254SOL     OW65768  10.126   8.854   5.616  0.4184 -0.0141 -0.0743
21254SOL    HW165769  10.151   8.763   5.598  1.0620 -0.2002  1.6143
21254SOL    HW265770  10.153   8.869   5.706 -3.0581  0.6811  1.0124
21255SOL     OW65771   6.683   7.267   2.231 -0.0022 -0.1883  0.1282
21255SOL    HW165772   6.641   7.311   2.157  0.2347 -1.5881 -0.8843
21255SOL    HW265773   6.720   7.338   2.283  0.4603  0.8073 -1.4858
21256SOL     OW65774   1.969   4.276   5.605 -0.6573 -0.4509  0.2391
21256SOL    HW165775   2.010   4.226   5.675 -1.8161  0.8741  1.9514
21256SOL    HW265776   1.899   4.220   5.573 -0.4820 -0.8395  0.5336
21257SOL     OW65777   3.231   4.984   1.462  0.1938 -0.4618  0.2962
21257SOL    HW165778   3.310   5.017   1.419 -0.6808  1.6328  0.1484
21257SOL    HW265779   3.200   5.059   1.513 -0.6901 -1.8246  1.8586
21258SOL     OW65780   4.084   7.759   2.586  0.2335  0.0689  0.0255
21258SOL    HW165781   4.067   7.816   2.511  0.3438  1.4962  1.0531
21258SOL    HW265782   4.046   7.805   2.661 -0.9691 -1.8797  0.7079
21259SOL     OW65783   3.296   4.315   2.583  0.2382  0.3618  0.2120
21259SOL    HW165784   3.299   4.324   2.678 -0.3894  0.2961  0.2420
21259SOL    HW265785   3.256   4.397   2.553 -2.3469 -0.7990  0.2347
21260SOL     OW65786   3.139   3.681   5.598 -0.7170 -0.0052  0.5656
21260SOL    HW165787   3.048   3.675   5.628 -1.1814  3.2832  0.1158
21260SOL    HW265788   3.132   3.698   5.504  0.4697 -1.1306  0.2418
21261SOL     OW65789   0.289   5.774   4.506  0.4722  0.0515 -0.1568
21261SOL    HW165790   0.306   5.835   4.578 -1.4532 -0.0399  0.4193
21261SOL    HW265791   0.370   5.775   4.454  1.1329  1.7165  0.8307
21262SOL     OW65792   7.487   8.017   5.604  0.0919  0.5591 -0.6867
21262SOL    HW165793   7.490   8.100   5.557 -0.3135  0.1377 -1.4795
21262SOL    HW265794   7.557   8.024   5.669 -1.7250  2.6650  1.2389
21263SOL     OW65795   7.943   9.125   9.096  0.0070 -0.6606  0.0402
21263SOL    HW165796   7.952   9.038   9.057 -0.8415 -0.9340  0.4394
21263SOL    HW265797   7.912   9.108   9.185  1.5085 -0.0292  0.7179
21264SOL     OW65798   9.493   5.516   1.045  0.0529  0.2080 -0.0377
21264SOL    HW165799   9.493   5.585   0.977 -2.4235 -0.3448 -0.7134
21264SOL    HW265800   9.483   5.435   0.996 -1.1796 -0.2519  0.9199
21265SOL     OW65801   4.160  10.877   8.594  0.1564  0.2956 -0.0004
21265SOL    HW165802   4.143  10.896   8.686 -0.1513 -1.1575  0.2662
21265SOL    HW265803   4.254  10.858   8.590  0.0649 -0.1841  0.1171
21266SOL     OW65804   5.071   8.095  10.409 -0.2953 -0.5557  0.5344
21266SOL    HW165805   5.158   8.088  10.370  1.0846 -0.1179  3.2531
21266SOL    HW265806   5.015   8.041  10.354  1.3175  0.3862 -2.2146
21267SOL     OW65807  10.842   2.338   0.589  0.4809  0.2921  0.0025
21267SOL    HW165808  10.747   2.339   0.595  0.4926 -0.4223  0.4229
21267SOL    HW265809  10.865   2.424   0.554 -0.3524  0.2568 -0.6719
21268SOL     OW65810   3.104   3.276   8.113 -0.2211 -0.2201  0.3563
21268SOL    HW165811   3.136   3.188   8.128 -0.3759 -0.9222 -2.7262
21268SOL    HW265812   3.043   3.293   8.185  0.2822 -2.3434  1.3495
21269SOL     OW65813   5.916   9.195   1.373 -0.2446  0.3613 -0.1077
21269SOL    HW165814   5.923   9.278   1.419 -1.2052  0.9205 -0.9181
21269SOL    HW265815   5.957   9.131   1.431  1.6817  1.5928 -0.0524
21270SOL     OW65816   1.217  10.044   6.835 -0.0761 -0.8328  0.6984
21270SOL    HW165817   1.167  10.005   6.907  0.9523 -4.7605 -0.4370
21270SOL    HW265818   1.159  10.111   6.799 -1.6622 -0.5392  3.5336
21271SOL     OW65819  10.007   0.549   8.555 -0.1176  0.4514  0.0200
21271SOL    HW165820   9.977   0.495   8.628 -2.3842 -1.6108 -2.2442
21271SOL    HW265821   9.930   0.600   8.529  0.8248  1.6301 -0.5689
21272SOL     OW65822   2.911   3.159   6.937 -0.4250 -1.2015 -0.5470
21272SOL    HW165823   2.975   3.133   6.870  2.4316  1.9839  0.6142
21272SOL    HW265824   2.855   3.224   6.894  1.6651  1.1500  0.0025
21273SOL     OW65825   8.781  10.735   2.268 -0.1384 -0.0226  0.7318
21273SOL    HW165826   8.841  10.664   2.245 -1.0941 -0.1987 -1.4887
21273SOL    HW265827   8.835  10.795   2.320  1.7870 -0.5480 -0.5181
21274SOL     OW65828   7.760   0.723   5.300  0.4343 -0.3844 -0.7453
21274SOL    HW165829   7.801   0.808   5.286  0.9785 -0.7945 -1.8374
21274SOL    HW265830   7.789   0.671   5.225  0.1872 -1.5578 -0.0471
21275SOL     OW65831   1.741   8.948   4.312 -0.5054  0.3023  0.5322
21275SOL    HW165832   1.687   9.010   4.361  0.6551  0.9071  1.0793
21275SOL    HW265833   1.776   8.888   4.378 -0.9914 -0.4742  0.1022
21276SOL     OW65834   8.583   9.953  11.148 -0.7170 -0.3423 -1.0781
21276SOL    HW165835   8.676   9.965  11.167 -0.1196 -0.7151 -3.5086
21276SOL    HW265836   8.538  10.007  11.214  1.1804 -0.3100  0.2634
21277SOL     OW65837  11.124   5.815   2.239 -0.4486 -0.4899  0.0412
21277SOL    HW165838  11.044   5.790   2.284 -1.6596 -0.0246 -1.7275
21277SOL    HW265839  11.132   5.909   2.254  0.7714 -0.8101  1.6564
21278SOL     OW65840   4.219   9.879  10.373 -0.2134 -0.1058 -0.1311
21278SOL    HW165841   4.154   9.809  10.378  1.2747 -1.4940  0.6665
21278SOL    HW265842   4.254   9.873  10.284 -0.0807 -0.3835 -0.0606
21279SOL     OW65843  10.859  11.286   5.729  0.4026 -0.2153  0.0916
21279SOL    HW165844  10.898  11.288   5.817  2.7204  2.4951 -0.8434
21279SOL    HW265845  10.854  11.193   5.707  2.9137 -0.8592  1.8468
21280SOL     OW65846   6.757   2.679   7.939 -0.2781 -0.1826 -0.7594
21280SOL    HW165847   6.825   2.635   7.889  0.3808  0.1916 -0.2094
21280SOL    HW265848   6.738   2.620   8.011  0.6871  0.4487  0.0436
21281SOL     OW65849   7.068   2.861   3.501  0.2005  0.0709 -0.2722
21281SOL    HW165850   7.155   2.822   3.490  0.7170  1.5856 -2.1790
21281SOL    HW265851   7.078   2.925   3.571 -0.1631 -1.6995  1.4970
21282SOL     OW65852   7.071  10.624   0.928 -0.4892 -0.0928 -0.0941
21282SOL    HW165853   7.065  10.573   0.848  1.1511  0.6567 -0.7314
21282SOL    HW265854   7.056  10.714   0.900  0.0183  0.1671  0.4421
21283SOL     OW65855   0.509   3.181   7.114  0.5740 -1.0429  0.2752
21283SOL    HW165856   0.536   3.236   7.041 -0.4716  0.1773  0.7681
21283SOL    HW265857   0.423   3.147   7.089  1.2049 -2.5102 -0.0264
21284SOL     OW65858   4.129   5.658   7.762  0.3871  0.3921 -0.4939
21284SOL    HW165859   4.190   5.605   7.712  1.0288  0.6591 -0.0123
21284SOL    HW265860   4.184   5.706   7.824 -0.4157 -0.3508  0.8592
21285SOL     OW65861   0.754   4.457   9.024 -0.0498 -0.1937  0.2178
21285SOL    HW165862   0.671   4.480   9.065 -1.0557 -1.6008 -0.9022
21285SOL    HW265863   0.820   4.503   9.075 -1.4614  0.4466  1.5483
21286SOL     OW65864   1.215   8.705   8.725  0.4752 -0.4077 -0.6393
21286SOL    HW165865   1.248   8.624   8.764  0.5614 -0.1662 -0.2045
21286SOL    HW265866   1.286   8.734   8.667  1.8852  1.0959  1.6726
21287SOL     OW65867  10.257   7.390  11.022 -0.0762 -0.4916  0.1116
21287SOL    HW165868  10.178   7.412  10.973  0.3066  0.0384 -0.2808
21287SOL    HW265869  10.286   7.474  11.059  0.4560 -0.6267  0.0095
21288SOL     OW65870  10.648   5.495   6.107  0.3583  0.6134  0.4517
21288SOL    HW165871  10.672   5.415   6.061 -1.4147  0.0914  0.3398
21288SOL    HW265872  10.677   5.566   6.050  1.2347  0.0357  0.1700
21289SOL     OW65873   7.962   0.511   6.540  0.4074  0.9343  0.3176
21289SOL    HW165874   7.963   0.488   6.633 -0.3220  0.1373  0.1437
21289SOL    HW265875   7.872   0.538   6.524 -0.4391 -2.2089 -0.8834
21290SOL     OW65876   8.530   4.512   3.366  0.4003  0.4293 -0.4603
21290SOL    HW165877   8.565   4.569   3.435  2.3090  0.2711 -1.2364
21290SOL    HW265878   8.474   4.570   3.314 -1.3080  0.4893  1.3143
21291SOL     OW65879   6.488   5.185   1.444  0.5822  0.0815 -0.5872
21291SOL    HW165880   6.582   5.166   1.436  1.0989  2.6565 -1.6666
21291SOL    HW265881   6.482   5.280   1.429 -2.1376  0.0842  0.1240
21292SOL     OW65882   5.770   8.045   5.255  0.8244 -0.0817  0.1945
21292SOL    HW165883   5.719   7.966   5.271 -0.0106  0.5101  0.5273
21292SOL    HW265884   5.811   8.065   5.339  0.2544  0.3790  0.3646
21293SOL     OW65885   3.717   7.281  10.046  0.5065 -0.1423 -0.5854
21293SOL    HW165886   3.731   7.355   9.986 -0.0404  0.0622 -0.4648
21293SOL    HW265887   3.806   7.254  10.070  0.7142  0.8159 -0.2147
21294SOL     OW65888   4.368   4.661   6.924  0.2054  0.1184  0.3372
21294SOL    HW165889   4.452   4.682   6.964  0.2145  1.2900 -0.2637
21294SOL    HW265890   4.374   4.696   6.835 -0.6202 -0.5079  0.0234
21295SOL     OW65891   5.662  10.722   1.396  0.6551  0.3166 -0.3195
21295SOL    HW165892   5.587  10.734   1.337  1.4836  2.3820 -1.0261
21295SOL    HW265893   5.689  10.631   1.381 -1.7222 -0.5193  0.0239
21296SOL     OW65894   3.628   9.778   9.450  0.2910 -0.0234  0.8610
21296SOL    HW165895   3.660   9.691   9.427 -0.4652 -0.5680  1.7867
21296SOL    HW265896   3.689   9.838   9.407  0.5223 -0.9960 -0.2144
21297SOL     OW65897  11.215   0.821   3.536 -0.1421 -0.2604  0.7864
21297SOL    HW165898  11.261   0.893   3.579  2.0235 -0.0975 -1.5957
21297SOL    HW265899  11.179   0.859   3.457 -1.3747 -1.2152  0.8577
21298SOL     OW65900   1.412   0.939   5.343 -0.2386  0.4149  0.4514
21298SOL    HW165901   1.385   0.852   5.372  1.4032  0.4101  2.1898
21298SOL    HW265902   1.368   0.951   5.259 -1.7826 -1.4119  0.9229
21299SOL     OW65903   2.556   2.799  10.122  0.4366 -0.1510  0.6333
21299SOL    HW165904   2.639   2.843  10.105  0.4031 -0.2993  0.0774
21299SOL    HW265905   2.537   2.819  10.214 -0.1589  1.9601  0.0999
21300SOL     OW65906   9.295   8.949   3.746  0.3959  0.5961 -0.2463
21300SOL    HW165907   9.213   8.908   3.773  0.3861  1.9208  1.9296
21300SOL    HW265908   9.352   8.875   3.723 -0.8033 -0.4294 -0.0318
21301SOL     OW65909   5.202   2.988   3.237 -0.8316  0.3990  1.0176
21301SOL    HW165910   5.164   2.920   3.293 -2.3927 -0.0067 -0.4325
21301SOL    HW265911   5.140   2.996   3.165  2.1475 -0.8434 -1.9694
21302SOL     OW65912   5.525   3.713   1.856  0.1167  0.1480 -0.3544
21302SOL    HW165913   5.579   3.750   1.926 -0.7460 -0.0269  0.4188
21302SOL    HW265914   5.586   3.659   1.806  0.3479 -1.3701  1.4635
21303SOL     OW65915   8.477  10.102   1.046 -0.4197  1.1650 -0.7901
21303SOL    HW165916   8.557  10.119   0.998  0.9314 -0.5775  0.6924
21303SOL    HW265917   8.424  10.048   0.987  2.4972 -3.6575  0.3852
21304SOL     OW65918   9.540   6.275   6.687  0.1978  0.0357 -0.3098
21304SOL    HW165919   9.516   6.367   6.695  0.7785  0.1663 -0.0508
21304SOL    HW265920   9.463   6.227   6.719  0.6781  0.4611  1.6097
21305SOL     OW65921   4.909   3.081   2.094  0.8334 -0.0281 -0.2797
21305SOL    HW165922   4.868   3.156   2.137  0.7025  0.5667 -1.4083
21305SOL    HW265923   4.957   3.037   2.164 -1.0552 -0.3026  0.9164
21306SOL     OW65924   1.394   9.187   2.551  0.0799  0.4357  0.5611
21306SOL    HW165925   1.434   9.181   2.638  1.0699 -1.2623  0.0506
21306SOL    HW265926   1.307   9.150   2.562  0.2605  0.0719  0.8066
21307SOL     OW65927   7.677   2.230   0.967  0.0246 -0.2572 -0.4234
21307SOL    HW165928   7.636   2.144   0.970 -0.0658 -0.2576 -1.2194
21307SOL    HW265929   7.746   2.221   0.902  0.2057  0.1918 -0.2983
21308SOL     OW65930   2.193   6.798   8.182  0.5978 -0.2680 -0.2803
21308SOL    HW165931   2.204   6.705   8.204  2.2405  0.2113  1.1816
21308SOL    HW265932   2.148   6.835   8.258  2.1207  0.5498  0.2647
21309SOL     OW65933   4.272  11.012   6.897  0.1933 -0.4146  0.1686
21309SOL    HW165934   4.323  11.088   6.923  0.7956 -0.3417 -1.1279
21309SOL    HW265935   4.335  10.940   6.893  0.2052 -0.3586 -1.2981
21310SOL     OW65936   6.681  10.559   8.908 -0.1718  0.2119  0.4320
21310SOL    HW165937   6.625  10.510   8.849  0.6431  0.3237 -0.4571
21310SOL    HW265938   6.653  10.532   8.996 -1.6326  0.3015  0.0280
21311SOL     OW65939   1.170   9.284   1.536 -0.0389 -0.1002  0.1614
21311SOL    HW165940   1.264   9.291   1.519 -0.1496  2.2958  0.2613
21311SOL    HW265941   1.133   9.259   1.451  0.5419  0.4882 -0.2757
21312SOL     OW65942   8.677   3.851   4.463 -0.0976 -0.1833  0.2664
21312SOL    HW165943   8.628   3.774   4.434 -0.3915 -0.1144  0.5846
21312SOL    HW265944   8.767   3.832   4.438 -0.3574 -0.0783 -0.8123
21313SOL     OW65945   7.689   2.797   5.039  0.0473 -0.2594  0.5107
21313SOL    HW165946   7.683   2.746   5.120  0.8700 -1.3250 -0.0675
21313SOL    HW265947   7.609   2.777   4.992 -0.4078  0.3187  1.0132
21314SOL     OW65948   6.214   4.812   6.373  0.1121 -0.2910 -0.1129
21314SOL    HW165949   6.255   4.898   6.361 -0.9782  0.4139  0.9519
21314SOL    HW265950   6.171   4.794   6.290  0.8887 -0.1171 -0.5624
21315SOL     OW65951   2.644   9.110   8.929 -0.5844 -0.4627 -0.0890
21315SOL    HW165952   2.684   9.195   8.949 -1.5698 -0.1645  0.6203
21315SOL    HW265953   2.668   9.054   9.002 -3.5016  0.4077  1.6860
21316SOL     OW65954   6.383   3.574   4.281 -0.1303 -0.3345  0.3891
21316SOL    HW165955   6.287   3.578   4.277 -0.1045  1.1935  0.7288
21316SOL    HW265956   6.402   3.489   4.320 -1.4537  0.4150  2.8937
21317SOL     OW65957   6.071   1.999  11.281  0.0668 -0.4529 -0.3075
21317SOL    HW165958   6.131   2.011  11.355  1.2395 -2.4240 -0.8658
21317SOL    HW265959   6.128   1.969  11.209 -1.4707 -1.5735 -1.1084
21318SOL     OW65960   4.002   5.474   1.419  0.7952 -0.3114 -0.2005
21318SOL    HW165961   4.097   5.470   1.410  0.8053 -0.3891 -0.0746
21318SOL    HW265962   3.980   5.400   1.476  0.7116 -0.0021  0.1736
21319SOL     OW65963   5.378   6.953  10.086  0.0917 -0.3295 -0.3316
21319SOL    HW165964   5.401   6.935  10.177 -0.6072  1.4186  0.2311
21319SOL    HW265965   5.454   7.001  10.051  0.1012 -0.4672 -0.5052
21320SOL     OW65966   8.975  10.267   9.728  0.2919  0.1689 -0.3114
21320SOL    HW165967   9.064  10.295   9.706 -0.1546  0.6987 -1.5262
21320SOL    HW265968   8.948  10.212   9.655 -1.2970  2.0944 -1.2637
21321SOL     OW65969   0.841   4.326   0.286 -0.3520 -0.2763  0.0977
21321SOL    HW165970   0.883   4.292   0.207 -3.0669 -1.2717 -1.0234
21321SOL    HW265971   0.783   4.256   0.315 -0.3018  0.5110  2.3517
21322SOL     OW65972   8.966   2.866   0.330 -0.0483  0.3845  0.7840
21322SOL    HW165973   8.935   2.781   0.362  1.5109 -0.3056  0.5334
21322SOL    HW265974   9.060   2.866   0.347  0.0750  1.8409  0.2572
21323SOL     OW65975   9.958   7.732   8.137  0.9658 -0.3509 -0.3433
21323SOL    HW165976  10.037   7.734   8.082  0.9830 -0.2119 -0.3135
21323SOL    HW265977   9.900   7.798   8.099  0.6399 -0.8296 -0.6943
21324SOL     OW65978   0.379   3.080   9.660 -0.0770  0.0725 -0.1116
21324SOL    HW165979   0.303   3.085   9.602 -3.1493  0.8928  3.5494
21324SOL    HW265980   0.381   3.166   9.703  3.2263  0.1822 -0.1980
21325SOL     OW65981   3.933   1.357   0.125  0.0936  0.4349  0.3388
21325SOL    HW165982   4.019   1.364   0.086 -0.2139 -0.8754 -0.6545
21325SOL    HW265983   3.875   1.403   0.065  0.1288  1.6177  1.1840
21326SOL     OW65984   4.423  10.615  11.191  0.8856 -0.9029 -0.5607
21326SOL    HW165985   4.372  10.556  11.136  1.0483 -1.2062 -0.3911
21326SOL    HW265986   4.509  10.619  11.149  1.4896 -2.3062  0.4504
21327SOL     OW65987   9.398   2.019   7.097 -0.1956  0.2795  0.4735
21327SOL    HW165988   9.327   2.084   7.092 -1.5432 -1.2245 -1.5284
21327SOL    HW265989   9.466   2.053   7.039 -0.3006  0.6084  0.5433
21328SOL     OW65990   4.832   8.987   7.742 -0.3934  0.2044  0.5766
21328SOL    HW165991   4.877   9.071   7.746  0.5251 -0.3094  1.5166
21328SOL    HW265992   4.791   8.986   7.655 -0.3846  1.5907  0.5350
21329SOL     OW65993   0.868   1.373   4.395  0.0251  0.1718 -0.5356
21329SOL    HW165994   0.853   1.280   4.416  1.2717  0.1498  0.3432
21329SOL    HW265995   0.807   1.420   4.451  1.1765 -0.0278  0.9282
21330SOL     OW65996   4.178  11.199   3.131  0.4700  0.6735 -0.1599
21330SOL    HW165997   4.126  11.271   3.094 -1.2548 -1.1467 -1.5199
21330SOL    HW265998   4.133  11.176   3.212  0.7306  0.7931  0.0199
21331SOL     OW65999  10.184   5.690   4.552 -0.5495  0.2431 -0.2861
21331SOL    HW166000  10.261   5.742   4.572  0.2388  0.2324 -2.8946
21331SOL    HW266001  10.218   5.615   4.503 -2.1116 -0.3887 -0.4574
21332SOL     OW66002   7.259   0.863   3.127 -0.3151 -0.3933 -0.1095
21332SOL    HW166003   7.288   0.771   3.126  1.1926  0.0420  0.3485
21332SOL    HW266004   7.175   0.861   3.172 -0.0093 -1.4863  0.4669
21333SOL     OW66005  10.801   5.239   7.131 -0.1468 -0.5200  0.2352
21333SOL    HW166006  10.811   5.162   7.074 -0.9579  1.0542 -2.2142
21333SOL    HW266007  10.713   5.271   7.111  0.3879  1.3594  0.7401
21334SOL     OW66008   4.309   6.012   7.495  0.4949  0.3914  0.0698
21334SOL    HW166009   4.268   6.011   7.408  2.5186 -0.8273 -0.9372
21334SOL    HW266010   4.243   6.052   7.552 -1.9745 -1.1512 -1.4816
21335SOL     OW66011   1.211   8.718   7.716  0.2641  0.2275  0.8630
21335SOL    HW166012   1.246   8.657   7.651  2.8445  0.6473  1.7410
21335SOL    HW266013   1.176   8.790   7.663  1.9527  0.3779 -0.1325
21336SOL     OW66014   6.893   7.713   0.585 -0.0073  0.4297 -0.4655
21336SOL    HW166015   6.945   7.726   0.505  2.6237 -0.8134  0.9114
21336SOL    HW266016   6.937   7.641   0.630 -2.7590 -0.4277  1.0675
21337SOL     OW66017  11.138   2.000  10.721  0.3684 -0.1767 -0.0244
21337SOL    HW166018  11.146   2.063  10.792  0.1295 -0.5390  0.3319
21337SOL    HW266019  11.100   1.922  10.762 -2.8710  0.6442 -1.1459
21338SOL     OW66020   6.845   2.318   2.620 -0.9364  0.0300 -0.3469
21338SOL    HW166021   6.922   2.302   2.564 -1.5429 -0.0233 -1.1851
21338SOL    HW266022   6.867   2.398   2.668 -1.1945  1.2534 -2.1555
21339SOL     OW66023   5.021   5.173   2.474 -0.0440  0.5002  0.2485
21339SOL    HW166024   5.094   5.150   2.417 -1.2110 -0.7759 -0.7848
21339SOL    HW266025   5.056   5.161   2.563  1.1542  0.4421 -0.2151
21340SOL     OW66026   5.805   9.917   6.606 -0.1427  0.4225 -0.2204
21340SOL    HW166027   5.808   9.928   6.511  0.5079  0.8109 -0.1616
21340SOL    HW266028   5.886   9.957   6.637  1.5061 -2.8450  0.1810
21341SOL     OW66029   8.021   1.116   2.908 -0.7012  0.1013 -0.3593
21341SOL    HW166030   7.956   1.046   2.911 -2.1672  1.3571 -1.3529
21341SOL    HW266031   7.988   1.182   2.968  0.6749 -0.0265  0.5757
21342SOL     OW66032   5.733   4.135   2.291  0.0114  0.2629  0.3481
21342SOL    HW166033   5.733   4.227   2.317  0.4525  0.3081  0.1971
21342SOL    HW266034   5.695   4.135   2.203 -0.7583  0.1997  0.6722
21343SOL     OW66035   7.401   2.639  10.704  0.0359 -0.3977  0.0998
21343SOL    HW166036   7.426   2.577  10.772 -1.5345  1.3812  2.4572
21343SOL    HW266037   7.348   2.704  10.749 -0.7077  1.1651 -2.7766
21344SOL     OW66038   9.994   3.171   4.480  0.4042  0.4739  0.0310
21344SOL    HW166039   9.916   3.176   4.425 -1.2635 -0.4840  2.1649
21344SOL    HW266040  10.049   3.105   4.438  0.2128  1.3155 -1.6209
21345SOL     OW66041   2.417   9.478   3.967  0.1987 -0.0243  0.4388
21345SOL    HW166042   2.512   9.489   3.963  0.1603  0.3613  0.5636
21345SOL    HW266043   2.389   9.537   4.037 -0.3593  1.4133 -0.9296
21346SOL     OW66044   3.756   4.241  10.525  0.2033  0.4659 -0.0111
21346SOL    HW166045   3.759   4.336  10.518 -0.1928  0.6582  1.8036
21346SOL    HW266046   3.669   4.222  10.561  0.0938 -0.6336 -0.7775
21347SOL     OW66047  10.714   6.539  10.538  0.7221  0.2293 -0.2473
21347SOL    HW166048  10.686   6.593  10.463  2.5615 -2.3934 -3.0683
21347SOL    HW266049  10.637   6.487  10.560  0.1384  1.0734 -0.2251
21348SOL     OW66050   2.571   0.095   3.514 -0.9116  0.3543 -0.8080
21348SOL    HW166051   2.531   0.157   3.575 -0.3407 -0.4918  0.4929
21348SOL    HW266052   2.516   0.017   3.520 -0.6514  0.1442 -1.1257
21349SOL     OW66053   5.124   4.182  10.000  0.2962 -0.3309  0.0292
21349SOL    HW166054   5.131   4.097  10.044 -0.3512 -0.0857  0.6215
21349SOL    HW266055   5.082   4.163   9.917 -1.6223 -0.3529  0.9567
21350SOL     OW66056   8.884   7.028   8.379  0.1433  0.5939  0.0055
21350SOL    HW166057   8.816   7.066   8.323 -0.6289  0.9249  1.1439
21350SOL    HW266058   8.853   6.939   8.397  0.5355  0.3884 -0.3197
21351SOL     OW66059   6.565   5.457   1.429  0.0689  0.2144  0.7491
21351SOL    HW166060   6.646   5.462   1.479 -0.0653 -1.5287  1.2094
21351SOL    HW266061   6.572   5.528   1.365  2.3424 -0.4222  0.1986
21352SOL     OW66062   4.286   5.676   3.791 -0.1332 -0.5284 -0.2288
21352SOL    HW166063   4.331   5.712   3.715  1.7859 -1.1889  0.5289
21352SOL    HW266064   4.193   5.679   3.767  0.3729 -0.4095 -2.4463
21353SOL     OW66065  10.378   2.210   4.388 -0.5471 -0.0409 -0.1753
21353SOL    HW166066  10.348   2.128   4.350  0.2130 -0.4083 -0.0161
21353SOL    HW266067  10.298   2.259   4.407 -1.0995 -1.3901  1.1724
21354SOL     OW66068   1.046  10.201   9.920 -0.3028  0.4569 -0.0676
21354SOL    HW166069   1.069  10.126   9.975  1.3678  0.3380 -0.8600
21354SOL    HW266070   1.125  10.218   9.869 -0.9972  2.1087 -0.6574
21355SOL     OW66071  10.031   3.121   7.853  0.0887  0.8129 -0.2297
21355SOL    HW166072  10.042   3.079   7.938 -0.6757  1.1741  0.0576
21355SOL    HW266073  10.112   3.101   7.805  0.6259  0.8077  0.6613
21356SOL     OW66074   3.740   0.410   3.998  0.2306 -0.2057 -0.1102
21356SOL    HW166075   3.733   0.498   4.036  0.0340  0.7637 -2.2582
21356SOL    HW266076   3.738   0.425   3.904  1.7297 -2.4158 -0.5518
21357SOL     OW66077   6.317   0.370  10.829  0.3301  0.2912  0.1113
21357SOL    HW166078   6.406   0.350  10.858  1.2715  2.3707 -1.1628
21357SOL    HW266079   6.279   0.420  10.901  1.0984  1.5503 -0.3248
21358SOL     OW66080   4.302   6.427   7.829 -0.0489 -0.2791 -0.3440
21358SOL    HW166081   4.371   6.366   7.853  0.3185  0.3129  0.1465
21358SOL    HW266082   4.330   6.511   7.866 -2.0559 -0.4214  1.7918
21359SOL     OW66083   4.209   0.142   5.694 -0.6353 -0.1567 -0.8576
21359SOL    HW166084   4.208   0.237   5.686  3.2567  0.1363 -0.1216
21359SOL    HW266085   4.127   0.113   5.655 -2.6198  3.5265  0.1614
21360SOL     OW66086   2.065   6.359   1.949  0.1592 -0.1847 -0.4094
21360SOL    HW166087   2.145   6.317   1.982  2.1725  3.4820 -0.1017
21360SOL    HW266088   2.051   6.434   2.008 -2.0480  0.7388 -1.9746
21361SOL     OW66089   3.278   2.761   7.134 -0.6754  0.2269 -0.7514
21361SOL    HW166090   3.310   2.818   7.065 -0.6470 -0.0825 -0.9958
21361SOL    HW266091   3.189   2.792   7.153 -0.2822  1.0298 -0.1374
21362SOL     OW66092   5.040   7.651   9.551 -0.0676 -0.1388 -0.2605
21362SOL    HW166093   5.131   7.649   9.523  0.1043  0.1812  0.2819
21362SOL    HW266094   4.991   7.675   9.472  0.0034 -3.1062 -1.3370
21363SOL     OW66095   8.070   1.357   5.106  0.2405 -0.6736 -0.1222
21363SOL    HW166096   8.041   1.441   5.071  5.3757  0.7745 -1.7965
21363SOL    HW266097   8.083   1.374   5.200 -0.3394 -0.1740 -0.1213
21364SOL     OW66098   5.387  10.596   4.411 -0.8131  0.1881  0.0654
21364SOL    HW166099   5.368  10.634   4.497 -0.1425 -2.6230  1.5824
21364SOL    HW266100   5.383  10.670   4.351 -0.2236  2.5002  2.6450
21365SOL     OW66101   8.449   0.198   2.787  0.4163 -0.4652  0.3495
21365SOL    HW166102   8.365   0.184   2.830 -1.3280 -0.3668 -2.7148
21365SOL    HW266103   8.467   0.115   2.743  0.5207  0.3394 -1.1798
21366SOL     OW66104   3.975   1.255   5.356 -0.1805 -0.8377  0.2046
21366SOL    HW166105   4.022   1.324   5.310 -0.5627 -1.8147 -1.7322
21366SOL    HW266106   4.041   1.188   5.373  0.9760  1.0854  4.8604
21367SOL     OW66107   4.824   6.501   3.160  0.0672 -0.3383  0.5077
21367SOL    HW166108   4.805   6.567   3.094  1.5809 -2.0812 -1.8320
21367SOL    HW266109   4.874   6.547   3.227  0.8231  0.9686 -0.8981
21368SOL     OW66110   4.817   1.673   7.180 -0.1208  0.5835 -0.4266
21368SOL    HW166111   4.732   1.680   7.223  0.8886  2.5549  1.4693
21368SOL    HW266112   4.872   1.739   7.224  2.5180 -0.8867 -1.2575
21369SOL     OW66113   6.598   0.850   2.618  0.1656  0.8549  0.2688
21369SOL    HW166114   6.627   0.849   2.527  2.1443 -2.0511  0.7902
21369SOL    HW266115   6.520   0.795   2.619  0.0044  1.0848  0.2808
21370SOL     OW66116   0.333   7.932   8.401  0.5600 -0.1034  0.1111
21370SOL    HW166117   0.330   7.864   8.468  1.9754  1.5841  2.0200
21370SOL    HW266118   0.427   7.944   8.385  0.2697 -0.5162 -2.3333
21371SOL     OW66119  10.920   2.491   2.016 -0.2101 -0.3527 -0.4573
21371SOL    HW166120  10.957   2.497   1.928  1.0420 -0.6593  0.0239
21371SOL    HW266121  10.883   2.402   2.021  1.0237 -0.8697 -0.2057
21372SOL     OW66122   8.413   8.344   0.670 -0.9122  0.3867 -0.4050
21372SOL    HW166123   8.401   8.334   0.575  0.3293  1.2586 -0.6886
21372SOL    HW266124   8.503   8.313   0.686 -2.2688 -3.3267  1.1377
21373SOL     OW66125   1.879   8.653   1.251  0.6422 -0.2436 -0.2751
21373SOL    HW166126   1.881   8.612   1.164  1.0445  1.7692 -1.2871
21373SOL    HW266127   1.789   8.639   1.282 -0.3835  1.3025 -2.2651
21374SOL     OW66128   3.198  11.266   9.816  0.3356 -0.1551  0.4178
21374SOL    HW166129   3.207  11.318   9.736 -1.6081 -0.6148 -0.1432
21374SOL    HW266130   3.288  11.253   9.845  1.0033  1.7325 -0.5632
21375SOL     OW66131   3.527   4.809   7.427  0.2549  0.0603 -0.1781
21375SOL    HW166132   3.436   4.839   7.425  0.2489  0.0360 -0.3043
21375SOL    HW266133   3.577   4.886   7.456  0.5305  0.9660 -2.7673
21376SOL     OW66134   0.006   9.774   6.306 -0.2621  0.4171 -1.0941
21376SOL    HW166135  -0.056   9.767   6.234 -0.9251  0.7062 -0.5598
21376SOL    HW266136  -0.027   9.713   6.373 -1.0872  1.9783 -0.0235
21377SOL     OW66137   4.985   2.896   5.182  0.0131  0.3244 -0.0642
21377SOL    HW166138   4.899   2.867   5.213  0.5852 -0.1737  1.1232
21377SOL    HW266139   5.023   2.818   5.141  0.1070  0.4008 -0.1225
21378SOL     OW66140   2.350   6.557   3.457  0.9650 -0.4763 -0.3639
21378SOL    HW166141   2.312   6.638   3.492 -1.8476 -1.5056 -0.7575
21378SOL    HW266142   2.389   6.514   3.532 -1.0718 -0.5896  0.6942
21379SOL     OW66143   6.767   7.895   8.152 -0.5705  0.2006  0.4000
21379SOL    HW166144   6.805   7.832   8.213  0.8003  0.0772 -0.5289
21379SOL    HW266145   6.677   7.866   8.139  0.1855 -1.9015 -0.4235
21380SOL     OW66146  10.312   4.250  11.109  0.4356 -1.1684 -0.2219
21380SOL    HW166147  10.232   4.223  11.064 -0.3266 -1.4143  1.2240
21380SOL    HW266148  10.324   4.342  11.083 -0.7187 -0.9128  0.0768
21381SOL     OW66149   4.918   8.473   6.190  0.1112 -0.5807  0.1055
21381SOL    HW166150   4.883   8.387   6.168  1.7247 -2.2026  3.1226
21381SOL    HW266151   4.841   8.528   6.203 -0.9485 -1.4104 -2.1981
21382SOL     OW66152   8.911  10.466   4.661 -0.5790  0.0547  0.2866
21382SOL    HW166153   8.848  10.507   4.602 -0.4958  0.3228  0.3831
21382SOL    HW266154   8.878  10.377   4.673  0.6011 -0.7773 -1.9714
21383SOL     OW66155   0.869   1.123   7.594 -0.3825 -0.4298 -0.3644
21383SOL    HW166156   0.809   1.073   7.650 -0.0555 -0.7838 -0.3241
21383SOL    HW266157   0.867   1.212   7.630 -0.4311 -0.5779  0.0035
21384SOL     OW66158   3.355   8.436   9.755 -0.1888  0.0088 -0.1459
21384SOL    HW166159   3.269   8.412   9.720 -0.5092 -1.1629  1.3331
21384SOL    HW266160   3.393   8.494   9.689 -0.3184 -2.8098 -2.8910
21385SOL     OW66161   2.953   2.422   0.724  0.0205 -0.7864  0.0367
21385SOL    HW166162   2.918   2.415   0.635 -0.4734 -2.6644  0.3287
21385SOL    HW266163   2.877   2.409   0.781  0.7563 -2.5236  0.6914
21386SOL     OW66164   8.787   9.260  10.013  0.2890  0.1281 -0.2793
21386SOL    HW166165   8.705   9.283   9.970  0.8183  0.7001 -1.0158
21386SOL    HW266166   8.761   9.215  10.094 -0.7318 -0.0945 -0.7227
21387SOL     OW66167  10.717   7.253   0.682  0.1379  0.6633  0.9130
21387SOL    HW166168  10.657   7.288   0.615  0.6517  2.0488  1.1388
21387SOL    HW266169  10.668   7.182   0.723  0.0666 -0.7326 -1.3932
21388SOL     OW66170   8.923   9.173   4.974  0.0428 -0.0373  0.2017
21388SOL    HW166171   8.953   9.258   4.942  0.4632  0.3847  1.6532
21388SOL    HW266172   8.828   9.178   4.972  0.0655  0.4448  0.2104
21389SOL     OW66173   4.376   6.709   9.513 -0.1537  0.2919  0.2927
21389SOL    HW166174   4.375   6.656   9.432  2.6254  2.5772 -1.4086
21389SOL    HW266175   4.323   6.658   9.575 -1.8099 -1.9653 -2.6840
21390SOL     OW66176   6.794   0.068   3.815 -0.0011 -0.4935  0.7208
21390SOL    HW166177   6.768  -0.013   3.859  1.9524 -0.9941  1.0587
21390SOL    HW266178   6.886   0.055   3.794  0.2055  1.4265  0.2683
21391SOL     OW66179   3.075   4.088   3.276  0.0330  0.4689  0.3668
21391SOL    HW166180   3.082   4.008   3.224  0.6544 -1.5353  3.3040
21391SOL    HW266181   3.004   4.138   3.234  0.3972 -1.0223 -2.2352
21392SOL     OW66182   1.084  11.258   3.107 -0.2103 -0.0132  1.2552
21392SOL    HW166183   1.036  11.324   3.057 -0.2308 -0.5303  0.5802
21392SOL    HW266184   1.020  11.226   3.171 -0.8558 -0.8498  0.2215
21393SOL     OW66185   1.531  10.649   4.890 -0.2187 -0.1126  0.2339
21393SOL    HW166186   1.519  10.629   4.797  0.0234 -0.0778  0.1936
21393SOL    HW266187   1.449  10.622   4.931 -1.0120  1.4606 -0.2331
21394SOL     OW66188   2.310   7.009   7.247 -0.5371  0.2766  0.3038
21394SOL    HW166189   2.268   7.072   7.189 -0.3995  0.2062  0.1275
21394SOL    HW266190   2.271   7.026   7.333 -0.3397  0.7428  0.3008
21395SOL     OW66191   6.582   9.224   5.868 -0.6780  0.3010 -0.6240
21395SOL    HW166192   6.488   9.230   5.880 -0.9803 -0.4353 -2.3313
21395SOL    HW266193   6.606   9.138   5.902 -0.9598 -0.3006 -1.8726
21396SOL     OW66194   4.338   7.007   2.238 -0.1219 -0.1084  0.1926
21396SOL    HW166195   4.372   7.066   2.306 -0.4346  2.0659 -1.4088
21396SOL    HW266196   4.274   7.061   2.190 -0.1466 -1.6449 -1.6078
21397SOL     OW66197   9.825  10.569   5.285  0.2399  0.0478 -0.5730
21397SOL    HW166198   9.767  10.545   5.358  2.6925  1.4768  2.0181
21397SOL    HW266199   9.853  10.485   5.249 -2.6867 -0.6873 -1.4236
21398SOL     OW66200   9.676   0.828   3.389  0.2055 -0.6756  0.1200
21398SOL    HW166201   9.759   0.869   3.363  0.6069 -1.0584  0.7727
21398SOL    HW266202   9.672   0.842   3.483 -1.1911  0.6231 -0.0960
21399SOL     OW66203   8.392   7.046   0.020 -0.0180  0.7467  0.3945
21399SOL    HW166204   8.355   6.970  -0.023 -0.0431  2.1097 -2.1631
21399SOL    HW266205   8.319   7.083   0.070 -0.6076  0.3400 -0.1534
21400SOL     OW66206   2.639   8.410   4.566  0.1631 -0.3114 -0.0127
21400SOL    HW166207   2.552   8.436   4.595 -0.1422 -1.2870 -0.0022
21400SOL    HW266208   2.627   8.322   4.531  1.2875 -0.7867  0.7265
21401SOL     OW66209   9.585   8.974  11.142 -0.0479 -0.7495 -0.3304
21401SOL    HW166210   9.576   9.054  11.194 -0.6372 -0.7607 -0.3976
21401SOL    HW266211   9.621   8.909  11.202 -1.4963 -0.9999  0.3322
21402SOL     OW66212   7.537   5.723   2.917 -0.2445  0.9866 -0.0496
21402SOL    HW166213   7.570   5.673   2.992 -1.5816 -0.4757 -0.3781
21402SOL    HW266214   7.613   5.768   2.882  0.7661  0.2003  1.0634
21403SOL     OW66215   1.106   2.635   3.481 -0.5837  0.3246  0.7697
21403SOL    HW166216   1.145   2.719   3.459  1.7062 -0.7605  0.3524
21403SOL    HW266217   1.109   2.632   3.577  0.7708  0.1541  0.7554
21404SOL     OW66218   4.955   0.286   0.662 -0.1416  0.4219  0.8442
21404SOL    HW166219   4.892   0.314   0.728  0.7719  0.6391  1.6537
21404SOL    HW266220   5.040   0.311   0.698  0.5020 -0.8855  0.3121
21405SOL     OW66221  10.388   6.626   2.168  0.0612  0.6627  0.6932
21405SOL    HW166222  10.433   6.644   2.086  0.0518 -1.0477  0.2825
21405SOL    HW266223  10.438   6.555   2.209  0.8801  2.3806  2.8625
21406SOL     OW66224   6.464   4.022   6.131 -0.0189 -0.1983 -0.4972
21406SOL    HW166225   6.539   3.967   6.109  0.2186 -0.0358 -0.1118
21406SOL    HW266226   6.491   4.111   6.106 -0.1737 -0.1733 -0.5758
21407SOL     OW66227   1.144   3.461   6.449  0.1684  0.0343 -0.2840
21407SOL    HW166228   1.195   3.445   6.529 -0.5718  0.0348  0.1916
21407SOL    HW266229   1.057   3.487   6.480 -0.4155 -0.8969 -1.0917
21408SOL     OW66230   2.979   5.293   2.726 -0.2442 -0.4772 -0.3177
21408SOL    HW166231   3.026   5.352   2.668 -1.9312  0.1305 -1.1214
21408SOL    HW266232   2.901   5.341   2.752 -0.8780 -1.7622  0.2677
21409SOL     OW66233   4.381   5.277   2.253  0.3356  0.0904 -0.3636
21409SOL    HW166234   4.366   5.183   2.260  0.5845  0.0443 -0.4432
21409SOL    HW266235   4.309   5.316   2.303  1.1891 -0.1877  1.1704
21410SOL     OW66236   5.176   9.973   5.847 -0.0219 -0.5136  0.2738
21410SOL    HW166237   5.187  10.067   5.863 -2.3073 -0.3684  1.3504
21410SOL    HW266238   5.263   9.944   5.818  1.1478  1.6278  1.3495
21411SOL     OW66239   8.381   7.769   6.663 -0.4389 -0.1416 -0.1085
21411SOL    HW166240   8.431   7.836   6.710 -3.3013  0.8096  1.8281
21411SOL    HW266241   8.304   7.815   6.630 -0.3796 -1.6397 -2.5748
21412SOL     OW66242   6.363   7.986   2.210 -0.8313 -0.8369  0.1440
21412SOL    HW166243   6.327   7.935   2.138 -2.5194 -2.5724  2.0896
21412SOL    HW266244   6.342   7.936   2.289 -0.4342  1.6896  2.0101
21413SOL     OW66245   9.875   5.939   6.527  0.1339  0.3438 -0.1225
21413SOL    HW166246   9.923   5.967   6.605  1.0618 -0.2798 -0.4517
21413SOL    HW266247   9.784   5.937   6.555 -0.2088  4.5391 -0.2887
21414SOL     OW66248  10.703   4.913   5.526 -0.0312 -0.1468 -0.4098
21414SOL    HW166249  10.770   4.852   5.494 -0.2276 -0.8686  0.5051
21414SOL    HW266250  10.633   4.909   5.461 -0.1046 -1.0141 -0.2847
21415SOL     OW66251   1.858   9.471   0.896  0.1491  0.2667 -0.6805
21415SOL    HW166252   1.816   9.393   0.859 -0.3617 -0.4253  1.2534
21415SOL    HW266253   1.829   9.473   0.987  3.5364  0.3371  0.5212
21416SOL     OW66254   9.394  10.760   1.592 -0.4146 -0.5869 -0.5997
21416SOL    HW166255   9.423  10.753   1.683 -1.4119 -0.7362 -0.2779
21416SOL    HW266256   9.471  10.736   1.541  1.1688  2.5529  0.0512
21417SOL     OW66257   9.051   5.024   8.041 -0.2396  0.1853 -0.0587
21417SOL    HW166258   9.032   5.118   8.045 -2.7817 -0.3144  1.3051
21417SOL    HW266259   8.990   4.984   8.103  2.5216 -2.1678  1.3731
21418SOL     OW66260   4.387   9.707   5.529  0.3378  0.2478 -0.4291
21418SOL    HW166261   4.460   9.763   5.555  1.4776 -0.4002 -2.0687
21418SOL    HW266262   4.428   9.632   5.486 -1.2028 -1.2461  0.5651
21419SOL     OW66263   6.849   2.447   9.987 -0.6174 -0.0461 -0.1751
21419SOL    HW166264   6.855   2.427   9.893  0.3879 -1.3632  0.1486
21419SOL    HW266265   6.781   2.388  10.020  0.4437 -1.0566  0.2752
21420SOL     OW66266   3.450  10.918   8.411 -0.2498  0.4757 -0.1370
21420SOL    HW166267   3.436  10.924   8.317  1.3232  3.0822 -0.2961
21420SOL    HW266268   3.364  10.893   8.447 -1.0821  0.2606 -2.1651
21421SOL     OW66269   8.541   1.642   8.870 -0.1117 -0.4967 -0.2510
21421SOL    HW166270   8.594   1.626   8.948  1.1010 -1.6623 -1.2606
21421SOL    HW266271   8.574   1.726   8.836  1.6654 -1.5145 -1.2358
21422SOL     OW66272   6.664   6.462   4.375  0.1288 -0.1673  0.5999
21422SOL    HW166273   6.677   6.369   4.354  0.4768 -0.3125  1.3896
21422SOL    HW266274   6.748   6.489   4.413  0.1674  0.5859 -0.0076
21423SOL     OW66275   7.114   1.360   2.487  0.1704  0.1609 -0.6652
21423SOL    HW166276   7.188   1.334   2.432 -1.3870 -0.4058 -2.6270
21423SOL    HW266277   7.103   1.287   2.547  1.0028  0.1025 -0.5753
21424SOL     OW66278   4.774   4.289   6.598  0.2184  0.4493 -0.4231
21424SOL    HW166279   4.764   4.248   6.513 -0.8164  0.1594 -0.1820
21424SOL    HW266280   4.688   4.327   6.616 -0.3890 -1.6528  1.5826
21425SOL     OW66281   8.792   3.394  10.426  0.3919 -0.0049 -0.1685
21425SOL    HW166282   8.698   3.407  10.414  0.4168  2.8563  1.7548
21425SOL    HW266283   8.799   3.347  10.510  0.6680  0.6453  0.1810
21426SOL     OW66284   2.239   2.921   9.849  0.0583  0.7759  0.5921
21426SOL    HW166285   2.227   2.860   9.921  3.4432  1.8926  2.3510
21426SOL    HW266286   2.276   2.869   9.779 -1.5695  0.0075  0.2663
21427SOL     OW66287   2.692   6.996   7.150  0.2598 -0.1624 -0.2228
21427SOL    HW166288   2.756   6.977   7.218  0.3232  2.3655  0.5214
21427SOL    HW266289   2.628   7.052   7.193 -0.6516  0.0587 -1.8111
21428SOL     OW66290   9.758   9.078   4.126  0.8381 -0.4673  0.2339
21428SOL    HW166291   9.799   8.999   4.092  1.1628  0.0663 -0.6648
21428SOL    HW266292   9.665   9.068   4.104  0.8803 -0.5935  0.1089
21429SOL     OW66293   5.322   7.695   4.312 -0.1495  0.8956 -0.5401
21429SOL    HW166294   5.269   7.639   4.368  2.0758 -1.9075 -1.0257
21429SOL    HW266295   5.365   7.756   4.372  1.3929 -1.3774  0.8218
21430SOL     OW66296   8.777   7.138   0.758 -0.2729 -0.0930  0.0984
21430SOL    HW166297   8.808   7.048   0.753 -0.9785 -0.4989  2.1042
21430SOL    HW266298   8.744   7.157   0.670 -0.5395 -1.9514 -0.2458
21431SOL     OW66299   2.161   0.246  10.516  0.5114  0.2775  0.1393
21431SOL    HW166300   2.209   0.284  10.443  0.1949 -0.4670 -0.4721
21431SOL    HW266301   2.095   0.190  10.475  0.6402 -0.5275  1.0090
21432SOL     OW66302   5.834   8.383   5.310  0.1237  0.4059  0.4325
21432SOL    HW166303   5.805   8.335   5.233 -0.9474  1.9481 -0.1519
21432SOL    HW266304   5.930   8.380   5.305  0.0677 -0.2539 -0.4661
21433SOL     OW66305   9.676   7.389   7.043 -0.0485  0.0670 -0.9790
21433SOL    HW166306   9.703   7.300   7.064  1.3185  0.5674 -0.4873
21433SOL    HW266307   9.582   7.391   7.061  0.1441 -0.9097  0.2555
21434SOL     OW66308  11.095   7.467   4.486  0.2867 -0.1997 -0.0488
21434SOL    HW166309  11.175   7.463   4.433 -0.1653 -1.8012 -0.6940
21434SOL    HW266310  11.056   7.551   4.464  1.7160  0.5680  0.1937
21435SOL     OW66311   3.414   1.347   1.258 -0.0577 -0.3216 -0.3018
21435SOL    HW166312   3.456   1.385   1.335  0.9683  0.0033 -1.0018
21435SOL    HW266313   3.371   1.422   1.216 -0.3740 -0.4471 -0.2038
21436SOL     OW66314   1.017   4.585   9.777 -0.6361 -0.1595  0.3145
21436SOL    HW166315   1.105   4.555   9.802  0.3876  1.1576 -1.5334
21436SOL    HW266316   0.973   4.506   9.746 -0.3348 -0.9396  1.7620
21437SOL     OW66317   8.364   0.577   0.417 -0.1253 -0.0196  0.0994
21437SOL    HW166318   8.406   0.620   0.492  0.5021 -2.1325  1.0633
21437SOL    HW266319   8.430   0.579   0.348  0.5076 -0.8016  0.6646
21438SOL     OW66320   0.653   4.336   6.638 -0.8299  0.4773 -0.6198
21438SOL    HW166321   0.592   4.285   6.690 -0.6012 -0.0383 -0.8498
21438SOL    HW266322   0.712   4.271   6.600 -0.7080  0.8853 -1.1425
21439SOL     OW66323   7.817  10.409   5.692 -0.0009 -0.4460  0.3003
21439SOL    HW166324   7.736  10.460   5.693  0.1899 -0.1219  2.5980
21439SOL    HW266325   7.887  10.473   5.683  0.0615 -0.7000 -1.3174
21440SOL     OW66326   7.029   5.388   0.972 -0.0286 -0.1383 -0.2772
21440SOL    HW166327   6.990   5.303   0.996  1.8112 -0.6138  1.2030
21440SOL    HW266328   7.121   5.368   0.956 -0.1146  1.1368 -2.7118
21441SOL     OW66329   8.088   0.835  10.671 -0.0442 -0.4314 -0.6430
21441SOL    HW166330   8.172   0.804  10.706  0.4064 -0.3037 -1.5793
21441SOL    HW266331   8.107   0.860  10.580 -1.0280 -0.1011 -0.7761
21442SOL     OW66332   1.612  11.278   1.012 -0.3245 -0.4378  0.2945
21442SOL    HW166333   1.556  11.352   0.986 -1.5813 -1.2863  0.4652
21442SOL    HW266334   1.696  11.318   1.034 -1.2490  1.0716  1.2773
21443SOL     OW66335   3.099   6.390   7.547 -0.2674 -0.0712  0.3802
21443SOL    HW166336   3.124   6.302   7.574  0.4757 -0.2926 -0.9201
21443SOL    HW266337   3.168   6.417   7.486 -0.6765  1.2668  0.4608
21444SOL     OW66338   1.700   5.650   2.410 -0.2484 -0.4124  0.2770
21444SOL    HW166339   1.758   5.635   2.484  0.5221  0.5160 -0.1264
21444SOL    HW266340   1.746   5.712   2.354 -0.8475 -1.0176 -0.9464
21445SOL     OW66341  10.119   0.612   2.826 -0.0394  0.5221 -0.1241
21445SOL    HW166342  10.049   0.678   2.819 -0.4566  0.3702  1.9504
21445SOL    HW266343  10.073   0.529   2.835  0.4809  0.0465 -1.5549
21446SOL     OW66344   7.556   2.433   2.202 -0.2672 -0.1679  0.0357
21446SOL    HW166345   7.496   2.465   2.135 -0.5225  1.0984  0.8262
21446SOL    HW266346   7.599   2.512   2.236  1.3888 -0.9805 -0.0557
21447SOL     OW66347   7.207   2.420   5.429  0.5079 -0.1307 -0.0518
21447SOL    HW166348   7.204   2.386   5.518  1.3935 -1.6293 -0.5624
21447SOL    HW266349   7.255   2.354   5.379 -0.6496  0.2851 -1.8260
21448SOL     OW66350   1.729   9.680   8.350 -0.1966  0.0856 -0.9240
21448SOL    HW166351   1.772   9.674   8.435  2.4011  0.3274 -2.1180
21448SOL    HW266352   1.755   9.600   8.304 -2.5206 -0.6117 -1.1364
21449SOL     OW66353   9.578   4.138   9.896 -0.1491  0.3571 -0.3606
21449SOL    HW166354   9.575   4.064   9.835  0.4717  0.0600 -0.0493
21449SOL    HW266355   9.517   4.114   9.965  0.4838 -0.1501  0.0361
21450SOL     OW66356   5.318   8.026   1.083  0.1023 -0.2775 -0.0684
21450SOL    HW166357   5.270   7.954   1.123 -0.6718 -0.1145 -0.6798
21450SOL    HW266358   5.410   8.010   1.106 -0.0802 -1.3500 -0.0490
21451SOL     OW66359   8.482  10.527   9.486 -0.4216  0.1250 -0.0558
21451SOL    HW166360   8.522  10.602   9.530 -0.5701  0.4849 -0.5289
21451SOL    HW266361   8.471  10.462   9.555  0.6481  0.1520  0.1544
21452SOL     OW66362   0.539  10.712   3.199  0.0240 -0.6941 -0.2005
21452SOL    HW166363   0.526  10.668   3.115 -1.4345 -1.2270  0.2600
21452SOL    HW266364   0.454  10.754   3.217  1.1788  1.9150 -0.3565
21453SOL     OW66365   6.151   7.770   8.653 -0.5998 -0.0979 -0.0081
21453SOL    HW166366   6.160   7.765   8.748  1.8914  0.1478 -0.1795
21453SOL    HW266367   6.123   7.860   8.636  0.6441  0.3982  0.4357
21454SOL     OW66368   3.004   8.399   3.572 -0.2269  0.2494  0.5895
21454SOL    HW166369   3.014   8.429   3.481  1.3282  0.1980  0.7106
21454SOL    HW266370   3.087   8.355   3.592 -0.3729  0.6365  2.1819
21455SOL     OW66371   3.483   7.602   1.296  0.1894 -0.5675 -0.0473
21455SOL    HW166372   3.449   7.569   1.379 -1.5147 -1.4171 -1.0260
21455SOL    HW266373   3.566   7.556   1.284 -0.3777 -1.7398  0.3849
21456SOL     OW66374   7.936   5.199   1.285 -0.2073  0.1753  0.4836
21456SOL    HW166375   7.933   5.121   1.341 -0.8109  0.7978  1.3448
21456SOL    HW266376   7.976   5.266   1.340 -1.2367  0.9251  0.3443
21457SOL     OW66377   1.687   3.302   1.251 -0.2242  0.4010 -0.0191
21457SOL    HW166378   1.688   3.391   1.215  0.0570  0.1642 -0.6165
21457SOL    HW266379   1.611   3.301   1.309 -0.4757  0.9087 -0.3217
21458SOL     OW66380   9.729   6.101   4.655  0.5415  0.1765  0.0096
21458SOL    HW166381   9.709   6.025   4.601  2.9142 -0.5965  0.1214
21458SOL    HW266382   9.741   6.066   4.743 -1.7876  1.2268  0.8350
21459SOL     OW66383   9.589   9.964   9.534  0.1798  0.1947  0.3394
21459SOL    HW166384   9.536   9.888   9.557  0.6842 -0.1851  0.2598
21459SOL    HW266385   9.680   9.933   9.540  0.3981  0.8275  0.4590
21460SOL     OW66386   4.429   1.124   6.499 -0.3308 -0.3014 -0.0764
21460SOL    HW166387   4.345   1.089   6.468 -0.3564  0.2040 -0.5948
21460SOL    HW266388   4.494   1.070   6.454 -0.3179  1.6318 -2.6494
21461SOL     OW66389   5.705   1.595   3.545 -0.2995 -0.5091  0.4196
21461SOL    HW166390   5.617   1.561   3.560  0.0499 -0.3440  3.4216
21461SOL    HW266391   5.762   1.520   3.559  0.1273 -0.1893  0.4203
21462SOL     OW66392   9.947   9.283   2.728 -0.1034 -0.5434 -0.3729
21462SOL    HW166393   9.922   9.338   2.653  0.5524  0.0692 -0.1513
21462SOL    HW266394   9.894   9.316   2.800  0.1743 -0.3049 -0.2771
21463SOL     OW66395   3.070   8.657   3.767  0.1035  0.0240  0.1946
21463SOL    HW166396   3.005   8.610   3.714  0.2877  0.0245 -0.0310
21463SOL    HW266397   3.123   8.588   3.806 -1.2045 -0.0738  1.9086
21464SOL     OW66398   9.601   2.904   7.469  0.2809 -0.0222  0.2840
21464SOL    HW166399   9.662   2.919   7.541 -0.9483 -0.7981  1.5313
21464SOL    HW266400   9.580   2.991   7.437 -0.9891  0.5709  2.4828
21465SOL     OW66401   7.264   9.293   8.211 -0.2298 -0.3550 -0.1953
21465SOL    HW166402   7.236   9.220   8.155 -0.9574 -0.6146  0.4917
21465SOL    HW266403   7.187   9.312   8.265  0.5682 -0.3150  0.9387
21466SOL     OW66404  10.267   0.167   7.943  0.2672 -0.1925  0.1686
21466SOL    HW166405  10.273   0.208   8.029  1.2289 -0.4314  0.2262
21466SOL    HW266406  10.300   0.078   7.956  1.1890  0.0207 -0.6085
21467SOL     OW66407  10.266   4.830   7.037  0.6511 -0.6548 -0.0597
21467SOL    HW166408  10.210   4.822   7.114 -1.4774 -1.3120 -1.5617
21467SOL    HW266409  10.257   4.746   6.992  0.3391  0.3151 -1.9350
21468SOL     OW66410   5.618   6.774   4.106 -0.0051 -0.4418 -0.3781
21468SOL    HW166411   5.680   6.702   4.098  0.0096 -0.6226  1.0330
21468SOL    HW266412   5.670   6.846   4.143 -0.6018 -0.6038  0.8460
21469SOL     OW66413   3.391   3.407  10.789 -0.5458  0.8118  0.1738
21469SOL    HW166414   3.480   3.372  10.790 -0.9509 -0.4434 -1.3977
21469SOL    HW266415   3.353   3.381  10.873  0.1573  0.1807  0.3028
21470SOL     OW66416   1.561   6.469   4.247 -0.9824 -0.4667  0.4836
21470SOL    HW166417   1.510   6.473   4.166 -1.1865  0.4697  0.6467
21470SOL    HW266418   1.520   6.399   4.297 -1.9299  0.0635  0.4782
21471SOL     OW66419   1.910   4.741   6.478  0.1877  0.3744 -0.3969
21471SOL    HW166420   1.913   4.670   6.414 -0.0002  0.8203 -0.9094
21471SOL    HW266421   1.890   4.819   6.426  0.7411  0.8632  0.1029
21472SOL     OW66422   9.372   9.064   6.468 -0.2074  0.0687  0.1919
21472SOL    HW166423   9.459   9.087   6.436 -1.0058  0.9868 -1.4954
21472SOL    HW266424   9.328   9.149   6.480 -1.0170 -0.3879  0.5206
21473SOL     OW66425   3.769   2.298  10.756 -0.0633  0.0383 -0.2251
21473SOL    HW166426   3.701   2.253  10.706 -0.6986  0.9852 -0.2523
21473SOL    HW266427   3.727   2.379  10.786  0.1723 -0.6659  2.1829
21474SOL     OW66428   6.150   3.342   8.362 -0.3325 -0.1520 -1.0291
21474SOL    HW166429   6.224   3.375   8.413 -1.5003  1.1297 -0.0991
21474SOL    HW266430   6.150   3.396   8.283 -0.6577  0.2778 -0.7348
21475SOL     OW66431   1.375   3.226   4.233 -0.1911  0.3276 -1.1497
21475SOL    HW166432   1.387   3.213   4.327  1.5511  0.3172 -1.3395
21475SOL    HW266433   1.311   3.159   4.208 -1.9262  1.3604  0.2527
21476SOL     OW66434   8.560   1.105   0.496 -0.2280  0.6112  0.1392
21476SOL    HW166435   8.616   1.124   0.571 -1.2351  1.3704  0.7290
21476SOL    HW266436   8.522   1.189   0.472  0.1917  0.4118 -1.3432
21477SOL     OW66437   5.349  10.543  10.219 -0.3522  0.5493 -0.0792
21477SOL    HW166438   5.284  10.612  10.226  0.9377  1.8852 -0.6906
21477SOL    HW266439   5.379  10.546  10.128  2.4187  1.8141  0.7628
21478SOL     OW66440   0.073   7.168   7.090 -0.2641 -0.0015 -0.7171
21478SOL    HW166441   0.167   7.184   7.097 -0.4691  0.8406  0.5280
21478SOL    HW266442   0.047   7.213   7.010  0.4422 -0.5639 -1.2830
21479SOL     OW66443   1.598   1.784   1.182 -0.1604 -0.4116  0.5545
21479SOL    HW166444   1.576   1.696   1.152  0.5945 -0.5546  0.3984
21479SOL    HW266445   1.692   1.792   1.166  0.2892 -0.4873  2.8492
21480SOL     OW66446   3.143   4.923   6.329 -0.0082  0.5597 -0.2317
21480SOL    HW166447   3.222   4.971   6.353  0.3329 -0.6480  1.1647
21480SOL    HW266448   3.081   4.942   6.400 -0.8737  1.1861 -1.1163
21481SOL     OW66449  11.002  10.106   6.092  0.5976  0.2269  0.4890
21481SOL    HW166450  10.930  10.044   6.101  0.5631  0.1278 -0.3475
21481SOL    HW266451  11.076  10.063   6.135  0.4579 -0.2047  0.3048
21482SOL     OW66452   9.874   9.931  10.949 -0.2955  0.2961 -0.2068
21482SOL    HW166453   9.780   9.948  10.950 -0.7313 -1.7095 -0.9450
21482SOL    HW266454   9.902   9.950  10.859  0.1641  1.4898  0.1684
21483SOL     OW66455   3.425  10.288  11.267  0.4048  0.2568 -0.3702
21483SOL    HW166456   3.357  10.350  11.294 -0.7677 -0.2864 -1.9198
21483SOL    HW266457   3.503  10.315  11.316  0.1044  3.2698 -1.3414
21484SOL     OW66458   6.149   2.934   9.643 -0.3632 -0.4011 -0.9214
21484SOL    HW166459   6.151   2.955   9.736  0.4761  1.6369 -1.3506
21484SOL    HW266460   6.111   2.846   9.639 -1.9237  0.0990  1.2173
21485SOL     OW66461   9.281   3.111   7.595  0.0299 -0.4517  0.0831
21485SOL    HW166462   9.260   3.020   7.575  2.4829 -0.8577 -1.0194
21485SOL    HW266463   9.243   3.126   7.682 -0.8415 -2.3495  0.0793
21486SOL     OW66464   6.291   3.382  10.433  0.3434 -0.1653 -0.3672
21486SOL    HW166465   6.368   3.364  10.379  0.5202  3.0533 -1.3518
21486SOL    HW266466   6.325   3.427  10.510 -0.5339  1.6025 -0.9742
21487SOL     OW66467   3.451   4.383   4.416 -0.0526  0.2355 -0.6173
21487SOL    HW166468   3.455   4.333   4.335 -0.1531 -0.3195 -0.2865
21487SOL    HW266469   3.535   4.366   4.459  0.1376  0.7983 -0.7582
21488SOL     OW66470   2.555   1.106  10.299 -0.3742 -0.5331 -0.6019
21488SOL    HW166471   2.551   1.163  10.376  4.4202 -1.1254  0.4126
21488SOL    HW266472   2.537   1.164  10.225  0.3270  1.4092  0.6741
21489SOL     OW66473   0.128   0.772   4.617  0.5732  0.0959 -0.0462
21489SOL    HW166474   0.214   0.802   4.590  0.2653 -0.1064 -1.2976
21489SOL    HW266475   0.066   0.822   4.564 -0.2140  1.7494  2.2719
21490SOL     OW66476   7.160   2.340   1.288  0.1891  0.7680 -0.6574
21490SOL    HW166477   7.118   2.305   1.210  0.7228 -2.9018  0.4956
21490SOL    HW266478   7.254   2.330   1.271  0.3984  2.0101 -0.3503
21491SOL     OW66479   7.362   4.484   6.286 -0.2950  0.4167  0.3748
21491SOL    HW166480   7.323   4.571   6.290  0.0402  0.5493  0.7856
21491SOL    HW266481   7.292   4.425   6.315 -0.2609  0.6342  0.9158
21492SOL     OW66482   8.881   7.593   6.609 -0.4249 -0.4883 -0.1065
21492SOL    HW166483   8.839   7.585   6.523  0.3419  1.0184 -0.6558
21492SOL    HW266484   8.848   7.518   6.658 -2.2572 -0.4265 -1.1295
21493SOL     OW66485  11.263   3.417   2.669 -0.5471 -0.3998  0.0012
21493SOL    HW166486  11.282   3.497   2.622 -1.7933 -0.1608 -0.1380
21493SOL    HW266487  11.344   3.366   2.664 -0.0328  0.4573 -0.6860
21494SOL     OW66488   8.226   7.838   5.277  0.0368  0.1968 -0.2046
21494SOL    HW166489   8.218   7.792   5.194 -0.6060  1.0597 -0.6341
21494SOL    HW266490   8.163   7.910   5.271  1.9262  1.9316 -0.0699
21495SOL     OW66491   9.072   6.839   4.153 -0.6614 -0.1385  0.7716
21495SOL    HW166492   9.120   6.759   4.177 -2.8104 -2.4301 -1.9065
21495SOL    HW266493   8.985   6.827   4.193 -0.9826  0.9371  0.4154
21496SOL     OW66494   7.173   1.709   4.218 -0.0401  0.2823 -0.0244
21496SOL    HW166495   7.119   1.708   4.139  0.6478 -0.4928 -0.4968
21496SOL    HW266496   7.245   1.649   4.199  2.0618  2.6713 -0.1547
21497SOL     OW66497   6.874   8.918   2.078  0.2914 -0.0183 -0.1692
21497SOL    HW166498   6.846   8.982   2.013  2.1170  1.9251  0.8461
21497SOL    HW266499   6.946   8.871   2.037 -1.0985 -1.5927 -0.9449
21498SOL     OW66500   3.000   7.205   4.227  0.0881 -0.3379  0.1430
21498SOL    HW166501   3.019   7.268   4.297 -0.3211  1.0698 -0.9835
21498SOL    HW266502   2.968   7.128   4.274  0.5021  0.3046  1.5584
21499SOL     OW66503   0.697   6.433   1.706 -0.1145 -1.0906  0.3918
21499SOL    HW166504   0.646   6.353   1.715  3.0053 -3.2459  0.4727
21499SOL    HW266505   0.734   6.448   1.793 -0.9227  0.7295  0.4773
21500SOL     OW66506   4.853   2.755   4.819  0.4579  0.3700  0.0158
21500SOL    HW166507   4.874   2.719   4.906  0.0886  0.9845  0.3652
21500SOL    HW266508   4.773   2.804   4.832 -0.7859 -1.2501 -1.1355
21501SOL     OW66509   8.057   9.284   6.202  0.0918 -0.0585  0.7141
21501SOL    HW166510   8.011   9.203   6.223 -5.0129  2.1787 -0.3795
21501SOL    HW266511   8.063   9.331   6.285 -1.9133  0.5469  0.5739
21502SOL     OW66512   3.273  10.364   7.305  0.6287  0.7910  0.1886
21502SOL    HW166513   3.247  10.451   7.336 -0.6997 -0.0126  1.4787
21502SOL    HW266514   3.233  10.357   7.218 -0.9021  0.7875  0.8552
21503SOL     OW66515   5.649   8.167   1.354 -0.0416 -0.0909  0.5887
21503SOL    HW166516   5.714   8.184   1.423  0.2417 -0.4588  0.4218
21503SOL    HW266517   5.597   8.247   1.349  1.2888  0.7650 -0.2364
21504SOL     OW66518   4.465   2.809   8.991  0.1188 -0.0633  0.1029
21504SOL    HW166519   4.386   2.863   8.997 -0.5514 -0.9917 -0.1824
21504SOL    HW266520   4.489   2.812   8.898  0.2808  0.0180  0.1468
21505SOL     OW66521   5.796   4.000   3.328 -0.4560 -0.7773 -0.3304
21505SOL    HW166522   5.873   3.944   3.321 -1.4510 -2.4084  0.7621
21505SOL    HW266523   5.830   4.089   3.338  1.1892 -1.1523 -2.1487
21506SOL     OW66524   3.151   4.469   0.403 -0.0092 -0.1840  0.5122
21506SOL    HW166525   3.230   4.498   0.449  0.0227  2.4900 -0.9860
21506SOL    HW266526   3.184   4.417   0.329  0.3533  0.4922  0.1849
21507SOL     OW66527   9.714   3.832   4.845 -0.3010 -0.0025  0.3801
21507SOL    HW166528   9.679   3.921   4.834  1.9764  1.1959  2.0477
21507SOL    HW266529   9.746   3.830   4.935 -0.6235 -2.7048  0.5169
21508SOL     OW66530   3.643  10.488  10.092  0.0638  0.4686  0.2016
21508SOL    HW166531   3.640  10.451  10.004  0.5800  0.6718  0.0940
21508SOL    HW266532   3.582  10.435  10.143 -0.4099  0.4986 -0.3322
21509SOL     OW66533   2.993   7.732   7.794  0.1784 -0.6542  0.0144
21509SOL    HW166534   2.908   7.725   7.750 -0.5864  2.6483  0.7193
21509SOL    HW266535   2.983   7.682   7.874 -1.7681  1.0259  0.9042
21510SOL     OW66536   0.289   2.487   8.385 -0.8550  0.3263 -0.7898
21510SOL    HW166537   0.296   2.507   8.292 -0.4341 -0.4822 -0.9458
21510SOL    HW266538   0.327   2.399   8.393 -1.9585 -0.0987 -0.0363
21511SOL     OW66539  10.910   5.111   0.170  0.0039 -0.3747 -0.3558
21511SOL    HW166540  10.903   5.179   0.104  2.6414 -0.0202 -0.3986
21511SOL    HW266541  10.912   5.029   0.120  0.9676 -0.1746 -0.6663
21512SOL     OW66542   2.035   0.621   0.841  0.3490  0.0989  0.2303
21512SOL    HW166543   1.945   0.633   0.809 -0.3400 -2.0299  1.2073
21512SOL    HW266544   2.082   0.583   0.768  0.4675  1.1553 -0.2625
21513SOL     OW66545   7.292   0.100   2.347  0.1717  0.2428  0.1759
21513SOL    HW166546   7.343   0.121   2.425  0.7084  0.7610 -0.3126
21513SOL    HW266547   7.322   0.013   2.321  1.0122  0.6711 -0.2824
21514SOL     OW66548   5.347   7.329   2.315  0.2114 -0.1643 -0.6715
21514SOL    HW166549   5.277   7.363   2.259  0.2879  0.1154 -0.5988
21514SOL    HW266550   5.381   7.253   2.267 -0.1901 -0.3470 -0.6693
21515SOL     OW66551  10.385   8.153   6.058  0.0974  0.1545 -0.3493
21515SOL    HW166552  10.446   8.135   5.987  2.0773  0.2362  1.2360
21515SOL    HW266553  10.368   8.067   6.098 -1.7328 -0.0266 -1.4082
21516SOL     OW66554   4.958  10.404  10.393 -0.4645 -0.6535  0.7363
21516SOL    HW166555   5.036  10.391  10.447  0.0189  0.2826  0.2854
21516SOL    HW266556   4.991  10.409  10.304 -1.0725 -0.4926  0.5148
21517SOL     OW66557   8.928   0.804   4.978  0.2724 -0.1248 -0.4462
21517SOL    HW166558   8.852   0.833   5.029  0.3610 -0.2692 -0.2287
21517SOL    HW266559   9.002   0.845   5.022  0.3643 -0.3811 -0.3604
21518SOL     OW66560   5.768   9.767   1.399 -0.3420 -0.4514  0.0280
21518SOL    HW166561   5.676   9.785   1.379 -0.0159  0.9211 -0.2941
21518SOL    HW266562   5.765   9.690   1.457 -1.7861  0.3817  1.1273
21519SOL     OW66563   0.431   1.826   5.176  0.8064  0.0063 -0.2951
21519SOL    HW166564   0.385   1.780   5.246  2.2724 -1.2854 -0.1157
21519SOL    HW266565   0.470   1.902   5.219  0.8586 -0.2293  0.0775
21520SOL     OW66566   2.557  10.613   2.602  0.5597 -0.3357  0.0500
21520SOL    HW166567   2.628  10.666   2.637  1.0871  0.0481 -1.4984
21520SOL    HW266568   2.553  10.636   2.509 -2.1336  0.2659  0.2217
21521SOL     OW66569  10.634   4.412   8.105 -0.1962 -0.2301 -0.2118
21521SOL    HW166570  10.558   4.471   8.104 -0.8091 -1.0162 -0.6102
21521SOL    HW266571  10.678   4.427   8.022  1.1576  1.5530  0.7467
21522SOL     OW66572   8.927   0.297   3.610  0.3257  0.0680 -0.0879
21522SOL    HW166573   9.003   0.246   3.636  0.0979 -1.5517 -2.2896
21522SOL    HW266574   8.855   0.233   3.609  0.1500  0.1421 -3.5177
21523SOL     OW66575   0.016  11.151   5.972 -0.0472  0.2866 -0.0241
21523SOL    HW166576   0.099  11.110   5.947 -0.5242 -0.1130 -1.0377
21523SOL    HW266577   0.039  11.215   6.039  0.7158 -1.8498  1.9076
21524SOL     OW66578   6.906   2.653   2.175 -0.5558  0.5959 -0.5478
21524SOL    HW166579   6.875   2.652   2.084 -0.2111 -1.1829 -0.6889
21524SOL    HW266580   6.935   2.743   2.189  1.3680  0.4703 -2.9130
21525SOL     OW66581   7.579   3.300   7.367 -0.5583 -0.1656 -0.9859
21525SOL    HW166582   7.519   3.229   7.345  0.6764 -1.3655 -0.6061
21525SOL    HW266583   7.570   3.310   7.462 -0.1910 -0.3240 -0.9340
21526SOL     OW66584   0.119   6.170   5.127  0.6595 -0.4070 -0.7827
21526SOL    HW166585   0.207   6.190   5.096  1.8892 -0.8785  2.1203
21526SOL    HW266586   0.098   6.241   5.188 -1.5468  0.3697 -2.3287
21527SOL     OW66587   7.164   2.517   2.174 -0.1734 -0.8844  0.6043
21527SOL    HW166588   7.138   2.602   2.209 -0.1313 -0.6295  0.0262
21527SOL    HW266589   7.120   2.511   2.089  0.4407 -1.0917  0.2885
21528SOL     OW66590   0.669   5.491   3.036  0.4715 -0.0075  0.7673
21528SOL    HW166591   0.684   5.573   3.083 -1.1392  1.3511 -0.9206
21528SOL    HW266592   0.753   5.444   3.041  1.0179  1.1011  2.9273
21529SOL     OW66593   1.713   0.056   9.882 -0.5826 -0.8390 -0.1368
21529SOL    HW166594   1.795   0.006   9.888 -0.6741 -0.8122  2.7872
21529SOL    HW266595   1.740   0.147   9.886 -0.6918 -0.8008 -0.2778
21530SOL     OW66596   3.761   1.300   5.535 -0.2388 -0.3562  0.9475
21530SOL    HW166597   3.830   1.274   5.474  0.7593  0.3512  1.7222
21530SOL    HW266598   3.681   1.303   5.483  0.6478  0.6071 -0.4260
21531SOL     OW66599  10.044  11.193   2.730 -0.3491 -0.0709 -0.1094
21531SOL    HW166600  10.033  11.287   2.741 -1.1664 -0.3580  2.2488
21531SOL    HW266601  10.118  11.171   2.787 -0.1985 -0.8539 -0.5968
21532SOL     OW66602   6.519   7.810   8.156 -0.5400  0.1125 -0.3515
21532SOL    HW166603   6.451   7.870   8.189 -1.3549 -1.3708  0.7971
21532SOL    HW266604   6.485   7.723   8.175  0.9015 -0.7131 -1.4102
21533SOL     OW66605   3.830  10.691   2.096  0.0326 -0.3559 -0.3441
21533SOL    HW166606   3.860  10.653   2.013  0.5520 -0.3705 -0.1565
21533SOL    HW266607   3.906  10.683   2.155  1.3958  3.8065 -1.1809
21534SOL     OW66608   4.667   4.336  10.973 -0.0813 -0.0524 -0.1638
21534SOL    HW166609   4.606   4.274  10.933  0.2559  0.2588 -1.1783
21534SOL    HW266610   4.620   4.419  10.976  0.2389  0.1588 -0.8336
21535SOL     OW66611  10.567   5.811   0.566  0.2707  0.4031 -1.2899
21535SOL    HW166612  10.525   5.892   0.539  0.9645  1.4791  0.6814
21535SOL    HW266613  10.514   5.780   0.639  1.1342  0.1296 -0.7711
21536SOL     OW66614   9.124   6.736   8.946  0.5281  0.4663 -0.6276
21536SOL    HW166615   9.207   6.781   8.964  0.7324  0.6426 -1.8982
21536SOL    HW266616   9.092   6.710   9.032  2.7734 -1.1976 -0.1818
21537SOL     OW66617   1.188   9.942   1.143  0.5090 -0.4762  0.0003
21537SOL    HW166618   1.178   9.848   1.154 -0.7633 -0.2591  1.0358
21537SOL    HW266619   1.275   9.953   1.106  0.7907 -2.0382  0.1239
21538SOL     OW66620   2.616  10.289   2.462 -0.6663  0.2620 -0.4052
21538SOL    HW166621   2.691  10.339   2.495 -0.4937  0.4535 -1.0741
21538SOL    HW266622   2.539  10.337   2.495 -0.5054  1.0825 -1.1898
21539SOL     OW66623   8.668  10.297   9.890 -0.0148 -0.8719 -0.6474
21539SOL    HW166624   8.715  10.283   9.972  1.9612 -0.2795 -1.6318
21539SOL    HW266625   8.662  10.210   9.851 -0.7219 -1.1125 -0.0415
21540SOL     OW66626   8.733   8.280   1.060  0.0407  0.5029 -0.0534
21540SOL    HW166627   8.678   8.236   1.124  1.2964 -0.6563  0.2788
21540SOL    HW266628   8.686   8.360   1.038 -1.3444 -0.0379  0.8424
21541SOL     OW66629   8.043   4.752   6.435 -0.2062 -0.2867 -0.1339
21541SOL    HW166630   8.093   4.741   6.516  1.3596 -1.5134 -1.2053
21541SOL    HW266631   7.963   4.701   6.448  0.5470 -1.3951  0.2394
21542SOL     OW66632   6.898  11.196   1.820 -0.1073 -0.3763  0.4273
21542SOL    HW166633   6.923  11.288   1.822  0.6389 -0.5445 -0.5406
21542SOL    HW266634   6.960  11.153   1.880  1.5294 -0.6718 -1.3706
21543SOL     OW66635   0.136  10.454   7.404 -0.5696  1.4130  0.7227
21543SOL    HW166636   0.084  10.393   7.352 -1.1772  1.6340  1.0553
21543SOL    HW266637   0.217  10.465   7.355 -1.5940  2.5186 -0.8025
21544SOL     OW66638   2.246   1.105   8.997  0.4169 -0.1093  0.5863
21544SOL    HW166639   2.174   1.091   9.058 -0.3824 -2.9695 -0.8325
21544SOL    HW266640   2.208   1.160   8.928 -0.3762 -1.3327  0.0081
21545SOL     OW66641  10.463   6.022   9.260  0.3219  0.2992 -0.0928
21545SOL    HW166642  10.497   6.020   9.170  1.5963 -1.8321  0.3513
21545SOL    HW266643  10.541   6.013   9.315 -0.4385  1.5341  1.2639
21546SOL     OW66644  10.244   0.785   0.754  0.2554  0.7630  0.0158
21546SOL    HW166645  10.266   0.697   0.721  1.3243  1.5220 -1.3844
21546SOL    HW266646  10.313   0.841   0.720 -0.0474  2.0597  1.4572
21547SOL     OW66647  11.047   0.049   7.616 -0.3918 -0.0849  0.3898
21547SOL    HW166648  11.041  -0.009   7.541  1.9499 -0.1203  0.1600
21547SOL    HW266649  11.008  -0.001   7.688 -0.3379 -1.0809 -0.2496
21548SOL     OW66650   0.800  11.253   6.033  0.2129 -0.5961  0.0916
21548SOL    HW166651   0.739  11.216   5.970  0.9362 -2.1120  0.2408
21548SOL    HW266652   0.874  11.192   6.034 -0.0056 -0.9693  2.8134
21549SOL     OW66653   0.487   0.704  11.127  0.0091 -0.5529  0.3295
21549SOL    HW166654   0.567   0.663  11.094  0.4712  1.3463 -1.0742
21549SOL    HW266655   0.419   0.637  11.114  0.7953 -1.0617 -1.5274
21550SOL     OW66656   2.242   4.692   3.038 -0.3061 -0.9040  0.0519
21550SOL    HW166657   2.308   4.624   3.031  1.5771  0.9377 -1.3780
21550SOL    HW266658   2.178   4.671   2.970  0.2835 -1.2435 -0.4061
21551SOL     OW66659  10.547   1.424   9.231  0.0715  0.1822  0.7011
21551SOL    HW166660  10.510   1.450   9.315 -0.5196  1.6250  0.0231
21551SOL    HW266661  10.624   1.480   9.219  0.2196 -0.0901  0.3266
21552SOL     OW66662   5.754   9.782   2.618 -0.3034 -0.3017 -0.5539
21552SOL    HW166663   5.715   9.792   2.705 -1.3438 -1.2929 -0.8817
21552SOL    HW266664   5.681   9.794   2.558  0.4553  0.6078 -1.3146
21553SOL     OW66665   9.722   2.581   2.921 -0.0685  0.0422 -0.2370
21553SOL    HW166666   9.636   2.622   2.927 -0.8085 -1.2522 -1.3340
21553SOL    HW266667   9.771   2.637   2.861 -0.1810  0.7033  0.2729
21554SOL     OW66668   4.453   0.869   3.993  0.2556  0.2854 -0.4424
21554SOL    HW166669   4.467   0.793   3.936 -1.7337 -1.2062  0.9167
21554SOL    HW266670   4.439   0.942   3.932  0.7676 -0.7062 -1.8194
21555SOL     OW66671   2.783   8.621   7.935 -0.4657 -0.3294 -0.0637
21555SOL    HW166672   2.811   8.648   7.848  0.5444 -0.0916  0.3227
21555SOL    HW266673   2.824   8.685   7.994  0.6044 -1.7239  0.7523
21556SOL     OW66674   4.597   5.872   7.052 -0.0957  0.6840 -0.1166
21556SOL    HW166675   4.505   5.846   7.063 -0.2127  1.1479  0.0146
21556SOL    HW266676   4.618   5.848   6.961  0.2525 -1.2531  0.4256
21557SOL     OW66677   0.434  10.430   3.143 -0.4310 -0.0376 -0.1414
21557SOL    HW166678   0.458  10.338   3.148 -1.3480 -0.2551  0.5745
21557SOL    HW266679   0.367  10.434   3.075  0.4530  0.3175 -1.0275
21558SOL     OW66680  10.092  10.095   9.763  0.3418  0.3592  0.0886
21558SOL    HW166681  10.078  10.188   9.779  1.1508  0.8085 -1.5840
21558SOL    HW266682  10.185  10.088   9.743  0.8599 -1.2195  2.5623
21559SOL     OW66683   8.964   0.410   2.843 -0.4863  0.1350 -0.0107
21559SOL    HW166684   8.979   0.446   2.930  1.1019 -1.8922  0.6215
21559SOL    HW266685   8.869   0.404   2.835 -0.6512 -1.8125  2.5616
21560SOL     OW66686  10.699   9.371   0.194 -0.0776  0.3213  0.1886
21560SOL    HW166687  10.761   9.318   0.243  1.7727  1.4937 -0.7843
21560SOL    HW266688  10.729   9.461   0.207 -0.9800  0.8462 -1.1331
21561SOL     OW66689   8.665  11.211   4.162  0.3005 -0.7461 -0.7197
21561SOL    HW166690   8.656  11.279   4.229  3.0426 -0.3997 -0.5933
21561SOL    HW266691   8.578  11.205   4.123 -0.6268  1.1558  0.8519
21562SOL     OW66692   7.729   6.080   4.806  0.0381  0.5135 -0.3673
21562SOL    HW166693   7.751   6.069   4.714  1.2009 -0.0316 -0.0340
21562SOL    HW266694   7.644   6.036   4.815 -0.3562  1.0683 -1.2893
21563SOL     OW66695  10.076   8.654   9.443 -0.0437 -0.0935  0.4149
21563SOL    HW166696  10.069   8.611   9.528  1.1189 -2.3106 -0.5175
21563SOL    HW266697  10.160   8.700   9.447  0.3200 -0.7227  0.2901
21564SOL     OW66698   6.683   8.792   1.734 -0.0288 -0.4928 -0.2056
21564SOL    HW166699   6.709   8.743   1.656  1.1703 -2.7278  1.5019
21564SOL    HW266700   6.690   8.730   1.805 -4.9635  0.2180  1.3019
21565SOL     OW66701   1.918   9.318  11.107  0.1883  0.4747  0.4933
21565SOL    HW166702   1.892   9.326  11.199  0.5975  2.0953  0.4998
21565SOL    HW266703   1.954   9.230  11.100 -0.2780  0.1567  1.7702
21566SOL     OW66704   5.383   3.416  10.462 -0.3393  0.3314 -0.2493
21566SOL    HW166705   5.470   3.376  10.460 -0.5142 -0.0642 -0.0218
21566SOL    HW266706   5.358   3.414  10.554 -0.1459  1.4241 -0.1492
21567SOL     OW66707   9.245   9.158   2.760  0.6337 -0.5357 -0.1915
21567SOL    HW166708   9.248   9.062   2.762  0.8807 -0.5173  0.6524
21567SOL    HW266709   9.258   9.184   2.851  0.3624  0.2966 -0.3871
21568SOL     OW66710   3.226   9.978   0.017  0.3269 -1.1256  0.2280
21568SOL    HW166711   3.150   9.930   0.048 -1.0621 -0.5411 -2.0499
21568SOL    HW266712   3.190  10.052  -0.032  2.3898  0.4599  0.9428
21569SOL     OW66713   7.175   9.359   6.674  0.2141 -0.0144  0.3050
21569SOL    HW166714   7.136   9.444   6.653 -1.4153 -0.5354  1.0146
21569SOL    HW266715   7.109   9.295   6.646 -0.0417 -0.9013  2.7035
21570SOL     OW66716   1.983  10.727   0.292  0.6883 -0.7362  0.0335
21570SOL    HW166717   2.075  10.724   0.319  1.3270 -0.4751 -1.9616
21570SOL    HW266718   1.958  10.818   0.304  1.7248 -0.0422 -2.4006
21571SOL     OW66719  10.236  11.108  10.659  0.0514  0.3932  0.8528
21571SOL    HW166720  10.268  11.136  10.744 -2.1211  0.2372  1.7861
21571SOL    HW266721  10.309  11.061  10.619  1.4135  1.3045  2.2172
21572SOL     OW66722   3.455   3.174   0.102  0.4229  0.8767 -0.5242
21572SOL    HW166723   3.380   3.189   0.159 -0.3468  0.3389 -1.3609
21572SOL    HW266724   3.497   3.095   0.136 -0.7241 -0.1305 -1.3626
21573SOL     OW66725   0.089   3.459  11.249  0.0362 -0.0640  0.0469
21573SOL    HW166726   0.073   3.365  11.263 -0.5969 -0.3263 -2.0127
21573SOL    HW266727   0.030   3.503  11.310 -0.7357 -1.0378  0.0266
21574SOL     OW66728   4.471   8.619   0.126 -0.1569  0.0311 -0.4847
21574SOL    HW166729   4.389   8.644   0.082 -0.8617 -1.0324  0.1712
21574SOL    HW266730   4.482   8.685   0.195  0.0414  0.7129 -1.1581
21575SOL     OW66731   2.803   7.070   8.693 -0.1837  0.4645  0.7588
21575SOL    HW166732   2.841   7.003   8.750  1.5553  1.0683  0.3819
21575SOL    HW266733   2.859   7.068   8.615 -1.3854  0.9287 -0.1368
21576SOL     OW66734   9.216   2.281   8.022 -0.3314  0.0901 -0.3860
21576SOL    HW166735   9.208   2.272   8.117 -2.1803  0.9244 -0.4251
21576SOL    HW266736   9.168   2.360   8.001  2.6988  1.7590 -1.7144
21577SOL     OW66737   5.757   1.055   5.840  0.7703 -0.3248 -0.3026
21577SOL    HW166738   5.772   1.120   5.909  0.8148 -1.0387  0.3697
21577SOL    HW266739   5.668   1.024   5.855  0.4134  0.2333 -1.1878
21578SOL     OW66740   2.478   2.875  11.015  0.3868 -0.0950 -0.3594
21578SOL    HW166741   2.428   2.932  11.073  1.2126 -0.2488  0.5270
21578SOL    HW266742   2.514   2.933  10.949 -0.5008  0.0917 -0.7001
21579SOL     OW66743   4.474   6.496   7.328  0.3319 -0.0299  0.4356
21579SOL    HW166744   4.484   6.455   7.414 -0.2371  1.3267  1.1782
21579SOL    HW266745   4.514   6.582   7.338 -0.6841  0.5539 -0.3327
21580SOL     OW66746   2.651   9.406  10.476  0.9739 -0.1450  0.4414
21580SOL    HW166747   2.595   9.328  10.482  1.8341 -0.9108 -0.8879
21580SOL    HW266748   2.629   9.457  10.553 -1.0711 -0.7458  0.3260
21581SOL     OW66749   0.486   6.645   6.960  0.0645 -0.3128 -0.0532
21581SOL    HW166750   0.501   6.730   7.002  1.9398  1.1467 -3.2881
21581SOL    HW266751   0.551   6.587   6.999  0.3634  0.3879  0.5203
21582SOL     OW66752   4.850   1.886   8.795 -0.3214 -0.1332 -0.1928
21582SOL    HW166753   4.814   1.798   8.810 -1.6471  0.4321  0.0888
21582SOL    HW266754   4.894   1.909   8.876 -0.8351 -0.1482  0.0928
21583SOL     OW66755   6.875   2.139  10.520  0.3085  0.5529  0.5659
21583SOL    HW166756   6.857   2.068  10.458 -3.0166  1.1586  0.6421
21583SOL    HW266757   6.834   2.110  10.601 -2.1778  2.8956  0.2982
21584SOL     OW66758   2.687   5.087  10.508 -0.0159  0.7049 -0.5027
21584SOL    HW166759   2.593   5.079  10.528 -0.2753 -0.8546 -2.0647
21584SOL    HW266760   2.693   5.065  10.415  2.0270 -0.1655 -0.2080
21585SOL     OW66761   4.650   3.212   5.931 -0.6780 -0.0849  0.1450
21585SOL    HW166762   4.566   3.257   5.925  1.4213  4.6838  1.1437
21585SOL    HW266763   4.703   3.251   5.861  1.2391 -1.5641  0.6745
21586SOL     OW66764   9.375   7.673  11.267 -0.4048  0.3414  0.4083
21586SOL    HW166765   9.316   7.600  11.285 -0.9905  1.1910  2.1431
21586SOL    HW266766   9.383   7.719  11.351 -1.7456  3.5223 -1.0320
21587SOL     OW66767   3.026   2.868   6.567 -0.2473  0.9521  0.3602
21587SOL    HW166768   3.116   2.848   6.591 -0.0350  1.1721 -0.2209
21587SOL    HW266769   2.974   2.803   6.613  0.0213  2.0724  2.3373
21588SOL     OW66770   0.232   7.849   8.982  0.0548  0.4826  0.1552
21588SOL    HW166771   0.154   7.813   8.940 -0.6865  1.9209  0.2465
21588SOL    HW266772   0.232   7.812   9.070 -0.5344  0.4799  0.1581
21589SOL     OW66773   7.303   4.114   3.783 -0.6084 -0.2221 -0.5089
21589SOL    HW166774   7.277   4.027   3.813  0.1124  0.0782  1.1004
21589SOL    HW266775   7.360   4.148   3.852 -0.8630  1.5346 -1.0911
21590SOL     OW66776   8.175   3.630  10.534  0.4336 -0.1623  0.6333
21590SOL    HW166777   8.215   3.716  10.549  1.8862 -0.7163  0.1544
21590SOL    HW266778   8.250   3.571  10.523 -0.5332 -1.5158  1.0864
21591SOL     OW66779  10.421   7.007   3.143  0.2588  0.7078  0.2187
21591SOL    HW166780  10.425   6.912   3.131  0.7944  0.9185 -1.5811
21591SOL    HW266781  10.463   7.022   3.227  3.2834 -0.3981 -0.9538
21592SOL     OW66782  10.499   9.979  10.209 -0.9725  1.0747  0.7853
21592SOL    HW166783  10.571  10.007  10.152  2.1072 -3.0751  2.0954
21592SOL    HW266784  10.430   9.952  10.149 -0.2231  2.2701 -0.6757
21593SOL     OW66785   9.994   6.095   5.515  0.5714 -0.1361  0.3450
21593SOL    HW166786  10.049   6.172   5.535  1.4570 -0.7774  0.4357
21593SOL    HW266787   9.974   6.105   5.422 -1.5981  1.6159  0.9223
21594SOL     OW66788   1.277   3.793   5.068  0.1084 -0.4643 -0.1192
21594SOL    HW166789   1.244   3.817   4.981 -0.5884 -0.1697  0.2145
21594SOL    HW266790   1.360   3.840   5.076  0.5178 -1.0400 -0.8944
21595SOL     OW66791   1.815   7.183   4.332  0.2388  0.3847  0.3478
21595SOL    HW166792   1.879   7.202   4.263 -1.3761 -0.2939 -1.4249
21595SOL    HW266793   1.734   7.164   4.285 -1.0417  0.2509  2.4782
21596SOL     OW66794  11.285   9.336   7.436 -0.0983  0.1216 -0.2002
21596SOL    HW166795  11.290   9.414   7.492 -1.5921 -1.8469  2.9844
21596SOL    HW266796  11.248   9.368   7.354  3.8604  3.4927 -0.9762
21597SOL     OW66797   8.347  11.230   2.024  0.2714  0.0891 -0.3462
21597SOL    HW166798   8.387  11.267   1.946 -0.7255 -3.2277 -2.6681
21597SOL    HW266799   8.254  11.253   2.016  0.4041  1.1130  0.8014
21598SOL     OW66800   5.101   4.513   6.891  0.4668 -0.0783  0.0542
21598SOL    HW166801   5.175   4.565   6.860  0.0920  0.6443  0.3667
21598SOL    HW266802   5.142   4.441   6.939  0.9870 -0.1455 -0.4782
21599SOL     OW66803   2.554   1.447   3.370  0.4513  0.6962  0.6120
21599SOL    HW166804   2.589   1.426   3.284  1.1035  0.8319  0.8364
21599SOL    HW266805   2.590   1.533   3.391  1.5331  0.0152  1.6513
21600SOL     OW66806   3.440   4.158   5.280  0.2849 -0.0728 -0.1939
21600SOL    HW166807   3.373   4.100   5.315  1.4521 -0.8192  0.8998
21600SOL    HW266808   3.502   4.099   5.236  1.2298  0.3740  0.5046
21601SOL     OW66809   8.979   3.259   3.198 -0.4006 -0.2978 -0.6150
21601SOL    HW166810   9.005   3.210   3.276 -1.5572 -1.8246 -1.1313
21601SOL    HW266811   8.907   3.315   3.228 -1.5103 -1.6071 -0.7552
21602SOL     OW66812   1.622   9.036   6.442 -0.5716  0.7655 -0.0508
21602SOL    HW166813   1.570   8.995   6.510  0.3424  0.4636  0.4916
21602SOL    HW266814   1.713   9.015   6.465 -0.2769 -1.2323 -2.5363
21603SOL     OW66815   8.045   0.494   6.844 -0.4887  0.0541 -0.1213
21603SOL    HW166816   8.046   0.410   6.889 -2.1267 -0.4655 -0.9697
21603SOL    HW266817   7.975   0.543   6.889 -0.1385  0.6333 -0.2038
21604SOL     OW66818   6.860   8.784   0.208  0.1290  0.2125 -0.0275
21604SOL    HW166819   6.892   8.745   0.127  1.0319 -0.5463  0.6672
21604SOL    HW266820   6.786   8.838   0.182  1.5768  1.5317 -1.6452
21605SOL     OW66821   2.259   0.970   0.583 -0.2220  0.1190  0.2278
21605SOL    HW166822   2.249   0.917   0.503 -1.4443 -1.0299  1.0902
21605SOL    HW266823   2.233   1.058   0.556 -1.3952 -0.4096 -0.4910
21606SOL     OW66824   3.090   2.500   5.256 -0.0652 -0.5898 -0.2142
21606SOL    HW166825   3.072   2.541   5.341  0.8900  2.8204 -1.4624
21606SOL    HW266826   3.166   2.444   5.272  0.6410  0.6582  1.0637
21607SOL     OW66827   7.393   5.758   8.205  0.3326  0.8491  0.1259
21607SOL    HW166828   7.321   5.703   8.234  2.1444  0.5107  4.7270
21607SOL    HW266829   7.354   5.817   8.140 -3.3848 -0.9617  0.5091
21608SOL     OW66830   8.820   2.331   6.988 -0.1135 -0.0853  0.2952
21608SOL    HW166831   8.810   2.241   6.960 -1.1295  0.3236 -0.7316
21608SOL    HW266832   8.864   2.374   6.915 -4.0120  1.3086 -1.5266
21609SOL     OW66833   7.699   9.347   9.270  0.1380 -0.2592 -0.9024
21609SOL    HW166834   7.688   9.355   9.365 -2.7887  1.5343 -1.2819
21609SOL    HW266835   7.761   9.416   9.247 -0.3414  0.3366 -0.4387
21610SOL     OW66836   1.642   9.997   7.538  0.1684 -0.0359 -0.5330
21610SOL    HW166837   1.650   9.922   7.478 -0.9400  1.1244 -2.2306
21610SOL    HW266838   1.731  10.031   7.545  0.9646 -2.1985  1.3291
21611SOL     OW66839   1.485   3.412   0.956 -0.3852  0.1376  0.4443
21611SOL    HW166840   1.538   3.335   0.937  2.2613  1.8108  0.5290
21611SOL    HW266841   1.476   3.456   0.872  0.1329  0.8836  0.7638
21612SOL     OW66842   4.288   9.419   5.232 -0.2423 -0.3292  0.4848
21612SOL    HW166843   4.204   9.373   5.236 -0.2352 -0.4587 -0.7258
21612SOL    HW266844   4.343   9.363   5.178  0.0147  0.7305 -0.3695
21613SOL     OW66845   2.053   6.926   9.803  0.2084 -0.5975  0.0431
21613SOL    HW166846   1.984   6.945   9.867  0.4514  0.8199 -0.0992
21613SOL    HW266847   2.134   6.932   9.853  0.3466 -0.4058 -0.2071
21614SOL     OW66848   6.482   1.761   7.733 -0.3680  0.1664 -0.2541
21614SOL    HW166849   6.535   1.752   7.654  2.4095 -3.3898  1.7308
21614SOL    HW266850   6.428   1.838   7.717  2.6759  1.8341 -4.0578
21615SOL     OW66851   8.546   6.566   5.735  0.2144  0.4648 -0.3193
21615SOL    HW166852   8.519   6.559   5.644  0.0898 -1.2428 -0.1889
21615SOL    HW266853   8.474   6.615   5.777  0.8677  2.3912 -1.3178
21616SOL     OW66854   8.162   8.162   7.643 -0.1244  0.4234  0.1873
21616SOL    HW166855   8.195   8.191   7.727 -1.8990  1.0058  0.7291
21616SOL    HW266856   8.076   8.125   7.663 -0.1508 -0.3550 -1.2366
21617SOL     OW66857   5.738   3.527  10.496 -0.0485 -0.4165 -0.3287
21617SOL    HW166858   5.810   3.574  10.455  0.7029 -1.1592  0.1143
21617SOL    HW266859   5.669   3.593  10.505  1.0746  0.7095  0.5347
21618SOL     OW66860   1.486   9.771  10.537 -0.0751 -0.1943  0.0634
21618SOL    HW166861   1.489   9.717  10.458  2.6661 -0.9223  0.5890
21618SOL    HW266862   1.509   9.859  10.507 -2.6889  0.3932 -0.4750
21619SOL     OW66863   3.877   3.005   4.729  0.6794  0.3833  0.1729
21619SOL    HW166864   3.830   2.982   4.649  2.5869  2.3769 -1.6369
21619SOL    HW266865   3.969   2.989   4.709  1.2077  0.8730  2.0046
21620SOL     OW66866   8.406   5.664   1.540 -0.4008 -1.0290  0.1719
21620SOL    HW166867   8.494   5.634   1.517  0.3592  0.8965  0.3621
21620SOL    HW266868   8.374   5.708   1.461 -1.0819 -1.4672  0.1989
21621SOL     OW66869   2.915   8.918   7.980  0.0428  0.4219 -0.0769
21621SOL    HW166870   2.990   8.879   7.936 -0.9483 -2.9087  0.8940
21621SOL    HW266871   2.879   8.980   7.917  2.0376  0.1424 -1.5837
21622SOL     OW66872   0.598   5.404   1.833 -0.9037  0.9551  0.2818
21622SOL    HW166873   0.656   5.459   1.780 -0.8215 -0.1799 -0.8474
21622SOL    HW266874   0.651   5.328   1.856 -1.0880  1.2109  1.6334
21623SOL     OW66875   9.430   1.197   3.646 -0.1248 -0.0802 -0.5624
21623SOL    HW166876   9.456   1.184   3.737 -1.1066 -0.7411 -0.3534
21623SOL    HW266877   9.507   1.235   3.604  0.3232  0.2855  0.5523
21624SOL     OW66878   6.171   9.675   4.343  0.1142 -0.2343 -0.2085
21624SOL    HW166879   6.257   9.643   4.370 -0.0546 -1.7429 -1.3567
21624SOL    HW266880   6.152   9.628   4.262 -1.6982  0.2451 -0.0970
21625SOL     OW66881   6.357   1.666   7.336 -0.1042 -0.3931 -0.4528
21625SOL    HW166882   6.431   1.726   7.343 -1.2173  1.1528 -1.3187
21625SOL    HW266883   6.320   1.683   7.250  0.1582 -3.1419 -1.1892
21626SOL     OW66884   4.943  11.273   6.087  0.1478 -0.2551 -0.3606
21626SOL    HW166885   4.852  11.291   6.113  0.2773  0.0284 -0.0999
21626SOL    HW266886   4.983  11.359   6.077  0.3556 -0.3797 -0.5942
21627SOL     OW66887   2.020   3.575   6.049 -0.4694 -0.4720 -0.3001
21627SOL    HW166888   1.979   3.590   5.964 -0.0243  0.3439 -0.3743
21627SOL    HW266889   2.021   3.660   6.091 -4.7752 -1.4575  2.4616
21628SOL     OW66890   4.847   7.675   2.364  0.5225 -0.0825 -0.9564
21628SOL    HW166891   4.759   7.712   2.355  1.2333  1.7583 -0.7331
21628SOL    HW266892   4.906   7.746   2.337  1.9566 -1.1205 -0.6666
21629SOL     OW66893   8.228  10.793   8.559 -0.0826 -0.1255 -0.3959
21629SOL    HW166894   8.249  10.722   8.499  0.4215 -0.6703  0.4141
21629SOL    HW266895   8.210  10.750   8.643 -2.0096  0.5076 -0.4223
21630SOL     OW66896   1.319   7.341   1.399  0.8717  0.6677 -0.1060
21630SOL    HW166897   1.249   7.381   1.347  0.6904  0.6731  0.1407
21630SOL    HW266898   1.306   7.376   1.487  1.2451  0.7425 -0.0811
21631SOL     OW66899   7.856   1.668   2.688 -0.5646 -0.3517 -0.0455
21631SOL    HW166900   7.912   1.591   2.687 -0.4923 -0.3008  0.0503
21631SOL    HW266901   7.810   1.666   2.604 -0.3402 -0.3342 -0.1677
21632SOL     OW66902   2.524   2.663   1.804  0.0212  1.3093  0.6808
21632SOL    HW166903   2.592   2.668   1.870 -1.5815 -1.1012  2.6756
21632SOL    HW266904   2.556   2.598   1.741  0.8082  2.3899 -0.0814
21633SOL     OW66905   2.500   9.832   0.928  0.5146  0.0110  0.0242
21633SOL    HW166906   2.511   9.757   0.870  1.3255  0.1657 -0.0352
21633SOL    HW266907   2.467   9.902   0.872  0.7103 -0.0200 -0.1336
21634SOL     OW66908   2.863   7.535   6.615 -0.0183  0.4513 -0.0865
21634SOL    HW166909   2.937   7.479   6.640 -0.4852 -0.5513 -0.8785
21634SOL    HW266910   2.887   7.622   6.646  1.6030  0.1881 -0.5348
21635SOL     OW66911   7.721  10.539   7.649 -0.0146  0.0952 -0.3466
21635SOL    HW166912   7.675  10.608   7.602 -1.5326 -1.1710 -0.7921
21635SOL    HW266913   7.774  10.496   7.582  2.5483  1.9708  0.2746
21636SOL     OW66914   2.959   1.494   0.018  0.4242 -0.6597 -0.0963
21636SOL    HW166915   2.945   1.414  -0.032 -1.4421 -0.0038 -0.7087
21636SOL    HW266916   2.871   1.525   0.039  1.0993  1.2091  0.1681
21637SOL     OW66917   8.390   5.319   8.741  0.0035  0.2841 -0.5156
21637SOL    HW166918   8.335   5.392   8.713 -1.9759 -1.4608 -1.4848
21637SOL    HW266919   8.360   5.299   8.830  0.8059  0.8599 -0.1064
21638SOL     OW66920  10.553   3.953   0.934 -0.4048 -0.2519  0.1678
21638SOL    HW166921  10.537   3.906   0.852  1.2442 -0.6661  0.0544
21638SOL    HW266922  10.646   3.975   0.931 -0.6480  1.0360  1.2664
21639SOL     OW66923   4.940   2.189  10.849 -0.0083  0.3448 -0.3497
21639SOL    HW166924   4.973   2.099  10.852  1.8842  0.9989 -0.2698
21639SOL    HW266925   4.994   2.236  10.913 -2.0661  1.2334  0.8439
21640SOL     OW66926   4.703   3.428   5.257 -0.3735  0.1885  0.1325
21640SOL    HW166927   4.670   3.429   5.347  0.8547 -0.2339  0.6153
21640SOL    HW266928   4.789   3.386   5.264 -0.3266  0.0117 -1.2689
21641SOL     OW66929   0.071   2.044   1.720 -0.4738  0.8897 -0.5183
21641SOL    HW166930   0.123   1.997   1.785 -0.0133  1.6221 -0.3456
21641SOL    HW266931   0.063   1.983   1.647 -1.9833 -0.4095  0.6511
21642SOL     OW66932   1.001   4.287   5.084  0.0395  1.2229  0.1965
21642SOL    HW166933   0.990   4.329   5.170  0.2672  2.3828 -0.3263
21642SOL    HW266934   0.981   4.356   5.021  3.0041  1.3430 -0.7329
21643SOL     OW66935   3.589   3.484   4.989 -0.9741  0.9626  0.5879
21643SOL    HW166936   3.580   3.440   5.073  0.0660  1.6373  1.0720
21643SOL    HW266937   3.681   3.474   4.966 -1.0499  1.5934 -0.0208
21644SOL     OW66938   9.902   7.551  11.046 -0.1259  0.4372 -0.6386
21644SOL    HW166939   9.829   7.565  11.106  1.4105  1.1113  1.1385
21644SOL    HW266940   9.970   7.611  11.075  1.1481 -0.1280 -2.2762
21645SOL     OW66941   8.695  10.143   9.611 -0.2818 -0.6478 -0.2378
21645SOL    HW166942   8.712  10.217   9.552  0.9195 -1.8409 -1.4940
21645SOL    HW266943   8.608  10.111   9.586 -0.4178 -0.2115 -0.3182
21646SOL     OW66944   0.399   8.849   8.945 -0.5860 -0.7104  0.5577
21646SOL    HW166945   0.471   8.899   8.908 -1.8272 -0.5450 -1.8162
21646SOL    HW266946   0.326   8.911   8.946 -1.3540 -1.6014  0.4654
21647SOL     OW66947   6.935   1.553   9.350 -0.0783 -0.2175 -0.8487
21647SOL    HW166948   6.924   1.625   9.289  1.6872 -1.6173 -3.0077
21647SOL    HW266949   7.030   1.541   9.356 -0.2911 -1.7631  0.1390
21648SOL     OW66950   0.042   7.004   8.246 -0.4268  0.3192 -0.4806
21648SOL    HW166951   0.000   7.090   8.244 -0.5910  0.2428 -0.2827
21648SOL    HW266952   0.112   7.012   8.311 -4.0172 -1.3380  4.0854
21649SOL     OW66953   7.615   3.591   8.449 -0.6333 -0.0276  0.0522
21649SOL    HW166954   7.584   3.670   8.493  2.8592  1.2257  0.5354
21649SOL    HW266955   7.709   3.589   8.465  0.2296 -1.7446 -3.9132
21650SOL     OW66956   6.492   0.093   5.614  0.2809  0.5208 -0.0149
21650SOL    HW166957   6.539   0.035   5.555 -0.0812  1.5037 -1.3074
21650SOL    HW266958   6.513   0.060   5.702  3.3204  0.8643 -0.5142
21651SOL     OW66959   1.245   8.011   3.877  0.3773 -0.2818 -0.0090
21651SOL    HW166960   1.201   7.990   3.960 -1.1224  0.5225 -0.5680
21651SOL    HW266961   1.238   7.931   3.826 -0.7539 -0.0898 -0.1969
21652SOL     OW66962   6.176  10.377   5.850  0.0600  0.2999  0.5802
21652SOL    HW166963   6.252  10.363   5.906 -0.0151 -0.0003  0.6068
21652SOL    HW266964   6.154  10.470   5.863  0.2573  0.3211  0.7755
21653SOL     OW66965   2.733   9.272   5.577  0.0649  0.0946 -0.2286
21653SOL    HW166966   2.825   9.297   5.572  0.1722 -0.0639  0.7733
21653SOL    HW266967   2.732   9.194   5.633 -0.7775  0.6595  0.5697
21654SOL     OW66968   9.811   6.099   0.681  0.3301  0.4317 -0.1657
21654SOL    HW166969   9.787   6.009   0.703 -0.7078  0.4061 -1.3196
21654SOL    HW266970   9.813   6.144   0.766 -0.9990 -0.2392  0.2464
21655SOL     OW66971   1.501   8.350   8.809 -0.5235  0.1905 -0.6377
21655SOL    HW166972   1.413   8.387   8.822  0.1530  1.6866 -0.1140
21655SOL    HW266973   1.555   8.424   8.781  0.5898 -0.7091 -0.9665
21656SOL     OW66974   9.451   6.663   8.054  0.2348 -0.1784  0.6575
21656SOL    HW166975   9.376   6.604   8.066 -1.9225  1.1909 -3.7995
21656SOL    HW266976   9.517   6.609   8.011 -0.4820 -0.1531 -0.5204
21657SOL     OW66977   9.638   4.843   3.614  0.6076 -0.0499  0.6469
21657SOL    HW166978   9.646   4.926   3.568  1.6342  0.5647  1.8897
21657SOL    HW266979   9.642   4.776   3.545  1.6143  0.8546 -0.1879
21658SOL     OW66980   9.966   8.880   3.113  0.6991 -0.2779 -0.0196
21658SOL    HW166981  10.002   8.816   3.175 -1.5943 -2.8100 -1.1150
21658SOL    HW266982  10.020   8.870   3.035  1.4530  0.4409  0.4004
21659SOL     OW66983   9.807   1.481   1.042 -0.3849 -0.7345 -0.2327
21659SOL    HW166984   9.720   1.518   1.032  0.4603  1.4820  0.0120
21659SOL    HW266985   9.798   1.390   1.015 -2.4516 -0.2036 -1.5558
21660SOL     OW66986   3.140   3.738   8.237 -0.0396 -0.1183  0.3530
21660SOL    HW166987   3.226   3.772   8.211  0.6507 -3.3504 -2.2610
21660SOL    HW266988   3.091   3.730   8.155 -2.1184 -0.3320  1.5248
21661SOL     OW66989   1.074   2.574   0.719 -0.0194 -0.2629  0.2987
21661SOL    HW166990   1.049   2.631   0.647  0.5683  0.7680  0.8925
21661SOL    HW266991   1.014   2.597   0.790  1.4514  1.0362  1.1772
21662SOL     OW66992   0.480   9.421   2.502  0.3401  0.2194  0.1414
21662SOL    HW166993   0.438   9.465   2.428 -1.1327  0.7881  1.2756
21662SOL    HW266994   0.574   9.429   2.484  0.0292  0.9217 -1.3262
21663SOL     OW66995   9.656   2.182   7.338  0.7389 -0.0710  0.1945
21663SOL    HW166996   9.748   2.157   7.332  1.2691  1.7422 -0.0378
21663SOL    HW266997   9.607   2.102   7.318  2.2694 -0.6316 -1.5475
21664SOL     OW66998   2.797   6.668   9.368 -0.0897 -0.2190 -0.3545
21664SOL    HW166999   2.717   6.711   9.399  0.1693 -1.6630  2.6562
21664SOL    HW267000   2.766   6.611   9.298 -1.6065 -0.2110  0.2492
21665SOL     OW67001   0.075   2.457   6.812  0.9736  0.9854  0.1311
21665SOL    HW167002   0.028   2.400   6.874 -0.2850  2.3285  0.4819
21665SOL    HW267003   0.148   2.404   6.781 -0.7815 -1.2443 -0.4534
21666SOL     OW67004   7.460  10.835   0.966 -0.3936 -0.0881 -0.2991
21666SOL    HW167005   7.473  10.860   0.875 -1.3730  0.5780 -0.2723
21666SOL    HW267006   7.515  10.897   1.015  1.2657 -1.3389 -0.4633
21667SOL     OW67007   4.065  10.860   7.655  0.6026 -1.1173 -0.7106
21667SOL    HW167008   4.057  10.896   7.744 -2.1926  1.2457 -1.7782
21667SOL    HW267009   3.991  10.801   7.646 -0.1422 -0.0498 -1.9565
21668SOL     OW67010   2.662  11.182   5.138 -0.1630 -0.0816 -0.1224
21668SOL    HW167011   2.590  11.157   5.196 -0.5581 -2.5858 -1.5111
21668SOL    HW267012   2.626  11.169   5.049  2.2142 -2.5751 -0.8650
21669SOL     OW67013   1.817   3.729   3.956  0.6675  0.2996  0.0713
21669SOL    HW167014   1.829   3.640   3.923 -0.6326  1.4116 -3.9581
21669SOL    HW267015   1.888   3.779   3.915 -0.4383  1.6465 -0.2548
21670SOL     OW67016   1.938   6.040   4.751 -0.1708 -0.0758  0.0934
21670SOL    HW167017   1.882   5.981   4.801  1.6157 -2.2063 -0.2427
21670SOL    HW267018   1.996   6.079   4.816 -0.0508 -0.2530  0.0949
21671SOL     OW67019  11.217   3.148   4.022 -0.1824 -0.0652 -0.4571
21671SOL    HW167020  11.139   3.131   3.970  0.2094 -0.3783 -0.9533
21671SOL    HW267021  11.279   3.189   3.961  1.0084 -2.2194 -0.7957
21672SOL     OW67022   9.647   2.965   8.157  0.1922 -0.0434 -0.2105
21672SOL    HW167023   9.555   2.983   8.177  0.7909 -0.1071  3.2804
21672SOL    HW267024   9.686   3.052   8.142 -0.1093  0.1448  0.0855
21673SOL     OW67025   3.023   6.343   5.345 -0.3444 -0.6939  0.1929
21673SOL    HW167026   3.021   6.379   5.434 -1.1499 -2.8826  1.1293
21673SOL    HW267027   2.964   6.267   5.348 -0.2602 -0.9285 -2.1768
21674SOL     OW67028   9.457   0.232  10.853  0.1163  0.1458  0.0074
21674SOL    HW167029   9.503   0.308  10.887  1.0133 -0.5492  0.3603
21674SOL    HW267030   9.412   0.265  10.775 -1.1835  1.5202  1.2760
21675SOL     OW67031   9.532   6.156   4.202  0.4302  0.4043  0.2603
21675SOL    HW167032   9.548   6.082   4.261 -1.5400 -0.6872 -0.4428
21675SOL    HW267033   9.615   6.202   4.197  2.0208 -2.2529  0.1133
21676SOL     OW67034   4.139   3.367   6.213  0.5742  0.0546 -0.7399
21676SOL    HW167035   4.109   3.334   6.298 -0.3902  1.1991 -0.6171
21676SOL    HW267036   4.208   3.429   6.235  0.2731  0.4063 -0.7889
21677SOL     OW67037   1.863   9.845  10.517  0.1413 -0.0188  0.4100
21677SOL    HW167038   1.829   9.850  10.428  1.1826  1.3215  0.0458
21677SOL    HW267039   1.807   9.904  10.568 -0.2992 -0.5943  0.6053
21678SOL     OW67040   6.035   5.412   4.529  0.3404 -0.2082  0.0171
21678SOL    HW167041   5.949   5.390   4.493  1.1176  0.9058 -2.7533
21678SOL    HW267042   6.034   5.375   4.617 -2.7710 -0.6741 -0.1030
21679SOL     OW67043   1.237   3.152   3.528  0.2126 -0.6198 -0.3457
21679SOL    HW167044   1.276   3.129   3.612 -0.2961 -0.6277 -0.1062
21679SOL    HW267045   1.306   3.136   3.464  0.7194 -0.2939  0.1048
21680SOL     OW67046   4.163  10.847   0.871 -0.1598 -0.1379  0.0999
21680SOL    HW167047   4.140  10.827   0.962 -0.5889  1.1814  0.2957
21680SOL    HW267048   4.219  10.774   0.845  0.7601 -0.0733  1.7356
21681SOL     OW67049   4.955   2.474   8.463 -0.9143  0.3187 -0.2778
21681SOL    HW167050   4.934   2.392   8.418 -0.2754 -0.1007  0.1707
21681SOL    HW267051   4.925   2.460   8.553  1.0637 -0.2341  0.3399
21682SOL     OW67052   9.709   0.942  11.084 -0.6240  0.3135 -0.7401
21682SOL    HW167053   9.779   0.922  11.022 -1.5923  0.6791 -1.9906
21682SOL    HW267054   9.734   1.026  11.122  1.5515 -1.3066  1.7607
21683SOL     OW67055   3.914   2.288   6.961 -0.4987 -0.2417  0.2894
21683SOL    HW167056   3.975   2.268   6.890 -0.9847 -0.8045  0.0234
21683SOL    HW267057   3.968   2.330   7.028 -0.4398  2.8356 -1.4556
21684SOL     OW67058  10.013   6.275   0.953 -0.4680  0.6583 -0.1246
21684SOL    HW167059  10.028   6.182   0.969  1.1161  1.1738  1.6401
21684SOL    HW267060  10.056   6.292   0.869 -0.9192 -0.2055 -0.5453
21685SOL     OW67061   3.815  10.672  11.242  0.3360  0.5630 -0.5797
21685SOL    HW167062   3.832  10.683  11.336  0.3268 -0.5513 -0.4441
21685SOL    HW267063   3.894  10.706  11.199  1.5499 -1.4563 -0.0649
21686SOL     OW67064   9.218  11.274   0.217  0.2152 -0.2739  0.3887
21686SOL    HW167065   9.127  11.292   0.192  0.0940  0.7713  1.4555
21686SOL    HW267066   9.268  11.343   0.175  0.5422 -0.8894 -0.2529
21687SOL     OW67067   2.251   9.159  11.182 -0.2655  0.1618 -0.0002
21687SOL    HW167068   2.166   9.128  11.149 -0.1776 -0.7660  0.5821
21687SOL    HW267069   2.285   9.084  11.231  0.4046  0.8952  0.6752
21688SOL     OW67070   7.955   7.400   4.662 -0.1759 -0.3919  0.4320
21688SOL    HW167071   7.899   7.465   4.705  2.2246  1.2751  1.2320
21688SOL    HW267072   7.977   7.338   4.731  0.7992  0.2780  0.7439
21689SOL     OW67073   1.934   2.408   2.610  0.5032 -0.4616  0.0493
21689SOL    HW167074   1.867   2.340   2.611  1.3238 -1.3066 -0.5043
21689SOL    HW267075   1.889   2.487   2.639 -1.0017 -0.7435 -1.3933
21690SOL     OW67076  11.142   1.639   9.767  0.2422  0.0814  0.1556
21690SOL    HW167077  11.065   1.664   9.716  0.6955 -0.8509 -1.0209
21690SOL    HW267078  11.128   1.681   9.852 -1.7201 -0.3153  0.0900
21691SOL     OW67079   5.485   6.480   6.686 -0.0258 -0.2492 -0.0263
21691SOL    HW167080   5.455   6.437   6.606  0.0087  0.4232 -0.4057
21691SOL    HW267081   5.414   6.539   6.710  0.3666  0.2700 -0.1125
21692SOL     OW67082   0.679   4.258   7.678  0.3975  0.2449  0.4221
21692SOL    HW167083   0.700   4.220   7.593  0.0101  0.5943  0.1654
21692SOL    HW267084   0.719   4.345   7.676  2.5020 -0.6307  1.5477
21693SOL     OW67085   1.005   7.807   0.633 -0.9511  0.3888  0.1150
21693SOL    HW167086   0.971   7.735   0.687 -2.3764  0.4526 -0.6381
21693SOL    HW267087   0.984   7.886   0.682 -1.5916  0.4050 -0.1688
21694SOL     OW67088   3.438   0.246   7.267  0.0609  0.4687 -0.1808
21694SOL    HW167089   3.369   0.180   7.262  0.3182  0.1941 -0.1372
21694SOL    HW267090   3.493   0.217   7.339  0.3570  0.5559 -0.3708
21695SOL     OW67091   5.302   8.513   4.475  0.0561 -0.5630  0.5094
21695SOL    HW167092   5.214   8.478   4.485 -0.3687  0.3394  0.0428
21695SOL    HW267093   5.353   8.441   4.437 -0.4649 -1.0929  0.8042
21696SOL     OW67094   5.560   4.866   4.108  0.3683  0.6027  0.5727
21696SOL    HW167095   5.467   4.853   4.090  0.3177  0.6808  0.7780
21696SOL    HW267096   5.579   4.955   4.079  1.0805 -0.4000 -2.3508
21697SOL     OW67097   6.772   7.734   5.499 -0.3592 -0.1373 -0.1078
21697SOL    HW167098   6.705   7.726   5.567 -2.7072  0.2426 -2.2310
21697SOL    HW267099   6.794   7.827   5.497 -2.4393  0.3991 -1.6676
21698SOL     OW67100   1.951   0.505   5.439  0.3519  0.5085  0.3581
21698SOL    HW167101   1.993   0.420   5.450  1.2052  0.7727 -0.7109
21698SOL    HW267102   1.953   0.522   5.345  2.3130  2.7140  0.6936
21699SOL     OW67103   7.158  10.927   1.584  0.4622 -0.1926 -0.6228
21699SOL    HW167104   7.242  10.955   1.547  0.1085  1.0889 -0.4742
21699SOL    HW267105   7.104  11.005   1.584 -1.0386 -1.1938 -1.5061
21700SOL     OW67106   0.085   8.781   4.507  0.3850  0.2408  0.4416
21700SOL    HW167107   0.008   8.838   4.513  0.4927  0.4446 -0.0434
21700SOL    HW267108   0.093   8.763   4.413 -0.9986 -2.4408  0.7545
21701SOL     OW67109   2.478   2.427   1.112  0.3705  0.5803 -0.3564
21701SOL    HW167110   2.462   2.332   1.111 -0.8518  0.7658  0.2592
21701SOL    HW267111   2.573   2.434   1.122  0.3333 -0.5946  1.2090
21702SOL     OW67112  10.953   0.755  10.911 -0.5224 -0.5674 -0.1316
21702SOL    HW167113  10.857   0.758  10.916 -0.5105  0.1097 -0.1605
21702SOL    HW267114  10.977   0.840  10.873  0.1997  0.0841  1.6799
21703SOL     OW67115   4.518   2.619  10.311 -1.1407  0.5948 -0.3374
21703SOL    HW167116   4.550   2.610  10.221  0.3581 -0.8354  0.2965
21703SOL    HW267117   4.441   2.562  10.314 -0.5520 -0.2301 -0.4481
21704SOL     OW67118   2.995   6.638  10.535  0.1705  0.8155  0.3180
21704SOL    HW167119   3.006   6.621  10.441 -0.8178 -1.3445  0.5420
21704SOL    HW267120   3.012   6.554  10.577 -1.3214  1.2533  1.9187
21705SOL     OW67121   3.259   9.367   2.036 -0.4711 -0.0091  0.5165
21705SOL    HW167122   3.230   9.406   2.119  0.0175  2.8417 -0.5231
21705SOL    HW267123   3.183   9.376   1.978  0.3942  1.7611 -0.4286
21706SOL     OW67124   9.072   5.912   6.492 -0.4417 -0.0463 -0.3577
21706SOL    HW167125   9.115   5.955   6.566 -1.3185 -0.2998  0.3150
21706SOL    HW267126   9.136   5.848   6.461 -1.0321 -1.8411  1.9001
21707SOL     OW67127   9.665   6.903   4.372  0.1306  0.6710 -0.2129
21707SOL    HW167128   9.623   6.961   4.308  1.1705  1.2712 -0.3698
21707SOL    HW267129   9.747   6.947   4.394  0.7507 -0.5426 -0.0183
21708SOL     OW67130  11.254   1.727   1.018 -0.1562 -0.3533  0.4535
21708SOL    HW167131  11.275   1.671   0.944 -0.7857 -1.1538  0.8686
21708SOL    HW267132  11.231   1.811   0.979  0.2240 -0.5525 -0.2074
21709SOL     OW67133   0.595   2.082  10.113 -0.0819  0.0841  0.3054
21709SOL    HW167134   0.679   2.120  10.141  0.7006 -1.5463  0.2869
21709SOL    HW267135   0.600   2.081  10.018  1.4456 -3.0974  0.2693
21710SOL     OW67136   8.591   6.736   4.470 -0.7997 -0.8583  0.7737
21710SOL    HW167137   8.554   6.648   4.461 -0.5076 -0.8603 -0.8066
21710SOL    HW267138   8.562   6.766   4.556 -2.4406 -1.7762  0.5812
21711SOL     OW67139   7.300  10.287   7.882  0.0644 -0.4006 -0.3106
21711SOL    HW167140   7.278  10.289   7.975 -2.1478  0.8535 -0.7868
21711SOL    HW267141   7.233  10.341   7.840  2.5032  1.3103 -2.3478
21712SOL     OW67142   7.077   1.523  11.243 -0.4256  0.2663  0.4073
21712SOL    HW167143   7.022   1.591  11.282  1.3283  0.7257  2.1965
21712SOL    HW267144   7.014   1.455  11.215 -1.8878  0.2839  3.2762
21713SOL     OW67145   0.384   9.036   0.557  0.5163 -0.1412  0.1963
21713SOL    HW167146   0.338   9.119   0.568 -1.4768 -0.2976 -4.6462
21713SOL    HW267147   0.316   8.970   0.571  1.0625 -0.7611 -0.0617
21714SOL     OW67148  11.012   2.450   3.974  0.0461 -0.0684 -0.0607
21714SOL    HW167149  11.044   2.404   4.051 -0.3000 -1.0200 -0.4744
21714SOL    HW267150  11.084   2.447   3.912 -0.5969 -1.7309 -0.7864
21715SOL     OW67151   0.524   2.258  10.479 -0.0410  0.3757 -0.0862
21715SOL    HW167152   0.616   2.255  10.504 -0.5101  0.0820  1.7822
21715SOL    HW267153   0.501   2.167  10.460 -0.6613 -0.1211  2.5645
21716SOL     OW67154   5.125   9.268   5.575  0.2776  0.2674 -0.2223
21716SOL    HW167155   5.090   9.345   5.530  1.8209  0.5510 -0.9912
21716SOL    HW267156   5.220   9.273   5.562  0.4033 -1.8902 -0.4834
21717SOL     OW67157   4.277   0.467  11.204 -0.2713 -0.1776  0.9331
21717SOL    HW167158   4.278   0.430  11.293 -2.0454 -1.6140  0.4185
21717SOL    HW267159   4.185   0.489  11.189 -0.0478 -0.2615 -0.6640
21718SOL     OW67160   7.642   7.606   3.357 -0.1174 -0.1895  0.2280
21718SOL    HW167161   7.706   7.587   3.426 -0.7725  0.5553  1.0745
21718SOL    HW267162   7.642   7.702   3.351 -2.0974 -0.0777  1.2046
21719SOL     OW67163   9.264   0.797  10.092  0.0149  0.1996  0.4382
21719SOL    HW167164   9.225   0.712  10.116  1.5215 -0.7072 -0.1377
21719SOL    HW267165   9.347   0.798  10.140  0.7023  0.6600 -0.7450
21720SOL     OW67166   2.647   6.915  10.829  0.1877 -0.5320 -0.7767
21720SOL    HW167167   2.653   7.005  10.861 -0.7130  0.0374 -2.1401
21720SOL    HW267168   2.727   6.902  10.778 -0.7967  0.3808 -2.6450
21721SOL     OW67169   8.011   4.279   3.617 -0.1921  0.0435 -0.4710
21721SOL    HW167170   7.957   4.298   3.694 -0.4991 -1.0187 -0.4157
21721SOL    HW267171   8.020   4.364   3.573  0.4033  0.7629  0.9844
21722SOL     OW67172  10.293   4.698   9.822 -0.4154  0.5118 -0.4144
21722SOL    HW167173  10.363   4.667   9.765 -0.8904  0.3766 -0.9218
21722SOL    HW267174  10.246   4.763   9.769 -0.5901  0.7090 -0.0221
21723SOL     OW67175   2.005  10.091   6.118 -0.9484 -0.3135  0.0099
21723SOL    HW167176   1.977  10.166   6.170  0.2276 -0.6489  1.1973
21723SOL    HW267177   1.936  10.026   6.129  0.0224 -1.0367  2.6705
21724SOL     OW67178   0.298  10.008   6.362 -0.1338  0.5436  0.4759
21724SOL    HW167179   0.384  10.005   6.405 -0.2670 -0.6704  0.6859
21724SOL    HW267180   0.239  10.043   6.429  0.3027  2.0161  0.1180
21725SOL     OW67181   2.413   5.735  11.163 -0.0929  0.4166  0.1196
21725SOL    HW167182   2.405   5.810  11.104 -1.8415  0.4655  0.3468
21725SOL    HW267183   2.323   5.700  11.169  0.5414 -1.2235  0.6246
21726SOL     OW67184  10.648   0.153   5.229  0.2375  0.1527 -0.0450
21726SOL    HW167185  10.728   0.132   5.181  0.5505  0.0890  0.4963
21726SOL    HW267186  10.677   0.169   5.318  0.1515  3.6869 -0.5377
21727SOL     OW67187   5.312   8.003   0.602 -0.5361 -0.1247 -0.5319
21727SOL    HW167188   5.294   7.987   0.694  0.0835  1.9974  0.0338
21727SOL    HW267189   5.237   8.054   0.572 -0.4168 -0.2320 -1.0194
21728SOL     OW67190   6.205   0.255   7.438  0.8869 -0.0938 -0.1693
21728SOL    HW167191   6.166   0.342   7.448  1.0214 -0.1576  1.0651
21728SOL    HW267192   6.289   0.271   7.396  0.9196  0.3768  0.0714
21729SOL     OW67193   4.684   3.923   4.901  0.3920 -0.0493 -0.5505
21729SOL    HW167194   4.682   3.948   4.809 -0.3100  0.2902 -0.4509
21729SOL    HW267195   4.714   3.832   4.901  3.3845  0.8293 -0.8929
21730SOL     OW67196   1.244   7.077   2.696 -0.1225  0.4395 -0.0042
21730SOL    HW167197   1.268   7.015   2.764  1.8684 -1.3371 -2.1438
21730SOL    HW267198   1.316   7.140   2.695 -0.4406  0.8043 -0.0706
21731SOL     OW67199   8.073   3.518   4.063  0.3034 -0.3183 -0.1089
21731SOL    HW167200   8.037   3.430   4.079  0.8988 -0.2896  1.4338
21731SOL    HW267201   8.084   3.556   4.149  2.2288  0.4215 -0.6406
21732SOL     OW67202   4.669   3.266  10.220 -0.2452 -0.1674 -0.0620
21732SOL    HW167203   4.623   3.341  10.184  2.2293  1.2509 -0.5138
21732SOL    HW267204   4.721   3.232  10.146  1.0069 -0.3847  0.8761
21733SOL     OW67205   6.507   7.712   2.620  0.3910 -0.8659  0.1259
21733SOL    HW167206   6.482   7.746   2.706  2.1472  0.8263  0.0317
21733SOL    HW267207   6.431   7.662   2.590  0.0185 -2.2139  2.9919
21734SOL     OW67208   7.246   5.451   9.481  0.3864 -0.0725 -0.0896
21734SOL    HW167209   7.281   5.433   9.394  0.2249  1.4502 -0.4834
21734SOL    HW267210   7.165   5.400   9.486  0.7675 -0.7271 -0.5498
21735SOL     OW67211   0.938   8.204  10.556  0.8675 -0.0953 -0.2145
21735SOL    HW167212   0.973   8.291  10.539  0.0934  0.1255 -0.7647
21735SOL    HW267213   0.954   8.155  10.475 -2.1525  0.7317 -1.4524
21736SOL     OW67214   8.953  10.630   0.730 -0.4055 -0.1817 -0.1868
21736SOL    HW167215   8.993  10.651   0.646  1.0906 -2.4183 -0.1038
21736SOL    HW267216   9.015  10.662   0.795 -1.4940  1.4173  0.1300
21737SOL     OW67217   1.822   3.289   3.189 -0.3635  0.3692 -0.3338
21737SOL    HW167218   1.904   3.285   3.238 -0.4020 -1.4339 -0.3612
21737SOL    HW267219   1.846   3.325   3.104  0.4679 -0.5058 -0.4755
21738SOL     OW67220   9.666   1.545   6.437  0.6001  0.4347  0.1171
21738SOL    HW167221   9.653   1.611   6.506  0.0469 -1.0168  1.4598
21738SOL    HW267222   9.583   1.542   6.391  0.4501  0.3253  0.3893
21739SOL     OW67223   3.401   9.565   8.996 -0.2605 -0.2639 -0.3219
21739SOL    HW167224   3.352   9.637   9.035 -0.9577 -0.6757 -0.4058
21739SOL    HW267225   3.458   9.606   8.931  0.7252  0.4094  0.9156
21740SOL     OW67226   6.615   8.399   9.237  0.0573 -0.5052  0.3309
21740SOL    HW167227   6.545   8.335   9.225 -0.8828  0.4800  0.4344
21740SOL    HW267228   6.669   8.391   9.159  1.2146 -2.9011  1.2712
21741SOL     OW67229   5.264   5.580   0.874  0.0672 -0.3103  0.6270
21741SOL    HW167230   5.345   5.629   0.887 -0.0474 -0.0817  0.4910
21741SOL    HW267231   5.284   5.492   0.906  0.4240 -0.3058  0.4257
21742SOL     OW67232  11.120   4.551   4.472  0.0643 -0.2906  0.6821
21742SOL    HW167233  11.206   4.520   4.443  0.0074  0.0173  0.1748
21742SOL    HW267234  11.121   4.645   4.454  0.3053  0.0802  2.3897
21743SOL     OW67235   1.016   5.412   9.838  1.1653  0.2280 -0.4634
21743SOL    HW167236   1.010   5.506   9.823  2.2461  0.1739 -1.3787
21743SOL    HW267237   1.074   5.403   9.914  1.1557  0.2918 -0.4493
21744SOL     OW67238   0.860   3.883   5.754 -0.4120  0.3566 -0.2647
21744SOL    HW167239   0.938   3.836   5.785 -0.8998  0.1749  0.6977
21744SOL    HW267240   0.857   3.962   5.807 -2.4229 -0.9315  1.7459
21745SOL     OW67241   7.821   1.630   4.034  0.5020 -0.5294  0.3000
21745SOL    HW167242   7.773   1.547   4.030 -1.7562  0.6799  0.5002
21745SOL    HW267243   7.843   1.641   4.126  0.0711 -0.5226  0.4028
21746SOL     OW67244   2.220   7.260   4.139 -0.1261  0.8066 -0.2865
21746SOL    HW167245   2.195   7.200   4.209 -0.1557 -2.8317 -3.1009
21746SOL    HW267246   2.139   7.274   4.089  0.2209  2.0030 -0.5588
21747SOL     OW67247   9.761   8.738  10.838  0.9341 -0.4512  0.3641
21747SOL    HW167248   9.739   8.768  10.750  1.3408  0.5413  0.5795
21747SOL    HW267249   9.679   8.747  10.887  1.0044  0.1922  0.3811
21748SOL     OW67250   3.916   9.077   6.672  0.3030  0.2670 -0.2591
21748SOL    HW167251   3.998   9.030   6.686 -0.4391 -0.9569  0.1788
21748SOL    HW267252   3.850   9.021   6.713 -1.0386  0.1782 -2.4124
21749SOL     OW67253   2.081   0.052   7.968 -0.0859  0.1634  0.2205
21749SOL    HW167254   2.031   0.110   8.026 -1.6070 -1.8830  1.0746
21749SOL    HW267255   2.037  -0.033   7.975  0.6905 -0.5944 -2.6854
21750SOL     OW67256   7.828   6.256   0.439 -0.3909  0.2350  0.4001
21750SOL    HW167257   7.864   6.308   0.512  0.4550  0.6056 -0.2689
21750SOL    HW267258   7.795   6.322   0.377 -0.1925 -0.0558 -0.0151
21751SOL     OW67259   1.909   4.828   8.841  0.7178  0.4068  0.7534
21751SOL    HW167260   1.891   4.735   8.831  1.2013  0.4682 -1.2394
21751SOL    HW267261   1.823   4.870   8.839  0.5619  0.0785  0.4381
21752SOL     OW67262  10.517   5.910   2.974 -0.0343  0.4396  0.3047
21752SOL    HW167263  10.431   5.870   2.966 -0.0423  0.7311 -1.5770
21752SOL    HW267264  10.575   5.854   2.922  0.5185  1.2818 -0.0063
21753SOL     OW67265   1.766   7.130   6.271  0.0822  0.4650 -0.3499
21753SOL    HW167266   1.818   7.208   6.290 -0.5394  1.4532 -2.4509
21753SOL    HW267267   1.779   7.074   6.347  2.3850  1.6325  0.2088
21754SOL     OW67268  10.162   2.783  11.187 -0.0064  0.6066  0.3246
21754SOL    HW167269  10.074   2.752  11.209 -0.3276  1.6393  0.5497
21754SOL    HW267270  10.147   2.856  11.127  0.6660  1.2032  0.8703
21755SOL     OW67271   5.505  11.220   4.379  0.1090  0.2634  0.4715
21755SOL    HW167272   5.489  11.307   4.414 -0.3282  0.1293  0.6184
21755SOL    HW267273   5.425  11.199   4.329  0.7956  0.5341 -0.7894
21756SOL     OW67274   0.023   4.475  10.771  0.0070 -0.4601 -0.2244
21756SOL    HW167275   0.032   4.556  10.722  2.4923  0.9266  2.2562
21756SOL    HW267276  -0.069   4.471  10.796 -0.6506  0.3079 -2.3518
21757SOL     OW67277   1.571   6.891   4.546 -0.1711 -0.2484  0.3774
21757SOL    HW167278   1.492   6.838   4.535 -1.7126  2.2855 -1.6686
21757SOL    HW267279   1.643   6.828   4.537 -1.8442 -2.5577  1.8093
21758SOL     OW67280   8.903  10.294   1.090  0.2710 -0.2340  0.0096
21758SOL    HW167281   8.867  10.274   1.176  1.0601  0.2801  0.4739
21758SOL    HW267282   8.889  10.214   1.039 -1.5135 -0.0494  0.1443
21759SOL     OW67283   5.619   9.877   8.006  0.2159  0.1569  0.4399
21759SOL    HW167284   5.657   9.958   8.039 -0.5137  0.4383  0.5991
21759SOL    HW267285   5.583   9.899   7.920 -0.0123  0.0101  0.4961
21760SOL     OW67286   8.712   0.874   7.297 -0.1115 -0.2314  0.3940
21760SOL    HW167287   8.660   0.804   7.337  1.8938 -0.2507  3.2716
21760SOL    HW267288   8.651   0.948   7.291 -2.1430 -1.9046 -2.2602
21761SOL     OW67289  10.757   4.748   7.639 -0.3885  0.4205  0.3467
21761SOL    HW167290  10.772   4.799   7.719  0.3152  0.2446  0.3322
21761SOL    HW267291  10.695   4.680   7.666 -0.8507  0.9030  0.5188
21762SOL     OW67292   4.874   4.949   9.881 -0.0663 -1.0861 -0.4739
21762SOL    HW167293   4.920   4.867   9.898  0.0855 -0.8115  0.4799
21762SOL    HW267294   4.875   4.995   9.965 -2.3099 -1.1905 -0.3188
21763SOL     OW67295   9.626  10.078   2.115  0.8359  0.1201  0.1111
21763SOL    HW167296   9.644  10.171   2.106 -1.4790  0.5795 -0.2295
21763SOL    HW267297   9.578  10.054   2.036 -1.1417 -0.6630  1.4732
21764SOL     OW67298  10.538   3.841  10.126  0.4177 -0.5403 -0.4256
21764SOL    HW167299  10.623   3.884  10.122  0.1162  0.8560  3.6588
21764SOL    HW267300  10.476   3.910  10.147 -1.4035 -1.8643 -1.1396
21765SOL     OW67301   5.995   9.240   5.824 -0.3511  0.0457  0.1056
21765SOL    HW167302   5.988   9.290   5.742  1.2540 -0.0674 -0.1493
21765SOL    HW267303   6.084   9.259   5.855 -0.9396  0.0918  1.8500
21766SOL     OW67304  11.279   8.373   4.139  0.3829 -0.4759 -0.1144
21766SOL    HW167305  11.281   8.337   4.227 -0.1323  1.4410  0.7419
21766SOL    HW267306  11.369   8.371   4.109  0.4950 -1.5627  0.2600
21767SOL     OW67307  10.596   7.207   6.835  0.3443  0.0337  0.0473
21767SOL    HW167308  10.641   7.136   6.881 -1.6363 -0.5751  1.1823
21767SOL    HW267309  10.656   7.233   6.765  1.2161 -2.6671 -0.3180
21768SOL     OW67310  10.082   8.297   1.099 -0.0965 -0.3247  0.0120
21768SOL    HW167311  10.015   8.233   1.123  0.3412 -0.6896  0.2786
21768SOL    HW267312  10.151   8.284   1.164 -0.7597  1.6360  1.1818
21769SOL     OW67313   1.957   7.043   5.190 -0.0423  0.3970  0.4841
21769SOL    HW167314   2.027   7.072   5.131 -1.0447  1.9120 -0.0215
21769SOL    HW267315   1.966   7.099   5.267 -1.1261  1.1432  0.0976
21770SOL     OW67316   8.324   5.994   1.517  0.3292 -0.1865 -0.2942
21770SOL    HW167317   8.255   5.960   1.575 -0.2514 -0.1440 -0.9473
21770SOL    HW267318   8.280   6.061   1.464  0.1904 -1.9035 -2.4948
21771SOL     OW67319   0.013   0.502   4.094 -0.0076  0.0014  0.5402
21771SOL    HW167320  -0.003   0.587   4.053 -0.7368 -0.5691 -0.3971
21771SOL    HW267321   0.081   0.519   4.159  0.3950  1.1489 -0.1554
21772SOL     OW67322   7.087   6.530   2.849 -0.7986  0.2752  0.4518
21772SOL    HW167323   7.084   6.501   2.758  1.2941  1.0319  0.0733
21772SOL    HW267324   7.150   6.602   2.849 -2.4980  1.8891  2.1120
21773SOL     OW67325   3.919   1.106   1.371  0.1880 -0.4328 -0.0400
21773SOL    HW167326   3.976   1.032   1.391  3.7934  1.9545 -0.4783
21773SOL    HW267327   3.921   1.113   1.276 -1.6519 -0.7681 -0.1466
21774SOL     OW67328   2.078   0.754   8.837 -0.0533  0.1844 -0.5585
21774SOL    HW167329   2.166   0.793   8.834 -0.0210  0.4182  1.5346
21774SOL    HW267330   2.058   0.748   8.931 -2.2926  0.1682 -0.9788
21775SOL     OW67331   7.487   8.143   1.360  0.5641  0.6031  0.0146
21775SOL    HW167332   7.510   8.060   1.318 -0.2493  0.0923  0.5446
21775SOL    HW267333   7.524   8.210   1.303 -0.3473 -0.0712 -1.4127
21776SOL     OW67334   3.679   5.846   9.846  0.1666 -0.0168 -0.2141
21776SOL    HW167335   3.679   5.763   9.798 -2.6969  0.0523 -0.4987
21776SOL    HW267336   3.747   5.835   9.913  0.7558 -2.0748 -1.0613
21777SOL     OW67337  11.218  10.053   0.975 -0.0881 -0.0105  0.1221
21777SOL    HW167338  11.193  10.146   0.981 -1.4512 -0.2735 -0.8775
21777SOL    HW267339  11.312  10.052   0.990 -0.0346  1.5578  0.0418
21778SOL     OW67340   3.506   4.141   6.262  0.1722 -0.0776  0.5872
21778SOL    HW167341   3.575   4.203   6.239 -0.9779  1.2247  0.5402
21778SOL    HW267342   3.438   4.157   6.197 -1.2725  0.5354  2.1944
21779SOL     OW67343   0.139   8.868   6.572  0.5401 -0.4395  0.3451
21779SOL    HW167344   0.124   8.777   6.546 -0.4387 -0.6831  1.6525
21779SOL    HW267345   0.124   8.869   6.667 -1.1009  1.3781  0.1443
21780SOL     OW67346  10.994  10.737   5.341  0.0681 -0.1574  0.0206
21780SOL    HW167347  11.018  10.703   5.427 -2.3419 -1.6898  0.1703
21780SOL    HW267348  10.993  10.660   5.284 -0.5048  0.4877 -0.8742
21781SOL     OW67349   7.627   1.462   5.461 -0.2799  0.1264 -0.6922
21781SOL    HW167350   7.556   1.420   5.511  1.0088  0.1891  1.2974
21781SOL    HW267351   7.684   1.389   5.435  1.0374  0.3662  1.2725
21782SOL     OW67352   4.649   6.581   1.166  0.6327  0.3645 -0.6420
21782SOL    HW167353   4.633   6.554   1.075  0.5095  0.5673 -0.6811
21782SOL    HW267354   4.595   6.520   1.218  2.8673 -1.6334 -0.5047
21783SOL     OW67355   8.722  10.132   1.703 -0.4022  0.6221  0.0390
21783SOL    HW167356   8.817  10.138   1.689 -0.3506  2.1298  0.8020
21783SOL    HW267357   8.699  10.214   1.746 -1.7078 -0.6085  1.8523
21784SOL     OW67358   1.789   8.122   6.933 -0.0755  0.3396  0.2921
21784SOL    HW167359   1.780   8.182   6.859  2.7961 -0.2424 -0.6629
21784SOL    HW267360   1.798   8.035   6.893 -1.5716 -0.4454  1.5323
21785SOL     OW67361   2.432   9.045   0.559 -0.3674 -0.1812 -0.6651
21785SOL    HW167362   2.513   8.996   0.543 -0.6562 -1.0317  0.3383
21785SOL    HW267363   2.369   9.007   0.497  0.1112  0.8513 -1.8279
21786SOL     OW67364   7.636   4.794   4.876 -0.7238  0.1626 -0.7020
21786SOL    HW167365   7.656   4.701   4.888  2.3614  0.7067 -0.7826
21786SOL    HW267366   7.675   4.817   4.792  0.1602  1.8696  0.1008
21787SOL     OW67367   0.243   1.067   8.780 -0.1997 -0.1737 -0.2336
21787SOL    HW167368   0.303   1.075   8.854 -0.1851 -0.4653 -0.2125
21787SOL    HW267369   0.241   0.973   8.761  0.5998  0.0021 -1.2754
21788SOL     OW67370   0.022   4.539   3.325 -0.7618  0.8703  0.4148
21788SOL    HW167371  -0.057   4.583   3.291  0.0778  0.5845 -2.1328
21788SOL    HW267372   0.078   4.610   3.354  0.0404  1.5691 -2.4631
21789SOL     OW67373   6.354   0.681   8.260 -0.5511 -0.2715  0.5216
21789SOL    HW167374   6.326   0.747   8.323 -1.5986  0.7183 -0.9056
21789SOL    HW267375   6.292   0.609   8.271 -2.9530  1.3091 -1.6159
21790SOL     OW67376  10.024   2.308   1.245  0.0071 -0.2264 -0.0867
21790SOL    HW167377  10.022   2.312   1.149  1.0743  0.2058 -0.1009
21790SOL    HW267378  10.117   2.300   1.267 -0.0379  1.6353  0.9762
21791SOL     OW67379   1.604   9.203   3.389  0.3786 -0.3725  0.1985
21791SOL    HW167380   1.540   9.272   3.404  0.2040 -0.3484 -0.5979
21791SOL    HW267381   1.647   9.191   3.473 -0.2244  0.0654  0.5765
21792SOL     OW67382   1.638   7.197   8.305 -0.5857  0.0194  0.0213
21792SOL    HW167383   1.570   7.133   8.323 -1.3152  0.8736  0.4148
21792SOL    HW267384   1.720   7.152   8.323 -0.7339 -2.2641 -3.9527
21793SOL     OW67385   4.636   8.532   9.535  0.1195  0.0426 -0.4536
21793SOL    HW167386   4.560   8.590   9.525  0.0354  0.2316  1.1254
21793SOL    HW267387   4.598   8.444   9.530 -0.3883  0.1245  1.2534
21794SOL     OW67388   6.676   5.130   7.783 -0.2438 -0.6852 -0.6823
21794SOL    HW167389   6.674   5.219   7.748  1.5045  0.2181  1.2941
21794SOL    HW267390   6.608   5.084   7.735 -0.7195  1.5163 -2.2797
21795SOL     OW67391   6.980  10.044   5.703  0.1180 -0.1174 -0.0280
21795SOL    HW167392   6.907  10.092   5.664 -0.5763 -0.2075  1.1285
21795SOL    HW267393   6.971   9.955   5.668  0.5444  0.2190 -1.0239
21796SOL     OW67394   2.692   4.111   0.788  0.6211 -0.0909  0.5869
21796SOL    HW167395   2.629   4.183   0.796 -1.0425 -1.2752 -0.9765
21796SOL    HW267396   2.687   4.065   0.872 -2.7344 -1.7045 -0.3074
21797SOL     OW67397   9.314  11.183   6.216 -0.2771 -0.6821 -0.5795
21797SOL    HW167398   9.258  11.240   6.162  0.3838 -0.4518 -1.0403
21797SOL    HW267399   9.403  11.215   6.199  0.0087 -1.1655 -0.0056
21798SOL     OW67400   9.593   3.137   0.073  0.6293  0.2776  0.1334
21798SOL    HW167401   9.620   3.163  -0.015 -2.4091 -0.1752 -1.0629
21798SOL    HW267402   9.602   3.041   0.073  0.6066  0.2751  0.3077
21799SOL     OW67403   1.265  10.566   9.048  0.7859  0.2079 -0.5220
21799SOL    HW167404   1.183  10.536   9.008  2.1380 -3.0370 -1.1615
21799SOL    HW267405   1.240  10.592   9.137 -0.8987 -1.3046 -0.4883
21800SOL     OW67406   0.235   2.490   3.003 -0.1144  0.3370  0.7309
21800SOL    HW167407   0.296   2.537   2.947 -0.2648  1.8954  1.8086
21800SOL    HW267408   0.209   2.554   3.070 -1.1890 -0.9578  1.6165
21801SOL     OW67409   8.096   7.933   0.638  0.0666 -0.4795 -0.3546
21801SOL    HW167410   8.131   8.019   0.659  0.6076 -0.4819 -1.1905
21801SOL    HW267411   8.018   7.925   0.692  0.8203 -0.0770  0.8352
21802SOL     OW67412  11.155   9.015   4.918 -0.5689  0.4291 -0.5061
21802SOL    HW167413  11.113   9.005   4.832 -4.2593  0.4421  1.1184
21802SOL    HW267414  11.206   8.935   4.929 -1.7075 -0.5382 -1.8746
21803SOL     OW67415   0.122   8.862   6.845  0.1685  0.1602 -0.2836
21803SOL    HW167416   0.086   8.903   6.923 -2.5436 -2.2833 -0.0373
21803SOL    HW267417   0.163   8.781   6.876  1.9853  0.7121 -1.1030
21804SOL     OW67418   6.652   8.096   9.143 -0.6099 -0.4495 -0.7308
21804SOL    HW167419   6.664   8.116   9.236 -0.7093 -1.5446 -0.4754
21804SOL    HW267420   6.558   8.110   9.128 -0.3326  1.2713 -1.0616
21805SOL     OW67421   5.566  11.257   2.930 -0.3846 -0.2987 -0.2871
21805SOL    HW167422   5.511  11.275   3.006  0.1006 -0.6793  0.1596
21805SOL    HW267423   5.649  11.301   2.949 -1.5013  3.0607 -2.3762
21806SOL     OW67424  10.168   6.756   0.883  0.3124 -0.3232  0.2985
21806SOL    HW167425  10.074   6.745   0.896  0.0150  0.8904 -0.5963
21806SOL    HW267426  10.198   6.672   0.849 -1.4498  0.6758 -4.4600
21807SOL     OW67427   8.424   7.009   7.626 -0.1100  0.3210 -0.4556
21807SOL    HW167428   8.437   6.991   7.719 -0.1483 -0.0361 -0.5149
21807SOL    HW267429   8.380   6.931   7.593  3.1948 -1.2770 -1.5555
21808SOL     OW67430   5.198   3.222   9.432  0.5874 -0.0851  0.1332
21808SOL    HW167431   5.237   3.287   9.372 -0.1021 -1.3452 -1.7835
21808SOL    HW267432   5.237   3.242   9.517  2.4517  1.1425 -0.9227
21809SOL     OW67433   7.635   6.688   6.201  0.4290  0.4831 -0.0913
21809SOL    HW167434   7.707   6.635   6.168  2.5753  1.4426  2.6792
21809SOL    HW267435   7.577   6.626   6.245  0.3773 -0.0921 -0.9438
21810SOL     OW67436   0.285   0.760   6.775 -0.3309  0.7994  0.7118
21810SOL    HW167437   0.251   0.836   6.728 -1.1706 -1.3350 -2.3838
21810SOL    HW267438   0.379   0.779   6.785 -0.2638  1.7087 -1.1851
21811SOL     OW67439   6.138   3.345   2.799 -0.2553 -0.2292  0.1492
21811SOL    HW167440   6.135   3.425   2.851 -1.3078 -0.1083 -0.0717
21811SOL    HW267441   6.100   3.369   2.715  0.9493 -0.5595 -0.5050
21812SOL     OW67442   8.189   7.873   3.066  0.6198 -0.3171  0.1730
21812SOL    HW167443   8.176   7.966   3.082 -0.5423 -0.0039 -2.1361
21812SOL    HW267444   8.110   7.832   3.102  0.5441 -0.2511  0.0839
21813SOL     OW67445   7.646   5.566   3.101  0.5113 -0.2319 -0.1881
21813SOL    HW167446   7.740   5.578   3.091  0.8160  0.7625  2.8335
21813SOL    HW267447   7.635   5.471   3.108  1.4879 -0.2986  0.7214
21814SOL     OW67448   0.570  11.135   1.221  0.1494  0.3974  0.3301
21814SOL    HW167449   0.665  11.136   1.212  0.2919 -0.6398  1.4625
21814SOL    HW267450   0.547  11.224   1.248  0.3390  1.7759 -3.4394
21815SOL     OW67451   6.648   0.833   9.617  0.0725 -0.1174  0.0175
21815SOL    HW167452   6.724   0.779   9.636  0.0049 -0.7215 -1.2933
21815SOL    HW267453   6.574   0.774   9.623 -0.1474  0.1428 -0.1020
21816SOL     OW67454   5.410   5.524   2.740 -0.0617  0.0054 -0.4084
21816SOL    HW167455   5.443   5.492   2.824 -1.3430  3.1952  1.5096
21816SOL    HW267456   5.470   5.487   2.675  1.6463 -1.7481  1.9840
21817SOL     OW67457   7.261   3.930   4.723 -0.1789  0.0729 -0.4182
21817SOL    HW167458   7.213   3.854   4.689  0.7464 -0.9231  0.4187
21817SOL    HW267459   7.302   3.898   4.803  1.0750  1.1636 -0.5943
21818SOL     OW67460   1.240   3.089   6.585  0.7347 -0.2313 -0.0200
21818SOL    HW167461   1.185   3.030   6.533  1.0066  1.0907 -1.9340
21818SOL    HW267462   1.179   3.154   6.620  0.7173 -0.3503  0.1678
21819SOL     OW67463   3.306  11.124   3.993 -0.3929  0.0811 -0.2046
21819SOL    HW167464   3.260  11.084   4.067  0.0037 -0.5450 -0.2907
21819SOL    HW267465   3.250  11.107   3.917  0.9761 -2.6753 -0.7231
21820SOL     OW67466  10.216   5.016   3.158  0.4672  0.5840 -0.2379
21820SOL    HW167467  10.288   4.964   3.197  0.2831  0.3849 -0.1595
21820SOL    HW267468  10.237   5.019   3.065  1.4930  1.9808 -0.0003
21821SOL     OW67469   6.788   2.602   8.835  0.7582 -0.3054 -0.0831
21821SOL    HW167470   6.774   2.627   8.743 -0.6592 -0.9878 -0.0795
21821SOL    HW267471   6.729   2.659   8.884  1.8192  0.3465  0.4552
21822SOL     OW67472   7.594   3.963   6.923 -0.5311  0.2027 -0.2335
21822SOL    HW167473   7.505   3.935   6.948 -1.7814  1.9254 -2.3617
21822SOL    HW267474   7.582   4.051   6.888  1.9721  0.2970 -1.0515
21823SOL     OW67475   8.891   9.746   2.065 -0.2390 -0.0314 -0.2152
21823SOL    HW167476   8.965   9.734   2.005  0.1630 -0.7405  0.3897
21823SOL    HW267477   8.890   9.665   2.117 -2.1429 -0.5388 -0.9533
21824SOL     OW67478   4.127  10.505   8.731 -0.1755  0.2934 -0.1144
21824SOL    HW167479   4.215  10.519   8.696 -0.7217  0.1226 -1.5943
21824SOL    HW267480   4.122  10.411   8.748  0.0503  0.3606  0.3407
21825SOL     OW67481   9.157   5.206  10.327 -0.3217 -0.0177  0.5505
21825SOL    HW167482   9.245   5.174  10.346  0.5082 -0.2713 -3.0408
21825SOL    HW267483   9.169   5.271  10.258 -2.9137  0.5534  0.5188
21826SOL     OW67484   1.763   8.940   4.733 -0.4086  0.0946  0.1292
21826SOL    HW167485   1.752   9.010   4.668 -1.9447 -0.4471 -0.2390
21826SOL    HW267486   1.858   8.932   4.744 -0.1813  2.1518  0.1118
21827SOL     OW67487   7.950   9.087   1.542 -0.8766 -0.2513 -0.2684
21827SOL    HW167488   8.023   9.034   1.512 -0.4329  0.9532 -1.4328
21827SOL    HW267489   7.948   9.162   1.481 -2.6762  0.0655  0.1171
21828SOL     OW67490   8.739   9.495   3.747 -0.4233 -0.4295 -0.0944
21828SOL    HW167491   8.815   9.440   3.731  0.7840  1.3836 -0.8670
21828SOL    HW267492   8.689   9.490   3.665 -0.3508 -0.4381 -0.1384
21829SOL     OW67493   1.194   7.750  10.484  0.6133 -0.5926 -0.6759
21829SOL    HW167494   1.102   7.774  10.490  1.0902  1.2218 -0.2502
21829SOL    HW267495   1.230   7.807  10.416  1.2814 -1.8291 -1.4159
21830SOL     OW67496   5.017   4.132   0.030 -0.1657  0.6366  0.2826
21830SOL    HW167497   4.947   4.175  -0.019 -1.5251  0.0957  1.6754
21830SOL    HW267498   5.031   4.188   0.106  2.0900  1.5974 -0.7627
21831SOL     OW67499  10.411  10.991   7.851  0.9152 -0.4788 -0.6174
21831SOL    HW167500  10.392  10.937   7.774  3.0235 -4.3724  1.2759
21831SOL    HW267501  10.490  11.039   7.828  1.0359 -0.9416 -1.1858
21832SOL     OW67502   6.064  10.696   9.767  0.1928 -0.0557 -0.6206
21832SOL    HW167503   6.155  10.666   9.777  0.5597  1.6615  1.9895
21832SOL    HW267504   6.072  10.790   9.748 -1.0410  0.0481 -0.7074
21833SOL     OW67505   2.092   1.775   3.774 -0.3691 -0.2489  0.4905
21833SOL    HW167506   2.143   1.778   3.855 -1.2788  0.0469  1.0606
21833SOL    HW267507   2.133   1.705   3.723  0.4065 -0.2311  1.0692
21834SOL     OW67508  11.089   7.585   1.974  0.1257 -0.0734  0.4437
21834SOL    HW167509  11.017   7.616   1.919  0.3493  0.1723  0.2894
21834SOL    HW267510  11.127   7.664   2.010 -0.5071 -0.2698  1.5862
21835SOL     OW67511   2.388   5.493   5.003  0.3074  0.3229 -0.4144
21835SOL    HW167512   2.315   5.512   5.062 -0.3303 -0.4395 -0.9376
21835SOL    HW267513   2.397   5.398   5.006 -0.1918  0.1910 -2.0386
21836SOL     OW67514   4.172   4.602   4.673 -0.7870 -0.1943 -0.8051
21836SOL    HW167515   4.125   4.585   4.592 -1.8027  2.3923 -0.8476
21836SOL    HW267516   4.105   4.633   4.734  0.3953  0.7538  0.0660
21837SOL     OW67517  11.012   7.245   7.311 -0.5917 -0.5391 -0.4012
21837SOL    HW167518  10.961   7.307   7.259 -0.5589 -1.3112 -1.4077
21837SOL    HW267519  11.009   7.279   7.400 -0.7574  0.7702 -0.8857
21838SOL     OW67520   1.285   1.028   0.169 -0.1187 -0.2577  0.6031
21838SOL    HW167521   1.262   1.099   0.229 -0.3945  0.6413 -0.5068
21838SOL    HW267522   1.343   1.070   0.105 -0.2121 -1.0658 -0.0234
21839SOL     OW67523   1.434   3.517   3.727 -0.1280 -0.1912 -0.2208
21839SOL    HW167524   1.523   3.493   3.755 -0.5210 -0.1084  1.1490
21839SOL    HW267525   1.379   3.446   3.758 -0.4611 -0.6556 -1.7966
21840SOL     OW67526   4.877   3.518   9.511  0.1910 -0.2925  0.1787
21840SOL    HW167527   4.966   3.483   9.510 -0.1100 -1.0952 -1.1809
21840SOL    HW267528   4.884   3.603   9.468  0.3543 -0.1885  0.4079
21841SOL     OW67529  10.840   9.379  11.204  0.5094 -0.1713  0.5745
21841SOL    HW167530  10.786   9.402  11.280  0.9125  2.8420  0.0714
21841SOL    HW267531  10.892   9.457  11.187  0.0662 -0.4827 -3.1320
21842SOL     OW67532   8.264   0.367   8.459  0.0145  0.3611 -0.2566
21842SOL    HW167533   8.310   0.435   8.409  0.2416  1.8415  1.8146
21842SOL    HW267534   8.329   0.336   8.522 -0.7160 -0.3046  0.1841
21843SOL     OW67535   3.608   8.667  10.184 -0.0153  0.3132  0.5045
21843SOL    HW167536   3.529   8.687  10.133  0.7935 -0.2228 -1.0158
21843SOL    HW267537   3.575   8.643  10.271 -1.5453 -0.3132 -0.2208
21844SOL     OW67538   4.346  10.221   2.474  0.2393  0.3897  0.4326
21844SOL    HW167539   4.319  10.302   2.430  1.8491  0.9415  0.4027
21844SOL    HW267540   4.439  10.234   2.494 -0.1156 -0.3807  2.8598
21845SOL     OW67541   7.755   6.934   4.422 -0.6665  0.0531 -0.2948
21845SOL    HW167542   7.848   6.956   4.418 -0.9969  1.5372 -0.1867
21845SOL    HW267543   7.728   6.956   4.511 -0.6467 -2.4969  0.4121
21846SOL     OW67544   4.195   5.315   3.710  0.6161 -0.4191  0.2138
21846SOL    HW167545   4.110   5.311   3.754 -0.0950 -0.6784 -1.1154
21846SOL    HW267546   4.233   5.228   3.723 -0.5442 -1.2286 -1.4394
21847SOL     OW67547   1.873  10.992   5.979 -0.6294  0.5395 -0.0543
21847SOL    HW167548   1.866  10.897   5.987 -1.5764  0.6484  0.7490
21847SOL    HW267549   1.782  11.021   5.973 -0.4254  1.4738  1.0157
21848SOL     OW67550   3.557   9.719   8.829  0.6832  0.6253  0.0202
21848SOL    HW167551   3.576   9.794   8.884  0.6949 -0.6576  1.8618
21848SOL    HW267552   3.633   9.711   8.771  1.3053  1.2115  0.7433
21849SOL     OW67553  11.214   8.869   9.331  0.4101  0.1561  0.7681
21849SOL    HW167554  11.153   8.927   9.288 -0.2310 -0.4484  0.8424
21849SOL    HW267555  11.274   8.927   9.378  2.2562  0.9363 -2.3152
21850SOL     OW67556   1.933   7.288   1.587  0.0570  0.1351 -0.6464
21850SOL    HW167557   2.009   7.237   1.615  0.8646  0.3361 -2.3735
21850SOL    HW267558   1.860   7.255   1.640  1.3546  0.0673  1.1845
21851SOL     OW67559   5.267   7.420   8.726 -0.1669 -0.2235 -0.0352
21851SOL    HW167560   5.246   7.361   8.799 -0.0683 -0.9194 -0.5636
21851SOL    HW267561   5.342   7.379   8.683 -0.3281  0.0938 -0.6324
21852SOL     OW67562   4.170   9.558   5.875  0.4138 -0.3859 -0.0169
21852SOL    HW167563   4.112   9.579   5.948 -1.0796  0.5235 -1.3829
21852SOL    HW267564   4.212   9.475   5.900 -1.3161 -0.9599  1.1473
21853SOL     OW67565   7.987   1.041   6.506 -0.6704  0.3766 -0.4657
21853SOL    HW167566   8.000   1.136   6.503 -0.8861  0.7734  4.0634
21853SOL    HW267567   8.052   1.009   6.569 -0.6974 -2.5269 -1.7404
21854SOL     OW67568   3.219   3.213   3.348 -0.6987 -0.0318 -0.5929
21854SOL    HW167569   3.309   3.229   3.377 -1.5041  1.4368  1.3302
21854SOL    HW267570   3.228   3.163   3.267  1.9010  1.7648 -1.5552
21855SOL     OW67571  10.895   5.377   3.788  0.1343 -0.1959  0.0106
21855SOL    HW167572  10.893   5.290   3.827 -0.2974 -1.6870 -3.0080
21855SOL    HW267573  10.979   5.381   3.743 -0.3362  0.4582 -0.8433
21856SOL     OW67574   7.266   7.333   3.313  0.0706 -0.3489 -0.6030
21856SOL    HW167575   7.195   7.328   3.376 -0.1964  0.1921 -0.8474
21856SOL    HW267576   7.285   7.242   3.290  0.4923 -0.5817  0.6020
21857SOL     OW67577   2.539  10.970   2.905  0.0353  0.1700 -0.1638
21857SOL    HW167578   2.553  10.888   2.952  0.0575 -0.2752 -0.9246
21857SOL    HW267579   2.590  11.035   2.954 -0.8486 -0.0358  1.0694
21858SOL     OW67580   8.099  10.050   5.637  0.0699  0.6118  0.1250
21858SOL    HW167581   8.185  10.089   5.626  0.0007  0.5606 -0.6791
21858SOL    HW267582   8.045  10.092   5.570 -0.4518  0.4176  0.4157
21859SOL     OW67583   9.309   6.215   4.074 -0.5688  0.6847  0.6826
21859SOL    HW167584   9.264   6.247   4.153  2.1653  1.5288  2.0224
21859SOL    HW267585   9.394   6.186   4.105  1.2194  2.4274 -2.1301
21860SOL     OW67586   5.696   8.202   6.502 -0.3341 -0.0125 -0.9636
21860SOL    HW167587   5.717   8.127   6.557 -0.4924 -1.1980 -2.4424
21860SOL    HW267588   5.761   8.268   6.526 -1.7848  0.4270  2.2394
21861SOL     OW67589   0.775   9.728   2.394 -0.0336 -0.6887 -0.8997
21861SOL    HW167590   0.692   9.760   2.358 -0.0710 -0.7897 -0.9037
21861SOL    HW267591   0.767   9.632   2.392 -0.7850 -0.7277  1.0703
21862SOL     OW67592   9.929   2.650   0.009  0.2495 -0.3635  0.0631
21862SOL    HW167593   9.897   2.697  -0.068  1.0623 -0.4713 -0.3546
21862SOL    HW267594   9.857   2.654   0.071 -0.2931  0.0255 -0.5747
21863SOL     OW67595   5.402   3.180   6.524  0.0532  0.1241 -0.2866
21863SOL    HW167596   5.412   3.087   6.508 -0.0307  0.1732 -0.6393
21863SOL    HW267597   5.310   3.199   6.501  0.4307  0.5473 -1.5332
21864SOL     OW67598   6.588   8.689   4.028 -0.2924  0.3529 -0.0645
21864SOL    HW167599   6.589   8.784   4.042 -1.6223  0.9139 -3.0017
21864SOL    HW267600   6.619   8.678   3.938  1.6427 -2.2297  0.7933
21865SOL     OW67601   9.957   0.175   1.961  0.1746 -0.2010  0.3159
21865SOL    HW167602  10.029   0.159   1.900 -0.2188 -0.8283 -0.0013
21865SOL    HW267603   9.984   0.132   2.042  1.0075  1.2248  0.8310
21866SOL     OW67604   5.428   8.812   2.530 -0.6786  0.4197 -0.3049
21866SOL    HW167605   5.416   8.907   2.533 -1.0104  0.4315 -1.3799
21866SOL    HW267606   5.463   8.789   2.615  2.0859  1.8923 -0.9386
21867SOL     OW67607  11.218   9.769  10.752 -0.2704  0.0686  0.1265
21867SOL    HW167608  11.273   9.761  10.830  1.2023 -1.4464 -0.9857
21867SOL    HW267609  11.212   9.680  10.718 -2.1359  0.4651 -0.6881
21868SOL     OW67610   3.559  10.822   4.153  0.0060 -0.4832 -0.6109
21868SOL    HW167611   3.651  10.797   4.164 -0.4222 -1.6610  0.5310
21868SOL    HW267612   3.556  10.914   4.180  0.8215 -0.4655 -0.5421
21869SOL     OW67613   4.189   6.159  10.092 -0.4056  0.2979 -0.3786
21869SOL    HW167614   4.224   6.148  10.003 -0.7497 -0.9351 -0.3888
21869SOL    HW267615   4.254   6.117  10.148 -0.8826 -0.2355 -0.2090
21870SOL     OW67616   0.842   6.181   1.060  0.1830 -0.5868 -0.4405
21870SOL    HW167617   0.820   6.264   1.103 -4.4109 -1.4336 -0.6032
21870SOL    HW267618   0.823   6.197   0.967 -0.5361 -1.6979 -0.4990
21871SOL     OW67619  10.313   4.143   9.752  0.3279  0.1128 -0.0731
21871SOL    HW167620  10.288   4.097   9.672 -3.5267  1.0420  0.3975
21871SOL    HW267621  10.339   4.230   9.722  1.6708 -0.4010 -0.4697
21872SOL     OW67622   2.561   2.670   4.419  0.2465 -0.0327  0.3698
21872SOL    HW167623   2.605   2.614   4.354  0.3455 -0.7281  1.0213
21872SOL    HW267624   2.626   2.684   4.486  0.3731  1.2817 -0.0084
21873SOL     OW67625   4.057   1.692   8.583 -0.2118  0.4397  0.6234
21873SOL    HW167626   4.142   1.654   8.560 -1.2443 -0.7955 -1.5369
21873SOL    HW267627   4.023   1.633   8.651 -0.0001 -0.0142  0.3448
21874SOL     OW67628   0.102   1.533   9.735 -0.0702  0.3675  0.1009
21874SOL    HW167629   0.007   1.542   9.738 -0.3473 -0.7979 -2.3836
21874SOL    HW267630   0.135   1.622   9.729 -1.4932  0.8883 -4.9052
21875SOL     OW67631   1.260   4.895   0.281 -0.4752 -0.1337 -0.2468
21875SOL    HW167632   1.198   4.832   0.244  0.5152 -1.8822  0.9157
21875SOL    HW267633   1.344   4.871   0.242 -0.3513  1.8515 -1.3769
21876SOL     OW67634   0.502   5.957   2.386 -0.0590 -0.1034 -0.4814
21876SOL    HW167635   0.524   5.870   2.354  2.6877  0.3227 -0.0414
21876SOL    HW267636   0.492   5.947   2.481 -1.7064 -0.2323 -0.6390
21877SOL     OW67637   8.349   9.887   6.816 -0.0346 -0.2700 -0.0145
21877SOL    HW167638   8.287   9.959   6.824  0.9141  0.4499  1.2148
21877SOL    HW267639   8.374   9.887   6.724 -0.4952  0.5811 -0.1508
21878SOL     OW67640  11.150   0.181   4.837 -0.1146 -0.2015  0.7478
21878SOL    HW167641  11.136   0.100   4.885 -2.1605 -0.7231 -0.6209
21878SOL    HW267642  11.224   0.223   4.882  0.1606 -2.1824  2.2689
21879SOL     OW67643   3.471   1.217   0.260 -0.9626  0.4137 -0.0070
21879SOL    HW167644   3.497   1.223   0.351 -1.2737 -0.4760  0.1510
21879SOL    HW267645   3.542   1.171   0.217 -0.2967  1.8012 -0.4573
21880SOL     OW67646   5.450   2.372   5.670  0.2011 -0.1498  0.2449
21880SOL    HW167647   5.530   2.325   5.648 -0.6275 -1.2073 -0.6662
21880SOL    HW267648   5.453   2.382   5.765  0.3259 -2.3002  0.5155
21881SOL     OW67649   7.464   5.673   5.771 -0.3954  0.3027 -0.0855
21881SOL    HW167650   7.472   5.728   5.848 -0.4630 -1.3331  1.1623
21881SOL    HW267651   7.406   5.721   5.712 -5.0309 -0.6069  3.1568
21882SOL     OW67652   8.446   1.497  10.523 -0.3105 -0.6562 -0.5903
21882SOL    HW167653   8.371   1.513  10.580 -1.1713 -2.1004 -1.2649
21882SOL    HW267654   8.462   1.403  10.529  0.9913 -0.4820 -1.0184
21883SOL     OW67655   5.006   0.950  10.936 -0.4597 -0.0034 -0.0756
21883SOL    HW167656   4.951   1.018  10.896  0.0549  0.2170 -0.4115
21883SOL    HW267657   4.953   0.870  10.930 -1.0176  0.3350  0.2087
21884SOL     OW67658   6.856   8.801   1.489  0.1798 -0.3221  0.4598
21884SOL    HW167659   6.766   8.799   1.457 -0.4569  1.5830  1.9440
21884SOL    HW267660   6.905   8.846   1.421  0.1847 -1.8795 -0.6216
21885SOL     OW67661   9.201   2.663   1.636  0.3011  0.3530 -0.6035
21885SOL    HW167662   9.139   2.590   1.635  1.4310 -0.6477  0.3423
21885SOL    HW267663   9.267   2.639   1.701  0.1356  2.7109  0.5553
21886SOL     OW67664   2.132   6.476   3.254  1.0614 -1.0140  0.7246
21886SOL    HW167665   2.042   6.500   3.228  0.9652 -1.2178  0.8705
21886SOL    HW267666   2.170   6.558   3.284  1.1960 -0.7526 -0.1212
21887SOL     OW67667   0.168   5.549   1.632  0.1332  0.1116  0.4654
21887SOL    HW167668   0.085   5.548   1.680 -0.4332  0.2771 -0.4723
21887SOL    HW267669   0.151   5.606   1.557  0.0194 -2.4237 -1.5711
21888SOL     OW67670   4.788   6.237   2.716  0.4221  0.5107 -0.0329
21888SOL    HW167671   4.731   6.312   2.729 -1.0713 -0.4678 -0.6801
21888SOL    HW267672   4.776   6.213   2.624  3.8772  1.8247 -0.9760
21889SOL     OW67673   2.466   1.054   5.078 -0.2152  0.3414 -0.1337
21889SOL    HW167674   2.501   0.990   5.140  3.2725  0.3725 -1.8468
21889SOL    HW267675   2.441   1.129   5.132  0.0928 -0.6526  1.4720
21890SOL     OW67676   6.102  10.962   7.768  0.1108  0.3135  0.1751
21890SOL    HW167677   6.195  10.977   7.785 -0.2798  2.0201  1.0226
21890SOL    HW267678   6.060  11.045   7.789 -1.5171 -0.1614 -1.0082
21891SOL     OW67679   5.241   5.953   4.810 -0.4081  0.5897 -0.3374
21891SOL    HW167680   5.295   5.946   4.889  0.2846 -1.9356 -0.9491
21891SOL    HW267681   5.151   5.941   4.842 -0.3731  1.9283  0.3224
21892SOL     OW67682   0.249   7.812   3.709 -0.2956  0.0296 -0.2130
21892SOL    HW167683   0.291   7.897   3.720 -0.6683  0.1135  0.6394
21892SOL    HW267684   0.172   7.830   3.654 -0.9504  0.4407  0.8127
21893SOL     OW67685   9.638   7.926   5.942 -0.0956  0.1411  0.1161
21893SOL    HW167686   9.564   7.957   5.890 -1.4077  0.2681  1.9591
21893SOL    HW267687   9.640   7.832   5.928  0.1930  0.2915 -0.9082
21894SOL     OW67688   1.765   0.248   0.245 -0.5437 -0.1432 -0.4349
21894SOL    HW167689   1.851   0.205   0.239 -1.0272 -1.1646 -0.1589
21894SOL    HW267690   1.784   0.332   0.286  0.4546  0.0447 -1.2205
21895SOL     OW67691   5.351  10.358   2.513  0.4105 -0.1526 -0.5176
21895SOL    HW167692   5.417  10.298   2.549  0.8274  0.8015  0.3708
21895SOL    HW267693   5.270  10.331   2.555  0.7819  0.5358  0.6943
21896SOL     OW67694   4.081   2.270   7.680 -0.1293 -1.1383 -0.1705
21896SOL    HW167695   4.001   2.322   7.684  0.8972  0.5258 -0.1506
21896SOL    HW267696   4.065   2.196   7.739 -1.7551 -1.0295 -0.4382
21897SOL     OW67697   6.687  10.113   5.365 -0.2098  1.1690 -0.0947
21897SOL    HW167698   6.592  10.100   5.370  0.0936 -1.4633  0.2391
21897SOL    HW267699   6.708  10.096   5.273 -0.0672  2.0100 -0.2257
21898SOL     OW67700   7.806   9.650   7.669  0.5896 -0.0355  0.1163
21898SOL    HW167701   7.879   9.591   7.648  0.5984  0.2856 -0.8126
21898SOL    HW267702   7.729   9.608   7.630  0.3098 -0.2618  0.8991
21899SOL     OW67703   5.023   0.881   9.790  1.0048 -0.0634  0.0813
21899SOL    HW167704   4.958   0.951   9.796  0.3963 -0.6154  0.1126
21899SOL    HW267705   5.057   0.887   9.700 -0.5752 -1.0287 -0.6302
21900SOL     OW67706   8.502   9.263   8.405  0.5137 -0.4588 -0.3797
21900SOL    HW167707   8.581   9.245   8.455  0.2411 -0.2358  0.1338
21900SOL    HW267708   8.513   9.353   8.373  0.6739 -0.5902 -0.7050
21901SOL     OW67709   1.080   6.143   4.556 -0.1083 -0.1069  0.6581
21901SOL    HW167710   1.157   6.118   4.504 -1.4815 -0.9340 -1.1062
21901SOL    HW267711   1.054   6.062   4.600 -1.0333 -0.3148 -0.2419
21902SOL     OW67712   6.332   0.882  11.087  0.0668 -0.0898  0.7389
21902SOL    HW167713   6.359   0.967  11.123 -0.5209 -0.1932  1.4328
21902SOL    HW267714   6.390   0.869  11.012  0.3554  0.7937  0.7964
21903SOL     OW67715   9.064   0.444   0.429  0.1907 -0.3202  0.2054
21903SOL    HW167716   9.023   0.449   0.343 -1.6797 -1.5209  0.9655
21903SOL    HW267717   9.003   0.489   0.487  0.5729 -1.0357  1.1818
21904SOL     OW67718   6.158   9.922   2.948 -0.0189  0.2577  0.8295
21904SOL    HW167719   6.066   9.945   2.960 -0.2889  0.0616 -0.6582
21904SOL    HW267720   6.158   9.861   2.874  1.2860  0.1300  0.9137
21905SOL     OW67721   0.163  11.204   4.235 -0.2439  0.0556  0.3932
21905SOL    HW167722   0.073  11.230   4.216  0.7428  2.3367 -1.6763
21905SOL    HW267723   0.186  11.254   4.314 -0.2628  0.8469 -0.0950
21906SOL     OW67724   0.696   1.699   3.981 -0.1303 -0.1624 -0.4582
21906SOL    HW167725   0.642   1.776   3.963 -2.9805 -1.3974  1.9251
21906SOL    HW267726   0.658   1.630   3.927  0.2437 -0.6791 -0.0682
21907SOL     OW67727   9.430   1.247   1.247 -0.4585 -0.0921  0.0946
21907SOL    HW167728   9.356   1.188   1.263  0.0888 -0.8905 -0.2575
21907SOL    HW267729   9.392   1.335   1.251 -1.2778 -0.4634  0.6722
21908SOL     OW67730   0.476   4.111   4.152  0.5281  0.2396 -0.3586
21908SOL    HW167731   0.452   4.195   4.111 -0.4064 -1.0519 -2.6371
21908SOL    HW267732   0.416   4.103   4.226  0.5798  1.5450 -0.1511
21909SOL     OW67733   5.625   6.582   0.601 -0.2678 -0.1805  0.4407
21909SOL    HW167734   5.608   6.592   0.508 -1.7609 -0.4734  0.6530
21909SOL    HW267735   5.581   6.657   0.642  0.4916  0.0229  0.9156
21910SOL     OW67736   0.341   8.302  10.565 -0.1338  0.1923 -0.1809
21910SOL    HW167737   0.405   8.239  10.596 -0.7656 -0.1404  0.4793
21910SOL    HW267738   0.257   8.256  10.571 -0.1931 -0.5129 -3.9384
21911SOL     OW67739   6.318   7.682   8.476  0.7337 -0.1754  0.2891
21911SOL    HW167740   6.275   7.604   8.441 -2.3059  2.1077 -1.7417
21911SOL    HW267741   6.263   7.709   8.549  0.4061  1.1534 -0.4039
21912SOL     OW67742  10.232   8.907  10.602  0.1612  0.0559  0.4302
21912SOL    HW167743  10.263   8.921  10.512 -0.8121 -0.6278 -0.0188
21912SOL    HW267744  10.157   8.965  10.611  0.0627 -0.1114  0.6998
21913SOL     OW67745  10.822   2.726  10.643 -0.3864 -0.3114 -0.1767
21913SOL    HW167746  10.874   2.792  10.688  0.4175 -0.2495 -1.1640
21913SOL    HW267747  10.868   2.712  10.560 -2.1271  0.0231 -1.2480
21914SOL     OW67748   7.727   6.788   2.856  0.4469 -1.0937 -0.2489
21914SOL    HW167749   7.718   6.695   2.833 -2.5681 -0.3633 -2.7860
21914SOL    HW267750   7.657   6.804   2.919 -0.7305 -0.1216 -1.7226
21915SOL     OW67751  10.397  11.263   2.925  0.0833 -0.0650  0.4173
21915SOL    HW167752  10.487  11.264   2.891 -0.0879  1.0780 -0.0538
21915SOL    HW267753  10.352  11.198   2.871  0.8369 -1.3174  1.2595
21916SOL     OW67754   0.346   3.647   1.905 -0.8049  0.1293 -0.8099
21916SOL    HW167755   0.308   3.579   1.849 -2.1311 -1.1855  1.5150
21916SOL    HW267756   0.426   3.608   1.939 -0.1535  0.8114 -1.5308
21917SOL     OW67757   6.156   3.115   8.068  0.6695 -0.0065  0.0574
21917SOL    HW167758   6.227   3.173   8.096  0.3024  0.4573  0.0381
21917SOL    HW267759   6.185   3.080   7.984  2.0001 -1.7855  1.1930
21918SOL     OW67760   2.069   8.454   0.691  0.5355  0.6166 -0.0915
21918SOL    HW167761   2.041   8.373   0.648 -0.5809  2.3855 -3.0504
21918SOL    HW267762   1.987   8.495   0.719  0.6817  2.3077 -1.9083
21919SOL     OW67763  10.466   1.028   9.665  0.0707 -0.5753  0.0318
21919SOL    HW167764  10.561   1.021   9.652  0.2133 -0.4129  0.9668
21919SOL    HW267765  10.456   1.095   9.732 -0.8223  1.0216 -1.6150
21920SOL     OW67766   9.423   3.172   3.681  0.1698 -0.5615  0.6725
21920SOL    HW167767   9.336   3.135   3.694  0.3397 -0.7238  1.3559
21920SOL    HW267768   9.472   3.149   3.760  0.7503 -0.2335  0.4177
21921SOL     OW67769   3.442   1.830   2.140 -0.3637  0.5474 -0.1096
21921SOL    HW167770   3.475   1.911   2.179 -4.2939  2.4312 -0.1944
21921SOL    HW267771   3.440   1.848   2.046 -0.4269  0.0232 -0.2105
21922SOL     OW67772   4.887   2.327   2.167 -0.2567 -0.1093  0.2392
21922SOL    HW167773   4.868   2.419   2.185 -1.5088 -0.2112 -0.4061
21922SOL    HW267774   4.897   2.323   2.072 -2.7313 -1.0112 -0.0490
21923SOL     OW67775   2.690   6.289   1.928  0.0542 -0.3095  0.0062
21923SOL    HW167776   2.690   6.206   1.881 -1.6837  0.8657 -2.2813
21923SOL    HW267777   2.781   6.305   1.950  0.5744 -2.2264 -0.5924
21924SOL     OW67778   0.275   9.182   7.054  0.1435  0.2986  0.6388
21924SOL    HW167779   0.220   9.112   7.090  0.2014  0.5471  1.2281
21924SOL    HW267780   0.212   9.247   7.021  0.0757  0.5539  1.2571
21925SOL     OW67781   4.958   0.558   3.077  0.0330  0.8481  0.2223
21925SOL    HW167782   4.921   0.646   3.090 -1.6613 -0.0048  1.6861
21925SOL    HW267783   4.962   0.548   2.982 -0.5029  2.2154  0.0247
21926SOL     OW67784   9.263   8.496   4.554 -0.2274 -0.4292 -0.0015
21926SOL    HW167785   9.281   8.583   4.590 -2.1740 -0.6368  1.6732
21926SOL    HW267786   9.168   8.495   4.540  0.0604 -1.4932 -2.2761
21927SOL     OW67787   1.574   3.935   2.655 -0.4230  0.3962 -0.1018
21927SOL    HW167788   1.583   3.841   2.642 -2.5184  0.0847  0.3133
21927SOL    HW267789   1.488   3.956   2.619  0.1706  2.2429 -0.5524
21928SOL     OW67790   8.991   8.454   3.265  0.9867  0.8431 -0.8299
21928SOL    HW167791   8.947   8.535   3.288  2.1406  1.7376 -1.6389
21928SOL    HW267792   9.023   8.469   3.175 -0.7939 -1.3653 -1.9346
21929SOL     OW67793   3.562   7.214   0.639 -0.2732 -0.1721  0.8850
21929SOL    HW167794   3.619   7.141   0.663  1.3697  0.3597 -1.1250
21929SOL    HW267795   3.519   7.185   0.558 -0.1837  0.7566  0.4945
21930SOL     OW67796   9.784  10.224  11.099  0.5207 -0.4438 -0.6273
21930SOL    HW167797   9.702  10.256  11.135 -0.4017 -1.1814 -2.0143
21930SOL    HW267798   9.780  10.129  11.109  0.9760 -0.5295 -1.1923
21931SOL     OW67799   3.906   0.771  11.123 -0.1471  0.6112 -0.1421
21931SOL    HW167800   3.970   0.838  11.101  0.7456  0.6842  2.3107
21931SOL    HW267801   3.958   0.698  11.157 -1.3095  0.7510  2.1301
21932SOL     OW67802   4.694   9.510   5.270  0.0672 -0.4141 -0.3546
21932SOL    HW167803   4.773   9.541   5.315 -1.3431  1.0748  1.2110
21932SOL    HW267804   4.692   9.560   5.188  0.3449  0.1002 -0.0524
21933SOL     OW67805   4.935   8.147   3.784  0.6659  0.0787  0.0474
21933SOL    HW167806   5.025   8.119   3.767  0.9023  0.9861 -0.2224
21933SOL    HW267807   4.902   8.177   3.699  0.0857 -0.2926  0.1303
21934SOL     OW67808   6.037   2.134   0.845  0.1841  0.3149  0.4399
21934SOL    HW167809   6.044   2.068   0.776 -3.4611  1.1811 -0.9723
21934SOL    HW267810   6.035   2.085   0.927 -4.6873 -1.7796 -0.6506
21935SOL     OW67811   9.893   2.917   1.870  0.3184 -0.0405 -0.5953
21935SOL    HW167812   9.952   2.851   1.906  0.4362  0.1412 -0.4548
21935SOL    HW267813   9.811   2.904   1.917  1.1370  1.7370  1.5004
21936SOL     OW67814   4.606   3.444   9.575 -0.0840  0.6239 -0.4180
21936SOL    HW167815   4.579   3.530   9.607 -0.5314  0.4522 -0.3228
21936SOL    HW267816   4.699   3.454   9.554 -0.1690  1.1723 -0.5487
21937SOL     OW67817   7.946   7.235   4.456  0.4562  0.3308 -0.2264
21937SOL    HW167818   7.974   7.309   4.509  0.0538  0.1216  0.2886
21937SOL    HW267819   7.866   7.265   4.412  1.6087  1.0312 -1.9299
21938SOL     OW67820   1.485   4.149   1.914 -0.9300 -0.0476 -0.5774
21938SOL    HW167821   1.456   4.078   1.857  0.1381  1.4769 -3.2057
21938SOL    HW267822   1.416   4.215   1.905 -1.5904 -0.4373  1.3193
21939SOL     OW67823   3.050   4.207   4.740  0.4199 -0.1945  0.4717
21939SOL    HW167824   2.992   4.198   4.664  0.2086 -2.5140  0.8167
21939SOL    HW267825   3.066   4.116   4.768  0.7488  0.5747  3.0125
21940SOL     OW67826   7.455   1.253   4.177 -0.0848  0.1624  0.2335
21940SOL    HW167827   7.406   1.229   4.099  0.7774  1.9664 -0.9093
21940SOL    HW267828   7.389   1.290   4.236 -1.2667 -3.6486  1.6295
21941SOL     OW67829   3.241   1.184   6.617 -0.0709 -0.4561 -0.1197
21941SOL    HW167830   3.327   1.149   6.593  1.1509  2.1610  0.1089
21941SOL    HW267831   3.212   1.128   6.689  0.3989 -2.7247 -1.5818
21942SOL     OW67832  10.371   9.690   1.816  0.1682 -0.1570  0.1473
21942SOL    HW167833  10.466   9.688   1.804  0.7946  1.1374  3.6094
21942SOL    HW267834  10.351   9.783   1.830 -1.2967 -0.5929  1.1744
21943SOL     OW67835   7.453   6.559   6.361  0.0820 -0.6696  0.1541
21943SOL    HW167836   7.405   6.599   6.434  0.8741 -1.1381  0.9486
21943SOL    HW267837   7.446   6.465   6.376  1.3685 -0.7421  0.3754
21944SOL     OW67838   0.065   1.321   1.315 -0.1140 -0.2663  0.2033
21944SOL    HW167839   0.142   1.330   1.372  0.7462  0.9746 -1.0829
21944SOL    HW267840   0.054   1.226   1.304  0.8332 -0.4755  0.9352
21945SOL     OW67841   3.901   0.509   1.764 -0.2586 -0.3001 -0.1603
21945SOL    HW167842   3.833   0.450   1.798  1.2214 -0.6253  2.4165
21945SOL    HW267843   3.861   0.596   1.767 -0.0789 -0.2370  3.0120
21946SOL     OW67844   0.810  10.315   5.634  0.2345  0.3950  0.2649
21946SOL    HW167845   0.822  10.281   5.545 -2.1521  0.3024 -0.0773
21946SOL    HW267846   0.898  10.317   5.671  0.9091 -3.5084 -0.6625
21947SOL     OW67847   2.030  11.006   3.285 -0.0918 -0.0174  0.2301
21947SOL    HW167848   2.071  10.990   3.371  0.2068 -0.7337 -0.0358
21947SOL    HW267849   2.084  10.956   3.224  1.3853  2.6325 -0.8067
21948SOL     OW67850   5.866   3.985   1.246  0.3490  0.2986  0.0003
21948SOL    HW167851   5.792   4.035   1.212  0.1775  0.8558  1.1384
21948SOL    HW267852   5.917   4.048   1.297  3.0852  0.6173 -2.7618
21949SOL     OW67853  10.384   6.770   5.072  0.6030 -0.9489 -0.3336
21949SOL    HW167854  10.379   6.726   5.157 -0.4259 -2.8892 -1.3410
21949SOL    HW267855  10.333   6.715   5.013 -2.8245  2.7333 -1.2746
21950SOL     OW67856   7.123   8.652   2.464  0.1322 -0.4717  0.0820
21950SOL    HW167857   7.146   8.730   2.414  0.2483 -1.2733 -1.1927
21950SOL    HW267858   7.075   8.684   2.540  0.7289  0.8631 -0.0894
21951SOL     OW67859   9.914   4.804   4.793  0.2320 -0.5099 -0.3713
21951SOL    HW167860   9.981   4.741   4.769 -1.1959 -1.7823 -1.2320
21951SOL    HW267861   9.865   4.760   4.864 -1.0624 -0.6091 -1.2923
21952SOL     OW67862   3.625   7.656  11.091 -0.5889 -0.0168  0.1449
21952SOL    HW167863   3.687   7.711  11.139 -1.4132  1.0226  0.0432
21952SOL    HW267864   3.645   7.674  10.999  1.0005 -2.0151  0.0377
21953SOL     OW67865   1.999   4.834   9.127 -0.3691  0.2559  0.8740
21953SOL    HW167866   1.947   4.831   9.047  0.1598  1.3731  0.4665
21953SOL    HW267867   1.991   4.746   9.165  0.6652 -0.8115 -1.2323
21954SOL     OW67868  10.055   9.560   4.847 -0.0124  0.2072 -0.3067
21954SOL    HW167869  10.060   9.503   4.923 -1.6022  0.7892  0.2776
21954SOL    HW267870  10.146   9.578   4.824  0.5082  0.6757  1.9471
21955SOL     OW67871  10.368  10.664   9.530  0.0869 -0.2837 -0.0533
21955SOL    HW167872  10.452  10.689   9.568  0.7039 -0.0006 -1.5660
21955SOL    HW267873  10.348  10.733   9.467 -1.8948  0.3187  1.1321
21956SOL     OW67874  10.134   4.063   4.352  0.4030  0.4218  0.1685
21956SOL    HW167875  10.161   4.140   4.401  0.4766 -0.0547  0.8947
21956SOL    HW267876  10.171   3.989   4.401  0.4858 -0.0695 -0.6101
21957SOL     OW67877   1.215   6.769   4.827  0.3018 -0.2547 -0.1149
21957SOL    HW167878   1.163   6.817   4.763 -0.2207 -2.0958 -1.1282
21957SOL    HW267879   1.306   6.786   4.802  0.3291  2.7092  1.4637
21958SOL     OW67880   6.028   0.780  10.320 -0.1271 -0.5809  0.4193
21958SOL    HW167881   6.025   0.856  10.262  1.6229  0.2307  1.3255
21958SOL    HW267882   5.992   0.709  10.267  1.0326  0.2079 -1.5443
21959SOL     OW67883   1.498   0.625   8.986 -0.2797  0.3864  0.3094
21959SOL    HW167884   1.423   0.675   9.017  0.2527  1.1133  0.4622
21959SOL    HW267885   1.552   0.689   8.940  0.8683  0.1548  1.2993
21960SOL     OW67886   7.388   7.672   2.944 -0.5610 -0.0567 -0.2347
21960SOL    HW167887   7.467   7.618   2.953  0.4631  1.5847  1.0610
21960SOL    HW267888   7.316   7.608   2.942  0.4284 -1.4933  3.3600
21961SOL     OW67889   4.293   4.323   4.844 -0.7540  0.0848 -0.3815
21961SOL    HW167890   4.357   4.252   4.850 -0.0667  0.5967 -1.4428
21961SOL    HW267891   4.345   4.402   4.828 -1.4617  0.9446  1.2087
21962SOL     OW67892  10.698   8.700   4.831 -0.0919  0.5092  0.3938
21962SOL    HW167893  10.620   8.723   4.781 -0.2594  1.3247  1.0040
21962SOL    HW267894  10.680   8.612   4.864  0.3817 -0.4002 -1.6429
21963SOL     OW67895  10.874   5.611   9.489  0.4563 -0.3015  0.2533
21963SOL    HW167896  10.785   5.576   9.482  0.7690 -1.5778  2.0095
21963SOL    HW267897  10.918   5.582   9.409  0.3988 -3.1596  1.1573
21964SOL     OW67898   4.855   2.760   1.764 -0.1877  0.9083 -0.4340
21964SOL    HW167899   4.948   2.771   1.786 -0.0678 -0.2904 -0.2632
21964SOL    HW267900   4.848   2.669   1.736 -0.9507  1.5261 -2.4044
21965SOL     OW67901   8.004   0.920   0.673  0.7994 -0.1597  0.2068
21965SOL    HW167902   7.917   0.884   0.693  0.5173 -0.4516 -1.3929
21965SOL    HW267903   8.023   0.978   0.746 -1.3587  0.9586 -0.0487
21966SOL     OW67904   8.470   2.009   6.020 -0.5506 -0.0738 -0.3023
21966SOL    HW167905   8.394   2.015   5.962  0.1848  0.0213 -1.2738
21966SOL    HW267906   8.535   1.959   5.970  0.7144  1.4425 -0.2442
21967SOL     OW67907   2.616   8.099  10.434  0.4750 -0.5658 -0.0632
21967SOL    HW167908   2.521   8.105  10.424  0.4782 -0.0912  0.1521
21967SOL    HW267909   2.629   8.036  10.505  0.3010 -0.1690  0.3236
21968SOL     OW67910  10.856  11.074   3.214  0.1706 -0.5434  0.1558
21968SOL    HW167911  10.793  11.005   3.233 -1.4016  0.8335  0.2017
21968SOL    HW267912  10.822  11.115   3.134  0.3450  0.9848  0.8471
21969SOL     OW67913   1.901   3.147   0.269 -0.3030 -0.3657  0.1991
21969SOL    HW167914   1.981   3.098   0.288 -0.0910 -0.0948  0.0072
21969SOL    HW267915   1.928   3.239   0.266 -0.8891 -0.1182  1.6436
21970SOL     OW67916   8.099   4.682   1.611  0.0345  0.0042  0.1017
21970SOL    HW167917   8.016   4.644   1.639 -0.8182 -0.0699 -2.2701
21970SOL    HW267918   8.083   4.776   1.608 -0.1676 -0.0493 -0.8658
21971SOL     OW67919  11.076   3.732   5.189 -0.2429 -0.0160 -0.1572
21971SOL    HW167920  11.070   3.826   5.205 -0.0815  0.2632 -1.5357
21971SOL    HW267921  10.996   3.711   5.141  0.0556 -0.4323 -0.4826
21972SOL     OW67922   0.427   7.856  11.136  0.1701  0.1180  0.6696
21972SOL    HW167923   0.510   7.838  11.181  0.1919 -2.1636 -0.1475
21972SOL    HW267924   0.401   7.942  11.169  3.3462  1.4355  0.1848
21973SOL     OW67925   7.992   4.569   4.293 -0.4922  0.1228 -0.5737
21973SOL    HW167926   7.947   4.651   4.311 -1.7737 -0.6589 -0.0303
21973SOL    HW267927   8.032   4.544   4.377 -1.7287 -0.7268 -0.1988
21974SOL     OW67928   3.332  10.537   1.790  0.2437 -0.3395  0.0727
21974SOL    HW167929   3.382  10.576   1.861 -0.3162 -0.8088  0.7347
21974SOL    HW267930   3.241  10.541   1.819  0.1614 -2.1296  0.1816
21975SOL     OW67931   4.802   9.734  10.694  0.3774 -0.0777 -0.1669
21975SOL    HW167932   4.725   9.768  10.649  1.0202  1.2314 -0.3206
21975SOL    HW267933   4.871   9.735  10.627  0.9610  0.4345  0.4342
21976SOL     OW67934   2.641   9.195   2.321  0.6150 -0.2443 -0.5783
21976SOL    HW167935   2.657   9.104   2.345  0.8613  0.0863  0.5790
21976SOL    HW267936   2.546   9.201   2.312  0.5469 -0.4834 -0.0651
21977SOL     OW67937   9.735   7.785   4.128 -0.7144  0.3413 -0.1593
21977SOL    HW167938   9.701   7.840   4.057 -2.9833  0.9528  1.2891
21977SOL    HW267939   9.659   7.767   4.183  0.4783 -2.1760  0.8123
21978SOL     OW67940   7.991   2.134  10.101 -0.2853  0.1822  0.5397
21978SOL    HW167941   7.922   2.088  10.053  1.3072 -2.3736  0.5226
21978SOL    HW267942   8.030   2.192  10.036 -0.0777 -1.0474 -0.4587
21979SOL     OW67943   8.900   0.604   1.297 -0.0943  0.0857 -0.0910
21979SOL    HW167944   8.846   0.533   1.331 -0.3832  1.0174  1.4599
21979SOL    HW267945   8.990   0.573   1.306 -0.2813 -1.2142 -2.0979
21980SOL     OW67946   3.085   3.995   0.838  0.3824  0.8699  0.3210
21980SOL    HW167947   3.070   3.926   0.902 -0.2798  0.3823 -0.3385
21980SOL    HW267948   3.179   4.014   0.844  0.7889 -0.7640 -0.1419
21981SOL     OW67949   2.432   9.738   3.711  0.1967 -0.4097 -0.0159
21981SOL    HW167950   2.505   9.795   3.739  1.2619 -2.9239  2.8265
21981SOL    HW267951   2.475   9.658   3.683 -1.3996 -1.7808  1.2756
21982SOL     OW67952   8.792   5.935   7.129  0.0622  0.1322 -0.7291
21982SOL    HW167953   8.886   5.915   7.122 -0.0829 -0.3674 -1.3406
21982SOL    HW267954   8.789   6.014   7.182  0.9514  1.1158 -2.0576
21983SOL     OW67955   4.143  10.813   1.153 -0.5032 -0.2120  1.3511
21983SOL    HW167956   4.194  10.734   1.175  2.1678  1.0773  0.1766
21983SOL    HW267957   4.083  10.823   1.227  2.0310 -0.9807  3.6886
21984SOL     OW67958   7.691   9.286   1.310 -0.2460 -0.1795  0.3060
21984SOL    HW167959   7.688   9.368   1.261 -2.3962 -0.1658  0.3673
21984SOL    HW267960   7.728   9.309   1.395  0.1564  0.5126 -0.0523
21985SOL     OW67961   5.075   2.894   0.625 -0.3314  0.3282  0.4447
21985SOL    HW167962   5.133   2.875   0.552 -1.5290 -0.5425 -0.3254
21985SOL    HW267963   5.061   2.989   0.620  2.0060  0.7878  1.4608
21986SOL     OW67964   1.733   9.470   2.354  0.8143  0.3028 -0.1472
21986SOL    HW167965   1.680   9.396   2.325 -0.1661  0.8868  0.1177
21986SOL    HW267966   1.723   9.472   2.449  2.3002 -0.3089  0.0451
21987SOL     OW67967   0.655   7.846   8.918  0.1019  0.4486 -0.1776
21987SOL    HW167968   0.703   7.766   8.893 -0.6549 -0.7952  2.0983
21987SOL    HW267969   0.615   7.875   8.836  2.8398  0.2811 -1.7240
21988SOL     OW67970   9.730   7.257  10.121  0.6169  0.0140 -1.0300
21988SOL    HW167971   9.771   7.213  10.047 -0.2872  0.6949 -1.9626
21988SOL    HW267972   9.783   7.336  10.134  2.6539 -1.5602  1.0762
21989SOL     OW67973   0.344   3.372   0.948  0.0954 -0.3139 -0.0732
21989SOL    HW167974   0.311   3.452   0.990 -3.4292  1.0471 -4.6463
21989SOL    HW267975   0.299   3.301   0.994 -0.6723  0.7336  0.8501
21990SOL     OW67976   4.982   7.625   7.160 -0.1859 -0.5166 -0.2506
21990SOL    HW167977   4.996   7.560   7.092 -2.9559  1.2105 -2.6747
21990SOL    HW267978   5.041   7.697   7.136 -0.4315 -0.3127 -0.2445
21991SOL     OW67979  10.799   1.199   4.496  0.6252 -0.0065  0.8418
21991SOL    HW167980  10.875   1.140   4.499  1.6477  1.0065 -1.7822
21991SOL    HW267981  10.836   1.285   4.516  0.2520  0.5249 -0.6324
21992SOL     OW67982   9.158   4.543   1.004 -0.3648 -0.0972 -0.2901
21992SOL    HW167983   9.160   4.480   0.932 -2.5715  0.1798 -0.6505
21992SOL    HW267984   9.090   4.511   1.063 -0.0240  0.7956  0.6149
21993SOL     OW67985   8.143   3.041   0.289 -0.4677  0.5350 -0.1569
21993SOL    HW167986   8.145   2.949   0.264 -0.1580  0.7046 -0.7578
21993SOL    HW267987   8.095   3.084   0.218  0.7213  1.0697 -0.6528
21994SOL     OW67988   0.256   0.402   8.270 -0.0501  0.4429 -0.4574
21994SOL    HW167989   0.215   0.324   8.308 -1.9455 -0.5437 -4.0382
21994SOL    HW267990   0.192   0.472   8.283  0.3278  0.6738  0.1710
21995SOL     OW67991   1.624   2.949   4.886 -0.5249 -0.0934 -0.6593
21995SOL    HW167992   1.655   3.019   4.829 -1.1962 -0.0723 -1.0168
21995SOL    HW267993   1.664   2.966   4.971 -0.7310  0.7598 -0.7308
21996SOL     OW67994   9.751   2.842  10.302 -0.8496  0.3325  0.9540
21996SOL    HW167995   9.729   2.800  10.219  2.0983  0.0570  0.1951
21996SOL    HW267996   9.668   2.876  10.335 -2.6779 -2.4100 -0.4508
21997SOL     OW67997  10.616   2.411   9.511 -0.1133 -0.0227 -0.3498
21997SOL    HW167998  10.632   2.484   9.451 -0.2350 -0.8337 -1.3960
21997SOL    HW267999  10.566   2.450   9.583  1.6438  1.3799  0.1992
21998SOL     OW68000   8.290   4.412   4.873 -0.0364 -0.3228  0.2572
21998SOL    HW168001   8.364   4.458   4.911  0.0962 -1.0674  0.9115
21998SOL    HW268002   8.324   4.376   4.791  0.4860 -1.0850  0.7907
21999SOL     OW68003  11.185   3.352   8.667 -0.4563  0.4271 -0.1284
21999SOL    HW168004  11.243   3.428   8.671 -0.7564  0.8650 -2.3038
21999SOL    HW268005  11.103   3.387   8.631 -0.5445 -0.9138 -1.3449
22000SOL     OW68006   3.774   3.750   0.075 -0.3363 -0.1677  0.1997
22000SOL    HW168007   3.855   3.736   0.126  1.2578 -0.3192 -2.2195
22000SOL    HW268008   3.710   3.691   0.115  1.4600 -1.8939  0.6889
22001SOL     OW68009   8.357   9.055   2.865 -0.5963 -0.7955 -0.0483
22001SOL    HW168010   8.367   9.087   2.954  0.2579 -2.5708  0.5461
22001SOL    HW268011   8.341   8.961   2.875  3.5110 -1.8922 -1.8097
22002SOL     OW68012   8.706  10.077   5.462  0.5493 -0.4479  0.1431
22002SOL    HW168013   8.792  10.103   5.497 -0.3139  0.6421  1.5872
22002SOL    HW268014   8.660  10.040   5.538 -0.9650  0.8563 -0.0829
22003SOL     OW68015   1.459   2.617   2.972 -0.5137 -0.3390  0.5987
22003SOL    HW168016   1.371   2.629   2.936 -0.8535  1.0063  1.7579
22003SOL    HW268017   1.493   2.540   2.928 -1.1266  0.8037 -2.0516
22004SOL     OW68018   4.295  10.092  11.279 -0.5644  0.3867  0.0637
22004SOL    HW168019   4.252  10.177  11.286  1.0989  1.2869 -0.2913
22004SOL    HW268020   4.385  10.108  11.305 -0.3558 -1.4160  0.6022
22005SOL     OW68021   7.705   6.760  10.926 -0.2755 -0.5201  0.8609
22005SOL    HW168022   7.792   6.731  10.897 -1.0378 -0.9212 -1.1600
22005SOL    HW268023   7.686   6.704  11.002 -0.2006 -2.9687 -0.7942
22006SOL     OW68024   0.416  10.825  10.168 -0.6995 -0.2741  0.3193
22006SOL    HW168025   0.416  10.885  10.243  2.6778 -0.4037  0.5657
22006SOL    HW268026   0.425  10.882  10.092 -1.1823 -0.3064  0.2343
22007SOL     OW68027   3.730   9.930   3.277 -0.5062  0.2304 -0.3360
22007SOL    HW168028   3.766   9.978   3.352  1.9899  0.4535 -1.5731
22007SOL    HW268029   3.702   9.999   3.217  0.4530  0.1142 -0.9259
22008SOL     OW68030   2.790   9.086  10.774  0.1290 -0.4904 -0.2559
22008SOL    HW168031   2.838   9.134  10.843  0.4144 -0.4574 -0.4772
22008SOL    HW268032   2.702   9.075  10.810 -0.1239  0.7528 -0.4477
22009SOL     OW68033   6.187  10.811  10.884  0.0975  0.0847  0.2967
22009SOL    HW168034   6.184  10.861  10.966  1.8187 -0.4651  0.7427
22009SOL    HW268035   6.258  10.850  10.835  0.2609 -0.7511 -0.1456
22010SOL     OW68036   0.778   6.835   6.947 -0.8514 -0.3253 -0.2662
22010SOL    HW168037   0.689   6.853   6.978  0.3360  0.5315  3.1206
22010SOL    HW268038   0.797   6.906   6.886 -1.5288  1.2744  1.2902
22011SOL     OW68039   7.023   2.929   8.940  0.4367 -0.1337  0.1483
22011SOL    HW168040   7.011   3.021   8.915  0.7240 -0.1104  0.0997
22011SOL    HW268041   7.019   2.931   9.036  1.0722  0.0176  0.1736
22012SOL     OW68042   4.592   6.456   0.670 -0.3441 -0.0347  0.3162
22012SOL    HW168043   4.665   6.515   0.652 -0.9245  0.6191  0.0592
22012SOL    HW268044   4.592   6.445   0.765  0.3126 -0.3351  0.2815
22013SOL     OW68045   0.278   6.565   7.522 -0.5283  0.4803 -0.1009
22013SOL    HW168046   0.235   6.636   7.474 -0.2192 -0.7228 -2.2682
22013SOL    HW268047   0.314   6.509   7.454  2.2821  0.0725  1.5787
22014SOL     OW68048   1.136   8.966   0.091  0.2873 -0.1546  1.0584
22014SOL    HW168049   1.144   8.982  -0.003  2.0176  0.5644  1.2873
22014SOL    HW268050   1.049   8.927   0.102  0.9171 -2.4797 -1.1360
22015SOL     OW68051  10.805   4.879  10.186  0.0480 -0.3998  0.1693
22015SOL    HW168052  10.744   4.876  10.112  0.5394 -1.2869 -0.2226
22015SOL    HW268053  10.836   4.789  10.195  2.2859  0.2417 -0.4941
22016SOL     OW68054   6.243   4.297   0.713 -0.3289 -0.0862  0.0426
22016SOL    HW168055   6.283   4.382   0.699  0.5099 -0.4556  0.1573
22016SOL    HW268056   6.179   4.288   0.642  1.6056 -0.5775 -1.7237
22017SOL     OW68057  11.084   6.004   2.730 -0.0664 -0.5088  0.0937
22017SOL    HW168058  11.063   5.911   2.743 -2.6442 -0.1409 -1.0384
22017SOL    HW268059  11.051   6.047   2.809  4.7686 -0.8205  2.7048
22018SOL     OW68060   5.180   9.986   9.454 -0.0225 -0.3681 -0.9222
22018SOL    HW168061   5.159  10.063   9.506 -1.5490 -1.4978  0.2385
22018SOL    HW268062   5.272   9.968   9.474  0.6987  1.7302 -2.0677
22019SOL     OW68063   3.562  10.299   7.465 -0.6028  0.5220 -0.1132
22019SOL    HW168064   3.490  10.325   7.408 -0.1223 -2.8793 -2.5765
22019SOL    HW268065   3.640  10.337   7.425 -0.3881 -1.0409 -1.2936
22020SOL     OW68066   8.450   9.515   2.987 -0.3626 -0.7882  0.9767
22020SOL    HW168067   8.414   9.597   3.021  0.2412 -0.6398  1.2763
22020SOL    HW268068   8.462   9.531   2.894  0.6260 -0.1914  1.1859
22021SOL     OW68069   7.854   0.549   7.040 -0.1288  0.0560 -0.4107
22021SOL    HW168070   7.798   0.471   7.048  0.1396  0.0444  2.7951
22021SOL    HW268071   7.880   0.568   7.130  2.4401  1.9780 -1.4493
22022SOL     OW68072  11.086   6.261   4.414 -0.0611 -0.0616  0.1776
22022SOL    HW168073  11.136   6.183   4.438 -1.5062 -0.9113  0.5775
22022SOL    HW268074  11.077   6.256   4.319  1.0964  0.4147  0.0365
22023SOL     OW68075   2.447   8.115   3.436  0.7773 -0.0738  0.1328
22023SOL    HW168076   2.398   8.035   3.453  2.5808 -1.6090 -1.4077
22023SOL    HW268077   2.380   8.181   3.420 -0.7668 -1.3326  1.0943
22024SOL     OW68078   6.038   3.750   6.959 -0.3222 -0.6715  0.2003
22024SOL    HW168079   5.977   3.789   6.897 -1.2623 -1.2822  0.7276
22024SOL    HW268080   6.121   3.796   6.943 -0.0127 -2.0297 -2.7775
22025SOL     OW68081  10.782   7.620   7.576  0.5067  0.3098 -0.3065
22025SOL    HW168082  10.738   7.545   7.615  0.7571 -0.1479 -0.8877
22025SOL    HW268083  10.741   7.696   7.617 -0.3440 -0.1231 -0.3374
22026SOL     OW68084   7.085   4.316   3.355  0.1835 -0.3504 -0.1090
22026SOL    HW168085   7.060   4.347   3.442  0.7301  1.7401 -0.6532
22026SOL    HW268086   7.150   4.248   3.372  0.2382 -0.0256  1.1079
22027SOL     OW68087   6.790   4.854   9.320  0.0733 -0.0659 -0.1010
22027SOL    HW168088   6.821   4.942   9.301  0.4168 -0.6774 -2.8820
22027SOL    HW268089   6.864   4.797   9.297 -1.2625 -1.2361 -1.8095
22028SOL     OW68090   3.381   3.279   7.153 -0.0319 -0.9320  0.2957
22028SOL    HW168091   3.288   3.301   7.147  0.5153  1.6957  0.3169
22028SOL    HW268092   3.399   3.227   7.075 -1.6274 -2.0712  0.6408
22029SOL     OW68093   9.035  10.001   7.914  0.2350  0.1469 -0.0109
22029SOL    HW168094   9.037  10.014   7.819 -0.7831  1.2508  0.0874
22029SOL    HW268095   8.984  10.076   7.947  0.5745 -0.2153  1.4028
22030SOL     OW68096   5.046   9.739  10.550  0.0540  0.2994  0.3503
22030SOL    HW168097   5.065   9.827  10.584 -2.1823  0.9357  0.0740
22030SOL    HW268098   5.085   9.739  10.462 -0.2112  1.1484  0.2222
22031SOL     OW68099   8.768   7.335   3.435  0.0105 -0.0520 -0.4401
22031SOL    HW168100   8.818   7.334   3.353 -1.2220  0.5645 -1.2299
22031SOL    HW268101   8.689   7.285   3.416 -0.3089  0.1289  0.3606
22032SOL     OW68102   5.921   9.160   2.332 -0.7159  0.1212 -0.6288
22032SOL    HW168103   5.975   9.233   2.361  1.0023 -1.5406  0.6234
22032SOL    HW268104   5.918   9.168   2.237  0.6167  1.0398 -0.6192
22033SOL     OW68105   2.444   1.519   4.375 -0.0917  0.1664  0.2510
22033SOL    HW168106   2.450   1.424   4.385  0.4997  0.3944  2.6585
22033SOL    HW268107   2.531   1.546   4.348 -0.1652  0.0767 -0.0856
22034SOL     OW68108   4.601   3.200   1.290 -0.0046 -0.4630  0.2390
22034SOL    HW168109   4.651   3.181   1.369 -0.0966  2.6207  1.1809
22034SOL    HW268110   4.667   3.206   1.221  0.8847  2.1457  1.1976
22035SOL     OW68111   2.276   3.124   8.831  0.0990  0.0838 -0.1850
22035SOL    HW168112   2.351   3.077   8.868  0.1356  0.7213  0.5763
22035SOL    HW268113   2.295   3.129   8.738 -0.2255 -1.9876 -0.4232
22036SOL     OW68114   0.889  10.740  10.602  0.0488  0.2346 -0.0509
22036SOL    HW168115   0.883  10.830  10.570  0.2012  0.2187 -0.1217
22036SOL    HW268116   0.972  10.707  10.567 -0.1364 -0.0227 -0.2503
22037SOL     OW68117   2.960   7.942   9.109  0.6886  0.1930 -0.0640
22037SOL    HW168118   2.958   7.939   9.204  0.7313  1.4722 -0.0012
22037SOL    HW268119   3.033   8.001   9.088  1.7229 -1.3395 -0.9329
22038SOL     OW68120   2.953   2.981  10.905 -0.1035 -0.2791  0.5188
22038SOL    HW168121   3.034   3.013  10.866  0.1701 -1.2132  0.3052
22038SOL    HW268122   2.968   2.987  10.999  0.1618 -0.3147  0.4790
22039SOL     OW68123   3.725   6.994   1.609  0.1059  0.3839 -0.4349
22039SOL    HW168124   3.741   6.984   1.703 -0.7655 -1.5688 -0.4392
22039SOL    HW268125   3.645   7.046   1.603 -0.5474 -0.5409 -0.0236
22040SOL     OW68126   9.017   6.102   5.687  0.0428 -0.8038 -0.1778
22040SOL    HW168127   8.984   6.073   5.602 -0.7601  1.0586 -0.5567
22040SOL    HW268128   9.027   6.197   5.678  1.7918 -0.7879  1.2147
22041SOL     OW68129   7.489   3.384   2.092  0.7371 -0.1352 -0.2451
22041SOL    HW168130   7.448   3.396   2.006  0.2799 -1.6320 -0.2564
22041SOL    HW268131   7.560   3.322   2.076  0.2089 -0.9663  0.5709
22042SOL     OW68132   3.064   8.788   4.101 -0.5094 -0.1119  0.1602
22042SOL    HW168133   3.056   8.861   4.039  0.6225  0.6787  0.8997
22042SOL    HW268134   3.055   8.709   4.047 -1.4566  0.5591 -0.7054
22043SOL     OW68135   7.470   1.065   5.851  0.4993 -0.1515  0.5159
22043SOL    HW168136   7.380   1.035   5.835  0.9982 -0.1126 -3.4947
22043SOL    HW268137   7.461   1.132   5.918 -2.1725 -1.3857  1.5686
22044SOL     OW68138   8.186   1.432   8.121 -0.4719  0.3147 -1.1245
22044SOL    HW168139   8.182   1.383   8.203 -0.3602  0.0841 -1.2570
22044SOL    HW268140   8.099   1.421   8.083 -1.4396  2.6310  0.2292
22045SOL     OW68141   5.929   6.883  10.119 -0.2537 -0.6507 -0.6685
22045SOL    HW168142   5.899   6.878  10.028 -0.8941  2.9998 -0.8015
22045SOL    HW268143   6.022   6.861  10.116 -0.5128 -1.6672 -1.9883
22046SOL     OW68144   8.212   6.568   9.981  0.1510  0.3824  1.0435
22046SOL    HW168145   8.306   6.560   9.999  0.8600  0.6772 -2.0669
22046SOL    HW268146   8.192   6.495   9.922 -1.7351  0.0405  2.0285
22047SOL     OW68147   9.938   3.745   4.004 -0.2194 -0.1736  0.0386
22047SOL    HW168148   9.917   3.684   3.933 -1.1266 -1.7678  1.5957
22047SOL    HW268149  10.021   3.714   4.040  0.9494  1.4395 -1.1097
22048SOL     OW68150   3.082   0.347   9.491 -0.0006  0.8943  0.3536
22048SOL    HW168151   3.024   0.301   9.553  0.3105 -0.0392 -0.0266
22048SOL    HW268152   3.161   0.366   9.541 -0.6860  2.3470  0.9316
22049SOL     OW68153  10.063   7.697   5.543  0.3326  0.2761 -0.2660
22049SOL    HW168154   9.977   7.664   5.571 -1.1102  0.2720 -4.1489
22049SOL    HW268155  10.088   7.640   5.471  0.9656  3.4728 -2.7733
22050SOL     OW68156  10.692   2.936   8.679  0.2789  0.4142 -1.1400
22050SOL    HW168157  10.615   2.880   8.683  0.1235  0.5037 -2.4817
22050SOL    HW268158  10.668   3.015   8.729 -1.0917  1.1123 -2.8068
22051SOL     OW68159   7.360   6.971   0.677  0.6594 -0.9578  0.8762
22051SOL    HW168160   7.408   7.054   0.676 -0.0027 -0.5577  1.2463
22051SOL    HW268161   7.300   6.979   0.751  0.5604 -1.7567  0.8895
22052SOL     OW68162   3.376   1.600   1.441  0.3584  0.1659 -0.0688
22052SOL    HW168163   3.381   1.651   1.360 -1.8864 -0.0062 -0.3600
22052SOL    HW268164   3.376   1.666   1.510  0.8353  0.3726 -0.2560
22053SOL     OW68165  10.092   9.231   7.747  0.6860 -0.3078  0.6667
22053SOL    HW168166  10.055   9.170   7.683 -0.4612 -1.0894  2.0054
22053SOL    HW268167  10.172   9.188   7.777  1.0126 -0.1296  0.0589
22054SOL     OW68168   6.681   6.633   5.171  0.3285 -0.2837 -0.0053
22054SOL    HW168169   6.671   6.712   5.117 -0.0319 -1.6723 -2.1277
22054SOL    HW268170   6.601   6.630   5.223  0.2524  0.6332 -0.0468
22055SOL     OW68171   9.737   7.944   3.753 -0.2229  0.1149  0.0841
22055SOL    HW168172   9.707   7.957   3.843  2.4236 -0.4933  1.1560
22055SOL    HW268173   9.679   7.876   3.718 -3.0591  2.2638  0.2947
22056SOL     OW68174   4.550   6.304   5.095 -0.1949 -0.3899 -0.2601
22056SOL    HW168175   4.626   6.248   5.108 -0.3744 -0.2994  1.5172
22056SOL    HW268176   4.562   6.342   5.009  3.0216  1.4375  0.8336
22057SOL     OW68177  10.895   1.303   2.305 -0.3591 -0.4554 -0.7223
22057SOL    HW168178  10.923   1.363   2.375 -0.4748  0.7707 -1.6883
22057SOL    HW268179  10.975   1.282   2.257 -0.2415 -1.4920 -0.1031
22058SOL     OW68180  10.563   5.245   3.065 -0.5089 -0.3727 -0.1820
22058SOL    HW168181  10.516   5.326   3.086 -1.1738 -0.6535 -0.5806
22058SOL    HW268182  10.596   5.259   2.976  0.6493  0.0404  0.2897
22059SOL     OW68183   7.897  10.411   1.945 -0.8200  0.2562  0.2158
22059SOL    HW168184   7.967  10.351   1.971 -0.8493 -0.2694 -0.8691
22059SOL    HW268185   7.842  10.359   1.887 -1.1539  1.1814 -0.3055
22060SOL     OW68186   0.496  11.253   3.510  0.1409 -0.7505  0.6733
22060SOL    HW168187   0.517  11.347   3.509  0.4271 -0.8169 -0.0532
22060SOL    HW268188   0.491  11.231   3.603 -0.7691  0.1686  0.8655
22061SOL     OW68189   9.680   0.603   7.835 -0.1484 -0.5559  0.0103
22061SOL    HW168190   9.666   0.554   7.754  0.5016  1.7117 -1.6131
22061SOL    HW268191   9.774   0.596   7.851  0.0720  0.5788 -0.6151
22062SOL     OW68192   7.089   5.850   8.320  0.5644  0.5188  0.0756
22062SOL    HW168193   7.100   5.791   8.245 -1.1313 -0.1665  0.3164
22062SOL    HW268194   7.028   5.917   8.289  1.2556  1.2497  0.2957
22063SOL     OW68195   8.934   1.720   4.283  0.3681 -0.9162  0.3578
22063SOL    HW168196   8.917   1.785   4.214 -1.8859  1.7149  3.1139
22063SOL    HW268197   9.029   1.719   4.292  0.5039  2.2902  0.3232
22064SOL     OW68198   3.770   2.785   7.033  0.1008  0.1708 -0.0097
22064SOL    HW168199   3.797   2.752   7.119 -1.8668 -1.7125 -0.0515
22064SOL    HW268200   3.754   2.706   6.981  0.9272  1.2764 -2.0394
22065SOL     OW68201   5.453   2.432   3.809  0.2687  0.1255 -0.2972
22065SOL    HW168202   5.407   2.501   3.857  1.5322 -1.3452  3.3468
22065SOL    HW268203   5.474   2.366   3.875  2.2628 -2.1048 -2.9230
22066SOL     OW68204   7.034   3.061   9.281  0.2584  0.2224 -0.7503
22066SOL    HW168205   7.001   3.151   9.285  0.5382  0.3455 -1.1037
22066SOL    HW268206   7.006   3.021   9.363  0.7208  0.8392 -0.2859
22067SOL     OW68207   9.319   2.331   5.763 -0.9246 -0.3693 -0.0281
22067SOL    HW168208   9.296   2.363   5.675 -0.6938 -0.7775 -0.2415
22067SOL    HW268209   9.261   2.257   5.777 -1.7829  0.4104  0.6599
22068SOL     OW68210  10.336   6.828   5.440 -0.1588 -0.3070  0.2347
22068SOL    HW168211  10.388   6.770   5.384  2.0954  0.6234  1.2650
22068SOL    HW268212  10.318   6.904   5.385 -1.1937 -0.9633 -0.3822
22069SOL     OW68213   0.782   6.302   9.312 -0.0355 -0.2800 -0.9173
22069SOL    HW168214   0.688   6.287   9.323  0.1679 -0.4253  1.1143
22069SOL    HW268215   0.823   6.218   9.335  0.7032  0.7816  2.2949
22070SOL     OW68216   5.194   1.669   2.658 -0.5609 -0.2835  0.0343
22070SOL    HW168217   5.174   1.638   2.569  2.2743 -2.2470 -0.0736
22070SOL    HW268218   5.169   1.762   2.657 -1.2865 -0.4138 -2.5757
22071SOL     OW68219  11.043   0.047   4.065  0.4936  0.3226  0.6651
22071SOL    HW168220  11.073   0.078   4.150  0.6407  0.0808  0.7004
22071SOL    HW268221  11.075  -0.042   4.058 -0.3340  0.0096  0.7577
22072SOL     OW68222   7.611  10.770   2.485 -0.3223 -0.0879  0.0656
22072SOL    HW168223   7.536  10.782   2.426  1.2780 -3.7850 -3.1039
22072SOL    HW268224   7.674  10.835   2.455 -0.6390  0.0931 -0.2299
22073SOL     OW68225   2.009   3.238   8.211 -0.0062 -0.2517 -0.5424
22073SOL    HW168226   1.938   3.297   8.186  1.3049  0.9797 -1.5513
22073SOL    HW268227   2.012   3.242   8.306 -0.0892  1.1711 -0.5837
22074SOL     OW68228   2.983  10.143   8.842  0.1590  0.4180  0.3623
22074SOL    HW168229   2.937  10.226   8.853  0.3809  0.3342  2.1847
22074SOL    HW268230   2.964  10.094   8.922 -0.5711 -1.6033 -0.9807
22075SOL     OW68231   2.770   6.529   6.723 -0.0370  0.1020  0.1060
22075SOL    HW168232   2.775   6.593   6.793  0.4817  2.1039 -1.6384
22075SOL    HW268233   2.861   6.499   6.711  0.0439  0.4993 -0.3176
22076SOL     OW68234   2.319   8.805   9.767  0.7076 -0.1895 -0.1451
22076SOL    HW168235   2.408   8.769   9.769  1.2378  1.0370 -1.1255
22076SOL    HW268236   2.293   8.808   9.859  1.9588  0.1198  0.2138
22077SOL     OW68237   4.201   6.951   1.244 -0.9040  0.3228  0.1141
22077SOL    HW168238   4.252   6.874   1.219 -0.1057  1.0570 -0.5816
22077SOL    HW268239   4.265   7.012   1.281 -1.5310  0.6481  0.6888
22078SOL     OW68240   9.510   5.523   4.032 -0.2208 -0.5986 -0.5021
22078SOL    HW168241   9.488   5.573   4.111 -1.4613  0.2837 -1.3740
22078SOL    HW268242   9.468   5.571   3.961  3.3330  0.4009 -2.1580
22079SOL     OW68243   3.745  10.593   2.615 -0.2237  0.4621  0.5571
22079SOL    HW168244   3.741  10.654   2.689  2.3977  0.4477  0.8058
22079SOL    HW268245   3.678  10.625   2.555 -0.2594  2.4173  1.5319
22080SOL     OW68246  10.864   5.342   6.804  0.1671 -0.4067  0.3743
22080SOL    HW168247  10.873   5.370   6.895 -0.3446 -0.0805  0.3226
22080SOL    HW268248  10.952   5.354   6.767 -0.2475  2.0966  0.0736
22081SOL     OW68249  10.416   6.452   9.434  0.7354  0.4564 -0.1233
22081SOL    HW168250  10.509   6.448   9.454  0.5255  1.5671  1.2630
22081SOL    HW268251  10.403   6.386   9.366  2.2796 -0.6595  0.6040
22082SOL     OW68252   5.285  10.807   8.168 -0.3176  0.5362 -0.6039
22082SOL    HW168253   5.199  10.778   8.200  0.6119 -0.5856  1.0555
22082SOL    HW268254   5.328  10.726   8.140  0.6893  0.9118 -0.1649
22083SOL     OW68255   2.744   0.194   0.553  0.2025  0.2182 -0.5319
22083SOL    HW168256   2.837   0.180   0.573  0.1372  1.3452  0.7273
22083SOL    HW268257   2.742   0.213   0.459  1.0615 -1.1627 -0.8545
22084SOL     OW68258   2.621   5.469   9.984  0.5037  0.2297 -0.3161
22084SOL    HW168259   2.587   5.533  10.046 -2.0338  1.5594 -2.8394
22084SOL    HW268260   2.636   5.390  10.037 -2.7665  0.8419  1.8415
22085SOL     OW68261   5.554   6.230   5.890  0.0358 -0.2280  0.5359
22085SOL    HW168262   5.640   6.271   5.886  0.0386 -0.1942 -3.4648
22085SOL    HW268263   5.569   6.140   5.861 -1.4849  0.6900 -3.9289
22086SOL     OW68264   5.728  10.347   9.804  0.5433 -1.0202 -0.3570
22086SOL    HW168265   5.762  10.416   9.861  0.0049  1.1622 -2.4654
22086SOL    HW268266   5.658  10.391   9.755 -1.8040 -3.8931  0.1580
22087SOL     OW68267   2.625   9.088   3.571  0.3142 -0.1395 -0.2564
22087SOL    HW168268   2.547   9.120   3.527  0.8117  0.9107 -0.4099
22087SOL    HW268269   2.696   9.143   3.537  1.2711 -1.6437 -0.7941
22088SOL     OW68270  10.985   9.124   7.917 -1.5270 -0.3017 -0.1031
22088SOL    HW168271  10.985   9.030   7.902 -0.3012 -0.5754  1.4080
22088SOL    HW268272  10.929   9.137   7.993  1.6058 -0.3927  2.4217
22089SOL     OW68273   8.405   6.696  10.941  0.0703 -0.1476 -0.5958
22089SOL    HW168274   8.358   6.615  10.921  0.2337  0.0267 -1.7483
22089SOL    HW268275   8.438   6.726  10.857  1.2402  0.3687  0.0166
22090SOL     OW68276   0.048   8.320   2.190  0.5126 -0.2078 -0.4368
22090SOL    HW168277   0.062   8.263   2.265  1.0473  1.2003  0.5753
22090SOL    HW268278   0.107   8.394   2.205 -0.7551  1.0217 -1.2665
22091SOL     OW68279   2.065   2.882   4.995  0.5492 -0.3410 -0.1998
22091SOL    HW168280   2.150   2.846   5.017  0.6754 -0.2535 -0.5334
22091SOL    HW268281   2.046   2.945   5.064  1.1655  0.3001 -0.6003
22092SOL     OW68282   9.433   3.085   8.837 -0.3308  0.5614 -0.7141
22092SOL    HW168283   9.499   3.016   8.847 -0.1011  1.0568  1.6712
22092SOL    HW268284   9.485   3.166   8.829 -0.5584  1.0418  1.8923
22093SOL     OW68285   1.090   3.313   7.522 -0.1126 -0.6469 -0.1060
22093SOL    HW168286   1.044   3.288   7.602 -0.3680 -0.4226 -0.1821
22093SOL    HW268287   1.058   3.401   7.501  1.7830  0.3428  0.9092
22094SOL     OW68288   2.057   4.050   3.330  0.0096  0.4531 -0.5604
22094SOL    HW168289   2.007   3.969   3.330  0.0605  0.3578 -2.6331
22094SOL    HW268290   2.144   4.024   3.300  0.3681  1.1138 -0.1237
22095SOL     OW68291   1.263   1.235   2.301 -0.0446 -0.5024 -0.1437
22095SOL    HW168292   1.358   1.246   2.300 -0.1807  0.8857 -0.5529
22095SOL    HW268293   1.240   1.217   2.210 -0.3307  0.9661 -0.3823
22096SOL     OW68294   1.401  11.051  10.000 -0.1024  0.0870 -0.0480
22096SOL    HW168295   1.362  11.084  10.081 -2.6707  1.0946 -1.5582
22096SOL    HW268296   1.341  10.983   9.970  0.0536  0.6194 -1.7038
22097SOL     OW68297   0.493   5.295   4.290  0.3773 -0.8141  0.3422
22097SOL    HW168298   0.571   5.314   4.239  0.0241 -0.2805 -0.0114
22097SOL    HW268299   0.421   5.302   4.227  0.0680 -1.6210  0.5874
22098SOL     OW68300   0.354  10.344   0.092  0.7340  0.7475  0.0797
22098SOL    HW168301   0.347  10.413   0.157 -0.8308 -1.0946  2.0253
22098SOL    HW268302   0.401  10.384   0.019  0.7824  3.5123  1.4986
22099SOL     OW68303   1.929   9.003   3.679  0.7205 -0.1032 -0.1791
22099SOL    HW168304   1.854   9.057   3.653  1.3018  1.9366  2.0474
22099SOL    HW268305   1.987   9.063   3.726  2.9794 -2.0002 -0.3492
22100SOL     OW68306   8.814  10.849   7.508  0.5387  0.3023 -0.2348
22100SOL    HW168307   8.883  10.834   7.443  0.7543 -1.4772  0.3696
22100SOL    HW268308   8.844  10.925   7.558  0.1461  2.0284 -2.4539
22101SOL     OW68309   9.713   5.936   3.452 -0.4053 -0.2115  0.1189
22101SOL    HW168310   9.623   5.920   3.425 -0.7337  1.1784  0.2965
22101SOL    HW268311   9.706   6.003   3.520  0.5752 -1.9132  2.0160
22102SOL     OW68312   7.672   6.140   2.529 -0.2062 -0.3915 -0.9493
22102SOL    HW168313   7.757   6.181   2.545 -1.1563  1.2411  0.3317
22102SOL    HW268314   7.692   6.062   2.478  2.0427 -0.0315 -0.7364
22103SOL     OW68315   1.412   4.535   9.458  0.6762 -0.3515 -0.5314
22103SOL    HW168316   1.423   4.452   9.412  1.1398 -0.6213  0.0590
22103SOL    HW268317   1.446   4.519   9.546 -0.5388  0.0471  0.0393
22104SOL     OW68318   1.429   3.364   6.951  0.2583  0.4069  0.2935
22104SOL    HW168319   1.390   3.335   7.033  2.3914  1.3455  1.6930
22104SOL    HW268320   1.476   3.444   6.973  1.1252  0.5371 -1.7939
22105SOL     OW68321   8.107   8.787   2.574  0.2159  0.4043  0.2458
22105SOL    HW168322   8.111   8.850   2.646 -1.4207 -1.1928  1.8117
22105SOL    HW268323   8.032   8.731   2.594  0.5967 -1.0336 -1.9576
22106SOL     OW68324  10.130   1.477  10.344 -0.2339  0.2782  0.0705
22106SOL    HW168325  10.038   1.503  10.334 -0.5814 -1.2976 -1.3990
22106SOL    HW268326  10.125   1.385  10.370  0.8851 -0.2836 -1.5284
22107SOL     OW68327   5.351   4.657   0.455 -0.3017 -0.3015 -0.6647
22107SOL    HW168328   5.410   4.582   0.463  1.9442  1.5228  1.9383
22107SOL    HW268329   5.405   4.726   0.416 -0.6364  1.3605  1.5850
22108SOL     OW68330  10.010   7.990   6.070  0.6535 -0.0499  0.0363
22108SOL    HW168331   9.942   8.046   6.032  1.7192  0.9516 -0.4915
22108SOL    HW268332  10.048   7.944   5.995  1.1239  0.0681  0.1936
22109SOL     OW68333   5.642   4.513  10.387  0.1452 -0.2326  0.3684
22109SOL    HW168334   5.715   4.451  10.398 -0.7162 -1.2820  0.3569
22109SOL    HW268335   5.684   4.597  10.371  1.3567 -0.8387  0.2562
22110SOL     OW68336   5.855   5.407   2.174  0.1917  0.1639 -0.3035
22110SOL    HW168337   5.864   5.370   2.087  2.0241  1.0443 -0.5349
22110SOL    HW268338   5.834   5.500   2.159 -4.9354 -0.5639  0.2454
22111SOL     OW68339   3.676   8.569   0.703 -0.0547 -0.0095 -0.1448
22111SOL    HW168340   3.715   8.560   0.790  1.3201  1.2984 -0.5719
22111SOL    HW268341   3.690   8.484   0.661 -2.6582 -1.4193  1.5805
22112SOL     OW68342   8.465   1.851   4.897 -0.2764 -0.7686  0.0394
22112SOL    HW168343   8.547   1.807   4.918  1.3113  1.4788 -1.1144
22112SOL    HW268344   8.441   1.817   4.810  0.6276  0.1550 -0.5874
22113SOL     OW68345   5.925   9.841  10.103  0.5297  0.0324  0.0464
22113SOL    HW168346   5.886   9.769  10.153 -1.3348  0.4990 -0.6561
22113SOL    HW268347   5.979   9.797  10.037 -0.1235 -0.7192 -0.0105
22114SOL     OW68348   8.109   4.624   4.890 -0.5093 -0.0897  0.0127
22114SOL    HW168349   8.149   4.538   4.900  0.3904  0.5441  2.5385
22114SOL    HW268350   8.042   4.612   4.823  0.0783 -2.5717 -0.1951
22115SOL     OW68351   5.078   9.056   2.500  0.4621 -0.0334 -0.0986
22115SOL    HW168352   5.083   9.004   2.420 -0.6198 -2.0371  1.0696
22115SOL    HW268353   5.061   8.993   2.569  1.7473  1.5951  1.8172
22116SOL     OW68354   5.152   0.932   0.051  0.6428 -0.0137 -0.4488
22116SOL    HW168355   5.065   0.950   0.085  0.8013  0.8526 -0.4734
22116SOL    HW268356   5.152   0.969  -0.037  0.8006 -0.6559 -0.7187
22117SOL     OW68357   2.967   7.724   0.062  0.5265  0.1529 -0.5550
22117SOL    HW168358   2.949   7.818   0.067  2.0899  0.4516  0.1244
22117SOL    HW268359   2.965   7.695   0.154 -2.9079 -1.1541 -0.8853
22118SOL     OW68360  10.986   2.475   6.782  0.3382 -0.5863 -0.5878
22118SOL    HW168361  10.952   2.430   6.704 -1.7603  0.8903 -0.6048
22118SOL    HW268362  11.005   2.564   6.752 -0.4936  0.0029  0.5522
22119SOL     OW68363  10.012   6.345   3.446 -0.1587  0.5016  0.2845
22119SOL    HW168364  10.024   6.356   3.540  1.4400 -0.9675  0.3105
22119SOL    HW268365  10.057   6.420   3.406  1.2186 -0.0736  0.6768
22120SOL     OW68366   2.228   0.962   4.503 -0.1197  0.0775 -0.3853
22120SOL    HW168367   2.254   1.019   4.576 -1.1313  1.1946 -0.8669
22120SOL    HW268368   2.132   0.961   4.506 -0.1413 -2.5758  0.3077
22121SOL     OW68369   1.608   9.501  10.923 -0.8802 -0.6724  0.2337
22121SOL    HW168370   1.678   9.564  10.910  0.5181 -2.2817 -0.5362
22121SOL    HW268371   1.537   9.532  10.867 -0.3001  0.2972  0.0139
22122SOL     OW68372   0.598   4.692   7.034 -0.3536 -0.7872  1.1723
22122SOL    HW168373   0.507   4.665   7.045 -0.6990 -0.4365 -0.5485
22122SOL    HW268374   0.621   4.665   6.945  1.8346 -2.4954  2.1508
22123SOL     OW68375   9.542   2.811   3.246 -0.4201  0.1290 -0.2288
22123SOL    HW168376   9.498   2.771   3.170 -2.9335  0.5159  0.9031
22123SOL    HW268377   9.500   2.897   3.255 -0.1323  0.1163  1.5290
22124SOL     OW68378  10.268   2.251   3.976  0.9026 -0.3743 -0.5258
22124SOL    HW168379  10.280   2.323   3.914  0.0541  2.7071  2.6143
22124SOL    HW268380  10.175   2.253   3.998  1.0390 -1.8731  0.3209
22125SOL     OW68381   8.435   1.501   5.262  0.6575 -0.0392 -0.2379
22125SOL    HW168382   8.438   1.445   5.185  0.5733  0.2820 -0.4757
22125SOL    HW268383   8.466   1.446   5.333  0.6335 -0.3686 -0.4832
22126SOL     OW68384   0.025   7.974  10.583  0.3400 -0.0356  0.3955
22126SOL    HW168385  -0.061   7.946  10.616 -0.6958  0.4856 -1.7220
22126SOL    HW268386   0.074   7.997  10.662 -1.1184 -1.2567  1.7327
22127SOL     OW68387   3.815   5.952   3.036  0.2808 -0.0546  0.6173
22127SOL    HW168388   3.893   5.900   3.018  0.2696  0.7797 -2.2876
22127SOL    HW268389   3.837   6.040   3.005 -0.7194  1.0042  2.7458
22128SOL     OW68390   1.317   6.434   2.968  0.3660  0.3744  0.6737
22128SOL    HW168391   1.349   6.389   3.045  0.0755  1.3882  1.4103
22128SOL    HW268392   1.367   6.397   2.895  0.6705 -0.5609  1.3488
22129SOL     OW68393  10.047   6.396   5.905  0.1042  0.1875  0.0970
22129SOL    HW168394  10.058   6.302   5.916 -0.2958  0.1383  0.0901
22129SOL    HW268395  10.007   6.426   5.986 -0.6832  0.1924 -0.2861
22130SOL     OW68396   0.795   6.070   6.367  0.3507  0.1655  0.6552
22130SOL    HW168397   0.796   6.069   6.271 -0.4230 -1.3871  0.6347
22130SOL    HW268398   0.721   6.127   6.390  1.0149  1.1716  0.3610
22131SOL     OW68399   0.850   0.285   8.577 -0.2432 -0.3883 -0.4154
22131SOL    HW168400   0.943   0.283   8.597 -1.0200 -0.2146  4.7537
22131SOL    HW268401   0.820   0.371   8.607 -2.3485 -1.2768  0.2793
22132SOL     OW68402   6.879   3.573   9.900 -0.3050 -0.3953  0.0668
22132SOL    HW168403   6.856   3.595   9.991  1.9071  3.0248 -0.0316
22132SOL    HW268404   6.917   3.485   9.906  3.2402  1.0504  3.2742
22133SOL     OW68405   7.160   9.847   2.754 -0.0597  0.6653  0.0247
22133SOL    HW168406   7.142   9.801   2.837 -1.5983 -0.1862 -0.7212
22133SOL    HW268407   7.244   9.890   2.768 -0.1599  0.3411  1.9447
22134SOL     OW68408   3.495   8.740   5.790 -0.2706 -0.2719 -0.2493
22134SOL    HW168409   3.559   8.698   5.848 -0.8491  0.5694  1.0506
22134SOL    HW268410   3.411   8.706   5.819 -0.4240 -1.6620 -2.2021
22135SOL     OW68411  10.697   2.577   5.052  0.1426  0.1222  0.0245
22135SOL    HW168412  10.761   2.559   4.983 -0.2553  1.4872 -0.7259
22135SOL    HW268413  10.739   2.642   5.108  0.4401 -0.9312  1.0902
22136SOL     OW68414  11.126   9.474   9.569  0.3844  0.6542  0.0264
22136SOL    HW168415  11.068   9.522   9.627  0.0358  0.3548 -0.0694
22136SOL    HW268416  11.182   9.541   9.530 -1.2296  1.2383 -1.4438
22137SOL     OW68417   6.662   2.081   1.308  0.4634 -0.1863 -0.4680
22137SOL    HW168418   6.750   2.092   1.344  0.0077  0.8641  0.3552
22137SOL    HW268419   6.623   2.168   1.310 -0.4718 -0.5686 -1.1667
22138SOL     OW68420   2.568   9.287   9.496  0.2384 -0.1555 -0.1973
22138SOL    HW168421   2.630   9.296   9.423 -0.3736  0.3353 -0.6654
22138SOL    HW268422   2.482   9.289   9.455 -0.1034 -1.7611  0.3422
22139SOL     OW68423   2.478   2.894   0.285 -1.0432 -0.4793  0.5976
22139SOL    HW168424   2.473   2.932   0.372  0.8941 -2.9556  1.9056
22139SOL    HW268425   2.527   2.813   0.296  0.5646 -0.2135 -3.0312
22140SOL     OW68426   8.566   3.259   5.984 -0.8082  0.0897 -0.1145
22140SOL    HW168427   8.577   3.323   6.053  0.6875 -0.8076  0.5238
22140SOL    HW268428   8.501   3.197   6.018 -1.6812  0.8225 -0.4206
22141SOL     OW68429   0.796   5.276   6.714  0.3798  0.6076  0.2846
22141SOL    HW168430   0.713   5.272   6.762  0.1364  1.3645 -0.0604
22141SOL    HW268431   0.863   5.256   6.780 -0.1280 -0.7974  0.3938
22142SOL     OW68432   4.630   4.562   1.819 -0.4619 -0.6214 -0.5317
22142SOL    HW168433   4.573   4.498   1.776 -1.4124 -1.8078  2.2137
22142SOL    HW268434   4.654   4.520   1.902  4.0833  0.0330 -1.2417
22143SOL     OW68435  10.045   4.067   5.531 -0.1683  0.5659 -0.1876
22143SOL    HW168436  10.056   3.996   5.594  1.1481 -0.2524 -1.2810
22143SOL    HW268437  10.116   4.128   5.550 -0.9442  1.3187  0.3677
22144SOL     OW68438   3.982  10.638   7.098 -0.3171  0.2974  0.1904
22144SOL    HW168439   3.925  10.608   7.027 -1.5699 -0.3191  1.3905
22144SOL    HW268440   3.973  10.733   7.098 -0.5793  0.2761 -0.2487
22145SOL     OW68441   8.118   3.242   4.528  0.0189  0.0731  0.1966
22145SOL    HW168442   8.091   3.277   4.613 -0.7927  2.7653 -1.0561
22145SOL    HW268443   8.038   3.210   4.488  0.4136 -1.2855  0.4462
22146SOL     OW68444   8.124   0.672   6.074  0.1964 -0.1591  1.0360
22146SOL    HW168445   8.085   0.745   6.025  0.1831 -0.8210  0.0202
22146SOL    HW268446   8.070   0.665   6.153  1.3348  2.1156  2.1174
22147SOL     OW68447   3.883   4.268   7.886  0.0055 -0.1200 -0.4548
22147SOL    HW168448   3.893   4.327   7.812 -0.3362 -0.5927 -0.8906
22147SOL    HW268449   3.788   4.261   7.898  0.0353 -0.7247 -0.5337
22148SOL     OW68450   9.324   1.971   4.715  1.1420  0.0179  0.4442
22148SOL    HW168451   9.265   2.040   4.745 -0.6377  0.3381 -3.2731
22148SOL    HW268452   9.301   1.895   4.768 -1.1739  0.7210  0.5398
22149SOL     OW68453   2.043   7.817   2.074  0.0300 -0.3397 -0.3714
22149SOL    HW168454   1.992   7.865   2.138 -0.0628 -0.2823 -0.4877
22149SOL    HW268455   2.091   7.752   2.125 -1.3798 -1.4699 -0.4308
22150SOL     OW68456   4.408   3.010   1.222  0.3496 -0.6902 -0.1261
22150SOL    HW168457   4.461   3.086   1.247 -0.1785 -0.7606  1.2732
22150SOL    HW268458   4.438   2.940   1.279  0.3298 -1.3496 -0.9122
22151SOL     OW68459   3.671   4.346   2.538  0.0494  0.0255 -0.0541
22151SOL    HW168460   3.580   4.359   2.565 -1.2341 -1.2755 -3.2391
22151SOL    HW268461   3.699   4.268   2.585 -0.2343  0.7776  1.4129
22152SOL     OW68462   3.577   8.327   0.852  0.3261 -0.0329 -0.2755
22152SOL    HW168463   3.486   8.347   0.874  0.3117 -1.6079  1.3448
22152SOL    HW268464   3.592   8.241   0.890  2.5727  0.2844 -0.3333
22153SOL     OW68465   9.085   2.179   0.722 -0.0044 -0.2204 -0.0758
22153SOL    HW168466   9.093   2.085   0.707  1.4959  0.0349 -1.0566
22153SOL    HW268467   9.048   2.214   0.641 -2.3645 -0.1633  0.9666
22154SOL     OW68468   4.355  11.224   8.073  0.0135  0.0580 -0.0818
22154SOL    HW168469   4.320  11.225   7.984  0.0824  4.1161 -0.2510
22154SOL    HW268470   4.444  11.259   8.064  0.1455  0.2378  1.5711
22155SOL     OW68471  11.248   7.216   5.033 -0.6239  0.2668 -0.7144
22155SOL    HW168472  11.240   7.137   4.980 -0.5975  1.0264 -1.8870
22155SOL    HW268473  11.332   7.254   5.005 -1.1687  1.2890 -0.9996
22156SOL     OW68474   9.827   4.975   4.593  0.4371 -0.0363 -0.1699
22156SOL    HW168475   9.736   4.946   4.588 -0.3979  1.9505  1.7626
22156SOL    HW268476   9.870   4.912   4.651 -0.1749 -0.0259  0.2994
22157SOL     OW68477   8.616  10.222   8.218 -0.3631  0.7082 -0.8048
22157SOL    HW168478   8.674  10.297   8.211  0.5011  0.3036  1.3215
22157SOL    HW268479   8.528  10.260   8.227  0.1168  1.5368  0.8176
22158SOL     OW68480   3.096   7.766   8.705 -0.0330 -0.2163  0.2376
22158SOL    HW168481   3.134   7.850   8.728 -0.4706  0.1917 -0.5041
22158SOL    HW268482   3.158   7.701   8.737  0.6551  0.4056  0.1646
22159SOL     OW68483   8.664   3.549   5.889  0.4521  0.7547 -0.2211
22159SOL    HW168484   8.681   3.643   5.878 -0.9114  0.9223 -1.1590
22159SOL    HW268485   8.640   3.519   5.801 -1.8609  0.1292  0.5559
22160SOL     OW68486   1.929  10.086   7.250 -0.1496  0.1361  0.5611
22160SOL    HW168487   1.956   9.999   7.279  1.3734  0.4989  0.3155
22160SOL    HW268488   1.868  10.069   7.178 -0.3620 -0.7297  0.9385
22161SOL     OW68489   6.298  10.622   2.341 -0.6707  0.0426 -0.5728
22161SOL    HW168490   6.342  10.616   2.256  0.0496 -1.7607 -0.1149
22161SOL    HW268491   6.255  10.537   2.352 -1.4265  0.5472  0.5197
22162SOL     OW68492   4.495   5.898   2.825  0.2254  0.1536  0.1227
22162SOL    HW168493   4.469   5.889   2.734 -0.0648 -1.0728  0.3095
22162SOL    HW268494   4.590   5.911   2.822  0.0742  1.2031 -0.3944
22163SOL     OW68495   7.308   3.129  10.664  0.2360 -0.3846 -0.0689
22163SOL    HW168496   7.227   3.086  10.690 -0.4592  1.0689  0.3168
22163SOL    HW268497   7.378   3.067  10.687 -0.7408 -1.5400 -0.1615
22164SOL     OW68498   5.324   1.943   4.475  0.2018 -0.0640 -0.0207
22164SOL    HW168499   5.284   1.947   4.388 -0.9257 -0.1319  0.4851
22164SOL    HW268500   5.302   1.857   4.509  0.3271  0.0951  0.4785
22165SOL     OW68501   4.161  10.000   9.074  0.0418 -0.1277  0.3421
22165SOL    HW168502   4.226  10.049   9.025  0.9010 -0.3130  1.2444
22165SOL    HW268503   4.076  10.032   9.043  0.5737  0.6813 -0.2975
22166SOL     OW68504   6.745   9.188   7.025  0.3961  0.4223  0.1864
22166SOL    HW168505   6.664   9.211   7.072  1.1311 -0.0043  1.7358
22166SOL    HW268506   6.790   9.272   7.013  0.8711  0.3832  1.5720
22167SOL     OW68507   9.472  10.001   8.122 -0.2571  0.3510  0.1748
22167SOL    HW168508   9.536  10.072   8.128 -1.6058  1.5589  0.9440
22167SOL    HW268509   9.524   9.921   8.127  1.1666  1.2852  0.9687
22168SOL     OW68510   8.584   0.277   7.170 -0.2918 -0.3438  0.0227
22168SOL    HW168511   8.506   0.321   7.205 -0.0620  0.3388 -0.3197
22168SOL    HW268512   8.549   0.208   7.114 -0.6514 -0.0281 -0.1451
22169SOL     OW68513   4.497   0.187   0.959  0.0249 -0.0513  0.4116
22169SOL    HW168514   4.555   0.214   0.887 -1.7818  1.0648 -0.7255
22169SOL    HW268515   4.492   0.092   0.951 -0.3131  0.0625 -1.1207
22170SOL     OW68516   8.557   1.326   1.639 -0.0513  0.2757  0.2643
22170SOL    HW168517   8.506   1.372   1.705 -0.0493 -0.0079  0.4635
22170SOL    HW268518   8.500   1.254   1.610 -0.5969  1.1958 -1.0252
22171SOL     OW68519   9.456   2.566   6.156 -0.8085  0.3473 -0.6320
22171SOL    HW168520   9.430   2.497   6.095  2.4655 -1.2126 -0.4670
22171SOL    HW268521   9.549   2.551   6.171 -1.0795  1.5911  3.5752
22172SOL     OW68522   3.416   1.815   1.871  0.1343 -0.3966 -0.5749
22172SOL    HW168523   3.330   1.796   1.833  0.6137 -0.0318 -1.9065
22172SOL    HW268524   3.454   1.729   1.889  0.4557 -0.6626 -2.2954
22173SOL     OW68525  10.753   2.239  10.894  0.3963  0.2127  1.0082
22173SOL    HW168526  10.776   2.175  10.827  1.1095  1.5420 -0.0913
22173SOL    HW268527  10.748   2.322  10.846  0.7840  1.1913  2.5823
22174SOL     OW68528   3.950   9.244   4.338 -0.1904 -0.3387  0.5358
22174SOL    HW168529   4.032   9.288   4.315 -0.8965  0.9515  0.3822
22174SOL    HW268530   3.882   9.304   4.308 -1.1933 -1.2231  0.9917
22175SOL     OW68531   5.202   2.569   5.418  0.2202  0.3475  0.0666
22175SOL    HW168532   5.225   2.498   5.478  0.3749 -1.7018 -2.2523
22175SOL    HW268533   5.206   2.649   5.472  0.0864 -1.3457  2.7824
22176SOL     OW68534   2.693   3.516   8.777 -0.3085  0.4886  0.6761
22176SOL    HW168535   2.681   3.423   8.756  0.2332 -0.3956  3.7510
22176SOL    HW268536   2.779   3.538   8.742 -0.3225 -0.2588  0.1527
22177SOL     OW68537  11.272   8.690   9.147  0.1876  0.1574 -0.4692
22177SOL    HW168538  11.362   8.665   9.167  0.5998  0.7151 -1.5475
22177SOL    HW268539  11.251   8.757   9.213  0.2362 -0.5979  0.3329
22178SOL     OW68540   4.425   9.173   5.172  0.7033 -0.0731 -0.4643
22178SOL    HW168541   4.502   9.182   5.116  0.4580 -2.6801 -1.3358
22178SOL    HW268542   4.447   9.104   5.234 -1.3331 -1.8365 -1.5853
22179SOL     OW68543   3.517   8.512   4.723 -0.0065  0.0645  0.0997
22179SOL    HW168544   3.480   8.489   4.638 -0.1743 -0.2177  0.2487
22179SOL    HW268545   3.486   8.443   4.782  0.9580 -0.3234  0.1737
22180SOL     OW68546   2.917   3.316   8.362 -0.2123 -0.1289 -0.2392
22180SOL    HW168547   2.975   3.389   8.379 -0.8570  0.3181  0.0891
22180SOL    HW268548   2.829   3.354   8.362 -0.6503 -1.0729  1.0471
22181SOL     OW68549   5.268  10.943   2.134  0.5293  0.0198 -0.5891
22181SOL    HW168550   5.318  10.897   2.066  1.6073  0.6498 -0.2526
22181SOL    HW268551   5.329  10.950   2.207 -0.1858  0.5098 -0.0320
22182SOL     OW68552   7.395   5.288   5.501 -0.5462  0.0345  0.1873
22182SOL    HW168553   7.325   5.337   5.457 -1.2407 -0.1374  1.0728
22182SOL    HW268554   7.453   5.261   5.430 -2.3608 -1.4229 -0.8318
22183SOL     OW68555   6.677   0.774   3.190  0.0503  0.2868  0.8259
22183SOL    HW168556   6.636   0.856   3.164 -0.7739 -0.6159 -0.8986
22183SOL    HW268557   6.657   0.765   3.283 -2.2575  0.6875  0.4209
22184SOL     OW68558   4.138   3.762   7.107 -0.1635 -0.7149  0.3205
22184SOL    HW168559   4.195   3.692   7.077 -0.0563 -0.3895 -0.2472
22184SOL    HW268560   4.172   3.786   7.193  1.4766  0.4859 -0.6306
22185SOL     OW68561   7.673  10.016   7.451 -0.0167  0.4563  0.6799
22185SOL    HW168562   7.725  10.089   7.417 -1.6079  1.4228  0.2175
22185SOL    HW268563   7.628  10.053   7.528  2.1542 -1.1847  2.8963
22186SOL     OW68564   3.533   2.181  10.941  0.2209  0.3621 -0.9558
22186SOL    HW168565   3.519   2.099  10.987  0.7790 -0.0220 -1.4567
22186SOL    HW268566   3.608   2.221  10.985 -0.2820  0.7865 -0.4730
22187SOL     OW68567   8.066   8.583  10.740 -0.6704 -0.9418 -0.6528
22187SOL    HW168568   8.002   8.526  10.697 -1.6838 -0.6808  0.4536
22187SOL    HW268569   8.074   8.548  10.828 -0.5435  0.0095 -0.2676
22188SOL     OW68570   5.851  10.346   3.568  0.2748 -0.5019  0.3504
22188SOL    HW168571   5.775  10.395   3.537  0.5539 -0.1729  0.1699
22188SOL    HW268572   5.815  10.276   3.622 -0.1701 -0.5219  0.0335
22189SOL     OW68573   6.325   9.936   0.390 -0.2167  0.4238  0.6966
22189SOL    HW168574   6.282   9.851   0.384  0.5462  0.0856 -0.4435
22189SOL    HW268575   6.258   9.995   0.422 -0.5592 -0.7322  2.2199
22190SOL     OW68576   0.004   2.170  11.186 -0.0867  0.3594 -0.4793
22190SOL    HW168577   0.046   2.208  11.108  2.1512 -1.7290 -0.4013
22190SOL    HW268578   0.010   2.239  11.252 -1.1549  1.8163 -1.8244
22191SOL     OW68579   8.496   9.026   6.558  0.2441  0.5721  0.1855
22191SOL    HW168580   8.497   8.975   6.478  0.5066  2.0673 -0.8176
22191SOL    HW268581   8.570   9.086   6.549  1.4921 -0.4924  2.4458
22192SOL     OW68582   7.186   3.743   2.405  0.3677  0.1791 -0.5425
22192SOL    HW168583   7.197   3.748   2.310  0.0551  0.2929 -0.5741
22192SOL    HW268584   7.219   3.657   2.429 -2.0513 -0.9813 -1.1065
22193SOL     OW68585   0.691   4.625   4.762 -0.1119 -0.3561  0.0698
22193SOL    HW168586   0.647   4.617   4.847 -2.0719  2.0970 -0.5804
22193SOL    HW268587   0.712   4.718   4.755  0.7383 -0.6518 -1.7988
22194SOL     OW68588   6.331   9.725   9.677  0.3870 -0.0299 -0.3646
22194SOL    HW168589   6.329   9.805   9.729  0.9506  1.1978 -2.1139
22194SOL    HW268590   6.419   9.724   9.639 -0.2583 -0.3928 -1.9363
22195SOL     OW68591   6.991   8.091   2.618  0.5776 -0.6132  0.2326
22195SOL    HW168592   7.017   8.030   2.687 -1.3529 -3.1574 -1.1328
22195SOL    HW268593   6.896   8.099   2.629  0.6021  1.0654 -0.5202
22196SOL     OW68594   1.535   9.271   2.328 -0.0456  0.3810 -0.8983
22196SOL    HW168595   1.470   9.265   2.398  0.4083  0.6279 -0.4496
22196SOL    HW268596   1.576   9.184   2.327  0.3594  0.5660 -0.4519
22197SOL     OW68597  11.137   0.063   5.865 -0.0609  0.5153 -0.0106
22197SOL    HW168598  11.159   0.081   5.774  0.6973  0.7024  0.2006
22197SOL    HW268599  11.193  -0.011   5.889 -0.7738 -0.0021  0.0996
22198SOL     OW68600   9.543   5.849   0.296  0.0003 -0.0032  0.4487
22198SOL    HW168601   9.489   5.864   0.219  2.4373 -2.0837 -1.8650
22198SOL    HW268602   9.562   5.936   0.330  1.7383  1.3715 -3.5135
22199SOL     OW68603   4.435   8.092  10.657 -0.3430 -0.0101  0.4102
22199SOL    HW168604   4.394   8.027  10.599  0.5188  0.5359 -0.8431
22199SOL    HW268605   4.501   8.134  10.603  0.4898  0.5341  1.8108
22200SOL     OW68606   2.942   5.883   6.335 -0.1195 -0.2016 -0.2201
22200SOL    HW168607   3.019   5.834   6.307  0.2605 -0.1292  0.6536
22200SOL    HW268608   2.940   5.870   6.430 -1.8200 -1.1105 -0.3533
22201SOL     OW68609   4.715   3.630   8.520  0.2199 -0.0259  0.1053
22201SOL    HW168610   4.622   3.617   8.504 -0.2151  2.6017  0.0897
22201SOL    HW268611   4.750   3.661   8.436  1.0970 -0.8295  0.1544
22202SOL     OW68612   3.438   3.606   8.052  0.0343  0.5436  0.3523
22202SOL    HW168613   3.514   3.632   8.000  0.0004  1.2342  0.6458
22202SOL    HW268614   3.409   3.686   8.095 -1.0637  0.3532 -0.0059
22203SOL     OW68615   9.256   3.900   1.461 -0.0816  0.2673 -0.1876
22203SOL    HW168616   9.264   3.916   1.367 -0.9690 -0.2281 -0.3596
22203SOL    HW268617   9.273   3.985   1.502  2.1484  0.0977 -0.6770
22204SOL     OW68618   4.687   9.389   7.465  0.2856 -0.9749  0.4687
22204SOL    HW168619   4.679   9.429   7.379  1.3543 -0.8350  0.4213
22204SOL    HW268620   4.762   9.331   7.458  0.6409 -0.6515  1.4178
22205SOL     OW68621   4.290   2.531   8.317 -0.1420 -0.2338 -0.5435
22205SOL    HW168622   4.243   2.579   8.249  0.4542  1.5453  0.2424
22205SOL    HW268623   4.372   2.505   8.276  0.7042  1.8033 -0.2401
22206SOL     OW68624   5.102   6.736   4.164  0.3414 -0.2610  0.1509
22206SOL    HW168625   5.045   6.802   4.126 -0.3248 -1.0980 -0.3200
22206SOL    HW268626   5.191   6.767   4.146  0.0334 -0.0801 -1.0990
22207SOL     OW68627   5.700   6.535   3.882  0.4056  0.1323  0.4775
22207SOL    HW168628   5.671   6.624   3.897  0.8303  0.7961 -2.1074
22207SOL    HW268629   5.627   6.480   3.910  0.1507  1.2393  2.1203
22208SOL     OW68630  10.395   4.024   5.955  0.1661  0.3972  0.0365
22208SOL    HW168631  10.334   3.983   6.017  0.0676 -0.3222 -0.5231
22208SOL    HW268632  10.481   3.993   5.982  0.3744  1.8504  1.1690
22209SOL     OW68633   9.902   2.793   8.720  1.4413  0.0433  0.5436
22209SOL    HW168634   9.891   2.779   8.625  3.9573 -0.1718  0.2166
22209SOL    HW268635   9.857   2.719   8.760 -2.1090  1.5498 -0.2539
22210SOL     OW68636   7.311   1.581   0.723  0.8639 -0.0052 -0.2585
22210SOL    HW168637   7.405   1.599   0.711  0.5854  2.4001  0.6168
22210SOL    HW268638   7.308   1.491   0.757  2.9408  0.2010  0.6292
22211SOL     OW68639   3.601   5.218   4.428 -0.2792 -0.3848 -0.0191
22211SOL    HW168640   3.681   5.179   4.394 -0.3150 -0.0513 -0.4910
22211SOL    HW268641   3.611   5.312   4.410 -1.1910 -0.4523 -0.9389
22212SOL     OW68642   4.820   8.769   4.556 -0.4548 -0.0979  0.2801
22212SOL    HW168643   4.755   8.839   4.555 -0.7975 -0.3901 -1.6003
22212SOL    HW268644   4.897   8.807   4.515 -0.7388 -0.8650 -1.0367
22213SOL     OW68645   8.807   8.470   2.568 -0.3901 -0.1430  0.1859
22213SOL    HW168646   8.728   8.437   2.524 -0.5811 -0.5065  0.7958
22213SOL    HW268647   8.848   8.526   2.502 -0.7335 -0.5855 -0.4220
22214SOL     OW68648   2.151   7.184   4.583  0.4205 -0.6212  0.0530
22214SOL    HW168649   2.246   7.194   4.576  0.2689  1.8730  0.6735
22214SOL    HW268650   2.135   7.170   4.676  0.0080  3.4969  0.8080
22215SOL     OW68651   3.014   8.333   4.277  0.7115 -0.2304  0.3176
22215SOL    HW168652   3.061   8.372   4.351  1.4898  2.2676 -1.3490
22215SOL    HW268653   2.922   8.349   4.297  1.0013  3.0416 -0.4541
22216SOL     OW68654   9.549   4.712   5.652  0.4612 -0.1812  0.2788
22216SOL    HW168655   9.590   4.650   5.713 -0.7949 -0.3548  0.9770
22216SOL    HW268656   9.484   4.660   5.605 -1.1558  0.7212  1.4187
22217SOL     OW68657   2.219   1.288  10.582 -0.2161 -0.4560 -0.2226
22217SOL    HW168658   2.183   1.229  10.516  0.7840 -1.0409 -0.2636
22217SOL    HW268659   2.143   1.313  10.636 -1.1320  0.3534 -1.8022
22218SOL     OW68660   0.476   7.226   3.061 -0.2834  0.0293  0.0367
22218SOL    HW168661   0.419   7.301   3.043  1.7192  1.6586  0.1208
22218SOL    HW268662   0.501   7.235   3.153 -1.2839 -1.6983  0.5190
22219SOL     OW68663   9.560  10.193  10.043  0.1372  0.1687  0.4478
22219SOL    HW168664   9.641  10.225  10.081 -0.3571  0.8239  0.9638
22219SOL    HW268665   9.544  10.251   9.969  0.3986 -0.2786  0.0314
22220SOL     OW68666   5.255   7.181   9.921 -0.0752  0.5782  0.4494
22220SOL    HW168667   5.214   7.098   9.899 -0.5269  0.5696  1.2827
22220SOL    HW268668   5.313   7.200   9.847 -1.7240  0.6784 -0.8610
22221SOL     OW68669   7.843   9.414   2.548  0.2954  0.8337 -0.2795
22221SOL    HW168670   7.784   9.358   2.599  1.4917  0.0721  0.3056
22221SOL    HW268671   7.832   9.501   2.586  0.8959  0.3494  1.0900
22222SOL     OW68672   0.154   6.409   7.921  0.3164 -0.2653  0.3985
22222SOL    HW168673   0.107   6.487   7.890  1.1034 -0.3629 -1.1292
22222SOL    HW268674   0.094   6.337   7.903  1.0985 -0.4321 -1.8762
22223SOL     OW68675   4.456   3.931   9.799 -0.2660  0.0764  0.3191
22223SOL    HW168676   4.484   3.923   9.890  0.2648  0.0610  0.1585
22223SOL    HW268677   4.384   3.995   9.801  0.2268  0.6242  0.6487
22224SOL     OW68678   9.792  10.138   5.806 -0.0626  0.2391 -0.1126
22224SOL    HW168679   9.697  10.143   5.814  0.0365  1.5543  0.5151
22224SOL    HW268680   9.825  10.204   5.867  1.3039 -0.9854  0.5659
22225SOL     OW68681   1.861   8.405   2.906 -0.2955 -0.6682  0.0745
22225SOL    HW168682   1.821   8.451   2.980  0.9331  1.6314 -0.5912
22225SOL    HW268683   1.814   8.437   2.829  0.6013 -0.4449 -0.4067
22226SOL     OW68684  10.647   1.971   2.770 -0.0640  0.7420 -0.5029
22226SOL    HW168685  10.703   1.896   2.749 -1.0822  0.3651 -2.0076
22226SOL    HW268686  10.703   2.047   2.756  1.2551  0.3208  1.8786
22227SOL     OW68687   7.902   9.676   8.239 -0.2194  0.0632 -0.5466
22227SOL    HW168688   7.976   9.695   8.296 -0.3016 -0.0287 -0.4109
22227SOL    HW268689   7.825   9.692   8.292 -0.3708  2.4997 -1.3681
22228SOL     OW68690   5.834   1.206   5.636  0.1355 -0.6294 -0.1831
22228SOL    HW168691   5.816   1.144   5.707 -1.4801 -0.6152 -0.5328
22228SOL    HW268692   5.777   1.178   5.565  0.9049  0.0341 -1.0832
22229SOL     OW68693  10.982   3.904   6.853 -0.0462  0.1374 -0.4913
22229SOL    HW168694  10.896   3.946   6.858 -0.1777 -0.1780  0.0172
22229SOL    HW268695  10.971   3.835   6.787  0.4882  1.5890 -2.1689
22230SOL     OW68696   2.763   6.134   2.287 -0.1576  0.1023  0.6424
22230SOL    HW168697   2.812   6.130   2.205 -0.6440 -0.0023  0.3530
22230SOL    HW268698   2.755   6.227   2.306 -0.4898  0.1433  0.3008
22231SOL     OW68699   4.283   6.623  11.268 -0.8515 -0.4946  0.4032
22231SOL    HW168700   4.193   6.616  11.234 -0.7995  0.8666 -0.0876
22231SOL    HW268701   4.296   6.717  11.281  1.0315 -0.4931 -1.0076
22232SOL     OW68702   3.922   8.685   7.781 -0.2787 -0.2717 -0.5575
22232SOL    HW168703   3.909   8.612   7.842 -1.4203  0.0530 -0.3825
22232SOL    HW268704   3.850   8.677   7.718  0.2849  0.0016 -1.2450
22233SOL     OW68705   9.306   2.162   8.520 -0.0868 -0.1578 -0.9437
22233SOL    HW168706   9.319   2.068   8.509  1.7504  0.1260 -1.4166
22233SOL    HW268707   9.385   2.193   8.564 -2.2125  0.6137  2.7581
22234SOL     OW68708   7.849   9.603   9.141  0.0612 -0.4087  0.7925
22234SOL    HW168709   7.852   9.699   9.140 -0.7007 -0.3828 -0.5457
22234SOL    HW268710   7.925   9.578   9.194  0.7050  0.9086  0.5501
22235SOL     OW68711   9.299   1.070   2.590 -0.5648  0.1009  0.1455
22235SOL    HW168712   9.286   0.996   2.531  2.6260  1.5757 -2.7532
22235SOL    HW268713   9.216   1.119   2.586 -0.9254 -0.5683 -2.1585
22236SOL     OW68714   0.305   0.224   4.077  0.4232 -0.0961  0.5324
22236SOL    HW168715   0.266   0.138   4.065  1.4224 -0.5778  0.6812
22236SOL    HW268716   0.383   0.208   4.130  1.9365  0.5606 -1.4031
22237SOL     OW68717   3.218   5.190   4.979  0.0009  0.4070 -0.0193
22237SOL    HW168718   3.178   5.103   4.973 -1.9957  1.2500  0.1601
22237SOL    HW268719   3.188   5.236   4.901  0.1097  1.2802  0.4348
22238SOL     OW68720   4.360   4.154  10.300 -0.1061  0.0543 -0.1447
22238SOL    HW168721   4.402   4.228  10.344  0.2881  0.1750 -0.7178
22238SOL    HW268722   4.288   4.194  10.251 -0.9441 -0.1541  0.8585
22239SOL     OW68723   3.292   9.930   8.108 -0.6992  0.5677  0.1249
22239SOL    HW168724   3.387   9.921   8.115 -0.8864 -1.7258  0.6887
22239SOL    HW268725   3.279   9.990   8.035  1.1928  0.3296 -0.4707
22240SOL     OW68726   1.621   3.708   3.311  0.2891 -0.3725  0.1632
22240SOL    HW168727   1.546   3.740   3.361  0.2624  0.6140 -0.4759
22240SOL    HW268728   1.638   3.777   3.246  1.5444 -0.7282  0.0868
22241SOL     OW68729   4.131   2.599   8.930  0.3749  0.3583  0.0323
22241SOL    HW168730   4.204   2.581   8.871 -0.0538  0.2333 -0.4741
22241SOL    HW268731   4.168   2.593   9.018  0.9128  0.0249 -0.2144
22242SOL     OW68732   6.822   4.363  10.623 -0.0795  0.1777  0.3488
22242SOL    HW168733   6.869   4.359  10.540  0.6671 -2.1487  0.8010
22242SOL    HW268734   6.730   4.350  10.600  0.2104 -1.2446 -0.0841
22243SOL     OW68735   1.055   9.710   3.371 -0.1065  0.3427 -0.4889
22243SOL    HW168736   1.095   9.756   3.298 -0.2431  0.2997 -0.5916
22243SOL    HW268737   1.087   9.755   3.449  0.3185  0.1672 -0.5585
22244SOL     OW68738   5.487   4.920   2.674 -0.5167 -0.4027  0.6690
22244SOL    HW168739   5.493   4.926   2.579  0.9076 -0.4770  0.7328
22244SOL    HW268740   5.451   4.833   2.691 -0.6877 -0.4236  0.2138
22245SOL     OW68741   7.213   1.928   3.466 -0.0141 -0.3970 -0.1897
22245SOL    HW168742   7.238   1.948   3.376  0.9546 -1.2785 -0.1466
22245SOL    HW268743   7.237   2.006   3.516  2.2712 -0.9825 -0.2475
22246SOL     OW68744   9.744   6.271   0.891 -0.2919  0.6229 -0.2057
22246SOL    HW168745   9.712   6.361   0.880  0.7059  0.9962 -0.2068
22246SOL    HW268746   9.831   6.282   0.928 -0.3385 -0.3717  0.2125
22247SOL     OW68747   0.988   8.868   7.906 -0.0334  0.1691 -0.2061
22247SOL    HW168748   0.944   8.796   7.952 -0.5960 -0.1927 -1.2693
22247SOL    HW268749   0.996   8.837   7.816 -0.4062  1.4804 -0.7181
22248SOL     OW68750   4.408   6.743   2.347 -0.1314 -0.1329 -0.1548
22248SOL    HW168751   4.387   6.834   2.371 -1.1414 -1.2247  3.8952
22248SOL    HW268752   4.327   6.709   2.310  0.2060  0.5035 -1.5500
22249SOL     OW68753   1.887   5.575   5.088 -0.1199  0.3952 -0.0225
22249SOL    HW168754   1.899   5.519   5.011 -0.0980  0.6572 -0.2106
22249SOL    HW268755   1.792   5.575   5.102 -0.2258  1.2025 -0.6947
22250SOL     OW68756   7.431  10.851   4.943  0.9037 -0.2172  0.1816
22250SOL    HW168757   7.469  10.937   4.960 -0.8247  0.6480 -0.1146
22250SOL    HW268758   7.405  10.818   5.029 -1.6716  1.1789  0.0319
22251SOL     OW68759   6.584   0.424   4.067  0.3593  0.1164  0.2538
22251SOL    HW168760   6.538   0.341   4.080  0.5287 -0.0192 -0.0065
22251SOL    HW268761   6.599   0.458   4.156 -0.0117  0.0365  0.3486
22252SOL     OW68762   9.210  10.930  10.996  0.0867 -0.1880 -0.7255
22252SOL    HW168763   9.263  10.935  11.075  1.0228 -1.2695 -1.2615
22252SOL    HW268764   9.126  10.969  11.021  0.0678 -1.2741  1.0445
22253SOL     OW68765   8.040   0.609   0.635  0.0888  0.5337 -0.5294
22253SOL    HW168766   8.120   0.571   0.670 -0.8203 -1.8328 -0.8054
22253SOL    HW268767   8.066   0.649   0.552  1.1660  0.7845 -0.0796
22254SOL     OW68768   3.260  11.008   1.813  0.4788 -0.8686 -0.4678
22254SOL    HW168769   3.276  10.962   1.731  1.2855  1.7373 -1.8813
22254SOL    HW268770   3.313  10.961   1.877  0.4411 -2.4954 -1.5674
22255SOL     OW68771   4.338   2.264   9.974 -0.7344  0.1595 -0.1616
22255SOL    HW168772   4.290   2.184   9.998  2.2728 -1.4587  0.9575
22255SOL    HW268773   4.334   2.267   9.879 -1.3944 -0.9826 -0.1874
22256SOL     OW68774   3.626   5.366   5.104  0.1245 -0.4488  0.1496
22256SOL    HW168775   3.580   5.283   5.091  0.9014 -1.5942  3.6271
22256SOL    HW268776   3.559   5.425   5.139 -0.0198 -0.1922 -0.5566
22257SOL     OW68777   2.423   0.052   6.368  0.2966 -0.5621  0.2504
22257SOL    HW168778   2.359   0.013   6.309 -0.3679  0.0592  0.5390
22257SOL    HW268779   2.473   0.113   6.313 -0.4820  0.1968  0.3603
22258SOL     OW68780   7.810   4.266   0.247 -0.8280 -0.8567 -0.0398
22258SOL    HW168781   7.839   4.345   0.201 -1.4429 -0.6303 -0.0529
22258SOL    HW268782   7.881   4.203   0.235  0.2313  0.0886  1.0206
22259SOL     OW68783   5.755   7.026   9.770  0.1042  0.0998 -0.2225
22259SOL    HW168784   5.795   7.112   9.777 -1.7923  0.8840  1.9193
22259SOL    HW268785   5.711   7.027   9.685  2.2129  0.2032 -1.3851
22260SOL     OW68786   3.929   0.265  11.078  0.0113  0.5509  0.1606
22260SOL    HW168787   3.865   0.320  11.033 -0.6239 -1.0869 -1.0380
22260SOL    HW268788   3.919   0.179  11.038  1.3771 -0.3130  1.5642
22261SOL     OW68789   1.190   1.698  10.399 -0.6350  0.1707 -0.4367
22261SOL    HW168790   1.156   1.640  10.331 -0.4939  1.1134 -1.3406
22261SOL    HW268791   1.262   1.745  10.357 -0.3716  0.5795  0.4501
22262SOL     OW68792   5.106   5.380   4.978  0.7893  0.0020 -0.4582
22262SOL    HW168793   5.140   5.467   4.997 -0.3958  0.4082 -0.1116
22262SOL    HW268794   5.012   5.387   4.994  0.7656 -1.5084  0.1844
22263SOL     OW68795  11.220   6.949   3.031 -0.5142 -0.9244  0.7785
22263SOL    HW168796  11.264   6.864   3.034 -0.1424 -0.8453 -1.3805
22263SOL    HW268797  11.262   6.999   3.101 -0.0489 -2.1678  1.4332
22264SOL     OW68798   7.275   5.605   1.028  0.0038  0.2858  0.0364
22264SOL    HW168799   7.261   5.669   0.958 -1.2298 -3.1353 -3.2278
22264SOL    HW268800   7.291   5.522   0.981  2.9263 -1.6491  3.8752
22265SOL     OW68801   8.147  10.024   3.838 -0.4579 -0.9798 -0.6705
22265SOL    HW168802   8.094  10.078   3.897 -1.9271  0.2629 -2.9700
22265SOL    HW268803   8.217  10.082   3.808  1.1755 -2.0465  0.8643
22266SOL     OW68804   8.111   1.823   4.360  0.0015 -0.3520  0.1765
22266SOL    HW168805   8.185   1.782   4.404  0.7304 -1.5458 -2.0215
22266SOL    HW268806   8.141   1.838   4.270 -1.9508  0.4456 -0.4019
22267SOL     OW68807   0.218   4.161   0.588 -0.3264  0.5416  0.0977
22267SOL    HW168808   0.217   4.200   0.675  0.4818 -2.3950  1.5365
22267SOL    HW268809   0.152   4.092   0.591 -0.5329  0.5816 -1.7596
22268SOL     OW68810  10.973   2.583   8.094  0.0458 -0.1643  0.9336
22268SOL    HW168811  10.905   2.580   8.162 -2.2947  1.1467 -1.1958
22268SOL    HW268812  10.962   2.668   8.053  0.3177 -1.4883 -2.1003
22269SOL     OW68813   8.040   3.459   8.017  0.8087  0.3099  0.0557
22269SOL    HW168814   8.046   3.369   8.048  0.8161  0.3266  0.1024
22269SOL    HW268815   8.033   3.512   8.096 -1.8356  0.1643 -0.0035
22270SOL     OW68816   9.197   0.702   2.040 -0.0321  0.1388 -0.2418
22270SOL    HW168817   9.177   0.790   2.006 -0.3053  0.2372  0.1727
22270SOL    HW268818   9.140   0.644   1.990 -1.0780  0.3750  0.6441
22271SOL     OW68819   7.061   0.754   5.270 -0.4374 -0.5366 -0.7660
22271SOL    HW168820   7.153   0.734   5.290  0.3725  2.7297 -0.5989
22271SOL    HW268821   7.061   0.777   5.177 -0.7345  0.9371 -0.4276
22272SOL     OW68822   2.619   4.182   5.692  0.1141  0.2245  0.3477
22272SOL    HW168823   2.701   4.223   5.662 -1.4701  2.4659 -1.2514
22272SOL    HW268824   2.593   4.126   5.619  0.1235 -0.3701  0.7954
22273SOL     OW68825   9.327   6.422   6.951 -0.6644  0.1400  0.4102
22273SOL    HW168826   9.343   6.484   6.880  0.6586 -0.7168 -0.0743
22273SOL    HW268827   9.292   6.476   7.022  3.5746  2.2218  1.2407
22274SOL     OW68828   0.578   1.275   4.441  0.1744  0.0532 -0.0151
22274SOL    HW168829   0.538   1.212   4.501 -0.5264 -1.6351 -2.1070
22274SOL    HW268830   0.657   1.306   4.486  1.0825 -3.0873  0.7903
22275SOL     OW68831   0.515   1.100   3.033  0.2982  0.7050 -1.2474
22275SOL    HW168832   0.473   1.014   3.025  1.6526  0.2049 -3.6699
22275SOL    HW268833   0.569   1.092   3.112 -2.8139  0.9041  1.1481
22276SOL     OW68834   6.146   1.584   9.185 -0.1929  0.2096  0.2033
22276SOL    HW168835   6.091   1.520   9.140  0.6403  0.3661 -1.0688
22276SOL    HW268836   6.084   1.638   9.233 -1.1350  0.1653 -0.9114
22277SOL     OW68837   9.529   3.470   7.066 -0.1799  0.2850 -0.8452
22277SOL    HW168838   9.574   3.386   7.056  1.0990  0.7051  0.8986
22277SOL    HW268839   9.520   3.481   7.161  1.4095  2.9782 -0.9184
22278SOL     OW68840   5.700  10.453   0.808  0.0860  0.0137  0.1795
22278SOL    HW168841   5.620  10.412   0.841  0.1163 -0.1381  0.0684
22278SOL    HW268842   5.749  10.476   0.887  0.9137 -1.8558  0.2580
22279SOL     OW68843  10.480   3.786   8.591  0.4451  0.3393 -0.4849
22279SOL    HW168844  10.473   3.825   8.504 -1.5168 -1.6537 -1.3038
22279SOL    HW268845  10.529   3.850   8.642 -0.1191  2.5043 -2.4977
22280SOL     OW68846  10.465   3.874   3.863  0.0218  0.8235  0.0164
22280SOL    HW168847  10.468   3.794   3.916 -0.2611  1.2262  0.6476
22280SOL    HW268848  10.439   3.943   3.924  1.7438  1.6906 -0.1528
22281SOL     OW68849   9.773   2.008   1.741  0.4572 -0.2628  0.0339
22281SOL    HW168850   9.800   2.094   1.708  1.1409 -0.7410 -0.7143
22281SOL    HW268851   9.681   2.019   1.765 -0.2085  0.0337 -2.4294
22282SOL     OW68852   0.695   3.592   4.264 -0.4374  0.0382 -0.0409
22282SOL    HW168853   0.688   3.496   4.258 -1.2265 -0.0350  1.5836
22282SOL    HW268854   0.639   3.624   4.194  1.0591 -0.6545 -1.6409
22283SOL     OW68855  10.507   7.879   0.164  0.1765  0.3047 -0.2607
22283SOL    HW168856  10.441   7.918   0.107 -1.0780 -1.0369  0.2077
22283SOL    HW268857  10.587   7.878   0.112 -0.5723  0.4863 -1.4455
22284SOL     OW68858   8.811   5.608   5.627 -0.2636 -0.2298  0.1946
22284SOL    HW168859   8.767   5.688   5.657 -0.5229 -0.2609 -0.1056
22284SOL    HW268860   8.902   5.634   5.616 -0.5601  0.3317 -1.0356
22285SOL     OW68861   6.638   7.113   1.221 -0.0874 -0.5725  0.9270
22285SOL    HW168862   6.646   7.194   1.272  2.4080  0.7382 -1.2964
22285SOL    HW268863   6.590   7.138   1.142 -2.6589 -2.2516  1.8140
22286SOL     OW68864   9.749   8.860   7.682  0.3309 -0.6791  0.2465
22286SOL    HW168865   9.795   8.809   7.749 -0.4562 -0.2273  1.1625
22286SOL    HW268866   9.679   8.802   7.652  1.1670 -1.1734 -0.7687
22287SOL     OW68867   1.754   3.406   1.980  1.1992  0.3485  0.6623
22287SOL    HW168868   1.813   3.449   2.042  0.9733  0.6453  0.6721
22287SOL    HW268869   1.768   3.452   1.898 -0.2741  1.5766  1.0672
22288SOL     OW68870   3.449   9.733   6.556 -0.1475  0.3562 -0.4137
22288SOL    HW168871   3.432   9.642   6.533 -1.4188  0.3351  0.4545
22288SOL    HW268872   3.500   9.729   6.637  1.3364  0.4370 -1.3097
22289SOL     OW68873   7.379   1.745  11.232  0.6719  0.5602 -0.4449
22289SOL    HW168874   7.413   1.747  11.321 -1.2282 -0.9891  0.4026
22289SOL    HW268875   7.285   1.761  11.242  0.1647 -1.0608 -1.9591
22290SOL     OW68876   5.386   9.396   9.263  0.4495  0.3914 -0.5165
22290SOL    HW168877   5.324   9.338   9.307  1.7965 -2.4341 -2.0761
22290SOL    HW268878   5.335   9.439   9.195  0.1923 -2.3769 -2.2174
22291SOL     OW68879   1.324   0.747   2.536  0.3494 -0.0065 -0.5728
22291SOL    HW168880   1.272   0.670   2.556  1.9401 -1.3508 -1.3713
22291SOL    HW268881   1.339   0.743   2.442  1.0355  0.8899 -0.5239
22292SOL     OW68882   8.700   7.076   0.993 -0.0959  0.2801  0.4144
22292SOL    HW168883   8.727   7.129   0.918  3.5878  0.9296  2.0213
22292SOL    HW268884   8.693   6.987   0.957  2.9074  0.3260 -0.5835
22293SOL     OW68885  10.113   0.214   2.480  0.3809  0.2887 -0.0514
22293SOL    HW168886  10.048   0.279   2.506 -0.6713 -1.5015  2.1037
22293SOL    HW268887  10.188   0.231   2.536 -0.1401 -0.6860  0.9851
22294SOL     OW68888   9.466  10.578   2.911  0.0053 -0.4643  0.3322
22294SOL    HW168889   9.466  10.584   2.816 -1.7407  0.8886  0.3722
22294SOL    HW268890   9.530  10.510   2.931 -0.6921 -1.8535 -1.8722
22295SOL     OW68891   4.079   2.927   1.787 -0.3479  0.0530  0.0560
22295SOL    HW168892   4.120   2.913   1.702  2.5925 -0.4837  1.4506
22295SOL    HW268893   4.097   3.019   1.808 -0.4153 -0.0240  0.4520
22296SOL     OW68894   8.040  11.144  10.004  0.0703  0.3332  0.0745
22296SOL    HW168895   8.053  11.049  10.012  0.1510  0.0346 -2.6483
22296SOL    HW268896   8.040  11.176  10.094  0.3489 -2.2065  1.0569
22297SOL     OW68897   6.489   2.958   3.329 -0.7943  1.9367  0.3629
22297SOL    HW168898   6.577   2.978   3.360 -0.1439  0.0558 -0.1609
22297SOL    HW268899   6.489   2.986   3.238 -1.1822  3.1351  0.7173
22298SOL     OW68900  10.801   6.501   2.035  0.2880 -0.7023  0.2464
22298SOL    HW168901  10.736   6.550   1.985  0.5188 -0.9408 -0.2852
22298SOL    HW268902  10.882   6.512   1.987  0.5526 -0.7744  0.6714
22299SOL     OW68903   5.674   6.802   3.750 -0.0223 -0.2330 -0.7079
22299SOL    HW168904   5.760   6.820   3.713  1.1810 -2.3080  0.8184
22299SOL    HW268905   5.661   6.871   3.814  0.0024  0.6881 -1.6652
22300SOL     OW68906  11.272   1.587   1.481 -0.5152  0.6422 -0.3787
22300SOL    HW168907  11.229   1.630   1.407 -1.7619 -0.7490 -0.4944
22300SOL    HW268908  11.310   1.508   1.444  0.8420  1.0543  0.0516
22301SOL     OW68909   3.538   5.670   9.421  0.1018  0.3395  0.7999
22301SOL    HW168910   3.481   5.676   9.344  1.6560 -0.0968 -0.4485
22301SOL    HW268911   3.577   5.757   9.429  1.2758 -0.0875 -0.0213
22302SOL     OW68912   3.363  11.153   1.002  0.6144  0.1091 -0.0948
22302SOL    HW168913   3.457  11.163   0.985  1.0540  0.4667  2.2661
22302SOL    HW268914   3.356  11.069   1.047 -0.0558  0.5670  0.6673
22303SOL     OW68915   2.010   2.541   1.202  0.0127  1.3089 -0.0982
22303SOL    HW168916   2.073   2.597   1.247  1.3992 -0.0260 -0.2881
22303SOL    HW268917   2.064   2.488   1.143 -1.1985 -0.3714  0.2463
22304SOL     OW68918  10.849   5.792   5.745 -0.3472  0.1082  0.2096
22304SOL    HW168919  10.897   5.734   5.805 -0.9898  0.2773  0.9075
22304SOL    HW268920  10.910   5.807   5.673  1.5936  2.0879  2.0700
22305SOL     OW68921   4.652  10.539   0.870  0.5478  0.0631  0.3551
22305SOL    HW168922   4.700  10.461   0.897  0.8332  0.5306  1.2720
22305SOL    HW268923   4.719  10.608   0.866  0.1101  0.5179  0.7206
22306SOL     OW68924  10.063   2.110   2.950  0.3806 -0.1669  0.5935
22306SOL    HW168925   9.981   2.093   2.902  0.4670  0.2842  0.2736
22306SOL    HW268926  10.039   2.102   3.042  0.4071 -1.9259  0.4742
22307SOL     OW68927   6.705   8.420  11.047  0.0176  0.5784 -0.3514
22307SOL    HW168928   6.672   8.510  11.040  0.3866  0.5812 -3.5123
22307SOL    HW268929   6.694   8.384  10.959  3.3619 -1.1937 -0.1970
22308SOL     OW68930   1.332   4.483   1.687  0.1763  0.4308 -0.2247
22308SOL    HW168931   1.338   4.417   1.619 -3.0915 -0.1594 -0.0802
22308SOL    HW268932   1.349   4.566   1.642  2.3271 -0.2625 -0.7988
22309SOL     OW68933  10.798   4.916   3.833  0.2157  0.0777  0.1467
22309SOL    HW168934  10.740   4.891   3.906 -2.3235  3.2524 -0.5678
22309SOL    HW268935  10.841   4.996   3.863 -0.0513  0.8317 -1.3852
22310SOL     OW68936   7.477   7.826   7.591 -0.4199  0.6197 -1.2578
22310SOL    HW168937   7.560   7.816   7.545 -0.4326 -1.1164 -0.9951
22310SOL    HW268938   7.435   7.740   7.582 -1.2247  0.8028  0.4334
22311SOL     OW68939   8.298   7.446   4.954  0.2337  0.2222  0.3668
22311SOL    HW168940   8.310   7.410   4.865  0.9661  0.9113  0.1826
22311SOL    HW268941   8.323   7.374   5.012 -2.2886 -1.0076  0.0930
22312SOL     OW68942   1.031   8.959   9.855  0.1881 -0.5333 -0.0499
22312SOL    HW168943   0.985   8.912   9.785  0.8257 -0.8675 -0.2531
22312SOL    HW268944   0.969   9.026   9.884 -0.4597 -1.0226 -0.2625
22313SOL     OW68945  10.936   4.172   1.652  0.0521  0.0852  0.2007
22313SOL    HW168946  10.968   4.118   1.724  0.0784  0.4948  0.4961
22313SOL    HW268947  10.869   4.228   1.691 -2.4563 -2.0071 -0.7201
22314SOL     OW68948   9.117  10.302   2.307 -0.0550  0.2968 -0.5424
22314SOL    HW168949   9.111  10.353   2.226  1.2195  2.4167  0.5757
22314SOL    HW268950   9.200  10.255   2.299 -1.1132 -1.5222 -1.4658
22315SOL     OW68951   1.515   6.152   8.396 -0.1287  0.7534 -0.1409
22315SOL    HW168952   1.460   6.107   8.461  2.5433  0.2884  1.9735
22315SOL    HW268953   1.536   6.085   8.331  0.5947 -0.0159  0.8503
22316SOL     OW68954   8.807   2.361   8.798  0.4572 -0.2267 -0.2305
22316SOL    HW168955   8.738   2.369   8.864 -0.5949  1.3754 -1.4369
22316SOL    HW268956   8.858   2.441   8.808  1.6084 -0.9660  0.0166
22317SOL     OW68957   7.111   8.302   7.513 -0.8920  0.1120  0.1359
22317SOL    HW168958   7.099   8.211   7.541 -1.6778  0.4313  0.8561
22317SOL    HW268959   7.025   8.342   7.524 -0.4155  1.0903  0.3734
22318SOL     OW68960   5.835   0.257  11.265  0.1624  0.3681 -0.4925
22318SOL    HW168961   5.752   0.301  11.286 -1.0108 -1.2791 -1.4313
22318SOL    HW268962   5.843   0.265  11.170  0.1693 -0.9831 -0.6213
22319SOL     OW68963   0.220   0.354   9.501  0.4598  0.2085  0.6614
22319SOL    HW168964   0.230   0.365   9.406  0.1217  1.0902  0.7173
22319SOL    HW268965   0.259   0.269   9.519 -0.1141 -0.3014 -0.3773
22320SOL     OW68966   0.063   7.479  11.283 -0.4059 -0.2224  0.1451
22320SOL    HW168967   0.015   7.514  11.207  2.1161  0.8790 -1.0448
22320SOL    HW268968   0.095   7.394  11.254  1.8726  0.8443 -0.7168
22321SOL     OW68969   8.278   0.787   6.888  0.0961  0.0818  0.3858
22321SOL    HW168970   8.239   0.701   6.872 -0.3517  0.3795 -0.1625
22321SOL    HW268971   8.373   0.771   6.889  0.0617 -0.2440 -0.8200
22322SOL     OW68972   1.990   0.682   3.798 -0.0822  0.3418 -0.2609
22322SOL    HW168973   1.905   0.727   3.802 -1.0412 -0.7895 -3.9613
22322SOL    HW268974   1.967   0.589   3.789  1.6590 -0.2043  0.5530
22323SOL     OW68975   3.125   9.207   0.227  0.5360  0.2002 -0.2891
22323SOL    HW168976   3.098   9.255   0.306  1.3513  0.0609  0.0872
22323SOL    HW268977   3.182   9.138   0.260  1.1894  0.3745 -1.0379
22324SOL     OW68978  10.053   7.859   2.115 -0.8786 -0.3776 -0.2184
22324SOL    HW168979  10.114   7.922   2.154 -0.8715  0.0771 -0.9501
22324SOL    HW268980  10.061   7.781   2.171  0.4084 -0.3511 -0.3235
22325SOL     OW68981  10.838   6.774   4.981  0.2652  0.0367  0.0411
22325SOL    HW168982  10.751   6.807   4.960  0.7438  1.4469  0.1762
22325SOL    HW268983  10.822   6.691   5.028 -0.9645 -0.0347 -0.4850
22326SOL     OW68984   5.212   3.040  10.751 -0.7904 -0.3584  0.2100
22326SOL    HW168985   5.270   3.093  10.805 -1.0334  0.0432  0.0861
22326SOL    HW268986   5.158   2.992  10.814  1.4791 -2.8563  0.3934
22327SOL     OW68987   0.188   3.484   8.449 -0.8651 -0.1141  0.4875
22327SOL    HW168988   0.152   3.507   8.535 -1.4663 -0.7046  0.4024
22327SOL    HW268989   0.171   3.390   8.440  1.0327 -0.5262  0.5992
22328SOL     OW68990   0.234   3.113   0.430  0.3497  0.7337  0.0585
22328SOL    HW168991   0.209   3.026   0.463 -0.3445  1.5056  1.6676
22328SOL    HW268992   0.325   3.102   0.402  0.6977 -0.2199  1.4201
22329SOL     OW68993   6.082   7.781   8.240 -0.2111  0.1403 -0.2043
22329SOL    HW168994   6.085   7.686   8.253 -0.5622  0.0786 -0.5728
22329SOL    HW268995   6.130   7.795   8.158  1.1911  0.4380  0.6292
22330SOL     OW68996   7.018   0.639   0.051 -0.5437 -0.2441  0.2280
22330SOL    HW168997   6.992   0.702   0.118 -2.6925 -0.7876 -0.0053
22330SOL    HW268998   6.986   0.555   0.084 -0.7436 -0.6725 -1.0008
22331SOL     OW68999   7.614   1.741  10.016 -0.1268 -0.1501 -0.1538
22331SOL    HW169000   7.594   1.797  10.091  0.1885 -0.1379 -0.0799
22331SOL    HW269001   7.574   1.656  10.038  2.8315 -1.2220  1.5913
22332SOL     OW69002   6.126   0.671   1.981 -0.0015 -0.2840 -0.0653
22332SOL    HW169003   6.214   0.709   1.980 -1.9121  5.1714  1.4955
22332SOL    HW269004   6.080   0.714   1.908 -2.0609 -0.9466  0.7638
22333SOL     OW69005   2.967   1.443   5.414 -0.2279  0.0814  0.1989
22333SOL    HW169006   3.042   1.466   5.469 -0.1093  1.3651 -0.4567
22333SOL    HW269007   2.891   1.476   5.463 -0.2347  0.0856  0.1853
22334SOL     OW69008   9.725   9.892   9.956  0.7775  0.1731 -0.4298
22334SOL    HW169009   9.635   9.922   9.962  0.3750 -0.9940 -0.2573
22334SOL    HW269010   9.778   9.971   9.962 -0.2085  0.7967  0.3180
22335SOL     OW69011   8.402   8.063   1.345  0.3584  0.1697  0.0921
22335SOL    HW169012   8.397   8.145   1.394 -0.2482 -1.3233  2.7175
22335SOL    HW269013   8.312   8.032   1.341  0.8740 -1.6980  1.6814
22336SOL     OW69014   8.527   1.481  10.897  0.1420 -0.2904 -0.1570
22336SOL    HW169015   8.512   1.445  10.984 -1.3946 -1.1077 -0.7338
22336SOL    HW269016   8.538   1.575  10.912  0.7953 -0.5313  0.9985
22337SOL     OW69017   7.641   1.097   4.337  0.3208  0.0522  0.4170
22337SOL    HW169018   7.564   1.103   4.282 -0.9177  0.2455  2.0982
22337SOL    HW269019   7.653   1.003   4.351  1.2084 -0.0553 -0.8956
22338SOL     OW69020  10.437   9.752   6.522  0.0346  0.0785 -0.1252
22338SOL    HW169021  10.501   9.818   6.548  0.3173 -0.7065  1.2314
22338SOL    HW269022  10.387   9.733   6.601 -1.2115 -0.0876 -0.9111
22339SOL     OW69023   1.531   6.404   0.416  0.2343 -0.1196  0.1229
22339SOL    HW169024   1.595   6.412   0.345  1.3596 -1.7719  0.9033
22339SOL    HW269025   1.574   6.348   0.481 -1.2630  0.3225  1.5526
22340SOL     OW69026   2.652   9.431   2.484  0.4192 -0.2342 -0.0645
22340SOL    HW169027   2.645   9.375   2.407 -0.7357  0.3768 -0.4392
22340SOL    HW269028   2.561   9.442   2.514  0.6118  1.3042  0.0677
22341SOL     OW69029   3.124  10.834   2.453  0.2526 -0.4363  0.5012
22341SOL    HW169030   3.151  10.926   2.450 -1.4686  0.1062 -0.6548
22341SOL    HW269031   3.141  10.802   2.364 -2.1120 -0.2307 -0.1009
22342SOL     OW69032   3.373   4.189   0.414 -1.0407 -0.2216 -0.0576
22342SOL    HW169033   3.411   4.199   0.501 -0.1189 -3.3791  0.0530
22342SOL    HW269034   3.282   4.164   0.430 -1.1009  0.0253 -0.0215
22343SOL     OW69035   6.646   4.575   2.903 -0.1040 -0.0545  0.0839
22343SOL    HW169036   6.603   4.560   2.819 -1.7244  2.4685  0.3463
22343SOL    HW269037   6.624   4.665   2.926  1.2359 -0.2713  2.6917
22344SOL     OW69038   6.065   5.648   7.538  0.4523  0.5083 -0.1051
22344SOL    HW169039   5.974   5.625   7.519  0.3758  0.1177  0.7045
22344SOL    HW269040   6.116   5.574   7.504  0.3689  0.1292  0.5972
22345SOL     OW69041  11.045  10.001   7.583 -0.3634  0.3885  0.0100
22345SOL    HW169042  10.994   9.928   7.549  0.2596 -0.1408  0.1854
22345SOL    HW269043  11.026  10.003   7.677 -2.4395  2.1346 -0.3582
22346SOL     OW69044   8.343   7.335   0.601 -0.3277 -0.2707  0.7133
22346SOL    HW169045   8.377   7.276   0.669 -0.5535 -0.8354  0.3453
22346SOL    HW269046   8.310   7.411   0.649  1.7135  0.4436  1.0832
22347SOL     OW69047   5.714   2.133   2.307  1.0023 -0.1934  0.0684
22347SOL    HW169048   5.758   2.059   2.349  0.5609 -0.7252 -0.3726
22347SOL    HW269049   5.715   2.110   2.214  2.0368  0.9951 -0.2424
22348SOL     OW69050   5.895   1.104   8.980  0.3877 -0.3962  0.5576
22348SOL    HW169051   5.891   1.109   8.884 -0.4339  2.6281  0.6466
22348SOL    HW269052   5.839   1.030   9.003  0.4286 -1.0492 -1.2605
22349SOL     OW69053   6.431   3.186   7.360 -0.4879 -0.0444  0.4361
22349SOL    HW169054   6.484   3.260   7.387 -1.2651  1.3998 -1.7275
22349SOL    HW269055   6.402   3.208   7.271 -3.0555 -1.6428  0.7614
22350SOL     OW69056   6.906   6.185   5.932  0.7133 -0.2310  0.0837
22350SOL    HW169057   6.853   6.261   5.906  3.0606  1.1111 -1.1330
22350SOL    HW269058   6.880   6.116   5.871 -0.2086  0.1320  0.0490
22351SOL     OW69059  10.695   8.504   1.153  0.1968  0.1403 -1.5679
22351SOL    HW169060  10.647   8.424   1.135 -0.1237  0.2455 -1.1815
22351SOL    HW269061  10.668   8.564   1.083 -1.2225  0.6256 -0.6419
22352SOL     OW69062   1.145   9.318  11.279 -0.1734  0.7941  0.0255
22352SOL    HW169063   1.231   9.356  11.298  0.5471  1.4928 -3.7307
22352SOL    HW269064   1.162   9.223  11.274  0.4966  0.9445 -0.9137
22353SOL     OW69065   6.544   7.473   7.982 -0.2202 -0.1965 -0.2087
22353SOL    HW169066   6.542   7.383   7.951 -1.9109 -0.6505  1.0491
22353SOL    HW269067   6.638   7.494   7.988  0.2330 -2.1142  0.1511
22354SOL     OW69068   9.638   9.943   3.687  0.1553 -0.0912 -0.1211
22354SOL    HW169069   9.723   9.927   3.647 -0.3834 -0.0113 -1.3323
22354SOL    HW269070   9.579   9.880   3.645 -1.1219  2.1622 -1.9633
22355SOL     OW69071   9.344   7.301  10.481 -0.0821 -0.3024 -0.0700
22355SOL    HW169072   9.353   7.396  10.493 -0.5360 -0.3761  1.0189
22355SOL    HW269073   9.310   7.291  10.392 -1.8113  0.6894  0.4201
22356SOL     OW69074  10.211   8.919  11.099 -0.3837 -0.2471  0.1192
22356SOL    HW169075  10.194   8.849  11.161  0.7127 -1.5791 -1.0069
22356SOL    HW269076  10.191   8.881  11.013 -1.1577  1.2996 -0.4263
22357SOL     OW69077   0.740   0.034   8.494 -0.6015 -0.0809 -0.2508
22357SOL    HW169078   0.787  -0.013   8.563 -0.4703 -1.0499 -0.9870
22357SOL    HW269079   0.780   0.121   8.492  0.6538 -0.6488 -0.3689
22358SOL     OW69080  10.676   3.657  11.007 -0.2387  0.0894 -0.7628
22358SOL    HW169081  10.601   3.673  10.950 -0.2487  1.9075 -0.2934
22358SOL    HW269082  10.722   3.740  11.011 -0.2292  0.0619  1.8398
22359SOL     OW69083   4.410   5.556   6.369 -0.5011 -0.2805 -0.7920
22359SOL    HW169084   4.414   5.524   6.459 -0.6859 -1.8519 -1.3159
22359SOL    HW269085   4.329   5.607   6.365  0.1449  0.8947  0.2371
22360SOL     OW69086   3.370   0.438   9.924 -0.1153 -0.1158  0.3770
22360SOL    HW169087   3.347   0.430  10.017 -0.9467  0.6934  0.2437
22360SOL    HW269088   3.291   0.471   9.882  0.0874 -0.9588 -0.7204
22361SOL     OW69089   1.900   1.790   7.940 -0.4738  0.0195  0.2168
22361SOL    HW169090   1.809   1.820   7.933 -2.3404 -4.7767 -0.0392
22361SOL    HW269091   1.937   1.806   7.854 -1.3006  1.2877  0.0614
22362SOL     OW69092   7.124   7.361  10.368 -0.3173 -0.1988 -0.0374
22362SOL    HW169093   7.162   7.419  10.302  2.0282 -0.7997  0.7032
22362SOL    HW269094   7.066   7.303  10.318  2.5400 -1.6544 -1.9236
22363SOL     OW69095  10.842   0.374  10.449 -0.6725 -0.2328  0.7950
22363SOL    HW169096  10.843   0.278  10.448  1.3363 -0.2558  1.2834
22363SOL    HW269097  10.839   0.397  10.542 -1.9042  0.2190  0.6663
22364SOL     OW69098   7.466  11.238   9.049 -0.2797 -0.0843  0.2956
22364SOL    HW169099   7.401  11.292   9.094  0.6563  1.0625  0.3224
22364SOL    HW269100   7.458  11.262   8.957  0.4556  0.4521  0.3663
22365SOL     OW69101   1.882   7.938   4.074 -0.0505  1.0685  0.3099
22365SOL    HW169102   1.924   8.013   4.033 -0.2267  1.1913  0.3532
22365SOL    HW269103   1.789   7.963   4.081 -0.5312  0.0067 -1.6590
22366SOL     OW69104   1.485   7.322   0.459 -0.3236 -0.3223 -0.4188
22366SOL    HW169105   1.474   7.396   0.399  3.1068  0.8117  0.1433
22366SOL    HW269106   1.457   7.356   0.544  1.4276  0.4977 -0.1232
22367SOL     OW69107   5.380   6.525   3.481  0.2830  0.3723 -0.8237
22367SOL    HW169108   5.456   6.573   3.514  0.4051 -0.4551  0.1270
22367SOL    HW269109   5.353   6.574   3.403 -1.1108  3.4338  1.4003
22368SOL     OW69110   8.894   5.056  10.463  1.1345 -0.0393  0.1036
22368SOL    HW169111   8.959   5.101  10.408  1.0700  1.8414  1.4625
22368SOL    HW269112   8.946   5.000  10.521  1.3719 -0.2389 -0.2993
22369SOL     OW69113   9.394  10.893   6.572 -0.2902  0.4928  0.8856
22369SOL    HW169114   9.411  10.827   6.639  0.5352  1.6792  1.9118
22369SOL    HW269115   9.382  10.844   6.491  0.5020 -0.8832  1.5707
22370SOL     OW69116   8.812   5.577   6.073 -0.5019  0.0895  0.3323
22370SOL    HW169117   8.898   5.554   6.038 -0.9849  0.2864 -1.0596
22370SOL    HW269118   8.750   5.529   6.017 -1.3728  1.5854 -0.0575
22371SOL     OW69119   5.926   1.577   2.441  0.2672  0.2012  0.3423
22371SOL    HW169120   5.957   1.573   2.351 -0.0621  1.0744  0.1824
22371SOL    HW269121   5.864   1.504   2.448  1.2738 -0.6945  0.2664
22372SOL     OW69122   0.060   1.479   6.064 -0.4347 -0.6892 -0.1468
22372SOL    HW169123   0.075   1.414   5.995 -2.5230 -0.1483 -1.2170
22372SOL    HW269124  -0.036   1.486   6.068 -0.3412 -0.1863  2.3606
22373SOL     OW69125   1.907   3.056   7.764 -0.0693  0.8154  0.0107
22373SOL    HW169126   1.924   2.971   7.723 -0.7220  1.2681 -1.2448
22373SOL    HW269127   1.894   3.035   7.856  2.9844 -0.0523  0.3493
22374SOL     OW69128   6.611   0.622   5.031  0.2939  0.3928  0.0545
22374SOL    HW169129   6.617   0.715   5.010 -1.7762  0.8218  1.0464
22374SOL    HW269130   6.626   0.618   5.125 -0.2328 -0.1839  0.1216
22375SOL     OW69131  10.885   2.881   4.696  0.6212  0.7861 -0.3467
22375SOL    HW169132  10.812   2.885   4.758  1.5986 -0.3880  0.9412
22375SOL    HW269133  10.945   2.949   4.726  1.5239 -0.4009  0.6002
22376SOL     OW69134   0.116   3.020   3.712 -0.3211 -0.3912  0.0485
22376SOL    HW169135   0.130   3.092   3.773  1.1706 -0.7152  0.1380
22376SOL    HW269136   0.155   2.944   3.756 -1.8782 -1.2852 -0.0293
22377SOL     OW69137   6.364   8.736   4.889  0.7762  0.0275  0.2318
22377SOL    HW169138   6.370   8.771   4.977  0.3483 -1.0381  0.7103
22377SOL    HW269139   6.272   8.708   4.881  0.7955  0.1704 -0.5747
22378SOL     OW69140   9.488   4.779   9.505  0.3925  0.9498  0.1260
22378SOL    HW169141   9.449   4.810   9.423 -0.8978  1.6667  0.9673
22378SOL    HW269142   9.430   4.813   9.573  2.3648  1.8214  1.4559
22379SOL     OW69143   4.282   7.568   1.706 -0.0035  0.2823 -0.4128
22379SOL    HW169144   4.243   7.565   1.793 -0.7285 -0.9056 -0.7510
22379SOL    HW269145   4.214   7.604   1.650 -0.8033 -2.0610 -1.0567
22380SOL     OW69146   6.722   1.738   5.282  0.4208  0.2902  0.6620
22380SOL    HW169147   6.789   1.755   5.348  0.0731  1.5263  0.7297
22380SOL    HW269148   6.645   1.786   5.312 -0.6355 -1.3899  0.7657
22381SOL     OW69149   6.110   6.101  10.888  0.2034  0.3703 -0.0528
22381SOL    HW169150   6.197   6.123  10.852  1.0848 -3.0249 -0.3910
22381SOL    HW269151   6.049   6.126  10.819  1.0806  1.1879 -0.5653
22382SOL     OW69152   3.154   3.558   8.816 -0.0312  0.2904  0.8899
22382SOL    HW169153   3.066   3.565   8.779 -0.3136  1.6795  1.7555
22382SOL    HW269154   3.203   3.630   8.777  1.4281 -1.7072 -1.2578
22383SOL     OW69155   1.597   4.864   8.335  0.6269 -0.1098  0.5166
22383SOL    HW169156   1.658   4.823   8.397  0.2082 -0.7205  0.5388
22383SOL    HW269157   1.578   4.795   8.271  2.1771  0.9427 -1.1672
22384SOL     OW69158   4.309   4.838  11.128  0.2258 -0.0217 -0.7763
22384SOL    HW169159   4.306   4.745  11.108  0.2191  0.1652 -1.6627
22384SOL    HW269160   4.283   4.881  11.047  0.8000  0.7743 -0.5459
22385SOL     OW69161   5.060   2.130   8.663  0.3625  0.3220  0.4842
22385SOL    HW169162   5.053   2.075   8.584  0.6862  0.8223  0.1030
22385SOL    HW269163   5.104   2.074   8.727 -1.2809 -0.6412  0.8340
22386SOL     OW69164  10.275   5.798   1.947  0.3757  0.2159  0.8947
22386SOL    HW169165  10.316   5.863   2.005  4.9849 -0.5133 -1.0977
22386SOL    HW269166  10.322   5.717   1.966 -0.9191 -1.0510 -1.0035
22387SOL     OW69167   3.886   1.141   5.959  0.4755 -0.2870  0.4359
22387SOL    HW169168   3.940   1.080   5.909 -1.4241 -0.9338 -0.8940
22387SOL    HW269169   3.798   1.130   5.925 -0.2381  1.9854  1.3598
22388SOL     OW69170   5.193   9.640   6.298 -0.1638 -0.0213  0.2805
22388SOL    HW169171   5.208   9.734   6.307 -2.5211  0.3804  0.7254
22388SOL    HW269172   5.227   9.618   6.211  2.8698  0.6250  1.2021
22389SOL     OW69173   6.576   1.971   5.146  0.2154 -0.0130  0.2096
22389SOL    HW169174   6.509   1.927   5.094 -1.3811  0.2538  1.9311
22389SOL    HW269175   6.559   2.064   5.134  1.9946  0.1704 -1.4074
22390SOL     OW69176   1.811   1.182   9.258 -0.1191  0.2846 -0.2596
22390SOL    HW169177   1.737   1.206   9.201 -0.9761  0.8073  1.0201
22390SOL    HW269178   1.779   1.106   9.307 -1.0607  2.3125  2.5145
22391SOL     OW69179   1.011   5.602   5.426 -0.2711  0.4747 -0.1996
22391SOL    HW169180   1.004   5.678   5.483  0.6870  0.0792  0.4753
22391SOL    HW269181   1.101   5.605   5.392 -0.5004  0.1286 -0.8627
22392SOL     OW69182   3.948   9.410   2.777  0.0491 -0.0922 -0.1073
22392SOL    HW169183   4.028   9.379   2.735 -1.4141 -1.7232 -1.9077
22392SOL    HW269184   3.934   9.349   2.850  0.0100 -0.3548 -0.3301
22393SOL     OW69185   2.108  10.437   4.798  0.1866 -0.0107  0.4720
22393SOL    HW169186   2.056  10.517   4.807  0.3248  0.0842  0.4171
22393SOL    HW269187   2.176  10.445   4.864  1.7985  1.1355 -1.2472
22394SOL     OW69188   6.783   5.739   4.574  0.2666 -0.0731  0.2702
22394SOL    HW169189   6.868   5.698   4.559  0.5827  0.3103  0.9889
22394SOL    HW269190   6.775   5.745   4.669 -1.0586 -1.1468  0.2680
22395SOL     OW69191   3.272   2.988   3.199  0.5183 -0.3092  0.0984
22395SOL    HW169192   3.214   2.916   3.224  2.1736 -1.1397  1.8302
22395SOL    HW269193   3.274   2.986   3.103 -1.0093 -1.2731  0.0622
22396SOL     OW69194   4.880   5.031  10.149 -0.2027  0.3836  0.3729
22396SOL    HW169195   4.857   4.954  10.200  0.2549 -0.6552 -0.9262
22396SOL    HW269196   4.880   5.103  10.212  0.2555 -0.8188  1.7939
22397SOL     OW69197   6.226   5.278   5.034  0.3299 -0.1564 -0.6009
22397SOL    HW169198   6.242   5.185   5.050  1.7592  0.2308  0.3401
22397SOL    HW269199   6.268   5.323   5.107 -2.0511  1.1603  0.0758
22398SOL     OW69200   4.680   4.702   4.037 -0.3427  1.2114  0.3659
22398SOL    HW169201   4.757   4.704   4.095 -0.0031  0.2511 -0.0284
22398SOL    HW269202   4.607   4.685   4.096  0.3105 -2.5547  0.3219
22399SOL     OW69203   9.555   7.508   1.580  0.6450 -0.3761 -0.2343
22399SOL    HW169204   9.640   7.549   1.600 -0.8523  2.6777  0.4951
22399SOL    HW269205   9.521   7.481   1.665  0.2676 -0.2881 -0.3578
22400SOL     OW69206   9.611   4.345   2.781  0.1602  0.2468  0.4167
22400SOL    HW169207   9.528   4.367   2.739 -0.5028 -2.3165  0.1762
22400SOL    HW269208   9.655   4.289   2.717  1.1508 -0.1022  1.3732
22401SOL     OW69209   6.437  10.592   0.492 -0.1633 -0.4242  0.0963
22401SOL    HW169210   6.448  10.686   0.505 -0.2158 -0.5060  0.7911
22401SOL    HW269211   6.522  10.555   0.514 -0.3362 -0.5974  0.4790
22402SOL     OW69212   3.930   5.426   7.793 -0.2685 -0.4504  0.0856
22402SOL    HW169213   3.975   5.510   7.803  1.1634 -1.2691  0.8138
22402SOL    HW269214   3.979   5.365   7.849 -0.5771 -2.0442 -1.2881
22403SOL     OW69215   9.243   5.360   8.254  0.1230 -0.3503  0.0833
22403SOL    HW169216   9.281   5.374   8.167  1.7851 -1.0186  0.6787
22403SOL    HW269217   9.152   5.335   8.236  0.5788 -1.0094 -1.4922
22404SOL     OW69218   3.634   7.203   3.036  0.0710  0.1337  0.0320
22404SOL    HW169219   3.560   7.220   2.978 -0.7480  1.9148  1.5172
22404SOL    HW269220   3.705   7.177   2.976 -1.1155  0.5172 -1.6225
22405SOL     OW69221   9.258   3.757   8.118  0.1472  0.2199 -0.0985
22405SOL    HW169222   9.181   3.798   8.158 -0.8761  0.0441 -1.8105
22405SOL    HW269223   9.313   3.732   8.192 -0.1649  2.7499  1.1006
22406SOL     OW69224   8.409   5.190   9.942 -0.2226 -0.6712  0.0705
22406SOL    HW169225   8.344   5.255   9.969  1.8618  1.4605  0.2864
22406SOL    HW269226   8.426   5.139  10.021 -1.2960 -0.9895  0.1117
22407SOL     OW69227   2.956   7.942   0.225  0.3927  0.1658 -0.1110
22407SOL    HW169228   2.955   7.865   0.282 -2.6695 -0.0351 -0.2867
22407SOL    HW269229   2.938   8.015   0.284 -2.8845 -0.0534 -0.6460
22408SOL     OW69230   6.810   7.563   6.920  0.0699  0.6393 -0.3315
22408SOL    HW169231   6.767   7.507   6.856  2.2586 -1.0298 -0.4864
22408SOL    HW269232   6.896   7.523   6.933  1.1061  3.0254  0.8921
22409SOL     OW69233   4.168   0.622   9.478  0.1356 -0.2686  0.1123
22409SOL    HW169234   4.090   0.634   9.532 -0.5825 -0.0011 -0.9712
22409SOL    HW269235   4.166   0.695   9.416  2.6363  1.2850  1.6646
22410SOL     OW69236   0.193   5.904   9.522 -0.1152 -0.1076  0.5895
22410SOL    HW169237   0.268   5.905   9.461 -0.3778 -0.7399  0.2403
22410SOL    HW269238   0.191   5.992   9.559  0.0707  0.2839 -0.2955
22411SOL     OW69239   3.363   8.357   3.540  0.2667  0.1499 -0.6455
22411SOL    HW169240   3.350   8.438   3.492  0.0708  0.4526 -0.0860
22411SOL    HW269241   3.450   8.327   3.513  1.1948  1.5704  0.6163
22412SOL     OW69242  10.088   2.074   0.551 -0.1755 -0.5211 -0.1430
22412SOL    HW169243  10.169   2.024   0.542 -0.0145  0.0411 -2.1451
22412SOL    HW269244  10.054   2.048   0.637 -0.3308 -4.4208 -1.1997
22413SOL     OW69245   1.417   6.713   4.345 -0.4466  0.2838 -0.0877
22413SOL    HW169246   1.481   6.643   4.335 -1.4401 -0.9094  1.3951
22413SOL    HW269247   1.379   6.698   4.432 -0.1107  3.1717  0.6712
22414SOL     OW69248   7.930   5.422   5.133  0.4826  0.0054 -0.3871
22414SOL    HW169249   7.880   5.418   5.052  1.4008 -0.2967 -0.9528
22414SOL    HW269250   7.889   5.357   5.190  0.8299 -0.9535 -1.1971
22415SOL     OW69251   2.720   7.147   4.097  0.5122 -0.1848  0.8519
22415SOL    HW169252   2.720   7.225   4.041  0.3447 -0.6054  0.2627
22415SOL    HW269253   2.694   7.180   4.183 -2.7016 -0.0419 -0.0595
22416SOL     OW69254   6.724   4.768  10.495  0.1938 -0.2616  0.0819
22416SOL    HW169255   6.717   4.775  10.590  1.2925 -0.1757  0.1776
22416SOL    HW269256   6.713   4.858  10.464  2.4415  0.1709  0.3647
22417SOL     OW69257   8.746  10.977   8.586 -0.1104 -0.0991  1.0044
22417SOL    HW169258   8.770  11.044   8.522 -0.5283 -1.8263 -1.0790
22417SOL    HW269259   8.815  10.911   8.579 -0.5805 -0.6923  1.7666
22418SOL     OW69260   4.034   4.324   8.362 -0.5936 -0.0766 -0.3467
22418SOL    HW169261   4.090   4.385   8.313 -0.3986  0.9033  1.0252
22418SOL    HW269262   4.093   4.254   8.388 -0.5691 -0.3064 -1.0109
22419SOL     OW69263  10.006   8.989   6.295  0.3991 -0.2364 -0.3277
22419SOL    HW169264   9.969   8.992   6.383  0.5214  1.3838 -0.3013
22419SOL    HW269265  10.023   8.896   6.279 -1.2318 -0.7501  0.6717
22420SOL     OW69266   6.382   8.971   4.684  0.4980 -0.5708 -0.5879
22420SOL    HW169267   6.438   8.963   4.761  1.6983  1.9498 -1.0870
22420SOL    HW269268   6.316   8.902   4.695  0.1704  0.1053  3.0482
22421SOL     OW69269  10.675   2.528   6.868 -0.4347  0.0556 -0.5183
22421SOL    HW169270  10.626   2.610   6.876 -0.0589  0.2413 -0.1001
22421SOL    HW269271  10.679   2.511   6.774 -4.9044 -2.1412 -0.5613
22422SOL     OW69272   2.544   1.308   3.648  0.2586  1.0801 -0.2618
22422SOL    HW169273   2.534   1.334   3.556 -1.1047  1.4120 -0.0404
22422SOL    HW269274   2.455   1.300   3.680  0.7144  1.5342  1.1982
22423SOL     OW69275   1.208   0.005   3.662  0.6130 -0.2786  0.0712
22423SOL    HW169276   1.297   0.030   3.686 -0.5955  2.4961  2.2417
22423SOL    HW269277   1.173  -0.036   3.740  0.1634 -2.0966 -1.0351
22424SOL     OW69278   9.507   1.864   5.272 -0.2405 -0.2011 -0.2468
22424SOL    HW169279   9.529   1.875   5.180 -1.5822  1.6646 -0.4060
22424SOL    HW269280   9.555   1.786   5.300  1.8257  0.3849 -1.9655
22425SOL     OW69281   4.091   3.663   3.322  0.0537 -0.2416  0.1742
22425SOL    HW169282   4.172   3.641   3.275 -0.4704 -0.7566 -0.4944
22425SOL    HW269283   4.021   3.648   3.259 -0.8112 -2.4263  1.5114
22426SOL     OW69284   0.080   6.535   2.253  0.0870 -0.9828 -0.2544
22426SOL    HW169285   0.005   6.488   2.288  0.4402 -0.3513  1.4691
22426SOL    HW269286   0.156   6.483   2.280  0.3438 -0.7902 -0.6006
22427SOL     OW69287   7.838  10.187   5.522  0.2810 -0.3018  0.4061
22427SOL    HW169288   7.878  10.206   5.437  0.4229 -0.1967  0.4983
22427SOL    HW269289   7.845  10.268   5.571 -1.7847  0.3413 -0.2617
22428SOL     OW69290   2.600   4.101  10.313 -0.1979 -0.1838  0.8629
22428SOL    HW169291   2.630   4.075  10.226  0.6304 -0.0582  1.1013
22428SOL    HW269292   2.543   4.030  10.342  0.4594 -0.7797  0.6983
22429SOL     OW69293   6.472   0.196   5.237  0.1868 -0.4079 -0.1074
22429SOL    HW169294   6.551   0.244   5.263 -0.7293  0.7531  0.6065
22429SOL    HW269295   6.410   0.263   5.210 -0.7790 -1.2686 -0.1128
22430SOL     OW69296   3.275   5.228   9.311  0.1391  1.0191 -0.4835
22430SOL    HW169297   3.301   5.152   9.259 -0.3895  0.5991 -0.1427
22430SOL    HW269298   3.259   5.193   9.398 -0.4346  1.4695 -0.4044
22431SOL     OW69299   3.405   3.928   0.729  0.6650 -0.0157  0.4810
22431SOL    HW169300   3.414   4.022   0.710  1.3651 -0.4738 -1.6974
22431SOL    HW269301   3.357   3.893   0.654  1.2558 -1.5619  0.7991
22432SOL     OW69302   9.312   9.936   6.843 -0.6232 -0.2088  0.4332
22432SOL    HW169303   9.324   9.849   6.882  1.1253 -0.8865 -1.3742
22432SOL    HW269304   9.279   9.917   6.755  0.9185  0.8429 -0.4162
22433SOL     OW69305  10.571   7.833   5.220  0.8828 -0.5660  0.5328
22433SOL    HW169306  10.536   7.760   5.270 -1.5774 -1.2999 -1.9728
22433SOL    HW269307  10.516   7.908   5.245  2.8728  0.3489  2.4881
22434SOL     OW69308   4.526   0.801   6.775 -0.0359 -0.2667 -0.2979
22434SOL    HW169309   4.620   0.785   6.784  0.1925  1.4169  0.6628
22434SOL    HW269310   4.511   0.882   6.823 -1.5411  0.9387 -2.6519
22435SOL     OW69311   1.218   6.824   8.037  0.0655  0.0723  0.9444
22435SOL    HW169312   1.124   6.817   8.023  0.1826 -1.0070  0.6277
22435SOL    HW269313   1.228   6.819   8.132 -0.4540  3.9757  1.3373
22436SOL     OW69314   6.124   9.466   0.156 -0.3774 -0.1701  0.0144
22436SOL    HW169315   6.216   9.490   0.145  1.2812 -5.5769 -0.9345
22436SOL    HW269316   6.084   9.487   0.071  0.2417  1.1102  0.0149
22437SOL     OW69317   4.138   5.191   0.145 -0.2878 -0.2957 -0.2189
22437SOL    HW169318   4.045   5.196   0.123 -0.1822 -0.0476 -0.6261
22437SOL    HW269319   4.142   5.132   0.220 -0.7332 -0.5977 -0.4296
22438SOL     OW69320   5.120   6.808   2.258  0.1901 -0.7724  0.8496
22438SOL    HW169321   5.188   6.783   2.195 -0.4410 -3.1790  0.9959
22438SOL    HW269322   5.038   6.790   2.213 -0.3777  1.4853  0.9165
22439SOL     OW69323   0.304   9.269   4.255  0.4679  0.0961 -0.3906
22439SOL    HW169324   0.364   9.310   4.318 -1.9198  0.7362  1.6243
22439SOL    HW269325   0.301   9.330   4.182  1.0397  0.8393  0.1835
22440SOL     OW69326   9.071   0.880   1.235 -0.2264 -0.0773  0.8141
22440SOL    HW169327   8.993   0.887   1.290 -0.2252  0.1985  0.7860
22440SOL    HW269328   9.050   0.811   1.172 -0.5697  0.2028  0.6141
22441SOL     OW69329   9.584   0.539   3.864  0.2086  0.1265  0.5362
22441SOL    HW169330   9.644   0.465   3.852  0.6267  0.5793 -0.2104
22441SOL    HW269331   9.619   0.584   3.941  0.7307  0.2822  0.2169
22442SOL     OW69332  11.027   9.302   0.833  0.6553  0.0972 -0.0780
22442SOL    HW169333  10.983   9.360   0.896  0.4645 -1.2704  1.1120
22442SOL    HW269334  11.013   9.343   0.748  0.4419  1.7246  0.7056
22443SOL     OW69335   2.539   4.833   0.649  0.0570  0.4836  0.7292
22443SOL    HW169336   2.461   4.849   0.701 -0.4257  0.4978  0.0115
22443SOL    HW269337   2.544   4.737   0.642 -1.2202  0.4904 -1.1399
22444SOL     OW69338   3.821  11.019   4.075 -0.5702 -0.7724 -0.0246
22444SOL    HW169339   3.817  11.100   4.025 -3.4901 -1.9751 -2.0154
22444SOL    HW269340   3.841  11.047   4.165 -0.9583  2.0813 -0.7311
22445SOL     OW69341   3.510   7.367   4.289 -0.4693 -0.2486  0.0783
22445SOL    HW169342   3.444   7.373   4.220 -0.7082  2.7911  0.4143
22445SOL    HW269343   3.586   7.326   4.247 -1.5562 -1.1011 -1.1364
22446SOL     OW69344  10.274   3.961  11.226 -0.4031  0.5164 -0.7458
22446SOL    HW169345  10.266   3.920  11.312 -0.8474 -0.3344 -1.1799
22446SOL    HW269346  10.209   4.031  11.226 -0.7738  0.1717 -0.5823
22447SOL     OW69347   2.467   5.392   4.260 -0.7795 -0.3148  0.4653
22447SOL    HW169348   2.529   5.465   4.263 -1.8047  0.5824  0.2313
22447SOL    HW269349   2.381   5.433   4.263 -1.3880 -1.5887  1.9048
22448SOL     OW69350   3.609   6.845   4.058  0.0775 -0.0008 -0.0975
22448SOL    HW169351   3.597   6.865   3.965 -2.1795  0.4709  0.2392
22448SOL    HW269352   3.703   6.851   4.071  0.4996 -0.4457 -2.4304
22449SOL     OW69353   5.968   4.830   2.015  0.2062  0.4258  0.2334
22449SOL    HW169354   6.032   4.884   1.968  3.1579 -1.4447  1.8243
22449SOL    HW269355   6.019   4.759   2.053 -3.1400 -2.3776  0.0182
22450SOL     OW69356   1.699   8.955  10.733 -0.2245  0.1819  0.5349
22450SOL    HW169357   1.677   9.016  10.802  1.0855  1.1730  0.1142
22450SOL    HW269358   1.670   8.998  10.652 -1.0975 -0.6492  0.3840
22451SOL     OW69359   9.577   3.512   3.738  0.1684  0.7038 -0.1943
22451SOL    HW169360   9.578   3.428   3.783 -1.9797 -0.4075 -2.0000
22451SOL    HW269361   9.561   3.576   3.808  1.9044 -0.3154  1.2212
22452SOL     OW69362   3.703   6.753   7.423 -0.6090  0.2458 -0.4759
22452SOL    HW169363   3.783   6.804   7.407 -0.5377  0.0183 -0.8324
22452SOL    HW269364   3.648   6.769   7.347 -0.5460 -0.2937 -0.6351
22453SOL     OW69365  10.844   1.738  10.701  0.0476  0.0295 -0.0711
22453SOL    HW169366  10.799   1.655  10.717 -2.3022  1.1368 -0.5055
22453SOL    HW269367  10.929   1.729  10.746 -0.5068 -2.2411  0.6373
22454SOL     OW69368   0.565   9.700   5.985 -0.1983 -0.8299 -0.2618
22454SOL    HW169369   0.657   9.720   6.002 -0.5590  0.9638 -0.2159
22454SOL    HW269370   0.541   9.757   5.912 -1.8790  0.5637  1.2859
22455SOL     OW69371   6.060   8.203  11.245 -0.5899 -0.4201  0.5577
22455SOL    HW169372   6.141   8.182  11.291  0.3621 -1.4487 -1.4747
22455SOL    HW269373   6.013   8.261  11.306  2.3643  1.5715  1.1808
22456SOL     OW69374   7.130   8.319   5.690  0.3749  1.1478  0.5535
22456SOL    HW169375   7.099   8.304   5.601  1.9371  0.9762  0.0127
22456SOL    HW269376   7.081   8.395   5.720 -0.2193  1.1597 -0.4239
22457SOL     OW69377   4.052   0.433   2.996 -0.0375  0.2467 -0.1881
22457SOL    HW169378   3.968   0.425   2.950  0.2470 -2.5788 -0.4029
22457SOL    HW269379   4.063   0.527   3.009 -2.6011  0.8019 -1.3061
22458SOL     OW69380  10.852   2.183   2.503 -0.1128  0.1943  0.2125
22458SOL    HW169381  10.811   2.097   2.499  0.8889 -0.3889  1.6554
22458SOL    HW269382  10.778   2.245   2.503 -0.9469 -0.7582  1.3616
22459SOL     OW69383   2.438   6.948   7.868 -0.2403  0.7901 -0.7096
22459SOL    HW169384   2.445   7.041   7.890  0.6408  0.2721  1.4499
22459SOL    HW269385   2.344   6.932   7.863 -0.4827  1.4031  0.9801
22460SOL     OW69386   4.655   4.121   0.044 -0.6810  0.5359 -0.0903
22460SOL    HW169387   4.708   4.169  -0.020  0.3194 -1.2388 -0.6766
22460SOL    HW269388   4.565   4.137   0.018 -0.3012 -0.7088 -2.4763
22461SOL     OW69389   3.688   8.745   7.294  0.7996 -0.8308  0.6782
22461SOL    HW169390   3.628   8.704   7.232  1.1230 -1.4013  0.7386
22461SOL    HW269391   3.679   8.839   7.277  1.3065 -0.9925 -0.6390
22462SOL     OW69392   5.282   6.641   0.596 -0.5491 -0.7476  0.1251
22462SOL    HW169393   5.205   6.698   0.606  0.1292 -0.0555  1.6364
22462SOL    HW269394   5.356   6.699   0.610  0.1604 -2.0424  2.1381
22463SOL     OW69395   1.020  11.038   5.312  0.2704 -0.2024 -0.1182
22463SOL    HW169396   1.071  11.004   5.239 -0.2064 -0.6098 -0.2650
22463SOL    HW269397   0.966  11.107   5.274 -1.9616 -2.1701 -0.7576
22464SOL     OW69398   1.586   1.766   2.230 -0.7428 -0.5325 -0.8049
22464SOL    HW169399   1.505   1.809   2.257  0.1343  0.6414  0.0657
22464SOL    HW269400   1.602   1.700   2.298 -0.0611  0.4400 -0.0007
22465SOL     OW69401   0.461   5.122   1.049  0.7583  0.6082  0.4730
22465SOL    HW169402   0.492   5.054   1.109 -0.5629  0.2194  0.7585
22465SOL    HW269403   0.473   5.085   0.962  1.6242  0.7116  0.5421
22466SOL     OW69404   5.970   5.271   5.418 -0.6563 -0.0578 -0.2190
22466SOL    HW169405   5.969   5.191   5.365  2.3324  0.1597 -0.7656
22466SOL    HW269406   5.941   5.243   5.505  0.3680 -1.7637 -0.3923
22467SOL     OW69407   8.587   9.493   8.793  0.8539 -0.6619  0.3025
22467SOL    HW169408   8.503   9.483   8.749  1.0204 -0.0110 -0.1855
22467SOL    HW269409   8.586   9.582   8.828  1.0593 -0.8874  0.9150
22468SOL     OW69410   3.914   3.550   2.270 -0.1635 -0.3665  0.3598
22468SOL    HW169411   3.828   3.550   2.227  0.3091 -0.0899 -0.6218
22468SOL    HW269412   3.946   3.640   2.259  0.9288 -0.8641 -0.7011
22469SOL     OW69413  10.803   6.198   6.857 -0.3980  0.1830 -0.3789
22469SOL    HW169414  10.797   6.278   6.909  0.3305  0.1702 -0.2641
22469SOL    HW269415  10.800   6.228   6.766  0.6988  0.4206 -0.3454
22470SOL     OW69416   3.475   6.646   6.310 -0.0661 -0.0415 -0.2746
22470SOL    HW169417   3.432   6.728   6.335  0.6265  0.1025  0.5202
22470SOL    HW269418   3.502   6.659   6.219 -2.5921 -0.5388 -1.1625
22471SOL     OW69419   8.699  11.286  11.249 -0.5741  0.1532 -0.3812
22471SOL    HW169420   8.757  11.304  11.322 -2.1376 -1.4134  1.3526
22471SOL    HW269421   8.758  11.265  11.176  1.0429 -0.4669  1.0347
22472SOL     OW69422  11.249   2.525   5.828  0.3321 -0.1327 -0.1505
22472SOL    HW169423  11.205   2.584   5.765  0.1318  2.3135  2.1083
22472SOL    HW269424  11.179   2.467   5.859  0.0592 -0.2325 -0.9219
22473SOL     OW69425   8.985   3.521   2.618 -0.1670  0.1543 -0.2095
22473SOL    HW169426   9.026   3.602   2.649 -1.1218  0.7125 -0.3416
22473SOL    HW269427   9.057   3.468   2.585  0.6346  0.4038  1.0518
22474SOL     OW69428   6.797   0.085   0.434  0.0542  0.3096  0.1040
22474SOL    HW169429   6.763   0.035   0.509 -1.8785  1.7816  0.2646
22474SOL    HW269430   6.884   0.114   0.464 -0.1538 -0.1859  1.2739
22475SOL     OW69431   1.856   7.123  11.073  0.6655  0.5992 -0.8140
22475SOL    HW169432   1.790   7.162  11.015 -0.3569  1.8950  1.1278
22475SOL    HW269433   1.925   7.189  11.077 -0.0976  1.3425  0.8128
22476SOL     OW69434   8.850   8.656   5.682 -0.1625  0.2044  0.7434
22476SOL    HW169435   8.879   8.612   5.762 -1.0561  2.1412  2.2244
22476SOL    HW269436   8.754   8.653   5.686 -0.2313  0.0852 -0.4318
22477SOL     OW69437   6.326   8.564   8.179 -0.9157 -0.6982  0.3615
22477SOL    HW169438   6.360   8.653   8.169 -1.4878 -0.4167  0.8454
22477SOL    HW269439   6.233   8.575   8.195 -1.1048 -1.4202 -0.1725
22478SOL     OW69440   1.124   1.442   9.692 -0.5201  0.4475 -0.1156
22478SOL    HW169441   1.135   1.439   9.597  1.2100  1.5755 -0.0036
22478SOL    HW269442   1.209   1.414   9.726 -0.7446  1.1646  1.0689
22479SOL     OW69443   9.877   0.383   5.349 -0.0248 -0.2753 -0.3393
22479SOL    HW169444   9.879   0.353   5.440 -1.4903 -0.6525 -0.4022
22479SOL    HW269445   9.856   0.304   5.298 -0.0861  0.1024 -0.9163
22480SOL     OW69446   5.387  10.221   9.327  0.6300 -0.0784  0.1286
22480SOL    HW169447   5.311  10.270   9.298 -0.2455 -1.7988 -0.6479
22480SOL    HW269448   5.448  10.224   9.253  0.8826  0.4382  0.3572
22481SOL     OW69449   3.133  10.711   0.857  0.3794  0.2491  0.7116
22481SOL    HW169450   3.161  10.766   0.783  0.1481 -1.7454 -0.9481
22481SOL    HW269451   3.215  10.684   0.899  0.6116 -0.0141  0.0962
22482SOL     OW69452   7.127  10.258   8.309 -0.1379  0.5377  0.2633
22482SOL    HW169453   7.170  10.295   8.385 -1.1496  0.3676  0.9335
22482SOL    HW269454   7.189  10.193   8.275  0.4648  0.8739  0.7234
22483SOL     OW69455   5.837   6.575  10.534  0.2569 -0.4796 -0.1467
22483SOL    HW169456   5.807   6.632  10.464 -0.1836 -1.0800 -0.4571
22483SOL    HW269457   5.758   6.530  10.563  0.3448  0.1111  1.0679
22484SOL     OW69458   3.717   3.050   9.532 -0.0526 -0.8577 -0.0732
22484SOL    HW169459   3.762   2.970   9.505  0.3668 -0.3137 -1.0665
22484SOL    HW269460   3.691   3.091   9.449  0.6882  0.5504  0.3548
22485SOL     OW69461  10.125   8.367   7.364 -0.1425 -0.2380  0.0462
22485SOL    HW169462  10.188   8.402   7.302 -2.5753 -1.0312 -3.1580
22485SOL    HW269463  10.057   8.434   7.370 -2.7020 -2.2685 -2.7955
22486SOL     OW69464   4.730  11.176   1.009  1.0350  0.4926  0.2234
22486SOL    HW169465   4.684  11.186   0.926  1.0010 -1.3196 -0.0205
22486SOL    HW269466   4.811  11.226   0.999  1.6886 -0.8335 -1.4374
22487SOL     OW69467   3.619   3.997   8.458  0.2714 -0.6542 -0.4812
22487SOL    HW169468   3.597   3.915   8.414  2.0642 -1.3028 -0.2567
22487SOL    HW269469   3.586   4.065   8.399 -0.6177 -1.5125 -1.0170
22488SOL     OW69470   5.042  10.069  10.898  0.6233 -0.1346 -0.4667
22488SOL    HW169471   4.991   9.997  10.935  0.4733 -0.2341 -0.8700
22488SOL    HW269472   4.991  10.148  10.920 -0.1082 -0.2955 -1.5404
22489SOL     OW69473  10.938   7.137   0.602 -0.6993 -0.1834 -0.3194
22489SOL    HW169474  10.864   7.192   0.628 -0.9794 -1.4611  1.8516
22489SOL    HW269475  10.993   7.193   0.549 -2.7258  1.1093 -1.1539
22490SOL     OW69476   4.416   4.895   8.210 -0.8448 -0.6714  0.1862
22490SOL    HW169477   4.406   4.990   8.208  1.2151 -0.4157 -0.1428
22490SOL    HW269478   4.327   4.862   8.225 -1.9317  1.2246 -1.4849
22491SOL     OW69479   5.323   5.092   7.525 -0.4943  0.6267  0.2958
22491SOL    HW169480   5.373   5.012   7.508 -1.8492 -0.0802 -0.6119
22491SOL    HW269481   5.244   5.062   7.571 -1.0768  1.4127 -0.1625
22492SOL     OW69482   9.910   4.226   3.861 -0.2242 -0.6206  0.2922
22492SOL    HW169483   9.893   4.132   3.859 -0.5350 -0.6258  1.7345
22492SOL    HW269484   9.961   4.239   3.942  1.3862  0.2203 -0.8055
22493SOL     OW69485   1.144   6.720   7.282 -0.1936 -0.3677 -0.0740
22493SOL    HW169486   1.090   6.767   7.346  0.3724  0.4544 -0.1801
22493SOL    HW269487   1.230   6.714   7.324  0.4747  1.1161 -1.1630
22494SOL     OW69488   1.363   5.997   6.750 -0.0791  0.4927  0.3068
22494SOL    HW169489   1.317   5.915   6.732 -1.7853  1.0801  1.6910
22494SOL    HW269490   1.354   6.009   6.844  2.1291  1.1515  0.4687
22495SOL     OW69491   2.714   3.778   5.116  0.0556  0.0804 -0.0814
22495SOL    HW169492   2.770   3.703   5.098  0.8486  0.0871  2.1056
22495SOL    HW269493   2.767   3.835   5.172 -1.7623  0.5995  1.1971
22496SOL     OW69494   1.164   9.731   7.140 -0.0229 -0.9719  0.8336
22496SOL    HW169495   1.214   9.711   7.062  1.8130 -0.5322  1.8425
22496SOL    HW269496   1.119   9.650   7.162  0.8221 -1.5966  0.2914
22497SOL     OW69497   4.518   9.535   0.849  0.2908  0.0937  0.0842
22497SOL    HW169498   4.464   9.456   0.848 -0.2161  0.4288  0.6557
22497SOL    HW269499   4.608   9.502   0.846  0.1627 -0.6080  2.3781
22498SOL     OW69500   7.907   8.799   1.056 -0.1383 -0.1261  0.6985
22498SOL    HW169501   7.875   8.801   0.966 -2.3604  2.6909  1.3642
22498SOL    HW269502   7.827   8.795   1.109  0.9320  0.9978  2.5090
22499SOL     OW69503  11.082   1.493   5.959  0.2292 -0.0307 -0.9645
22499SOL    HW169504  10.988   1.509   5.951 -0.2151  0.0678  2.7387
22499SOL    HW269505  11.098   1.416   5.905 -2.3010 -0.9107 -0.5959
22500SOL     OW69506  11.238   6.369   5.722  0.3884  0.0997  0.4676
22500SOL    HW169507  11.219   6.373   5.816  0.3485  0.3772  0.4475
22500SOL    HW269508  11.247   6.460   5.695  0.2524  0.0261  0.1691
22501SOL     OW69509   1.808  10.959   2.234  0.1619  0.6343  0.3195
22501SOL    HW169510   1.808  11.015   2.311  2.1304  0.2571  0.6452
22501SOL    HW269511   1.842  10.875   2.265 -2.0099 -0.5580 -0.3223
22502SOL     OW69512   6.895   8.556   3.015  0.4843  0.6474 -0.8122
22502SOL    HW169513   6.960   8.486   3.014  1.1684  1.2255  0.7503
22502SOL    HW269514   6.880   8.575   3.107 -2.7315 -0.1672 -1.0298
22503SOL     OW69515  10.488   7.572   3.769 -0.3166  0.1976 -0.3201
22503SOL    HW169516  10.497   7.563   3.864 -0.3262 -0.3076 -0.3654
22503SOL    HW269517  10.394   7.582   3.755 -0.3225  0.1837 -0.2857
22504SOL     OW69518  10.568  10.986   9.484  0.6183 -0.0525 -0.1755
22504SOL    HW169519  10.630  10.914   9.475 -1.5259 -2.0008 -0.4011
22504SOL    HW269520  10.500  10.967   9.420  1.3471  3.8661 -2.4782
22505SOL     OW69521   9.924   5.278   6.506 -0.1104 -0.5008 -0.0266
22505SOL    HW169522   9.990   5.267   6.437 -1.0229 -0.2145 -0.9785
22505SOL    HW269523   9.971   5.322   6.577  1.6865 -3.5693  0.8787
22506SOL     OW69524   3.195   2.060   6.020 -0.6955 -0.0482  0.7646
22506SOL    HW169525   3.203   2.014   6.103  0.8371  0.0171  0.6708
22506SOL    HW269526   3.248   2.139   6.030  2.2787 -1.6044 -1.3388
22507SOL     OW69527   1.372   1.414   6.539 -0.1970  0.3946 -0.0069
22507SOL    HW169528   1.464   1.402   6.513  0.4948  0.3943  2.2247
22507SOL    HW269529   1.330   1.452   6.462  1.2994 -1.0536 -1.6334
22508SOL     OW69530   8.538   3.320   4.677  0.2801 -0.3742  0.2968
22508SOL    HW169531   8.472   3.333   4.745 -0.2238  0.7389 -0.3779
22508SOL    HW269532   8.499   3.359   4.599  1.7379  0.3250 -0.1100
22509SOL     OW69533   5.435   4.032   7.318  0.0858 -0.4919 -0.3055
22509SOL    HW169534   5.343   4.007   7.324 -0.5015  1.3622 -1.0445
22509SOL    HW269535   5.456   4.067   7.404 -0.8556  1.9976 -1.0154
22510SOL     OW69536   3.338  11.139   3.207 -0.1126 -0.6638 -0.0308
22510SOL    HW169537   3.334  11.176   3.119 -0.7184  0.4520  0.4572
22510SOL    HW269538   3.284  11.060   3.202  1.2763 -1.6164 -1.0988
22511SOL     OW69539   6.609   2.699  10.020  0.1845 -0.0390 -0.2067
22511SOL    HW169540   6.681   2.651  10.062  0.3131  1.5086  1.4368
22511SOL    HW269541   6.642   2.720   9.933  1.8087  0.7678  0.5604
22512SOL     OW69542   0.165   2.081   8.012  0.0745 -0.7314 -1.2108
22512SOL    HW169543   0.138   2.143   7.945  0.5197 -0.4039 -1.0896
22512SOL    HW269544   0.097   2.087   8.079  1.0685  1.0342 -0.3003
22513SOL     OW69545   2.587   6.780   3.407  0.2868 -0.5031  0.0123
22513SOL    HW169546   2.615   6.800   3.318  3.4341 -0.2339  0.9324
22513SOL    HW269547   2.526   6.850   3.430  0.3853  0.1120 -1.4938
22514SOL     OW69548   0.516   0.217   0.981  0.6422 -0.0083  0.2687
22514SOL    HW169549   0.606   0.186   0.972  0.4193 -0.3273 -1.1074
22514SOL    HW269550   0.468   0.142   1.016  0.8418  0.0385  0.6407
22515SOL     OW69551   6.950   2.590   7.781 -0.3629 -0.2710  0.1362
22515SOL    HW169552   7.042   2.566   7.771  0.6235  3.2618 -0.5353
22515SOL    HW269553   6.922   2.618   7.694 -0.5378  3.0925  1.1160
22516SOL     OW69554  11.169   9.418   0.172 -0.2981  0.3073  0.0342
22516SOL    HW169555  11.085   9.465   0.169 -1.7367 -1.9384  1.6658
22516SOL    HW269556  11.167   9.371   0.255  1.1893 -2.2599 -1.2724
22517SOL     OW69557   4.302   0.596   4.294  0.9069 -0.0102  0.1498
22517SOL    HW169558   4.392   0.580   4.319  0.4154 -1.0003  1.3590
22517SOL    HW269559   4.252   0.524   4.333 -0.4091  0.5302 -0.4593
22518SOL     OW69560   4.117   9.556   9.953  0.4910  0.6418 -0.1414
22518SOL    HW169561   4.141   9.495  10.023  3.4966  0.8612 -0.8137
22518SOL    HW269562   4.049   9.511   9.903 -1.7765  0.4876  2.8368
22519SOL     OW69563   7.863   1.550   0.508 -0.2633 -0.4588 -0.4847
22519SOL    HW169564   7.882   1.521   0.419 -1.1828  1.9209 -1.5638
22519SOL    HW269565   7.905   1.636   0.515 -2.8136  0.8418  0.2097
22520SOL     OW69566   2.344   4.572   2.541  0.1399  0.3330  0.8077
22520SOL    HW169567   2.273   4.633   2.520 -0.2914  0.1871  1.7861
22520SOL    HW269568   2.317   4.490   2.500  0.8445  0.8293 -0.7327
22521SOL     OW69569   0.287   6.233   9.932 -0.0455 -0.2725  0.3427
22521SOL    HW169570   0.213   6.274   9.888 -0.1796 -1.2518 -0.3978
22521SOL    HW269571   0.314   6.296   9.998 -2.0148 -0.1930  1.1500
22522SOL     OW69572   9.902   0.166   7.676 -0.8638  0.4905  0.1800
22522SOL    HW169573   9.900   0.245   7.623  0.5021 -0.3962 -1.2465
22522SOL    HW269574   9.995   0.145   7.685 -1.2282 -1.6316 -0.5504
22523SOL     OW69575   9.795   2.423   3.343 -0.0741 -0.2425  0.0597
22523SOL    HW169576   9.737   2.347   3.350  0.9186 -1.0489 -0.2012
22523SOL    HW269577   9.740   2.497   3.367 -0.7504 -1.1761  1.5893
22524SOL     OW69578  10.554   3.890  10.737 -0.0959 -1.0723 -0.0717
22524SOL    HW169579  10.575   3.901  10.644 -1.2968 -2.0682 -0.4711
22524SOL    HW269580  10.633   3.921  10.782  0.1903  0.2454 -1.3735
22525SOL     OW69581   7.865   6.764   7.185  0.0177  0.4891 -0.3907
22525SOL    HW169582   7.824   6.725   7.262 -0.5386  0.4960 -0.6802
22525SOL    HW269583   7.840   6.857   7.188 -2.4888 -0.0213 -2.1192
22526SOL     OW69584   6.931   8.426   3.306  0.3720 -0.6837  0.1732
22526SOL    HW169585   6.886   8.348   3.274  0.7568 -0.8390  0.0160
22526SOL    HW269586   7.002   8.441   3.244 -1.0055  1.0876 -1.0932
22527SOL     OW69587   0.235  11.217   4.505  0.1955 -0.0817  0.2921
22527SOL    HW169588   0.249  11.311   4.492 -0.6428 -0.2142 -1.9231
22527SOL    HW269589   0.289  11.196   4.581  3.1839  1.5168 -1.1948
22528SOL     OW69590   0.468  10.389   8.033 -0.4357 -0.0998  0.1193
22528SOL    HW169591   0.499  10.445   7.962  1.9811  0.4915  1.5245
22528SOL    HW269592   0.404  10.442   8.080 -0.7811  0.1283 -0.5858
22529SOL     OW69593  10.667   8.788   3.708 -0.4587 -0.2830 -1.0437
22529SOL    HW169594  10.577   8.762   3.691 -1.2012  0.3306  1.5785
22529SOL    HW269595  10.714   8.705   3.717 -1.3238 -0.6720  0.1379
22530SOL     OW69596   3.507   2.300   8.499  0.6879 -0.4345  0.1356
22530SOL    HW169597   3.519   2.234   8.567 -0.0259 -2.3246 -1.4996
22530SOL    HW269598   3.423   2.342   8.519  0.8805 -0.3833  0.8593
22531SOL     OW69599   1.357   8.103   5.698  0.0285 -0.4443 -0.2937
22531SOL    HW169600   1.370   8.099   5.603  2.9702 -2.2648  0.0701
22531SOL    HW269601   1.287   8.040   5.715  1.8263 -2.7884 -1.0225
22532SOL     OW69602   3.293   4.875   9.538 -0.5608  0.6633 -0.7984
22532SOL    HW169603   3.217   4.913   9.582  0.5920  2.6520 -0.3927
22532SOL    HW269604   3.357   4.947   9.535  1.5325 -1.0933 -0.5628
22533SOL     OW69605   6.790   5.551  10.167 -0.0257  0.3788 -0.6171
22533SOL    HW169606   6.789   5.478  10.105  0.5426 -1.3763  1.3361
22533SOL    HW269607   6.869   5.599  10.146 -0.9286  1.1127 -2.5984
22534SOL     OW69608   6.383   8.473   0.241  0.0123  0.2836  0.3791
22534SOL    HW169609   6.475   8.491   0.219  0.2772 -0.3196  0.9647
22534SOL    HW269610   6.373   8.503   0.331 -0.2394 -0.0942  0.4790
22535SOL     OW69611   9.757  10.367   7.900  0.4538  0.6026  0.1817
22535SOL    HW169612   9.814  10.330   7.833  1.6719  0.6132  1.1766
22535SOL    HW269613   9.683  10.402   7.851  0.3751 -1.0582 -0.9895
22536SOL     OW69614  10.705   6.226   5.920  0.4197  0.2233 -0.5348
22536SOL    HW169615  10.625   6.220   5.868 -0.7638 -0.4537  1.2382
22536SOL    HW269616  10.738   6.137   5.925 -1.4017 -0.4455  2.5497
22537SOL     OW69617   9.776   0.195  10.269  0.0966  0.2137  0.2138
22537SOL    HW169618   9.824   0.276  10.289  0.2429  0.0209  0.6703
22537SOL    HW269619   9.775   0.147  10.352 -0.6381  0.0803  0.1385
22538SOL     OW69620   7.347  10.505   2.467  0.5478  0.2404 -0.0310
22538SOL    HW169621   7.363  10.434   2.405  0.7243  0.6640 -0.4685
22538SOL    HW269622   7.384  10.583   2.426 -1.9228  1.1272 -0.7570
22539SOL     OW69623  10.177   7.072   0.369 -0.1496  0.0384  0.1867
22539SOL    HW169624  10.233   7.081   0.446  1.8712  0.0185 -1.2066
22539SOL    HW269625  10.192   6.983   0.339  0.3158  0.5341 -1.1112
22540SOL     OW69626  10.323   2.633   1.397  0.3687 -0.1967 -0.0926
22540SOL    HW169627  10.252   2.585   1.440  1.8897 -0.6368  2.0920
22540SOL    HW269628  10.383   2.566   1.367  1.1276  0.2395  0.4240
22541SOL     OW69629   0.148   0.260   5.960  0.2893  0.4517 -0.0002
22541SOL    HW169630   0.197   0.182   5.932 -0.6375  0.2721 -1.2204
22541SOL    HW269631   0.177   0.329   5.899 -1.2169  0.2467 -0.9998
22542SOL     OW69632   1.750   2.706   4.844  0.4373 -0.2127 -0.8958
22542SOL    HW169633   1.713   2.791   4.820 -2.9917 -1.1518  0.5002
22542SOL    HW269634   1.708   2.644   4.784  1.2809 -1.1449 -0.5418
22543SOL     OW69635   5.035  10.807   6.611  0.1065  0.2275 -0.3847
22543SOL    HW169636   4.989  10.883   6.648 -0.3203  0.2691 -0.9970
22543SOL    HW269637   5.039  10.825   6.517 -0.3641 -0.7056 -0.5931
22544SOL     OW69638   1.155  10.138   0.182 -0.5276  0.0368 -0.0476
22544SOL    HW169639   1.113  10.209   0.229 -1.4274 -0.1038 -0.6144
22544SOL    HW269640   1.135  10.155   0.090 -0.4424 -0.7483 -0.2196
22545SOL     OW69641   9.697  10.544   1.824 -0.2629  0.0997 -0.0348
22545SOL    HW169642   9.679  10.604   1.752  0.8118  0.8938  0.3257
22545SOL    HW269643   9.690  10.456   1.785  0.8430  0.5189 -1.2506
22546SOL     OW69644   0.941   2.819   0.957 -0.5315  0.0657 -0.4939
22546SOL    HW169645   1.022   2.869   0.968 -0.6874  0.3244 -0.5150
22546SOL    HW269646   0.879   2.882   0.922 -0.5914 -0.2658 -0.9995
22547SOL     OW69647   5.162   5.012   6.674 -0.0777 -0.1112  0.1551
22547SOL    HW169648   5.154   4.917   6.672  0.1488 -0.1236 -0.4482
22547SOL    HW269649   5.219   5.033   6.600  0.5029  0.4346  0.7402
22548SOL     OW69650   6.524   6.726   0.951  0.2028  0.2728  0.2491
22548SOL    HW169651   6.570   6.808   0.933  0.2639  0.5148  1.4129
22548SOL    HW269652   6.591   6.669   0.990  0.3278 -0.5835 -1.1767
22549SOL     OW69653   9.262   5.705   8.009 -0.8619 -0.1587 -0.1747
22549SOL    HW169654   9.332   5.741   8.065 -1.6869 -2.3835  2.5248
22549SOL    HW269655   9.303   5.630   7.966 -1.5411 -1.5492  1.5181
22550SOL     OW69656   9.807   5.534   6.039 -0.1594  0.8929 -0.0872
22550SOL    HW169657   9.830   5.450   6.078  0.6576  0.3823 -1.5794
22550SOL    HW269658   9.715   5.524   6.013 -0.5482  1.0540  1.1711
22551SOL     OW69659   5.338   7.340   0.287  0.2418 -0.7969 -0.0106
22551SOL    HW169660   5.390   7.376   0.215 -2.2612  2.1979 -0.5603
22551SOL    HW269661   5.353   7.402   0.360 -2.5268  0.2942 -0.2598
22552SOL     OW69662   0.317   3.868   6.781  0.4230  0.3814 -0.1429
22552SOL    HW169663   0.238   3.921   6.794  1.6892  2.0748  1.1010
22552SOL    HW269664   0.320   3.811   6.857  0.9102  1.0389  0.3421
22553SOL     OW69665   1.135  11.007   8.789 -0.6216 -0.0375  0.0597
22553SOL    HW169666   1.194  10.965   8.726 -2.2352  0.0399 -1.5775
22553SOL    HW269667   1.136  10.950   8.865  2.8267  0.8125  0.8333
22554SOL     OW69668   3.265   3.121   4.005  0.4213 -0.2906 -0.0920
22554SOL    HW169669   3.348   3.157   4.035  0.0440 -0.6548  1.5004
22554SOL    HW269670   3.217   3.196   3.970  0.7710  0.2384  0.5450
22555SOL     OW69671   0.871  10.827   9.184 -0.3210  0.6677  1.0251
22555SOL    HW169672   0.907  10.912   9.159  1.0257  1.2825  4.3735
22555SOL    HW269673   0.777  10.839   9.183 -0.1851  1.8525  0.4102
22556SOL     OW69674   6.853   2.394  10.439 -0.1223 -0.3453  0.2093
22556SOL    HW169675   6.867   2.455  10.511 -0.5490  1.3101 -1.0182
22556SOL    HW269676   6.883   2.310  10.471 -1.6919  0.0053  2.8376
22557SOL     OW69677   7.100   2.487   0.757 -0.3457 -0.5666 -0.1586
22557SOL    HW169678   7.166   2.495   0.827  0.2069  0.9897 -0.8028
22557SOL    HW269679   7.028   2.543   0.786 -0.9423 -1.4217  0.0381
22558SOL     OW69680   1.092   4.921   0.617  0.3488  0.3912  0.0448
22558SOL    HW169681   1.048   4.843   0.651  0.6361 -0.0838 -0.6442
22558SOL    HW269682   1.074   4.989   0.682  0.1276 -0.2567  0.6802
22559SOL     OW69683   4.785  10.303   3.982  0.2662  0.3996 -0.3446
22559SOL    HW169684   4.703  10.256   3.998  0.7534 -0.7188 -1.0561
22559SOL    HW269685   4.853  10.236   3.984  1.1863  1.3143  0.2346
22560SOL     OW69686   5.175   3.267   7.952  0.4754  0.3266  0.4404
22560SOL    HW169687   5.268   3.248   7.944  0.4700 -0.2076  1.4799
22560SOL    HW269688   5.163   3.293   8.043 -0.2777  1.0591  0.1432
22561SOL     OW69689   7.114   2.503   8.037 -0.4951 -0.0895 -0.6894
22561SOL    HW169690   7.060   2.450   8.095 -0.9213 -1.1107 -1.9693
22561SOL    HW269691   7.160   2.563   8.095 -1.7306 -0.3263  0.5882
22562SOL     OW69692   5.031  10.742   3.888 -0.2215  0.0064  0.1483
22562SOL    HW169693   4.969  10.679   3.924 -0.6238 -0.4671 -1.2784
22562SOL    HW269694   4.984  10.784   3.816  0.4785  1.0141  0.2520
22563SOL     OW69695   8.920   4.057   5.269  0.8645 -0.2426 -0.1563
22563SOL    HW169696   9.009   4.023   5.258  0.5216 -1.9896  1.7871
22563SOL    HW269697   8.880   4.047   5.183  2.2988 -0.1863 -0.8665
22564SOL     OW69698   1.003   6.233   4.013 -0.7864 -0.5635 -0.1857
22564SOL    HW169699   1.048   6.274   4.087  0.1828 -0.3625 -0.8626
22564SOL    HW269700   0.950   6.164   4.052 -1.7035  0.6974  0.8845
22565SOL     OW69701   2.201   1.426   1.976 -0.8512 -0.0505  0.5708
22565SOL    HW169702   2.234   1.336   1.972 -1.1182 -0.1214 -0.2215
22565SOL    HW269703   2.151   1.430   2.058  0.9724  0.0210  1.7470
22566SOL     OW69704   6.756   3.967   5.043  0.1662  0.4142  0.5199
22566SOL    HW169705   6.799   3.952   4.958 -0.6112 -0.2060  0.2177
22566SOL    HW269706   6.668   3.996   5.019  0.5427  2.1830  1.1239
22567SOL     OW69707   3.246   0.262   5.370 -0.4671  0.6313 -0.1482
22567SOL    HW169708   3.316   0.197   5.371  0.3064  1.4439  0.3500
22567SOL    HW269709   3.256   0.309   5.453 -2.7128 -0.3785  0.7887
22568SOL     OW69710   1.203   7.029   4.360 -0.3454  0.4377 -0.1892
22568SOL    HW169711   1.202   6.943   4.403  1.3964 -1.0951 -2.9390
22568SOL    HW269712   1.272   7.077   4.405 -0.7917  0.1188  0.8647
22569SOL     OW69713   8.217   9.329   4.531  0.2089 -0.2280 -0.1269
22569SOL    HW169714   8.265   9.402   4.492  0.0780 -0.7452 -1.2668
22569SOL    HW269715   8.144   9.313   4.471 -1.7449  0.8557  1.7783
22570SOL     OW69716   5.614   0.237  10.530  0.3978  0.2353 -0.3245
22570SOL    HW169717   5.624   0.147  10.500  1.7359  0.3286 -0.2240
22570SOL    HW269718   5.675   0.287  10.476 -0.4769  1.1291 -0.5227
22571SOL     OW69719  10.907   3.292   7.367 -0.1650  0.2348 -0.2155
22571SOL    HW169720  10.878   3.322   7.280 -0.6936 -2.7712 -1.1784
22571SOL    HW269721  10.961   3.215   7.349  0.0526 -0.2262  2.1298
22572SOL     OW69722   5.294   6.049   5.990 -0.0486 -0.0367 -0.1755
22572SOL    HW169723   5.236   6.001   5.930  0.3639 -0.8270  0.0353
22572SOL    HW269724   5.375   6.061   5.940  0.5624 -1.3441  0.4305
22573SOL     OW69725   8.939   5.540   7.312  0.0851  0.0702  0.5007
22573SOL    HW169726   8.963   5.536   7.220  1.9506 -1.2790  0.9915
22573SOL    HW269727   9.013   5.585   7.354 -1.4802  2.1974  1.1698
22574SOL     OW69728   4.597  10.677  10.551 -0.4016  0.2436 -0.0354
22574SOL    HW169729   4.620  10.741  10.484  0.2680 -0.3292 -0.3743
22574SOL    HW269730   4.665  10.609  10.543  0.9005  1.1071  2.5561
22575SOL     OW69731   3.141   1.191   5.767  0.4150 -0.1311  0.2897
22575SOL    HW169732   3.051   1.164   5.785  0.1970 -0.2885 -0.9277
22575SOL    HW269733   3.178   1.118   5.717  0.4602  0.8949 -1.2479
22576SOL     OW69734   6.379   3.839   5.436 -0.9445 -0.2816 -0.2037
22576SOL    HW169735   6.379   3.847   5.531  0.5826  0.6980 -0.2582
22576SOL    HW269736   6.288   3.819   5.414 -1.5089  0.3776  1.3845
22577SOL     OW69737   5.203   3.682   6.494 -0.2343  0.5781 -0.4201
22577SOL    HW169738   5.149   3.692   6.573  0.9012  0.8246  0.3481
22577SOL    HW269739   5.180   3.596   6.460  0.2126 -0.0939  0.9255
22578SOL     OW69740  11.256   3.781   1.893 -0.5085  0.2738 -0.5652
22578SOL    HW169741  11.312   3.731   1.952  2.5472  0.2966 -3.1533
22578SOL    HW269742  11.318   3.832   1.839 -3.1685  1.8881 -2.3202
22579SOL     OW69743   8.317   8.797   4.717  0.2087  0.0401  0.3398
22579SOL    HW169744   8.375   8.863   4.680 -0.2658  0.8808  1.0566
22579SOL    HW269745   8.229   8.830   4.699 -0.0361  0.0976  1.5305
22580SOL     OW69746   4.596   4.139   8.913  0.0697 -0.2681 -0.0256
22580SOL    HW169747   4.530   4.086   8.868 -0.2783 -0.0216  0.1838
22580SOL    HW269748   4.556   4.160   8.998 -0.2543  1.2275 -0.5086
22581SOL     OW69749   6.417   9.666  10.863  0.9952  0.1282  0.9387
22581SOL    HW169750   6.417   9.714  10.780  0.1249 -1.2345  0.1204
22581SOL    HW269751   6.505   9.628  10.869  0.7459 -0.6149  0.1153
22582SOL     OW69752  10.336   7.488   7.802 -0.3808 -0.6839 -0.1521
22582SOL    HW169753  10.314   7.580   7.786  1.2740  0.5616  3.6016
22582SOL    HW269754  10.373   7.458   7.719  0.8399  2.6507 -0.9859
22583SOL     OW69755   7.720   6.433  10.455 -0.0521 -0.1486 -0.2788
22583SOL    HW169756   7.699   6.519  10.490  0.2258 -0.3020  0.2823
22583SOL    HW269757   7.752   6.451  10.366 -0.6593  0.2538 -0.4236
22584SOL     OW69758   0.579   4.212   1.176  0.2752  0.2245 -0.1110
22584SOL    HW169759   0.663   4.165   1.182  0.3664  0.3580 -0.3209
22584SOL    HW269760   0.591   4.273   1.104  0.6382  1.5710  1.0598
22585SOL     OW69761   8.925  10.987   1.247 -0.3602 -0.1480 -0.5820
22585SOL    HW169762   8.838  10.989   1.207 -0.3917 -0.6407 -0.5349
22585SOL    HW269763   8.956  10.898   1.234  0.2265  0.0831 -0.7770
22586SOL     OW69764  10.774   0.931   5.716  0.1183 -0.3807 -0.3369
22586SOL    HW169765  10.855   0.891   5.684  2.1797  1.8593  1.6510
22586SOL    HW269766  10.745   0.873   5.786  0.2218 -0.9911 -0.7930
22587SOL     OW69767   3.516   0.577  10.917 -0.5496 -0.5522 -0.1711
22587SOL    HW169768   3.477   0.662  10.939 -0.8958 -0.9920  1.0296
22587SOL    HW269769   3.444   0.526  10.881 -0.1621 -0.0986 -1.6490
22588SOL     OW69770   3.605   9.321  11.006 -0.0457  0.0029 -0.0427
22588SOL    HW169771   3.543   9.377  11.053 -0.7354 -0.8178  0.0615
22588SOL    HW269772   3.666   9.291  11.074  1.5732  2.2001 -0.4456
22589SOL     OW69773   1.525   6.418   6.884  1.1218 -0.3065 -0.7067
22589SOL    HW169774   1.535   6.377   6.970  0.1871  0.4192 -0.2236
22589SOL    HW269775   1.611   6.453   6.864  1.9735 -2.5156 -1.1693
22590SOL     OW69776   6.126   0.441   8.192  0.3880 -0.5306 -0.2935
22590SOL    HW169777   6.202   0.384   8.178  1.0527  0.4129 -0.6842
22590SOL    HW269778   6.116   0.486   8.108 -0.1398 -0.1002 -0.0003
22591SOL     OW69779   7.985   4.156   0.517 -0.3453 -0.3301  0.1885
22591SOL    HW169780   8.042   4.108   0.577 -1.3842 -0.0440  1.4595
22591SOL    HW269781   7.939   4.089   0.468 -0.8058 -0.6166  1.0005
22592SOL     OW69782   1.713   7.779  10.279 -0.5023  0.5695 -0.4660
22592SOL    HW169783   1.664   7.728  10.214  1.7402 -0.3182 -1.5607
22592SOL    HW269784   1.738   7.859  10.232  0.1180  0.4608 -0.3254
22593SOL     OW69785   1.422   5.804   0.232 -0.4396 -0.4955  0.5055
22593SOL    HW169786   1.332   5.823   0.206 -0.5838  0.3249  1.5616
22593SOL    HW269787   1.465   5.779   0.150 -1.1865  0.7919 -0.3245
22594SOL     OW69788   2.086   8.469   3.131  0.6482 -0.1267 -0.4185
22594SOL    HW169789   2.130   8.435   3.052  1.5518  0.7553 -0.3241
22594SOL    HW269790   2.042   8.393   3.169  1.4613 -0.8891 -0.9541
22595SOL     OW69791  10.270   8.175   8.640 -0.4370 -0.2017  0.2919
22595SOL    HW169792  10.345   8.208   8.590  0.3553 -1.0127  0.9080
22595SOL    HW269793  10.294   8.189   8.732 -2.1153  1.7828  0.4924
22596SOL     OW69794   1.862   6.869   1.556 -0.2225 -0.0698 -0.3226
22596SOL    HW169795   1.832   6.955   1.528  0.1461 -0.7076 -2.9739
22596SOL    HW269796   1.958   6.874   1.551 -0.1829 -0.5019 -0.0804
22597SOL     OW69797   3.030  10.919   5.122  0.6979  0.1707 -0.1892
22597SOL    HW169798   3.125  10.926   5.137  0.5190  0.4373  0.9300
22597SOL    HW269799   3.013  10.825   5.125  0.9934  0.0884 -0.8844
22598SOL     OW69800   5.534   1.233   0.672 -0.3378  0.4822 -0.3002
22598SOL    HW169801   5.496   1.146   0.673  0.5995  0.0257  1.8830
22598SOL    HW269802   5.480   1.284   0.732 -1.1159  1.5649 -1.8503
22599SOL     OW69803   7.158   7.383   9.392  0.4175  0.3259  0.7233
22599SOL    HW169804   7.067   7.399   9.368  1.0930  0.5641 -1.9644
22599SOL    HW269805   7.203   7.466   9.378  1.4219 -0.3112 -0.0023
22600SOL     OW69806   9.524   9.126   7.904 -0.1015  0.1093 -0.3397
22600SOL    HW169807   9.548   9.042   7.943 -2.5012 -1.6181 -2.2943
22600SOL    HW269808   9.510   9.184   7.980  1.0883 -1.3641  1.0754
22601SOL     OW69809   6.303  11.155   5.440 -0.8285  0.5033  0.0270
22601SOL    HW169810   6.253  11.107   5.506 -3.6781 -0.4719 -2.6017
22601SOL    HW269811   6.278  11.246   5.453  2.3895  1.1111  3.2058
22602SOL     OW69812  10.560   1.819  10.417  0.5223  0.1064 -0.8428
22602SOL    HW169813  10.575   1.790  10.328 -2.8741 -0.0271 -1.5167
22602SOL    HW269814  10.482   1.771  10.446 -0.3365  2.3608  1.0308
22603SOL     OW69815   0.474   1.507   0.763  0.6044  0.5325  0.1327
22603SOL    HW169816   0.445   1.569   0.830  1.1862  1.5925 -0.5589
22603SOL    HW269817   0.476   1.559   0.682 -2.7673 -1.3015 -1.3687
22604SOL     OW69818   4.522   2.342   0.767 -0.2439  0.2746  0.1198
22604SOL    HW169819   4.575   2.409   0.810 -1.6332  0.4641  1.6256
22604SOL    HW269820   4.480   2.387   0.694 -0.5629  0.8691  0.6602
22605SOL     OW69821   2.170   0.491   0.623  0.2065 -0.2938  0.2216
22605SOL    HW169822   2.191   0.408   0.581  3.3528  0.8689 -0.7863
22605SOL    HW269823   2.179   0.556   0.554  4.0711  1.5051  2.1311
22606SOL     OW69824   1.387   6.196  10.123 -0.1132  0.1510  0.4301
22606SOL    HW169825   1.482   6.192  10.116  0.1481  0.6660  2.7244
22606SOL    HW269826   1.363   6.119  10.175 -0.9979 -0.1537 -0.3980
22607SOL     OW69827   9.241   1.240   9.674 -0.3508  1.0426  0.0344
22607SOL    HW169828   9.187   1.272   9.746 -0.3806  2.6923 -0.6559
22607SOL    HW269829   9.192   1.265   9.595 -0.1918 -0.4765 -0.5664
22608SOL     OW69830   7.836   3.649  10.808 -0.5271 -0.0039  0.1183
22608SOL    HW169831   7.887   3.614  10.735  1.3140  1.0960  0.8007
22608SOL    HW269832   7.806   3.572  10.856  0.7625 -0.7069 -0.1598
22609SOL     OW69833   3.796   6.465  10.857 -0.8124 -0.2436 -0.3212
22609SOL    HW169834   3.850   6.445  10.781  0.7510  1.6436  0.2005
22609SOL    HW269835   3.848   6.436  10.932 -2.6333 -2.7490  0.1039
22610SOL     OW69836   9.309   4.087   3.596  0.1848 -0.1268  0.3023
22610SOL    HW169837   9.294   3.995   3.575 -0.7639 -0.0598  0.6534
22610SOL    HW269838   9.373   4.085   3.667 -0.1046 -0.5327  0.5575
22611SOL     OW69839   1.729   3.651  10.497  0.0277  0.0752  0.3905
22611SOL    HW169840   1.648   3.647  10.548 -1.4785 -0.4374 -1.9328
22611SOL    HW269841   1.773   3.568  10.516 -0.5707 -0.1722  0.7325
22612SOL     OW69842  10.790   9.918   6.111  0.0148 -0.0578 -0.9961
22612SOL    HW169843  10.778   9.834   6.156 -0.1397  0.8989  0.8866
22612SOL    HW269844  10.710   9.967   6.130 -0.1686  0.3083 -2.6050
22613SOL     OW69845   5.792   3.260  10.249 -0.5081 -0.0525 -0.0821
22613SOL    HW169846   5.849   3.330  10.281  1.1581 -0.7194 -1.4546
22613SOL    HW269847   5.806   3.259  10.154 -2.1865 -0.7995 -0.3553
22614SOL     OW69848   2.936   9.658   3.400  1.0246 -0.8078 -0.2367
22614SOL    HW169849   3.008   9.670   3.339  0.2169  0.8790 -0.9259
22614SOL    HW269850   2.977   9.626   3.480  2.9048  2.1064  0.1179
22615SOL     OW69851   9.561  10.498   8.162 -0.0410 -0.1040  0.2717
22615SOL    HW169852   9.651  10.498   8.194  0.6703 -1.4589 -1.5688
22615SOL    HW269853   9.508  10.509   8.241  1.7096  3.5349  1.1947
22616SOL     OW69854   9.157   9.068   9.285  0.4220 -0.1737  0.1202
22616SOL    HW169855   9.101   9.021   9.347  2.4921 -0.2312  2.0881
22616SOL    HW269856   9.177   9.151   9.327  2.1392 -0.3316 -0.2754
22617SOL     OW69857   5.725   7.118   8.525 -0.2077  0.0485 -0.4375
22617SOL    HW169858   5.751   7.207   8.499 -3.1057  1.2127  0.2558
22617SOL    HW269859   5.776   7.101   8.605  0.5916  0.9410 -0.7316
22618SOL     OW69860   2.485   5.781   1.691  0.5163  0.4260 -0.2028
22618SOL    HW169861   2.465   5.714   1.626 -1.1217  0.1794  0.5025
22618SOL    HW269862   2.471   5.738   1.775  1.1885  1.1571  0.3068
22619SOL     OW69863   2.960   8.643   8.820  0.2913 -0.1314 -1.0316
22619SOL    HW169864   2.877   8.616   8.780 -0.2944  0.6147 -0.3350
22619SOL    HW269865   2.935   8.687   8.901  1.4810 -2.9000  1.0026
22620SOL     OW69866   7.181   0.648   4.997  0.0541 -0.0668 -0.2695
22620SOL    HW169867   7.243   0.651   5.069  2.1709 -1.7024 -1.8800
22620SOL    HW269868   7.165   0.554   4.983  1.2102  0.0387 -3.0150
22621SOL     OW69869   5.341   3.157   0.034  0.4657 -0.1869 -0.0704
22621SOL    HW169870   5.365   3.087   0.095  1.5684  0.1031 -0.1487
22621SOL    HW269871   5.246   3.148   0.024  0.3153 -0.4670  1.3863
22622SOL     OW69872   2.614   4.510   4.134 -0.3298  0.0466 -0.2304
22622SOL    HW169873   2.527   4.546   4.116  0.7250  2.5926 -0.7474
22622SOL    HW269874   2.672   4.557   4.074  1.2173 -2.9888 -1.2886
22623SOL     OW69875   2.241   7.963   0.301 -0.1909 -0.2562  0.2025
22623SOL    HW169876   2.244   7.977   0.396  0.4968  4.6511 -0.2993
22623SOL    HW269877   2.153   7.990   0.276 -0.6095 -2.1854 -0.6022
22624SOL     OW69878   3.679   8.518   4.436 -0.6433 -0.0303  1.0380
22624SOL    HW169879   3.659   8.606   4.403 -0.2099  0.3428  1.7447
22624SOL    HW269880   3.716   8.533   4.523  2.7433 -0.6142 -0.1392
22625SOL     OW69881   1.649   1.668   3.124 -0.5071  0.1330  0.4379
22625SOL    HW169882   1.657   1.677   3.029  0.6034  0.0292  0.5112
22625SOL    HW269883   1.635   1.574   3.139  1.9112 -0.2720  0.5066
22626SOL     OW69884   3.233   8.725  10.846 -0.8238 -0.1362  0.2929
22626SOL    HW169885   3.230   8.743  10.752  1.9609  2.0922  0.4827
22626SOL    HW269886   3.188   8.799  10.887 -1.2082 -0.6171  0.7646
22627SOL     OW69887   6.807  11.229  10.042 -0.6436 -0.4180 -0.1713
22627SOL    HW169888   6.834  11.308   9.996 -0.8417  0.3822  1.0356
22627SOL    HW269889   6.789  11.258  10.131 -1.3463 -1.7091  0.1395
22628SOL     OW69890   8.695   1.278   1.921 -0.8874 -0.6997  0.1137
22628SOL    HW169891   8.778   1.241   1.951 -1.4821 -0.4124  2.2274
22628SOL    HW269892   8.663   1.216   1.855  0.4141 -1.4331  0.1531
22629SOL     OW69893   2.988   2.087   1.184  0.2746 -0.5753  0.2587
22629SOL    HW169894   2.988   2.147   1.110 -1.5188 -1.1292 -0.2642
22629SOL    HW269895   3.079   2.080   1.211  1.2812 -1.7043 -3.0218
22630SOL     OW69896   1.516   2.797   9.510 -0.3324  0.9719  0.0202
22630SOL    HW169897   1.558   2.815   9.426  0.1625  1.2038  0.3116
22630SOL    HW269898   1.488   2.706   9.504  0.8206  0.5947  0.0642
22631SOL     OW69899   6.987   1.316   4.263 -0.0089  0.2762  0.0941
22631SOL    HW169900   6.916   1.355   4.212  0.7578  0.5111 -0.8057
22631SOL    HW269901   6.946   1.241   4.307 -1.1701  1.2836  0.7886
22632SOL     OW69902  10.072   0.925   3.734  0.0151 -1.2909  0.8088
22632SOL    HW169903  10.025   0.900   3.814 -0.5002 -0.7022  0.6948
22632SOL    HW269904  10.162   0.938   3.762 -0.3667 -0.0404  1.5171
22633SOL     OW69905   7.549   4.789   3.365 -0.0750  0.7549  0.5797
22633SOL    HW169906   7.618   4.749   3.312  0.5629 -0.8786  2.5309
22633SOL    HW269907   7.469   4.744   3.339  0.5941 -1.7867  2.5718
22634SOL     OW69908   5.377   3.834   3.498 -1.1404  0.2873  0.2083
22634SOL    HW169909   5.402   3.916   3.456 -0.8654  0.3027  0.4036
22634SOL    HW269910   5.298   3.807   3.451 -0.5482  0.0376 -0.6841
22635SOL     OW69911   9.253   1.723   2.546 -0.3861  0.0477  0.4404
22635SOL    HW169912   9.329   1.747   2.493 -1.3008  0.6291 -0.6465
22635SOL    HW269913   9.226   1.638   2.511  0.3453 -0.6463  1.5027
22636SOL     OW69914   7.676   9.511   1.178 -0.0927 -0.2691  0.3533
22636SOL    HW169915   7.699   9.585   1.234  2.5573 -0.2944 -0.5824
22636SOL    HW269916   7.750   9.501   1.119 -1.6971 -1.8035 -1.5639
22637SOL     OW69917   9.042   0.094   5.890 -0.0953  0.0603  0.3125
22637SOL    HW169918   9.024   0.046   5.809 -0.8519 -0.2590  0.6543
22637SOL    HW269919   8.969   0.071   5.948 -0.2593  1.3061  0.6325
22638SOL     OW69920   1.599   5.813   7.873  0.4149 -0.4461  0.4801
22638SOL    HW169921   1.588   5.876   7.945 -0.7600 -1.8579  1.6036
22638SOL    HW269922   1.549   5.852   7.801 -0.3757 -0.0943  1.1847
22639SOL     OW69923  10.443  10.487   2.338  0.2550 -1.1908  0.1275
22639SOL    HW169924  10.365  10.517   2.383 -1.3091 -0.2521 -2.9491
22639SOL    HW269925  10.515  10.509   2.397 -1.5300  0.8478  1.6802
22640SOL     OW69926   7.099   2.876   7.598 -0.1235 -0.5858 -0.5316
22640SOL    HW169927   7.027   2.829   7.556 -0.8660  0.3320 -0.3198
22640SOL    HW269928   7.137   2.929   7.528 -0.5629 -0.0057 -0.3402
22641SOL     OW69929   5.154   4.861   5.715  0.0165 -0.4440 -0.0920
22641SOL    HW169930   5.148   4.853   5.810 -1.1967 -2.0228 -0.2676
22641SOL    HW269931   5.122   4.950   5.696  0.4416 -0.0555  0.9753
22642SOL     OW69932   6.049   7.751   9.159 -0.6104 -0.6804  0.4921
22642SOL    HW169933   6.144   7.743   9.170 -0.3904 -1.3092 -1.4877
22642SOL    HW269934   6.014   7.676   9.206 -0.2909  0.3098  2.4477
22643SOL     OW69935   2.830   9.127   7.826  0.3527 -0.0789 -0.0377
22643SOL    HW169936   2.810   9.093   7.739  0.7540 -2.1065  0.6028
22643SOL    HW269937   2.766   9.197   7.839  1.9003  2.0443 -2.9102
22644SOL     OW69938  11.051   8.589   3.046  0.0560 -0.2475  1.0730
22644SOL    HW169939  11.080   8.672   3.009  0.2182 -0.1753  1.3563
22644SOL    HW269940  10.976   8.563   2.992  1.4424 -1.1144 -0.5480
22645SOL     OW69941   8.393   3.457   6.478  0.2868 -0.4363  0.1998
22645SOL    HW169942   8.385   3.372   6.520 -0.9935 -0.0012  0.8785
22645SOL    HW269943   8.392   3.437   6.384 -2.1747 -1.0442  0.2956
22646SOL     OW69944   3.413   4.662   1.793  0.3361 -0.5732 -0.8935
22646SOL    HW169945   3.495   4.699   1.826 -0.3950  0.2837  0.0093
22646SOL    HW269946   3.347   4.687   1.857 -0.6637 -1.1890 -1.6390
22647SOL     OW69947   1.797   0.881   7.859  0.4074  0.7720  0.1995
22647SOL    HW169948   1.839   0.907   7.777 -1.0634  3.4081  0.1398
22647SOL    HW269949   1.709   0.854   7.833 -0.0948  1.6933  0.8553
22648SOL     OW69950   8.858   4.848   7.826  0.9002 -0.2571  0.8772
22648SOL    HW169951   8.869   4.928   7.774  0.3832 -0.3749  0.5786
22648SOL    HW269952   8.944   4.833   7.865  2.1555 -1.5938 -2.0138
22649SOL     OW69953   9.391   3.257   5.229 -0.6740  0.0076 -0.0910
22649SOL    HW169954   9.300   3.266   5.258 -0.5726 -4.0007  2.3278
22649SOL    HW269955   9.387   3.192   5.159  0.3484 -1.4895  1.1593
22650SOL     OW69956  11.267   6.101   5.633  0.3451  0.3115  0.5703
22650SOL    HW169957  11.281   6.189   5.667 -0.7861  0.4223  0.7749
22650SOL    HW269958  11.229   6.113   5.547 -0.7413  0.0401  0.9962
22651SOL     OW69959   9.532   8.653  10.173  0.0123  0.5176  0.3548
22651SOL    HW169960   9.537   8.668  10.268 -0.1963  2.1872  0.1416
22651SOL    HW269961   9.485   8.570  10.164  1.6953 -0.6666  1.7338
22652SOL     OW69962  11.094   0.468   1.555 -0.6977  0.0580 -0.0998
22652SOL    HW169963  11.084   0.542   1.615 -2.1164  0.4619 -0.7915
22652SOL    HW269964  11.187   0.467   1.533 -0.3622  0.5975  1.2053
22653SOL     OW69965   8.416  10.764   7.850 -0.1608  0.2481  0.5795
22653SOL    HW169966   8.423  10.680   7.895  0.7684 -0.3893 -0.6879
22653SOL    HW269967   8.475  10.822   7.898  0.9475 -0.4674  0.1030
22654SOL     OW69968   1.375   1.650   6.813 -0.3031 -0.8499 -0.3109
22654SOL    HW169969   1.295   1.698   6.792 -0.8867 -1.2430  0.8994
22654SOL    HW269970   1.374   1.574   6.754 -0.4082 -0.4413 -0.8384
22655SOL     OW69971   7.213   3.328  10.073  0.3021  0.1295 -0.3408
22655SOL    HW169972   7.162   3.387  10.017  0.5422  1.3371  0.6600
22655SOL    HW269973   7.206   3.243  10.031  1.9756  1.2827 -3.2310
22656SOL     OW69974   3.031   5.062   6.120 -0.3155  0.8464  0.3148
22656SOL    HW169975   3.115   5.087   6.082  0.1241 -0.5672  0.3207
22656SOL    HW269976   3.054   5.017   6.201 -1.0298 -0.2040 -0.0440
22657SOL     OW69977   2.094   9.671   8.872 -0.5698  0.7084  0.2988
22657SOL    HW169978   2.079   9.633   8.959 -1.0539  0.6651  0.2020
22657SOL    HW269979   2.058   9.760   8.878 -1.5164  0.3756 -0.1368
22658SOL     OW69980  11.054   7.437   8.254  0.2102 -0.3970 -0.0378
22658SOL    HW169981  11.043   7.449   8.160  1.2337  0.9964 -0.0163
22658SOL    HW269982  11.117   7.505   8.280 -0.5051 -0.3443  1.7572
22659SOL     OW69983   5.566   9.750  10.087 -0.2002 -0.1790  0.3715
22659SOL    HW169984   5.479   9.712  10.083 -0.6967  0.8457  0.8465
22659SOL    HW269985   5.584   9.781   9.998  0.6169 -2.3020 -0.2632
22660SOL     OW69986   8.751   5.647   9.483  0.6245  0.4162  0.2388
22660SOL    HW169987   8.748   5.742   9.496  1.9427  0.3348  1.2829
22660SOL    HW269988   8.694   5.612   9.550  0.6023  0.4376  0.2315
22661SOL     OW69989   4.503   6.226  10.465 -0.6909  0.5403  0.2781
22661SOL    HW169990   4.531   6.282  10.538  2.4301 -0.3600 -0.0822
22661SOL    HW269991   4.495   6.139  10.505 -0.3779  0.3097 -0.1608
22662SOL     OW69992   1.952   7.018   1.163 -0.3820 -0.0442  0.4777
22662SOL    HW169993   1.938   6.979   1.077 -0.4075  1.8355 -0.3990
22662SOL    HW269994   2.018   7.085   1.149  0.2864 -0.3047  2.1257
22663SOL     OW69995  10.380   8.478   4.717  0.0973  0.5607  0.0355
22663SOL    HW169996  10.394   8.383   4.715  2.0455  0.7660 -2.9640
22663SOL    HW269997  10.443   8.510   4.781 -1.8322 -0.1910  2.4778
22664SOL     OW69998   5.102  10.086   3.071  0.7874 -0.6639 -0.5438
22664SOL    HW169999   5.185  10.084   3.022  0.2848 -0.3773 -1.4327
22664SOL    HW270000   5.089   9.995   3.098  0.3230 -1.1590 -2.2838
22665SOL     OW70001   7.205   8.723   5.927 -0.3773  0.5462  0.7063
22665SOL    HW170002   7.199   8.715   6.022 -0.7682 -0.7490  0.5920
22665SOL    HW270003   7.275   8.662   5.902 -0.1129  1.0576  0.1870
22666SOL     OW70004  10.371   0.321   0.062  0.4898  0.4161 -0.3032
22666SOL    HW170005  10.449   0.270   0.040  0.3163  0.2818 -0.6123
22666SOL    HW270006  10.392   0.362   0.146  0.2604 -0.9381  0.4466
22667SOL     OW70007   8.860   7.430   6.841 -0.1308  0.4208 -0.5854
22667SOL    HW170008   8.874   7.341   6.807 -1.3762 -0.3862  0.9005
22667SOL    HW270009   8.813   7.417   6.923  2.0138  2.3317  1.0775
22668SOL     OW70010   8.839  10.638   6.198  0.3698 -0.1870  0.3850
22668SOL    HW170011   8.809  10.726   6.222  1.9358  0.8227 -1.1453
22668SOL    HW270012   8.854  10.643   6.103  0.3354 -2.1671  0.2444
22669SOL     OW70013   5.399   2.845   1.031 -0.3129  0.0709  0.0091
22669SOL    HW170014   5.449   2.851   0.950 -2.7594  0.1080 -1.6089
22669SOL    HW270015   5.337   2.774   1.017 -0.4621 -0.2780  2.0782
22670SOL     OW70016   2.154   3.251   9.047  0.0145 -0.1900 -0.1752
22670SOL    HW170017   2.222   3.309   9.082 -1.5967  1.1294  0.9215
22670SOL    HW270018   2.194   3.214   8.968  1.9115  0.7041  0.2862
22671SOL     OW70019   7.565   2.944   8.428 -0.0367  0.4850  0.2945
22671SOL    HW170020   7.568   3.033   8.393  0.8415  0.4827  0.3549
22671SOL    HW270021   7.589   2.888   8.354 -2.7647  0.0750 -0.3955
22672SOL     OW70022   1.806   9.806   0.225  0.1853 -0.5467  0.3306
22672SOL    HW170023   1.826   9.886   0.273 -0.3958  1.2596 -2.2326
22672SOL    HW270024   1.711   9.807   0.214  0.3370 -0.4903 -1.3718
22673SOL     OW70025   6.261   7.806   7.832 -0.1711 -0.8076 -0.1149
22673SOL    HW170026   6.334   7.782   7.775 -0.6303 -2.7008  0.0141
22673SOL    HW270027   6.225   7.722   7.862 -1.5260  0.0939  0.9433
22674SOL     OW70028  11.078   1.011   8.316 -0.0541  0.1266  0.1264
22674SOL    HW170029  11.057   1.058   8.396  0.3724  0.1371  0.2364
22674SOL    HW270030  11.168   0.980   8.329 -0.0876 -0.1323 -0.2221
22675SOL     OW70031   6.961   8.064   9.599 -0.3425 -0.0677 -0.3878
22675SOL    HW170032   6.953   8.134   9.663 -0.5961 -1.7857  1.5268
22675SOL    HW270033   7.013   8.103   9.528  0.8361  1.6013  1.3019
22676SOL     OW70034   5.798   7.843   9.791  0.1693 -0.9032  0.7413
22676SOL    HW170035   5.850   7.853   9.712 -0.9552  0.0241  0.0925
22676SOL    HW270036   5.789   7.931   9.826 -1.7532 -0.8841  0.3007
22677SOL     OW70037   8.942   6.515   8.594  0.0084 -0.1034  0.2313
22677SOL    HW170038   8.883   6.440   8.604  1.8987 -1.7469 -0.1552
22677SOL    HW270039   8.915   6.576   8.662 -2.6119 -0.3879 -0.4271
22678SOL     OW70040   0.136   3.923   8.381  0.4027 -0.0952 -0.8117
22678SOL    HW170041   0.163   3.936   8.472 -1.0595 -1.1418 -0.1990
22678SOL    HW270042   0.135   4.011   8.343 -0.5229  0.5371  0.6368
22679SOL     OW70043   8.958   6.549   6.887  0.3187  0.8423 -0.2695
22679SOL    HW170044   8.916   6.490   6.825 -3.8287  1.7845  1.2939
22679SOL    HW270045   9.005   6.491   6.947 -0.3908 -0.5325 -1.0006
22680SOL     OW70046  10.489   1.548   0.812  0.3530  0.2512  0.5659
22680SOL    HW170047  10.444   1.512   0.889 -1.1491  1.8180  0.4822
22680SOL    HW270048  10.505   1.640   0.835 -0.4940  0.8562 -1.1046
22681SOL     OW70049   6.564   0.306   9.257  0.5323  0.1167  0.7057
22681SOL    HW170050   6.468   0.313   9.254  0.5548  0.2685  0.2942
22681SOL    HW270051   6.593   0.333   9.170  1.1446  3.0172  1.6994
22682SOL     OW70052  10.467  10.341   1.655  0.2887 -0.1794  0.2396
22682SOL    HW170053  10.420  10.389   1.724  0.9151  0.1825  0.4293
22682SOL    HW270054  10.458  10.249   1.680  1.3012 -0.0054  1.3446
22683SOL     OW70055   9.564  11.137   6.094  0.2480 -0.5803  0.2369
22683SOL    HW170056   9.595  11.046   6.091 -0.4504 -0.7990 -0.5996
22683SOL    HW270057   9.586  11.172   6.008 -2.1286 -0.8614 -0.5469
22684SOL     OW70058   1.295  10.071   4.700 -0.1969 -0.0742 -0.3563
22684SOL    HW170059   1.283  10.022   4.619 -2.2204 -0.6202  0.2078
22684SOL    HW270060   1.248  10.019   4.766  1.6639  0.1772  1.2461
22685SOL     OW70061   3.673   2.013   6.196 -0.0473  0.1714 -0.3137
22685SOL    HW170062   3.723   1.992   6.116 -1.6199 -2.0631 -0.8088
22685SOL    HW270063   3.740   2.016   6.265  0.8851 -2.9325 -0.9113
22686SOL     OW70064   1.828   7.751   9.291  0.0535 -0.1451  0.5743
22686SOL    HW170065   1.885   7.675   9.284 -1.0674 -0.8711 -1.7208
22686SOL    HW270066   1.865   7.802   9.362  1.6412 -2.1573  1.2980
22687SOL     OW70067  10.131   7.325   7.432 -0.5207 -0.2603  0.5417
22687SOL    HW170068  10.083   7.407   7.421 -0.8109 -0.5729 -0.6111
22687SOL    HW270069  10.118   7.302   7.524 -0.2103  1.1178  0.9403
22688SOL     OW70070   3.908   5.811   8.729 -0.0754 -0.0810  0.4757
22688SOL    HW170071   3.820   5.848   8.719 -0.7701 -1.5003  1.0368
22688SOL    HW270072   3.900   5.749   8.802  1.4273 -0.1614  0.6090
22689SOL     OW70073   3.305   2.463   7.152 -0.7705  0.1794 -0.3473
22689SOL    HW170074   3.333   2.459   7.243 -0.8016 -1.2453 -0.3691
22689SOL    HW270075   3.301   2.556   7.131 -0.9502  0.5292  1.1585
22690SOL     OW70076   3.962   9.579   6.023  0.4381 -0.1460  0.5966
22690SOL    HW170077   3.894   9.616   5.967  1.3310 -1.0247 -1.1432
22690SOL    HW270078   3.933   9.490   6.042  1.4435 -0.8404 -0.8919
22691SOL     OW70079   3.423   0.972   5.129  0.5223 -0.1239  0.1451
22691SOL    HW170080   3.487   1.018   5.183  0.5770  0.9853 -0.8412
22691SOL    HW270081   3.470   0.896   5.095  1.3487  0.7043 -0.6061
22692SOL     OW70082   8.794   6.479   7.850 -0.4251 -0.1784 -0.0283
22692SOL    HW170083   8.785   6.550   7.914 -0.7334 -0.8329  0.6776
22692SOL    HW270084   8.714   6.427   7.861  0.4436 -1.4720  0.5401
22693SOL     OW70085   1.185   4.492   8.319 -0.0576  0.2714 -0.1427
22693SOL    HW170086   1.253   4.469   8.383  1.7089 -0.6095 -2.2189
22693SOL    HW270087   1.104   4.456   8.357  1.3276 -2.5181  0.4715
22694SOL     OW70088   3.794   2.142   6.451 -0.3622  0.1058 -0.2912
22694SOL    HW170089   3.798   2.190   6.533 -0.1127 -1.2949  0.5416
22694SOL    HW270090   3.700   2.138   6.430 -0.7635 -2.1956  1.5882
22695SOL     OW70091   3.384   3.311   4.751 -0.3856 -0.2946  0.9654
22695SOL    HW170092   3.476   3.284   4.752  0.2840  1.7677  2.4086
22695SOL    HW270093   3.351   3.284   4.836 -0.1471  1.7820  1.7786
22696SOL     OW70094   8.049   0.801   8.113 -0.0998  0.2806 -0.0840
22696SOL    HW170095   8.009   0.821   8.029 -0.2187  0.5412  0.0338
22696SOL    HW270096   7.977   0.767   8.166 -0.0165  0.0745 -0.0998
22697SOL     OW70097   2.796  10.991   1.227 -0.3092  0.0833 -0.5827
22697SOL    HW170098   2.712  11.018   1.190  0.2944 -0.5663 -2.6019
22697SOL    HW270099   2.796  11.026   1.316 -2.0702  1.3908 -1.0430
22698SOL     OW70100   6.090   2.838  11.217  0.2564 -0.1802  0.6806
22698SOL    HW170101   6.132   2.922  11.235  1.2037  0.0258 -1.9827
22698SOL    HW270102   6.117   2.782  11.289  0.3804  1.5129  2.0296
22699SOL     OW70103  10.547  10.760   5.865  0.2412 -0.5249  0.3272
22699SOL    HW170104  10.639  10.768   5.890  0.1835 -2.2970  1.2468
22699SOL    HW270105  10.499  10.774   5.947 -0.4440  1.8286 -0.3914
22700SOL     OW70106   0.220   4.597   6.848  0.2488 -0.1017  0.8740
22700SOL    HW170107   0.235   4.510   6.885  0.1692 -0.6747 -0.3821
22700SOL    HW270108   0.141   4.629   6.892  0.6207 -0.3965  1.7805
22701SOL     OW70109   8.924   7.388   3.219 -0.1503  0.1589  0.0070
22701SOL    HW170110   9.002   7.332   3.211 -0.3652 -0.0040 -0.9742
22701SOL    HW270111   8.933   7.452   3.149 -1.0505 -0.0468 -0.3058
22702SOL     OW70112   5.892   2.648   6.905 -0.9779  0.2099  0.6844
22702SOL    HW170113   5.891   2.605   6.820 -3.0129 -0.0372  0.7917
22702SOL    HW270114   5.865   2.580   6.967  0.9468  0.2522  1.6440
22703SOL     OW70115  10.576   9.295   4.471 -0.4583 -0.8541  0.6847
22703SOL    HW170116  10.671   9.288   4.468 -0.2302  0.9221 -3.8704
22703SOL    HW270117  10.558   9.344   4.552  2.4096 -1.2783  1.7019
22704SOL     OW70118   4.473   0.404  10.786  0.2295 -0.5814  0.1855
22704SOL    HW170119   4.557   0.358  10.782 -0.5363 -1.9884 -0.0227
22704SOL    HW270120   4.462   0.440  10.698  1.0126  0.3806  0.4561
22705SOL     OW70121   9.061   5.633   3.712  0.3518  0.2949 -1.0967
22705SOL    HW170122   9.042   5.652   3.620 -0.3955 -0.1920 -1.0543
22705SOL    HW270123   9.109   5.550   3.710  0.5355  0.4002 -1.0634
22706SOL     OW70124   1.769   5.071   9.980 -0.3221  0.2048 -0.2177
22706SOL    HW170125   1.849   5.062  10.032 -0.7843  3.6296  1.3180
22706SOL    HW270126   1.714   4.998  10.009  1.9963 -2.0631 -1.1115
22707SOL     OW70127  11.042   2.831  11.196 -0.3362  0.1904  0.9754
22707SOL    HW170128  11.056   2.913  11.150 -0.2419  0.2054  1.0299
22707SOL    HW270129  10.967   2.848  11.253 -1.3943 -0.2684 -0.2300
22708SOL     OW70130   1.697   8.477  10.921  0.0110  0.9112  0.2518
22708SOL    HW170131   1.762   8.546  10.931  0.9764  0.2164 -0.9190
22708SOL    HW270132   1.622   8.506  10.974  1.1280  1.8967  1.3484
22709SOL     OW70133   1.722  11.025   1.533  0.7065  0.0843  0.0607
22709SOL    HW170134   1.751  10.946   1.579  2.6632  0.0372 -1.1327
22709SOL    HW270135   1.685  10.993   1.451  3.1912  0.3840 -1.2823
22710SOL     OW70136   0.864   8.046   2.702 -0.5266 -0.0586  0.7751
22710SOL    HW170137   0.946   8.054   2.654 -1.3466 -3.3615 -1.5588
22710SOL    HW270138   0.796   8.069   2.639 -1.5751 -3.2070  0.5629
22711SOL     OW70139   6.632   3.704   5.500 -0.0458  0.1986  0.1732
22711SOL    HW170140   6.643   3.665   5.413 -1.0384 -0.6016  0.3801
22711SOL    HW270141   6.557   3.763   5.490 -0.0716  0.2130  0.4507
22712SOL     OW70142   5.279   1.196   4.182  0.1256 -0.0955 -0.5154
22712SOL    HW170143   5.252   1.186   4.090  2.7019 -0.0941 -1.3649
22712SOL    HW270144   5.309   1.286   4.188 -2.1007  0.6071  1.0078
22713SOL     OW70145   7.214   9.206   2.458  0.3285 -0.0683 -0.2812
22713SOL    HW170146   7.265   9.176   2.383 -0.3509  1.4510 -1.4189
22713SOL    HW270147   7.131   9.236   2.420  0.8614  3.0371  0.6740
22714SOL     OW70148  10.624  10.628   8.560  0.3802  0.4396 -0.0368
22714SOL    HW170149  10.626  10.723   8.554 -0.4862  0.4448 -0.4046
22714SOL    HW270150  10.715  10.601   8.542  0.4675  1.1565 -0.7351
22715SOL     OW70151   9.994   7.038   1.135 -0.5451  0.2817  0.5032
22715SOL    HW170152   9.945   6.972   1.183 -0.2151 -0.0072  0.4477
22715SOL    HW270153   9.938   7.061   1.060 -0.3799 -0.4104  0.1599
22716SOL     OW70154  11.219   0.105   5.581  0.5295 -0.0913  0.0600
22716SOL    HW170155  11.312   0.110   5.602  0.6197  1.2898 -0.5407
22716SOL    HW270156  11.217   0.086   5.487  0.2000 -0.0919  0.0657
22717SOL     OW70157  10.633   5.450   9.464 -0.0265 -0.8008 -0.5693
22717SOL    HW170158  10.670   5.438   9.376 -2.0847  0.1710 -1.6333
22717SOL    HW270159  10.558   5.392   9.467  0.4494 -1.3827  0.8734
22718SOL     OW70160   5.943   7.328   4.676  0.8631 -0.1197  0.1730
22718SOL    HW170161   5.996   7.311   4.753  0.3234  1.1863  0.8785
22718SOL    HW270162   5.914   7.242   4.646  0.7409 -0.6195  1.6748
22719SOL     OW70163   8.982   1.597   3.422 -0.4225  0.4586  0.5604
22719SOL    HW170164   8.917   1.528   3.407 -1.2881  1.9680 -5.1311
22719SOL    HW270165   9.065   1.559   3.392 -0.9004  1.5842 -2.5804
22720SOL     OW70166  10.494   3.394   8.889  0.3471  0.5823 -0.3176
22720SOL    HW170167  10.534   3.478   8.864 -1.7208  1.6561 -0.2510
22720SOL    HW270168  10.489   3.399   8.984 -0.3569  0.6738 -0.3577
22721SOL     OW70169   6.787   2.174   9.782 -0.1051  0.9596 -0.3192
22721SOL    HW170170   6.762   2.108   9.717  2.5635 -1.5662  0.9660
22721SOL    HW270171   6.720   2.169   9.850 -0.0540 -0.3300 -0.3497
22722SOL     OW70172   4.625   2.493   8.619 -0.2401  0.6443  0.1059
22722SOL    HW170173   4.700   2.485   8.678  1.8376  0.0954 -2.4154
22722SOL    HW270174   4.634   2.580   8.581 -1.0506  0.6636 -0.0567
22723SOL     OW70175   3.778   6.864   3.598 -0.4556  0.8339  0.0130
22723SOL    HW170176   3.838   6.850   3.526  0.0152  0.4699  0.4742
22723SOL    HW270177   3.697   6.894   3.556 -0.2348  0.4850 -0.6703
22724SOL     OW70178   5.486   9.586   9.484 -0.0623  0.4156  0.2323
22724SOL    HW170179   5.432   9.511   9.463  2.8884 -1.7777 -0.1397
22724SOL    HW270180   5.468   9.604   9.576  0.5106 -2.0398  0.8889
22725SOL     OW70181   0.989   3.917  10.214 -0.6267  0.8722 -0.3967
22725SOL    HW170182   0.940   3.998  10.197 -0.9247  0.8026  0.1146
22725SOL    HW270183   0.933   3.867  10.273 -0.5925  0.1402 -0.9767
22726SOL     OW70184   6.001   5.811   2.343 -0.3266  0.1493  0.2655
22726SOL    HW170185   6.023   5.840   2.255 -0.8605  0.0711  0.0968
22726SOL    HW270186   6.024   5.718   2.344 -0.8105  0.0186  0.0246
22727SOL     OW70187   6.654   6.034   9.219  0.3060 -0.8258  0.2702
22727SOL    HW170188   6.561   6.055   9.207  0.3312 -0.1924  1.1223
22727SOL    HW270189   6.701   6.107   9.179  0.4323 -0.8353  0.4004
22728SOL     OW70190   1.604   7.303   1.367 -0.5697  0.0571  0.4111
22728SOL    HW170191   1.545   7.375   1.389  1.2134  1.6890  0.0902
22728SOL    HW270192   1.552   7.245   1.311 -1.3300  2.4102 -1.4549
22729SOL     OW70193   5.106   5.499   7.291 -0.1706  1.1975  0.1853
22729SOL    HW170194   5.186   5.448   7.286 -0.8632 -0.2841  2.7794
22729SOL    HW270195   5.089   5.525   7.200  0.3847 -2.9520 -1.3151
22730SOL     OW70196   7.596   3.774   5.552  0.1063 -0.6135 -0.4752
22730SOL    HW170197   7.547   3.697   5.580  0.4522 -0.9266 -0.7342
22730SOL    HW270198   7.687   3.746   5.549  0.1892 -0.3168 -0.9672
22731SOL     OW70199   7.253   5.371   6.546  0.0951  0.0426 -0.2378
22731SOL    HW170200   7.335   5.356   6.498 -0.9589 -1.4719 -1.6372
22731SOL    HW270201   7.259   5.313   6.622  0.0581 -0.5382 -0.6747
22732SOL     OW70202   4.310   3.506  10.960 -0.0700 -0.4077 -0.2116
22732SOL    HW170203   4.397   3.483  10.927  0.3809 -0.0433  0.6899
22732SOL    HW270204   4.293   3.443  11.029 -0.0891  0.1196  0.2743
22733SOL     OW70205   1.350   4.102   4.814  0.9370  0.2560  0.5506
22733SOL    HW170206   1.287   4.033   4.836  0.5297  0.5216  0.2146
22733SOL    HW270207   1.300   4.165   4.763  1.3963  0.6335  0.5642
22734SOL     OW70208   2.614   0.224   9.636 -0.3512  0.0015 -0.4498
22734SOL    HW170209   2.533   0.243   9.684 -0.2609 -0.1198 -0.2472
22734SOL    HW270210   2.646   0.310   9.608  1.5319  0.5238  2.8214
22735SOL     OW70211   0.394   5.720   6.126  0.3818 -0.0956 -0.2530
22735SOL    HW170212   0.471   5.666   6.145  1.2002 -0.8516 -4.6782
22735SOL    HW270213   0.430   5.801   6.089 -0.9308  0.3965 -0.5098
22736SOL     OW70214   4.159   5.477   3.478 -0.0192  0.0654 -0.3472
22736SOL    HW170215   4.208   5.437   3.550 -1.2844 -0.6120  0.1657
22736SOL    HW270216   4.072   5.436   3.482  0.0244 -0.4128 -2.5981
22737SOL     OW70217   4.779   2.118   5.040  0.1232 -0.1949 -0.6012
22737SOL    HW170218   4.690   2.134   5.009  0.3744 -0.6982 -1.6157
22737SOL    HW270219   4.806   2.202   5.076  0.0058  0.6133 -2.2845
22738SOL     OW70220   5.344   8.168  10.362  0.1397 -0.5371 -0.2669
22738SOL    HW170221   5.384   8.124  10.288  2.0533 -0.1165  0.4534
22738SOL    HW270222   5.389   8.253  10.367 -0.5022 -0.2316  0.8899
22739SOL     OW70223   5.786   0.480   5.560  0.1623 -0.0310 -0.5316
22739SOL    HW170224   5.732   0.401   5.558  1.1127 -0.7373  0.6379
22739SOL    HW270225   5.836   0.476   5.478  0.7430 -1.0654 -0.1542
22740SOL     OW70226   0.684  10.117   6.079 -0.4593 -0.5883  0.3732
22740SOL    HW170227   0.666  10.134   5.986 -0.7635  0.9271  0.6796
22740SOL    HW270228   0.601  10.136   6.123 -0.3479 -1.4153  0.9451
22741SOL     OW70229   6.824   2.587   6.614  0.3938 -0.1421  0.1307
22741SOL    HW170230   6.742   2.540   6.634 -0.6256  2.0287  1.3663
22741SOL    HW270231   6.868   2.595   6.699  1.6859 -0.8540 -0.4484
22742SOL     OW70232   8.274   5.698   6.401  0.2287  1.0519 -0.2164
22742SOL    HW170233   8.205   5.636   6.423  0.2968  1.0816  0.0931
22742SOL    HW270234   8.327   5.653   6.335  1.2504  0.0845  1.1913
22743SOL     OW70235   2.797   1.562  10.063  0.0464 -0.0811  0.6783
22743SOL    HW170236   2.719   1.512  10.038  0.4551 -0.1312 -0.5492
22743SOL    HW270237   2.864   1.496  10.080  0.4308  0.0136 -0.4089
22744SOL     OW70238   4.981   9.330   2.487 -0.6013 -0.5725  0.6054
22744SOL    HW170239   5.053   9.391   2.506  0.9877 -1.9546 -0.6887
22744SOL    HW270240   5.019   9.243   2.502 -2.0455 -1.3432 -0.0393
22745SOL     OW70241   2.396   5.712   3.914 -0.4569  0.2193 -0.1142
22745SOL    HW170242   2.391   5.728   4.008  1.5874 -2.4014  0.5368
22745SOL    HW270243   2.431   5.794   3.878 -1.6473  1.4154  1.2778
22746SOL     OW70244   6.708   7.317  10.650 -0.2860 -0.3729  0.5976
22746SOL    HW170245   6.710   7.334  10.556 -2.0402  2.5074  0.9342
22746SOL    HW270246   6.775   7.376  10.686 -0.8696 -0.0984  1.2623
22747SOL     OW70247   5.891   9.181   4.691 -0.1084  0.2334 -0.5036
22747SOL    HW170248   5.983   9.202   4.672  0.2186  1.9641  2.3482
22747SOL    HW270249   5.847   9.265   4.692 -0.8826 -0.1259  1.7676
22748SOL     OW70250   1.206   9.936   1.988  0.3279  0.8042 -0.1743
22748SOL    HW170251   1.275   9.910   1.928  0.0262 -0.5057  0.0293
22748SOL    HW270252   1.126   9.938   1.935  0.2335  0.6259 -0.0427
22749SOL     OW70253   4.759   2.066  10.043 -0.3040  0.0749  0.1895
22749SOL    HW170254   4.719   2.013  10.111  0.6252 -0.0587  0.6533
22749SOL    HW270255   4.710   2.148  10.044 -1.1432 -0.4188  0.1087
22750SOL     OW70256   4.101   8.150   5.338  0.2744  0.3932  0.0363
22750SOL    HW170257   4.174   8.202   5.302  1.5638 -1.3434 -0.0134
22750SOL    HW270258   4.143   8.071   5.373 -1.2916  0.5563  2.5452
22751SOL     OW70259   6.645   0.995   9.836  0.9132 -0.0618  0.0343
22751SOL    HW170260   6.634   0.957   9.749  2.5794 -1.5229  0.3830
22751SOL    HW270261   6.740   0.991   9.852  0.7042  0.6094  1.7293
22752SOL     OW70262   4.445   9.805  11.065 -0.2534  0.1174  0.2467
22752SOL    HW170263   4.444   9.829  11.158 -0.5097 -0.9305  0.5287
22752SOL    HW270264   4.535   9.819  11.037 -0.3013  0.9811  0.5016
22753SOL     OW70265   7.137   1.926   8.890  0.4821  0.1126 -0.4902
22753SOL    HW170266   7.101   1.839   8.906  0.7524  0.1709  0.5070
22753SOL    HW270267   7.086   1.984   8.947  1.2850  0.3845 -0.0344
22754SOL     OW70268   9.814   8.207  11.185 -0.1832 -0.4675  0.4950
22754SOL    HW170269   9.752   8.201  11.112  0.2955 -1.7669  0.1786
22754SOL    HW270270   9.899   8.214  11.142  0.0081 -0.0433  0.9372
22755SOL     OW70271   5.162   5.949  11.171  0.1739 -0.2896  0.1294
22755SOL    HW170272   5.081   5.901  11.187  0.1138 -0.6954 -1.2782
22755SOL    HW270273   5.229   5.897  11.216 -0.2046 -0.5128  0.4394
22756SOL     OW70274   5.934   1.431   5.755  0.6726  0.4504  0.4394
22756SOL    HW170275   5.934   1.490   5.680  0.3184  0.3195  0.3336
22756SOL    HW270276   5.902   1.348   5.720 -0.1216  0.5610  0.8622
22757SOL     OW70277   5.881   0.271   9.586 -0.5672  0.3606  0.0476
22757SOL    HW170278   5.803   0.259   9.531 -0.9194  1.0645  0.3800
22757SOL    HW270279   5.923   0.350   9.551 -1.0771  1.1114  1.1025
22758SOL     OW70280   1.830   5.532   1.195  0.6300 -0.1683 -0.3080
22758SOL    HW170281   1.893   5.496   1.258 -0.3328 -0.8735  0.2805
22758SOL    HW270282   1.755   5.473   1.200  0.7901 -0.6609 -2.6597
22759SOL     OW70283   9.539   2.967  10.437  0.6236 -0.3277  0.3228
22759SOL    HW170284   9.500   3.049  10.408  2.6773  1.1997  1.6351
22759SOL    HW270285   9.465   2.906  10.443 -1.0598  1.5904 -0.0192
22760SOL     OW70286   0.792   0.262   9.809  0.3021  0.3035 -0.0584
22760SOL    HW170287   0.784   0.291   9.900 -1.5501  1.2009 -0.4676
22760SOL    HW270288   0.882   0.286   9.784  1.0155 -0.4321  1.6584
22761SOL     OW70289   0.148   1.801   9.290  0.5301  0.2265  0.4427
22761SOL    HW170290   0.074   1.742   9.306 -0.2521  1.0668  0.0394
22761SOL    HW270291   0.109   1.888   9.294  1.0449  0.6224 -1.9709
22762SOL     OW70292   5.834   1.517   0.780 -0.0411  0.3306  0.5432
22762SOL    HW170293   5.792   1.513   0.866 -1.8888  1.5074 -0.2340
22762SOL    HW270294   5.811   1.604   0.746  1.9900  0.5325 -0.5039
22763SOL     OW70295   2.005   4.054   5.780  0.0399 -0.4108  0.7122
22763SOL    HW170296   2.022   4.004   5.701 -1.5625 -0.4837  0.3987
22763SOL    HW270297   2.049   4.005   5.849  0.4343 -0.9906  0.0581
22764SOL     OW70298   5.220   1.909  10.048  0.7328  0.3820 -0.1974
22764SOL    HW170299   5.263   1.982  10.004  0.0140  0.5159 -0.6867
22764SOL    HW270300   5.290   1.867  10.098  1.4940  0.4253 -1.1988
22765SOL     OW70301   8.502   3.566   5.303  0.4670  0.4196  0.3575
22765SOL    HW170302   8.521   3.529   5.389  1.4942  1.2822  0.5112
22765SOL    HW270303   8.587   3.573   5.260  0.3006  2.3754  0.2547
22766SOL     OW70304   9.212   9.323   7.943 -0.3605 -0.0672 -0.4608
22766SOL    HW170305   9.119   9.336   7.960 -0.6533 -1.0729 -1.2337
22766SOL    HW270306   9.256   9.374   8.012 -1.4666  0.4591 -0.1200
22767SOL     OW70307   5.572   0.925   8.087 -0.5287  0.2667 -0.0970
22767SOL    HW170308   5.559   0.846   8.035 -0.8745 -1.0658  1.8968
22767SOL    HW270309   5.515   0.991   8.047  0.3263 -0.2285 -2.2400
22768SOL     OW70310   6.646   8.097   0.397 -0.4228 -0.5174  0.8756
22768SOL    HW170311   6.688   8.125   0.478  1.8090  0.4763 -0.5218
22768SOL    HW270312   6.682   8.010   0.379 -0.6710 -0.6061  0.8032
22769SOL     OW70313  10.381   6.532   8.294  0.1776 -0.4545 -0.2529
22769SOL    HW170314  10.351   6.441   8.282 -2.4268  0.3366 -0.4430
22769SOL    HW270315  10.315   6.571   8.352  1.7923  1.0851  0.6415
22770SOL     OW70316  10.427   3.957   4.303  0.5935 -0.2783 -0.4790
22770SOL    HW170317  10.397   3.887   4.245  0.8342 -0.2346 -0.6579
22770SOL    HW270318  10.485   3.913   4.366 -2.7775 -1.1534  2.3895
22771SOL     OW70319   4.952   0.490   2.803 -0.3460  0.0461  0.4433
22771SOL    HW170320   4.858   0.501   2.788 -0.5112 -2.5739 -1.0166
22771SOL    HW270321   4.989   0.471   2.717  1.1240 -1.2033  1.2918
22772SOL     OW70322   6.319   0.522  10.564 -0.5008  0.2694  0.1576
22772SOL    HW170323   6.334   0.483  10.650  1.9817  1.6655  0.4343
22772SOL    HW270324   6.406   0.535  10.527 -1.4906 -0.4326 -2.6937
22773SOL     OW70325   9.784   1.429  10.510  0.6235 -0.5369  0.3544
22773SOL    HW170326   9.866   1.398  10.549 -0.0418 -1.0735  1.3649
22773SOL    HW270327   9.722   1.357  10.525  0.1801 -0.5091 -1.1737
22774SOL     OW70328   7.323   3.974   2.378 -0.5003  0.2174  0.0708
22774SOL    HW170329   7.385   3.902   2.389 -0.5474 -0.2403 -2.2592
22774SOL    HW270330   7.241   3.941   2.414 -0.7068 -1.2130 -1.5803
22775SOL     OW70331   3.116   8.380   4.574 -0.5866  0.0000  0.3938
22775SOL    HW170332   3.212   8.371   4.576 -0.2488  2.1746 -1.9358
22775SOL    HW270333   3.093   8.405   4.663  1.1512  0.4387  0.7579
22776SOL     OW70334  10.679   4.872   1.464 -0.0481  0.0311 -0.1008
22776SOL    HW170335  10.672   4.967   1.466 -1.1466  0.0244 -1.6797
22776SOL    HW270336  10.611   4.844   1.403  0.6932 -1.7297 -0.1948
22777SOL     OW70337   0.263   9.391  11.107 -0.2221 -0.0259 -0.6296
22777SOL    HW170338   0.335   9.426  11.055 -0.4493  0.8238 -0.3918
22777SOL    HW270339   0.218   9.331  11.048  0.7777 -0.7131 -0.7244
22778SOL     OW70340   5.832   2.932   6.900 -0.4523 -1.0960  0.3530
22778SOL    HW170341   5.833   2.842   6.932 -0.1172 -0.6721  1.6045
22778SOL    HW270342   5.924   2.957   6.894 -0.5509 -0.2159  1.9335
22779SOL     OW70343   6.149   0.567   9.695 -0.3931  0.7998 -0.2475
22779SOL    HW170344   6.059   0.587   9.666  0.3719  1.8346 -2.0996
22779SOL    HW270345   6.196   0.649   9.684  1.4999 -0.4532 -2.3266
22780SOL     OW70346   3.448   0.963  10.550  0.6855 -0.2299  1.1334
22780SOL    HW170347   3.493   1.047  10.553 -1.6283  1.1130  0.0824
22780SOL    HW270348   3.395   0.960  10.629 -0.1075 -0.1717  0.6152
22781SOL     OW70349   0.478   8.989   4.592  0.9888 -0.2909  0.0342
22781SOL    HW170350   0.545   9.044   4.633  0.6863 -0.6796  1.0842
22781SOL    HW270351   0.521   8.952   4.515  1.3749  0.9599 -0.3696
22782SOL     OW70352   0.028   7.051   9.792 -0.2367 -0.2103  0.2358
22782SOL    HW170353  -0.003   6.974   9.744  1.7451 -1.4012  0.7677
22782SOL    HW270354  -0.052   7.090   9.828 -1.5789 -0.4576 -2.1975
22783SOL     OW70355   4.027   5.803   9.515  0.8796  0.1972  0.0671
22783SOL    HW170356   4.097   5.827   9.576 -0.6263  0.2305  1.8847
22783SOL    HW270357   3.981   5.731   9.559 -0.4535  0.4416 -0.8646
22784SOL     OW70358   0.937   7.016   8.652  0.0454 -0.6157 -0.2063
22784SOL    HW170359   0.919   7.084   8.588 -2.4523  0.2648  1.3047
22784SOL    HW270360   0.870   6.949   8.635 -1.1498 -0.0224  1.8640
22785SOL     OW70361   6.794   5.162   6.428 -0.3743  0.6842  0.2838
22785SOL    HW170362   6.833   5.166   6.515  0.8994 -2.9741  0.0461
22785SOL    HW270363   6.776   5.069   6.414 -1.5341  1.2647 -2.9624
22786SOL     OW70364   9.524   4.962   2.597  0.0854  0.5279  0.1540
22786SOL    HW170365   9.535   4.889   2.536 -1.1794  0.7472 -0.3587
22786SOL    HW270366   9.608   5.008   2.595 -0.1879  1.0102 -2.0590
22787SOL     OW70367   5.487   0.704   7.960 -0.3688  0.3791 -0.1388
22787SOL    HW170368   5.402   0.697   7.917  0.1205 -2.8203 -0.8769
22787SOL    HW270369   5.541   0.752   7.898 -1.6954  3.0085  0.6073
22788SOL     OW70370   1.240   8.250   1.916 -0.5034 -0.3255 -0.3851
22788SOL    HW170371   1.158   8.228   1.871 -0.6776 -2.7443  0.9441
22788SOL    HW270372   1.271   8.167   1.951  1.2517  0.9328  1.2511
22789SOL     OW70373   8.530   2.434   7.600  0.2565 -0.4290 -0.3805
22789SOL    HW170374   8.605   2.458   7.547 -0.6156 -0.3231 -1.6207
22789SOL    HW270375   8.558   2.449   7.691  1.4236  0.4067 -0.8568
22790SOL     OW70376   5.004   9.093   1.420 -0.7818 -0.5012 -0.1369
22790SOL    HW170377   4.923   9.043   1.432 -0.7634 -0.6819 -0.7227
22790SOL    HW270378   5.067   9.051   1.479 -1.1665 -0.2334  0.4709
22791SOL     OW70379   5.302   3.112   8.765  0.1702  0.2922  0.5374
22791SOL    HW170380   5.374   3.130   8.826  1.8404  1.5207 -1.6553
22791SOL    HW270381   5.301   3.017   8.756  1.3494  0.2373  0.8358
22792SOL     OW70382   0.320   0.657   5.066 -0.4985 -0.2132 -0.0198
22792SOL    HW170383   0.379   0.631   5.137 -0.0495  0.9280  0.0492
22792SOL    HW270384   0.378   0.684   4.996 -0.9458 -0.4234 -0.4735
22793SOL     OW70385  11.257   4.748   2.315  0.0155  0.6591  0.2986
22793SOL    HW170386  11.213   4.696   2.382 -0.7480  1.4416  0.4135
22793SOL    HW270387  11.349   4.749   2.343 -0.7132  3.6468  3.2023
22794SOL     OW70388   6.884   2.081   7.611  0.1681  0.2828  0.5140
22794SOL    HW170389   6.879   2.077   7.707 -2.1635 -3.9582  0.4527
22794SOL    HW270390   6.955   2.021   7.589 -0.7164 -0.4312 -0.4398
22795SOL     OW70391  11.042   6.278   1.550  0.6422 -0.0368 -0.0439
22795SOL    HW170392  11.093   6.348   1.510 -0.2570  0.9469  0.4741
22795SOL    HW270393  11.104   6.206   1.561  1.3791  0.3574 -1.3766
22796SOL     OW70394   3.190   5.500   9.248  0.0841 -0.2977  0.1729
22796SOL    HW170395   3.097   5.498   9.272 -0.0656  0.0205 -0.3729
22796SOL    HW270396   3.230   5.430   9.300 -0.5842 -0.9118 -0.1341
22797SOL     OW70397   2.254   3.824   4.381 -0.1076  0.0268  0.0485
22797SOL    HW170398   2.326   3.826   4.444 -0.7269  0.4476  0.7621
22797SOL    HW270399   2.295   3.844   4.297  0.3908  1.8498  0.6714
22798SOL     OW70400   8.156   4.256   7.939  0.1379  0.0456  0.2285
22798SOL    HW170401   8.094   4.231   8.007 -1.6079  3.8946  0.3133
22798SOL    HW270402   8.241   4.256   7.983 -0.4272 -1.0105  1.3717
22799SOL     OW70403   8.256   3.833   4.061 -0.3484 -0.0529  0.2056
22799SOL    HW170404   8.203   3.801   3.989  1.3145  0.6243 -1.3998
22799SOL    HW270405   8.236   3.926   4.066 -1.3432 -0.3060  1.4581
22800SOL     OW70406   1.647   4.853  10.126 -0.0543  0.7460 -0.0013
22800SOL    HW170407   1.556   4.881  10.122  0.1446  1.9722  2.2387
22800SOL    HW270408   1.642   4.760  10.149 -0.7866  1.1225  1.5153
22801SOL     OW70409   1.715   5.036   9.690  0.0806  0.2158  0.4721
22801SOL    HW170410   1.680   5.118   9.655  1.8917  0.9793  0.3881
22801SOL    HW270411   1.728   5.053   9.784  0.9221  0.2003  0.3635
22802SOL     OW70412   3.962   1.328   0.413  0.5448  0.2221 -0.1039
22802SOL    HW170413   3.946   1.324   0.319 -0.1950  1.8288 -0.0871
22802SOL    HW270414   4.052   1.359   0.421  0.3056  0.9959 -0.3092
22803SOL     OW70415   8.945  10.311   7.020  0.1870  0.3793 -0.0375
22803SOL    HW170416   8.949  10.222   6.984 -0.1658  0.2895  0.1350
22803SOL    HW270417   8.865  10.311   7.074  1.6009 -0.0333  2.1976
22804SOL     OW70418   8.227   4.660   8.830  0.6254  0.9708  0.3276
22804SOL    HW170419   8.206   4.692   8.743  0.9236 -1.8854 -0.9055
22804SOL    HW270420   8.143   4.638   8.869  0.5426  1.6085  0.5287
22805SOL     OW70421   1.186   9.458   8.444 -0.5368  0.2037 -0.1121
22805SOL    HW170422   1.122   9.527   8.458 -2.0095 -1.1143 -0.0906
22805SOL    HW270423   1.138   9.376   8.460  0.1476 -1.0457 -3.5318
22806SOL     OW70424  10.506  10.592   3.528 -0.0491 -0.2098  0.1646
22806SOL    HW170425  10.532  10.667   3.582 -0.5276  0.4483 -0.5095
22806SOL    HW270426  10.584  10.574   3.475  0.4772 -0.9545  1.1530
22807SOL     OW70427   2.526   2.233   0.288  0.3161 -0.4316  0.2614
22807SOL    HW170428   2.486   2.268   0.209  0.8451  0.0147  0.1873
22807SOL    HW270429   2.453   2.197   0.338 -0.0761 -0.3169 -0.2245
22808SOL     OW70430   6.880   7.001   2.234  0.1701 -0.0612 -0.2458
22808SOL    HW170431   6.952   7.037   2.183  1.7917 -0.7822  1.4211
22808SOL    HW270432   6.831   7.077   2.264  2.8929  0.8683  2.3071
22809SOL     OW70433   7.377   5.854  10.817  0.2146  0.7930 -0.7879
22809SOL    HW170434   7.300   5.907  10.794 -0.6974 -0.5292 -0.9150
22809SOL    HW270435   7.408   5.891  10.900 -2.4022 -0.4637  0.8860
22810SOL     OW70436   6.091   8.833   2.881 -0.1342  0.9855  0.2542
22810SOL    HW170437   6.165   8.877   2.923  0.6668  3.5384 -3.3797
22810SOL    HW270438   6.131   8.758   2.836 -0.0651  1.2568 -0.1430
22811SOL     OW70439   1.670   7.680   7.869  0.0520 -0.2913  0.9422
22811SOL    HW170440   1.648   7.695   7.777 -1.8369 -1.2648  1.1730
22811SOL    HW270441   1.597   7.720   7.917  0.4278 -0.7898  1.9578
22812SOL     OW70442   3.526   4.495   8.496  0.0878 -0.8298  0.1802
22812SOL    HW170443   3.571   4.579   8.507  0.0921 -0.8427  0.2600
22812SOL    HW270444   3.596   4.434   8.472  0.1261 -0.8662  0.3825
22813SOL     OW70445   3.836  10.188   3.411 -0.7124  0.4068  0.0638
22813SOL    HW170446   3.859  10.280   3.400  0.6324 -0.1759 -3.4482
22813SOL    HW270447   3.775  10.169   3.340 -1.3723 -1.3224  1.0154
22814SOL     OW70448   6.315  10.050   5.862 -0.6878 -0.2436  0.6304
22814SOL    HW170449   6.398  10.088   5.833  0.8656 -3.2831  0.7402
22814SOL    HW270450   6.253  10.073   5.793  0.0558  2.4488  0.7391
22815SOL     OW70451   3.895   7.656   2.008 -0.1565 -0.5751  0.1082
22815SOL    HW170452   3.978   7.702   1.991  1.4282 -3.1303  0.3147
22815SOL    HW270453   3.883   7.600   1.932 -2.2177  0.3281 -0.2949
22816SOL     OW70454   8.419   2.028   2.369  0.1077  1.1683  0.4654
22816SOL    HW170455   8.468   1.989   2.296 -0.9813  0.7214 -0.0457
22816SOL    HW270456   8.462   1.993   2.447  0.1979  0.2526  0.0248
22817SOL     OW70457   8.399   8.017   7.048  0.4311 -0.3829  0.0988
22817SOL    HW170458   8.337   8.017   7.121 -1.3461 -1.9438 -1.3113
22817SOL    HW270459   8.405   7.925   7.022  3.4397 -0.3132  0.1875
22818SOL     OW70460   2.494   9.294   0.212  0.5675  0.3239 -0.7548
22818SOL    HW170461   2.490   9.247   0.295  1.0341  3.2335  1.0493
22818SOL    HW270462   2.409   9.277   0.171 -1.2820  1.7775  2.1379
22819SOL     OW70463   1.597   7.277   2.168  0.4394 -0.5852  0.3151
22819SOL    HW170464   1.525   7.244   2.115 -0.9803  0.8815  1.2501
22819SOL    HW270465   1.620   7.204   2.226 -0.1677 -1.1314 -0.1212
22820SOL     OW70466   6.791  10.777   3.120  0.7015  0.1727  0.1589
22820SOL    HW170467   6.824  10.690   3.098  1.6334  0.8719 -1.3716
22820SOL    HW270468   6.706  10.783   3.076  0.3211 -0.1925  0.8286
22821SOL     OW70469   7.803   7.732   2.513 -0.2098 -0.0528  0.3062
22821SOL    HW170470   7.849   7.796   2.459  0.9665 -0.7780  0.4155
22821SOL    HW270471   7.745   7.687   2.452  1.3022 -1.0484 -0.4547
22822SOL     OW70472   4.407   1.542   8.715  0.5975  0.0424  0.0419
22822SOL    HW170473   4.394   1.626   8.759  2.9181  1.8475 -2.3125
22822SOL    HW270474   4.463   1.493   8.775 -1.7659 -0.4599  2.0068
22823SOL     OW70475  10.120   8.750   7.563  0.2768  0.0459 -0.7630
22823SOL    HW170476  10.113   8.703   7.647 -1.8639 -0.9036 -1.3875
22823SOL    HW270477  10.143   8.839   7.588  1.3509 -0.5839  0.6962
22824SOL     OW70478   3.266   0.493   8.601 -0.3016  0.0652 -0.4425
22824SOL    HW170479   3.263   0.489   8.505  1.5502 -0.5819 -0.5211
22824SOL    HW270480   3.350   0.452   8.624 -0.2557  1.0752  1.4024
22825SOL     OW70481   5.464   9.259   0.765  0.1621 -0.0395 -0.7463
22825SOL    HW170482   5.518   9.316   0.710  1.4217 -0.6218 -0.1624
22825SOL    HW270483   5.384   9.310   0.781  1.3024  1.6450 -0.1176
22826SOL     OW70484   5.323  10.408   8.946  0.1078 -0.3826 -0.0329
22826SOL    HW170485   5.397  10.451   8.905 -1.1414 -0.9831 -3.2475
22826SOL    HW270486   5.337  10.315   8.928 -0.8852 -0.5983  0.2490
22827SOL     OW70487   9.813   8.836  10.305 -0.1446 -0.3041  0.1542
22827SOL    HW170488   9.821   8.931  10.303  0.4277 -0.3354 -2.5959
22827SOL    HW270489   9.902   8.803  10.309 -0.2493 -0.7016 -0.5319
22828SOL     OW70490   1.288  10.663   6.897  0.3930 -0.1303  0.3983
22828SOL    HW170491   1.308  10.755   6.883  0.0354 -0.1974 -0.6242
22828SOL    HW270492   1.372  10.624   6.923  1.4143 -0.1835 -2.6700
22829SOL     OW70493   3.618   9.620   7.930  0.3612 -0.0780 -0.2336
22829SOL    HW170494   3.530   9.591   7.907 -0.9063  2.0455  1.5693
22829SOL    HW270495   3.620   9.713   7.906  1.5535  0.2984  1.1863
22830SOL     OW70496   4.793   1.447   9.170  0.7944 -0.2824  0.0800
22830SOL    HW170497   4.826   1.390   9.101 -2.0981  1.0718 -2.6549
22830SOL    HW270498   4.760   1.387   9.237  0.9953 -1.7054 -1.0486
22831SOL     OW70499   5.510  10.615   6.300 -0.1941  0.5095 -0.1980
22831SOL    HW170500   5.598  10.647   6.282  0.8540 -1.3764  1.2182
22831SOL    HW270501   5.458  10.645   6.225  1.6623  1.5495 -1.1441
22832SOL     OW70502   1.798   8.764  10.958 -0.2034  0.6547  0.6248
22832SOL    HW170503   1.729   8.748  11.023 -0.0252  0.3140  0.7336
22832SOL    HW270504   1.753   8.809  10.887 -0.8030 -0.5563  0.1993
22833SOL     OW70505  10.804   9.490   2.603  0.1324  0.4640 -0.0792
22833SOL    HW170506  10.746   9.452   2.668  1.7126  0.8844  1.6841
22833SOL    HW270507  10.892   9.468   2.634  0.9530 -0.6788 -2.9566
22834SOL     OW70508  11.099   1.233   7.312 -0.3005  0.1261 -0.0393
22834SOL    HW170509  11.115   1.146   7.349 -1.5163  0.5882  1.7109
22834SOL    HW270510  11.049   1.216   7.233 -0.2652 -0.7922  0.1245
22835SOL     OW70511  10.405   6.789   6.592 -0.1154  0.6345  0.7649
22835SOL    HW170512  10.310   6.803   6.599 -0.6732 -1.0965 -1.8799
22835SOL    HW270513  10.434   6.854   6.528  0.3363  0.5701  0.9023
22836SOL     OW70514   1.330   1.616   5.862 -0.9740  0.5940 -0.1542
22836SOL    HW170515   1.249   1.655   5.829  0.4933  1.1340 -3.4825
22836SOL    HW270516   1.386   1.691   5.883 -0.5671  0.2349  0.0647
22837SOL     OW70517   9.617   5.251   0.941 -0.8182 -0.4459  0.0801
22837SOL    HW170518   9.640   5.284   0.854 -0.0007 -0.2080  0.3724
22837SOL    HW270519   9.530   5.213   0.930 -0.5005 -0.9058 -0.9658
22838SOL     OW70520   2.095   6.135   7.643 -0.1618 -0.4995  0.4329
22838SOL    HW170521   2.014   6.153   7.690  0.1230  0.3874  0.6005
22838SOL    HW270522   2.072   6.066   7.580 -1.4136  0.7823 -0.5509
22839SOL     OW70523  10.213  10.751   4.861 -0.5302  0.4704 -0.8287
22839SOL    HW170524  10.181  10.750   4.951  1.3246  0.6059 -0.1172
22839SOL    HW270525  10.259  10.668   4.851 -3.6289 -1.1779 -2.8711
22840SOL     OW70526   9.818   0.187   9.189 -0.4059  0.1167  0.5064
22840SOL    HW170527   9.821   0.281   9.209 -0.5606  0.2094  0.0995
22840SOL    HW270528   9.855   0.145   9.267 -0.1360  0.5261  0.6025
22841SOL     OW70529   4.657  10.783   9.899 -0.0417  0.5026  0.1129
22841SOL    HW170530   4.652  10.846   9.827  0.1753  0.1042 -0.2573
22841SOL    HW270531   4.744  10.796   9.936  0.2075  0.0528 -0.3076
22842SOL     OW70532   0.108   5.893   6.222  0.1447  0.5536  0.3448
22842SOL    HW170533   0.115   5.832   6.149 -1.5581  0.8430 -0.0953
22842SOL    HW270534   0.159   5.970   6.195 -0.2987  0.5716 -0.4454
22843SOL     OW70535   3.486   8.640  10.809  0.4733  0.1471 -0.3694
22843SOL    HW170536   3.400   8.678  10.825  0.4650  0.1067 -0.3167
22843SOL    HW270537   3.527   8.699  10.747  0.6221  0.4663  0.0336
22844SOL     OW70538   8.410   9.058   5.852  0.8812  0.7738  0.1012
22844SOL    HW170539   8.332   9.075   5.905  0.3681 -0.1596 -0.3312
22844SOL    HW270540   8.409   9.126   5.784 -0.7309 -0.4441 -1.1681
22845SOL     OW70541  10.582   9.887   7.593 -0.0096  0.2372 -0.0996
22845SOL    HW170542  10.525   9.814   7.571  1.1465 -0.5274 -0.6382
22845SOL    HW270543  10.661   9.873   7.541  1.1729  0.5924  1.5233
22846SOL     OW70544   8.741   4.567  10.185  0.4804  0.0872  0.0741
22846SOL    HW170545   8.711   4.656  10.168  0.6177  0.0398 -0.4155
22846SOL    HW270546   8.805   4.576  10.256  1.3780  0.5309 -0.7664
22847SOL     OW70547   0.317  11.094   6.038 -0.5355  0.3834 -0.0134
22847SOL    HW170548   0.333  11.188   6.043 -0.3819  0.3573  0.0270
22847SOL    HW270549   0.363  11.058   6.115 -0.1145  0.2177 -0.3353
22848SOL     OW70550   2.985   0.400   5.298  0.0284 -0.1592  0.2030
22848SOL    HW170551   2.981   0.488   5.336 -0.2943 -0.3357  0.5807
22848SOL    HW270552   3.079   0.384   5.286  0.0309  0.8940 -1.4184
22849SOL     OW70553   4.332   7.182   7.990  0.5289 -1.0632  0.3564
22849SOL    HW170554   4.339   7.087   8.002 -2.1081 -1.1959  1.3612
22849SOL    HW270555   4.365   7.197   7.902 -1.3560 -3.3039 -0.8564
22850SOL     OW70556   3.369   3.606  11.084  0.0515  0.2791  0.4063
22850SOL    HW170557   3.399   3.516  11.068  0.8013  0.7893 -1.2489
22850SOL    HW270558   3.275   3.597  11.104 -0.3096 -0.7452 -1.5258
22851SOL     OW70559   6.044   1.546   0.540  0.7825 -0.4443 -0.1406
22851SOL    HW170560   5.967   1.561   0.595  0.2376 -0.3515 -0.9285
22851SOL    HW270561   6.115   1.589   0.588  0.2773 -0.1911  0.3983
22852SOL     OW70562   4.287   0.633  10.187 -0.4133 -0.0142  0.2222
22852SOL    HW170563   4.232   0.562  10.221 -4.2872  3.5639  2.3439
22852SOL    HW270564   4.297   0.612  10.094 -1.5587 -3.1425  0.6595
22853SOL     OW70565   1.903   1.746  10.085  0.1256  0.6770  0.2679
22853SOL    HW170566   1.898   1.779   9.995 -0.1089  2.9653  1.0627
22853SOL    HW270567   1.994   1.759  10.111 -0.1665  1.5933  0.8877
22854SOL     OW70568   0.476   4.647   4.507 -0.1560  0.0002 -0.0498
22854SOL    HW170569   0.409   4.632   4.574 -0.3053 -1.4567 -0.4959
22854SOL    HW270570   0.552   4.680   4.556 -1.5718  3.1359  0.3038
22855SOL     OW70571   9.479   2.151   9.038 -0.0654  0.8258 -0.6071
22855SOL    HW170572   9.481   2.057   9.053  2.5453  1.0255  0.7905
22855SOL    HW270573   9.392   2.167   9.000 -1.0301 -1.9476  0.1812
22856SOL     OW70574   0.318   8.305   7.059 -0.3226 -0.4306  0.2816
22856SOL    HW170575   0.298   8.356   6.980  0.2576 -0.3665  0.1658
22856SOL    HW270576   0.236   8.301   7.107 -0.8578 -1.0554 -0.6567
22857SOL     OW70577   5.427   6.587   4.132 -0.1628  0.1001 -0.0320
22857SOL    HW170578   5.470   6.672   4.124  1.5637 -0.7742 -0.7072
22857SOL    HW270579   5.364   6.584   4.060  0.9387  0.1935 -1.0284
22858SOL     OW70580   5.493   5.557   9.582  0.9592 -0.1731 -0.3188
22858SOL    HW170581   5.449   5.556   9.667  0.3071 -0.5737 -0.6613
22858SOL    HW270582   5.557   5.486   9.587  1.1651  0.0310 -0.0363
22859SOL     OW70583   2.814   3.662   2.807  0.3391  0.1377 -0.1221
22859SOL    HW170584   2.892   3.661   2.862  0.3449  1.2629 -0.0883
22859SOL    HW270585   2.742   3.647   2.868  0.3756  1.0355  0.1565
22860SOL     OW70586   5.659   5.031   0.879 -0.2452 -0.4912  0.0850
22860SOL    HW170587   5.749   5.029   0.910  0.3079 -0.6479 -1.4636
22860SOL    HW270588   5.660   4.983   0.796 -1.4460  0.7492 -0.7052
22861SOL     OW70589   9.489   3.588   3.278 -0.3260 -0.2008  0.3194
22861SOL    HW170590   9.486   3.683   3.279 -1.3012 -0.1805 -1.3336
22861SOL    HW270591   9.398   3.561   3.293 -0.4794 -0.7992 -1.4966
22862SOL     OW70592   2.802   7.809   6.183 -0.8202  0.3797  0.3222
22862SOL    HW170593   2.823   7.902   6.179  0.3650  0.1320  0.2928
22862SOL    HW270594   2.888   7.765   6.184 -1.3543 -0.7183 -0.0125
22863SOL     OW70595  10.536   7.010   7.455 -0.0537  0.4166 -0.1849
22863SOL    HW170596  10.567   7.073   7.390 -0.5070  1.6149  0.7322
22863SOL    HW270597  10.504   6.936   7.403  0.0031  1.1584 -1.3066
22864SOL     OW70598   0.082   0.261   9.745 -0.2761 -0.3333 -0.4059
22864SOL    HW170599   0.046   0.179   9.776 -0.3088 -1.0744 -2.2888
22864SOL    HW270600   0.149   0.236   9.681 -0.3132  1.0823 -1.0544
22865SOL     OW70601   2.230   9.704   2.069 -0.0369 -0.1984  0.1144
22865SOL    HW170602   2.210   9.764   2.141 -1.2630 -1.3564  0.7647
22865SOL    HW270603   2.216   9.617   2.105  1.3174 -0.8965 -0.9428
22866SOL     OW70604  10.924   0.803   9.004  0.0448  0.2411  0.6210
22866SOL    HW170605  11.008   0.808   9.051 -0.2289 -0.2612  1.1827
22866SOL    HW270606  10.863   0.767   9.069 -0.6412  0.7316  0.2571
22867SOL     OW70607   0.899   5.666  10.480  0.4094 -0.4936  0.3425
22867SOL    HW170608   0.883   5.729  10.409  2.9618  0.7098  0.7080
22867SOL    HW270609   0.927   5.587  10.434  2.4741  0.4111 -0.0751
22868SOL     OW70610   3.584   8.494   2.803 -0.2604 -0.1759 -0.4242
22868SOL    HW170611   3.490   8.511   2.805 -0.4752 -1.3268  0.2558
22868SOL    HW270612   3.593   8.402   2.825  1.0333 -0.0968 -0.4956
22869SOL     OW70613   7.094   8.066   7.794  0.3024  0.4213  0.4974
22869SOL    HW170614   7.094   8.025   7.880  2.8926  0.5088  0.6160
22869SOL    HW270615   7.185   8.061   7.765 -0.5579  0.0464 -2.4290
22870SOL     OW70616   5.384   1.814   7.698 -0.2726 -0.3524 -0.0705
22870SOL    HW170617   5.420   1.729   7.672 -0.9649 -0.9201  0.7789
22870SOL    HW270618   5.302   1.821   7.650  0.0590  0.1002 -0.5777
22871SOL     OW70619  10.047   6.992   3.868  0.3303  0.3670 -0.4932
22871SOL    HW170620  10.066   6.899   3.878  1.7044  0.6226 -0.6106
22871SOL    HW270621  10.133   7.034   3.862 -0.1433  1.9150  1.9199
22872SOL     OW70622   4.089   0.896   1.296 -0.3682  0.5081 -0.7432
22872SOL    HW170623   4.145   0.876   1.221 -0.4109  0.2961 -0.7167
22872SOL    HW270624   4.015   0.835   1.289 -1.0872  1.3992 -1.3112
22873SOL     OW70625  11.115   3.770   3.285  0.3915  0.4253 -0.2248
22873SOL    HW170626  11.085   3.679   3.289  1.0878  0.1916 -0.1290
22873SOL    HW270627  11.093   3.798   3.196 -0.8793  0.5506  0.1133
22874SOL     OW70628  10.846   2.316   4.405  0.0027  0.4869  0.2117
22874SOL    HW170629  10.915   2.310   4.471  0.9234 -1.1413 -0.8555
22874SOL    HW270630  10.767   2.287   4.451  0.4474  0.2608  0.8434
22875SOL     OW70631   6.773   2.911   0.402  0.1872  0.9800  0.1183
22875SOL    HW170632   6.851   2.898   0.456  0.1988  1.3379  0.1879
22875SOL    HW270633   6.745   2.822   0.379 -0.3977  0.7558  1.5398
22876SOL     OW70634   9.472   4.299   4.058  0.0045 -0.6836  0.3020
22876SOL    HW170635   9.529   4.344   3.995  0.1966 -0.9191  0.3059
22876SOL    HW270636   9.519   4.304   4.141 -0.0410 -0.7684  0.3325
22877SOL     OW70637   7.303   5.350   9.981  0.1160  0.0583 -0.2789
22877SOL    HW170638   7.387   5.373  10.021 -0.5235  0.2809  0.9834
22877SOL    HW270639   7.326   5.312   9.897  1.5897 -1.3094  0.6855
22878SOL     OW70640   5.445   3.741   3.112 -0.0122 -0.3215  0.1462
22878SOL    HW170641   5.484   3.806   3.170  0.2874  1.0198 -1.4867
22878SOL    HW270642   5.520   3.699   3.070 -0.2129  0.8310 -1.4667
22879SOL     OW70643   0.959   5.034   6.722  0.7118 -0.0540  0.2185
22879SOL    HW170644   0.936   5.060   6.811  1.0517  2.7841 -0.4085
22879SOL    HW270645   1.031   5.094   6.699  0.6181 -0.7264 -1.9567
22880SOL     OW70646   3.113   3.309   7.090  0.1324  0.3447  0.2123
22880SOL    HW170647   3.121   3.248   7.017 -0.0998 -3.5789  3.1551
22880SOL    HW270648   3.019   3.313   7.107  0.1669  1.4072  0.2000
22881SOL     OW70649   3.054  10.525   2.920 -0.0887  0.8383  0.0227
22881SOL    HW170650   3.109  10.536   2.998  1.7416 -3.6899 -0.2584
22881SOL    HW270651   3.093  10.583   2.855 -0.1317  2.9011  1.7243
22882SOL     OW70652   6.128   0.931  10.000 -0.1989 -0.0880  0.0078
22882SOL    HW170653   6.205   0.987   9.987 -0.1125 -0.3131 -0.4827
22882SOL    HW270654   6.142   0.856   9.942 -1.2603  0.3609 -0.8762
22883SOL     OW70655  11.279   1.068   1.933  0.0085 -0.9509 -0.2050
22883SOL    HW170656  11.226   1.141   1.902 -1.2549 -2.2043 -1.1346
22883SOL    HW270657  11.364   1.081   1.892 -0.9110 -1.2589 -2.3232
22884SOL     OW70658   8.574  10.604   7.347  0.8710  0.3820 -0.1964
22884SOL    HW170659   8.600  10.638   7.262 -0.4968  0.9141 -0.4299
22884SOL    HW270660   8.559  10.682   7.401  1.7956  0.0508  0.5598
22885SOL     OW70661   4.374  10.241   7.691 -0.1624 -0.2123  0.4608
22885SOL    HW170662   4.396  10.197   7.773  2.8141 -0.8732 -0.5554
22885SOL    HW270663   4.365  10.170   7.627 -1.4861  0.3521 -0.0304
22886SOL     OW70664   3.938   0.243   5.784 -0.0050  0.0892  0.3689
22886SOL    HW170665   3.968   0.241   5.693 -0.1534 -0.4665  0.3274
22886SOL    HW270666   3.857   0.191   5.783  0.2273 -0.2928  0.8990
22887SOL     OW70667  10.178   4.146   9.362  0.1661  0.0014  0.7769
22887SOL    HW170668  10.119   4.171   9.433  0.9425 -0.8908  1.7850
22887SOL    HW270669  10.146   4.060   9.334 -0.1966  0.3971 -0.0248
22888SOL     OW70670  10.319   5.868  10.881 -0.4664 -0.6129  0.1396
22888SOL    HW170671  10.305   5.917  10.800  0.5749  1.2702  1.0213
22888SOL    HW270672  10.366   5.789  10.855 -0.2883 -0.1107 -1.1070
22889SOL     OW70673   0.292   8.379   0.960 -0.3873 -0.6502 -0.2791
22889SOL    HW170674   0.285   8.386   1.055  0.9406 -0.8865 -0.1521
22889SOL    HW270675   0.251   8.459   0.928  0.2216  0.0103  0.5399
22890SOL     OW70676   9.002   8.689   6.538  0.5053  0.0161 -0.3496
22890SOL    HW170677   8.916   8.659   6.566 -0.4390  0.6262 -2.3718
22890SOL    HW270678   9.052   8.698   6.619 -1.5682  0.4129  0.9763
22891SOL     OW70679   3.317   7.092  10.410  0.4211 -0.0213 -0.4051
22891SOL    HW170680   3.377   7.149  10.362  1.9890  0.2329  1.7376
22891SOL    HW270681   3.350   7.003  10.393  0.6718  0.0293 -0.1727
22892SOL     OW70682   2.857  10.913   4.445  0.1341  0.6786 -0.2951
22892SOL    HW170683   2.779  10.957   4.412  0.3029  1.5685  0.4345
22892SOL    HW270684   2.888  10.860   4.372 -1.6618 -0.4064 -0.3193
22893SOL     OW70685   4.148   2.970   2.689 -0.3146 -0.1234 -0.1553
22893SOL    HW170686   4.065   2.922   2.683 -1.4015  1.6893 -0.1630
22893SOL    HW270687   4.168   2.971   2.782 -1.0664  0.6489  0.0107
22894SOL     OW70688   1.438   9.330   0.629 -0.0915  0.1029 -0.0574
22894SOL    HW170689   1.377   9.404   0.622  0.5677  0.5331 -2.1271
22894SOL    HW270690   1.483   9.328   0.544  2.5068 -0.4534  1.2296
22895SOL     OW70691   0.186  10.722   4.459 -0.5255  0.0679  0.4400
22895SOL    HW170692   0.133  10.672   4.521 -0.9322  0.4374  0.3916
22895SOL    HW270693   0.195  10.808   4.500 -1.7291  0.6672 -0.5194
22896SOL     OW70694   0.213   8.932   7.900 -0.1143 -0.1465  0.1105
22896SOL    HW170695   0.145   8.998   7.915 -0.0106  0.6455 -2.4575
22896SOL    HW270696   0.294   8.974   7.928 -0.2845  0.0755  0.2776
22897SOL     OW70697   3.298   0.848   8.141 -0.9320 -0.3456  0.2067
22897SOL    HW170698   3.363   0.779   8.151 -1.0605 -0.5158 -0.1205
22897SOL    HW270699   3.279   0.850   8.047 -0.2959  0.7185  0.0917
22898SOL     OW70700   5.161   7.151   9.588 -0.4313 -0.2431 -0.5157
22898SOL    HW170701   5.162   7.080   9.652 -1.6388  0.9976  0.9399
22898SOL    HW270702   5.104   7.120   9.518 -0.5820 -0.8689 -0.1221
22899SOL     OW70703   6.975   9.913   7.574 -0.4067  0.0128 -0.1479
22899SOL    HW170704   7.048   9.877   7.624 -3.0562 -1.3105  3.1138
22899SOL    HW270705   6.941   9.838   7.525 -1.7720 -0.3479  1.2902
22900SOL     OW70706   3.163   1.796   5.641 -0.1182  0.2350  0.1793
22900SOL    HW170707   3.126   1.760   5.560 -0.3440 -0.4405  0.5673
22900SOL    HW270708   3.113   1.753   5.710  1.0089 -0.2652  0.7016
22901SOL     OW70709   2.545   7.973  10.851  0.6508 -0.4543 -0.5330
22901SOL    HW170710   2.584   8.060  10.868 -0.8087  0.6879 -2.6182
22901SOL    HW270711   2.468   7.971  10.907  0.3625 -0.1453 -0.9136
22902SOL     OW70712   7.152   7.826   1.686 -0.3208  0.1948  0.3483
22902SOL    HW170713   7.109   7.893   1.740 -1.4283  1.4604 -1.9735
22902SOL    HW270714   7.143   7.745   1.737 -3.4231  0.8624  1.0290
22903SOL     OW70715   1.947   1.861   9.818  0.4761  0.3406 -0.1937
22903SOL    HW170716   2.006   1.797   9.777 -0.2631 -0.7693  0.4417
22903SOL    HW270717   1.874   1.868   9.757  0.9990  1.3399 -0.7354
22904SOL     OW70718   9.948   2.815   5.527  0.0481  0.4980 -0.4218
22904SOL    HW170719   9.878   2.822   5.462 -0.8307 -0.1825  0.4283
22904SOL    HW270720  10.025   2.853   5.484 -1.1004  2.3039 -0.9874
22905SOL     OW70721   0.956   0.923  10.989  0.3256  0.1988  0.0867
22905SOL    HW170722   1.037   0.918  11.039  0.2293  0.4462  0.2688
22905SOL    HW270723   0.926   0.833  10.982  1.2673 -0.0678 -1.0525
22906SOL     OW70724   5.028   3.811   8.507  0.4812  0.1510  0.0864
22906SOL    HW170725   4.997   3.750   8.574  0.6363  0.6976  0.6724
22906SOL    HW270726   4.956   3.818   8.445  1.1358 -2.0355 -1.0220
22907SOL     OW70727   3.486   3.562   6.762 -0.0912 -0.2488 -0.3563
22907SOL    HW170728   3.497   3.537   6.670 -0.2611 -0.0326 -0.4346
22907SOL    HW270729   3.393   3.548   6.780 -0.0508 -0.3268 -0.2049
22908SOL     OW70730   2.364   0.321   1.319  0.1424 -0.1360 -0.3449
22908SOL    HW170731   2.276   0.322   1.283  0.7271  0.0851 -1.8535
22908SOL    HW270732   2.356   0.359   1.407 -1.0561  1.0001 -0.9302
22909SOL     OW70733   2.523   4.574   1.253 -0.1744  0.5228  0.0852
22909SOL    HW170734   2.527   4.492   1.204  1.2206  0.7854 -0.2563
22909SOL    HW270735   2.534   4.643   1.188 -0.9947  0.9945  0.4182
22910SOL     OW70736   9.211   9.191   5.525 -0.1855 -0.9753  0.1401
22910SOL    HW170737   9.161   9.110   5.526  0.4519 -1.3904  2.3632
22910SOL    HW270738   9.147   9.260   5.539 -0.5067 -1.2384 -0.0336
22911SOL     OW70739  10.048   0.693   2.157  0.4725 -0.1642 -0.4596
22911SOL    HW170740  10.100   0.730   2.086 -1.5808  0.3004 -1.8433
22911SOL    HW270741   9.970   0.749   2.161 -0.5850 -1.6143  0.5127
22912SOL     OW70742  10.713   1.594  10.284  0.3769 -0.2289  0.5104
22912SOL    HW170743  10.786   1.625  10.337 -0.3774  0.7037  1.0447
22912SOL    HW270744  10.728   1.500  10.275  0.4719 -0.4532  2.4893
22913SOL     OW70745   8.326  10.487   2.131  0.0385 -0.1046  0.4535
22913SOL    HW170746   8.384  10.431   2.183  1.8582  0.2316 -1.0959
22913SOL    HW270747   8.384  10.554   2.095 -1.2660  0.0793 -1.4236
22914SOL     OW70748   0.333   5.405   0.428  0.0487 -0.8149  0.1348
22914SOL    HW170749   0.297   5.348   0.360 -0.0205 -2.6320  1.6098
22914SOL    HW270750   0.407   5.449   0.386 -0.4265 -1.3438 -1.3075
22915SOL     OW70751   8.948   9.005   2.813  0.0060 -0.0776 -0.3767
22915SOL    HW170752   8.962   8.972   2.725  0.0169 -0.5112 -0.2151
22915SOL    HW270753   9.033   8.997   2.856  0.2247  0.9494 -0.5850
22916SOL     OW70754   7.068   9.637   3.973  0.7382 -0.1603 -0.8634
22916SOL    HW170755   7.020   9.600   4.048  1.2287  0.4195 -0.2427
22916SOL    HW270756   7.050   9.731   3.977  2.4244  0.1848 -0.2031
22917SOL     OW70757   2.242   8.209   2.706  0.1388 -0.1255  0.0177
22917SOL    HW170758   2.201   8.160   2.635 -2.1678 -0.4585  1.4765
22917SOL    HW270759   2.292   8.144   2.755 -0.5786 -0.4503  0.3179
22918SOL     OW70760   6.425   3.141   1.178 -0.2582  0.1173 -0.1645
22918SOL    HW170761   6.516   3.168   1.192 -0.2659 -0.2089  0.5645
22918SOL    HW270762   6.407   3.163   1.086  0.8637 -0.7399 -0.6052
22919SOL     OW70763   2.583   7.435   9.141 -0.1897 -0.1372  0.5593
22919SOL    HW170764   2.626   7.462   9.060 -2.5511  0.1559 -0.6835
22919SOL    HW270765   2.655   7.420   9.202  1.6770 -0.2406 -1.5274
22920SOL     OW70766   1.390   9.564   3.651 -0.3722 -0.3700  0.0545
22920SOL    HW170767   1.459   9.566   3.585 -0.8467  0.5657 -0.4237
22920SOL    HW270768   1.381   9.655   3.679  1.7550 -1.0265  3.4770
22921SOL     OW70769  10.609   4.715   2.844 -0.5597 -0.0265  0.0956
22921SOL    HW170770  10.599   4.680   2.933 -2.0819 -0.2005 -0.1214
22921SOL    HW270771  10.575   4.646   2.787 -1.4636  0.8920 -0.4894
22922SOL     OW70772  10.897   3.774   8.468 -0.2706  0.7857  0.2270
22922SOL    HW170773  10.926   3.864   8.484  1.6119  0.3147 -0.3134
22922SOL    HW270774  10.828   3.783   8.402  0.3057  1.8030 -0.2679
22923SOL     OW70775  11.027   1.581   4.036 -0.2443  0.1364  0.1596
22923SOL    HW170776  11.065   1.498   4.066 -1.7279 -0.2177  1.1357
22923SOL    HW270777  11.041   1.642   4.108  2.0541  1.1989 -1.0648
22924SOL     OW70778   9.771   5.516   7.422 -0.5242  0.4008  0.0844
22924SOL    HW170779   9.865   5.504   7.434 -0.4841 -2.2506 -2.0134
22924SOL    HW270780   9.763   5.554   7.334 -1.4014 -1.2299 -0.5854
22925SOL     OW70781   8.430   9.205   3.636  0.4348  0.2229 -0.8832
22925SOL    HW170782   8.514   9.165   3.612  0.3008 -0.7231  0.1146
22925SOL    HW270783   8.375   9.193   3.558  1.0786  0.4487 -1.3823
22926SOL     OW70784  10.570   0.740   3.282 -0.2478 -0.3170 -0.0541
22926SOL    HW170785  10.564   0.721   3.189 -1.5990 -0.3241  0.0257
22926SOL    HW270786  10.600   0.831   3.286 -2.8630  0.6304 -0.5554
22927SOL     OW70787   6.955   6.036   9.608 -0.6880 -0.3103  0.3502
22927SOL    HW170788   6.965   5.976   9.682  0.3174  0.1815  0.6390
22927SOL    HW270789   6.894   5.992   9.549 -0.6257 -1.2251  0.9460
22928SOL     OW70790   0.436   5.478   5.093  0.5145 -0.0914  0.0484
22928SOL    HW170791   0.391   5.403   5.131  1.5700 -0.6398  0.2531
22928SOL    HW270792   0.365   5.537   5.066 -0.2989 -0.4002  1.3987
22929SOL     OW70793   5.087   8.917   0.543  0.5909 -0.0847  1.1684
22929SOL    HW170794   5.074   8.861   0.619 -0.3750  0.5667  1.5163
22929SOL    HW270795   5.037   8.997   0.564 -1.7596 -0.8045 -1.1259
22930SOL     OW70796   2.139   4.428   8.738  0.8228  0.0383 -0.0687
22930SOL    HW170797   2.075   4.496   8.716  0.0398 -1.0248 -1.1838
22930SOL    HW270798   2.185   4.463   8.815 -0.6185  1.1228  0.3485
22931SOL     OW70799   8.598  10.861   9.833  0.2994 -0.5568 -0.6242
22931SOL    HW170800   8.517  10.906   9.858  0.2577 -0.6158 -0.6525
22931SOL    HW270801   8.569  10.776   9.800  0.0908  0.5858 -3.6793
22932SOL     OW70802   7.773   9.175   3.903  0.3400 -0.9126  0.3285
22932SOL    HW170803   7.706   9.240   3.882  0.1797 -0.3803  2.3075
22932SOL    HW270804   7.741   9.131   3.981  2.0161 -1.0536  0.9784
22933SOL     OW70805   4.263   4.227   8.997 -0.2660  0.8402 -0.0890
22933SOL    HW170806   4.238   4.135   8.990 -1.9989  1.0793  2.0011
22933SOL    HW270807   4.357   4.225   9.014 -0.2864 -0.5212 -0.0512
22934SOL     OW70808   0.935   7.546   1.273 -0.7244 -0.3322 -0.1715
22934SOL    HW170809   0.964   7.498   1.196  3.0118  2.3693 -0.7098
22934SOL    HW270810   0.934   7.481   1.343  0.8698 -1.8653 -1.4876
22935SOL     OW70811   4.936   8.594  11.262 -0.2673  0.1748 -0.4285
22935SOL    HW170812   4.855   8.544  11.257  0.2489 -0.5736 -2.0455
22935SOL    HW270813   4.907   8.685  11.268 -1.2136 -0.1591  0.3141
22936SOL     OW70814   9.020   4.266  10.734  0.3599 -0.2353 -0.8038
22936SOL    HW170815   9.026   4.219  10.818 -1.3651  2.9100  1.2998
22936SOL    HW270816   9.109   4.294  10.716  0.5527  0.3747  0.9121
22937SOL     OW70817   7.259   4.161   5.956  0.5191  0.2412 -0.3309
22937SOL    HW170818   7.343   4.129   5.989 -1.0519 -3.4021  0.7333
22937SOL    HW270819   7.223   4.212   6.029 -0.2530 -2.5167  1.3662
22938SOL     OW70820   7.044  11.269   6.342  0.2158 -0.1518 -0.0731
22938SOL    HW170821   6.974  11.308   6.290  0.3232 -0.6044 -0.5591
22938SOL    HW270822   7.103  11.342   6.361  0.0759  0.0545 -0.4165
22939SOL     OW70823   0.045   8.442  10.904  0.5517 -0.6072 -0.0763
22939SOL    HW170824  -0.006   8.363  10.922  0.6527 -0.4461  0.9338
22939SOL    HW270825   0.075   8.472  10.989  2.7070 -0.9311 -0.6600
22940SOL     OW70826   9.161   6.410   1.591  0.5396 -0.0942 -0.1234
22940SOL    HW170827   9.164   6.398   1.496 -1.4974  0.7594 -0.3545
22940SOL    HW270828   9.083   6.362   1.619  1.1890 -0.4480  1.1574
22941SOL     OW70829  10.544   3.071   9.505  0.8155  0.0672  0.5651
22941SOL    HW170830  10.575   3.083   9.594  0.3529 -1.0726  0.8997
22941SOL    HW270831  10.620   3.037   9.457  0.5995 -1.0095  0.9581
22942SOL     OW70832  10.860   9.610   0.188 -0.5394  0.2356  0.3737
22942SOL    HW170833  10.916   9.616   0.265 -0.3842  0.2441  0.2612
22942SOL    HW270834  10.858   9.698   0.152 -1.2259  0.4028  0.7944
22943SOL     OW70835   8.350   6.243   5.971  0.5733  0.3555  0.0723
22943SOL    HW170836   8.344   6.166   6.027 -0.1655 -0.9592 -1.7477
22943SOL    HW270837   8.442   6.245   5.943  0.8329  0.7523  0.9072
22944SOL     OW70838   6.950   4.580   6.490  0.1828 -0.4657  0.3430
22944SOL    HW170839   6.863   4.608   6.462  0.9693  2.0890  0.1207
22944SOL    HW270840   6.939   4.490   6.519 -2.5877 -0.0985  0.6695
22945SOL     OW70841   3.296   3.649   2.680  0.3458 -0.4102 -0.0692
22945SOL    HW170842   3.367   3.585   2.673  1.1530  0.4716 -0.0981
22945SOL    HW270843   3.315   3.713   2.611 -0.0505  0.2385  0.4153
22946SOL     OW70844   3.501   6.110   9.051  0.0007  0.0007  0.4198
22946SOL    HW170845   3.545   6.154   8.978 -1.4566 -1.0250 -1.1243
22946SOL    HW270846   3.500   6.018   9.026 -1.8727 -0.1609  1.0075
22947SOL     OW70847   3.361  10.814   1.671  0.0492  0.8309  0.0245
22947SOL    HW170848   3.456  10.822   1.679  0.1042 -0.5197  0.9391
22947SOL    HW270849   3.344  10.721   1.683 -1.2449  0.7762 -1.8821
22948SOL     OW70850   2.073   6.661   5.437  0.5022  0.3686 -0.3637
22948SOL    HW170851   2.036   6.633   5.353 -0.0322  0.3573 -0.1270
22948SOL    HW270852   1.999   6.696   5.485  0.1600 -2.4614  1.3415
22949SOL     OW70853   0.723   6.113   4.619  1.2741  0.0709  1.1484
22949SOL    HW170854   0.694   6.082   4.533  2.4510  1.2964  0.2798
22949SOL    HW270855   0.707   6.038   4.677 -0.7335 -0.3511  0.1566
22950SOL     OW70856   2.803   6.010   8.546 -0.2542  0.1545 -0.5579
22950SOL    HW170857   2.874   6.031   8.607  0.4604 -0.5251 -1.1400
22950SOL    HW270858   2.823   6.062   8.468  0.6992 -1.4660 -1.4445
22951SOL     OW70859   9.274   8.994   9.583 -0.4835  0.1671  0.0393
22951SOL    HW170860   9.225   9.074   9.599  0.1399  0.3487  1.1125
22951SOL    HW270861   9.215   8.940   9.530 -1.0327  1.1941 -0.4266
22952SOL     OW70862   6.856   9.021   1.734 -0.9782  0.0486  0.1116
22952SOL    HW170863   6.831   8.943   1.684  0.6297  0.5591 -1.6161
22952SOL    HW270864   6.775   9.052   1.774 -1.3172 -3.9648  3.1729
22953SOL     OW70865   4.098   8.517   5.693  0.2128  0.3832  0.0769
22953SOL    HW170866   4.135   8.492   5.608  1.2884 -0.3371  0.7388
22953SOL    HW270867   4.010   8.481   5.691  0.3927 -0.0495 -0.5473
22954SOL     OW70868   2.943   3.583   3.851  0.9574  0.0031 -0.7086
22954SOL    HW170869   3.027   3.549   3.881  1.9447  1.3350 -1.7869
22954SOL    HW270870   2.928   3.538   3.767  0.3372 -0.5936 -0.2824
22955SOL     OW70871   4.517   9.402   6.960 -0.5090  0.3585 -0.5515
22955SOL    HW170872   4.558   9.368   6.881 -0.1595 -1.4051  0.3293
22955SOL    HW270873   4.426   9.374   6.954 -0.9499  1.8445 -1.1824
22956SOL     OW70874   2.580  10.701  10.421 -0.2018 -0.5537  0.2482
22956SOL    HW170875   2.544  10.703  10.332  2.3969  0.3217 -0.9146
22956SOL    HW270876   2.674  10.687  10.408  0.5673  1.3981  2.7331
22957SOL     OW70877   6.635   0.600   5.911 -0.8559 -0.0193 -0.1179
22957SOL    HW170878   6.636   0.510   5.878  0.7708 -0.0556 -0.0208
22957SOL    HW270879   6.546   0.631   5.891 -1.9047 -2.0521  1.0310
22958SOL     OW70880   9.590  11.279  10.840 -0.4766  0.7258 -0.5395
22958SOL    HW170881   9.557  11.369  10.835 -1.6049  0.4273  0.8736
22958SOL    HW270882   9.512  11.224  10.833  0.0247 -0.0984  0.1437
22959SOL     OW70883   0.359   2.709   2.390  0.0010  0.2946 -0.1903
22959SOL    HW170884   0.307   2.698   2.470  0.8205  0.4395  0.3705
22959SOL    HW270885   0.325   2.642   2.331 -0.0301 -0.4070  0.5910
22960SOL     OW70886   3.525   7.994  10.071  0.5433  0.2284  0.0101
22960SOL    HW170887   3.610   8.021  10.105  0.2642 -0.1001  1.0139
22960SOL    HW270888   3.467   8.068  10.089  0.2858 -0.1319  0.7144
22961SOL     OW70889   9.622  10.870   8.881 -0.0184 -0.4758 -0.6362
22961SOL    HW170890   9.615  10.779   8.852 -0.9223 -1.4471  2.2717
22961SOL    HW270891   9.536  10.890   8.918  0.6018  1.0982  0.0569
22962SOL     OW70892   3.119   4.685   6.583 -0.3504  0.5156  0.4759
22962SOL    HW170893   3.200   4.719   6.543 -0.8863  0.4293 -0.7376
22962SOL    HW270894   3.049   4.734   6.540 -1.0041 -0.3069  0.5844
22963SOL     OW70895   5.684   1.438   5.490  0.1561 -0.8701 -0.1399
22963SOL    HW170896   5.607   1.461   5.542  0.1011  0.2406 -0.6833
22963SOL    HW270897   5.750   1.502   5.515 -0.0973  0.1599 -1.9197
22964SOL     OW70898  10.752   5.984   3.849 -0.0316  0.4725 -0.6387
22964SOL    HW170899  10.722   5.920   3.785  2.5915 -3.9887  2.0466
22964SOL    HW270900  10.674   6.003   3.902 -0.9398 -0.3079 -1.6481
22965SOL     OW70901  10.604   2.728   6.324 -0.4008  0.3090 -0.3121
22965SOL    HW170902  10.520   2.760   6.357  0.5684  2.2059  0.5345
22965SOL    HW270903  10.584   2.647   6.278 -2.8240  1.2488 -1.0403
22966SOL     OW70904   2.041  10.714   6.676  0.4608 -0.0281  0.2740
22966SOL    HW170905   2.046  10.621   6.698  1.0514 -0.0453  0.0681
22966SOL    HW270906   2.072  10.759   6.754  3.1019 -0.1049 -0.6517
22967SOL     OW70907   8.228  10.338   7.792 -0.0784  0.4012  0.2108
22967SOL    HW170908   8.188  10.276   7.731  0.3247 -0.1705  0.5207
22967SOL    HW270909   8.240  10.418   7.741 -1.5211  0.5575  0.0766
22968SOL     OW70910   1.266   1.096   5.079 -0.1414  0.1486 -0.3964
22968SOL    HW170911   1.349   1.099   5.032 -1.9931  1.8881 -3.8914
22968SOL    HW270912   1.250   1.002   5.092  2.1887 -0.2355  0.2317
22969SOL     OW70913   0.453   8.793   3.955 -0.6907  0.4755 -0.6175
22969SOL    HW170914   0.511   8.854   3.909 -1.2154  1.5402  0.0907
22969SOL    HW270915   0.499   8.773   4.036 -1.5153  1.7001  0.1636
22970SOL     OW70916   4.063   7.601  10.443 -0.1892  0.7429 -0.7304
22970SOL    HW170917   3.985   7.645  10.411 -0.6082 -0.7401 -1.8595
22970SOL    HW270918   4.031   7.523  10.488  0.3711  2.7048  3.5263
22971SOL     OW70919   4.969   9.816  11.282  0.0472 -0.3005  0.3161
22971SOL    HW170920   4.933   9.728  11.271  1.3010 -1.0810  2.0367
22971SOL    HW270921   5.051   9.814  11.233  0.2074 -0.1873  0.5778
22972SOL     OW70922   0.725   5.093   7.053  0.3686  0.0102 -0.1446
22972SOL    HW170923   0.659   5.128   7.112 -1.8855 -2.5077 -0.9731
22972SOL    HW270924   0.725   4.999   7.071 -0.9615 -1.0237 -4.4696
22973SOL     OW70925   8.185   2.504   7.320 -0.4393  0.1728  0.2013
22973SOL    HW170926   8.200   2.593   7.288 -2.7464  0.9643  1.0636
22973SOL    HW270927   8.181   2.513   7.415 -2.0577 -0.5571  0.2407
22974SOL     OW70928   4.576   6.777   3.978  0.1374  0.2235  0.0592
22974SOL    HW170929   4.653   6.780   3.922  0.5227  0.4257  0.5911
22974SOL    HW270930   4.543   6.867   3.979 -1.2955 -0.2283 -1.7754
22975SOL     OW70931   3.015   9.025  10.479 -0.3298 -0.4748 -0.3006
22975SOL    HW170932   3.051   9.017  10.390 -3.7629 -1.6722 -1.7623
22975SOL    HW270933   2.967   9.107  10.478  0.3753 -0.0366  0.7943
22976SOL     OW70934   9.499   6.629   2.266 -0.4042  0.5172 -0.1738
22976SOL    HW170935   9.540   6.580   2.196  0.7052 -0.2755  0.9874
22976SOL    HW270936   9.512   6.721   2.243  0.4963  0.2690 -0.6800
22977SOL     OW70937   6.728   5.685   5.072 -0.2489 -0.0029 -0.6914
22977SOL    HW170938   6.811   5.652   5.104 -0.1579 -0.7666 -1.6610
22977SOL    HW270939   6.676   5.700   5.151  0.6204 -0.0055 -0.1071
22978SOL     OW70940  10.076   9.565   8.675 -0.7375 -0.2317 -0.6211
22978SOL    HW170941  10.079   9.586   8.768 -1.6518  1.2410 -0.8999
22978SOL    HW270942   9.997   9.511   8.666 -2.6943  2.5160 -1.0246
22979SOL     OW70943  10.046   8.096   5.787 -0.2163 -0.1721  0.1827
22979SOL    HW170944  10.097   8.017   5.769  1.2049  0.6648  0.3832
22979SOL    HW270945   9.969   8.089   5.731  1.5471 -0.0830 -2.4169
22980SOL     OW70946   3.006   9.364   0.983  0.2806 -0.7961 -0.2631
22980SOL    HW170947   3.087   9.394   0.941 -1.1330  0.0345 -2.6109
22980SOL    HW270948   2.952   9.443   0.989 -0.7067 -1.4993  0.3905
22981SOL     OW70949   1.841   3.254  10.078 -0.1012 -0.4963  0.0907
22981SOL    HW170950   1.872   3.274  10.167 -2.5888 -1.2322  1.1932
22981SOL    HW270951   1.842   3.338  10.033 -0.8772  0.3070  1.5174
22982SOL     OW70952   3.971  11.270   0.201 -0.4444 -0.1307 -0.1408
22982SOL    HW170953   4.016  11.340   0.152 -0.6307  0.9654  1.1849
22982SOL    HW270954   4.023  11.192   0.183 -0.9034  0.0635 -2.6078
22983SOL     OW70955   0.029   1.693   0.444  1.2078  0.3879  0.2294
22983SOL    HW170956   0.097   1.760   0.444  0.6013  1.0221 -0.0170
22983SOL    HW270957   0.065   1.622   0.497  1.4564  1.3287  1.3730
22984SOL     OW70958   0.944   8.739   8.620 -0.3022  0.0438  0.0288
22984SOL    HW170959   1.027   8.730   8.666  0.5891  0.2491 -1.4566
22984SOL    HW270960   0.885   8.780   8.683  1.2814  1.6636  0.5369
22985SOL     OW70961   4.669   9.432   9.854 -0.5865  0.4039  0.4495
22985SOL    HW170962   4.615   9.500   9.896 -1.3430 -1.1404  2.1323
22985SOL    HW270963   4.606   9.380   9.805 -0.2567  0.0233  0.4351
22986SOL     OW70964   9.623   9.283   4.895  0.0722 -0.4456  0.0512
22986SOL    HW170965   9.605   9.214   4.959 -3.5645  0.4654  0.2055
22986SOL    HW270966   9.550   9.278   4.833  0.6115  2.1560 -0.9240
22987SOL     OW70967   3.153   3.103   6.378 -0.0183 -0.9435  0.5760
22987SOL    HW170968   3.195   3.186   6.356 -1.0044 -0.6930 -0.4714
22987SOL    HW270969   3.225   3.047   6.407  0.8293 -0.0947  0.1919
22988SOL     OW70970   3.689   3.248   9.008 -0.5057  0.1721  0.7373
22988SOL    HW170971   3.755   3.190   8.969  0.7520  1.1192  1.3947
22988SOL    HW270972   3.609   3.229   8.958  0.5312 -0.1488 -0.8971
22989SOL     OW70973   4.986   9.807   1.584  0.4448  0.3717  0.2984
22989SOL    HW170974   4.943   9.780   1.665  0.5995 -1.6295 -0.2260
22989SOL    HW270975   4.952   9.746   1.518  1.1246  1.2756 -0.9264
22990SOL     OW70976   3.383   0.508   6.431  0.0913  0.6864 -0.2201
22990SOL    HW170977   3.395   0.603   6.428  1.3537  0.5330 -0.5721
22990SOL    HW270978   3.413   0.483   6.519  0.2139  0.5607 -0.2976
22991SOL     OW70979   0.240  10.438   5.131  0.1913 -0.5819  0.0814
22991SOL    HW170980   0.282  10.366   5.083 -0.2054 -1.0163  0.3768
22991SOL    HW270981   0.165  10.462   5.077  0.7868  0.1692 -0.4272
22992SOL     OW70982   6.565   9.397   0.299 -0.0517 -1.2945 -0.3639
22992SOL    HW170983   6.537   9.423   0.212  1.3959 -1.8224 -1.0219
22992SOL    HW270984   6.633   9.331   0.284 -0.3019 -1.9642  1.1755
22993SOL     OW70985   1.327   4.356   7.582  0.0997  0.4063  0.1201
22993SOL    HW170986   1.277   4.276   7.598 -0.2929  0.5840 -0.1824
22993SOL    HW270987   1.316   4.372   7.488  0.9276  0.3203  0.0001
22994SOL     OW70988  11.031   0.239   5.388 -0.0985  0.0381  0.2624
22994SOL    HW170989  11.092   0.243   5.314 -1.0170  0.4134 -0.5023
22994SOL    HW270990  11.074   0.182   5.451 -0.2941 -2.2323 -1.5125
22995SOL     OW70991  10.333   1.962   3.934 -0.1795 -0.2326 -0.0891
22995SOL    HW170992  10.321   2.057   3.928  2.9069  0.3147  1.0283
22995SOL    HW270993  10.427   1.949   3.928 -0.2986 -3.0313  2.1262
22996SOL     OW70994   7.369   9.888   4.186  0.1334 -0.0269  0.2769
22996SOL    HW170995   7.332   9.924   4.267 -0.4975  3.4105 -1.3512
22996SOL    HW270996   7.343   9.950   4.118  0.4470 -2.8677 -2.6694
22997SOL     OW70997  10.288   1.215   0.501  0.3164  0.2815 -0.7736
22997SOL    HW170998  10.328   1.247   0.582  1.1566 -0.7213 -0.7705
22997SOL    HW270999  10.337   1.135   0.480 -0.1670  0.2963 -2.0435
22998SOL     OW71000   7.016   6.711   1.800 -0.1976 -0.2866 -0.3442
22998SOL    HW171001   7.080   6.664   1.854 -1.8255 -0.0926  1.9280
22998SOL    HW271002   7.051   6.800   1.794  0.3849 -0.5035 -0.2161
22999SOL     OW71003   4.207  10.996   4.541 -0.2704  0.0516 -0.1625
22999SOL    HW171004   4.120  10.986   4.580 -1.4252  0.1399 -2.5604
22999SOL    HW271005   4.192  10.988   4.447  1.6560  4.1200 -1.0418
23000SOL     OW71006  10.946   0.061   2.041  0.1168  0.5721  0.1571
23000SOL    HW171007  10.934  -0.019   1.991 -0.6829  1.2795 -0.8161
23000SOL    HW271008  11.020   0.105   1.999  0.1605  0.6397  0.3014
23001SOL     OW71009   5.056  10.552   3.309  0.4607  0.4821  0.4193
23001SOL    HW171010   5.126  10.601   3.266  0.7453 -0.0363  0.2840
23001SOL    HW271011   5.060  10.465   3.268  0.0879  0.2891  0.7936
23002SOL     OW71012   3.822  10.112   4.488  0.1042 -0.5959 -0.3697
23002SOL    HW171013   3.827  10.125   4.393 -2.9354  1.4150 -0.3972
23002SOL    HW271014   3.902  10.151   4.522  0.7864 -0.4588 -2.0255
23003SOL     OW71015   3.364   7.177   4.443 -0.1761  0.1099  0.5293
23003SOL    HW171016   3.278   7.212   4.421  0.1251  0.4200 -0.1892
23003SOL    HW271017   3.426   7.235   4.398  0.6125  2.0298  3.7319
23004SOL     OW71018   3.902   6.687   2.837 -0.3310 -0.2629 -0.1827
23004SOL    HW171019   3.936   6.769   2.873  2.3646 -1.1642 -0.4642
23004SOL    HW271020   3.878   6.708   2.747 -0.8364  0.4775  0.1152
23005SOL     OW71021   1.799   6.299   6.601 -0.6216 -0.2053  0.0988
23005SOL    HW171022   1.830   6.305   6.511  0.7953  2.9785  0.6228
23005SOL    HW271023   1.710   6.336   6.599 -0.1147  1.0906  0.1099
23006SOL     OW71024   7.511   8.217   8.852  0.0223 -0.8732 -0.7912
23006SOL    HW171025   7.511   8.239   8.945  2.8261  3.3947 -1.5591
23006SOL    HW271026   7.457   8.138   8.847 -2.7006  0.2684  4.0081
23007SOL     OW71027   3.179   4.683  11.088  0.1269  0.3039 -0.0602
23007SOL    HW171028   3.229   4.692  11.007  1.8077  1.2828  1.0203
23007SOL    HW271029   3.232   4.626  11.143  1.3872  3.2191  2.0072
23008SOL     OW71030   9.693   6.119   5.127 -0.9241  0.3767 -0.3925
23008SOL    HW171031   9.721   6.054   5.063  1.9667  2.0804 -1.0305
23008SOL    HW271032   9.652   6.188   5.075  1.2855  1.6886 -0.5227
23009SOL     OW71033   6.169   8.091   9.042  0.0663 -0.1570  0.2677
23009SOL    HW171034   6.134   8.007   9.013  0.9626 -0.3547 -0.2604
23009SOL    HW271035   6.107   8.156   9.006  0.5381 -0.4666 -1.1664
23010SOL     OW71036   6.796   9.447   5.252  0.5011  0.4652  0.4582
23010SOL    HW171037   6.744   9.385   5.201  0.8267  1.7407 -1.5798
23010SOL    HW271038   6.884   9.408   5.256  1.1169  1.3647 -2.1499
23011SOL     OW71039   7.897   1.618  10.271  0.7255 -0.3237 -0.2265
23011SOL    HW171040   7.886   1.711  10.287 -0.2390 -0.0952 -1.9551
23011SOL    HW271041   7.845   1.575  10.340  0.5665  0.4359  0.1321
23012SOL     OW71042   4.992  10.337   1.653 -0.2357 -0.0092 -0.3395
23012SOL    HW171043   5.001  10.364   1.562  0.0375 -1.0707 -0.6337
23012SOL    HW271044   5.081  10.313   1.679 -0.6609 -1.7840 -0.4601
23013SOL     OW71045  10.362   6.976   8.372 -0.5795  0.1117  0.2221
23013SOL    HW171046  10.310   7.048   8.335 -0.6910 -0.8901 -1.6863
23013SOL    HW271047  10.453   7.006   8.366 -0.7045  0.5978  0.6511
23014SOL     OW71048   4.012   0.995  11.037  1.0375 -0.2634 -0.1629
23014SOL    HW171049   4.020   0.988  10.942 -1.7449 -1.1389 -0.4326
23014SOL    HW271050   4.032   1.086  11.057 -0.4299  0.4891 -1.8934
23015SOL     OW71051   9.192   1.329   0.063 -0.2223  0.5240 -0.0975
23015SOL    HW171052   9.167   1.282  -0.016 -3.5879  1.1466  0.4505
23015SOL    HW271053   9.284   1.352   0.049 -0.7630  0.9828 -4.0096
23016SOL     OW71054   1.492  11.162  11.162  0.3757  0.5350  0.5343
23016SOL    HW171055   1.467  11.145  11.253 -1.3658 -2.2060 -0.3174
23016SOL    HW271056   1.569  11.107  11.147  0.0291  0.1590  0.0988
23017SOL     OW71057   5.037   4.497   5.122  0.0505  0.1679  0.0246
23017SOL    HW171058   4.988   4.518   5.042 -2.6323 -2.2903  0.8735
23017SOL    HW271059   5.003   4.558   5.187  0.7523  0.8188 -0.2097
23018SOL     OW71060   7.781   4.773   5.800 -0.3099  0.1098  0.3640
23018SOL    HW171061   7.716   4.714   5.837 -2.6101  0.0968 -3.1359
23018SOL    HW271062   7.838   4.716   5.747 -0.1463  0.5780  0.0219
23019SOL     OW71063   7.702   5.927   3.341 -0.3045 -0.7170 -0.5048
23019SOL    HW171064   7.775   5.946   3.283 -0.1745 -2.3837 -0.9197
23019SOL    HW271065   7.633   5.989   3.314  1.0015  1.0748  0.0940
23020SOL     OW71066   2.726   0.502   1.193 -0.7132  0.4229 -0.2650
23020SOL    HW171067   2.789   0.478   1.125  1.8240 -1.5443  2.5135
23020SOL    HW271068   2.642   0.470   1.160  0.0495  1.0722 -3.1235
23021SOL     OW71069  10.079   3.636   9.508 -0.5431 -0.4376 -0.4949
23021SOL    HW171070  10.139   3.608   9.578 -0.1367  2.3629  0.3719
23021SOL    HW271071  10.110   3.588   9.431  0.9348 -1.3018  0.5723
23022SOL     OW71072   1.426  10.660   3.375  0.4648  0.4004 -0.2674
23022SOL    HW171073   1.505  10.608   3.388  0.5409  0.0387 -1.9723
23022SOL    HW271074   1.454  10.732   3.318  0.0243  1.5191  0.8613
23023SOL     OW71075   8.219   9.910   9.779  0.3443  0.4756 -0.0230
23023SOL    HW171076   8.133   9.941   9.807 -0.0597  1.6257 -2.3222
23023SOL    HW271077   8.281   9.973   9.817 -0.2553  2.5452 -2.2788
23024SOL     OW71078   3.872   3.436   3.100  0.1257  0.2244  0.0996
23024SOL    HW171079   3.920   3.519   3.098 -1.7098  1.4043  1.5603
23024SOL    HW271080   3.898   3.391   3.020  2.5586  1.3838  0.1544
23025SOL     OW71081   6.885   3.952   0.712  0.2840 -0.6507 -0.6618
23025SOL    HW171082   6.956   4.015   0.719 -0.0517 -0.4404  1.1742
23025SOL    HW271083   6.808   4.004   0.690  0.3924 -0.6886 -1.1428
23026SOL     OW71084   7.036   9.078   4.540 -0.3031 -0.1300 -0.3269
23026SOL    HW171085   6.971   9.057   4.473  0.3647 -0.4264 -0.8886
23026SOL    HW271086   7.109   9.018   4.523 -0.6912 -1.2307  1.5558
23027SOL     OW71087   8.031   7.512   8.348  0.2527 -0.2878  0.2396
23027SOL    HW171088   8.068   7.592   8.385 -0.0408 -1.0294  2.2477
23027SOL    HW271089   8.078   7.441   8.391 -1.1969 -1.2231  0.3588
23028SOL     OW71090   0.662   1.143   4.110  0.0066  0.0469 -0.1379
23028SOL    HW171091   0.609   1.109   4.038 -1.6410  0.7621  0.6785
23028SOL    HW271092   0.724   1.204   4.068 -0.5292  0.0067 -1.0092
23029SOL     OW71093   3.942   5.337   3.535 -0.2888  0.2324 -0.3155
23029SOL    HW171094   3.899   5.314   3.617  0.6851  0.4690  0.2722
23029SOL    HW271095   3.883   5.303   3.467 -1.4627  0.6738  0.4563
23030SOL     OW71096   9.933   3.761   0.038  0.4009 -0.1661 -0.0791
23030SOL    HW171097  10.029   3.762   0.048  0.3275  2.8310  1.5722
23030SOL    HW271098   9.905   3.679   0.077  2.2833 -1.3372 -1.0271
23031SOL     OW71099   9.257   4.096   2.122  0.5571  0.2114 -0.5837
23031SOL    HW171100   9.331   4.042   2.152  0.7897  0.0871 -1.3567
23031SOL    HW271101   9.242   4.067   2.032  0.3939  1.1268 -0.8593
23032SOL     OW71102   1.370  10.736   6.533 -0.1141  0.7024 -0.3646
23032SOL    HW171103   1.400  10.741   6.442 -0.2459 -0.7960 -0.5169
23032SOL    HW271104   1.402  10.817   6.573 -0.6958  1.7594 -1.9189
23033SOL     OW71105   3.424   7.786   8.153  0.1340 -0.4669 -0.1716
23033SOL    HW171106   3.513   7.802   8.123  1.1889 -1.0875  2.3170
23033SOL    HW271107   3.399   7.704   8.111  1.2655 -0.9573  0.0634
23034SOL     OW71108  10.019  10.906   5.491 -0.3160 -0.3489 -0.1056
23034SOL    HW171109  10.086  10.844   5.464 -0.3581 -0.7803  0.7324
23034SOL    HW271110  10.059  10.954   5.564 -0.2863  0.6116 -0.7360
23035SOL     OW71111   0.502  10.872   3.798 -0.4269  0.3150 -0.2059
23035SOL    HW171112   0.502  10.942   3.733  0.6076  2.8124  2.2774
23035SOL    HW271113   0.543  10.798   3.752 -0.5310  1.6367 -2.6287
23036SOL     OW71114   4.550   2.423   6.944  0.3470  0.6360 -0.7615
23036SOL    HW171115   4.459   2.398   6.961  0.3618  1.3085  0.3618
23036SOL    HW271116   4.558   2.511   6.980  0.6453  1.8207 -3.5022
23037SOL     OW71117   4.766   4.563   6.568  0.6565 -0.5089 -0.3974
23037SOL    HW171118   4.788   4.477   6.532 -1.6753 -1.0106 -0.8378
23037SOL    HW271119   4.670   4.560   6.579  0.7240  1.3819  1.3153
23038SOL     OW71120   3.842   7.404   1.865 -0.2704 -0.1091 -0.6979
23038SOL    HW171121   3.919   7.403   1.922 -0.4947 -2.2204 -0.3320
23038SOL    HW271122   3.798   7.321   1.883 -0.8576 -0.4530 -3.2765
23039SOL     OW71123   1.146   0.543   9.333 -0.3897 -0.2712  0.4608
23039SOL    HW171124   1.172   0.471   9.275  0.2787  1.2510 -1.2526
23039SOL    HW271125   1.078   0.590   9.284 -1.1502  0.0159  1.7429
23040SOL     OW71126   7.939   7.460   6.339 -0.3647  0.4155 -0.4482
23040SOL    HW171127   7.870   7.410   6.383 -0.5937  0.8048 -0.3610
23040SOL    HW271128   7.927   7.550   6.370 -0.0070  0.5403 -0.6668
23041SOL     OW71129   3.177   2.820  10.156 -0.0702 -0.1969 -0.0424
23041SOL    HW171130   3.111   2.889  10.161  0.2443  0.1501 -0.5293
23041SOL    HW271131   3.134   2.743  10.193  0.0859  0.6228  1.9209
23042SOL     OW71132   1.949   1.474  10.454  0.3301  0.5279 -0.3696
23042SOL    HW171133   1.971   1.386  10.424  1.0553  0.7600 -0.5226
23042SOL    HW271134   1.977   1.477  10.545 -0.4376  0.3430 -0.1152
23043SOL     OW71135   7.129   0.237   4.578  0.6684  0.1664  0.4267
23043SOL    HW171136   7.206   0.192   4.544 -0.0820  0.8558 -2.3851
23043SOL    HW271137   7.120   0.315   4.524 -2.4128 -0.2706  0.1207
23044SOL     OW71138   5.957   9.208  11.150  0.5519  0.0286 -0.9382
23044SOL    HW171139   5.895   9.207  11.224 -1.1337 -0.8554 -2.2893
23044SOL    HW271140   5.999   9.122  11.153  1.6841  0.5880 -0.0859
23045SOL     OW71141   3.396   1.371   4.283 -0.0779 -0.7076  0.1731
23045SOL    HW171142   3.398   1.323   4.199 -1.6915  1.1258 -0.9984
23045SOL    HW271143   3.485   1.404   4.293 -0.0314 -0.3145 -1.2557
23046SOL     OW71144   9.575   2.823   4.507 -0.0457  0.5810  0.5184
23046SOL    HW171145   9.591   2.836   4.414 -1.5085 -2.6350 -0.3238
23046SOL    HW271146   9.642   2.760   4.535 -0.2557  0.7212  1.3833
23047SOL     OW71147   4.339   5.919   2.229 -0.7166  0.0361 -0.1884
23047SOL    HW171148   4.409   5.979   2.203  0.0641 -0.8342 -0.1500
23047SOL    HW271149   4.378   5.832   2.221 -0.5937 -0.3633  3.1897
23048SOL     OW71150   4.842   1.793   2.895  0.4213  0.2998 -1.0630
23048SOL    HW171151   4.821   1.881   2.925  1.0145 -0.0222  0.3741
23048SOL    HW271152   4.828   1.796   2.800  1.0077  2.0902 -1.1272
23049SOL     OW71153   9.052   1.178   5.765 -0.0006 -0.0234  0.1699
23049SOL    HW171154   9.038   1.273   5.758  2.0005  0.2732 -0.3719
23049SOL    HW271155   9.100   1.155   5.686  0.4721 -1.3140  0.8071
23050SOL     OW71156   2.504   2.546   2.129 -0.2052 -0.4310  0.3669
23050SOL    HW171157   2.526   2.455   2.152  0.9907 -0.3706 -0.4317
23050SOL    HW271158   2.549   2.599   2.194  0.0826 -0.3835  0.1336
23051SOL     OW71159   2.058   8.889   7.134  0.1977  0.6012 -0.3527
23051SOL    HW171160   2.076   8.976   7.099  2.2786  0.6866  0.7786
23051SOL    HW271161   2.022   8.905   7.221  2.4219  0.4100  0.6821
23052SOL     OW71162   7.958   1.845   0.575 -0.2324  0.2008  0.1480
23052SOL    HW171163   7.986   1.793   0.650  0.4960 -0.3149 -0.4661
23052SOL    HW271164   7.984   1.935   0.597  1.9367 -0.2385 -0.3693
23053SOL     OW71165   2.460   1.035   0.771 -0.1230 -0.0690 -0.1028
23053SOL    HW171166   2.398   1.028   0.698 -0.1004 -1.9865  0.0138
23053SOL    HW271167   2.463   0.947   0.809  1.0119  0.5194  1.2828
23054SOL     OW71168   5.756   7.386   6.142  0.1799  0.1587 -0.4120
23054SOL    HW171169   5.707   7.453   6.189  2.1869 -0.1012  2.2806
23054SOL    HW271170   5.755   7.415   6.050  0.8430  3.8190  0.5838
23055SOL     OW71171   0.525   2.507   1.537 -0.2246  0.6027 -0.3127
23055SOL    HW171172   0.522   2.598   1.568 -2.3163 -0.0585  1.6893
23055SOL    HW271173   0.436   2.475   1.549 -0.2087 -1.0089 -3.4280
23056SOL     OW71174   7.609   8.759   5.476  0.2707  0.6423 -0.0670
23056SOL    HW171175   7.599   8.727   5.566  2.1503  2.1866  0.7541
23056SOL    HW271176   7.593   8.853   5.482 -0.2803  0.6651 -1.5112
23057SOL     OW71177   1.694  10.785   0.207  0.1296 -0.1753 -0.0634
23057SOL    HW171178   1.774  10.757   0.162 -1.6904 -1.8820 -2.5025
23057SOL    HW271179   1.673  10.870   0.169 -0.2940 -0.6838 -1.0010
23058SOL     OW71180   5.450   4.799   6.667 -0.1624  0.2307 -0.4411
23058SOL    HW171181   5.531   4.848   6.654  0.1149  0.1089  0.7110
23058SOL    HW271182   5.439   4.749   6.586  0.6669  0.6044 -0.7935
23059SOL     OW71183   4.743   8.050   9.782 -0.2452 -0.0846  0.2703
23059SOL    HW171184   4.760   8.079   9.692 -2.0601  0.3916  0.0478
23059SOL    HW271185   4.813   7.987   9.800  2.2017  2.2838 -0.2218
23060SOL     OW71186  10.692   3.159   7.571  0.3748 -0.4001 -0.0635
23060SOL    HW171187  10.684   3.078   7.520  0.9840 -0.9627  0.7120
23060SOL    HW271188  10.682   3.131   7.662  0.9258  0.3463  0.2355
23061SOL     OW71189   3.343   5.909   0.764  0.5632 -0.6079  0.1165
23061SOL    HW171190   3.334   5.998   0.800 -0.3036 -1.3399  1.8606
23061SOL    HW271191   3.279   5.906   0.693  0.7068  0.2093 -0.0614
23062SOL     OW71192   5.930   7.374   0.817 -0.3205  0.2119 -0.3790
23062SOL    HW171193   5.992   7.329   0.759 -0.2932 -0.3821  0.1035
23062SOL    HW271194   5.928   7.464   0.784  1.6617  0.5525  0.2531
23063SOL     OW71195   6.986  10.980   7.953 -0.1731  0.2564  0.0363
23063SOL    HW171196   7.034  10.906   7.916 -2.2024 -1.2590  0.3006
23063SOL    HW271197   6.959  11.031   7.876 -1.3229 -0.9398 -0.3843
23064SOL     OW71198   3.885   0.030   0.988 -0.5075 -0.5059  0.4794
23064SOL    HW171199   3.956  -0.005   0.934 -1.3041 -1.4016 -0.0270
23064SOL    HW271200   3.928   0.086   1.053  0.7054 -1.4563  0.5143
23065SOL     OW71201   8.848   3.088   0.218 -0.3251 -0.7047 -0.2657
23065SOL    HW171202   8.899   3.017   0.256 -0.3447 -0.3721  0.4032
23065SOL    HW271203   8.847   3.156   0.286  0.0103  0.0864 -1.0321
23066SOL     OW71204   7.953   1.140   9.312  0.0773  0.5309  0.0039
23066SOL    HW171205   7.952   1.184   9.397 -1.8393  1.1328 -0.2599
23066SOL    HW271206   7.984   1.206   9.251 -0.0398  0.6082  0.0268
23067SOL     OW71207   9.241   3.461   1.612 -0.4046 -0.8447 -0.1543
23067SOL    HW171208   9.307   3.430   1.551 -0.0712 -1.2673  0.4121
23067SOL    HW271209   9.277   3.542   1.647 -0.9488 -0.1749 -1.0881
23068SOL     OW71210   2.352   1.868   9.021  0.6358 -0.7882 -0.0713
23068SOL    HW171211   2.430   1.862   9.077  0.8948  1.8057 -0.0522
23068SOL    HW271212   2.294   1.929   9.066 -1.1010 -2.0176 -0.5170
23069SOL     OW71213   7.817   2.921  10.255 -0.1676 -0.0506  0.7793
23069SOL    HW171214   7.811   2.924  10.351  0.4946 -1.4515  0.9003
23069SOL    HW271215   7.886   2.856  10.238 -0.1876  0.2751 -0.6475
23070SOL     OW71216   2.476   6.540   6.844 -0.2304 -0.3123 -0.2008
23070SOL    HW171217   2.396   6.506   6.884 -0.0145  1.5821  2.0925
23070SOL    HW271218   2.477   6.632   6.868  1.3345  0.3240 -2.4796
23071SOL     OW71219   0.506   6.490  10.507  0.2800 -0.1229  0.0051
23071SOL    HW171220   0.442   6.561  10.517  0.1731 -0.2906  0.5433
23071SOL    HW271221   0.497   6.438  10.587  1.5431  0.2129  0.3790
23072SOL     OW71222  10.252   5.226   3.344  0.5165 -0.2460 -0.3758
23072SOL    HW171223  10.258   5.154   3.281  0.6468  0.0383 -0.6908
23072SOL    HW271224  10.239   5.183   3.429 -0.2193 -0.6135 -0.6681
23073SOL     OW71225  10.892  10.999   2.653 -0.2920 -0.0648 -0.2851
23073SOL    HW171226  10.935  11.082   2.675  0.8467 -0.3615 -1.2939
23073SOL    HW271227  10.937  10.934   2.706  1.8409 -0.6470 -2.6300
23074SOL     OW71228   3.765   7.995   6.139  0.1175  0.6367 -0.0658
23074SOL    HW171229   3.802   8.013   6.226 -0.0647  1.1322 -0.0921
23074SOL    HW271230   3.842   7.980   6.083  0.2422  0.5620  0.1242
23075SOL     OW71231   7.315   5.435   2.117 -0.3384 -0.3833 -0.2893
23075SOL    HW171232   7.349   5.393   2.038  1.9395 -0.6641  0.7396
23075SOL    HW271233   7.243   5.378   2.145 -1.3513 -0.1412 -2.2405
23076SOL     OW71234   4.085   2.906   2.354  0.0525 -0.1163  0.5928
23076SOL    HW171235   4.120   2.925   2.441  2.4829 -0.3216 -0.2679
23076SOL    HW271236   4.140   2.956   2.294  0.5049 -2.4225 -1.0387
23077SOL     OW71237   4.355   4.129   0.088  0.9262  0.7068  0.1570
23077SOL    HW171238   4.276   4.075   0.079  0.6454  1.2313 -0.5841
23077SOL    HW271239   4.398   4.095   0.167  2.2788 -2.5436 -1.7763
23078SOL     OW71240   3.163   9.661   9.292 -0.1181  0.0815 -0.0947
23078SOL    HW171241   3.088   9.721   9.285  0.6799  0.9435 -2.1017
23078SOL    HW271242   3.196   9.674   9.381 -0.0779  2.5455 -0.4064
23079SOL     OW71243   1.720   3.293   8.679  0.1761  0.1235 -0.0031
23079SOL    HW171244   1.713   3.380   8.718  1.4279 -0.0726  0.7261
23079SOL    HW271245   1.771   3.243   8.743 -0.5198 -1.1452 -0.4152
23080SOL     OW71246  10.602   9.823   2.609 -0.5120  0.1052 -0.0873
23080SOL    HW171247  10.584   9.766   2.683  0.4352 -1.9064 -1.3159
23080SOL    HW271248  10.518   9.867   2.592 -0.4634  1.5834  2.8416
23081SOL     OW71249   9.683   3.451   4.424 -0.5919  0.6353  0.1840
23081SOL    HW171250   9.728   3.486   4.347  0.9024 -0.7612  0.3647
23081SOL    HW271251   9.736   3.480   4.498 -1.1225  0.6442  0.5686
23082SOL     OW71252   1.262   9.787   8.957  0.3036  0.5490 -0.3739
23082SOL    HW171253   1.198   9.850   8.989  0.2010  0.4459 -0.3750
23082SOL    HW271254   1.343   9.837   8.949  0.2875  0.6140 -0.1159
23083SOL     OW71255   1.168   2.313   8.447 -0.2730 -0.1787 -0.4980
23083SOL    HW171256   1.196   2.224   8.424 -0.0935 -0.0294 -0.8715
23083SOL    HW271257   1.147   2.308   8.540  1.1494 -0.2718 -0.1508
23084SOL     OW71258  10.590   2.351   8.798  0.0945 -0.2464 -0.0840
23084SOL    HW171259  10.640   2.432   8.802 -2.1357  1.2330 -0.6759
23084SOL    HW271260  10.498   2.378   8.804 -0.7033 -2.9218  2.5635
23085SOL     OW71261   1.633   1.901   6.275  0.0548  0.1012  0.1467
23085SOL    HW171262   1.547   1.859   6.276 -0.4418  0.9911 -1.3595
23085SOL    HW271263   1.616   1.991   6.305  0.2508  0.5568 -1.0279
23086SOL     OW71264   0.762   8.288   0.429  0.2704 -0.4354  0.1844
23086SOL    HW171265   0.775   8.333   0.346 -0.3477  0.8793  0.7563
23086SOL    HW271266   0.673   8.253   0.424 -1.0104  2.2965  1.3753
23087SOL     OW71267   8.282   2.435   0.315  0.4843 -0.1292 -0.2824
23087SOL    HW171268   8.192   2.443   0.345  0.8752  1.9146  0.5320
23087SOL    HW271269   8.321   2.370   0.374 -0.0913  0.0832  0.3516
23088SOL     OW71270  10.964   8.246   7.674  0.5022 -0.2039  0.2897
23088SOL    HW171271  11.054   8.254   7.706  0.1733 -0.1388  1.2081
23088SOL    HW271272  10.937   8.336   7.656  1.0865 -0.3161 -1.3548
23089SOL     OW71273   3.816  11.079   4.333 -0.1126  0.5212 -0.2710
23089SOL    HW171274   3.791  11.000   4.379 -1.8371  0.0590 -1.8801
23089SOL    HW271275   3.740  11.137   4.340  0.4340  1.3064 -0.6240
23090SOL     OW71276   5.791   4.031   5.474 -0.0651 -0.0991 -0.7403
23090SOL    HW171277   5.862   4.054   5.534 -2.5984  1.3913  1.9486
23090SOL    HW271278   5.762   4.115   5.438 -0.4193 -0.6890 -1.8897
23091SOL     OW71279   1.776   7.509  10.903  0.4650  0.5177  0.2472
23091SOL    HW171280   1.870   7.495  10.891  0.1993 -1.0897 -0.1862
23091SOL    HW271281   1.770   7.558  10.985  1.6105 -1.0375  1.3473
23092SOL     OW71282   6.341  10.276   5.117 -0.1195 -0.0615  0.1135
23092SOL    HW171283   6.428  10.248   5.087  0.1046 -0.1285  0.8065
23092SOL    HW271284   6.316  10.346   5.057  1.1203  1.0830  0.8712
23093SOL     OW71285   4.199   0.883   4.351 -0.4640 -0.4068 -0.9382
23093SOL    HW171286   4.178   0.795   4.381  0.1553  0.0615  0.9501
23093SOL    HW271287   4.272   0.871   4.290 -0.7929 -1.2332 -1.1871
23094SOL     OW71288   9.072   1.031   0.828  0.1720 -0.2987 -0.1799
23094SOL    HW171289   9.080   0.949   0.778  1.6528  0.3197 -1.0496
23094SOL    HW271290   9.161   1.047   0.860  0.6550  2.4308 -2.5051
23095SOL     OW71291   1.668   5.666   5.257 -0.0540  0.7099 -0.0275
23095SOL    HW171292   1.702   5.607   5.325 -2.8050 -0.4186  0.4963
23095SOL    HW271293   1.661   5.751   5.301 -2.2024 -0.1008  1.3409
23096SOL     OW71294   5.907   9.904  10.504  1.2632 -0.2354 -0.2098
23096SOL    HW171295   5.907   9.999  10.516  0.5533 -0.4850  2.7840
23096SOL    HW271296   5.814   9.879  10.509  1.4116 -1.0737 -1.2962
23097SOL     OW71297   8.336   5.305   1.488  0.2222  0.5302  0.3869
23097SOL    HW171298   8.363   5.225   1.533 -0.7054  0.4009  0.7403
23097SOL    HW271299   8.418   5.350   1.466  0.7151  0.4757  1.9955
23098SOL     OW71300   9.253   9.974   0.649  0.3648  0.4927 -0.1216
23098SOL    HW171301   9.266  10.065   0.623 -1.0871  0.6533 -0.3688
23098SOL    HW271302   9.201   9.935   0.579 -0.7858  0.0380  0.9467
23099SOL     OW71303  10.685   9.465   1.417  0.6203 -0.0991 -0.3503
23099SOL    HW171304  10.698   9.375   1.389  0.8950 -0.0194 -0.4920
23099SOL    HW271305  10.696   9.517   1.337  1.5159  0.1379 -0.0936
23100SOL     OW71306   7.639   3.827   8.782 -0.1055  0.2461  0.1484
23100SOL    HW171307   7.556   3.867   8.754  0.2184 -0.4443 -1.9503
23100SOL    HW271308   7.614   3.739   8.810 -0.1135  0.0990 -0.3147
23101SOL     OW71309   5.243   5.347   6.355  0.9613  0.1713  0.0560
23101SOL    HW171310   5.207   5.434   6.335 -1.4957  0.2112  3.6689
23101SOL    HW271311   5.338   5.359   6.356  0.6655  3.0296  1.1704
23102SOL     OW71312   3.536   5.060   3.859  0.2493  0.3905 -0.2342
23102SOL    HW171313   3.518   5.087   3.769 -0.5570 -1.1104 -0.5536
23102SOL    HW271314   3.453   5.023   3.889  0.7467  0.1545  0.8632
23103SOL     OW71315   8.120   5.327   0.620  0.8712  0.1002  0.4151
23103SOL    HW171316   8.062   5.393   0.580 -0.5842 -1.1331  0.4180
23103SOL    HW271317   8.159   5.282   0.545  0.8955  0.1290  0.4101
23104SOL     OW71318   8.446   5.150   2.946 -0.0570  1.1032 -0.2944
23104SOL    HW171319   8.409   5.137   3.033  0.2053  0.1798 -0.3101
23104SOL    HW271320   8.387   5.212   2.904 -0.4312  1.2242  0.3905
23105SOL     OW71321   2.980   2.848   4.923 -0.0786  0.6929  0.2955
23105SOL    HW171322   2.957   2.832   4.832  1.0426 -1.1861  0.2789
23105SOL    HW271323   3.052   2.787   4.940  1.3486  2.6607  1.7612
23106SOL     OW71324   9.055  10.313   7.918  0.0749 -0.2898  0.2273
23106SOL    HW171325   9.004  10.394   7.915  0.5657  0.0238  0.2598
23106SOL    HW271326   9.111  10.317   7.841 -1.1514 -1.4500 -0.7771
23107SOL     OW71327   7.707   8.467   4.332  0.0869  0.1283 -0.2368
23107SOL    HW171328   7.742   8.458   4.421 -3.9580  1.5028  1.7174
23107SOL    HW271329   7.763   8.533   4.291  1.9365 -0.3864  1.3134
23108SOL     OW71330   7.776   9.892   7.749  0.2022  0.2559 -0.5324
23108SOL    HW171331   7.851   9.930   7.796 -0.6889  1.3126  0.1018
23108SOL    HW271332   7.811   9.813   7.707  1.3106 -0.1235  1.0084
23109SOL     OW71333   1.260   6.975  11.240  0.0212 -0.1646 -0.3308
23109SOL    HW171334   1.173   7.015  11.238 -0.5922 -1.4681 -1.1207
23109SOL    HW271335   1.294   6.986  11.151  0.9742  0.9406  0.1450
23110SOL     OW71336   2.696   4.235  10.838  0.1085  0.6546 -0.9343
23110SOL    HW171337   2.630   4.293  10.877  0.9992  0.6575  0.6424
23110SOL    HW271338   2.768   4.234  10.901  0.8438 -0.8186 -1.7335
23111SOL     OW71339   7.165   7.793   9.078  0.2399  0.2126  0.5196
23111SOL    HW171340   7.118   7.785   9.161 -0.7505 -0.1753 -0.0736
23111SOL    HW271341   7.178   7.888   9.067  0.8623  0.2403  1.3655
23112SOL     OW71342   4.010   2.087   6.298 -0.1195 -0.2779 -0.1526
23112SOL    HW171343   3.946   2.095   6.368 -1.0300  2.4842 -1.1813
23112SOL    HW271344   4.085   2.138   6.328 -0.1232  0.0837 -0.7339
23113SOL     OW71345   0.119   9.149   3.299 -0.3834 -0.4470 -0.0627
23113SOL    HW171346   0.025   9.152   3.283 -0.3502  0.6135 -0.1770
23113SOL    HW271347   0.134   9.214   3.368 -0.1207 -2.8155  2.2252
23114SOL     OW71348  10.440  10.662   5.319  0.0044 -0.0323  0.4401
23114SOL    HW171349  10.456  10.754   5.297  1.9561 -0.3727  0.2961
23114SOL    HW271350  10.526  10.621   5.318 -0.6187 -1.5442  2.0651
23115SOL     OW71351  10.336   9.723   8.417  0.4731  0.4663  0.6709
23115SOL    HW171352  10.404   9.789   8.428  1.1991 -0.5486  2.7253
23115SOL    HW271353  10.377   9.641   8.445 -0.4727 -0.8674 -1.5761
23116SOL     OW71354   8.204   7.656   5.740 -0.1648 -0.4977 -0.3225
23116SOL    HW171355   8.280   7.612   5.778 -0.8075 -1.4488 -0.1012
23116SOL    HW271356   8.205   7.631   5.648 -1.1791 -1.9890  0.0295
23117SOL     OW71357   3.856   5.472   5.016 -0.3185 -0.4650  0.5560
23117SOL    HW171358   3.792   5.421   5.066 -1.5053 -0.5646 -1.0130
23117SOL    HW271359   3.855   5.558   5.058 -1.0317 -0.6431  0.9309
23118SOL     OW71360   1.505   0.134   2.867  0.2924 -0.1844  0.2650
23118SOL    HW171361   1.503   0.093   2.954 -0.6054 -2.1691 -0.6214
23118SOL    HW271362   1.414   0.130   2.837  0.7841 -0.6337 -1.2262
23119SOL     OW71363   4.068   9.164   0.595 -0.1683 -0.1712 -0.3581
23119SOL    HW171364   3.984   9.191   0.558 -0.2890  0.6537  0.4828
23119SOL    HW271365   4.124   9.241   0.587  0.6028 -0.8018 -1.1510
23120SOL     OW71366   9.384   0.901   9.205 -0.2509  0.0146  0.4714
23120SOL    HW171367   9.406   0.845   9.131 -2.3528  0.6228 -0.6940
23120SOL    HW271368   9.415   0.988   9.180  0.7844 -0.1362  1.1874
23121SOL     OW71369   6.487   8.217   7.752  0.1010  0.0497  0.3197
23121SOL    HW171370   6.396   8.194   7.733 -0.0937  0.5259  0.6652
23121SOL    HW271371   6.523   8.139   7.795 -0.2949  0.0513  0.6594
23122SOL     OW71372   8.267  10.343   1.009 -0.8319  0.7122 -0.7485
23122SOL    HW171373   8.318  10.423   1.021  0.7445 -0.3900  0.3527
23122SOL    HW271374   8.330  10.278   0.978 -2.1619 -0.0268 -2.0482
23123SOL     OW71375   5.063   9.538  10.932  0.4220  0.5602 -0.0484
23123SOL    HW171376   5.068   9.443  10.945 -2.4384  0.6199  2.6967
23123SOL    HW271377   5.113   9.574  11.005 -1.1626  1.0942  0.8112
23124SOL     OW71378   8.269   9.920   4.189 -0.2430  0.0243  0.0111
23124SOL    HW171379   8.308  10.008   4.197 -2.9287  1.3731 -0.5937
23124SOL    HW271380   8.342   9.860   4.203  2.2185  2.3401 -1.9603
23125SOL     OW71381   3.724   3.432   3.342  0.7221 -0.5981  0.7242
23125SOL    HW171382   3.732   3.341   3.369  1.8007 -0.9482 -0.6507
23125SOL    HW271383   3.748   3.432   3.250  0.4626  1.0455  0.6201
23126SOL     OW71384  10.421   7.717   2.747  0.1036 -0.8503  0.3039
23126SOL    HW171385  10.355   7.649   2.758 -0.8441 -0.2635 -1.3741
23126SOL    HW271386  10.445   7.742   2.836 -2.3623 -0.7112  1.0104
23127SOL     OW71387   8.199   9.427  10.354 -0.6068  0.1147  0.1346
23127SOL    HW171388   8.293   9.440  10.342 -0.6117  2.7385  2.0582
23127SOL    HW271389   8.159   9.491  10.294 -1.1011  0.3594  0.7222
23128SOL     OW71390   9.247   8.902   8.450  0.0778  0.6071  0.1273
23128SOL    HW171391   9.312   8.837   8.476 -1.4190 -0.8186  0.5272
23128SOL    HW271392   9.170   8.881   8.504 -0.4192  2.8300  0.3683
23129SOL     OW71393  10.579   8.793   6.602 -0.5321  0.1042  0.0910
23129SOL    HW171394  10.609   8.775   6.514  0.3108 -1.7112  0.7087
23129SOL    HW271395  10.491   8.830   6.591 -0.8679 -1.0936 -1.4541
23130SOL     OW71396   0.516   8.693   9.128  0.1970 -0.0367  0.3575
23130SOL    HW171397   0.587   8.740   9.172 -0.7701 -0.4120  2.4057
23130SOL    HW271398   0.472   8.761   9.076  0.6625  0.6693  0.8611
23131SOL     OW71399   5.041   3.080   1.770 -0.0244  0.0151  0.3474
23131SOL    HW171400   4.988   3.125   1.836 -0.8991 -0.9558  0.3221
23131SOL    HW271401   5.073   3.002   1.814  1.2450  0.4843  0.2918
23132SOL     OW71402   8.039   9.970   1.960  0.7894  0.3243  0.3223
23132SOL    HW171403   7.998   9.982   2.046  0.6764  1.2625  0.1430
23132SOL    HW271404   8.133   9.980   1.977  0.8480 -0.4340  0.4902
23133SOL     OW71405   7.987   1.057  10.355  0.0266  0.1380  0.2288
23133SOL    HW171406   7.918   1.114  10.321 -0.7888 -1.8214 -1.6161
23133SOL    HW271407   7.941   0.988  10.402  0.9734  0.6288  1.9918
23134SOL     OW71408   6.616   3.674   0.613 -0.3391 -0.0365  0.0227
23134SOL    HW171409   6.642   3.677   0.521  1.4354  0.6348  0.4944
23134SOL    HW271410   6.543   3.735   0.620 -1.5864 -1.3006 -1.2086
23135SOL     OW71411   2.146   9.089   1.655 -0.9745 -0.1615  0.4384
23135SOL    HW171412   2.177   9.174   1.625  0.6591 -0.7921  0.1928
23135SOL    HW271413   2.186   9.078   1.741 -2.4615 -0.0365  1.1770
23136SOL     OW71414   7.865   7.521   0.941  0.1915  0.3797 -0.4681
23136SOL    HW171415   7.849   7.541   0.849  1.6369 -1.0187 -1.0648
23136SOL    HW271416   7.840   7.429   0.951  1.3225  0.1300  0.2037
23137SOL     OW71417   5.422   5.074   9.917  0.1873  0.1970 -0.6439
23137SOL    HW171418   5.421   5.147   9.979  0.5771 -0.6280  0.3662
23137SOL    HW271419   5.361   5.100   9.848  0.8383  1.7762 -0.6747
23138SOL     OW71420  10.907   8.930  10.562  0.5048  0.9557  0.2203
23138SOL    HW171421  10.960   8.871  10.615 -0.8355  0.6660  1.2987
23138SOL    HW271422  10.821   8.888  10.557 -0.3910  2.5972  0.7267
23139SOL     OW71423   3.378   9.085   0.258  0.0040 -0.5242 -0.6494
23139SOL    HW171424   3.467   9.101   0.229 -0.5847  0.4408 -2.0332
23139SOL    HW271425   3.387   9.036   0.339  1.7709 -1.6616 -1.4846
23140SOL     OW71426   2.795   6.901   0.111 -0.2410  0.1341 -0.3458
23140SOL    HW171427   2.870   6.946   0.072 -0.6097  1.0425 -0.0433
23140SOL    HW271428   2.798   6.813   0.074  0.9596  0.1515 -0.3548
23141SOL     OW71429   5.715   1.215   1.333 -0.0446 -0.0204 -0.1779
23141SOL    HW171430   5.710   1.215   1.238 -1.3288  0.7474 -0.1440
23141SOL    HW271431   5.716   1.123   1.358 -3.6358 -0.4051 -0.8436
23142SOL     OW71432   0.272   9.284   5.843  0.0264 -0.2087 -0.1897
23142SOL    HW171433   0.262   9.201   5.888  0.6015  0.1696  0.6509
23142SOL    HW271434   0.183   9.310   5.819 -0.1977 -0.8252 -0.0273
23143SOL     OW71435   6.590   3.196   8.190 -0.7486 -0.3646  0.3450
23143SOL    HW171436   6.615   3.285   8.164  0.3535 -0.6046  0.5377
23143SOL    HW271437   6.596   3.145   8.109  0.9033 -0.7308  0.6623
23144SOL     OW71438   4.817   3.726   5.375 -0.1998 -0.7040  0.3372
23144SOL    HW171439   4.782   3.730   5.286 -0.0775  1.1549  0.3309
23144SOL    HW271440   4.910   3.746   5.365 -0.3103  0.1506  0.9402
23145SOL     OW71441  10.595   6.886   1.245  0.1610  0.7261  0.0358
23145SOL    HW171442  10.629   6.846   1.325  1.8094  3.3628  0.8056
23145SOL    HW271443  10.673   6.909   1.195 -0.8209  0.0356 -1.9204
23146SOL     OW71444  10.940   3.495   0.807  0.2153 -0.3153 -0.0379
23146SOL    HW171445  11.025   3.454   0.824  1.3619  1.6005 -0.8737
23146SOL    HW271446  10.897   3.497   0.892  1.6585  0.0929  0.7073
23147SOL     OW71447  10.837   1.032   1.968  0.0248 -0.8889 -0.0160
23147SOL    HW171448  10.859   0.981   2.046 -1.0250  0.0505  0.9363
23147SOL    HW271449  10.758   0.990   1.934 -0.8593  0.0626  0.7869
23148SOL     OW71450  10.293   4.422   3.909 -0.2775 -0.9974  0.2709
23148SOL    HW171451  10.353   4.363   3.863 -0.5337 -1.2582  0.2670
23148SOL    HW271452  10.314   4.410   4.002  0.9528  0.3021  0.1819
23149SOL     OW71453  10.704   6.939   9.595 -0.1659 -0.1184  0.7358
23149SOL    HW171454  10.702   6.849   9.561  1.5198 -0.5730  1.7218
23149SOL    HW271455  10.767   6.984   9.538 -0.1688  0.1330  0.9317
23150SOL     OW71456  10.962   9.792   0.718 -0.0255 -0.3208 -0.1675
23150SOL    HW171457  11.034   9.831   0.769 -1.8345  2.6569  0.3979
23150SOL    HW271458  10.926   9.724   0.775  1.6213 -1.1253 -0.0241
23151SOL     OW71459   8.796   2.444   8.463 -1.0312 -0.0182  0.5350
23151SOL    HW171460   8.751   2.414   8.542 -1.6143 -0.4446  0.0520
23151SOL    HW271461   8.885   2.463   8.491 -0.5204 -2.5135  0.8093
23152SOL     OW71462   3.895   0.910   4.181  0.4228 -0.6116  0.3566
23152SOL    HW171463   3.882   1.005   4.186  3.2221  0.0051 -1.6121
23152SOL    HW271464   3.907   0.883   4.273 -1.5906  0.6700  1.0574
23153SOL     OW71465   0.165   1.496   0.559 -0.1635 -0.1514 -0.6353
23153SOL    HW171466   0.106   1.425   0.585 -0.7672  0.4186 -0.4052
23153SOL    HW271467   0.233   1.453   0.507  1.0697 -1.3487  1.7831
23154SOL     OW71468   3.793   6.190   6.044  0.0225  0.1177 -0.1827
23154SOL    HW171469   3.883   6.165   6.023  0.3965  0.1393  1.3045
23154SOL    HW271470   3.801   6.270   6.096 -0.9541  0.9500 -1.2381
23155SOL     OW71471   3.055   1.734  10.772 -0.8244  0.1087 -0.4215
23155SOL    HW171472   3.039   1.716  10.865  2.0565 -0.3553  0.0825
23155SOL    HW271473   3.132   1.790  10.772  1.9534 -3.3192 -2.5324
23156SOL     OW71474   0.446  10.624   6.965 -0.7429  0.4503 -0.5556
23156SOL    HW171475   0.390  10.701   6.954 -0.7676  0.7519  1.4083
23156SOL    HW271476   0.493  10.639   7.047 -1.7941 -2.2268  0.6604
23157SOL     OW71477   1.230   3.701   3.181 -0.5354  0.8270 -0.2704
23157SOL    HW171478   1.275   3.736   3.258 -1.2206  0.8119  0.1497
23157SOL    HW271479   1.256   3.759   3.110 -1.2384  1.8996  0.3104
23158SOL     OW71480   2.907   6.961   6.970  0.0379 -0.7787 -0.7553
23158SOL    HW171481   2.821   6.964   7.011 -0.1919 -1.2609 -1.1882
23158SOL    HW271482   2.937   7.052   6.970  0.1270 -0.7868  0.6327
23159SOL     OW71483   1.283   8.195   7.600  0.1089 -0.3992 -0.6042
23159SOL    HW171484   1.356   8.153   7.554  2.6411  1.8385  1.0112
23159SOL    HW271485   1.304   8.184   7.693 -0.0445  2.6246 -0.0966
23160SOL     OW71486   1.261   2.330   7.125  0.1106 -0.8659 -0.2168
23160SOL    HW171487   1.325   2.259   7.123  0.0747 -0.9468  1.0653
23160SOL    HW271488   1.182   2.290   7.162 -0.5747 -0.6571 -1.3823
23161SOL     OW71489   6.139   0.173   2.949 -0.2002 -0.2812  0.0258
23161SOL    HW171490   6.102   0.114   3.015  0.6217  0.3120  1.0516
23161SOL    HW271491   6.222   0.202   2.987  0.1492  0.3110 -1.1525
23162SOL     OW71492  10.127   8.417   1.938 -0.3882  0.7466  0.1658
23162SOL    HW171493  10.195   8.386   1.997  0.4683  0.2477 -1.0288
23162SOL    HW271494  10.166   8.493   1.895  0.7331 -1.2756 -2.7463
23163SOL     OW71495   6.923   1.724   6.204 -0.5078  0.4033 -0.1082
23163SOL    HW171496   6.931   1.646   6.149  1.0735  0.7975 -0.4979
23163SOL    HW271497   6.901   1.690   6.290  0.4787 -0.5298 -0.1986
23164SOL     OW71498  10.784   8.103   5.741 -0.5415  0.1249 -0.6442
23164SOL    HW171499  10.705   8.100   5.794  0.1561 -3.7398  0.4338
23164SOL    HW271500  10.774   8.031   5.679  1.4422  0.5991 -1.5998
23165SOL     OW71501   9.513   0.085   6.407 -0.7257 -0.3006 -0.7685
23165SOL    HW171502   9.474   0.017   6.463  1.3451 -0.6088  0.4192
23165SOL    HW271503   9.466   0.164   6.430 -1.5167 -0.8812 -0.3321
23166SOL     OW71504  10.831   9.031   9.168  0.2751  0.0803 -0.1683
23166SOL    HW171505  10.793   8.943   9.164  1.7466 -0.6745  1.1548
23166SOL    HW271506  10.773   9.085   9.115 -2.2501 -1.0884  1.2540
23167SOL     OW71507   0.683   6.348   6.302 -0.2237 -0.0119 -0.1837
23167SOL    HW171508   0.597   6.369   6.265 -0.5392 -0.1079  0.4761
23167SOL    HW271509   0.734   6.428   6.290 -0.5331  0.1850 -0.2121
23168SOL     OW71510   3.459  10.505   8.206 -0.3336  0.4248 -0.4689
23168SOL    HW171511   3.402  10.542   8.275 -0.2894  2.1349 -1.2966
23168SOL    HW271512   3.498  10.428   8.247 -1.4687  0.5266  0.9121
23169SOL     OW71513   8.249   7.628   0.678 -0.3964  0.0195 -0.5804
23169SOL    HW171514   8.214   7.693   0.618  0.4408  0.4410 -0.6320
23169SOL    HW271515   8.175   7.602   0.732 -0.6215  1.4808 -0.1382
23170SOL     OW71516   8.427   4.245  10.063  0.3084 -0.2835 -0.5446
23170SOL    HW171517   8.448   4.164  10.015 -1.4852  0.3439 -2.5330
23170SOL    HW271518   8.418   4.311   9.995 -0.7133  1.0414  0.8281
23171SOL     OW71519   2.611   8.613   6.120 -0.5741 -0.6069  0.6674
23171SOL    HW171520   2.565   8.660   6.051 -0.5463 -0.9555  0.4062
23171SOL    HW271521   2.541   8.571   6.170 -0.5319 -1.4285  0.0558
23172SOL     OW71522   9.147   1.113   8.249  0.6803 -0.0138 -0.1383
23172SOL    HW171523   9.096   1.177   8.200  1.7908  0.3193 -0.8917
23172SOL    HW271524   9.187   1.164   8.319 -1.5971 -0.6339  1.7610
23173SOL     OW71525   8.823   3.385  11.171  0.4111  1.0579 -0.3912
23173SOL    HW171526   8.785   3.298  11.161  2.2486  0.3829 -2.3039
23173SOL    HW271527   8.779   3.422  11.247 -0.8214 -1.3183  0.1494
23174SOL     OW71528   6.489   8.903   8.592  0.0026 -0.1613 -0.2183
23174SOL    HW171529   6.422   8.862   8.538  0.2556  1.9551 -2.3154
23174SOL    HW271530   6.479   8.997   8.576  1.7442  0.3958  1.5092
23175SOL     OW71531   3.191   6.350   9.332  0.5369  0.0811  0.6260
23175SOL    HW171532   3.115   6.389   9.375  0.3346  2.1395 -1.3660
23175SOL    HW271533   3.258   6.344   9.401 -0.3718  1.3864  1.6726
23176SOL     OW71534   4.299  10.225   9.444 -0.5555  0.3319 -0.9389
23176SOL    HW171535   4.309  10.133   9.418  2.8011  0.3258 -0.1236
23176SOL    HW271536   4.308  10.274   9.362 -0.6640 -0.0297 -1.1667
23177SOL     OW71537   4.839  10.564   8.952 -0.3375  0.0738 -0.5008
23177SOL    HW171538   4.803  10.650   8.929 -0.8746 -0.4563 -1.7446
23177SOL    HW271539   4.927  10.565   8.915 -0.3649  0.0712 -0.5670
23178SOL     OW71540   8.489   1.530   0.795  0.4551 -0.3244 -0.1054
23178SOL    HW171541   8.395   1.530   0.816  0.3301 -0.2179 -0.6274
23178SOL    HW271542   8.527   1.593   0.856 -0.0078  0.5124 -0.6539
23179SOL     OW71543   1.173   1.764   0.219 -0.1748  0.3093  0.6405
23179SOL    HW171544   1.096   1.742   0.167  0.9531  2.5613 -2.2272
23179SOL    HW271545   1.180   1.692   0.283 -2.0615 -2.3285 -1.8578
23180SOL     OW71546   0.296   8.105   6.073 -0.1297 -0.2492  0.1364
23180SOL    HW171547   0.280   8.085   5.981 -1.2208 -2.1443  0.6818
23180SOL    HW271548   0.303   8.019   6.116  2.2160  0.5571  1.5409
23181SOL     OW71549   6.546   0.399   5.656 -0.3777  0.3816  0.0135
23181SOL    HW171550   6.486   0.374   5.585  0.3777  0.5678 -0.6957
23181SOL    HW271551   6.633   0.398   5.616 -0.1424  2.6682  0.3387
23182SOL     OW71552   0.796   7.076   7.648  0.0207 -0.0757  0.2173
23182SOL    HW171553   0.835   7.146   7.699  0.6967 -0.4924  0.2808
23182SOL    HW271554   0.741   7.029   7.710  0.2411 -0.1209  0.3775
23183SOL     OW71555   3.691   6.878   6.474  0.5935 -0.1028 -0.1024
23183SOL    HW171556   3.624   6.930   6.518  1.3087 -0.4316  1.4520
23183SOL    HW271557   3.774   6.910   6.510  1.1128 -1.5632  0.0721
23184SOL     OW71558   9.714   3.229   8.158  0.3934 -0.0927 -0.0561
23184SOL    HW171559   9.734   3.279   8.079  0.4412  1.3100  0.7950
23184SOL    HW271560   9.693   3.296   8.223 -0.4278 -1.2469  0.9043
23185SOL     OW71561  10.087   6.476   8.301 -0.1050  0.1236  1.1334
23185SOL    HW171562  10.102   6.437   8.388  1.0165 -1.0578  0.4470
23185SOL    HW271563  10.087   6.570   8.318  2.4316  0.0366  2.1452
23186SOL     OW71564   7.303   5.019   6.963 -0.4325  0.7887  0.4600
23186SOL    HW171565   7.382   5.072   6.948 -0.4587  1.2503  1.8385
23186SOL    HW271566   7.333   4.945   7.016 -0.4985 -0.3638 -1.0279
23187SOL     OW71567   0.934   0.968   2.340  0.0907 -0.0491  0.1278
23187SOL    HW171568   0.911   0.885   2.380  0.8793 -0.0056  0.6771
23187SOL    HW271569   1.021   0.988   2.373  1.4115 -0.7080 -2.6917
23188SOL     OW71570   7.349   5.049   7.809  0.1889 -0.0088 -0.1681
23188SOL    HW171571   7.267   5.098   7.799 -0.1351  0.2151  2.6487
23188SOL    HW271572   7.335   4.996   7.887  2.2998 -0.9560 -0.3616
23189SOL     OW71573   8.314   3.752  11.093  0.0272  0.2958 -0.1309
23189SOL    HW171574   8.270   3.783  11.172 -0.4772  2.6224 -1.2351
23189SOL    HW271575   8.256   3.777  11.021 -0.2300 -3.0324 -1.2531
23190SOL     OW71576   7.476   9.883   9.830 -0.7656 -0.5374 -0.6515
23190SOL    HW171577   7.430   9.825   9.769  0.1622 -0.1297 -1.7848
23190SOL    HW271578   7.545   9.829   9.867 -1.7330 -0.9744  0.5818
23191SOL     OW71579   6.831   9.338  10.588 -0.2463  0.8335  0.1140
23191SOL    HW171580   6.869   9.306  10.506 -1.7744  1.0137 -0.6942
23191SOL    HW271581   6.810   9.259  10.637  2.1433  0.7242  1.0900
23192SOL     OW71582   1.830   8.253   8.634  0.3614 -0.3793 -0.0431
23192SOL    HW171583   1.867   8.236   8.548  1.3167  2.5769 -0.3530
23192SOL    HW271584   1.905   8.252   8.694  0.0227 -0.3928  0.3901
23193SOL     OW71585   6.965   5.573   5.103  0.1151  0.7117  0.0302
23193SOL    HW171586   6.977   5.481   5.127 -0.4326  0.5657 -0.2418
23193SOL    HW271587   7.051   5.613   5.118  0.4638  0.0701 -0.2404
23194SOL     OW71588   2.933   3.598   8.652 -0.1610  0.0604  0.3703
23194SOL    HW171589   2.931   3.694   8.649 -1.8368  0.0302 -0.1818
23194SOL    HW271590   2.999   3.573   8.587  3.6140  0.8695  3.4981
23195SOL     OW71591   6.149  11.000   5.692  0.8545  0.2356  0.0054
23195SOL    HW171592   6.153  10.914   5.650 -1.4223  1.4788 -3.2237
23195SOL    HW271593   6.066  11.000   5.740  2.1613 -0.2167  2.4030
23196SOL     OW71594   6.496   2.583   2.587  0.8447 -0.3519 -0.8220
23196SOL    HW171595   6.509   2.598   2.494  1.0742  0.3147 -0.6927
23196SOL    HW271596   6.403   2.602   2.601  0.9746  0.2991 -0.7906
23197SOL     OW71597   1.121  10.955   7.547 -0.4317  0.6531 -0.7664
23197SOL    HW171598   1.100  10.931   7.638 -0.6343  1.1592 -0.6794
23197SOL    HW271599   1.045  11.005   7.518  0.7925  2.9130 -0.3133
23198SOL     OW71600  10.793   6.193   8.086  0.1454 -0.6553 -0.3172
23198SOL    HW171601  10.823   6.173   7.997 -0.3300  0.3151 -0.7113
23198SOL    HW271602  10.731   6.123   8.107  0.8645 -1.3411 -0.4212
23199SOL     OW71603   3.142   1.982   0.567 -0.0305 -0.4405  0.5003
23199SOL    HW171604   3.119   1.929   0.491 -1.5192 -0.1768  0.7441
23199SOL    HW271605   3.177   2.063   0.529 -1.7450  0.1244  0.0489
23200SOL     OW71606   0.635   1.516   2.337 -0.2583  0.4615 -0.7238
23200SOL    HW171607   0.676   1.574   2.401 -1.4980  0.1673  0.3778
23200SOL    HW271608   0.556   1.562   2.309 -2.0205 -1.1865  1.2019
23201SOL     OW71609  10.483   8.949   6.259  0.3292 -0.1447  0.3111
23201SOL    HW171610  10.541   9.014   6.299 -1.0485  0.8191  0.8189
23201SOL    HW271611  10.420   9.001   6.209  1.2296 -1.2569 -2.1416
23202SOL     OW71612   1.083  10.442   1.581 -0.3455  0.1885  0.0234
23202SOL    HW171613   1.149  10.465   1.516  0.8353 -1.3609  0.6025
23202SOL    HW271614   1.000  10.443   1.533  0.4444 -0.5294 -1.4311
23203SOL     OW71615   3.025   9.500   4.223  0.2504 -0.2889  0.9068
23203SOL    HW171616   2.996   9.423   4.273 -0.5263  1.6097  3.6008
23203SOL    HW271617   3.116   9.479   4.199  0.4593 -1.5981  2.6085
23204SOL     OW71618   6.477   7.893   8.998  0.1857 -0.1861  0.6422
23204SOL    HW171619   6.561   7.859   8.966 -0.0231 -0.2107  0.1105
23204SOL    HW271620   6.486   7.892   9.093  1.1003  0.5926  0.5840
23205SOL     OW71621   8.927   9.140   6.555 -0.2746  0.2630  0.2097
23205SOL    HW171622   8.920   9.110   6.465  1.5737 -1.9775  0.7273
23205SOL    HW271623   8.838   9.164   6.580 -0.7916  1.0896 -2.2272
23206SOL     OW71624   2.062   2.267   9.243  0.5694  0.1320  0.3126
23206SOL    HW171625   2.076   2.196   9.305  0.0477 -0.6937 -0.4800
23206SOL    HW271626   1.979   2.306   9.270  1.6275  1.5530  1.7474
23207SOL     OW71627   2.120   5.749   5.071  0.1414  0.7431  0.0195
23207SOL    HW171628   2.075   5.827   5.101 -1.4348  0.2357 -0.9097
23207SOL    HW271629   2.130   5.695   5.150 -2.9603 -0.1101 -0.0526
23208SOL     OW71630   6.807   4.727   7.296 -0.2953  0.4085 -0.1840
23208SOL    HW171631   6.815   4.677   7.376 -1.3952  1.1552  0.4233
23208SOL    HW271632   6.743   4.679   7.243  2.4942 -1.6814 -1.9518
23209SOL     OW71633   4.273  10.482   1.341  0.2126  0.2252 -0.4776
23209SOL    HW171634   4.306  10.416   1.281  1.6990  0.3443  0.1798
23209SOL    HW271635   4.351  10.518   1.383 -0.7124  0.9682  0.6662
23210SOL     OW71636   9.204   2.088   3.787 -0.5981 -0.7283  0.7249
23210SOL    HW171637   9.296   2.109   3.773 -0.9996  1.1399  0.6382
23210SOL    HW271638   9.158   2.169   3.766 -2.4637 -2.2365 -1.4417
23211SOL     OW71639   8.219   6.037   7.973  0.5838 -0.3102  0.3907
23211SOL    HW171640   8.219   6.087   8.055 -0.5187 -0.3905  0.4621
23211SOL    HW271641   8.127   6.011   7.961  0.7818 -0.5515 -0.7224
23212SOL     OW71642   8.836  11.266   1.232  0.6436 -0.2627 -0.0556
23212SOL    HW171643   8.906  11.314   1.187  1.4081 -0.6150  0.7365
23212SOL    HW271644   8.880  11.188   1.266 -0.1030 -0.3842  0.6226
23213SOL     OW71645   9.156   8.905   6.383 -0.1424 -0.3362  0.4583
23213SOL    HW171646   9.119   8.842   6.445 -1.9251 -0.3330 -0.5383
23213SOL    HW271647   9.181   8.980   6.438 -2.3917 -0.0097  1.1261
23214SOL     OW71648  10.804   5.867   9.647  0.2367  0.2057  0.0454
23214SOL    HW171649  10.872   5.902   9.590 -1.0869  0.2454 -1.5833
23214SOL    HW271650  10.824   5.773   9.653  0.8915  0.3538  0.2566
23215SOL     OW71651   7.796   2.641   6.152 -0.1955 -0.1864 -0.9776
23215SOL    HW171652   7.752   2.708   6.205 -0.0949 -1.0292  0.2049
23215SOL    HW271653   7.887   2.669   6.150 -0.4690  0.7345 -2.1416
23216SOL     OW71654  10.167   8.346   1.537  0.1357  0.1078 -0.6302
23216SOL    HW171655  10.200   8.434   1.557  0.3550 -0.5149  2.0097
23216SOL    HW271656  10.080   8.361   1.500 -0.7907  1.4274  1.8499
23217SOL     OW71657   6.619  11.185   2.199 -0.5423  0.0222  0.0231
23217SOL    HW171658   6.544  11.130   2.175 -1.2341  1.4742 -1.3553
23217SOL    HW271659   6.582  11.273   2.207  1.1254  0.9087 -1.4317
23218SOL     OW71660  10.675   9.659   8.298 -0.3725  0.8733 -0.3885
23218SOL    HW171661  10.601   9.612   8.336  1.3462 -1.5831  0.1727
23218SOL    HW271662  10.670   9.640   8.204 -0.4792  0.7564 -0.3588
23219SOL     OW71663   2.227   5.236   2.427 -0.7024  0.7545 -0.1231
23219SOL    HW171664   2.260   5.166   2.372 -1.1603 -0.1091  0.6809
23219SOL    HW271665   2.145   5.263   2.386 -0.2886  1.1512 -0.6964
23220SOL     OW71666   4.048   1.524   5.964 -0.2283 -0.4574  0.4619
23220SOL    HW171667   4.134   1.499   5.929 -1.0746 -1.2655 -1.1242
23220SOL    HW271668   3.990   1.453   5.938 -1.5811  0.5375  0.6867
23221SOL     OW71669   6.976   5.576   2.694 -0.1275  0.2082  0.5726
23221SOL    HW171670   6.922   5.606   2.766 -1.0448 -3.0032  1.3585
23221SOL    HW271671   6.915   5.556   2.624  0.6905  2.5228 -0.9226
23222SOL     OW71672  10.123   1.566   1.499 -0.4858 -0.0603  0.0348
23222SOL    HW171673  10.206   1.521   1.480 -0.2016  0.6932 -0.5945
23222SOL    HW271674  10.148   1.658   1.508 -0.9518 -0.0871  1.9671
23223SOL     OW71675   3.114  11.152   6.872  0.6342 -0.7124 -0.0726
23223SOL    HW171676   3.075  11.188   6.951  2.3733 -0.1023  0.5526
23223SOL    HW271677   3.047  11.162   6.805  0.6263  2.7774  0.2852
23224SOL     OW71678   0.997   8.646   9.269  0.2369  0.5521  0.5429
23224SOL    HW171679   1.049   8.626   9.347  1.0232 -0.5797 -0.2356
23224SOL    HW271680   1.001   8.566   9.217 -0.9633  1.0074 -0.2865
23225SOL     OW71681  10.525   1.980   0.178 -0.3703  0.2150  0.1863
23225SOL    HW171682  10.501   1.899   0.132  0.3922 -0.2627  0.6297
23225SOL    HW271683  10.449   2.037   0.164 -1.6057 -1.0917  1.1465
23226SOL     OW71684   8.782   0.025   6.885 -0.1066  0.2185 -0.2724
23226SOL    HW171685   8.821   0.082   6.818  1.2600  0.7393  0.9239
23226SOL    HW271686   8.857  -0.016   6.929 -0.7473  2.1060  2.8660
23227SOL     OW71687   0.707   1.265   9.981 -0.2267 -0.1573  0.2441
23227SOL    HW171688   0.669   1.202   9.920 -0.6255 -0.3108  0.6439
23227SOL    HW271689   0.783   1.301   9.935 -0.4272 -0.3897 -0.2741
23228SOL     OW71690   8.688   2.162   7.589  0.3686 -0.5244 -0.0921
23228SOL    HW171691   8.670   2.099   7.658 -1.2289 -0.5160 -0.4715
23228SOL    HW271692   8.626   2.234   7.605  0.3776 -0.2568 -1.1893
23229SOL     OW71693   9.225   2.953   5.318 -0.0569 -0.5756  0.1956
23229SOL    HW171694   9.154   2.999   5.363  0.1665 -0.6447  0.6246
23229SOL    HW271695   9.214   2.976   5.226 -1.3408 -1.5070  0.0873
23230SOL     OW71696   9.880   0.115   5.214  0.2082 -0.1636  0.7204
23230SOL    HW171697   9.834   0.044   5.169  1.3661  0.7027 -2.0531
23230SOL    HW271698   9.900   0.080   5.301 -1.7057 -2.1617  0.4217
23231SOL     OW71699   1.386   4.397   6.665  0.0044  0.0475  0.4465
23231SOL    HW171700   1.327   4.429   6.596 -0.3794 -1.0246  0.2541
23231SOL    HW271701   1.394   4.471   6.725 -1.1165  0.4095  0.1887
23232SOL     OW71702   6.257   1.589   1.974 -0.5581  0.1469  0.0696
23232SOL    HW171703   6.268   1.504   1.933  0.2643  0.2456  0.0731
23232SOL    HW271704   6.234   1.569   2.065  0.1536 -0.0825  0.2072
23233SOL     OW71705   4.063   8.843   8.901 -0.4944 -0.4391 -0.4389
23233SOL    HW171706   4.036   8.774   8.962 -3.3418 -0.1574 -1.2451
23233SOL    HW271707   4.130   8.801   8.846 -0.5934 -1.8587  0.4619
23234SOL     OW71708   8.508   8.300   7.475  0.0746 -0.7662 -0.2244
23234SOL    HW171709   8.597   8.331   7.489  0.1751 -0.8729 -0.6212
23234SOL    HW271710   8.509   8.260   7.388  0.0742 -2.3180  0.4513
23235SOL     OW71711  10.991   7.451   8.616  0.0234 -0.1950 -0.6045
23235SOL    HW171712  10.984   7.369   8.567  2.3153 -1.5717  1.1631
23235SOL    HW271713  10.903   7.468   8.648 -0.7993 -1.1004 -2.2966
23236SOL     OW71714   8.015   0.857   9.803 -0.4661  0.1854 -0.1280
23236SOL    HW171715   7.951   0.872   9.733 -0.0249 -2.1479 -1.1354
23236SOL    HW271716   8.100   0.874   9.761 -0.2250 -0.8441 -0.0829
23237SOL     OW71717   8.905  11.166  10.038  0.2196  0.5989 -0.4418
23237SOL    HW171718   8.832  11.201  10.089  0.5126  0.3092  0.1747
23237SOL    HW271719   8.948  11.244  10.002 -0.4086  0.7700 -0.8405
23238SOL     OW71720   7.019   3.713   7.222  0.1471 -0.2652 -1.1289
23238SOL    HW171721   6.955   3.661   7.270  0.7083  0.5370  0.6046
23238SOL    HW271722   7.104   3.680   7.253  0.5468  2.4322  1.0884
23239SOL     OW71723   5.217   5.412   2.591  0.4137 -0.9669  1.0035
23239SOL    HW171724   5.237   5.494   2.637  0.8095  0.6492 -1.8452
23239SOL    HW271725   5.281   5.349   2.625  1.3554  0.4081  1.8928
23240SOL     OW71726   7.413   0.543   3.346 -0.2522  0.2568 -0.3555
23240SOL    HW171727   7.436   0.552   3.253  1.1676 -1.5916 -0.2258
23240SOL    HW271728   7.320   0.522   3.345 -0.5007  1.2915 -1.2834
23241SOL     OW71729  10.407   0.349   1.182 -0.1509 -0.0968  0.0745
23241SOL    HW171730  10.375   0.292   1.112 -0.1575 -0.9922  0.7793
23241SOL    HW271731  10.467   0.410   1.138  1.4550 -1.9444 -0.4253
23242SOL     OW71732   8.896   3.643   0.552  0.8052  0.4458 -0.1155
23242SOL    HW171733   8.891   3.699   0.475  0.9797  1.3590  0.5257
23242SOL    HW271734   8.823   3.582   0.543 -2.2256  3.5439  1.3228
23243SOL     OW71735  10.875   0.208   8.447 -0.3605  0.2344  0.4708
23243SOL    HW171736  10.850   0.182   8.536 -0.1238 -0.7712  0.2605
23243SOL    HW271737  10.969   0.192   8.443 -0.2427  0.9666  0.2621
23244SOL     OW71738   2.376   3.079   8.531  0.2844 -0.3173  0.2735
23244SOL    HW171739   2.318   3.053   8.459 -0.4754 -1.1790  1.1611
23244SOL    HW271740   2.434   3.004   8.543 -2.0895 -1.9372  3.0192
23245SOL     OW71741   1.626   5.281   8.012  0.0101  0.0114  0.2804
23245SOL    HW171742   1.628   5.319   7.925  2.2471  0.0216  0.2823
23245SOL    HW271743   1.580   5.198   8.001 -1.2082  0.7663 -0.5385
23246SOL     OW71744   2.507   2.589   2.658  0.1686  0.1942 -0.3601
23246SOL    HW171745   2.473   2.529   2.591  2.0571 -0.4401 -0.7946
23246SOL    HW271746   2.457   2.567   2.737  0.0998 -1.2451 -0.7728
23247SOL     OW71747   5.528  10.050  10.825  0.3888 -0.2102  0.0086
23247SOL    HW171748   5.476  10.088  10.895  0.8028 -0.0798  0.2468
23247SOL    HW271749   5.463  10.021  10.760  0.0733  0.8180 -0.1419
23248SOL     OW71750   7.059   7.507   3.544 -0.0313 -0.7175 -0.0619
23248SOL    HW171751   7.014   7.540   3.467  1.1263 -1.0655 -0.9062
23248SOL    HW271752   7.019   7.554   3.617 -0.5343  0.2570 -0.9441
23249SOL     OW71753  10.319   1.979   4.240 -0.6865 -0.4668 -0.4958
23249SOL    HW171754  10.309   2.027   4.158  1.2002  0.4203 -0.2661
23249SOL    HW271755  10.379   1.907   4.218 -1.6091 -1.3175 -0.2909
23250SOL     OW71756   6.929   2.625   0.898 -0.3553  0.0554  0.0935
23250SOL    HW171757   6.849   2.593   0.939 -0.6930 -0.6410 -1.0743
23250SOL    HW271758   6.940   2.714   0.932 -0.9589 -0.2670  1.1768
23251SOL     OW71759   8.571   5.231   0.018 -0.3483 -0.4089 -0.1754
23251SOL    HW171760   8.506   5.295   0.045  0.0100 -0.1396  0.0605
23251SOL    HW271761   8.655   5.268   0.046 -0.2052 -1.3321  0.6514
23252SOL     OW71762  11.186   1.516   5.313 -0.3966 -0.2216 -0.3361
23252SOL    HW171763  11.236   1.593   5.340 -0.1361  0.3281 -2.2339
23252SOL    HW271764  11.100   1.528   5.354 -1.4399  2.7691 -3.0042
23253SOL     OW71765  10.276   8.977   5.384 -0.0686  0.3141 -0.4431
23253SOL    HW171766  10.250   9.005   5.472 -0.4683  1.5715 -0.9493
23253SOL    HW271767  10.351   8.919   5.399  0.8307  1.7121  0.6448
23254SOL     OW71768   8.359   0.308   7.326  0.2172 -0.5498 -0.6991
23254SOL    HW171769   8.341   0.382   7.384 -1.3436 -0.3702 -1.3644
23254SOL    HW271770   8.320   0.233   7.370  1.0053 -0.8373 -0.4630
23255SOL     OW71771   7.494  11.195   5.248 -0.1625 -0.3084 -0.0853
23255SOL    HW171772   7.531  11.111   5.273  3.4530 -0.0041 -3.4811
23255SOL    HW271773   7.551  11.260   5.289 -1.3909  0.5059  0.4173
23256SOL     OW71774   4.252  11.233   7.621  0.2828 -0.1772  0.3059
23256SOL    HW171775   4.322  11.171   7.641  0.8057  0.3762  0.2263
23256SOL    HW271776   4.244  11.231   7.525  1.0811  0.7000  0.2082
23257SOL     OW71777   1.011   2.016   4.694  0.0951  0.3179  0.3362
23257SOL    HW171778   0.941   2.018   4.628  0.8847  0.0653 -0.5373
23257SOL    HW271779   1.092   2.020   4.643  0.7232  1.5826  1.3692
23258SOL     OW71780   3.620   8.697   2.378 -0.6376  0.0137  0.2762
23258SOL    HW171781   3.533   8.657   2.372 -0.2136 -0.7303 -1.4766
23258SOL    HW271782   3.660   8.655   2.454 -1.3968 -0.4841  0.4176
23259SOL     OW71783  10.133   9.890   0.733  0.4656 -0.0530  0.3808
23259SOL    HW171784  10.180   9.823   0.782  0.7388  1.0737  1.7416
23259SOL    HW271785  10.066   9.921   0.794  1.0274  1.6293  0.2022
23260SOL     OW71786   4.371  10.469   5.390 -0.9193  0.9476  0.3745
23260SOL    HW171787   4.286  10.441   5.424  0.1295 -0.4499  2.0166
23260SOL    HW271788   4.367  10.446   5.297 -1.9369 -0.1741  0.6556
23261SOL     OW71789   1.491   9.707   1.098 -0.5373  0.8531 -0.7609
23261SOL    HW171790   1.465   9.635   1.041 -0.2904  0.2859 -0.1718
23261SOL    HW271791   1.421   9.713   1.163  0.0517  0.2852 -0.0473
23262SOL     OW71792   2.742  10.918   9.235  0.3877  0.3618 -0.2929
23262SOL    HW171793   2.666  10.898   9.180  0.1674 -1.3783  0.5596
23262SOL    HW271794   2.807  10.853   9.211 -0.0073 -1.0009  1.9888
23263SOL     OW71795   4.311   2.622   2.241  1.1678 -0.1934  0.2365
23263SOL    HW171796   4.392   2.661   2.275  1.2274 -0.8063  0.8129
23263SOL    HW271797   4.294   2.670   2.160  1.6937  0.4550  0.5021
23264SOL     OW71798   8.715   2.971   3.897 -0.0466  0.2635 -0.2099
23264SOL    HW171799   8.769   3.009   3.828 -0.2373  1.3591  0.2253
23264SOL    HW271800   8.625   2.984   3.868 -0.1195  0.4639  0.0991
23265SOL     OW71801   4.448   3.661   9.017 -0.2064 -0.2147  0.1423
23265SOL    HW171802   4.423   3.640   9.107 -1.8594 -0.9120 -0.4373
23265SOL    HW271803   4.525   3.606   9.000 -0.1378 -0.3878  0.9916
23266SOL     OW71804   9.417   0.941   8.282 -0.1226 -0.0938  0.0117
23266SOL    HW171805   9.400   1.022   8.329  0.7272  0.7931 -1.1657
23266SOL    HW271806   9.372   0.951   8.198  0.9261 -0.3379 -0.6071
23267SOL     OW71807   1.668   4.379   6.926 -0.2294  0.1707  0.3527
23267SOL    HW171808   1.581   4.342   6.942 -0.2028 -0.1789 -0.2868
23267SOL    HW271809   1.672   4.391   6.831 -0.3726  2.1515  0.5555
23268SOL     OW71810  10.527   9.521   7.630 -0.4530 -0.1034 -0.3787
23268SOL    HW171811  10.459   9.575   7.591 -0.0811  0.4359 -0.2856
23268SOL    HW271812  10.488   9.433   7.634 -0.8992  0.0633 -0.9245
23269SOL     OW71813   7.377   5.424   1.587 -0.0314 -0.4061 -0.3103
23269SOL    HW171814   7.316   5.392   1.521  0.3912 -0.7713 -0.5298
23269SOL    HW271815   7.326   5.485   1.640 -0.2914  0.1192 -1.1558
23270SOL     OW71816   0.735   1.670   1.988  0.4035  0.7607  0.3570
23270SOL    HW171817   0.641   1.661   1.998  0.5874  0.7913  2.5019
23270SOL    HW271818   0.748   1.759   1.955 -0.3371  0.3940 -0.9995
23271SOL     OW71819   9.972   7.061   2.642 -0.2726  0.0461 -0.2598
23271SOL    HW171820  10.003   7.148   2.668 -1.9532  0.3185  1.0638
23271SOL    HW271821   9.906   7.039   2.708  0.0623 -2.2238 -0.6058
23272SOL     OW71822   8.749   1.231   7.045 -0.0114  0.6439  0.4710
23272SOL    HW171823   8.835   1.189   7.042 -1.0435 -1.6316  0.3163
23272SOL    HW271824   8.734   1.248   7.138  0.9644  1.9743  0.4211
23273SOL     OW71825   2.836   5.162   0.624  0.2786  0.3756  0.3222
23273SOL    HW171826   2.872   5.100   0.687  2.5489  2.1139  0.9030
23273SOL    HW271827   2.792   5.108   0.559  0.6584 -1.6907  1.6814
23274SOL     OW71828   5.958   2.817   5.459 -0.0170 -0.1180 -0.3738
23274SOL    HW171829   5.914   2.862   5.386  0.0017 -0.2388 -0.4599
23274SOL    HW271830   6.037   2.869   5.474 -0.0834 -0.0209 -0.3576
23275SOL     OW71831  10.918   9.111  10.801  0.2913  0.2867  0.0455
23275SOL    HW171832  10.954   9.048  10.738  0.0514  1.5539 -1.4317
23275SOL    HW271833  10.856   9.163  10.750 -0.2766  1.0563  1.4652
23276SOL     OW71834   8.808   8.165   7.035 -0.4703  0.6062  0.2788
23276SOL    HW171835   8.723   8.142   7.073 -1.1036  1.0857 -0.8068
23276SOL    HW271836   8.863   8.089   7.053 -1.4534 -0.1956  0.0021
23277SOL     OW71837   5.647   7.773   7.734  0.2977  0.2392 -0.6881
23277SOL    HW171838   5.718   7.835   7.719  0.1193  0.7354  0.4179
23277SOL    HW271839   5.622   7.743   7.647  0.9869  1.0430 -1.1729
23278SOL     OW71840  10.761   4.169   8.143  0.1379  0.3325 -0.1548
23278SOL    HW171841  10.763   4.159   8.048 -1.3357 -2.0061 -0.0051
23278SOL    HW271842  10.692   4.233   8.159  0.0549  0.3598 -0.6173
23279SOL     OW71843   2.776   4.901  10.733  0.1375  0.2012 -0.0234
23279SOL    HW171844   2.780   4.992  10.704 -2.8510  0.0901 -1.1844
23279SOL    HW271845   2.751   4.907  10.825 -0.1712  0.5847 -0.1273
23280SOL     OW71846   0.917   9.783   4.201 -1.0990  0.3022  0.2443
23280SOL    HW171847   1.010   9.758   4.203 -1.2351 -0.6290 -1.9348
23280SOL    HW271848   0.918   9.877   4.183 -0.6238  0.8343  2.6645
23281SOL     OW71849   4.329   2.369   2.386 -0.3260 -0.1860  0.1237
23281SOL    HW171850   4.257   2.308   2.371  0.6555 -1.5597  0.8613
23281SOL    HW271851   4.348   2.406   2.300 -2.2536  0.6410 -0.0012
23282SOL     OW71852   1.904   4.697   1.555 -0.2293 -0.2213  0.3338
23282SOL    HW171853   1.851   4.777   1.555 -1.0995 -0.7721  1.2291
23282SOL    HW271854   1.954   4.702   1.474  1.9249  2.6218  1.6556
23283SOL     OW71855   8.131   5.228   5.077  0.1138 -0.2572  0.1643
23283SOL    HW171856   8.102   5.178   5.000  1.7551 -1.8510  0.4877
23283SOL    HW271857   8.067   5.297   5.087 -2.5393 -2.5127 -0.1454
23284SOL     OW71858   5.636  11.145   9.273 -0.0732  0.0027  0.9809
23284SOL    HW171859   5.727  11.151   9.245 -0.0887  2.7903  1.2074
23284SOL    HW271860   5.635  11.184   9.361 -1.7388  2.2507  0.0923
23285SOL     OW71861   2.095   7.815   5.039 -0.3114  0.1985  0.1024
23285SOL    HW171862   2.141   7.791   4.959 -2.8712  0.7785 -1.6856
23285SOL    HW271863   2.036   7.886   5.012  0.2655  1.9278  3.0331
23286SOL     OW71864  10.738   0.797   6.851  0.3376 -0.2674 -1.1191
23286SOL    HW171865  10.735   0.716   6.902  0.4651 -0.1308 -0.8917
23286SOL    HW271866  10.664   0.848   6.882  0.3552 -0.2273 -1.1434
23287SOL     OW71867   1.318   5.369   3.851 -0.1333 -0.4357  0.2124
23287SOL    HW171868   1.260   5.439   3.880  0.7016  0.4067 -0.1105
23287SOL    HW271869   1.308   5.300   3.917 -0.3269  0.3374  1.0031
23288SOL     OW71870   9.320   6.288   5.527  0.1248  0.6239 -0.3852
23288SOL    HW171871   9.375   6.228   5.477  0.2780  1.2131 -0.9431
23288SOL    HW271872   9.314   6.248   5.614  2.3603  1.0793  0.0526
23289SOL     OW71873   7.127  10.739   0.550 -0.1867 -0.5111 -1.1504
23289SOL    HW171874   7.181  10.720   0.474  0.6022 -0.6698 -0.5697
23289SOL    HW271875   7.107  10.653   0.587  0.7539 -0.3936 -0.3048
23290SOL     OW71876   1.904   4.519   8.991  0.4211  0.3627  0.1155
23290SOL    HW171877   1.843   4.445   8.989  0.6785  0.1589 -1.6572
23290SOL    HW271878   1.936   4.522   9.082 -1.4556 -0.1325  0.8432
23291SOL     OW71879   2.202   2.636   8.328  0.1708 -0.5022  0.7311
23291SOL    HW171880   2.182   2.652   8.420 -0.0193  0.7707  0.4863
23291SOL    HW271881   2.224   2.543   8.324  0.8231 -0.4381  2.1751
23292SOL     OW71882   6.700   6.005   3.946 -0.3654  0.0285  0.1317
23292SOL    HW171883   6.768   6.020   4.012  0.5621 -2.3247 -0.1790
23292SOL    HW271884   6.667   5.917   3.965 -1.7547  0.2362 -1.1133
23293SOL     OW71885   8.915   9.640   9.526 -0.2667 -0.1641 -0.2514
23293SOL    HW171886   8.927   9.733   9.506 -0.0693 -0.3742 -1.1415
23293SOL    HW271887   8.833   9.616   9.482  0.2397 -0.6636 -0.9447
23294SOL     OW71888   2.787   9.093   5.940 -0.1599  0.1882  0.7863
23294SOL    HW171889   2.820   9.081   6.029 -1.2014 -2.2186  0.9267
23294SOL    HW271890   2.694   9.116   5.951 -0.5824 -1.2223  0.3452
23295SOL     OW71891   2.888   9.225   1.706  0.6870  0.4870  0.1941
23295SOL    HW171892   2.884   9.137   1.670  1.0997  0.4283  0.2841
23295SOL    HW271893   2.924   9.279   1.635 -0.7075  0.8228 -0.2818
23296SOL     OW71894   4.951   8.316   9.676 -0.2972  0.6661 -0.9822
23296SOL    HW171895   4.889   8.361   9.734  0.0774  1.0024 -0.8390
23296SOL    HW271896   4.895   8.265   9.617 -0.7188  1.0643 -0.9378
23297SOL     OW71897   8.502   2.466   2.683  0.3682 -0.2225 -0.9391
23297SOL    HW171898   8.532   2.541   2.735 -0.5887  0.6067 -1.5392
23297SOL    HW271899   8.483   2.503   2.597  1.5641 -1.5016 -1.7898
23298SOL     OW71900   2.345   5.874   8.462 -0.1299  0.3587 -0.1269
23298SOL    HW171901   2.423   5.910   8.420  0.4297 -1.1411 -0.4272
23298SOL    HW271902   2.296   5.832   8.391 -1.3157  1.4061  0.0305
23299SOL     OW71903   9.152   2.573  10.743  0.1873 -0.5515  0.2062
23299SOL    HW171904   9.172   2.594  10.652 -0.3226  0.4209  0.3053
23299SOL    HW271905   9.158   2.477  10.747  1.8807 -0.5115 -0.4403
23300SOL     OW71906   6.493   5.121  10.922 -0.3975  0.0193  0.0948
23300SOL    HW171907   6.458   5.032  10.915 -0.4719  0.1520 -1.8654
23300SOL    HW271908   6.455   5.167  10.847  0.3794  1.4424  0.5470
23301SOL     OW71909   4.407   8.359   6.581  0.1219 -0.3991 -0.1860
23301SOL    HW171910   4.396   8.319   6.494  0.1517 -1.3906  0.2542
23301SOL    HW271911   4.500   8.348   6.601  0.2199  0.2853 -0.2378
23302SOL     OW71912   2.718   5.735   0.984  0.1028  0.4542 -0.4018
23302SOL    HW171913   2.636   5.780   0.967  0.8073  1.5680 -0.9777
23302SOL    HW271914   2.741   5.760   1.074  0.2277  0.8505 -0.5389
23303SOL     OW71915  10.968   5.411   0.659 -0.4835  0.1066 -0.0089
23303SOL    HW171916  10.928   5.497   0.672  0.8017  0.8274 -0.6221
23303SOL    HW271917  10.932   5.381   0.575  1.6258  1.6199 -1.5502
23304SOL     OW71918   5.019   9.242  10.641  0.1255 -0.5682  0.0788
23304SOL    HW171919   4.993   9.234  10.550 -0.1497 -1.0893  0.2006
23304SOL    HW271920   5.114   9.230  10.640  0.4440  1.6364 -0.4015
23305SOL     OW71921  11.208   1.828   9.512  0.5149 -0.5512 -0.0521
23305SOL    HW171922  11.210   1.740   9.474  2.2001 -0.6416  0.1873
23305SOL    HW271923  11.253   1.883   9.449  2.8551 -0.5969  1.4664
23306SOL     OW71924   3.283   3.537   1.792  0.3741 -0.0087  0.3822
23306SOL    HW171925   3.202   3.523   1.744  1.2379 -3.2023 -0.3293
23306SOL    HW271926   3.271   3.487   1.873  1.2616  0.3105  0.7185
23307SOL     OW71927   8.508  10.326   6.928 -0.0833  0.4797 -0.5459
23307SOL    HW171928   8.419  10.293   6.931  0.0639  0.1242  0.3673
23307SOL    HW271929   8.552  10.282   7.000  0.2127  2.4220  0.5245
23308SOL     OW71930   2.317   5.200   6.923  0.1196 -0.1789 -0.1820
23308SOL    HW171931   2.301   5.263   6.992  1.4028 -1.7032  1.6268
23308SOL    HW271932   2.244   5.139   6.928  0.8141 -0.9733  0.7068
23309SOL     OW71933   1.918   5.609   5.669  0.6304  0.3029 -0.2476
23309SOL    HW171934   1.973   5.553   5.723 -1.1927 -0.6450  0.7204
23309SOL    HW271935   1.893   5.681   5.726 -1.8596 -1.0530  0.5117
23310SOL     OW71936   8.367   2.944   9.300 -0.6139  1.1891 -0.4867
23310SOL    HW171937   8.356   2.849   9.294  0.1887  1.0720 -0.2721
23310SOL    HW271938   8.306   2.980   9.236 -2.5650  0.6336  0.9594
23311SOL     OW71939  10.053   9.960  10.702  0.1775  0.1644 -0.4748
23311SOL    HW171940  10.106   9.997  10.773  0.4725 -0.7094 -0.2281
23311SOL    HW271941  10.071   9.866  10.705  0.4781  0.1581 -1.9539
23312SOL     OW71942   7.820   0.156   0.441  0.6159  0.4958 -0.4164
23312SOL    HW171943   7.762   0.117   0.507  1.1576  1.7477  0.8495
23312SOL    HW271944   7.760   0.195   0.378  0.0089  1.8772  0.9396
23313SOL     OW71945   5.045   5.171   8.996  0.5276  0.1323  0.8435
23313SOL    HW171946   5.128   5.218   8.994 -0.1396  1.4115  2.0130
23313SOL    HW271947   5.006   5.188   8.910 -0.0533  2.4488  1.5030
23314SOL     OW71948   0.901  10.406   1.891 -0.1639  0.9937  0.1134
23314SOL    HW171949   0.903  10.329   1.947 -0.7107  2.3238  2.0522
23314SOL    HW271950   0.992  10.436   1.888  0.0331  0.3600 -0.5667
23315SOL     OW71951   3.465  10.074   5.312 -0.8743  0.7048 -0.0469
23315SOL    HW171952   3.488   9.994   5.360  1.3320  1.0475 -0.4529
23315SOL    HW271953   3.392  10.048   5.256 -0.2213 -1.0173 -0.1508
23316SOL     OW71954   2.598  10.554   5.590  0.0850  0.2366 -0.4501
23316SOL    HW171955   2.565  10.631   5.543  1.2840  0.2800 -1.2785
23316SOL    HW271956   2.655  10.590   5.657 -0.1255  0.0963 -0.1947
23317SOL     OW71957   8.016   8.934   4.257 -0.6061 -0.7445 -0.1488
23317SOL    HW171958   7.987   8.906   4.344 -0.3185 -1.2125 -0.1989
23317SOL    HW271959   7.964   9.012   4.238  0.1354  0.0618  0.9424
23318SOL     OW71960   9.754   3.840   9.800  0.5300  0.2107  0.4505
23318SOL    HW171961   9.666   3.833   9.762  0.5736  0.6897  0.2561
23318SOL    HW271962   9.765   3.759   9.850 -0.4737  0.6282  1.4002
23319SOL     OW71963   6.296  10.349   8.410  0.8852 -0.1915  0.0487
23319SOL    HW171964   6.359  10.277   8.397  1.7552  0.4073  0.7954
23319SOL    HW271965   6.249  10.326   8.490  0.7990 -0.1903 -0.0025
23320SOL     OW71966   6.405   8.156   9.175  0.0101 -0.2837  0.0470
23320SOL    HW171967   6.387   8.146   9.268  1.5249  0.8843  0.5208
23320SOL    HW271968   6.325   8.128   9.131 -0.8717 -0.4861  1.7115
23321SOL     OW71969   8.808   2.980   2.383  0.6152 -0.0285 -1.0567
23321SOL    HW171970   8.840   3.010   2.468 -0.0849 -0.2078 -0.7243
23321SOL    HW271971   8.739   2.918   2.404 -0.3850  0.8191 -1.7573
23322SOL     OW71972   8.724   0.620   2.669  0.2684  0.0281 -0.4361
23322SOL    HW171973   8.725   0.714   2.650  3.8632  1.4284  4.3584
23322SOL    HW271974   8.657   0.610   2.737 -0.5762 -1.0930 -1.4006
23323SOL     OW71975   7.583   2.910  10.657 -0.5667 -0.1005 -0.0737
23323SOL    HW171976   7.554   2.827  10.620  0.5892  0.0475 -1.4224
23323SOL    HW271977   7.526   2.924  10.733 -2.1091 -1.1245 -0.9801
23324SOL     OW71978   9.244   1.763   4.333  0.1274  0.3828  0.5608
23324SOL    HW171979   9.292   1.681   4.323 -0.3901  0.1402 -0.0027
23324SOL    HW271980   9.312   1.830   4.342  0.5546 -0.1039  1.0837
23325SOL     OW71981   9.619   2.471   9.841  0.2800  1.3378  0.6841
23325SOL    HW171982   9.599   2.507   9.928 -0.8844  2.3270  0.0503
23325SOL    HW271983   9.549   2.407   9.826  0.6406  0.9694  0.5946
23326SOL     OW71984   9.102   7.423   7.383 -0.2004  0.1403  0.3210
23326SOL    HW171985   9.112   7.366   7.459 -3.4205  0.8972  1.4813
23326SOL    HW271986   9.157   7.499   7.402  0.6002 -0.5791  0.9041
23327SOL     OW71987  11.082   7.767   4.555 -0.4319  0.8867 -0.0390
23327SOL    HW171988  11.105   7.758   4.648  1.1746  0.6893 -0.4223
23327SOL    HW271989  11.057   7.858   4.545  1.1292  1.3767  0.2651
23328SOL     OW71990   9.409   7.173   8.637 -0.2314 -0.3433 -0.0418
23328SOL    HW171991   9.344   7.181   8.567 -0.6768 -0.7691  0.3206
23328SOL    HW271992   9.479   7.235   8.612 -1.2594  0.9309  0.1167
23329SOL     OW71993   9.546   6.394   5.285  0.5634 -0.0837  0.0826
23329SOL    HW171994   9.539   6.302   5.311  1.4580  0.0429  0.8293
23329SOL    HW271995   9.628   6.424   5.324  0.7816  0.7713 -0.9790
23330SOL     OW71996   5.553   2.834   8.920  0.2040 -0.2991 -0.6505
23330SOL    HW171997   5.473   2.819   8.871  1.1463 -0.2560 -2.2753
23330SOL    HW271998   5.607   2.887   8.862  0.7923  1.0444  1.0550
23331SOL     OW71999   7.975   9.733   2.184  0.6195  0.6577 -0.2982
23331SOL    HW172000   7.986   9.643   2.215  1.6665  0.3350 -1.5226
23331SOL    HW272001   8.056   9.777   2.208  0.8584  0.7773 -1.2816
23332SOL     OW72002   6.211   2.529   8.332  0.1994  0.4153 -0.1225
23332SOL    HW172003   6.196   2.522   8.238 -1.0563  0.5795  0.0502
23332SOL    HW272004   6.269   2.604   8.341 -2.7443  2.9478 -0.5496
23333SOL     OW72005   3.408   5.704   6.640 -0.3888 -0.1250 -0.0699
23333SOL    HW172006   3.491   5.695   6.595 -0.6887 -1.0572 -0.4596
23333SOL    HW272007   3.358   5.626   6.616 -1.1529  0.1235  0.6245
23334SOL     OW72008   2.883   9.520   0.710  0.3725  0.1042 -0.0137
23334SOL    HW172009   2.967   9.546   0.672 -0.7038  0.7376 -2.1030
23334SOL    HW272010   2.852   9.598   0.755  1.5815 -0.6040  2.2022
23335SOL     OW72011   0.902   4.861  10.154  0.1152 -0.4244  0.3565
23335SOL    HW172012   0.842   4.787  10.153 -0.4884  0.0512 -1.3655
23335SOL    HW272013   0.879   4.909  10.234 -1.3495 -0.6385  0.0925
23336SOL     OW72014   0.086   7.991   4.196  0.0696  0.0765  0.0489
23336SOL    HW172015   0.001   7.953   4.220  0.1382  0.1116  0.3467
23336SOL    HW272016   0.138   7.984   4.275  0.7854 -1.1636 -0.4901
23337SOL     OW72017   5.352   1.340   6.015  0.5432  0.1301 -0.5399
23337SOL    HW172018   5.341   1.433   5.996 -1.1806  0.1292  0.2798
23337SOL    HW272019   5.283   1.297   5.965  1.7405 -0.8070 -1.4310
23338SOL     OW72020   6.066  10.355   0.905  0.5694  0.1821  0.4469
23338SOL    HW172021   6.051  10.277   0.957  0.3167 -0.2203 -0.2112
23338SOL    HW272022   6.012  10.342   0.827  1.4090  0.4807 -0.1975
23339SOL     OW72023   0.849   8.410   2.104 -0.8146  0.5965 -0.1319
23339SOL    HW172024   0.870   8.500   2.079 -1.6538  0.3259 -1.9689
23339SOL    HW272025   0.911   8.390   2.174  0.9830  1.8029 -1.2904
23340SOL     OW72026  10.869   1.594   2.114  0.3970  0.3021 -0.4383
23340SOL    HW172027  10.930   1.520   2.115  2.9648  2.0053 -4.6752
23340SOL    HW272028  10.792   1.561   2.068 -0.2025 -0.6681  1.1551
23341SOL     OW72029   7.439  10.118   3.523  0.6485  0.2432  0.3397
23341SOL    HW172030   7.401  10.201   3.495 -2.7124 -1.1032  0.3546
23341SOL    HW272031   7.461  10.131   3.615 -0.5899  0.9330  0.5660
23342SOL     OW72032   4.011   9.291  10.849  0.1566  0.0681 -0.2785
23342SOL    HW172033   3.987   9.322  10.762 -1.6539  2.8825  1.0805
23342SOL    HW272034   4.067   9.360  10.885  1.3560 -1.3144  0.6436
23343SOL     OW72035   3.807   6.130   0.433  0.0400 -0.3162  0.0188
23343SOL    HW172036   3.764   6.045   0.437 -1.4414  0.2913 -1.8884
23343SOL    HW272037   3.736   6.193   0.425  1.1404  1.0998  0.8344
23344SOL     OW72038   7.696   5.366   1.324  0.2503  0.2419 -0.4755
23344SOL    HW172039   7.601   5.356   1.333  0.3539 -0.7134 -0.3001
23344SOL    HW272040   7.719   5.307   1.252  0.6421  0.8907 -0.8875
23345SOL     OW72041   8.490   1.438   1.887 -0.4752  0.7730  0.1364
23345SOL    HW172042   8.533   1.516   1.853  1.1895 -0.6851 -1.3440
23345SOL    HW272043   8.563   1.382   1.916 -1.4324 -1.1695 -1.0273
23346SOL     OW72044   4.046   5.497   3.994  0.1322 -0.0276  0.3423
23346SOL    HW172045   4.102   5.514   3.918 -0.6210 -1.3257 -0.5410
23346SOL    HW272046   4.087   5.422   4.037 -0.6278 -0.6776 -0.0362
23347SOL     OW72047   9.507   5.528   1.658 -0.1700 -0.2216  0.4166
23347SOL    HW172048   9.457   5.605   1.631 -0.4535 -0.7992 -0.7695
23347SOL    HW272049   9.583   5.563   1.703  0.3299  0.8098 -1.1741
23348SOL     OW72050   2.981   4.923   1.212  0.2427 -0.0201  0.6374
23348SOL    HW172051   3.028   4.902   1.131 -1.0937 -0.1695 -0.1204
23348SOL    HW272052   2.984   5.019   1.217  0.5131 -0.0225  0.5297
23349SOL     OW72053   0.879   1.508   9.108 -0.5025 -0.4029 -0.1570
23349SOL    HW172054   0.875   1.585   9.164  3.2879 -0.8495  0.9518
23349SOL    HW272055   0.952   1.525   9.048  0.6440 -3.1826  0.3056
23350SOL     OW72056   1.339   7.988   5.173  0.5095 -0.2511  0.3942
23350SOL    HW172057   1.378   8.051   5.234  0.6716  1.6270 -1.5291
23350SOL    HW272058   1.248   8.016   5.165 -0.0379 -1.7006  1.2304
23351SOL     OW72059   1.369   8.369   5.779  0.0379  0.9585  0.2787
23351SOL    HW172060   1.375   8.333   5.868 -0.1444  0.3101  0.0365
23351SOL    HW272061   1.384   8.294   5.722 -2.7648  0.7070 -0.2856
23352SOL     OW72062  10.027   5.418   6.702  0.0317  0.2086  0.0125
23352SOL    HW172063   9.968   5.383   6.769  0.0528 -1.5166 -0.7903
23352SOL    HW272064  10.004   5.510   6.695 -1.6005 -0.1048  0.7227
23353SOL     OW72065   7.442   7.068   0.206 -0.0519  0.1238  0.2328
23353SOL    HW172066   7.478   6.990   0.165  1.0498  0.5388  0.3772
23353SOL    HW272067   7.514   7.130   0.207 -0.7302  0.9289  0.6961
23354SOL     OW72068   0.941   7.592  11.260  0.2216  0.0339  0.7537
23354SOL    HW172069   0.952   7.504  11.297  0.7126 -0.5215 -0.6352
23354SOL    HW272070   0.988   7.589  11.177 -0.3330  1.4135  0.3599
23355SOL     OW72071   3.896   7.754   4.537 -0.5070 -0.0609  0.7020
23355SOL    HW172072   3.917   7.673   4.584 -0.0747 -0.6283 -0.4320
23355SOL    HW272073   3.817   7.787   4.580 -1.9757 -2.2313 -0.1773
23356SOL     OW72074   4.547   6.656   4.700 -0.6267 -0.0795  0.2592
23356SOL    HW172075   4.567   6.648   4.607  0.5176  0.3788  0.4535
23356SOL    HW272076   4.480   6.725   4.705 -2.0939 -1.3921 -0.3682
23357SOL     OW72077   1.612   0.967   9.280  0.2077 -0.5388  0.4994
23357SOL    HW172078   1.550   0.923   9.338 -0.8363  0.1594 -0.0469
23357SOL    HW272079   1.579   0.948   9.192  1.0166 -0.4872  0.1782
23358SOL     OW72080   8.776   7.601   7.483 -0.2575 -0.9812 -0.3012
23358SOL    HW172081   8.859   7.583   7.527 -1.4550 -3.0320  1.3103
23358SOL    HW272082   8.727   7.654   7.545 -0.4935 -0.5569 -0.8466
23359SOL     OW72083   9.070   5.400   5.153  0.1957 -0.1851 -0.1978
23359SOL    HW172084   9.154   5.354   5.153 -1.1141 -2.7846  1.5631
23359SOL    HW272085   9.032   5.378   5.068  2.3361  3.4583 -2.3808
23360SOL     OW72086   4.868   5.161   8.787  0.1443  0.8057  0.0424
23360SOL    HW172087   4.796   5.127   8.841 -0.6064  1.0841 -0.7684
23360SOL    HW272088   4.837   5.152   8.697  1.4411  0.2144 -0.3682
23361SOL     OW72089   9.015   1.388   0.433  0.8596  0.2943 -0.0629
23361SOL    HW172090   8.957   1.452   0.474  0.7628 -0.3580  0.8424
23361SOL    HW272091   9.103   1.423   0.448  0.8232  0.0944  0.6669
23362SOL     OW72092   8.607  10.770   4.285 -0.0806  0.7219  0.2188
23362SOL    HW172093   8.630  10.853   4.326 -1.2479  0.1208  2.2558
23362SOL    HW272094   8.642  10.704   4.344 -1.0883 -0.2025 -0.1843
23363SOL     OW72095   1.365   1.058   7.352 -0.2269 -0.4496 -0.2309
23363SOL    HW172096   1.328   1.067   7.264 -2.2734 -1.9867  0.4082
23363SOL    HW272097   1.365   1.148   7.386  0.0333  0.0861 -1.5632
23364SOL     OW72098   5.390  10.925  10.815 -0.1848 -0.5046 -0.4345
23364SOL    HW172099   5.373  10.878  10.733 -1.5593 -0.0611 -0.4263
23364SOL    HW272100   5.310  10.976  10.830 -0.8168 -2.0632  2.1758
23365SOL     OW72101  10.819   6.743   2.480  0.2556 -0.0288 -0.8077
23365SOL    HW172102  10.827   6.705   2.393  2.8116 -0.7598 -0.3506
23365SOL    HW272103  10.725   6.745   2.497 -0.3609  0.5665 -3.7288
23366SOL     OW72104   5.588   3.290   4.791  0.2896  0.0377 -0.1941
23366SOL    HW172105   5.619   3.292   4.701  0.2280 -0.4191 -0.2284
23366SOL    HW272106   5.568   3.381   4.812  1.3851  0.3145 -0.2621
23367SOL     OW72107   2.151  10.436   9.623 -0.5700  0.0131  0.3814
23367SOL    HW172108   2.175  10.353   9.584 -3.4652 -1.0629  0.6509
23367SOL    HW272109   2.160  10.500   9.552 -0.5808 -0.9433 -0.4987
23368SOL     OW72110   7.275   0.449   4.720 -0.0793 -0.3058  0.2440
23368SOL    HW172111   7.260   0.354   4.718  1.2027 -0.5224 -0.0690
23368SOL    HW272112   7.191   0.487   4.695 -0.6986 -1.3472  0.6782
23369SOL     OW72113   0.188   7.022   1.281  0.0812  0.1908 -0.1383
23369SOL    HW172114   0.095   7.019   1.259  0.6029  0.6498 -2.6926
23369SOL    HW272115   0.232   6.975   1.210  1.7739 -0.7720  1.4441
23370SOL     OW72116   4.654   0.065   6.594  0.3516 -0.0217  0.3579
23370SOL    HW172117   4.575   0.012   6.586  0.2231  0.3468 -1.3026
23370SOL    HW272118   4.654   0.120   6.515  2.8315 -0.8023 -0.2822
23371SOL     OW72119   5.130   2.971   1.462 -1.1427 -0.4036  0.2028
23371SOL    HW172120   5.207   3.008   1.418 -0.6851 -1.6000 -0.0451
23371SOL    HW272121   5.131   3.010   1.549 -0.6492  0.1100 -0.0244
23372SOL     OW72122   4.499   4.087   1.623  0.3051 -1.1670 -0.5533
23372SOL    HW172123   4.535   4.093   1.712  0.2279 -1.3941 -0.5083
23372SOL    HW272124   4.435   4.158   1.619  0.8688 -0.6538 -0.6856
23373SOL     OW72125  10.832   4.710   2.504 -0.3263  0.2078 -0.6559
23373SOL    HW172126  10.765   4.709   2.573 -1.7004  0.7826 -1.9160
23373SOL    HW272127  10.816   4.630   2.454  0.3665  0.0260 -0.5974
23374SOL     OW72128   8.653   0.716   9.749  0.3531  0.5429 -0.1010
23374SOL    HW172129   8.600   0.674   9.681  1.7888 -1.9653  0.1754
23374SOL    HW272130   8.591   0.767   9.800 -1.2659  0.0768 -1.5210
23375SOL     OW72131   4.127   7.697   3.446 -0.1464 -0.9856 -0.4633
23375SOL    HW172132   4.052   7.701   3.505  0.2003  0.6082 -0.0876
23375SOL    HW272133   4.203   7.710   3.502  0.3769 -1.9069 -0.9331
23376SOL     OW72134  10.738   0.379   0.413  0.6972 -0.0532 -0.1103
23376SOL    HW172135  10.751   0.284   0.421  1.4655  0.0532 -0.0431
23376SOL    HW272136  10.729   0.394   0.319  1.8901 -0.0411 -0.2404
23377SOL     OW72137   0.535   6.933   7.095  0.5138 -0.0678  0.3312
23377SOL    HW172138   0.504   6.934   7.185  0.6739  1.3115  0.3949
23377SOL    HW272139   0.552   7.025   7.075  2.0295 -0.5198 -0.5778
23378SOL     OW72140   1.697   8.251   1.184 -0.4233 -0.0125  0.4155
23378SOL    HW172141   1.735   8.228   1.269  2.2887  1.2635 -0.3270
23378SOL    HW272142   1.756   8.318   1.149 -1.8527  0.0234 -2.1740
23379SOL     OW72143   4.744   1.027   0.609  0.2590 -0.3111  0.1388
23379SOL    HW172144   4.706   0.989   0.688  0.9005 -1.2558  0.0011
23379SOL    HW272145   4.751   0.954   0.547  0.3509  0.2830 -0.5732
23380SOL     OW72146   6.314   4.850  10.997 -0.1555  1.0500  0.8535
23380SOL    HW172147   6.289   4.775  11.051  2.0233  1.4427  2.5327
23380SOL    HW272148   6.281   4.829  10.910  0.4438 -1.8872  1.2389
23381SOL     OW72149   9.746   6.519  10.064  0.5110  0.3142 -0.4619
23381SOL    HW172150   9.807   6.454  10.029 -1.3394 -2.2672  0.7856
23381SOL    HW272151   9.734   6.494  10.156 -2.2660  0.7830 -0.6118
23382SOL     OW72152   2.619   1.880   9.188 -0.4925  0.1331  0.1010
23382SOL    HW172153   2.708   1.886   9.222  0.8903 -2.6004 -2.5859
23382SOL    HW272154   2.578   1.810   9.239  0.3708 -1.4626 -1.2993
23383SOL     OW72155   8.074   2.174   7.850 -0.6393  0.2725  0.2188
23383SOL    HW172156   8.008   2.238   7.875 -2.0857 -1.5721  1.3917
23383SOL    HW272157   8.100   2.133   7.933 -1.6257 -2.3584 -0.6704
23384SOL     OW72158   8.689   8.568  10.311 -0.5550  0.1068 -0.4454
23384SOL    HW172159   8.648   8.518  10.240  0.0002 -1.8402  0.5360
23384SOL    HW272160   8.615   8.605  10.360 -0.9558  0.9168 -1.5942
23385SOL     OW72161   4.540   3.249   0.867  0.4026  0.5491  0.4543
23385SOL    HW172162   4.580   3.299   0.938  0.3752  1.4798 -0.1614
23385SOL    HW272163   4.473   3.308   0.831  0.2611  0.0091 -0.1909
23386SOL     OW72164   5.723   8.437  10.887  0.1593 -0.1257  0.3543
23386SOL    HW172165   5.803   8.415  10.934 -0.2581 -0.4426  0.9344
23386SOL    HW272166   5.753   8.478  10.805  0.9502 -2.2795 -0.4995
23387SOL     OW72167   7.414   6.859   4.657 -0.7659  0.1728  0.0052
23387SOL    HW172168   7.405   6.776   4.609  4.3845 -0.4274 -0.5092
23387SOL    HW272169   7.447   6.921   4.591 -0.5525  1.4459  1.2706
23388SOL     OW72170   8.565   1.940   4.024 -0.0100  0.3251 -0.5688
23388SOL    HW172171   8.475   1.946   4.057 -0.6172 -0.3475 -2.0267
23388SOL    HW272172   8.562   1.982   3.938  1.2245  0.8276 -0.3878
23389SOL     OW72173   4.812   9.748   8.495  0.4006  0.2508 -0.1153
23389SOL    HW172174   4.856   9.664   8.486  0.4903  0.4240 -1.6988
23389SOL    HW272175   4.874   9.803   8.542  1.6181  0.2810 -1.6939
23390SOL     OW72176   6.148  11.270   0.658  0.2968 -0.2848 -0.3284
23390SOL    HW172177   6.118  11.277   0.568 -1.0960 -0.5124  0.0904
23390SOL    HW272178   6.241  11.291   0.654  0.3428 -0.6508 -1.8646
23391SOL     OW72179   5.696   8.451   2.526  0.3949 -0.2138 -0.0159
23391SOL    HW172180   5.671   8.456   2.618 -0.9503  0.1000 -0.3775
23391SOL    HW272181   5.788   8.478   2.524  0.7621 -1.2690  1.3520
23392SOL     OW72182  11.009  10.699   0.024 -0.6966 -0.2326 -0.4179
23392SOL    HW172183  11.014  10.621   0.079  3.7857 -1.9521 -2.7683
23392SOL    HW272184  11.098  10.734   0.024 -2.1536  4.0503 -0.8250
23393SOL     OW72185   8.982   2.620  10.142  0.4309 -0.2417 -0.1785
23393SOL    HW172186   8.967   2.708  10.175  0.1180  0.7434 -2.7285
23393SOL    HW272187   8.903   2.572  10.165 -0.2832  0.7287 -0.5608
23394SOL     OW72188  11.062   9.748  10.510 -0.4000 -0.0359  0.2462
23394SOL    HW172189  11.102   9.759  10.597 -1.5894 -0.0276  0.8052
23394SOL    HW272190  11.003   9.674  10.520  1.2249 -1.6514 -1.2280
23395SOL     OW72191   7.538   0.176   6.442 -0.1747  0.5453  0.2165
23395SOL    HW172192   7.594   0.099   6.451 -0.4666  0.4412  1.2922
23395SOL    HW272193   7.595   0.250   6.464  1.3303  1.2120 -4.6956
23396SOL     OW72194   6.524   2.744   0.979  0.1761 -0.9238 -0.2585
23396SOL    HW172195   6.533   2.793   1.060 -1.9472 -0.9152  0.0300
23396SOL    HW272196   6.473   2.666   1.004  1.2419 -1.9717 -1.2093
23397SOL     OW72197   8.659   4.054   2.721  0.7505 -0.2931 -0.3273
23397SOL    HW172198   8.677   4.099   2.804 -1.4152 -1.3234  0.7865
23397SOL    HW272199   8.722   3.982   2.719  0.8736 -0.2178  0.4070
23398SOL     OW72200   0.622   8.512   9.364  0.4570 -0.1887 -0.0689
23398SOL    HW172201   0.571   8.509   9.283  0.2081 -0.0930  0.0808
23398SOL    HW272202   0.650   8.422   9.378  0.5650 -0.1913 -0.3003
23399SOL     OW72203   9.199   0.555  10.146  0.8531  0.1028  0.3993
23399SOL    HW172204   9.105   0.549  10.161  0.6371  1.3052 -0.3388
23399SOL    HW272205   9.222   0.472  10.104  0.1186 -0.1625  0.5088
23400SOL     OW72206   2.015   0.190   4.925 -0.2493  0.6508 -0.0691
23400SOL    HW172207   2.007   0.266   4.868  1.5404 -0.1651 -1.5281
23400SOL    HW272208   2.018   0.115   4.866  1.1656 -0.2759  1.0795
23401SOL     OW72209   0.933   7.825   2.367  0.0156  0.2165  0.1215
23401SOL    HW172210   0.928   7.920   2.359  0.2120  0.1816 -0.5245
23401SOL    HW272211   0.927   7.793   2.277 -0.8750 -0.4256  0.3992
23402SOL     OW72212   2.005   9.452   0.606  0.1367 -0.2129 -0.1347
23402SOL    HW172213   2.053   9.520   0.652  2.6853 -1.3561 -0.9415
23402SOL    HW272214   1.963   9.401   0.675 -0.1459  0.9446  0.5812
23403SOL     OW72215   5.471  10.582   2.454 -0.0362  0.1219  0.1127
23403SOL    HW172216   5.427  10.510   2.499 -1.1982  0.1946 -0.8754
23403SOL    HW272217   5.434  10.661   2.493 -1.0322  0.1851 -0.8991
23404SOL     OW72218   2.789   6.080   6.776 -0.2804  0.2257 -0.4677
23404SOL    HW172219   2.750   6.151   6.726 -3.0999  0.5457  1.8990
23404SOL    HW272220   2.837   6.124   6.846  1.1453 -0.2202 -1.1443
23405SOL     OW72221   5.344   2.423  10.877 -0.0865  0.8384  0.4968
23405SOL    HW172222   5.410   2.433  10.946  0.1118  2.6280  0.1032
23405SOL    HW272223   5.379   2.356  10.819  1.2692  1.5397  0.4674
23406SOL     OW72224   8.050   4.019   1.650 -0.5075  0.4808  0.1680
23406SOL    HW172225   8.097   4.102   1.659 -0.3169  0.2488  1.5349
23406SOL    HW272226   8.087   3.963   1.719  1.1197 -1.6078 -2.2325
23407SOL     OW72227  10.126   1.532   8.500 -0.2636  0.0885 -0.3869
23407SOL    HW172228  10.087   1.591   8.436 -1.0203  0.7677  0.6735
23407SOL    HW272229  10.164   1.590   8.566  0.9732 -0.5910 -0.4765
23408SOL     OW72230   3.869   8.294   0.750 -0.1785  0.4398  0.2477
23408SOL    HW172231   3.787   8.299   0.799  0.5681  1.1319  1.4731
23408SOL    HW272232   3.932   8.340   0.804  0.5781  1.7488 -1.6307
23409SOL     OW72233   7.003   8.632   8.242  0.1885 -0.3057  0.2297
23409SOL    HW172234   6.999   8.609   8.149  0.3791 -1.1684  0.4215
23409SOL    HW272235   7.037   8.721   8.244  0.0348 -0.2286 -0.5381
23410SOL     OW72236   0.260  11.130  10.092  0.0282 -0.5046 -0.4333
23410SOL    HW172237   0.183  11.076  10.074 -0.2322 -0.8589  1.4841
23410SOL    HW272238   0.230  11.191  10.160  0.8126  0.9169 -1.3197
23411SOL     OW72239   4.652   2.574   4.976 -0.2544  0.1977 -0.4894
23411SOL    HW172240   4.608   2.659   4.973  0.2080  0.4192 -1.0641
23411SOL    HW272241   4.745   2.594   4.968 -0.0809 -0.3157  0.1265
23412SOL     OW72242  11.016   7.298   9.011 -0.6817  0.4067 -0.2526
23412SOL    HW172243  11.080   7.248   9.062 -1.6117  1.2846  1.9277
23412SOL    HW272244  11.060   7.380   8.991 -0.9076  0.7977  0.7885
23413SOL     OW72245   2.749   7.923   5.093 -0.3624  0.3689 -0.3293
23413SOL    HW172246   2.789   7.989   5.149 -0.7393 -0.1095  0.5133
23413SOL    HW272247   2.776   7.948   5.004  0.5036  0.9506  0.0809
23414SOL     OW72248   4.826  10.838   3.318 -0.0774  0.4895 -0.3348
23414SOL    HW172249   4.755  10.794   3.270 -0.8248 -0.1854  1.3111
23414SOL    HW272250   4.781  10.896   3.379  0.8462  1.2629 -0.3692
23415SOL     OW72251   2.908   8.554  10.467 -0.3534  0.0248  0.0608
23415SOL    HW172252   2.915   8.466  10.505 -2.6993 -0.5182 -0.5753
23415SOL    HW272253   2.814   8.573  10.469  0.0615  2.3949 -0.1423
23416SOL     OW72254   4.974   0.869   3.952  0.1446 -0.2784  0.1681
23416SOL    HW172255   4.935   0.785   3.927 -0.7262  0.2893 -0.4536
23416SOL    HW272256   4.899   0.929   3.955  0.6075  0.2683  1.5770
23417SOL     OW72257   4.805   1.069   4.786 -0.6622 -0.9878  0.0495
23417SOL    HW172258   4.772   1.126   4.856  1.2957  1.5406 -0.9060
23417SOL    HW272259   4.891   1.040   4.818 -1.5055 -3.3021  0.3933
23418SOL     OW72260  10.688   2.912   7.480 -0.3922 -0.6308  0.3042
23418SOL    HW172261  10.668   2.891   7.389 -0.9279 -2.9155  0.8859
23418SOL    HW272262  10.762   2.856   7.502 -1.4843 -1.5641  1.8000
23419SOL     OW72263   3.261   2.439   8.537 -0.4694 -0.1508 -0.3217
23419SOL    HW172264   3.241   2.504   8.470  0.7347  3.4388  2.4718
23419SOL    HW272265   3.175   2.415   8.573 -1.1371 -2.1670 -2.9392
23420SOL     OW72266  11.217   5.069   0.556 -0.0775 -0.3084  0.2721
23420SOL    HW172267  11.197   5.001   0.491  0.4867  0.0995 -0.3463
23420SOL    HW272268  11.226   5.149   0.505 -0.3601  0.1656  0.9524
23421SOL     OW72269   7.047   2.686   6.778  0.0785 -0.3998 -0.3230
23421SOL    HW172270   7.032   2.758   6.839 -0.8542 -1.4155  0.6745
23421SOL    HW272271   7.122   2.638   6.815  0.0910 -0.4999 -0.4734
23422SOL     OW72272  10.335   1.007  10.957 -0.2104 -0.3197  0.2947
23422SOL    HW172273  10.294   1.070  10.897  0.0937 -0.2559  0.1508
23422SOL    HW272274  10.347   1.056  11.039  0.8489  0.1026 -0.0881
23423SOL     OW72275   0.927  10.490   5.006 -0.2273 -0.4224  0.7923
23423SOL    HW172276   0.898  10.493   5.097 -0.8567  0.1973  0.5835
23423SOL    HW272277   0.855  10.531   4.957  1.6445  2.7652  0.4338
23424SOL     OW72278   5.229   0.683   0.206  0.6315  0.1191  0.7851
23424SOL    HW172279   5.199   0.754   0.149 -0.7069  1.4186  2.9725
23424SOL    HW272280   5.149   0.648   0.245  1.5031 -0.6782  1.9173
23425SOL     OW72281   1.038   8.916   8.392 -0.4553  0.2399 -0.0522
23425SOL    HW172282   1.031   9.009   8.414 -2.4005  0.1062  0.0245
23425SOL    HW272283   0.972   8.873   8.447 -0.7121 -0.9782 -1.2708
23426SOL     OW72284  10.085   8.828  10.262 -0.4956  0.1235 -0.8551
23426SOL    HW172285  10.154   8.770  10.297 -1.2009 -0.8873 -1.0825
23426SOL    HW272286  10.107   8.838  10.169 -0.7434 -0.3401 -0.9663
23427SOL     OW72287   0.165  10.302   4.692 -0.1793  0.1355  0.4404
23427SOL    HW172288   0.166  10.273   4.601 -0.5995 -1.8260  1.0095
23427SOL    HW272289   0.246  10.352   4.703 -0.0279  0.2194 -0.9448
23428SOL     OW72290   7.099   4.808   3.499  0.1275 -0.9075  0.0373
23428SOL    HW172291   7.042   4.782   3.572  0.9780 -3.2485 -0.0457
23428SOL    HW272292   7.148   4.883   3.533 -0.4246 -1.1330  1.4138
23429SOL     OW72293   8.091   5.771   3.198 -0.1661  0.0095 -0.4264
23429SOL    HW172294   8.011   5.796   3.245  0.4772  0.6852  0.3433
23429SOL    HW272295   8.072   5.684   3.163 -0.3210 -0.9760  1.9382
23430SOL     OW72296   4.570   1.060   9.132  0.7385  0.4179  0.6666
23430SOL    HW172297   4.516   1.033   9.206 -1.9061  0.0900 -1.2569
23430SOL    HW272298   4.533   1.144   9.104 -0.9109 -1.1730 -2.5145
23431SOL     OW72299  10.955  10.132   1.932  0.0796 -0.5093 -0.2904
23431SOL    HW172300  10.946  10.203   1.869  3.5213 -0.9612 -1.5336
23431SOL    HW272301  10.885  10.070   1.910 -2.2650  1.8586  0.0905
23432SOL     OW72302   7.356   0.836   1.750 -0.5385  0.5491  0.6622
23432SOL    HW172303   7.343   0.815   1.842  1.1641 -0.3615  0.7392
23432SOL    HW272304   7.267   0.846   1.715 -1.2837 -0.8985  1.9973
23433SOL     OW72305  10.914   7.615   8.846 -0.3016  0.0396  0.0633
23433SOL    HW172306  10.865   7.692   8.874 -0.9709 -0.3671  0.0260
23433SOL    HW272307  10.847   7.553   8.817  0.1937 -0.7567  0.5846
23434SOL     OW72308   5.221   0.490   6.847  0.4310  0.1594  0.0699
23434SOL    HW172309   5.200   0.450   6.763 -0.8911 -1.3374  1.0615
23434SOL    HW272310   5.204   0.422   6.912  0.2458  1.6353  1.6607
23435SOL     OW72311   6.755  11.123   4.511  0.7856  0.0120  0.0403
23435SOL    HW172312   6.789  11.209   4.488  4.6127 -1.3468 -0.2462
23435SOL    HW272313   6.762  11.119   4.607  0.1157  0.2043  0.0964
23436SOL     OW72314  10.487   3.446   0.330  0.9949  0.6887 -0.3702
23436SOL    HW172315  10.465   3.495   0.409  1.3910 -1.7968  1.3855
23436SOL    HW272316  10.408   3.450   0.276  0.1654  1.1321  0.8436
23437SOL     OW72317   8.648   0.236   8.378 -0.8330  0.6318 -0.0681
23437SOL    HW172318   8.636   0.155   8.327  1.0906  0.6724 -0.6825
23437SOL    HW272319   8.602   0.303   8.328 -1.5262  0.1110 -0.1369
23438SOL     OW72320  11.147   7.516   5.029 -0.3513  0.2965 -0.2089
23438SOL    HW172321  11.164   7.484   5.118 -1.6940  2.1131  0.7712
23438SOL    HW272322  11.059   7.485   5.009 -0.8073  1.4791 -0.1150
23439SOL     OW72323   2.725   7.416   6.049 -0.1077  0.0484  0.5594
23439SOL    HW172324   2.760   7.418   6.138 -0.4114  1.9329  0.6730
23439SOL    HW272325   2.801   7.402   5.993  0.2965  0.3282  1.0336
23440SOL     OW72326   6.466   3.223   9.393  0.3209 -0.1118  0.4697
23440SOL    HW172327   6.522   3.220   9.315  2.5459  0.4035  1.9767
23440SOL    HW272328   6.419   3.140   9.392  0.7684 -0.3865 -1.0556
23441SOL     OW72329   9.739   6.173   1.893 -0.8946  0.1295  0.3731
23441SOL    HW172330   9.695   6.142   1.813 -0.0558 -0.9339  0.2880
23441SOL    HW272331   9.819   6.216   1.861 -1.2819  1.0254  0.5795
23442SOL     OW72332   5.922   5.698   4.637  0.7754  0.2128 -0.0002
23442SOL    HW172333   5.847   5.720   4.582  0.7261 -0.0418 -0.0352
23442SOL    HW272334   5.963   5.623   4.593  1.3290  0.6504 -0.2404
23443SOL     OW72335   2.001   1.973  11.046  0.6137  0.2579  0.0050
23443SOL    HW172336   1.948   1.966  10.967  2.5403 -0.6847 -1.2808
23443SOL    HW272337   2.014   1.883  11.075  3.0334  0.2472 -0.8553
23444SOL     OW72338   6.603  10.980   9.653  0.3686 -0.9017 -0.9959
23444SOL    HW172339   6.694  10.987   9.681 -0.5426  0.9963  2.1201
23444SOL    HW272340   6.579  10.889   9.672  1.3738 -1.1650 -0.9478
23445SOL     OW72341   9.154   3.687  10.216 -0.1957  0.4878  0.5622
23445SOL    HW172342   9.144   3.771  10.260 -0.6374 -0.3899  2.2248
23445SOL    HW272343   9.186   3.628  10.284 -1.0638 -0.9724 -0.2500
23446SOL     OW72344   1.628   0.698   4.806  0.3515 -0.8296  0.0486
23446SOL    HW172345   1.673   0.707   4.890  0.9730 -1.5430 -0.2005
23446SOL    HW272346   1.692   0.655   4.749  1.1623  2.4423 -1.7660
23447SOL     OW72347   5.825   3.607   9.547  0.2478 -0.0489 -0.3343
23447SOL    HW172348   5.892   3.571   9.489  0.6415  0.6054 -0.2944
23447SOL    HW272349   5.843   3.567   9.632  1.8056  1.5592  0.1461
23448SOL     OW72350   9.377   3.386   8.226  0.3394  0.4774  0.2230
23448SOL    HW172351   9.464   3.361   8.259  0.3480 -0.0824 -0.2126
23448SOL    HW272352   9.377   3.482   8.230  0.2808  0.4395  1.9934
23449SOL     OW72353   0.364  10.142   9.456  0.4239  0.3892 -0.4431
23449SOL    HW172354   0.403  10.215   9.504  1.3912 -0.5775  0.2923
23449SOL    HW272355   0.270  10.163   9.454  0.8358  2.4271 -1.6750
23450SOL     OW72356   0.643   1.850   9.097 -0.7228 -0.1357  0.0440
23450SOL    HW172357   0.622   1.775   9.041  0.1790 -0.1543 -0.2829
23450SOL    HW272358   0.591   1.922   9.061  0.2896 -0.0025 -1.1910
23451SOL     OW72359   0.882   7.299   3.414  0.0885  0.9965 -0.1342
23451SOL    HW172360   0.892   7.204   3.423 -0.1773  1.0574  0.9539
23451SOL    HW272361   0.825   7.325   3.487 -0.1031  1.9511 -0.6016
23452SOL     OW72362   7.778   0.340   4.175  0.2952  0.3234 -0.1498
23452SOL    HW172363   7.723   0.418   4.179 -0.7620 -0.4546  1.4566
23452SOL    HW272364   7.723   0.274   4.134  0.4068 -0.1736  0.4906
23453SOL     OW72365  11.147   5.430   6.761  0.3918  0.7841  0.6167
23453SOL    HW172366  11.210   5.421   6.690  0.0765 -1.9249  0.5735
23453SOL    HW272367  11.197   5.468   6.833  2.3504 -1.7486  0.7611
23454SOL     OW72368   4.371   0.340   9.793  0.5781  0.4680 -0.7938
23454SOL    HW172369   4.281   0.307   9.789  1.3098 -1.6563 -0.6235
23454SOL    HW272370   4.393   0.358   9.701  0.7944 -1.4691 -1.1750
23455SOL     OW72371   6.261   4.346   8.858 -0.4902  0.1412  0.0880
23455SOL    HW172372   6.329   4.308   8.914 -1.3171  1.6688  2.2825
23455SOL    HW272373   6.228   4.273   8.806  0.9426 -1.1810  0.9655
23456SOL     OW72374   7.300   0.537   5.642 -0.2250  0.3589 -0.0978
23456SOL    HW172375   7.216   0.495   5.660  0.6122 -0.5876  2.0668
23456SOL    HW272376   7.339   0.550   5.729  2.0358  0.3679 -1.0440
23457SOL     OW72377   2.928   6.416   2.163  0.6809  0.1362 -0.4930
23457SOL    HW172378   2.848   6.450   2.123  1.2450  0.5017 -1.3562
23457SOL    HW272379   2.951   6.481   2.229  0.1437 -0.0873 -0.0856
23458SOL     OW72380  11.279   5.965  11.095  0.4249  0.1193  0.4859
23458SOL    HW172381  11.278   5.909  11.017 -0.2592 -0.3329  0.8102
23458SOL    HW272382  11.370   5.965  11.123  0.3021 -1.6077  1.0102
23459SOL     OW72383   2.470   5.579   9.006  0.3440  1.0730 -0.8286
23459SOL    HW172384   2.424   5.585   9.089 -0.0983  1.2830 -1.0866
23459SOL    HW272385   2.553   5.535   9.027 -0.1587  0.2910 -0.4428
23460SOL     OW72386   1.017   2.737   7.103 -0.2430 -0.0655 -0.7009
23460SOL    HW172387   0.977   2.734   7.190  1.4471  0.0486  0.1387
23460SOL    HW272388   0.956   2.787   7.050 -0.5681  1.3023  0.8691
23461SOL     OW72389   0.195   0.277   4.685 -0.4820  0.0667  0.1633
23461SOL    HW172390   0.290   0.292   4.689 -0.3882 -0.7568  2.5378
23461SOL    HW272391   0.157   0.363   4.703 -0.3830  1.1902 -3.9020
23462SOL     OW72392   6.527   5.328   0.782  0.1492 -0.1191  0.4861
23462SOL    HW172393   6.581   5.394   0.739 -0.9952  1.6777  1.6845
23462SOL    HW272394   6.476   5.289   0.711 -0.3370  1.4605 -0.0745
23463SOL     OW72395   6.808   6.913   1.810 -0.2989  0.7959 -0.1078
23463SOL    HW172396   6.728   6.940   1.765 -0.0485  1.4371 -0.1714
23463SOL    HW272397   6.878   6.955   1.761  0.2981 -1.7092 -1.5864
23464SOL     OW72398   8.279   2.714   1.044 -0.3092 -0.5403 -0.2456
23464SOL    HW172399   8.208   2.763   1.085 -0.1176 -0.2747 -0.2324
23464SOL    HW272400   8.298   2.644   1.106 -1.1211 -1.1158 -0.6221
23465SOL     OW72401   8.268   4.539   3.664  0.5004 -0.0820 -0.1597
23465SOL    HW172402   8.288   4.601   3.593 -0.0584 -0.2921 -0.5038
23465SOL    HW272403   8.263   4.454   3.622 -1.8542  0.0411 -0.2491
23466SOL     OW72404   3.874   3.311   1.116  0.5522  0.0494 -0.0404
23466SOL    HW172405   3.840   3.221   1.118  0.4270  0.0846 -0.5487
23466SOL    HW272406   3.797   3.365   1.099  0.6896  0.2210 -0.1110
23467SOL     OW72407   1.342   0.094   1.669 -0.1758 -0.3599  0.0488
23467SOL    HW172408   1.291   0.060   1.596 -0.9174  1.9123 -0.5900
23467SOL    HW272409   1.293   0.067   1.747  0.0147 -1.8540 -0.3352
23468SOL     OW72410   2.477   8.818   4.982  0.3079  0.0011  0.1700
23468SOL    HW172411   2.532   8.773   4.918 -0.1034 -0.9557  0.4641
23468SOL    HW272412   2.534   8.832   5.057  0.9556  1.6361 -0.5733
23469SOL     OW72413   3.975   1.731   8.195  0.3299 -0.3485 -0.6847
23469SOL    HW172414   3.941   1.698   8.112  0.4147  1.2878 -1.4005
23469SOL    HW272415   4.066   1.754   8.177  0.5928 -0.7197  0.0926
23470SOL     OW72416   2.624   1.428   1.325  0.3034  0.4294 -0.2104
23470SOL    HW172417   2.618   1.508   1.272  0.1752 -0.2896 -1.3295
23470SOL    HW272418   2.614   1.357   1.261  0.7100 -0.4832  0.7177
23471SOL     OW72419   0.549   4.097   6.743  0.6279  0.0505 -0.1471
23471SOL    HW172420   0.589   4.020   6.703  0.3229 -0.2228  0.0715
23471SOL    HW272421   0.481   4.062   6.800 -1.0803  0.5729 -1.7819
23472SOL     OW72422   0.809   3.467   8.384 -0.1118 -0.1703 -1.1023
23472SOL    HW172423   0.757   3.410   8.440  0.4393 -0.3954 -0.8101
23472SOL    HW272424   0.838   3.538   8.442  0.7689 -0.6017 -0.9975
23473SOL     OW72425   3.045   8.475   8.600 -0.0022 -0.6574 -0.1475
23473SOL    HW172426   2.962   8.445   8.563 -1.0095  1.5101  0.2010
23473SOL    HW272427   3.020   8.541   8.665  2.0063  0.7016 -0.6414
23474SOL     OW72428   1.072   8.158   8.328 -0.6083 -0.1073  0.4904
23474SOL    HW172429   1.095   8.220   8.398  2.0039 -0.8927  0.4514
23474SOL    HW272430   1.149   8.158   8.271 -1.6761 -1.3531 -1.0118
23475SOL     OW72431   8.906   8.405   0.229 -1.1245  0.0972  0.1889
23475SOL    HW172432   8.812   8.386   0.233 -0.9958 -0.4486  0.6043
23475SOL    HW272433   8.946   8.325   0.196 -1.0657  1.1694 -2.6810
23476SOL     OW72434  10.985   8.640  10.342 -0.1454  0.1406  0.0074
23476SOL    HW172435  10.947   8.716  10.387 -0.8348 -0.0823 -0.1928
23476SOL    HW272436  10.914   8.607  10.287  1.0467  1.1992 -2.3076
23477SOL     OW72437   7.822   0.344   2.933  0.1689  0.3124  0.6610
23477SOL    HW172438   7.812   0.373   2.842 -0.8131 -2.1840 -0.1059
23477SOL    HW272439   7.902   0.387   2.962  0.6080  1.0628 -1.4392
23478SOL     OW72440   3.056   6.196   1.687 -0.1123 -0.7653 -0.1762
23478SOL    HW172441   3.124   6.139   1.649 -1.5767 -2.5608 -0.2391
23478SOL    HW272442   3.049   6.268   1.625  1.5252 -0.6876 -0.3203
23479SOL     OW72443   7.095   7.833   3.008  0.4338  0.4947  0.1590
23479SOL    HW172444   6.999   7.837   3.014  0.4585  1.2819  0.0584
23479SOL    HW272445   7.112   7.748   2.967 -0.1980  0.1387  0.5942
23480SOL     OW72446  10.884   2.122  10.686  0.1613 -0.3540 -0.7020
23480SOL    HW172447  10.964   2.075  10.662  0.1899  0.7522 -3.1049
23480SOL    HW272448  10.834   2.126  10.604 -2.0293 -0.3778  0.5834
23481SOL     OW72449   5.770   7.621   8.151 -0.1024 -0.6137 -0.9121
23481SOL    HW172450   5.728   7.536   8.168  1.2083 -0.8385  1.9068
23481SOL    HW272451   5.706   7.686   8.179 -0.2700 -0.7937 -0.8754
23482SOL     OW72452   4.423   7.219   9.476  0.7615  0.0266  0.3550
23482SOL    HW172453   4.443   7.302   9.519  0.4362  1.7289 -2.4657
23482SOL    HW272454   4.439   7.237   9.383 -3.1522 -1.7765 -0.8816
23483SOL     OW72455   7.636   8.659   4.646 -0.3065  0.3960  0.0640
23483SOL    HW172456   7.570   8.599   4.681 -0.7632  0.6240 -0.3853
23483SOL    HW272457   7.712   8.604   4.627  0.3655  0.4123  2.3857
23484SOL     OW72458   3.915   5.806  10.938 -0.2520  0.1855 -0.2142
23484SOL    HW172459   3.849   5.871  10.961 -0.1771 -0.3687  1.6889
23484SOL    HW272460   3.934   5.760  11.019  1.3263 -0.7454 -1.0468
23485SOL     OW72461   3.011   1.896   9.537  0.0077  0.0745  0.3638
23485SOL    HW172462   2.976   1.807   9.528  2.3490 -1.2270  2.7732
23485SOL    HW272463   2.977   1.927   9.621 -0.0411  1.1344 -0.0251
23486SOL     OW72464   8.690   5.134   7.354 -0.3710  0.1700 -0.0100
23486SOL    HW172465   8.632   5.172   7.420 -0.9714 -2.4813  1.1271
23486SOL    HW272466   8.638   5.137   7.273 -1.1966 -0.0543  0.4918
23487SOL     OW72467   2.341   5.832   9.538  0.3152  0.0160  0.0722
23487SOL    HW172468   2.286   5.839   9.617  1.2488 -0.8170  0.8200
23487SOL    HW272469   2.346   5.922   9.506 -1.6062  0.1017 -0.1301
23488SOL     OW72470   2.303   4.733  10.618 -0.2454  0.1577  0.4800
23488SOL    HW172471   2.392   4.704  10.640  0.0546  1.2588  0.7551
23488SOL    HW272472   2.259   4.743  10.702 -0.7312 -0.6592  0.3335
23489SOL     OW72473   8.484  11.125   0.010  0.2112  0.4184 -0.3425
23489SOL    HW172474   8.574  11.126  -0.024  0.2109 -0.5728 -0.3866
23489SOL    HW272475   8.435  11.075  -0.054  0.0376 -0.7645  0.6755
23490SOL     OW72476   5.439   0.185   0.890 -0.0217  0.5255  0.2409
23490SOL    HW172477   5.412   0.277   0.890  1.3973  0.9550  0.5295
23490SOL    HW272478   5.489   0.174   0.810 -0.6074 -0.1436 -0.0486
23491SOL     OW72479   7.900   5.965   3.185  0.2515 -0.1923  0.2531
23491SOL    HW172480   7.882   5.919   3.103 -2.5902  0.4322  0.4249
23491SOL    HW272481   7.974   6.021   3.165  1.7495 -2.4290 -0.8809
23492SOL     OW72482   8.879   6.684   4.583 -0.0615  0.1317  0.1965
23492SOL    HW172483   8.801   6.736   4.565 -1.6094 -1.7393  1.1981
23492SOL    HW272484   8.880   6.674   4.679  0.8704 -0.6732  0.1236
23493SOL     OW72485   8.976   9.568   4.019 -0.2079 -0.1775 -0.4633
23493SOL    HW172486   8.911   9.504   3.988  0.6945 -1.8868  1.0108
23493SOL    HW272487   8.923   9.640   4.054 -1.2488  0.0407 -2.3191
23494SOL     OW72488  10.266   9.121   1.520  0.3903 -0.2294 -0.4946
23494SOL    HW172489  10.205   9.194   1.518 -0.3071 -0.6493  1.9268
23494SOL    HW272490  10.347   9.159   1.555 -0.2076 -0.6753  1.5247
23495SOL     OW72491  10.861   1.203   8.765 -0.2434  0.4075 -0.0062
23495SOL    HW172492  10.812   1.284   8.748 -1.0988 -0.3188 -1.0857
23495SOL    HW272493  10.802   1.133   8.737  1.3375 -0.5153 -1.1625
23496SOL     OW72494   5.722   6.932   9.224  0.0129 -0.2663  0.1329
23496SOL    HW172495   5.717   6.855   9.281  0.0206  0.7861  1.6218
23496SOL    HW272496   5.791   6.986   9.262  0.2923  0.3017 -1.1305
23497SOL     OW72497  10.766   6.919   3.754  0.9151  0.1049  0.4435
23497SOL    HW172498  10.816   6.875   3.685 -0.8018 -1.8310  0.3043
23497SOL    HW272499  10.703   6.973   3.707 -0.0996 -1.0331  0.4355
23498SOL     OW72500   8.074   8.279   0.607 -0.0933  0.9598  0.1339
23498SOL    HW172501   7.985   8.244   0.613  0.0166 -0.3007 -3.3123
23498SOL    HW272502   8.062   8.372   0.587 -0.6973  0.6830 -0.8693
23499SOL     OW72503   6.158   3.961   1.643  0.5185  0.1922  0.1526
23499SOL    HW172504   6.133   3.875   1.678  0.8353  1.2992  3.4837
23499SOL    HW272505   6.166   3.947   1.549  1.0940 -3.5589  0.5876
23500SOL     OW72506   6.802   8.484   0.007 -0.6372  0.6222 -0.3719
23500SOL    HW172507   6.823   8.464  -0.084 -0.7003  0.1005 -0.2714
23500SOL    HW272508   6.887   8.487   0.052 -0.6491  0.2204 -0.3167
23501SOL     OW72509  11.035   7.731   5.425  0.3749  0.3431  0.0285
23501SOL    HW172510  11.011   7.762   5.512  0.2291 -0.9831  0.4764
23501SOL    HW272511  11.116   7.778   5.405  0.1617  1.0033  0.6768
23502SOL     OW72512   2.079   0.543  10.435 -0.6557  0.8876 -0.2179
23502SOL    HW172513   2.086   0.477  10.504 -0.1098 -1.4037 -2.2829
23502SOL    HW272514   2.170   0.562  10.411 -0.8245  1.9758 -0.0362
23503SOL     OW72515   7.414   7.819   2.426  0.4389  0.3388  0.4601
23503SOL    HW172516   7.319   7.821   2.434  0.5006  2.6567  1.1959
23503SOL    HW272517   7.444   7.788   2.511  0.3876  0.5214  0.5433
23504SOL     OW72518   3.644   6.954   2.364  0.4114 -0.0925  0.2961
23504SOL    HW172519   3.598   7.027   2.406 -1.0522 -0.0994 -1.1900
23504SOL    HW272520   3.691   6.911   2.435  1.6315  2.4820  1.2013
23505SOL     OW72521   7.196   6.568  11.087 -0.6079  0.2595 -0.2221
23505SOL    HW172522   7.139   6.607  11.020 -1.6123 -0.0222  0.4537
23505SOL    HW272523   7.283   6.604  11.068 -1.5259  3.2249  0.6474
23506SOL     OW72524   3.346  10.547   5.753  0.4080  0.0989 -0.1854
23506SOL    HW172525   3.284  10.524   5.683  0.8146  0.6536 -0.7382
23506SOL    HW272526   3.356  10.642   5.746 -0.1994  0.2924  1.1836
23507SOL     OW72527   4.758   4.178   1.117  0.2947 -0.5593 -0.2016
23507SOL    HW172528   4.724   4.242   1.055  1.2363  1.3962  1.1925
23507SOL    HW272529   4.848   4.162   1.087  1.2896  1.5519  1.3773
23508SOL     OW72530   5.728   0.967  10.732 -0.3162 -0.3834 -0.4322
23508SOL    HW172531   5.694   0.901  10.672  0.0774 -1.4796  0.5168
23508SOL    HW272532   5.823   0.963  10.720 -0.1313 -1.5272  1.1466
23509SOL     OW72533   6.029   4.242   8.596 -0.0706 -0.3003 -0.5432
23509SOL    HW172534   5.971   4.180   8.551 -1.5981 -0.0118  0.8874
23509SOL    HW272535   6.038   4.316   8.535 -1.4963 -0.2196 -0.6881
23510SOL     OW72536   1.696   8.696   4.684 -0.2687 -0.1939  0.1139
23510SOL    HW172537   1.682   8.683   4.590  1.8266 -1.1079 -0.1326
23510SOL    HW272538   1.715   8.790   4.692 -0.3351 -0.1342 -0.3861
23511SOL     OW72539   6.568   9.937   3.288  1.1603 -0.0338  0.3317
23511SOL    HW172540   6.505   9.968   3.224  3.3684  0.9552 -1.4967
23511SOL    HW272541   6.566   9.841   3.280 -0.0093 -0.0075  0.2545
23512SOL     OW72542   2.535   0.485   3.102 -0.4668  0.1036  0.3650
23512SOL    HW172543   2.543   0.566   3.153  1.5228 -0.6007  1.3148
23512SOL    HW272544   2.510   0.419   3.166  2.1292 -0.8080  0.5490
23513SOL     OW72545   4.246   1.721   7.450  0.0943 -0.2773  0.2769
23513SOL    HW172546   4.206   1.792   7.400  2.3005 -0.1147 -1.4421
23513SOL    HW272547   4.326   1.759   7.486  0.6499 -1.5399  0.4247
23514SOL     OW72548  10.108   8.381   7.650 -0.4371 -0.4652  0.8486
23514SOL    HW172549  10.105   8.286   7.654 -2.1203 -0.4068  1.9666
23514SOL    HW272550  10.065   8.403   7.567  0.8678 -0.6907  0.0991
23515SOL     OW72551   7.720   4.744   4.365  0.1550 -0.0187  0.0105
23515SOL    HW172552   7.691   4.699   4.444  0.6055 -2.1291 -0.9541
23515SOL    HW272553   7.641   4.748   4.310  0.0912  0.4835  0.1363
23516SOL     OW72554   5.427   5.060  10.629  0.4670  0.0717  0.0631
23516SOL    HW172555   5.368   5.036  10.700 -0.0470  0.9967 -0.0447
23516SOL    HW272556   5.374   5.114  10.571  1.6463  1.7072  0.4400
23517SOL     OW72557   8.220   2.418   5.893  0.3636 -0.1495  0.2246
23517SOL    HW172558   8.153   2.486   5.881 -0.0133 -0.3366  1.1335
23517SOL    HW272559   8.203   2.384   5.981  1.2482 -0.6586  0.2081
23518SOL     OW72560   5.973   7.098   9.313  0.2374 -0.0151  0.0188
23518SOL    HW172561   5.929   7.146   9.383 -0.3181 -0.9213  0.3186
23518SOL    HW272562   6.056   7.071   9.351 -0.4237 -1.2599  0.6792
23519SOL     OW72563  10.242   8.809   6.246  0.4215  0.6581  0.1480
23519SOL    HW172564  10.285   8.723   6.251 -0.7140  0.0636  5.2374
23519SOL    HW272565  10.310   8.871   6.269  0.6620  0.8908 -1.1247
23520SOL     OW72566  10.498   8.271   1.523 -1.1823  0.7879  0.2328
23520SOL    HW172567  10.556   8.312   1.460 -0.2636  0.1776  0.6551
23520SOL    HW272568  10.466   8.343   1.577  0.1388  1.0136  0.7523
23521SOL     OW72569   6.642   1.564   0.062 -0.2831 -0.6173  0.5779
23521SOL    HW172570   6.725   1.569   0.013 -0.3805 -2.7753  0.0808
23521SOL    HW272571   6.610   1.476   0.044 -2.2168 -0.1549  1.5693
23522SOL     OW72572  10.000   5.551   6.334 -0.0234 -0.1729 -0.1818
23522SOL    HW172573   9.935   5.492   6.372  0.0111 -1.4157 -1.9237
23522SOL    HW272574  10.079   5.497   6.328  0.8914  0.9918  0.9075
23523SOL     OW72575   8.989  11.155  10.783 -0.3252  0.4361 -0.6750
23523SOL    HW172576   8.980  11.140  10.877 -0.4189  0.9754 -0.5936
23523SOL    HW272577   9.014  11.069  10.747 -1.7841 -0.1475 -0.3652
23524SOL     OW72578  11.241   5.661   5.443  0.3850 -0.6121 -0.1001
23524SOL    HW172579  11.303   5.665   5.516 -2.6241 -0.5913  2.7010
23524SOL    HW272580  11.257   5.576   5.403  1.4693 -1.1116  1.2913
23525SOL     OW72581   3.592   1.112   9.546 -0.5509  0.6581  0.0725
23525SOL    HW172582   3.537   1.188   9.568  0.2028  0.7471  1.8528
23525SOL    HW272583   3.562   1.043   9.606 -1.4539 -0.6157 -1.7538
23526SOL     OW72584  10.059   8.807   5.304 -0.7014  0.0439 -0.1049
23526SOL    HW172585  10.134   8.864   5.321 -0.9792 -0.0972  1.7711
23526SOL    HW272586  10.058   8.746   5.378 -2.7551  0.1507  0.0043
23527SOL     OW72587   5.705   0.012   8.613  0.0725  0.1704  0.3331
23527SOL    HW172588   5.673   0.016   8.523 -0.7591 -0.8689  0.5571
23527SOL    HW272589   5.711  -0.082   8.632 -0.9152  0.3653  1.7393
23528SOL     OW72590   3.244   5.965   7.071 -0.8049  0.2584 -0.7036
23528SOL    HW172591   3.244   5.932   6.982  2.9595 -1.9808 -0.0923
23528SOL    HW272592   3.215   5.891   7.124 -2.9881  1.5540  0.0524
23529SOL     OW72593   1.118  10.158   8.590  0.0187 -0.5862 -0.7501
23529SOL    HW172594   1.083  10.156   8.502 -4.3830 -2.1565  0.7563
23529SOL    HW272595   1.133  10.066   8.612  0.2663 -0.2910  0.4001
23530SOL     OW72596   2.205   0.203   5.106  0.5311  0.1195 -0.0109
23530SOL    HW172597   2.183   0.220   5.014 -0.7620 -0.1986  0.2205
23530SOL    HW272598   2.208   0.290   5.146  1.7303  0.3105 -0.4648
23531SOL     OW72599   4.330   6.628  10.397 -0.7182  0.4505  0.2824
23531SOL    HW172600   4.380   6.708  10.410  0.6476  0.2112 -2.6534
23531SOL    HW272601   4.291   6.638  10.310 -0.1582 -2.1903 -0.3658
23532SOL     OW72602   7.327   7.722  11.031 -0.3002  0.3153  0.3164
23532SOL    HW172603   7.347   7.641  10.984  0.2945  0.2101  0.7347
23532SOL    HW272604   7.306   7.786  10.963 -0.9866 -0.2464 -0.0049
23533SOL     OW72605   1.838   0.663   3.097 -0.0710  0.6288  0.8530
23533SOL    HW172606   1.899   0.673   3.024 -0.3716  0.0621  0.5214
23533SOL    HW272607   1.757   0.703   3.066  0.1830  1.5790  1.3759
23534SOL     OW72608   3.545   9.374   3.905 -0.0366  0.2018  0.3596
23534SOL    HW172609   3.547   9.287   3.865 -1.2265  1.0256 -1.6957
23534SOL    HW272610   3.463   9.376   3.955 -0.4992  0.4294 -0.3887
23535SOL     OW72611   7.845   3.851   1.018 -0.0145 -0.5139  0.8779
23535SOL    HW172612   7.887   3.766   1.009 -1.3954 -0.9930 -2.7083
23535SOL    HW272613   7.811   3.870   0.931 -0.4408  3.3949  1.7084
23536SOL     OW72614   3.922   4.961   9.415  0.5866 -0.0928  0.1703
23536SOL    HW172615   3.967   4.922   9.340  0.2558 -1.4998  0.6701
23536SOL    HW272616   3.988   5.017   9.456  0.9507  0.2257 -0.8116
23537SOL     OW72617  10.709  10.455   7.908 -0.4492  0.1352 -0.0210
23537SOL    HW172618  10.630  10.416   7.873 -0.8772  1.4497 -0.5663
23537SOL    HW272619  10.738  10.394   7.976 -2.6688  0.2736  1.1269
23538SOL     OW72620   2.732   0.731   5.087  0.7042 -0.3024 -0.2048
23538SOL    HW172621   2.704   0.798   5.025  0.5938  2.0484  2.1918
23538SOL    HW272622   2.825   0.718   5.069  1.3626  2.4041  0.7770
23539SOL     OW72623   2.897   5.278   8.510  0.2259 -0.3052  0.1086
23539SOL    HW172624   2.919   5.188   8.535  1.0059 -0.5221 -1.2894
23539SOL    HW272625   2.821   5.269   8.452  0.0952 -0.0209  0.2305
23540SOL     OW72626   6.575   5.408   8.794 -1.2938 -0.4400 -0.2658
23540SOL    HW172627   6.493   5.362   8.774 -2.9532  1.3444  1.8725
23540SOL    HW272628   6.616   5.423   8.709 -2.2485 -2.9542 -1.2700
23541SOL     OW72629   0.149   0.668   1.310 -0.5482  0.6154 -0.4675
23541SOL    HW172630   0.241   0.647   1.293 -1.2724 -2.1207 -1.5076
23541SOL    HW272631   0.131   0.627   1.395 -1.0428  0.3444 -0.7031
23542SOL     OW72632   2.122   3.137   4.516  0.5923 -0.5226  0.1516
23542SOL    HW172633   2.197   3.106   4.566  0.4844 -0.7737  0.1613
23542SOL    HW272634   2.087   3.211   4.567  3.3549  2.4705 -1.9297
23543SOL     OW72635   2.394  11.145   6.738 -0.1041 -0.5805  0.8036
23543SOL    HW172636   2.390  11.116   6.647 -0.3864 -0.3894  0.7556
23543SOL    HW272637   2.473  11.103   6.773  0.3214 -0.1957  0.3144
23544SOL     OW72638   4.701  10.812  10.320  0.4199 -0.0047 -0.2416
23544SOL    HW172639   4.722  10.738  10.264 -1.5093 -0.6514 -0.1795
23544SOL    HW272640   4.712  10.889  10.264 -2.0477 -0.6673 -1.7695
23545SOL     OW72641   6.985  11.074   9.907 -0.1958 -0.3377 -0.6238
23545SOL    HW172642   7.007  10.996   9.958  2.4677  0.8809  0.2999
23545SOL    HW272643   6.928  11.125   9.964 -1.2438 -1.1697 -0.8897
23546SOL     OW72644   4.844   0.529  10.385 -0.1117 -0.2441  0.4915
23546SOL    HW172645   4.831   0.607  10.331  0.3253  0.1722  0.9739
23546SOL    HW272646   4.829   0.455  10.326 -1.7125  0.1946  0.3035
23547SOL     OW72647   6.650   5.367   1.867 -0.0653 -0.3756  0.1848
23547SOL    HW172648   6.666   5.441   1.926  0.1742 -0.3277  0.0630
23547SOL    HW272649   6.737   5.344   1.834 -0.0828 -1.0029  0.5680
23548SOL     OW72650   9.167   5.620   6.106 -0.3701  1.0268  0.1024
23548SOL    HW172651   9.149   5.533   6.143  1.6935  0.8772  0.8914
23548SOL    HW272652   9.165   5.606   6.011 -0.7589  0.2815  0.2077
23549SOL     OW72653   7.415   1.005   9.195  0.5618  0.3186 -0.2700
23549SOL    HW172654   7.406   0.912   9.215 -1.4334  0.5216 -0.0555
23549SOL    HW272655   7.507   1.015   9.170  1.0805 -1.4928  0.7312
23550SOL     OW72656   7.068   9.333   5.211 -0.0514  0.1554  0.3852
23550SOL    HW172657   7.150   9.285   5.198 -0.4787 -0.1069 -1.7479
23550SOL    HW272658   7.096   9.422   5.234  0.9772  0.6420 -2.3590
23551SOL     OW72659  10.574  10.087   3.946  0.0235  0.0578  0.6373
23551SOL    HW172660  10.583  10.171   3.991  0.8254 -0.2909  1.1478
23551SOL    HW272661  10.485  10.089   3.910 -0.6266  0.3791  2.1673
23552SOL     OW72662   2.380   1.506  10.924  0.5634  0.3681 -0.2522
23552SOL    HW172663   2.428   1.468  10.850  1.7135 -0.6843  0.9689
23552SOL    HW272664   2.449   1.534  10.985 -0.3208 -0.9079  1.4261
23553SOL     OW72665   4.317   4.904   3.564 -0.2381 -0.6883  1.1143
23553SOL    HW172666   4.353   4.820   3.593  0.8953  0.4456  3.2077
23553SOL    HW272667   4.249   4.925   3.629 -1.5556 -0.6237 -0.2170
23554SOL     OW72668   8.434   7.949   0.094  0.4615  0.0566 -0.0524
23554SOL    HW172669   8.431   7.983   0.005 -1.5100  1.1538  0.3768
23554SOL    HW272670   8.452   7.855   0.084 -0.7126 -0.0221 -1.6698
23555SOL     OW72671   7.408  10.721  10.565 -0.6703 -0.2437 -0.4464
23555SOL    HW172672   7.336  10.734  10.627  0.3966 -0.0667  0.7876
23555SOL    HW272673   7.487  10.724  10.619  0.2621 -0.5922 -1.7534
23556SOL     OW72674   1.584   0.256   1.807 -0.4475  0.2029 -0.0149
23556SOL    HW172675   1.490   0.243   1.804 -0.3806 -0.0369 -2.6262
23556SOL    HW272676   1.598   0.340   1.764  0.6854 -1.0942 -2.3675
23557SOL     OW72677   9.839   6.948   5.913  0.6057 -0.0019 -0.5193
23557SOL    HW172678   9.884   7.005   5.975 -2.3133  0.9732  0.8712
23557SOL    HW272679   9.857   6.860   5.943 -1.6521  0.4353  2.6363
23558SOL     OW72680   3.040   0.767  11.265  0.3678 -0.4379  0.3273
23558SOL    HW172681   3.062   0.789  11.355 -0.4302  1.3132  0.1383
23558SOL    HW272682   2.977   0.695  11.273  1.6584 -1.5419  1.0559
23559SOL     OW72683   5.970   2.085   4.872  0.1425  0.1880 -0.2300
23559SOL    HW172684   5.904   2.128   4.818  1.4594  0.7693 -1.4475
23559SOL    HW272685   6.032   2.048   4.809  2.0854  1.4488  0.8512
23560SOL     OW72686   6.096  10.731   3.809  0.0606 -0.1102 -0.3604
23560SOL    HW172687   6.039  10.713   3.734  0.8388  1.2660 -1.3407
23560SOL    HW272688   6.103  10.826   3.810 -0.4261 -0.0529  1.8825
23561SOL     OW72689  10.184  11.037   7.399 -0.3409  0.1014  0.3840
23561SOL    HW172690  10.137  11.107   7.354 -1.6726 -1.1643 -0.2718
23561SOL    HW272691  10.128  10.960   7.389  0.6466 -0.8626  1.8561
23562SOL     OW72692   3.418   4.017   1.138  0.3763  0.6945  0.9102
23562SOL    HW172693   3.325   4.039   1.141 -0.1529 -1.3356  0.7738
23562SOL    HW272694   3.435   3.975   1.222  0.1985 -2.2515 -0.4003
23563SOL     OW72695   9.370   6.355   8.358 -0.0866  0.7268  0.3913
23563SOL    HW172696   9.287   6.317   8.330  0.3572  0.9966 -1.3514
23563SOL    HW272697   9.437   6.304   8.312  0.6707  1.2898  0.8369
23564SOL     OW72698   8.405   2.028   8.431 -0.0087  0.3329  0.8163
23564SOL    HW172699   8.470   2.002   8.366 -0.0076  1.2781  0.4290
23564SOL    HW272700   8.448   2.097   8.481 -0.7631  1.0620  0.4719
23565SOL     OW72701   0.607   7.279   5.699 -0.6538  0.5554 -0.2681
23565SOL    HW172702   0.607   7.255   5.607  0.5133  2.4818 -0.8341
23565SOL    HW272703   0.551   7.356   5.704 -0.2343  0.8282  0.5161
23566SOL     OW72704   9.294   0.459   9.542  0.2908 -0.2002  0.4456
23566SOL    HW172705   9.257   0.543   9.516  0.8339 -0.4143 -1.1218
23566SOL    HW272706   9.349   0.479   9.617  0.1084  0.7785  0.3342
23567SOL     OW72707   7.943   0.300   0.198  0.0648  0.0385  0.3564
23567SOL    HW172708   8.015   0.342   0.151 -0.8798  1.1347 -0.1647
23567SOL    HW272709   7.972   0.210   0.211  1.4591  0.4172  0.0276
23568SOL     OW72710   3.829  10.250   2.284  0.3751  0.8126  0.1108
23568SOL    HW172711   3.849  10.157   2.293  1.0112  0.9791  0.4389
23568SOL    HW272712   3.768  10.268   2.355  0.1989  0.6353  0.0069
23569SOL     OW72713   3.981   1.419   9.174 -0.3294 -0.4189  0.0463
23569SOL    HW172714   3.907   1.439   9.117  0.8082  0.5408 -1.1563
23569SOL    HW272715   3.965   1.329   9.204 -0.8615 -1.0610 -1.9918
23570SOL     OW72716   9.670   9.176   0.034  0.1116  0.3303 -0.2663
23570SOL    HW172717   9.746   9.120   0.016  1.2281  1.6264  0.2508
23570SOL    HW272718   9.666   9.181   0.130  0.6730  1.9438 -0.3029
23571SOL     OW72719   4.462  10.714   3.005 -0.0678 -0.5014  0.2702
23571SOL    HW172720   4.377  10.754   3.026 -1.6165 -2.9216 -0.9272
23571SOL    HW272721   4.442  10.621   2.992  2.3625 -0.7785 -2.4050
23572SOL     OW72722   6.887   4.253   6.224  0.5417  0.1737  0.4887
23572SOL    HW172723   6.975   4.218   6.238  0.5370 -0.4178 -0.8589
23572SOL    HW272724   6.844   4.189   6.168  0.6876  2.4922 -2.5019
23573SOL     OW72725   3.249  10.240   8.376  0.2969  0.1956 -0.4068
23573SOL    HW172726   3.301  10.162   8.395 -1.3742 -0.8666 -0.0587
23573SOL    HW272727   3.303  10.290   8.314  0.9750 -1.7236 -1.4464
23574SOL     OW72728   6.646  10.317   5.116  0.1785  0.0797  0.0558
23574SOL    HW172729   6.685  10.365   5.043 -2.0122  1.0182 -0.5838
23574SOL    HW272730   6.667  10.371   5.193  1.4450 -0.2710 -0.0184
23575SOL     OW72731   4.222   7.890   0.964  0.0835 -0.3144 -0.1155
23575SOL    HW172732   4.127   7.877   0.963 -0.1348  1.1894 -0.3551
23575SOL    HW272733   4.256   7.817   0.911 -0.8250 -1.5107  0.8791
23576SOL     OW72734   2.613  10.041  10.733  0.3140 -0.4980 -0.9002
23576SOL    HW172735   2.705  10.063  10.739 -0.3136  2.0893  0.7995
23576SOL    HW272736   2.579  10.097  10.664 -0.1461 -0.7515 -0.8830
23577SOL     OW72737   9.006   4.926  11.162 -0.2855 -0.3339  0.8347
23577SOL    HW172738   8.964   4.841  11.172  0.2221 -0.4714  1.8724
23577SOL    HW272739   8.933   4.988  11.160 -0.5665 -0.4955  3.3800
23578SOL     OW72740   5.262   2.892   1.891  0.1784 -0.3658  0.6483
23578SOL    HW172741   5.290   2.960   1.830 -0.7015 -0.9123 -0.3868
23578SOL    HW272742   5.335   2.884   1.953  2.4487 -1.8138 -1.9867
23579SOL     OW72743   0.115   5.918   1.611 -0.0508 -0.3727 -0.3840
23579SOL    HW172744   0.196   5.931   1.661 -0.2414  0.1647 -0.2008
23579SOL    HW272745   0.083   5.833   1.639  0.5936 -0.7128 -0.6619
23580SOL     OW72746   5.836   8.464   0.401 -0.5183  0.2057  0.5553
23580SOL    HW172747   5.799   8.449   0.488 -0.0758 -1.0521  0.5386
23580SOL    HW272748   5.929   8.442   0.411 -0.5136 -0.1763 -0.2994
23581SOL     OW72749   7.044   1.965   6.006 -0.0926  0.0771 -0.8990
23581SOL    HW172750   6.978   1.919   6.058 -0.0507  0.5756 -0.3929
23581SOL    HW272751   7.108   1.997   6.070 -2.1142  4.2989 -0.6220
23582SOL     OW72752   7.048   3.592   2.819 -0.0503 -0.1011  0.2719
23582SOL    HW172753   7.063   3.500   2.837  0.3857 -0.0529  0.1688
23582SOL    HW272754   6.987   3.593   2.745  0.4546 -0.3099 -0.1494
23583SOL     OW72755   3.062   9.669   7.187 -0.1997  0.1424  0.3986
23583SOL    HW172756   3.033   9.692   7.099 -0.7400  1.3588  0.8721
23583SOL    HW272757   3.021   9.583   7.203 -0.4729  0.1220 -0.3571
23584SOL     OW72758   1.069   2.543   1.438  0.5573 -0.4962  0.1797
23584SOL    HW172759   1.096   2.514   1.351  0.5573  0.3957 -0.1342
23584SOL    HW272760   0.995   2.602   1.421  0.9241  0.1377  0.7318
23585SOL     OW72761  10.239   0.546  10.155  0.3707  0.2343 -0.5087
23585SOL    HW172762  10.174   0.501  10.210  1.6659 -1.5131 -0.3434
23585SOL    HW272763  10.195   0.627  10.129 -0.7190  0.6237  2.1806
23586SOL     OW72764   8.524   1.995   1.131 -0.3767  0.1535 -0.6315
23586SOL    HW172765   8.469   1.917   1.125  1.9795 -1.5581 -1.1230
23586SOL    HW272766   8.482   2.048   1.199 -1.3266 -2.1433  0.6917
23587SOL     OW72767   0.554   7.539  10.165  0.2543 -1.0322 -0.4320
23587SOL    HW172768   0.477   7.504  10.209  1.3898 -1.0603  1.6480
23587SOL    HW272769   0.541   7.516  10.073 -2.6983 -0.0967 -0.3475
23588SOL     OW72770   4.262   9.739   0.527  0.1123  0.3164  0.3829
23588SOL    HW172771   4.260   9.688   0.446  1.8857  0.1188  0.4221
23588SOL    HW272772   4.307   9.682   0.590  0.9833  1.4068  0.7865
23589SOL     OW72773   9.776   6.732   9.906 -0.3402 -0.3401 -0.0441
23589SOL    HW172774   9.773   6.665   9.975 -1.9730  1.2894  1.5871
23589SOL    HW272775   9.832   6.800   9.942  0.2301 -0.2257 -1.1245
23590SOL     OW72776   6.225   0.977   5.860 -0.4958 -0.3513 -0.0202
23590SOL    HW172777   6.136   0.982   5.894 -0.7107 -0.7236 -0.5305
23590SOL    HW272778   6.280   0.986   5.938 -0.9586  0.8742  0.1790
23591SOL     OW72779  10.769   0.175   7.240  0.7070  0.3409  0.4015
23591SOL    HW172780  10.739   0.198   7.327  0.2332  0.7548  0.1343
23591SOL    HW272781  10.817   0.252   7.210  1.0640  0.1146  0.3810
23592SOL     OW72782   2.813   2.603   7.152  0.4533  0.3229  0.3453
23592SOL    HW172783   2.755   2.647   7.214 -0.7407  0.5513 -0.9009
23592SOL    HW272784   2.785   2.634   7.066  2.2681  0.2389 -0.3231
23593SOL     OW72785  11.122   9.935   2.371  0.2846  0.2758  0.1225
23593SOL    HW172786  11.073   9.947   2.290  1.7322 -0.1962 -0.8550
23593SOL    HW272787  11.167  10.019   2.385  1.1519 -0.1051 -0.3415
23594SOL     OW72788   4.864  11.245   6.464 -0.4442 -0.1157  0.3688
23594SOL    HW172789   4.803  11.219   6.395 -3.0201 -0.2917  2.5910
23594SOL    HW272790   4.810  11.289   6.530  1.9627  0.4211  2.1252
23595SOL     OW72791  10.687   4.209   9.559  0.1440  0.8414  0.3001
23595SOL    HW172792  10.673   4.294   9.518  1.8626  1.2006  0.4167
23595SOL    HW272793  10.606   4.161   9.541  0.0900  1.6483 -1.8551
23596SOL     OW72794   6.265   4.964   8.660  0.2625 -0.0818 -0.2299
23596SOL    HW172795   6.330   4.922   8.605 -1.0216  0.6345 -2.4324
23596SOL    HW272796   6.216   5.021   8.600 -2.1524 -0.3254  1.3622
23597SOL     OW72797  10.712   8.231  10.756 -0.1584  0.0575 -0.5030
23597SOL    HW172798  10.805   8.252  10.745 -0.3398  0.0433 -2.4455
23597SOL    HW272799  10.711   8.139  10.782  0.3611 -0.3850 -1.9655
23598SOL     OW72800   3.113   7.867  10.575 -0.5684 -0.4512 -0.2616
23598SOL    HW172801   3.135   7.960  10.565 -2.0790 -0.1112 -0.7488
23598SOL    HW272802   3.129   7.848  10.667  1.3230 -0.1792 -0.4763
23599SOL     OW72803   9.754   2.946   5.779 -0.0231 -0.0745 -0.0862
23599SOL    HW172804   9.664   2.915   5.784 -0.2570 -0.1836 -2.9548
23599SOL    HW272805   9.805   2.868   5.754 -0.0725  0.8978 -3.8378
23600SOL     OW72806   2.715   5.394   9.429 -0.2284 -0.0764  0.2052
23600SOL    HW172807   2.637   5.350   9.395 -1.2084  1.4091  0.4126
23600SOL    HW272808   2.696   5.408   9.522 -0.7135  2.1762 -0.1546
23601SOL     OW72809   1.292   1.432  10.327  0.5927  0.1960 -0.3399
23601SOL    HW172810   1.219   1.369  10.333  2.6098 -2.3387 -0.6225
23601SOL    HW272811   1.311   1.454  10.418  2.4280 -2.9607  0.2114
23602SOL     OW72812  10.808  11.277   8.309  0.4218 -0.6240  0.3554
23602SOL    HW172813  10.719  11.282   8.274  0.6615 -1.4064 -0.4000
23602SOL    HW272814  10.825  11.364   8.345 -0.1799 -0.0741 -0.6647
23603SOL     OW72815   0.506   1.704  10.617 -0.0801 -0.3903  0.0121
23603SOL    HW172816   0.413   1.700  10.636 -0.3319 -1.3823 -1.2786
23603SOL    HW272817   0.533   1.613  10.606  1.3073 -0.2022  1.4340
23604SOL     OW72818   8.466   0.978   0.978  0.1786 -0.0730  0.5170
23604SOL    HW172819   8.386   1.012   0.939  1.4263 -1.1262 -3.3556
23604SOL    HW272820   8.522   1.055   0.988  1.1030 -0.0134 -3.4006
23605SOL     OW72821   8.711   0.798   1.036 -1.0378  0.1015  0.2256
23605SOL    HW172822   8.735   0.821   1.126 -0.8440  0.0433  0.1902
23605SOL    HW272823   8.726   0.877   0.985  0.1594 -0.2444  0.0053
23606SOL     OW72824   0.364   0.209  10.044 -0.1183 -0.2797  0.1443
23606SOL    HW172825   0.270   0.200  10.061 -0.4538  1.6117 -0.5062
23606SOL    HW272826   0.398   0.255  10.121 -0.0312  0.4860 -0.3460
23607SOL     OW72827   7.662   6.573   9.829  0.2089 -0.2415 -0.9226
23607SOL    HW172828   7.690   6.508   9.765 -1.2308  2.4765 -4.6875
23607SOL    HW272829   7.744   6.607   9.866  1.2771 -0.6586 -2.7602
23608SOL     OW72830   9.861   2.821   8.411  0.1148 -0.5104  0.0065
23608SOL    HW172831   9.817   2.736   8.404 -1.7858  0.4065  0.2884
23608SOL    HW272832   9.861   2.855   8.322 -0.4154 -0.1889  0.1287
23609SOL     OW72833   6.325   7.070   8.577  0.1900  0.2973  0.1338
23609SOL    HW172834   6.373   6.996   8.540  0.5620  0.8800 -0.5749
23609SOL    HW272835   6.240   7.068   8.534  0.5510  0.8554 -0.6221
23610SOL     OW72836   2.626   7.514   4.733 -0.1822  0.3957  0.4866
23610SOL    HW172837   2.633   7.585   4.797  1.8460  0.4842  0.2392
23610SOL    HW272838   2.654   7.436   4.782  3.1028  0.7333 -0.6151
23611SOL     OW72839   0.022   4.546   7.039  0.1300  0.1384  0.7062
23611SOL    HW172840   0.001   4.457   7.067 -0.1551  0.1876  0.6454
23611SOL    HW272841  -0.047   4.600   7.077  0.0872  0.2864  0.4166
23612SOL     OW72842   7.576  10.926   8.299  0.2087  0.2742  0.2298
23612SOL    HW172843   7.512  10.963   8.359 -0.8807 -0.0278 -0.7007
23612SOL    HW272844   7.526  10.905   8.220  1.1355 -1.4441  0.0397
23613SOL     OW72845   7.292  10.062   9.649  0.2817 -0.1379  0.1236
23613SOL    HW172846   7.316  10.117   9.724  1.1463 -0.9494  0.4576
23613SOL    HW272847   7.331   9.977   9.667 -0.2614 -0.6143 -0.8276
23614SOL     OW72848   7.295   5.030   4.047  0.2641  0.2599  0.3392
23614SOL    HW172849   7.257   4.942   4.055  2.3706 -0.6021  1.6994
23614SOL    HW272850   7.285   5.069   4.134  3.4523 -0.4889  1.1426
23615SOL     OW72851   1.264   7.373  11.255  0.0620 -0.2068 -0.4644
23615SOL    HW172852   1.268   7.364  11.159  1.8515 -0.6501 -0.3777
23615SOL    HW272853   1.290   7.288  11.288 -1.6544 -0.4177  0.4734
23616SOL     OW72854   9.748   3.164   4.276 -0.1717 -0.0304 -0.7982
23616SOL    HW172855   9.711   3.079   4.299 -0.0217  0.2942  0.7058
23616SOL    HW272856   9.690   3.198   4.209 -0.0319 -1.4675 -1.6964
23617SOL     OW72857   3.231   4.851   4.811 -0.1880  0.3260 -0.3106
23617SOL    HW172858   3.269   4.788   4.871  0.9814  0.8379 -0.4945
23617SOL    HW272859   3.151   4.881   4.855  1.0804  1.3406  1.4159
23618SOL     OW72860   5.664   4.853   3.366  0.1296 -0.5007  0.0152
23618SOL    HW172861   5.745   4.901   3.382 -0.8235  1.0508  0.3443
23618SOL    HW272862   5.614   4.863   3.447 -1.2322  0.3226 -0.8902
23619SOL     OW72863   4.593  10.716   4.291 -0.1404 -0.3142 -0.3353
23619SOL    HW172864   4.545  10.770   4.354 -0.1400 -1.8330  1.0511
23619SOL    HW272865   4.524  10.677   4.236 -0.0536  2.4254 -2.6056
23620SOL     OW72866   1.138   4.868  10.018 -0.3004 -0.7255  0.2125
23620SOL    HW172867   1.117   4.863   9.925 -2.5024  1.5004  0.4785
23620SOL    HW272868   1.053   4.860  10.062 -0.1256  3.2924  1.7169
23621SOL     OW72869   5.990   1.753   9.645  0.1678 -0.3996 -0.3544
23621SOL    HW172870   6.012   1.818   9.712  2.3371 -0.5254 -0.8671
23621SOL    HW272871   6.006   1.669   9.688 -0.2409 -0.5381 -0.4692
23622SOL     OW72872   3.336   7.490   5.033  0.3931 -0.0622  0.1164
23622SOL    HW172873   3.320   7.554   4.964 -2.4529  1.2170  1.8027
23622SOL    HW272874   3.412   7.524   5.080 -0.6095  1.7123  0.5128
23623SOL     OW72875   5.435   1.544   8.689  0.1470  0.1525 -0.5215
23623SOL    HW172876   5.509   1.550   8.629 -0.0220 -0.2595 -0.7690
23623SOL    HW272877   5.387   1.466   8.662 -0.0551  0.0871  0.0038
23624SOL     OW72878   2.162   6.881   1.499  0.6627  0.0129  0.6237
23624SOL    HW172879   2.199   6.909   1.416  0.4154 -0.6656  0.2768
23624SOL    HW272880   2.199   6.794   1.514  0.2292 -0.1218  0.9265
23625SOL     OW72881   0.603   3.120   1.866  0.1301 -0.1686  0.0846
23625SOL    HW172882   0.698   3.110   1.871  0.4245  1.7693 -0.6989
23625SOL    HW272883   0.579   3.076   1.784  0.3740 -0.5385  0.2083
23626SOL     OW72884   3.910  10.767   4.998 -0.7243  0.0641  0.7017
23626SOL    HW172885   3.989  10.817   4.975  0.1573 -1.3838  0.4831
23626SOL    HW272886   3.943  10.689   5.042 -2.0709 -0.3749  0.9717
23627SOL     OW72887   2.288   1.982   9.839  0.8060  0.3896  0.2423
23627SOL    HW172888   2.309   1.891   9.857  1.0235  0.0915 -1.3714
23627SOL    HW272889   2.330   2.031   9.910  1.7255 -0.6625  0.4516
23628SOL     OW72890   0.801   9.353  10.979  0.4674  0.4200 -0.3560
23628SOL    HW172891   0.827   9.367  10.888  0.3764 -0.2000 -0.4796
23628SOL    HW272892   0.759   9.435  11.004  1.2798  0.9197 -0.5934
23629SOL     OW72893   6.970   6.883  11.187 -0.1371  0.0960  0.5529
23629SOL    HW172894   6.881   6.895  11.153 -0.3855 -0.7222  0.8829
23629SOL    HW272895   7.027   6.904  11.114 -0.6519 -1.3685 -0.3200
23630SOL     OW72896  10.626  11.018   8.395 -0.2170  0.6178 -0.5158
23630SOL    HW172897  10.574  11.074   8.337 -3.1343 -0.5909  0.7338
23630SOL    HW272898  10.638  10.937   8.345 -1.2788  0.1849 -0.0852
23631SOL     OW72899   3.061   0.738   9.787  0.0483  0.3433 -0.0975
23631SOL    HW172900   2.990   0.763   9.729 -0.2613  0.7810  0.4641
23631SOL    HW272901   3.034   0.769   9.873  1.8542  2.4970 -0.1958
23632SOL     OW72902   7.945   6.177   2.051  0.0004  1.5770 -0.1193
23632SOL    HW172903   7.856   6.206   2.072 -1.4987 -1.5991 -1.4404
23632SOL    HW272904   7.967   6.226   1.971 -1.2863  1.2065 -0.7295
23633SOL     OW72905  10.170   4.710   3.059 -0.0416 -0.2546 -0.1840
23633SOL    HW172906  10.162   4.732   3.152  0.5482 -0.4656 -0.0787
23633SOL    HW272907  10.227   4.778   3.023  2.0821 -1.7141  0.2107
23634SOL     OW72908   7.744   2.746   2.519  0.2025  0.2060  0.6590
23634SOL    HW172909   7.762   2.652   2.530  0.0415  0.1571  0.5229
23634SOL    HW272910   7.782   2.787   2.596 -0.1205 -0.0240  0.9475
23635SOL     OW72911   5.568   4.832  10.788 -0.4594  0.1334 -0.0453
23635SOL    HW172912   5.578   4.751  10.739 -0.6799  0.7937 -1.2022
23635SOL    HW272913   5.535   4.895  10.725 -1.4714  0.8261  1.1179
23636SOL     OW72914   5.263   7.855   9.645 -0.4033  0.6720  0.7399
23636SOL    HW172915   5.262   7.827   9.553 -0.6252 -0.1126  0.9829
23636SOL    HW272916   5.196   7.923   9.650  1.0718  2.2991 -0.1593
23637SOL     OW72917   8.091   0.144   2.421  0.8549 -0.2642  0.0775
23637SOL    HW172918   8.117   0.224   2.377 -0.8687  0.4466  0.2841
23637SOL    HW272919   8.153   0.078   2.390  2.2181  1.1053 -0.1880
23638SOL     OW72920   6.145   0.150   9.403  0.5694  0.3909  0.1348
23638SOL    HW172921   6.148   0.065   9.359  3.6574  1.8857 -2.9641
23638SOL    HW272922   6.143   0.128   9.497  3.0683 -3.1983 -0.4366
23639SOL     OW72923   4.413  11.186  10.829  0.4389  0.1135 -0.3554
23639SOL    HW172924   4.507  11.170  10.835  0.5274  0.8440  0.2555
23639SOL    HW272925   4.400  11.271  10.869 -0.7813 -0.9408  1.6405
23640SOL     OW72926   9.207  11.136   8.937  0.4921  0.3042  0.0793
23640SOL    HW172927   9.160  11.077   8.996  0.6765 -0.3467 -0.4009
23640SOL    HW272928   9.253  11.197   8.994 -0.4019  0.5370  0.5705
23641SOL     OW72929   9.661   5.618   1.373  0.0175  0.6960  0.6021
23641SOL    HW172930   9.599   5.671   1.324 -0.8280 -1.2121 -0.5143
23641SOL    HW272931   9.736   5.608   1.313  0.3848  1.0321  1.0009
23642SOL     OW72932   8.400   5.708   5.408  0.0506  0.1879 -0.5629
23642SOL    HW172933   8.405   5.802   5.388 -1.6715  0.2267 -0.9410
23642SOL    HW272934   8.309   5.684   5.389  0.6687 -1.7508 -1.2387
23643SOL     OW72935   0.839  10.237   3.222  0.7304  0.0696  0.0067
23643SOL    HW172936   0.926  10.270   3.244  1.9286 -2.7407 -0.1639
23643SOL    HW272937   0.833  10.246   3.127 -0.3780  2.8080  0.2364
23644SOL     OW72938   7.754   9.576   5.808  0.3631  0.2222 -0.5312
23644SOL    HW172939   7.704   9.511   5.857  2.5987 -0.6434  0.7788
23644SOL    HW272940   7.702   9.655   5.813 -0.6307 -0.4829  1.2422
23645SOL     OW72941   1.519   8.645   4.093  0.5688  0.3136 -0.2557
23645SOL    HW172942   1.504   8.621   4.002 -0.1268  1.7483 -0.5616
23645SOL    HW272943   1.459   8.590   4.144 -0.9562  1.3200 -0.9114
23646SOL     OW72944   1.053   4.670   4.222 -0.4850  0.3557  0.7400
23646SOL    HW172945   0.957   4.678   4.226 -0.3625  1.7342  1.6147
23646SOL    HW272946   1.079   4.735   4.156 -0.2445 -1.2556 -0.8333
23647SOL     OW72947   7.962   3.279   4.933 -0.3502 -0.8749 -0.1164
23647SOL    HW172948   7.888   3.271   4.993  0.1577  1.6953  0.9934
23647SOL    HW272949   8.039   3.280   4.990  0.2012  0.8918 -0.8274
23648SOL     OW72950   5.781   2.842   4.832 -0.0143 -0.3849  0.0022
23648SOL    HW172951   5.756   2.824   4.923  1.0203 -2.2355 -0.0352
23648SOL    HW272952   5.812   2.933   4.834 -0.6242 -0.1725  1.3486
23649SOL     OW72953  11.240   4.347   0.630 -0.0411  0.2172 -0.3983
23649SOL    HW172954  11.307   4.334   0.697 -1.8356 -1.3088  1.2322
23649SOL    HW272955  11.161   4.371   0.679 -1.8078 -2.3558 -1.7157
23650SOL     OW72956   9.399   3.452   2.517  0.0882  0.0538  0.6444
23650SOL    HW172957   9.390   3.516   2.446  0.1502  0.7786  1.2703
23650SOL    HW272958   9.493   3.439   2.527  0.0577 -1.7670 -0.8734
23651SOL     OW72959   3.815   9.692   8.226  0.0498  0.7572  0.7432
23651SOL    HW172960   3.832   9.613   8.277 -2.2552  0.9593  1.9843
23651SOL    HW272961   3.881   9.754   8.255  1.9284 -0.6633 -0.2795
23652SOL     OW72962   0.074   1.282   8.710 -0.0135  0.1046  0.1435
23652SOL    HW172963   0.123   1.338   8.649  0.5644  0.9734  1.3655
23652SOL    HW272964   0.131   1.207   8.724  0.2446  0.3219  0.2767
23653SOL     OW72965   3.625   6.190   3.604  0.1166 -0.2720 -0.4319
23653SOL    HW172966   3.646   6.200   3.696 -2.9036 -0.2188  0.3503
23653SOL    HW272967   3.590   6.101   3.597 -0.4060 -0.0017 -1.3790
23654SOL     OW72968   0.180   1.812   5.811  0.8004 -0.6434 -0.1565
23654SOL    HW172969   0.262   1.857   5.832  1.0964 -1.5142  0.6386
23654SOL    HW272970   0.123   1.880   5.777  1.6487  0.0916 -0.1358
23655SOL     OW72971   1.310   1.004  10.951  0.1813 -0.1588  0.0622
23655SOL    HW172972   1.401   1.001  10.920  0.6129  2.1373  0.8555
23655SOL    HW272973   1.259   0.968  10.878  1.5329  0.8201 -1.4517
23656SOL     OW72974   2.028  10.296   5.583 -0.0022 -0.3844  0.5237
23656SOL    HW172975   2.083  10.320   5.658  1.2534  0.1133 -0.5277
23656SOL    HW272976   2.044  10.203   5.571  1.9565  0.0727 -0.7932
23657SOL     OW72977   4.206   8.138   3.039  0.1093 -0.1657 -0.2184
23657SOL    HW172978   4.276   8.130   2.975 -0.1268 -0.3148 -0.4601
23657SOL    HW272979   4.250   8.135   3.124  0.5682  1.2445 -0.3674
23658SOL     OW72980   0.670   7.050   9.072  0.0713 -0.0590  0.1710
23658SOL    HW172981   0.763   7.064   9.053  0.3169  0.5984  1.6918
23658SOL    HW272982   0.630   7.032   8.987  1.7272 -1.2221 -0.3905
23659SOL     OW72983   3.064   8.483   6.630  0.0556  0.2363 -0.4558
23659SOL    HW172984   3.034   8.561   6.676 -0.6926 -0.8588  0.9784
23659SOL    HW272985   2.984   8.436   6.607  0.5037 -0.2826 -1.0205
23660SOL     OW72986   8.031   7.754  11.011 -0.9883 -0.2387  0.7070
23660SOL    HW172987   8.085   7.676  10.997 -0.0576  0.3171  1.0411
23660SOL    HW272988   8.091   7.816  11.054 -1.4938  0.9103 -0.2066
23661SOL     OW72989   0.984   1.788   2.384  0.0936 -0.0868  0.3105
23661SOL    HW172990   1.001   1.770   2.292  2.5207  0.1163  0.6561
23661SOL    HW272991   0.889   1.774   2.394 -0.8571  2.8326 -2.8424
23662SOL     OW72992   8.040   9.297   1.370 -0.1812  0.2515 -0.0429
23662SOL    HW172993   7.977   9.363   1.399  1.7149  1.7658  0.8660
23662SOL    HW272994   8.056   9.317   1.278 -2.0912 -1.1230 -0.7528
23663SOL     OW72995   4.041   9.969   7.717  0.6100 -0.5485 -0.5885
23663SOL    HW172996   3.999  10.015   7.789 -0.5335 -2.6709  0.1832
23663SOL    HW272997   4.075  10.038   7.660  0.1947  1.1810  1.1900
23664SOL     OW72998   0.235   1.818   0.561  0.3688 -0.0277 -0.7983
23664SOL    HW172999   0.199   1.790   0.645  1.2579 -1.4816 -0.8562
23664SOL    HW273000   0.273   1.904   0.579  0.8176 -0.4453  0.3862
23665SOL     OW73001   3.143   3.851  11.003  0.2223 -0.7140 -0.2638
23665SOL    HW173002   3.189   3.791  11.062  0.4301  1.5380  2.0609
23665SOL    HW273003   3.052   3.821  11.004  0.4926 -1.5581  0.0525
23666SOL     OW73004   3.791   3.404   4.080  0.1530 -0.2108 -0.2110
23666SOL    HW173005   3.882   3.407   4.052  0.1456  1.3432 -0.1775
23666SOL    HW273006   3.792   3.434   4.170  0.0692 -4.4218  1.4120
23667SOL     OW73007   3.372   9.311  11.270 -0.6997  0.2622 -0.5373
23667SOL    HW173008   3.329   9.328  11.186  0.3130 -0.8727 -1.3044
23667SOL    HW273009   3.323   9.237  11.307 -0.1348 -0.3041 -0.8995
23668SOL     OW73010   0.372   6.605   8.870 -0.1922  0.3392  0.7000
23668SOL    HW173011   0.367   6.534   8.806  1.6687 -0.8450  1.7875
23668SOL    HW273012   0.281   6.618   8.898 -0.8577 -0.0328 -1.1552
23669SOL     OW73013   1.784   7.851  10.539  0.5211  0.1688  0.3126
23669SOL    HW173014   1.713   7.842  10.603  0.7784  0.4269  0.6408
23669SOL    HW273015   1.741   7.846  10.454 -0.1276  1.9355  0.4926
23670SOL     OW73016   7.817   9.054   8.652  0.4589  0.0927  0.2787
23670SOL    HW173017   7.803   9.096   8.737 -0.2854 -1.9154  1.2164
23670SOL    HW273018   7.749   9.091   8.596 -0.5223 -0.2260  1.2257
23671SOL     OW73019   6.787   8.053   8.488  0.0490 -0.3069  0.3241
23671SOL    HW173020   6.692   8.043   8.481  0.0686 -0.4596  0.2823
23671SOL    HW273021   6.811   8.002   8.565  0.4022 -2.2206 -0.9959
23672SOL     OW73022   5.721   7.257  10.329  0.2699 -0.2980  0.2401
23672SOL    HW173023   5.741   7.348  10.352  0.4609 -0.1564 -0.4554
23672SOL    HW273024   5.659   7.264  10.257  1.6976 -0.6854 -1.0880
23673SOL     OW73025   5.917   4.553   8.962  0.0400 -0.1474  0.0947
23673SOL    HW173026   5.927   4.556   9.057  1.2117  0.8623 -0.0308
23673SOL    HW273027   5.898   4.461   8.943 -1.5270 -0.1334  1.3952
23674SOL     OW73028   7.226  11.034   2.729 -0.1052  0.4393 -0.5011
23674SOL    HW173029   7.217  11.009   2.821  0.3198  1.0856 -0.2798
23674SOL    HW273030   7.199  10.956   2.680  2.3016 -0.8824  0.1500
23675SOL     OW73031   9.414   1.089  11.185 -0.4883  0.1472  0.3412
23675SOL    HW173032   9.503   1.116  11.207  0.3554 -1.2437 -1.1170
23675SOL    HW273033   9.406   1.000  11.221 -0.5051 -0.5516 -1.2919
23676SOL     OW73034   8.558   5.780   4.668  1.0316  0.4186  0.0791
23676SOL    HW173035   8.496   5.804   4.599 -1.3884 -3.0819  0.7585
23676SOL    HW273036   8.511   5.796   4.750  0.5129 -2.9771  0.6004
23677SOL     OW73037  11.099   6.983   9.187  0.5019  0.1717 -0.1276
23677SOL    HW173038  11.187   7.020   9.181  0.5655 -0.0525 -0.6561
23677SOL    HW273039  11.082   6.947   9.100 -0.1899  0.3899 -0.0890
23678SOL     OW73040   0.393   1.745   6.786  0.1288  0.0147  0.6467
23678SOL    HW173041   0.322   1.696   6.828  0.7412 -1.7565 -0.2853
23678SOL    HW273042   0.355   1.779   6.706 -0.6170  2.1321  1.8157
23679SOL     OW73043   7.754   7.318   7.717  0.2728  0.5555 -0.4219
23679SOL    HW173044   7.761   7.269   7.799 -1.1073 -0.9599 -1.1594
23679SOL    HW273045   7.845   7.325   7.686  0.6881  0.1069  0.6464
23680SOL     OW73046   5.461  10.562   9.325  0.5225  0.3773  0.0593
23680SOL    HW173047   5.399  10.559   9.398  2.4992  2.3235  1.9864
23680SOL    HW273048   5.547  10.552   9.367  1.7281  1.3273 -2.0357
23681SOL     OW73049   2.479   3.553   0.167 -0.7297  0.3755 -0.2425
23681SOL    HW173050   2.475   3.480   0.229 -0.9546  0.1317 -0.5430
23681SOL    HW273051   2.394   3.552   0.123 -0.9896  1.2223  0.2068
23682SOL     OW73052   2.681  10.453   5.834  0.3869  0.1782 -0.4861
23682SOL    HW173053   2.723  10.376   5.795  1.1311  1.8032 -3.1154
23682SOL    HW273054   2.588  10.434   5.832  0.5993 -1.0039 -0.1911
23683SOL     OW73055   6.602   1.062   4.285 -0.6818 -0.2212  0.1572
23683SOL    HW173056   6.598   1.000   4.213 -1.2934  0.9116 -0.8207
23683SOL    HW273057   6.688   1.047   4.325 -0.1394 -0.5704 -1.0879
23684SOL     OW73058   0.171   5.471   7.677  0.7921 -0.0295 -0.1574
23684SOL    HW173059   0.154   5.473   7.583 -0.3684 -0.7320  0.0262
23684SOL    HW273060   0.085   5.463   7.718  1.0907  2.1195  1.0624
23685SOL     OW73061   7.450  10.389   0.804 -0.2559 -0.2652 -0.3024
23685SOL    HW173062   7.414  10.300   0.797 -0.8460 -0.0046 -0.6320
23685SOL    HW273063   7.401  10.429   0.876  1.4038 -0.8515  1.2120
23686SOL     OW73064   4.120   1.759  11.218 -0.3476 -0.0444 -0.0652
23686SOL    HW173065   4.106   1.735  11.126 -2.6149 -0.2064  0.2705
23686SOL    HW273066   4.126   1.854  11.217 -1.3108  0.0227 -0.2912
23687SOL     OW73067   7.140   1.692   7.144 -0.0890  0.1175  0.8104
23687SOL    HW173068   7.130   1.678   7.050 -0.4947  0.7066  0.7548
23687SOL    HW273069   7.191   1.618   7.175 -0.5772 -0.4661  0.2452
23688SOL     OW73070   7.484   5.155   6.121  0.4895  0.6652  0.4496
23688SOL    HW173071   7.474   5.218   6.050  2.8712  1.6260  0.8700
23688SOL    HW273072   7.398   5.112   6.128 -1.0883  3.5071 -0.1599
23689SOL     OW73073  10.364   9.725   7.499 -0.2461 -0.2104  0.0119
23689SOL    HW173074  10.297   9.758   7.559  1.2853  1.7827  0.7682
23689SOL    HW273075  10.337   9.757   7.413  0.3471  1.7445  0.4993
23690SOL     OW73076  11.192   8.015   9.149 -0.1858 -0.1038 -0.3864
23690SOL    HW173077  11.164   8.075   9.218  0.7151  1.7398 -1.5636
23690SOL    HW273078  11.192   8.067   9.069 -0.8578 -2.0854 -1.7662
23691SOL     OW73079   0.488   2.280   6.339  0.1670  0.1841  0.0746
23691SOL    HW173080   0.522   2.368   6.327  1.3192 -0.3895 -1.0870
23691SOL    HW273081   0.406   2.292   6.387  0.5798  1.8298  0.4060
23692SOL     OW73082   9.859   4.925   8.492  0.3355  0.5179 -0.0683
23692SOL    HW173083   9.775   4.936   8.536  0.2708  0.2861 -0.1316
23692SOL    HW273084   9.874   5.008   8.447 -0.7095 -0.0187 -1.5014
23693SOL     OW73085   1.589   5.093  10.663  0.1964  0.1095 -0.3647
23693SOL    HW173086   1.621   5.019  10.611  0.1100 -0.1834 -0.0022
23693SOL    HW273087   1.512   5.060  10.708  0.8414  0.0536  0.7284
23694SOL     OW73088   9.518   3.792   0.485  0.3981 -0.8443  0.2194
23694SOL    HW173089   9.601   3.796   0.437 -0.0611 -1.2202 -0.6392
23694SOL    HW273090   9.496   3.883   0.504  1.5489 -0.7976  1.4415
23695SOL     OW73091  10.324   6.387   7.242  0.0747 -0.2181 -0.3645
23695SOL    HW173092  10.354   6.305   7.282  0.4268  0.2122  0.2832
23695SOL    HW273093  10.291   6.362   7.156  0.4236 -0.9996 -0.2768
23696SOL     OW73094   3.249  10.397   3.200 -0.4988  0.2355  0.0428
23696SOL    HW173095   3.280  10.308   3.215 -1.2914 -0.3784 -1.7376
23696SOL    HW273096   3.328  10.451   3.211 -0.3302 -0.4017  2.9064
23697SOL     OW73097   8.563   9.562   4.165 -0.1477  0.0336  0.5222
23697SOL    HW173098   8.531   9.519   4.085 -1.6775  1.2415  0.4293
23697SOL    HW273099   8.632   9.621   4.135  1.1278 -1.4121  0.4892
23698SOL     OW73100   0.775   1.811   3.686  0.4240 -0.6622 -0.6473
23698SOL    HW173101   0.773   1.875   3.757 -0.0417 -2.0016  0.5932
23698SOL    HW273102   0.839   1.846   3.624  0.1931  0.9756 -0.0024
23699SOL     OW73103   6.198   3.604   6.005  0.7751 -0.3198 -0.1958
23699SOL    HW173104   6.160   3.638   5.924  0.2211  0.0759  0.2209
23699SOL    HW273105   6.240   3.522   5.979  0.5948 -0.2027 -0.8801
23700SOL     OW73106   3.920   2.127   3.216 -0.1475  0.4469  0.3990
23700SOL    HW173107   3.986   2.170   3.161  0.2491  2.0362  2.0511
23700SOL    HW273108   3.866   2.198   3.249 -4.1149 -0.8523 -2.4248
23701SOL     OW73109   4.148   3.615   1.599 -0.5569  0.2686  0.6607
23701SOL    HW173110   4.196   3.663   1.531  0.0957 -0.9769  0.2082
23701SOL    HW273111   4.211   3.605   1.670 -1.2755  1.6768  1.5563
23702SOL     OW73112   6.431   1.020   0.081  0.0330  0.4956  0.2713
23702SOL    HW173113   6.418   1.040  -0.011 -1.4980  0.5879  0.4694
23702SOL    HW273114   6.518   1.054   0.102 -0.5342  2.5922 -0.5735
23703SOL     OW73115   2.750   8.105   1.375  0.6444 -0.5153  0.7344
23703SOL    HW173116   2.843   8.126   1.387  0.8969 -1.9218  1.3237
23703SOL    HW273117   2.704   8.162   1.437  1.0064  0.8356 -0.1773
23704SOL     OW73118   4.623   1.967   1.962 -0.0921 -1.0316 -0.4204
23704SOL    HW173119   4.616   1.912   2.040  0.9588 -0.9270 -0.2402
23704SOL    HW273120   4.599   2.055   1.992 -1.9133 -1.3869 -0.7408
23705SOL     OW73121   1.307   4.313   6.292 -0.0032 -0.4942 -0.2443
23705SOL    HW173122   1.215   4.304   6.318  0.2965 -0.0303  1.0319
23705SOL    HW273123   1.309   4.283   6.201 -1.4980 -0.0924 -0.4328
23706SOL     OW73124   7.404   1.718   8.047  0.0758  0.2860  0.0796
23706SOL    HW173125   7.480   1.662   8.027 -0.8495 -0.3552 -1.9786
23706SOL    HW273126   7.400   1.720   8.142  2.3684 -0.0676  0.2385
23707SOL     OW73127   0.392   8.222  10.985 -0.2741 -0.2752  0.2922
23707SOL    HW173128   0.342   8.302  11.001 -2.7272 -1.2387 -1.9280
23707SOL    HW273129   0.454   8.245  10.915  2.2730  0.7620  2.6705
23708SOL     OW73130   9.918   7.139   2.127 -0.0931  0.1857 -0.4562
23708SOL    HW173131   9.839   7.192   2.121 -2.8789 -3.6003 -1.9884
23708SOL    HW273132   9.897   7.072   2.192  3.1585  0.7151  1.3273
23709SOL     OW73133   5.605   0.119   7.429 -0.2858 -0.1568 -0.2555
23709SOL    HW173134   5.534   0.063   7.460 -1.2519  0.4489 -1.2923
23709SOL    HW273135   5.666   0.123   7.502 -1.1219 -1.0252  0.5173
23710SOL     OW73136  10.542   0.902   1.087  0.0104  0.1605 -0.1848
23710SOL    HW173137  10.569   0.822   1.042  0.4302  0.2071 -0.0204
23710SOL    HW273138  10.483   0.872   1.157  0.1051  0.0056 -0.1716
23711SOL     OW73139   5.287   0.863   2.359 -0.0143 -0.6026  0.2014
23711SOL    HW173140   5.243   0.813   2.427 -1.5170 -0.1296 -0.3581
23711SOL    HW273141   5.378   0.836   2.363 -0.6529 -2.9779  0.2717
23712SOL     OW73142   8.631   6.765   3.730  0.0994  0.5771 -0.4669
23712SOL    HW173143   8.543   6.741   3.701  0.2062 -0.3907 -0.0273
23712SOL    HW273144   8.622   6.855   3.762 -0.6362  0.6291 -0.7917
23713SOL     OW73145   2.862  10.900  11.003  0.0715  0.1585  0.2316
23713SOL    HW173146   2.952  10.912  11.033 -0.0464  2.0518 -0.0944
23713SOL    HW273147   2.836  10.815  11.041  1.6573  0.0169  1.1009
23714SOL     OW73148   5.939   5.401  10.793 -0.2654  0.0024  0.5355
23714SOL    HW173149   5.899   5.456  10.725  0.7270  0.4700  0.3122
23714SOL    HW273150   5.980   5.330  10.745  0.6488  0.4664  0.6125
23715SOL     OW73151  10.076   8.727   8.126 -0.2443  0.3899 -0.0476
23715SOL    HW173152  10.068   8.821   8.106  0.4698 -0.1015 -3.0358
23715SOL    HW273153  10.170   8.713   8.135 -0.3386 -0.0822  0.2116
23716SOL     OW73154   6.144   5.385   9.221 -0.2401 -0.6222  0.0666
23716SOL    HW173155   6.233   5.419   9.207  0.2758 -1.0929  1.9164
23716SOL    HW273156   6.157   5.300   9.264 -1.5887 -0.7954  0.1794
23717SOL     OW73157   6.165  11.064   1.473  0.3158  0.6402  0.4210
23717SOL    HW173158   6.203  10.985   1.512  1.3616  0.6498 -0.5370
23717SOL    HW273159   6.178  11.131   1.540 -2.0856 -0.3038  1.9546
23718SOL     OW73160   8.605   1.976   9.350  0.3916  0.1410 -0.0294
23718SOL    HW173161   8.636   1.906   9.407  0.9406  0.3808 -0.0286
23718SOL    HW273162   8.618   1.942   9.261 -2.1827 -0.9991 -0.0668
23719SOL     OW73163   7.421   6.958   7.127  0.4956 -0.5483  0.0402
23719SOL    HW173164   7.455   6.877   7.090 -2.5224 -3.1323  2.3550
23719SOL    HW273165   7.350   6.985   7.069  1.4084  0.4552 -0.6554
23720SOL     OW73166   9.244   1.657   6.165 -0.1219  0.1392  0.1586
23720SOL    HW173167   9.238   1.610   6.082 -1.6545 -0.3414  0.5063
23720SOL    HW273168   9.233   1.749   6.142  1.6674  0.2576 -0.3846
23721SOL     OW73169   7.930   8.870   8.977 -0.2988 -0.8098 -0.1313
23721SOL    HW173170   7.945   8.776   8.979 -0.9200 -0.9789 -1.6809
23721SOL    HW273171   7.993   8.903   8.913 -0.1622 -0.1911  0.3160
23722SOL     OW73172   9.444   2.513   1.096  0.0924 -0.1213  0.1482
23722SOL    HW173173   9.380   2.522   1.025 -0.1681  0.3537  0.4345
23722SOL    HW273174   9.419   2.433   1.141  0.7119 -0.8314 -0.7386
23723SOL     OW73175   3.459   5.095   2.461  0.4570 -0.5835 -0.1019
23723SOL    HW173176   3.530   5.157   2.474  2.2315 -2.2924 -1.0676
23723SOL    HW273177   3.483   5.019   2.513  0.0242 -1.6712 -1.4122
23724SOL     OW73178  11.158   5.664   9.083 -0.8951  0.3328 -0.0531
23724SOL    HW173179  11.181   5.704   8.999 -0.1234  1.7193  0.7818
23724SOL    HW273180  11.185   5.729   9.148 -1.3943 -0.7567  1.2733
23725SOL     OW73181   8.804   1.807   2.520  0.1126 -0.1269 -0.4669
23725SOL    HW173182   8.828   1.835   2.432  0.6774  2.2782  0.3733
23725SOL    HW273183   8.875   1.749   2.548 -0.3705 -1.4049 -1.7493
23726SOL     OW73184   6.738   0.285   7.329 -0.1559 -0.1024 -0.8301
23726SOL    HW173185   6.698   0.248   7.250 -0.9099 -2.2440  0.4717
23726SOL    HW273186   6.734   0.214   7.393 -0.1841  1.7852  1.3724
23727SOL     OW73187   5.764   7.084   6.635 -0.6210 -0.3245  0.4469
23727SOL    HW173188   5.684   7.051   6.594 -0.9266 -0.4823  1.1511
23727SOL    HW273189   5.819   7.007   6.648  0.2876 -0.0426 -1.3443
23728SOL     OW73190   8.230   3.635   8.479  0.4569 -0.6142  0.1237
23728SOL    HW173191   8.257   3.727   8.478  0.5317 -0.6379 -0.0813
23728SOL    HW273192   8.289   3.593   8.542 -1.9739  0.2011  3.1948
23729SOL     OW73193  10.082   2.151   0.071  0.3672  0.1649 -0.0231
23729SOL    HW173194  10.028   2.157   0.150 -1.1240 -0.5984 -0.9400
23729SOL    HW273195  10.095   2.241   0.044 -0.0279  0.3840  0.4967
23730SOL     OW73196   8.172   6.745   0.307  0.6621  0.6269  0.5462
23730SOL    HW173197   8.266   6.730   0.307  0.6527  0.4986 -0.4448
23730SOL    HW273198   8.135   6.665   0.270  0.4144  1.9328 -2.2708
23731SOL     OW73199   3.356   7.588   3.729 -0.8621 -0.0316 -0.6133
23731SOL    HW173200   3.443   7.598   3.688  0.5945 -2.6803  1.4829
23731SOL    HW273201   3.351   7.660   3.792  0.4737 -0.5948  0.1866
23732SOL     OW73202   8.714   0.883   5.136 -0.0418 -0.4808 -0.0372
23732SOL    HW173203   8.715   0.884   5.232 -0.7444 -0.5854 -0.0263
23732SOL    HW273204   8.669   0.802   5.113 -2.3630  0.8296 -0.4132
23733SOL     OW73205   1.730   0.097  10.943 -0.5006  0.2932 -0.8952
23733SOL    HW173206   1.637   0.114  10.929 -0.1233  2.3876 -1.2971
23733SOL    HW273207   1.739   0.087  11.038 -0.7924  3.0996 -0.4761
23734SOL     OW73208   9.885  10.920   0.806  0.3094 -0.9580 -0.3165
23734SOL    HW173209   9.887  10.828   0.780 -4.6445 -1.3768 -0.2107
23734SOL    HW273210   9.895  10.968   0.724  1.7464 -1.5670 -0.5299
23735SOL     OW73211   5.594   6.624   9.623 -0.3307 -0.0001  0.0689
23735SOL    HW173212   5.563   6.703   9.579 -0.4812  0.6423  1.2853
23735SOL    HW273213   5.547   6.553   9.580  0.7691  0.4030 -1.9388
23736SOL     OW73214   1.059   9.512   6.189 -0.4633 -0.3708 -0.2451
23736SOL    HW173215   1.062   9.518   6.284 -2.1197  1.2702 -0.2495
23736SOL    HW273216   1.008   9.432   6.172 -2.0884  0.5039  0.3130
23737SOL     OW73217   4.107   1.918  10.463  0.6336 -0.2953 -0.4496
23737SOL    HW173218   4.071   1.877  10.542 -1.0685 -1.6336 -1.8235
23737SOL    HW273219   4.045   1.987  10.441  0.0661 -1.1050 -1.5504
23738SOL     OW73220   8.298   6.028   0.465 -0.0502  0.3551  0.6734
23738SOL    HW173221   8.372   6.040   0.406  0.1273  1.1065  1.0341
23738SOL    HW273222   8.241   6.103   0.448  0.1579  0.7548  1.6615
23739SOL     OW73223   1.930   5.852   8.344 -0.2224 -0.0127  0.2641
23739SOL    HW173224   1.955   5.884   8.257 -3.4940  1.9162 -0.1746
23739SOL    HW273225   1.909   5.760   8.330 -0.9198  0.3188 -1.1337
23740SOL     OW73226   1.514   5.429   8.547  0.3057  0.2585  0.6596
23740SOL    HW173227   1.546   5.486   8.477 -1.8041  0.8464  0.0891
23740SOL    HW273228   1.419   5.442   8.546 -0.0132 -1.6189  2.0050
23741SOL     OW73229  10.390   3.744  11.023  0.5347 -0.0480  0.1093
23741SOL    HW173230  10.477   3.781  11.010  0.3201  0.4445  0.0266
23741SOL    HW273231  10.338   3.817  11.058 -0.4957  0.4432 -2.2223
23742SOL     OW73232   6.094  10.718   5.107 -0.2113  0.6754 -0.5116
23742SOL    HW173233   6.073  10.674   5.025 -1.1305 -0.3734  0.2413
23742SOL    HW273234   6.026  10.784   5.118 -2.2845 -1.5130  1.0389
23743SOL     OW73235   6.995   0.385   6.038 -0.0621 -0.2911 -0.1107
23743SOL    HW173236   7.042   0.318   5.987 -0.7219 -1.0130  0.2027
23743SOL    HW273237   7.054   0.406   6.110 -0.4673 -1.6915  0.6683
23744SOL     OW73238  10.576   1.699  10.896  0.0429  0.1558 -0.9022
23744SOL    HW173239  10.617   1.785  10.884 -0.8048  1.0679  2.0594
23744SOL    HW273240  10.556   1.694  10.989  0.3629 -3.4363 -0.8774
23745SOL     OW73241   1.869  10.697   3.366  0.3871  0.2301  0.4645
23745SOL    HW173242   1.921  10.726   3.441  2.1995 -0.0287 -0.6394
23745SOL    HW273243   1.850  10.777   3.317  0.7555  0.1912  0.2563
23746SOL     OW73244   4.948   1.924   7.235  0.0888 -0.3928 -0.2061
23746SOL    HW173245   5.027   1.958   7.276 -0.2278  0.9752 -0.6744
23746SOL    HW273246   4.886   1.912   7.307 -0.3155  1.5665 -0.1655
23747SOL     OW73247   9.032   3.165   8.301 -0.2273 -0.4437 -0.4238
23747SOL    HW173248   9.041   3.070   8.300 -1.5265 -0.5760 -1.4354
23747SOL    HW273249   8.950   3.183   8.254 -1.3528  1.0202  1.8839
23748SOL     OW73250   7.818   2.657   4.851  0.4709  0.0774  0.5184
23748SOL    HW173251   7.779   2.681   4.935  0.6642  1.0612  0.3454
23748SOL    HW273252   7.912   2.667   4.865  0.4325  3.9689 -0.8009
23749SOL     OW73253   1.865   8.291   4.375  0.2828  0.1848 -0.3222
23749SOL    HW173254   1.801   8.356   4.345  0.8189  1.0529  0.3637
23749SOL    HW273255   1.937   8.298   4.312 -0.0518 -0.4331 -0.7947
23750SOL     OW73256   0.652   2.029   3.873 -0.5831 -0.6170  0.0922
23750SOL    HW173257   0.595   2.086   3.925  0.8408  0.7850  0.1999
23750SOL    HW273258   0.621   2.039   3.783 -0.7805 -0.2094  0.2038
23751SOL     OW73259   4.665   4.327   0.889  0.5952  0.6126 -0.0298
23751SOL    HW173260   4.578   4.328   0.847 -0.5578  1.1995  2.2278
23751SOL    HW273261   4.726   4.317   0.816 -1.2815  1.5307 -1.8527
23752SOL     OW73262   2.697   6.140   4.765  0.3832  0.0324 -0.5959
23752SOL    HW173263   2.672   6.055   4.727  1.3321  0.3184 -1.9006
23752SOL    HW273264   2.729   6.191   4.691 -0.9416  1.8525  0.0261
23753SOL     OW73265   8.700   1.070   4.065 -0.7415 -0.1731  0.6761
23753SOL    HW173266   8.721   1.135   3.998  0.0911  1.4659  2.4353
23753SOL    HW273267   8.640   1.010   4.022 -0.8128  1.2323 -1.3121
23754SOL     OW73268   3.574   1.315   3.056 -0.4978  0.2584  0.2113
23754SOL    HW173269   3.563   1.312   3.151  0.9881 -0.5794  0.3924
23754SOL    HW273270   3.571   1.224   3.028 -0.4566  0.4591 -0.4869
23755SOL     OW73271  10.243   6.202   3.151 -0.0188  0.0121  0.1662
23755SOL    HW173272  10.193   6.280   3.125 -0.6457 -0.3563  0.2520
23755SOL    HW273273  10.177   6.142   3.186  0.5567 -0.2837  0.7484
23756SOL     OW73274   7.538  10.227  11.110 -0.0660 -0.2127  0.1039
23756SOL    HW173275   7.518  10.279  11.189 -1.1091  2.7559 -1.9244
23756SOL    HW273276   7.632  10.237  11.099  0.6788 -3.1899  2.4752
23757SOL     OW73277   0.698   0.819   7.462 -0.3113 -0.3818 -0.1557
23757SOL    HW173278   0.702   0.856   7.550  1.9990 -0.7827 -0.0369
23757SOL    HW273279   0.606   0.829   7.436 -1.1071 -0.4468  2.3698
23758SOL     OW73280  10.905  10.761   8.835  0.9791  0.8862  0.1657
23758SOL    HW173281  10.891  10.754   8.930 -1.2580 -0.0586 -0.1695
23758SOL    HW273282  10.872  10.848   8.813  0.8091  0.8184  0.1514
23759SOL     OW73283   2.366   0.316   8.151  0.1364  0.1770 -0.3726
23759SOL    HW173284   2.313   0.275   8.083 -0.0968  1.6493 -1.1182
23759SOL    HW273285   2.389   0.402   8.116  1.5279  0.2804  0.6801
23760SOL     OW73286   3.801   0.894   2.089 -0.3017 -0.1303  0.1395
23760SOL    HW173287   3.878   0.924   2.040 -0.1035 -1.1508 -0.2129
23760SOL    HW273288   3.726   0.930   2.041 -0.1116 -1.1323 -0.9762
23761SOL     OW73289   3.670  10.429   9.814  0.8436 -0.1914 -0.0188
23761SOL    HW173290   3.627  10.442   9.729  0.1579 -1.5299  0.0961
23761SOL    HW273291   3.691  10.335   9.816 -0.1429 -0.4261  1.7268
23762SOL     OW73292   6.314   1.189   1.628 -0.7217  0.3633  0.5170
23762SOL    HW173293   6.340   1.102   1.659  2.0099  1.0439  0.4255
23762SOL    HW273294   6.284   1.174   1.538 -0.4536 -0.5157  0.5614
23763SOL     OW73295   3.606   6.884   2.986 -0.2699  0.9041  0.5763
23763SOL    HW173296   3.633   6.974   2.970  0.0953  1.0308  1.7917
23763SOL    HW273297   3.671   6.850   3.047  1.1189 -1.0366 -1.7674
23764SOL     OW73298   8.166   2.406   6.158  0.2079 -0.1985 -0.0501
23764SOL    HW173299   8.179   2.370   6.245 -2.6470 -0.4912  0.3296
23764SOL    HW273300   8.129   2.493   6.173 -0.5335 -0.3430 -0.9574
23765SOL     OW73301   8.553   1.216   1.099  0.3768  0.1347  0.4140
23765SOL    HW173302   8.594   1.223   1.186  0.8758 -1.5253  0.3551
23765SOL    HW273303   8.583   1.293   1.052  0.1461  1.0454  1.6863
23766SOL     OW73304   9.025   1.840   5.070 -0.3893  0.1763 -0.2973
23766SOL    HW173305   9.035   1.854   5.164  1.6004  1.1837 -0.6033
23766SOL    HW273306   8.988   1.923   5.038  0.6720  0.5462 -0.6145
23767SOL     OW73307   6.396  11.262   7.148  0.1314  0.0637  0.4799
23767SOL    HW173308   6.442  11.208   7.212  1.0501  2.1994  1.7275
23767SOL    HW273309   6.438  11.241   7.065  0.0775 -1.4950  0.8064
23768SOL     OW73310   2.266   2.648   2.011  0.2393 -0.6449  0.1993
23768SOL    HW173311   2.289   2.609   1.927 -0.7436  0.3931 -0.5778
23768SOL    HW273312   2.350   2.658   2.057  0.6724 -2.1690 -0.2107
23769SOL     OW73313   9.295   7.834   3.668 -0.0117 -0.0495 -0.0533
23769SOL    HW173314   9.293   7.777   3.745  0.6890  0.4806  0.3603
23769SOL    HW273315   9.388   7.851   3.653 -0.1064 -0.4665 -1.2583
23770SOL     OW73316   0.682   0.795  10.152  0.2065 -0.0442  0.1042
23770SOL    HW173317   0.681   0.822  10.060  1.0281  1.6805  0.5671
23770SOL    HW273318   0.656   0.703  10.150 -0.0737  0.0389 -1.8234
23771SOL     OW73319   8.741   7.651   2.442 -0.3078  0.5790  0.0309
23771SOL    HW173320   8.702   7.735   2.467  0.4606  0.3996  1.9655
23771SOL    HW273321   8.792   7.624   2.518  2.9183  0.3651 -2.0176
23772SOL     OW73322   1.841   7.844   6.318 -0.6954 -0.8590  0.8796
23772SOL    HW173323   1.888   7.823   6.238  1.2243  2.7529  0.8438
23772SOL    HW273324   1.910   7.855   6.384 -1.5108  2.2190  1.4098
23773SOL     OW73325   1.963   1.277   8.456 -0.0084 -0.4354 -0.3185
23773SOL    HW173326   1.945   1.231   8.374 -0.5677 -2.2258  0.7465
23773SOL    HW273327   1.903   1.351   8.455 -0.6906 -0.9732 -1.1012
23774SOL     OW73328   0.634   2.247   8.996  0.4522  0.3911  0.4979
23774SOL    HW173329   0.624   2.297   9.077  0.5833 -0.5391  1.0983
23774SOL    HW273330   0.568   2.284   8.937  0.6200  1.3405  0.8844
23775SOL     OW73331   3.202  10.710   8.147 -0.0440  0.3772  0.1547
23775SOL    HW173332   3.236  10.797   8.125 -3.6564  1.6099 -1.2409
23775SOL    HW273333   3.217  10.658   8.068  0.3172  0.3033  0.2684
23776SOL     OW73334   3.114   7.450   3.248  0.1411  0.2920 -0.0655
23776SOL    HW173335   3.165   7.516   3.295 -0.3106  2.0694 -1.8966
23776SOL    HW273336   3.047   7.501   3.202 -1.7251 -1.7224  0.2780
23777SOL     OW73337   9.219   3.397   4.261  0.2722  0.4744  0.1675
23777SOL    HW173338   9.247   3.436   4.344 -1.2271 -1.6967  1.7825
23777SOL    HW273339   9.142   3.448   4.236  1.8061  2.3673 -0.9881
23778SOL     OW73340   8.390   9.182   0.166 -0.0546  0.1047 -0.1532
23778SOL    HW173341   8.452   9.151   0.100  3.0806  1.5841  1.8493
23778SOL    HW273342   8.363   9.269   0.134  1.0383  0.5891  0.1912
23779SOL     OW73343   9.866   5.466   1.237 -0.2117 -0.2176  0.3338
23779SOL    HW173344   9.831   5.464   1.148  0.0298  1.3584  0.1686
23779SOL    HW273345   9.928   5.538   1.236  0.6903 -0.9518  1.4765
23780SOL     OW73346   6.049   4.833   8.392  0.4591  0.5031 -0.2308
23780SOL    HW173347   6.115   4.863   8.328  0.4149 -0.0474 -0.5371
23780SOL    HW273348   6.013   4.914   8.428  0.7247  0.8208 -0.6599
23781SOL     OW73349   7.132   7.454  10.810  0.2971  0.0538  0.0061
23781SOL    HW173350   7.080   7.519  10.763 -0.0193 -0.6534 -0.6417
23781SOL    HW273351   7.213   7.500  10.832  0.0449  0.6949 -0.3637
23782SOL     OW73352   2.227   9.448   6.788 -0.3247  0.6008 -0.0154
23782SOL    HW173353   2.146   9.398   6.786 -1.3903  2.1006  2.0039
23782SOL    HW273354   2.285   9.403   6.727 -1.7097 -2.1936  0.5939
23783SOL     OW73355   3.466   2.927   4.609 -0.2034  0.1334 -0.5800
23783SOL    HW173356   3.380   2.967   4.597 -0.9932 -0.7129  1.8353
23783SOL    HW273357   3.462   2.845   4.558 -0.2495  0.7962 -1.6816
23784SOL     OW73358   0.799   2.333   4.704 -0.5852 -1.1504 -0.0135
23784SOL    HW173359   0.836   2.310   4.618  0.7626 -3.1306  1.0021
23784SOL    HW273360   0.705   2.334   4.690 -0.4100  2.9421 -2.4578
23785SOL     OW73361   3.148   9.141  10.044  0.5018  0.0335  0.4086
23785SOL    HW173362   3.119   9.173  10.130  0.2933  1.8514 -0.3042
23785SOL    HW273363   3.068   9.119   9.998  0.4611  1.2167 -0.1133
23786SOL     OW73364   9.154   3.397   5.360 -0.2077  0.3248 -0.3894
23786SOL    HW173365   9.090   3.455   5.402 -0.7452  0.4712 -1.3833
23786SOL    HW273366   9.198   3.354   5.433 -0.7888  0.9244  0.3366
23787SOL     OW73367   7.143   4.564   2.886  0.0646 -0.0223  0.2321
23787SOL    HW173368   7.121   4.473   2.866  0.2355 -0.4442  1.8483
23787SOL    HW273369   7.064   4.600   2.928 -0.1723  0.7403 -0.8130
23788SOL     OW73370   0.592   6.363   2.557  0.3165  0.5663  0.5487
23788SOL    HW173371   0.621   6.278   2.526 -1.2532 -0.3726  1.5226
23788SOL    HW273372   0.535   6.344   2.632 -0.2799  2.4468  0.6499
23789SOL     OW73373   5.138   6.322   6.313 -0.7692 -0.2459 -0.3764
23789SOL    HW173374   5.178   6.307   6.228  2.8327 -0.0998  1.0969
23789SOL    HW273375   5.110   6.235   6.342  0.7045 -0.8001 -0.5373
23790SOL     OW73376   6.133   7.413  10.670  0.2375 -0.0584  1.1019
23790SOL    HW173377   6.131   7.381  10.579  1.1775 -0.1085  1.0799
23790SOL    HW273378   6.224   7.397  10.698  0.1586  0.6624  1.7978
23791SOL     OW73379   1.709   5.132   1.236  0.1494  0.0885 -0.1223
23791SOL    HW173380   1.667   5.139   1.150 -0.9485  0.3933  0.4180
23791SOL    HW273381   1.758   5.049   1.232 -2.8521 -1.8627  0.1462
23792SOL     OW73382   3.270   4.566   1.542  0.4571  0.1092 -0.0797
23792SOL    HW173383   3.297   4.611   1.621 -2.8528 -0.8997  1.8478
23792SOL    HW273384   3.198   4.618   1.507  0.4457 -0.5988 -1.1863
23793SOL     OW73385   5.944   1.686   4.017 -0.8435  0.3297  0.1196
23793SOL    HW173386   5.919   1.674   3.926 -0.7282  0.9832 -0.0011
23793SOL    HW273387   5.866   1.724   4.058 -0.0882  2.4242 -0.2683
23794SOL     OW73388   6.134   3.884   0.017  0.1641 -0.0318 -0.0540
23794SOL    HW173389   6.192   3.876  -0.059 -0.3862 -2.6563 -0.2903
23794SOL    HW273390   6.169   3.959   0.066  2.8828 -0.6339 -0.8988
23795SOL     OW73391   9.965   2.573   9.499 -0.0212  0.0313 -0.9014
23795SOL    HW173392   9.923   2.637   9.442 -2.8723 -0.2580  0.7191
23795SOL    HW273393   9.899   2.551   9.564  1.6857 -2.7415  0.0771
23796SOL     OW73394  10.021   4.356   0.227 -0.0373 -0.1581 -0.0767
23796SOL    HW173395   9.949   4.370   0.289 -0.2139  0.0405 -0.3236
23796SOL    HW273396   9.979   4.314   0.152 -0.0703  0.8401 -0.6250
23797SOL     OW73397   1.331   6.002   3.393  0.8053  0.3814 -0.2518
23797SOL    HW173398   1.340   5.937   3.324 -0.4180  0.3512 -0.3909
23797SOL    HW273399   1.399   6.067   3.373  1.3237 -0.2960 -0.7227
23798SOL     OW73400   9.658  10.142   1.340  0.3455  0.1222 -0.0393
23798SOL    HW173401   9.625  10.053   1.343  1.8796 -0.4715  0.2125
23798SOL    HW273402   9.680  10.156   1.248  1.0397 -0.1308  0.0838
23799SOL     OW73403   9.797   7.073   6.997 -0.1533 -0.2874 -0.0414
23799SOL    HW173404   9.871   7.084   6.938  0.3506  1.0197  0.7880
23799SOL    HW273405   9.722   7.057   6.940 -0.0045  2.5793 -1.1917
23800SOL     OW73406  10.903   1.373   0.117 -0.6004 -0.1823 -0.3636
23800SOL    HW173407  10.960   1.380   0.193  0.8275  0.5552 -1.4705
23800SOL    HW273408  10.844   1.300   0.138  1.0676 -1.3189  0.6040
23801SOL     OW73409   7.503  11.113   7.163  0.0146 -0.2925 -0.2154
23801SOL    HW173410   7.536  11.024   7.176  0.1530 -0.5485 -2.1459
23801SOL    HW273411   7.532  11.160   7.242 -0.9675 -2.1641  1.3490
23802SOL     OW73412   5.506   3.962   4.519  0.5735  0.1984 -0.1032
23802SOL    HW173413   5.517   3.866   4.523 -0.8977  0.0192 -0.0270
23802SOL    HW273414   5.488   3.980   4.427  0.0484  0.3075  0.0215
23803SOL     OW73415   7.306   7.903   4.844  0.1755 -0.7199  0.2980
23803SOL    HW173416   7.273   7.987   4.814 -1.1216 -1.6530 -1.0685
23803SOL    HW273417   7.399   7.905   4.825  0.4318  0.9009  1.5706
23804SOL     OW73418   2.005   6.973   2.908 -0.0429 -0.4325 -0.0807
23804SOL    HW173419   2.066   6.908   2.945 -0.4773 -0.2254  1.0376
23804SOL    HW273420   2.058   7.022   2.845  1.1464  0.1767  1.3436
23805SOL     OW73421   6.097   4.383   5.706  0.4891 -0.3242  0.3686
23805SOL    HW173422   6.107   4.294   5.672 -1.3884 -1.8336  3.2777
23805SOL    HW273423   6.030   4.422   5.650  0.2009 -1.3330 -0.0218
23806SOL     OW73424   0.136   4.627  10.985 -0.3487  0.7676 -0.2364
23806SOL    HW173425   0.135   4.630  11.081  0.9379 -1.5287 -0.0777
23806SOL    HW273426   0.051   4.663  10.959 -0.8595  1.1414  1.7607
23807SOL     OW73427   7.497   9.866   7.785  0.5295 -0.0953 -0.1827
23807SOL    HW173428   7.445   9.941   7.755 -0.1286 -0.3990  0.1687
23807SOL    HW273429   7.587   9.892   7.769  0.3847  1.2279  0.8964
23808SOL     OW73430   3.648   5.691   6.526 -0.2265  0.3795  0.6129
23808SOL    HW173431   3.718   5.645   6.479  0.7179  1.2883  1.0821
23808SOL    HW273432   3.671   5.784   6.518 -1.9412  0.7654 -0.0788
23809SOL     OW73433   3.200   4.950   1.772  0.0556 -0.5460  0.3346
23809SOL    HW173434   3.255   4.991   1.838  0.6508 -0.9067  0.0666
23809SOL    HW273435   3.259   4.932   1.699 -0.2085 -1.7824  0.4042
23810SOL     OW73436   5.268   7.932   7.963 -0.0197  0.7627 -0.1770
23810SOL    HW173437   5.342   7.970   8.011  0.0761  0.5315 -0.1402
23810SOL    HW273438   5.223   8.007   7.925 -0.0041  0.9348  0.1439
23811SOL     OW73439   2.958   4.170   5.145  0.0903  0.0006  0.7487
23811SOL    HW173440   3.028   4.132   5.092  1.7582  2.7490  0.7548
23811SOL    HW273441   2.895   4.202   5.081  1.4757  2.1556  0.3382
23812SOL     OW73442   3.278   4.122   1.882  0.1227  0.2060  0.3023
23812SOL    HW173443   3.279   4.128   1.977 -2.8840 -1.3990  0.5592
23812SOL    HW273444   3.301   4.211   1.852 -2.1273  1.7339  2.6567
23813SOL     OW73445   3.141   0.903   1.399  0.7261 -0.0096 -0.2948
23813SOL    HW173446   3.173   0.846   1.329  0.7348  0.4127 -0.6412
23813SOL    HW273447   3.166   0.858   1.480 -1.4063 -1.7421 -0.5075
23814SOL     OW73448   1.756   0.270   7.964 -0.8232  0.2264 -0.4629
23814SOL    HW173449   1.832   0.241   8.014 -0.7439 -0.1005 -0.7708
23814SOL    HW273450   1.792   0.305   7.883 -1.0507 -0.9123 -1.0856
23815SOL     OW73451  10.309  10.061   0.329 -0.7470 -0.1773 -0.1706
23815SOL    HW173452  10.366  10.085   0.257 -0.7540  0.3506 -0.0009
23815SOL    HW273453  10.325   9.967   0.342  3.3354  0.6065  2.6276
23816SOL     OW73454   8.678   2.699   1.560 -0.5359 -0.2224  0.4663
23816SOL    HW173455   8.647   2.620   1.515 -1.2382  1.9485 -3.3527
23816SOL    HW273456   8.751   2.729   1.506  0.4466  1.2125  2.4675
23817SOL     OW73457   5.067   3.046   7.822 -0.3376 -0.1276 -0.1423
23817SOL    HW173458   5.111   2.980   7.875  0.9142 -0.3261 -1.3661
23817SOL    HW273459   5.094   3.130   7.860  1.9136 -0.2075 -1.3913
23818SOL     OW73460   4.987   6.307   4.806 -0.6591  0.1585  0.3680
23818SOL    HW173461   4.944   6.386   4.773  0.3595  1.3920  1.8002
23818SOL    HW273462   5.017   6.332   4.894 -1.0885 -2.1360  1.2236
23819SOL     OW73463  10.341   0.673   7.692  0.2313 -0.1268  0.1217
23819SOL    HW173464  10.313   0.585   7.716  1.6299 -0.3550  1.0342
23819SOL    HW273465  10.434   0.665   7.673  0.2308  1.0266 -0.4791
23820SOL     OW73466  10.728   5.805   7.226  0.8349  0.4679 -0.0873
23820SOL    HW173467  10.732   5.900   7.218 -2.2288  0.7714  0.9132
23820SOL    HW273468  10.733   5.773   7.136  4.3036  1.3040 -0.3345
23821SOL     OW73469  11.052   9.460   2.719  0.1032  0.7828 -0.0144
23821SOL    HW173470  10.993   9.446   2.794  1.2533  1.7794  1.1265
23821SOL    HW273471  11.113   9.386   2.722 -0.8433 -0.0685 -0.9950
23822SOL     OW73472   4.344   1.286   2.830  1.0429  0.4847 -0.2261
23822SOL    HW173473   4.424   1.312   2.876  2.2349 -1.3454 -1.1564
23822SOL    HW273474   4.351   1.191   2.821 -1.6429  0.1399  0.3631
23823SOL     OW73475   3.738   6.665   4.267  0.2839  0.5849  0.3422
23823SOL    HW173476   3.713   6.622   4.348  0.9064  0.7900  0.6496
23823SOL    HW273477   3.753   6.756   4.291  3.2064  0.1357  0.6265
23824SOL     OW73478   1.653   2.132  11.114  0.9423  0.4128 -0.3147
23824SOL    HW173479   1.710   2.068  11.155 -0.3211 -0.2760  0.4324
23824SOL    HW273480   1.590   2.157  11.183 -1.0231 -0.5130 -1.6728
23825SOL     OW73481  11.256   5.133   2.140  0.5170 -0.8020  0.3713
23825SOL    HW173482  11.346   5.160   2.158  0.9360  0.9882 -3.4682
23825SOL    HW273483  11.209   5.215   2.126 -1.3658 -1.7793  0.7360
23826SOL     OW73484   8.150   3.449   1.070  0.1836 -0.0105  0.6060
23826SOL    HW173485   8.152   3.483   1.160  1.3414 -0.4590  0.7757
23826SOL    HW273486   8.206   3.371   1.073  1.5443  0.8480 -0.8405
23827SOL     OW73487   0.638   4.055   3.654 -0.4197 -0.3353 -0.0695
23827SOL    HW173488   0.556   4.104   3.645  0.0426  0.3495 -0.6593
23827SOL    HW273489   0.684   4.070   3.571  1.0987  0.7858  0.9326
23828SOL     OW73490   9.714   2.644   9.649  0.0482  0.3514  0.2553
23828SOL    HW173491   9.681   2.575   9.708  0.2510  0.5790  0.6384
23828SOL    HW273492   9.639   2.665   9.593  0.4014 -1.2278 -0.8763
23829SOL     OW73493   0.734   4.940   1.697 -0.2161  0.1951 -0.3530
23829SOL    HW173494   0.747   4.885   1.621 -0.5467 -1.4766  0.7511
23829SOL    HW273495   0.669   4.893   1.750 -0.1547  1.4028  0.8581
23830SOL     OW73496   6.790   8.309   3.755 -1.5258 -0.3131 -0.4085
23830SOL    HW173497   6.854   8.254   3.710 -0.0325  1.3810 -0.4546
23830SOL    HW273498   6.724   8.327   3.689 -0.8425 -0.2033 -1.0761
23831SOL     OW73499   0.596   8.985   9.428 -0.2066  0.4683  0.0996
23831SOL    HW173500   0.522   8.924   9.430  0.6375 -0.5715  0.1468
23831SOL    HW273501   0.666   8.937   9.384  0.7322  1.1249  0.8376
23832SOL     OW73502   0.906   5.786   2.910  0.1161 -0.1935 -0.2307
23832SOL    HW173503   0.858   5.798   2.828 -0.5301  0.8455  0.2714
23832SOL    HW273504   0.906   5.873   2.950 -1.6135 -1.1392  1.9835
23833SOL     OW73505   2.166   5.944   7.862 -0.0989 -0.4431 -0.5065
23833SOL    HW173506   2.145   6.032   7.894 -0.9880 -0.8858  0.1541
23833SOL    HW273507   2.175   5.955   7.767  1.9199  0.7582 -0.2300
23834SOL     OW73508   9.310   4.940   4.998  0.1415  0.2246 -0.2238
23834SOL    HW173509   9.252   4.864   4.999  0.4300 -0.0247 -1.4243
23834SOL    HW273510   9.252   5.014   4.983 -0.0729  0.1899  0.3922
23835SOL     OW73511   6.369   2.933   9.441  0.1632 -0.8460  0.0611
23835SOL    HW173512   6.395   2.843   9.463  0.2712 -0.9971 -0.6617
23835SOL    HW273513   6.286   2.946   9.487  1.1527 -0.5822  1.8971
23836SOL     OW73514   4.886   4.008   1.279  0.6240 -0.2096 -0.3938
23836SOL    HW173515   4.812   4.054   1.239 -2.0005 -2.5136  1.4171
23836SOL    HW273516   4.963   4.054   1.247 -1.5772  2.7142 -1.9589
23837SOL     OW73517   5.437   1.786   9.349 -0.0485 -0.3778 -0.3896
23837SOL    HW173518   5.461   1.864   9.300 -1.0503  0.5452  0.5372
23837SOL    HW273519   5.347   1.802   9.377  0.3683 -1.0026  1.4537
23838SOL     OW73520   3.688  11.079   1.493  1.0625  0.1716  0.0931
23838SOL    HW173521   3.683  11.118   1.580  2.1322 -0.2182  0.3364
23838SOL    HW273522   3.694  10.985   1.510 -0.3031 -0.0365 -0.4545
23839SOL     OW73523   2.443   1.310  10.141 -0.2076  0.2881 -0.4197
23839SOL    HW173524   2.419   1.290  10.050  1.3138  1.4766 -1.1328
23839SOL    HW273525   2.385   1.382  10.165 -0.9403 -0.3361 -0.2508
23840SOL     OW73526   9.122   8.714  10.395  0.1230 -0.6019 -0.3439
23840SOL    HW173527   9.057   8.747  10.457 -0.0025  0.7848 -1.1849
23840SOL    HW273528   9.132   8.783  10.330  1.7834 -1.1465 -0.7381
23841SOL     OW73529   7.284   9.212   2.807  0.3243 -0.1449  0.4660
23841SOL    HW173530   7.301   9.296   2.766  1.6659  0.2682  1.7949
23841SOL    HW273531   7.297   9.227   2.901  2.9690 -2.3435  0.5756
23842SOL     OW73532   5.231   2.205   4.485  0.4719 -0.1913  0.5416
23842SOL    HW173533   5.240   2.240   4.574 -1.7506 -2.3275  1.7396
23842SOL    HW273534   5.286   2.127   4.485  1.8007  0.7065 -0.5843
23843SOL     OW73535   4.848   1.827   7.479  0.2210  0.8052 -0.3169
23843SOL    HW173536   4.765   1.849   7.521  1.2752 -0.3517  2.6948
23843SOL    HW273537   4.875   1.746   7.522  2.2903  0.4528 -2.1395
23844SOL     OW73538   8.932  10.119   5.050 -0.2688 -0.1601 -0.0593
23844SOL    HW173539   8.993  10.173   5.099 -0.4993  1.7046 -1.6855
23844SOL    HW273540   8.867  10.090   5.114  1.9081 -1.7173  1.5852
23845SOL     OW73541   0.515  11.253   3.799 -0.7130  0.0826  0.2909
23845SOL    HW173542   0.449  11.209   3.853  0.8209  0.7958  2.9917
23845SOL    HW273543   0.525  11.339   3.840  0.0218  0.9922 -1.6760
23846SOL     OW73544   2.618   7.840   7.359 -0.0520  0.1220  0.0071
23846SOL    HW173545   2.665   7.757   7.366 -1.5799 -0.8485 -0.6421
23846SOL    HW273546   2.548   7.833   7.423  0.4651  1.4150  0.7448
23847SOL     OW73547   1.986   8.798   5.852 -0.2411 -0.0041 -0.2177
23847SOL    HW173548   1.914   8.850   5.817  0.5136  0.0159 -1.8418
23847SOL    HW273549   2.035   8.859   5.908 -0.2481  0.6125 -0.8680
23848SOL     OW73550   7.289   6.597   6.610  0.2004  0.5781 -0.5340
23848SOL    HW173551   7.257   6.672   6.660 -0.1108 -0.1898  0.4609
23848SOL    HW273552   7.328   6.539   6.675  0.3983 -0.1458 -1.2724
23849SOL     OW73553  10.182   0.816   4.940 -0.1524 -0.4252 -0.2265
23849SOL    HW173554  10.143   0.904   4.933  0.3109 -0.2608 -0.7959
23849SOL    HW273555  10.161   0.774   4.857 -0.1223 -0.7551 -0.0686
23850SOL     OW73556   1.536  10.899   4.256  0.2840  0.4885 -0.2542
23850SOL    HW173557   1.466  10.899   4.321 -0.0548  2.4377 -0.5688
23850SOL    HW273558   1.616  10.881   4.306 -0.1716  0.3772  0.4399
23851SOL     OW73559   1.836  10.052   0.465  0.6032 -0.1318 -0.4588
23851SOL    HW173560   1.894  10.128   0.458  0.4343  0.5449  3.4386
23851SOL    HW273561   1.757  10.079   0.418 -0.4359  3.3421  2.7632
23852SOL     OW73562   2.852   0.959   8.481 -0.8007 -0.4673 -0.2125
23852SOL    HW173563   2.791   0.958   8.555  0.0592  1.8326  0.6071
23852SOL    HW273564   2.824   0.885   8.427 -0.7050 -3.0696  2.9562
23853SOL     OW73565   2.006   6.234   5.575 -0.5635 -0.3145 -0.1085
23853SOL    HW173566   1.937   6.177   5.542  0.2696 -1.6380  0.3277
23853SOL    HW273567   1.981   6.252   5.666  0.6857 -2.6203  0.7824
23854SOL     OW73568   2.693   6.290   4.364 -0.4643  0.2449  0.4576
23854SOL    HW173569   2.773   6.317   4.409  0.5532 -1.8310  0.0382
23854SOL    HW273570   2.673   6.362   4.304  0.8279  0.9787  0.8727
23855SOL     OW73571   1.186  10.111   2.225  0.4543 -0.4540 -0.4852
23855SOL    HW173572   1.142  10.176   2.170  2.2867  1.1194 -0.2402
23855SOL    HW273573   1.150  10.027   2.198 -0.0392  0.4254 -2.7799
23856SOL     OW73574   3.346   7.209   5.056  0.0587  0.7038 -0.2324
23856SOL    HW173575   3.440   7.219   5.072  0.4728  0.4422 -2.2293
23856SOL    HW273576   3.322   7.285   5.004 -0.5021  0.0317 -0.9900
23857SOL     OW73577  10.427   6.966   0.574 -0.3600  0.0677  0.3825
23857SOL    HW173578  10.418   7.032   0.505  1.4052  0.3502  0.3895
23857SOL    HW273579  10.482   6.898   0.537  0.7039  0.2685  1.5061
23858SOL     OW73580   0.125   1.038   3.630  0.2101 -0.1166 -0.6803
23858SOL    HW173581   0.180   1.023   3.553 -0.4501 -0.5280 -1.0831
23858SOL    HW273582   0.185   1.075   3.695  1.2239 -1.5325 -0.7359
23859SOL     OW73583   8.322   9.462   7.114  0.2826  1.0521  0.1322
23859SOL    HW173584   8.316   9.454   7.209 -1.1827  0.8520  0.0326
23859SOL    HW273585   8.333   9.555   7.098 -0.2942  1.1781  0.4619
23860SOL     OW73586   4.814   9.731   7.927 -0.0889  0.1459 -0.4818
23860SOL    HW173587   4.788   9.641   7.946 -0.3132 -0.0613 -1.6497
23860SOL    HW273588   4.737   9.770   7.886  0.1432  0.7403 -0.3668
23861SOL     OW73589   1.280   5.004   4.700 -0.4087 -0.3272  0.1083
23861SOL    HW173590   1.229   5.049   4.767  1.4856  2.8109 -0.3633
23861SOL    HW273591   1.369   4.999   4.736  0.2323 -0.3212 -1.3836
23862SOL     OW73592   2.367   5.420   2.601  0.1410  0.0980  0.6076
23862SOL    HW173593   2.421   5.374   2.665  0.1004 -3.5501 -1.6923
23862SOL    HW273594   2.307   5.353   2.567 -0.0578  1.8202 -2.9809
23863SOL     OW73595   5.424   6.277   8.135  0.4444 -0.4242  0.1399
23863SOL    HW173596   5.506   6.324   8.145  0.0674  0.2934 -0.0534
23863SOL    HW273597   5.401   6.286   8.042  0.4190 -1.0846  0.0754
23864SOL     OW73598  10.511   9.070   6.891 -0.1910 -0.0477  0.3687
23864SOL    HW173599  10.450   9.131   6.934  0.6143  2.2222 -1.4994
23864SOL    HW273600  10.457   9.026   6.825 -0.8693 -1.7640  1.9829
23865SOL     OW73601   4.570   9.883   3.821 -0.9442 -0.9625 -0.2761
23865SOL    HW173602   4.664   9.870   3.827 -0.8548 -0.6931 -1.0465
23865SOL    HW273603   4.541   9.889   3.912 -0.1353 -0.4391 -0.0444
23866SOL     OW73604   7.150   1.407   1.768  0.4950 -0.2497  0.0612
23866SOL    HW173605   7.072   1.353   1.784  1.0408 -0.5142  2.1626
23866SOL    HW273606   7.123   1.469   1.700 -0.8884 -1.6483 -0.7368
23867SOL     OW73607   4.679   5.541   4.960 -0.0026  1.1220  0.7912
23867SOL    HW173608   4.756   5.587   4.994  0.6788 -1.4766  3.0951
23867SOL    HW273609   4.713   5.458   4.928 -1.5233  1.0632 -0.7945
23868SOL     OW73610   3.118  10.361   4.227  0.1178 -0.1055 -0.1102
23868SOL    HW173611   3.180  10.434   4.222 -1.3048  1.0922 -1.3069
23868SOL    HW273612   3.058  10.385   4.298 -1.8762  1.2478 -2.1115
23869SOL     OW73613  11.191   7.654  10.050  0.3698 -0.0741 -0.1989
23869SOL    HW173614  11.218   7.569  10.014  1.5693  0.5069 -0.7021
23869SOL    HW273615  11.248   7.667  10.126  1.0554  0.8236 -0.8378
23870SOL     OW73616   5.405   6.231   0.742  0.4188  0.2593 -0.3465
23870SOL    HW173617   5.471   6.289   0.779  1.0431 -0.9990  0.5714
23870SOL    HW273618   5.374   6.178   0.816  0.8483 -1.5091 -1.3671
23871SOL     OW73619   8.251   0.482   2.071 -0.0055  0.3521  0.3807
23871SOL    HW173620   8.180   0.426   2.101 -0.6274  0.4009 -0.9046
23871SOL    HW273621   8.207   0.548   2.017  1.2147 -1.3492 -2.9680
23872SOL     OW73622   7.087   4.071   4.947  0.9993 -0.1603 -0.1206
23872SOL    HW173623   7.055   4.103   5.032  0.9766 -0.4609 -0.0111
23872SOL    HW273624   7.015   4.017   4.914  0.8827  0.2182 -0.4827
23873SOL     OW73625   9.132   3.941  10.289 -0.0556 -0.9393 -0.4285
23873SOL    HW173626   9.110   4.022  10.244 -0.9256 -1.8907 -1.7895
23873SOL    HW273627   9.129   3.963  10.382  2.4997  1.2801 -0.7430
23874SOL     OW73628   6.711   8.502   2.442  0.0427  0.0432  0.1835
23874SOL    HW173629   6.710   8.565   2.515  0.4775  0.2797 -0.0092
23874SOL    HW273630   6.804   8.487   2.426 -0.0591 -0.3474 -0.0354
23875SOL     OW73631   0.373   6.386   8.649  0.2560  0.2111  0.1327
23875SOL    HW173632   0.294   6.368   8.598  1.1436  0.7984 -1.5399
23875SOL    HW273633   0.384   6.309   8.705 -1.4718  0.1215  0.4042
23876SOL     OW73634  10.903   1.033   9.982  0.6346 -0.0109  0.0148
23876SOL    HW173635  10.983   1.069  10.021  0.9298  0.4653 -1.0111
23876SOL    HW273636  10.916   0.939   9.982 -0.2430 -0.2646  2.9669
23877SOL     OW73637   1.300  10.986   2.154 -0.3703  0.0945  0.0386
23877SOL    HW173638   1.273  11.062   2.206  1.9566  0.8295  0.2970
23877SOL    HW273639   1.327  11.024   2.070  0.7510 -0.4341  0.1461
23878SOL     OW73640   1.671   4.628   3.581 -0.1124 -0.3949  0.5449
23878SOL    HW173641   1.644   4.637   3.489 -1.0039 -1.4664  0.6852
23878SOL    HW273642   1.660   4.716   3.617 -0.1454 -0.0519 -0.2732
23879SOL     OW73643   1.324  10.623  10.901 -0.2692  0.4837 -0.3972
23879SOL    HW173644   1.237  10.631  10.861 -0.2164 -0.4852 -0.7410
23879SOL    HW273645   1.314  10.664  10.987 -1.9271 -2.0655  0.7546
23880SOL     OW73646   4.139  10.910   4.288 -0.3062  0.2882 -0.1208
23880SOL    HW173647   4.179  10.896   4.203  1.8896  2.7916  0.3822
23880SOL    HW273648   4.114  10.822   4.318 -0.1722 -0.7510 -2.8222
23881SOL     OW73649   9.792   5.946   1.046  0.5862  0.2962  0.3985
23881SOL    HW173650   9.872   5.945   0.993  1.2474  0.2506  1.3507
23881SOL    HW273651   9.768   6.038   1.052  0.5063  0.3000  0.0150
23882SOL     OW73652   5.246   6.603   4.354  0.0973  0.4207  0.5088
23882SOL    HW173653   5.305   6.563   4.290  1.0866  1.4364  0.7540
23882SOL    HW273654   5.179   6.646   4.302  1.5260  2.2274  0.0446
23883SOL     OW73655   3.958   4.785   3.572  0.2670 -0.4019 -0.3826
23883SOL    HW173656   3.909   4.741   3.641  2.2574 -0.2198  1.2246
23883SOL    HW273657   4.038   4.734   3.562 -0.4794 -1.2260 -3.5907
23884SOL     OW73658   3.953   5.400  10.295  0.1521  0.0455  0.7813
23884SOL    HW173659   3.932   5.312  10.263  0.6207  0.1220  0.2538
23884SOL    HW273660   3.896   5.411  10.371 -2.7520  0.7665 -1.3326
23885SOL     OW73661   8.496   5.186   2.359 -0.8419 -0.4310  0.2521
23885SOL    HW173662   8.529   5.173   2.271 -0.6734 -3.2359  0.6397
23885SOL    HW273663   8.418   5.130   2.365 -0.8981 -0.2539  1.8587
23886SOL     OW73664   1.123   3.822   4.225  0.5691  0.0504 -0.2276
23886SOL    HW173665   1.117   3.729   4.201  0.4852 -0.2201  0.7853
23886SOL    HW273666   1.033   3.853   4.227  0.6136  0.2190 -0.8040
23887SOL     OW73667   9.506   8.955   4.351  0.3374 -0.2845 -0.0949
23887SOL    HW173668   9.585   8.901   4.351  0.6222  0.0230  2.0306
23887SOL    HW273669   9.464   8.936   4.267  2.8776 -0.0704 -1.5101
23888SOL     OW73670   5.216  11.180   4.740  0.3146  0.1720 -0.1049
23888SOL    HW173671   5.186  11.115   4.677  0.0675  1.7878 -1.7146
23888SOL    HW273672   5.311  11.184   4.727  0.3839 -0.1240  0.2735
23889SOL     OW73673   3.774   8.827   1.057 -0.4733 -0.1304 -0.0345
23889SOL    HW173674   3.700   8.872   1.017 -0.5690  1.4940  1.8250
23889SOL    HW273675   3.828   8.897   1.094  0.6716 -1.4255  0.8578
23890SOL     OW73676  10.697   2.903  11.126 -0.6945 -0.1352 -0.0259
23890SOL    HW173677  10.691   2.913  11.031 -0.5603 -1.1311 -0.1421
23890SOL    HW273678  10.674   2.812  11.143 -2.3630  0.4335  1.0467
23891SOL     OW73679   2.348   8.957   8.082 -0.7314 -0.2033 -0.4299
23891SOL    HW173680   2.307   8.891   8.025  0.9653 -1.1925 -0.5592
23891SOL    HW273681   2.356   9.035   8.027 -2.0881 -0.0921 -0.5033
23892SOL     OW73682   1.102   1.603   1.647 -0.0970  0.1795  0.3092
23892SOL    HW173683   1.025   1.572   1.599 -0.5168 -2.1665  2.2673
23892SOL    HW273684   1.147   1.523   1.675 -0.0142  1.2659  3.8625
23893SOL     OW73685   9.297   0.241  11.109  0.0585 -0.0860  0.9843
23893SOL    HW173686   9.216   0.192  11.090 -1.0192  2.3202 -1.2700
23893SOL    HW273687   9.351   0.229  11.031  0.3282  1.1654  0.9565
23894SOL     OW73688   4.879   7.685   3.383 -0.1651  0.4211  0.2873
23894SOL    HW173689   4.952   7.680   3.321  0.3230  1.5204  0.7384
23894SOL    HW273690   4.801   7.669   3.330  0.4218 -1.1699 -0.1245
23895SOL     OW73691   9.001   7.965   7.058  0.4835 -0.2105 -0.1907
23895SOL    HW173692   8.997   7.897   7.125  0.5583 -0.2060 -0.1813
23895SOL    HW273693   8.990   7.918   6.975 -0.6748 -0.0928 -0.1162
23896SOL     OW73694   8.880   2.891   1.697 -0.4980  0.2713  0.8030
23896SOL    HW173695   8.813   2.865   1.759 -0.6810  0.5721  0.7329
23896SOL    HW273696   8.861   2.983   1.677 -1.7912 -0.3991 -1.4014
23897SOL     OW73697  10.186   8.989   5.000 -0.4138 -0.5798 -0.1941
23897SOL    HW173698  10.257   8.924   4.993  0.2008  0.1013 -0.3452
23897SOL    HW273699  10.110   8.945   4.960  0.2311 -0.8658 -1.1492
23898SOL     OW73700   9.675  10.936   3.377  0.4760 -0.6109 -0.5290
23898SOL    HW173701   9.633  10.853   3.399  0.3761 -0.0741  1.4849
23898SOL    HW273702   9.640  10.958   3.290 -1.2351 -1.5752 -0.1241
23899SOL     OW73703  11.033   7.971   4.800 -0.0155  0.2310  0.1322
23899SOL    HW173704  11.033   8.031   4.875  1.1181  0.2065  0.1640
23899SOL    HW273705  11.077   7.892   4.831  2.2448  0.9291 -1.0667
23900SOL     OW73706  11.270  10.569  10.665 -0.5654  0.4601  0.1359
23900SOL    HW173707  11.292  10.590  10.574 -0.5382 -1.0266 -0.2212
23900SOL    HW273708  11.215  10.491  10.659 -0.1767  0.0706  1.4345
23901SOL     OW73709   0.230   8.544   0.377  0.6302  0.5388  0.0142
23901SOL    HW173710   0.244   8.569   0.468  0.3536  1.2740 -0.1431
23901SOL    HW273711   0.272   8.614   0.326 -1.8438  1.7873 -0.4517
23902SOL     OW73712   4.364   8.885  11.155 -0.0195  0.1886 -0.0036
23902SOL    HW173713   4.376   8.872  11.061  1.6458  0.1179  0.1786
23902SOL    HW273714   4.290   8.829  11.178 -1.6255  1.5495 -1.5472
23903SOL     OW73715   0.314   1.676   4.399  0.3728 -0.4922  0.0363
23903SOL    HW173716   0.348   1.599   4.353  1.4356  0.0552 -0.1252
23903SOL    HW273717   0.355   1.750   4.355 -0.6488  0.1759  0.1909
23904SOL     OW73718   2.794   7.044   5.788  0.3353  0.4588 -0.8191
23904SOL    HW173719   2.774   7.035   5.695  0.8185 -1.5126 -0.7614
23904SOL    HW273720   2.778   6.957   5.825 -0.8560  1.4403  1.1559
23905SOL     OW73721   3.227   1.464  10.090  0.1554 -0.1814 -0.1450
23905SOL    HW173722   3.304   1.426  10.132  0.4929  1.1062  0.4561
23905SOL    HW273723   3.187   1.518  10.158 -0.3172  0.5037 -0.9528
23906SOL     OW73724   7.950   5.874   5.151  0.2310  1.2596 -0.7981
23906SOL    HW173725   7.917   5.865   5.062  1.7052  2.6244 -1.5405
23906SOL    HW273726   7.891   5.822   5.205 -1.8824  2.0086 -2.2932
23907SOL     OW73727   9.775   9.430   8.013 -0.2925 -0.4410  0.0606
23907SOL    HW173728   9.790   9.525   8.017 -0.0653 -0.5082  0.7938
23907SOL    HW273729   9.738   9.416   7.926  2.2327 -0.0426 -1.1826
23908SOL     OW73730   0.892   8.768   7.407  0.1075  0.2288  0.4236
23908SOL    HW173731   0.827   8.837   7.395  1.5974  1.6595  0.1573
23908SOL    HW273732   0.881   8.739   7.497 -0.7562  0.6090  0.4471
23909SOL     OW73733   4.095   0.310   9.745 -0.3627  0.4458  0.6134
23909SOL    HW173734   4.061   0.240   9.801 -2.7231  1.7864  0.9667
23909SOL    HW273735   4.017   0.352   9.709  1.0248  2.0503 -0.6580
23910SOL     OW73736   8.086   0.883   7.082  0.1637 -0.8607  0.0641
23910SOL    HW173737   8.119   0.814   7.139  3.6045  1.0042  0.6313
23910SOL    HW273738   8.135   0.872   7.000  0.2111  0.4224 -0.1039
23911SOL     OW73739  10.522   7.800   3.609 -0.5158  0.1243 -0.3066
23911SOL    HW173740  10.519   7.733   3.677 -1.4614  1.2175  0.7810
23911SOL    HW273741  10.574   7.761   3.539 -0.1494 -1.3217  0.7261
23912SOL     OW73742   6.494   6.843   7.106  0.6956  0.5668 -0.2929
23912SOL    HW173743   6.476   6.937   7.097  2.0761  0.8615 -0.1457
23912SOL    HW273744   6.578   6.839   7.151  1.5970 -0.7185 -1.9767
23913SOL     OW73745   0.090   8.064   4.903 -0.6644 -0.5927 -0.0385
23913SOL    HW173746   0.075   8.028   4.990  1.9977 -3.2772 -0.5313
23913SOL    HW273747   0.137   8.146   4.918  0.1386 -1.2304  1.0773
23914SOL     OW73748  10.827  11.018   8.878 -0.0152  0.3412 -0.0532
23914SOL    HW173749  10.827  11.107   8.913 -1.4069  0.8279 -1.1869
23914SOL    HW273750  10.866  11.027   8.791  2.6119 -0.7050  0.9252
23915SOL     OW73751   5.440   3.502   1.452  0.1858  0.3246 -0.3660
23915SOL    HW173752   5.384   3.474   1.380 -1.3390 -0.0191  0.9135
23915SOL    HW273753   5.383   3.505   1.529  1.5424  1.5773  0.6736
23916SOL     OW73754   0.887   1.872   1.631  0.2214  0.2176  0.7721
23916SOL    HW173755   0.892   1.792   1.578 -0.4006  1.1724 -0.7900
23916SOL    HW273756   0.845   1.843   1.712 -1.2612 -0.8326 -0.2942
23917SOL     OW73757   9.593   9.144   8.890  0.0393  0.2784  0.1208
23917SOL    HW173758   9.666   9.104   8.936 -1.5778 -1.0528  1.6404
23917SOL    HW273759   9.612   9.238   8.891  2.0175 -0.0857 -0.1248
23918SOL     OW73760  10.387   6.964   2.334 -0.3695  0.3892 -0.6865
23918SOL    HW173761  10.346   7.048   2.357  1.0139  1.4607 -1.9013
23918SOL    HW273762  10.314   6.904   2.321 -1.4139  1.5040 -0.1468
23919SOL     OW73763  10.313   1.883   0.531  0.2648  0.1490 -0.1765
23919SOL    HW173764  10.234   1.833   0.551 -1.3956  2.7842  0.2636
23919SOL    HW273765  10.383   1.817   0.528 -1.4260 -1.9418  2.2113
23920SOL     OW73766   2.361   0.622  10.370 -0.2610 -0.0083 -0.2641
23920SOL    HW173767   2.315   0.701  10.399 -0.9502 -0.0035 -1.3264
23920SOL    HW273768   2.420   0.654  10.301  0.3077 -0.2454  0.1038
23921SOL     OW73769   3.665   0.075   1.388 -0.1507  0.3797  0.2578
23921SOL    HW173770   3.603   0.019   1.435  0.4500 -0.2066  0.3703
23921SOL    HW273771   3.717   0.014   1.336 -0.3310  0.9601 -0.6157
23922SOL     OW73772   6.506   4.853   6.180 -0.0671 -0.2891  0.4542
23922SOL    HW173773   6.525   4.941   6.211  0.0591 -0.2100  0.1607
23922SOL    HW273774   6.553   4.847   6.097  1.5486 -1.3184  1.4000
23923SOL     OW73775   0.563  10.736   0.685  0.0069  0.3894  0.3378
23923SOL    HW173776   0.627  10.666   0.699 -0.2577 -0.3374 -1.8433
23923SOL    HW273777   0.478  10.694   0.696 -0.2565 -0.4085 -3.5637
23924SOL     OW73778   6.851   7.101   0.718 -0.3834 -0.0580  0.2564
23924SOL    HW173779   6.851   7.189   0.682 -0.1670  0.0576  0.5288
23924SOL    HW273780   6.886   7.046   0.648 -3.5441 -0.4829 -1.1348
23925SOL     OW73781   8.514   5.627   5.669  0.1971 -0.2081  0.2883
23925SOL    HW173782   8.466   5.691   5.616 -0.1716 -0.3992  0.3864
23925SOL    HW273783   8.604   5.630   5.636  0.1933  0.3952  0.3266
23926SOL     OW73784  10.939   9.055   0.850 -0.3293  0.5539  0.1982
23926SOL    HW173785  10.950   9.011   0.934 -1.2320  0.1205  0.0988
23926SOL    HW273786  10.992   9.135   0.858  1.2968 -0.4829  0.3899
23927SOL     OW73787   4.738   4.057   8.554  0.5232  0.6859  0.8374
23927SOL    HW173788   4.801   4.110   8.505  0.1106  0.5385  0.1442
23927SOL    HW273789   4.791   4.015   8.622  1.3523 -0.0821 -0.2338
23928SOL     OW73790   6.936   1.209  11.128 -0.8430 -0.7653  0.2263
23928SOL    HW173791   6.869   1.157  11.083 -0.9639 -0.4702  0.0639
23928SOL    HW273792   6.985   1.251  11.057 -0.9279 -0.4332  0.3631
23929SOL     OW73793  11.255   9.746   1.332  0.3030  0.3850  0.0870
23929SOL    HW173794  11.189   9.741   1.401  1.0571  1.5782  0.9382
23929SOL    HW273795  11.272   9.840   1.322  2.5690  0.0702  0.5833
23930SOL     OW73796   7.849   6.842   3.397  0.2768  0.1616  0.3191
23930SOL    HW173797   7.942   6.864   3.396 -0.2725  2.8807  1.2309
23930SOL    HW273798   7.815   6.883   3.477 -1.3780 -2.5151  1.1407
23931SOL     OW73799  10.076  10.399   5.376  0.4047 -0.0988  0.1185
23931SOL    HW173800  10.153  10.346   5.359  0.0003 -0.0531 -2.1923
23931SOL    HW273801  10.010  10.366   5.316 -0.3214  2.0103 -0.3414
23932SOL     OW73802   9.574  11.107   9.431  0.2592  0.3075 -0.1993
23932SOL    HW173803   9.572  11.176   9.365  1.3950 -0.0582 -0.6418
23932SOL    HW273804   9.518  11.139   9.502  1.7623  2.2714  0.1784
23933SOL     OW73805   4.444   0.349   1.687 -0.3074  0.1314  0.1989
23933SOL    HW173806   4.363   0.395   1.664 -1.2421 -1.3061  0.4780
23933SOL    HW273807   4.414   0.271   1.735  1.1866 -0.9978 -0.6304
23934SOL     OW73808  10.625   1.641   8.039 -0.1698 -0.1662 -0.3246
23934SOL    HW173809  10.717   1.665   8.040  0.3767 -2.0420  1.2781
23934SOL    HW273810  10.579   1.722   8.016  1.8607  0.7245 -1.4933
23935SOL     OW73811   2.726   0.103   1.100 -0.0910  0.4252  0.4073
23935SOL    HW173812   2.695   0.194   1.099 -1.5987 -0.0538  0.5840
23935SOL    HW273813   2.794   0.100   1.033  3.0348  2.6589  3.1545
23936SOL     OW73814   9.950   4.324   1.693  0.0666  0.2508  0.3027
23936SOL    HW173815   9.962   4.240   1.738  1.5925  0.1634 -0.1900
23936SOL    HW273816   9.883   4.370   1.744  0.2194 -0.7051  1.3998
23937SOL     OW73817   2.454   0.377   3.662 -0.5642 -0.0794  0.0715
23937SOL    HW173818   2.364   0.410   3.657 -0.8691 -0.6250  1.3937
23937SOL    HW273819   2.509   0.455   3.654 -1.1243  0.1925 -1.3204
23938SOL     OW73820   1.859   6.462   5.460 -0.0164  0.3745  0.1435
23938SOL    HW173821   1.905   6.379   5.461  1.6269  1.2508  1.3975
23938SOL    HW273822   1.810   6.464   5.542 -1.2323  0.0600 -0.5399
23939SOL     OW73823   1.771   4.872   1.940  0.5480  0.1000 -0.4156
23939SOL    HW173824   1.818   4.909   1.865  2.3695 -1.2796 -0.0265
23939SOL    HW273825   1.839   4.858   2.006 -0.4534 -1.7441  0.2981
23940SOL     OW73826   3.279   9.773   8.784 -0.3074  0.1158  0.0549
23940SOL    HW173827   3.284   9.839   8.853  0.7453  0.6906 -0.5378
23940SOL    HW273828   3.369   9.740   8.776 -0.8512 -1.5604  0.4738
23941SOL     OW73829   0.206   9.871   9.495  0.6482 -0.0511 -0.7166
23941SOL    HW173830   0.274   9.932   9.467  0.1155  1.7136  1.5181
23941SOL    HW273831   0.252   9.804   9.546  0.8560  0.4634 -0.2247
23942SOL     OW73832   3.063   9.838   3.057  0.0560  0.6219 -0.0617
23942SOL    HW173833   3.094   9.834   2.966  0.2792  1.8801 -0.0608
23942SOL    HW273834   3.132   9.795   3.108  0.3704  0.7269 -0.3949
23943SOL     OW73835  10.183   6.507   9.887 -0.2424 -0.1827 -0.4112
23943SOL    HW173836  10.122   6.483   9.817  0.5017 -0.5054 -0.9574
23943SOL    HW273837  10.269   6.480   9.855 -0.2545 -4.0907  2.2276
23944SOL     OW73838   8.903   6.202   7.730  0.6813  0.2262 -0.0286
23944SOL    HW173839   8.877   6.272   7.789 -0.3867  1.1087 -1.4922
23944SOL    HW273840   8.837   6.134   7.742  1.8647 -0.7165  1.5885
23945SOL     OW73841   8.561   2.674   1.803 -0.8807 -0.6238  0.2523
23945SOL    HW173842   8.600   2.698   1.719 -0.5173  0.5207  0.7300
23945SOL    HW273843   8.534   2.757   1.841  2.0226 -0.6430  2.7669
23946SOL     OW73844   4.521   7.270   0.938  0.2717 -0.8741  0.7671
23946SOL    HW173845   4.537   7.333   0.868 -0.6928 -0.6914  0.7021
23946SOL    HW273846   4.595   7.281   0.998  0.4378 -0.1352  0.4330
23947SOL     OW73847   3.603   3.536  10.317  0.2147 -0.1916 -0.2627
23947SOL    HW173848   3.591   3.626  10.286  1.2491  0.0685  0.0779
23947SOL    HW273849   3.613   3.544  10.412  4.7758 -0.1302 -0.5720
23948SOL     OW73850   2.546   1.547   0.962 -0.4739 -0.0493  0.3184
23948SOL    HW173851   2.474   1.572   1.020 -0.3322  0.0694  0.4449
23948SOL    HW273852   2.515   1.470   0.916 -0.6978  0.0247  0.3458
23949SOL     OW73853  10.935   7.601   9.784 -0.3197 -0.0013 -0.1566
23949SOL    HW173854  10.869   7.618   9.850 -0.0717  1.8534 -0.3268
23949SOL    HW273855  10.903   7.646   9.706  0.7720  0.2999 -0.4500
23950SOL     OW73856  11.255   2.126   8.185 -0.3348 -0.1259 -0.2826
23950SOL    HW173857  11.189   2.069   8.225  1.0145 -1.0148  0.7216
23950SOL    HW273858  11.264   2.199   8.246 -0.2706 -0.0754 -0.3530
23951SOL     OW73859  10.220   7.877   5.685  1.2166 -0.5778 -0.1392
23951SOL    HW173860  10.167   7.808   5.645 -0.2783  1.6937 -2.3379
23951SOL    HW273861  10.297   7.883   5.628  1.0786 -0.0750 -0.2736
23952SOL     OW73862   7.437   9.581   3.113 -0.2303  0.0557  0.4348
23952SOL    HW173863   7.443   9.652   3.177 -1.2368 -2.1214  3.1525
23952SOL    HW273864   7.370   9.609   3.052 -0.2511  1.6616  1.1522
23953SOL     OW73865   4.969   1.154   5.981 -0.6808  0.2106  0.2389
23953SOL    HW173866   4.925   1.133   5.899 -0.3798  0.6720 -0.0457
23953SOL    HW273867   5.058   1.180   5.955 -0.6715  0.6408  0.6813
23954SOL     OW73868   0.801   5.565   6.911  0.4106 -0.6999  0.0528
23954SOL    HW173869   0.812   5.626   6.838  0.4036  1.7810  2.0079
23954SOL    HW273870   0.872   5.502   6.901  1.2009  0.3618 -1.3381
23955SOL     OW73871   4.092  11.224   3.415 -1.0317 -0.1240  0.1355
23955SOL    HW173872   4.182  11.205   3.442 -1.3227 -1.7871  0.0318
23955SOL    HW273873   4.058  11.281   3.484  0.8065  2.6007 -1.0202
23956SOL     OW73874   6.859   9.988   3.771  0.2033 -0.3453  0.2611
23956SOL    HW173875   6.902   9.961   3.852 -0.7254 -0.3056  0.7725
23956SOL    HW273876   6.813  10.069   3.794 -1.9572 -1.5375  0.3289
23957SOL     OW73877   4.045   6.755   9.514 -0.7322  0.5539  0.1397
23957SOL    HW173878   4.102   6.821   9.474 -0.6398  1.4871  1.7399
23957SOL    HW273879   3.977   6.740   9.448 -0.3139  1.6613 -0.5763
23958SOL     OW73880   6.836   0.238   4.364 -0.3121  0.4771  0.5206
23958SOL    HW173881   6.911   0.190   4.330 -1.0735 -0.3643  0.0086
23958SOL    HW273882   6.844   0.325   4.324  0.3780  0.3986  0.4669
23959SOL     OW73883   3.246   7.870   3.981 -0.1555 -0.1102  0.5954
23959SOL    HW173884   3.296   7.834   4.055 -1.1442 -1.7523  0.5255
23959SOL    HW273885   3.161   7.891   4.018 -0.2857  0.1415  0.1586
23960SOL     OW73886   7.311  11.266   6.193 -0.2749 -0.5333  0.5729
23960SOL    HW173887   7.302  11.197   6.127 -1.7409  0.2935 -0.1488
23960SOL    HW273888   7.401  11.258   6.225 -0.6312 -3.3019  1.1389
23961SOL     OW73889   9.058  10.923   5.133 -0.4015 -0.6472  0.2983
23961SOL    HW173890   9.083  11.007   5.173  0.4827 -0.0664 -1.3861
23961SOL    HW273891   9.141  10.881   5.111 -0.8528 -1.5811  0.3366
23962SOL     OW73892   6.364   2.323   5.004  0.5112 -0.2764 -0.3582
23962SOL    HW173893   6.298   2.293   5.066 -0.2034 -1.1162 -1.4914
23962SOL    HW273894   6.447   2.294   5.041  0.1136 -0.5685  0.3123
23963SOL     OW73895   0.851   6.624   0.369 -0.1277 -0.0325  0.0552
23963SOL    HW173896   0.788   6.674   0.421 -0.5546 -0.2858 -0.2143
23963SOL    HW273897   0.935   6.638   0.414  0.0541  2.0944 -0.8023
23964SOL     OW73898   9.249   9.808   8.665  0.0542 -0.4630  0.1934
23964SOL    HW173899   9.233   9.727   8.617  1.4595 -0.2302 -0.7054
23964SOL    HW273900   9.204   9.795   8.749 -2.1763 -1.0049 -1.0071
23965SOL     OW73901  10.098   1.935  10.487  0.2617  0.4612  0.1992
23965SOL    HW173902  10.083   1.886  10.406 -1.6146 -2.1238  1.9449
23965SOL    HW273903  10.036   1.897  10.549  0.6728  3.2581  2.5129
23966SOL     OW73904   1.812   2.290   6.509  0.1099 -0.3449 -1.3901
23966SOL    HW173905   1.893   2.342   6.512  0.0206 -0.1143 -2.6394
23966SOL    HW273906   1.743   2.351   6.534  0.4199 -0.8530  0.9647
23967SOL     OW73907   1.399   7.608  10.689 -0.1200  0.4362 -0.2049
23967SOL    HW173908   1.389   7.689  10.739  0.8953  1.2047 -1.1874
23967SOL    HW273909   1.356   7.627  10.605 -0.3757 -0.2537 -0.2364
23968SOL     OW73910   9.603   9.777   8.233  0.2946 -0.2189 -0.5653
23968SOL    HW173911   9.687   9.819   8.249  0.2366 -0.1348 -0.4735
23968SOL    HW273912   9.573   9.750   8.320  1.4992 -2.7331 -0.8681
23969SOL     OW73913   9.268   0.890   9.837  0.3950 -0.0665 -0.3988
23969SOL    HW173914   9.358   0.922   9.831  1.6181 -3.2691 -1.3940
23969SOL    HW273915   9.263   0.849   9.924  1.2908 -3.1709 -1.6504
23970SOL     OW73916   6.710  10.209   3.587  0.4208  0.0790  0.1464
23970SOL    HW173917   6.627  10.163   3.579  0.0516  0.4289  1.6374
23970SOL    HW273918   6.690  10.287   3.639  0.7584  2.6992 -3.2942
23971SOL     OW73919   2.493   4.633   9.100  0.3383 -1.1976 -0.0757
23971SOL    HW173920   2.475   4.546   9.138 -0.3432 -1.3606 -0.7334
23971SOL    HW273921   2.588   4.638   9.096  0.3898 -2.0267 -0.2511
23972SOL     OW73922   4.345  10.202   8.938 -0.2030 -0.5819 -0.0470
23972SOL    HW173923   4.412  10.259   8.977 -0.4903  0.1165 -0.5758
23972SOL    HW273924   4.396  10.136   8.890  0.1352 -0.9561  0.7932
23973SOL     OW73925   0.927   6.919   0.237 -0.5286 -0.5279  0.2107
23973SOL    HW173926   0.867   6.881   0.174 -1.5491  0.0993  0.7636
23973SOL    HW273927   1.007   6.939   0.187  0.6175 -4.4773  0.1266
23974SOL     OW73928   1.681   7.700   6.648 -0.0708  0.4877  0.9241
23974SOL    HW173929   1.648   7.776   6.601  0.4148  0.2830  0.2320
23974SOL    HW273930   1.610   7.675   6.708 -0.8468  0.5405  0.0501
23975SOL     OW73931  11.036   6.902   9.824  0.3111 -0.1906  1.2282
23975SOL    HW173932  11.041   6.982   9.877 -0.5972  0.4039  0.4588
23975SOL    HW273933  11.024   6.934   9.734  3.0988 -1.1290  0.4178
23976SOL     OW73934   2.602   0.841   4.023  0.0712 -0.5884 -0.4632
23976SOL    HW173935   2.544   0.882   3.959 -1.1565  0.2091  1.1038
23976SOL    HW273936   2.687   0.836   3.979 -0.5376  0.6539 -1.8511
23977SOL     OW73937  10.482   0.197   4.103 -0.2577 -0.0780  0.0729
23977SOL    HW173938  10.434   0.213   4.184  0.2664  1.2248  0.1619
23977SOL    HW273939  10.492   0.102   4.099 -1.8310 -0.2857  0.6156
23978SOL     OW73940   0.690   1.365   9.494 -0.4592  0.0943 -0.1495
23978SOL    HW173941   0.617   1.355   9.555  0.1192  0.7137  0.6809
23978SOL    HW273942   0.733   1.446   9.522  0.4261 -0.1558 -0.7389
23979SOL     OW73943   2.527   2.285   5.837 -0.8504  0.2819 -0.0765
23979SOL    HW173944   2.536   2.376   5.810 -2.9132  1.3384  2.3817
23979SOL    HW273945   2.446   2.255   5.796 -0.4159 -0.3172 -0.5171
23980SOL     OW73946   2.361   7.229   9.389 -0.0576 -0.9595 -1.3095
23980SOL    HW173947   2.290   7.231   9.325 -1.1680 -1.9479 -0.1478
23980SOL    HW273948   2.354   7.312   9.435 -0.3493 -0.9894 -1.3020
23981SOL     OW73949   3.204   1.010   4.509 -0.4577 -0.0562  0.1566
23981SOL    HW173950   3.225   0.940   4.447  0.4776 -1.5325  2.0114
23981SOL    HW273951   3.289   1.047   4.532 -0.8734  1.0906 -0.0891
23982SOL     OW73952   5.954   2.172   3.264  0.4181 -0.3106 -0.3848
23982SOL    HW173953   5.964   2.177   3.169 -0.8552  0.0458 -0.5269
23982SOL    HW273954   6.034   2.130   3.295  0.4856 -1.2075 -1.6921
23983SOL     OW73955   8.649   0.034   7.704 -0.1460 -0.3186  0.0021
23983SOL    HW173956   8.604   0.053   7.786 -1.5467  1.4104 -1.0574
23983SOL    HW273957   8.577   0.024   7.640  0.8991 -1.3493 -1.0594
23984SOL     OW73958   1.649   6.884   8.454  0.2416 -0.6170  0.4843
23984SOL    HW173959   1.558   6.856   8.465  0.4428 -1.5234 -0.0975
23984SOL    HW273960   1.664   6.882   8.359  0.9608 -0.7795  0.5946
23985SOL     OW73961  10.252   3.061   4.386  0.7923 -0.2104 -0.2890
23985SOL    HW173962  10.333   3.013   4.402  0.7239 -0.4143 -0.5620
23985SOL    HW273963  10.262   3.098   4.299 -0.1092 -1.6796 -1.0684
23986SOL     OW73964   3.011   4.718   4.652  0.4643 -0.0452 -0.3555
23986SOL    HW173965   3.019   4.642   4.711 -2.4923 -0.2729 -0.0653
23986SOL    HW273966   2.924   4.754   4.672  0.4922  1.5246 -2.6968
23987SOL     OW73967   5.560   8.813  10.877 -0.0601  0.8471 -0.2719
23987SOL    HW173968   5.621   8.862  10.821  0.1154 -0.6976 -1.4924
23987SOL    HW273969   5.488   8.875  10.893  0.1558  1.5232 -1.7431
23988SOL     OW73970   2.510   5.627   8.175  0.0529  0.4681 -0.4199
23988SOL    HW173971   2.572   5.611   8.105  3.2257  0.3392  2.1757
23988SOL    HW273972   2.516   5.722   8.191 -1.9679  0.7983 -1.3849
23989SOL     OW73973   1.480   9.346   3.783 -0.3763 -0.7228 -0.3294
23989SOL    HW173974   1.429   9.397   3.720  0.0005 -0.8782 -0.7633
23989SOL    HW273975   1.440   9.367   3.868  0.4580  1.1949 -0.3428
23990SOL     OW73976   1.194   4.139   8.794  0.6915 -0.6148 -0.2591
23990SOL    HW173977   1.153   4.129   8.880  2.6354 -0.1700  0.7573
23990SOL    HW273978   1.160   4.223   8.762  2.2580  0.7439  1.4524
23991SOL     OW73979   8.128   9.419   1.141  0.4358 -0.4724  0.4651
23991SOL    HW173980   8.140   9.507   1.176 -1.8973 -0.2481  0.8428
23991SOL    HW273981   8.207   9.403   1.089  1.3843  1.4141  1.2387
23992SOL     OW73982   7.200  11.131   1.063  0.4002 -0.2659 -0.3948
23992SOL    HW173983   7.126  11.086   1.104  0.5809 -2.7858 -2.5666
23992SOL    HW273984   7.275  11.104   1.115  0.0299  1.2606  1.0264
23993SOL     OW73985   1.689   4.145   8.494  0.1728 -0.2025  0.7314
23993SOL    HW173986   1.643   4.088   8.555 -1.2030  0.1203  0.0510
23993SOL    HW273987   1.628   4.155   8.421  1.7902 -0.6325 -0.7391
23994SOL     OW73988   8.957   6.913   0.241  0.5732 -0.1393  0.5608
23994SOL    HW173989   8.911   6.886   0.161  0.9568  0.1188  0.2470
23994SOL    HW273990   9.044   6.940   0.211  0.3344  1.0960  0.8999
23995SOL     OW73991   6.160   7.936  10.796 -0.1203 -0.5010  0.1171
23995SOL    HW173992   6.219   7.934  10.871 -0.6779 -1.6700  0.5502
23995SOL    HW273993   6.074   7.912  10.833 -0.0094 -3.2815 -1.2039
23996SOL     OW73994   5.969   0.146  10.138 -0.3128 -0.4947 -0.2378
23996SOL    HW173995   5.934   0.103  10.060 -0.3291 -1.0703  0.0851
23996SOL    HW273996   5.933   0.097  10.212  0.9969 -0.9697  0.1145
23997SOL     OW73997   3.479   6.951   4.596  0.3692 -0.1052 -0.3527
23997SOL    HW173998   3.574   6.963   4.601  0.2490  0.7808  0.0620
23997SOL    HW273999   3.447   7.031   4.554 -0.2474 -0.1422  0.0373
23998SOL     OW74000   4.263   6.068   4.483 -0.6133  1.1025  0.5087
23998SOL    HW174001   4.293   6.058   4.574  0.8895  1.0535  0.0297
23998SOL    HW274002   4.253   6.163   4.472 -0.9618  1.1000  0.7566
23999SOL     OW74003   3.747   1.361   8.498 -0.5130 -0.2432 -0.2096
23999SOL    HW174004   3.807   1.288   8.514 -0.8108 -0.5908 -0.6394
23999SOL    HW274005   3.788   1.410   8.426 -0.9731 -0.7516 -0.8261
24000SOL     OW74006  11.155   6.592   5.384 -0.2174  0.5339  0.3646
24000SOL    HW174007  11.084   6.592   5.321  0.6069 -2.0643 -0.7313
24000SOL    HW274008  11.135   6.663   5.444 -3.3927  0.2894 -0.2456
24001SOL     OW74009   8.470   3.117  10.022  0.4368  0.2223  0.1093
24001SOL    HW174010   8.495   3.110   9.929  0.5994 -0.1516  0.1795
24001SOL    HW274011   8.518   3.193  10.054  0.3306  0.3930 -0.1284
24002SOL     OW74012  10.194   9.840   9.599 -0.3471 -0.9933  0.0066
24002SOL    HW174013  10.132   9.837   9.672  0.2730 -0.3955  0.5742
24002SOL    HW274014  10.156   9.904   9.538 -1.2665 -2.0787 -0.5920
24003SOL     OW74015   4.536   9.845   3.467 -0.8454 -0.0238  0.5532
24003SOL    HW174016   4.486   9.907   3.521  1.4415  2.1202  0.3833
24003SOL    HW274017   4.604   9.812   3.526  0.0997  0.3727 -0.2765
24004SOL     OW74018   6.877   2.412   4.314  0.2585  0.4235  0.4252
24004SOL    HW174019   6.965   2.448   4.300  1.2261 -1.9829 -0.2034
24004SOL    HW274020   6.889   2.317   4.309 -2.5358  0.0310 -0.6272
24005SOL     OW74021   9.058  11.219   6.906 -0.4666  0.4468 -0.3361
24005SOL    HW174022   9.071  11.286   6.839 -1.0930 -2.0256 -3.0989
24005SOL    HW274023   9.133  11.161   6.899  0.1459  0.8168  2.1205
24006SOL     OW74024  10.602  10.135   3.359 -0.2982 -0.8080 -0.2504
24006SOL    HW174025  10.626  10.063   3.301 -0.4451  0.4758 -1.9891
24006SOL    HW274026  10.593  10.211   3.301  0.2351  0.7202  1.5405
24007SOL     OW74027   9.389  11.149   1.439 -0.4377 -0.0263 -0.2341
24007SOL    HW174028   9.470  11.155   1.389  0.7598 -0.1858  1.5532
24007SOL    HW274029   9.321  11.181   1.381  0.6771 -1.1886 -2.2999
24008SOL     OW74030  10.801   4.431  10.665  0.0421 -0.1534 -0.3491
24008SOL    HW174031  10.754   4.367  10.611  0.3821 -2.1692  1.6092
24008SOL    HW274032  10.782   4.515  10.623  0.3029 -1.5501 -3.5652
24009SOL     OW74033   5.184   9.690   7.261 -0.6568 -0.9919 -0.2633
24009SOL    HW174034   5.191   9.776   7.302 -0.5224 -0.1118 -2.0117
24009SOL    HW274035   5.181   9.628   7.333 -0.6213  0.4771  1.0360
24010SOL     OW74036   7.353   2.624   2.764 -0.4374  0.4394 -0.7163
24010SOL    HW174037   7.405   2.547   2.743  1.0831  1.6878 -1.8021
24010SOL    HW274038   7.312   2.648   2.681 -0.4943  1.0730 -0.5119
24011SOL     OW74039   1.141   1.008  10.123  0.5907 -0.2879  0.9124
24011SOL    HW174040   1.072   0.946  10.098 -0.6588  0.5268  2.2050
24011SOL    HW274041   1.095   1.089  10.143  1.7713 -0.0277  2.8646
24012SOL     OW74042  11.082   6.699   3.781 -0.3763 -0.0304 -0.0705
24012SOL    HW174043  11.094   6.792   3.800 -0.8504 -0.0276  0.2470
24012SOL    HW274044  11.146   6.679   3.713  0.8380  0.1440  0.9804
24013SOL     OW74045  10.592   3.431   2.471  0.2815 -0.8273 -0.4808
24013SOL    HW174046  10.617   3.404   2.560  0.4385 -0.5795 -0.4472
24013SOL    HW274047  10.588   3.527   2.476  2.4246 -0.6312 -1.2687
24014SOL     OW74048   7.635   6.244   3.478 -0.3337  0.0235  0.5753
24014SOL    HW174049   7.578   6.205   3.544  0.3378  0.7423  1.6066
24014SOL    HW274050   7.709   6.279   3.527 -0.6427  2.1539 -0.3192
24015SOL     OW74051   6.325   1.556   8.976  0.1717  0.4570 -0.2508
24015SOL    HW174052   6.414   1.556   9.012 -0.2396 -0.1958  0.8180
24015SOL    HW274053   6.270   1.579   9.051 -0.6484 -0.1974 -0.6481
24016SOL     OW74054   1.612   5.678   8.403 -0.5788 -0.5564  0.0727
24016SOL    HW174055   1.694   5.683   8.452 -0.1032 -0.5105 -0.6964
24016SOL    HW274056   1.633   5.622   8.328 -1.3355 -0.7870  0.0247
24017SOL     OW74057   4.120  10.499   2.909 -0.4358 -0.2191  0.0900
24017SOL    HW174058   4.092  10.466   2.823  0.8436 -0.3600 -0.2869
24017SOL    HW274059   4.215  10.500   2.905 -0.3917  1.5797  0.8500
24018SOL     OW74060   6.296   3.117   6.381  0.6068 -0.5834 -0.3739
24018SOL    HW174061   6.299   3.050   6.449  0.3984  0.6001  0.8430
24018SOL    HW274062   6.342   3.079   6.307 -0.3608 -2.4491 -0.0638
24019SOL     OW74063   8.649   5.902   9.481 -0.2455  0.0714 -0.1784
24019SOL    HW174064   8.558   5.925   9.460 -0.4399 -1.4819 -1.1464
24019SOL    HW274065   8.701   5.941   9.411 -0.5513 -2.0753 -1.6801
24020SOL     OW74066   6.220   6.995   9.219 -0.1089  0.2065  0.3239
24020SOL    HW174067   6.289   6.939   9.254  0.1637 -0.8305 -1.7288
24020SOL    HW274068   6.262   7.080   9.204 -0.0090  0.3957  1.5618
24021SOL     OW74069   2.248   1.771   8.561 -0.3531  0.6059 -0.2362
24021SOL    HW174070   2.275   1.817   8.482 -2.1960  1.0266 -0.6703
24021SOL    HW274071   2.221   1.685   8.530  1.0827 -0.0723  0.2880
24022SOL     OW74072   2.236   6.846   8.838  0.0669 -0.1688  0.3289
24022SOL    HW174073   2.320   6.815   8.802  0.5706 -0.6450  1.8518
24022SOL    HW274074   2.260   6.917   8.897 -0.4029 -1.3587  2.0220
24023SOL     OW74075   7.361   0.246   9.876  0.5020 -0.3469 -0.1399
24023SOL    HW174076   7.338   0.156   9.855  1.2995 -1.2737  2.5169
24023SOL    HW274077   7.318   0.263   9.960 -0.6423  2.2220 -1.1543
24024SOL     OW74078   4.447   9.822  10.170  0.1210  0.8930  0.0907
24024SOL    HW174079   4.527   9.772  10.182 -0.6944 -0.1767  1.4229
24024SOL    HW274080   4.468   9.910  10.202  0.3509  0.1998  2.0252
24025SOL     OW74081   1.974   8.464  10.593 -0.0116 -0.2472 -0.2041
24025SOL    HW174082   1.934   8.506  10.517 -1.7395 -0.9095  0.2867
24025SOL    HW274083   2.066   8.491  10.590 -0.1116  0.0175 -2.3166
24026SOL     OW74084   6.357   9.436  10.439 -0.5203 -0.7742  0.3447
24026SOL    HW174085   6.292   9.366  10.444 -1.7064  0.2577 -0.0235
24026SOL    HW274086   6.415   9.420  10.514  0.2444 -3.0585 -0.6315
24027SOL     OW74087   3.779  11.172  10.594  0.2044  0.2381  0.3155
24027SOL    HW174088   3.708  11.236  10.590  1.1561  1.2952  0.1590
24027SOL    HW274089   3.747  11.099  10.539 -1.5219 -0.1121  1.6902
24028SOL     OW74090   5.731  10.422   4.777 -0.2838 -0.0444 -0.0041
24028SOL    HW174091   5.645  10.464   4.771 -0.6513 -0.9657 -2.1674
24028SOL    HW274092   5.714  10.330   4.755  1.2097 -0.2897 -0.2071
24029SOL     OW74093   0.246   2.944   1.373 -0.1006 -0.6340  0.6211
24029SOL    HW174094   0.184   2.980   1.310  0.5619 -1.5697 -0.6126
24029SOL    HW274095   0.303   2.887   1.321  1.3194 -0.3928  1.8369
24030SOL     OW74096   8.783   7.984   7.896  0.3138  0.0179 -0.3310
24030SOL    HW174097   8.869   7.960   7.859  0.8608  1.9023 -0.3849
24030SOL    HW274098   8.740   8.033   7.825 -0.1773  0.4078  0.2313
24031SOL     OW74099   0.689   9.211   9.707 -0.4216 -0.5256 -0.2588
24031SOL    HW174100   0.704   9.117   9.695  0.5739 -0.1118 -2.6312
24031SOL    HW274101   0.637   9.237   9.631 -1.5111  0.7119  0.8572
24032SOL     OW74102   6.622  10.796   3.723 -0.3379  0.5660  0.3640
24032SOL    HW174103   6.634  10.769   3.632 -2.1111 -0.4567  0.3697
24032SOL    HW274104   6.538  10.842   3.723 -0.3068  0.6523  1.4543
24033SOL     OW74105   5.152   4.530   3.162 -0.8150  0.9060 -0.1853
24033SOL    HW174106   5.065   4.521   3.201 -0.4633 -1.4901  0.1986
24033SOL    HW274107   5.199   4.588   3.222 -1.7057  0.9971  0.4382
24034SOL     OW74108   4.733  10.124   9.857  0.3831  0.2995 -0.7094
24034SOL    HW174109   4.668  10.082   9.801 -0.3848 -0.5871  0.7853
24034SOL    HW274110   4.807  10.063   9.858  0.1542  0.0274 -0.2840
24035SOL     OW74111   1.091   1.768   6.645  0.6560  0.4480  0.4501
24035SOL    HW174112   1.102   1.766   6.740 -2.7530  1.1396  0.9807
24035SOL    HW274113   1.113   1.858   6.620  1.4527  0.2929  0.5617
24036SOL     OW74114  11.261   7.792   7.167 -0.1313 -0.1288  0.0225
24036SOL    HW174115  11.337   7.818   7.115 -0.2438 -2.9124 -1.7379
24036SOL    HW274116  11.271   7.697   7.179 -1.4708 -0.0106  2.9556
24037SOL     OW74117   6.744   5.397   2.336  0.1731  0.8729  0.1810
24037SOL    HW174118   6.710   5.456   2.403  1.2003  1.8498 -0.1253
24037SOL    HW274119   6.678   5.400   2.266 -1.0871 -0.4430  1.2548
24038SOL     OW74120   0.084   4.499  11.282 -0.4502 -0.2170 -0.6381
24038SOL    HW174121   0.070   4.593  11.290  1.8423  0.1651 -0.4884
24038SOL    HW274122   0.032   4.460  11.352  1.5848  1.2771  1.8485
24039SOL     OW74123  10.528   4.551   7.728  0.5392 -0.6936  0.1235
24039SOL    HW174124  10.436   4.535   7.747  0.8167 -1.7615  0.6568
24039SOL    HW274125  10.538   4.532   7.635  0.1972 -0.4162  0.0273
24040SOL     OW74126   2.117   9.888   9.200 -0.0364  0.2144  0.1595
24040SOL    HW174127   2.046   9.864   9.140  1.2936 -1.3121 -0.8991
24040SOL    HW274128   2.075   9.942   9.267 -1.7269  1.4045 -1.7509
24041SOL     OW74129   9.900   3.881   6.779 -0.5296  0.6470 -0.2215
24041SOL    HW174130   9.863   3.822   6.845 -2.8384  0.9092 -1.1674
24041SOL    HW274131   9.908   3.826   6.701  0.2768  0.8217 -0.2626
24042SOL     OW74132   1.532   4.747   7.027  0.1591 -0.2723  0.3449
24042SOL    HW174133   1.524   4.838   7.055  0.3008 -0.6119  1.5254
24042SOL    HW274134   1.611   4.745   6.973 -1.5300  0.9193 -2.3925
24043SOL     OW74135   8.932   5.943   5.491  0.2742 -0.0424 -0.4513
24043SOL    HW174136   8.912   5.950   5.398  0.4007  0.4772 -0.4430
24043SOL    HW274137   8.846   5.940   5.534  0.2022  1.1079 -0.4908
24044SOL     OW74138   7.679   7.312   1.641  0.3598  0.1331 -0.2984
24044SOL    HW174139   7.701   7.387   1.697  1.4085 -1.3000  1.2831
24044SOL    HW274140   7.760   7.262   1.636 -0.4430 -1.1337 -0.9671
24045SOL     OW74141   5.048   5.230   1.241  0.1789 -0.0253  0.6742
24045SOL    HW174142   5.069   5.163   1.176  0.1971 -0.0322  0.6873
24045SOL    HW274143   4.954   5.219   1.258  0.1074  0.1748  0.4224
24046SOL     OW74144   2.057   5.936  11.235 -0.3353  0.5020 -0.3016
24046SOL    HW174145   2.069   6.018  11.283 -2.2209  1.2354 -0.9898
24046SOL    HW274146   2.070   5.960  11.143 -2.7429  0.5372 -0.7066
24047SOL     OW74147   5.886   2.398   7.918 -0.4318  0.3336  0.0767
24047SOL    HW174148   5.801   2.441   7.918 -0.8616 -0.2892 -2.8736
24047SOL    HW274149   5.866   2.305   7.901  0.7698 -0.0841  0.8249
24048SOL     OW74150   3.300   4.598   4.329  0.1002 -0.3282 -0.1878
24048SOL    HW174151   3.347   4.680   4.318  0.5278 -0.8007 -2.4972
24048SOL    HW274152   3.366   4.535   4.356 -0.1070 -0.0862  0.9444
24049SOL     OW74153   3.738   8.977   0.236 -0.1529 -0.0803 -0.3262
24049SOL    HW174154   3.791   8.917   0.289  0.8316  1.1275  0.1126
24049SOL    HW274155   3.751   9.062   0.276  1.4073  1.0809 -2.9992
24050SOL     OW74156   5.465   9.173  10.488 -0.6213  0.6546  0.4992
24050SOL    HW174157   5.445   9.210  10.402  0.2250  1.3474  0.5852
24050SOL    HW274158   5.549   9.127  10.475 -1.5646 -1.1548  0.4319
24051SOL     OW74159  11.124   8.182   1.182 -0.3677 -0.2160 -0.0996
24051SOL    HW174160  11.074   8.227   1.250  2.9575  2.3365  0.9284
24051SOL    HW274161  11.194   8.138   1.230 -0.8803 -2.7515 -1.5412
24052SOL     OW74162   0.435   8.241   8.312  0.0588  0.0829  0.2772
24052SOL    HW174163   0.428   8.307   8.243 -0.7176  0.0620  0.3356
24052SOL    HW274164   0.521   8.200   8.297 -0.5787 -0.7415 -1.4136
24053SOL     OW74165   2.907   9.307   2.261 -0.3165  0.4076 -0.0985
24053SOL    HW174166   2.844   9.238   2.285 -1.1444  0.8433 -0.9769
24053SOL    HW274167   2.915   9.300   2.166  0.4598  0.8032 -0.0673
24054SOL     OW74168   5.272   9.835   4.034 -0.0676 -0.2272  0.2661
24054SOL    HW174169   5.345   9.837   4.096 -0.6314 -0.4266  0.9346
24054SOL    HW274170   5.302   9.891   3.962  0.9042 -0.6034  0.3525
24055SOL     OW74171   2.855   0.755   6.478  0.2741  0.4381 -0.1936
24055SOL    HW174172   2.866   0.662   6.499 -0.6910 -0.4619 -3.2018
24055SOL    HW274173   2.795   0.788   6.545 -0.3106 -1.4142  0.2449
24056SOL     OW74174   6.943   2.835   4.662 -0.0682  0.6746 -0.3916
24056SOL    HW174175   6.940   2.758   4.719  0.1399 -1.2104 -2.7631
24056SOL    HW274176   7.036   2.860   4.661  0.6816 -1.6439 -2.6376
24057SOL     OW74177   8.961   5.022   4.488 -0.6497  0.1417 -0.4256
24057SOL    HW174178   8.985   4.929   4.490 -1.3406 -0.0233  0.6070
24057SOL    HW274179   8.909   5.031   4.409 -2.5751 -0.8804  0.6573
24058SOL     OW74180  10.457   6.618   5.314 -0.6337 -0.1515  0.1365
24058SOL    HW174181  10.398   6.546   5.336 -1.3133  0.1671 -0.6121
24058SOL    HW274182  10.536   6.575   5.280 -0.3646 -0.5794  1.2566
24059SOL     OW74183   8.954   5.364   8.282  0.0670 -0.5089  0.2367
24059SOL    HW174184   8.965   5.444   8.230  2.5326  0.1271  1.5574
24059SOL    HW274185   8.862   5.342   8.273 -0.5474  2.0756 -0.7714
24060SOL     OW74186   0.202   2.954   1.931 -0.1376 -0.7210  0.3635
24060SOL    HW174187   0.163   2.929   2.014  1.1839  0.1912  1.3104
24060SOL    HW274188   0.296   2.944   1.945  0.5284  3.6228  0.5724
24061SOL     OW74189  10.302   6.566   4.932 -0.1781  0.0986 -0.6677
24061SOL    HW174190  10.313   6.487   4.879 -0.4577  0.2958 -1.0301
24061SOL    HW274191  10.287   6.636   4.868  3.3110  1.1028 -0.6119
24062SOL     OW74192   1.394   0.006   2.522 -0.1930  0.6318 -0.4168
24062SOL    HW174193   1.321  -0.002   2.584 -0.2500 -1.6583 -0.6996
24062SOL    HW274194   1.463  -0.049   2.559  0.2181  0.2099 -1.7349
24063SOL     OW74195   8.595   1.985   1.714 -0.2344  0.0186  0.5901
24063SOL    HW174196   8.568   1.893   1.723  0.8359 -0.1438  2.9059
24063SOL    HW274197   8.522   2.034   1.752  0.2796 -0.0746  1.7449
24064SOL     OW74198   1.504   1.243   5.248  0.2105  0.3659  1.3618
24064SOL    HW174199   1.472   1.166   5.295 -0.9441 -0.9622 -1.4198
24064SOL    HW274200   1.426   1.285   5.214  0.9020 -2.0297 -4.1991
24065SOL     OW74201   6.326   4.648   0.620 -0.1453 -0.4683  0.1555
24065SOL    HW174202   6.316   4.691   0.705  0.8009  2.8040 -1.1989
24065SOL    HW274203   6.415   4.670   0.593 -0.1214 -2.1926 -1.3092
24066SOL     OW74204   7.061   0.618   4.072 -0.6520 -0.4584  0.1842
24066SOL    HW174205   7.015   0.600   3.990 -0.3491 -1.3071  0.1940
24066SOL    HW274206   7.150   0.643   4.046 -1.6475  3.5555  0.0042
24067SOL     OW74207   0.560   7.746   6.477  0.8579  0.6528 -0.2931
24067SOL    HW174208   0.507   7.824   6.496  0.2027  0.0031  0.6434
24067SOL    HW274209   0.520   7.710   6.397 -1.0476 -0.5484  1.0896
24068SOL     OW74210   2.504   5.899   0.905 -0.7985 -0.0063  0.7620
24068SOL    HW174211   2.430   5.946   0.942 -0.7432 -0.5100  1.5502
24068SOL    HW274212   2.546   5.961   0.846 -2.6796 -0.1753 -0.8342
24069SOL     OW74213   4.234   8.441   6.197  0.0842 -1.1613  0.3946
24069SOL    HW174214   4.313   8.493   6.183 -0.0143 -1.4548 -1.4718
24069SOL    HW274215   4.266   8.351   6.206  0.0819 -1.0683  1.5393
24070SOL     OW74216   5.178   3.355   8.871  0.4491  0.4751 -0.2225
24070SOL    HW174217   5.172   3.296   8.796  0.1946  0.6489 -0.3379
24070SOL    HW274218   5.090   3.393   8.879  0.7489  1.2374 -0.4707
24071SOL     OW74219   7.940   0.034   7.744 -1.0039 -0.4762 -0.1820
24071SOL    HW174220   8.014  -0.017   7.778  1.5966  1.6387 -2.1800
24071SOL    HW274221   7.969   0.125   7.750 -3.5765  0.4581 -0.8376
24072SOL     OW74222   1.262   0.036   4.578  0.2060  0.1854 -0.0571
24072SOL    HW174223   1.226   0.109   4.526 -0.6718  0.2538  0.6181
24072SOL    HW274224   1.344   0.014   4.534  0.3121  1.3406 -0.4941
24073SOL     OW74225   6.365   8.614   9.793  0.4786 -0.1872 -0.6377
24073SOL    HW174226   6.350   8.651   9.706 -2.5524 -1.2778 -0.6907
24073SOL    HW274227   6.397   8.688   9.845 -0.3393  1.1984 -2.0061
24074SOL     OW74228   0.455   0.746   0.735 -0.0537  0.0202 -0.2183
24074SOL    HW174229   0.482   0.756   0.826  0.1412 -0.0178 -0.2697
24074SOL    HW274230   0.369   0.787   0.730 -0.0781 -0.0047 -0.0108
24075SOL     OW74231   9.681  10.357   9.833  0.4780 -0.4544  0.5201
24075SOL    HW174232   9.737  10.292   9.791  1.4227 -0.0428  1.1036
24075SOL    HW274233   9.741  10.411   9.885 -0.6776 -1.3594  2.9875
24076SOL     OW74234   6.533  10.464   7.057 -0.0611  0.0834  0.3658
24076SOL    HW174235   6.545  10.512   7.139 -1.4615 -0.1541  0.7372
24076SOL    HW274236   6.443  10.482   7.031  0.8066  1.4212 -1.9928
24077SOL     OW74237   1.635   7.941   8.167 -0.0136  0.1995 -0.2896
24077SOL    HW174238   1.571   7.886   8.212 -0.0433  0.5973  0.1615
24077SOL    HW274239   1.663   8.004   8.233  0.7358  0.1258 -0.5198
24078SOL     OW74240   5.245   3.822   7.995  0.4610 -0.3750  0.0700
24078SOL    HW174241   5.236   3.780   8.080  0.4584 -0.8651 -0.1664
24078SOL    HW274242   5.168   3.877   7.987 -0.6074 -1.8809 -0.4695
24079SOL     OW74243   7.299   0.018   2.739 -0.6592 -0.4380  0.2347
24079SOL    HW174244   7.262   0.024   2.827 -2.4298 -0.9849 -0.4306
24079SOL    HW274245   7.239  -0.040   2.692 -0.4102  0.7637 -1.6620
24080SOL     OW74246   6.791   1.062   3.435  0.7603 -0.3190 -0.0412
24080SOL    HW174247   6.794   1.158   3.440  1.9356 -0.3651  0.5708
24080SOL    HW274248   6.774   1.034   3.526  0.3064 -0.6949 -0.2362
24081SOL     OW74249   2.650  11.011   4.280 -0.3549  0.4766 -0.2620
24081SOL    HW174250   2.593  11.005   4.203  0.0206  0.9723 -0.5858
24081SOL    HW274251   2.635  11.099   4.314 -0.5396  0.2477  0.2476
24082SOL     OW74252   8.334   3.392   9.620 -0.1466  0.1396  0.0552
24082SOL    HW174253   8.387   3.338   9.561  0.5475  0.2272  0.5752
24082SOL    HW274254   8.269   3.432   9.564  0.1572 -0.2077 -0.5601
24083SOL     OW74255   0.356  10.951   2.555  1.0595  0.5551 -0.1349
24083SOL    HW174256   0.415  11.020   2.587  1.4248  0.3150 -0.2826
24083SOL    HW274257   0.335  10.976   2.466 -0.7948  1.7801  0.5866
24084SOL     OW74258   2.243   8.949   4.023  0.9633  0.2892  0.2701
24084SOL    HW174259   2.331   8.930   4.055  0.7994 -0.8640  0.0772
24084SOL    HW274260   2.216   8.869   3.979  0.1472  0.9387 -0.4289
24085SOL     OW74261   4.136   4.399   1.078 -0.6023  0.1175 -0.3768
24085SOL    HW174262   4.044   4.377   1.096  0.1698 -2.9655  0.3825
24085SOL    HW274263   4.178   4.396   1.164  0.5359 -0.4741 -0.9283
24086SOL     OW74264   2.223  10.209   5.251 -0.1420  0.9991 -0.5734
24086SOL    HW174265   2.235  10.270   5.178  1.0329  1.3686 -0.0906
24086SOL    HW274266   2.296  10.228   5.310 -0.4422 -0.0661  0.1578
24087SOL     OW74267   7.323   4.023   7.718  0.1167 -0.6397 -0.1655
24087SOL    HW174268   7.320   3.951   7.781  2.6001  0.3942  1.2594
24087SOL    HW274269   7.311   4.102   7.770 -0.8760  0.1282 -1.4814
24088SOL     OW74270   2.314   7.298   0.314  0.0582 -0.2014  0.3058
24088SOL    HW174271   2.259   7.295   0.392 -0.7495 -0.7393 -0.2791
24088SOL    HW274272   2.272   7.363   0.257  2.4273  2.7218  1.6017
24089SOL     OW74273   9.570   1.163   2.616 -0.0136 -0.2326  0.3353
24089SOL    HW174274   9.475   1.162   2.622  0.0291 -0.6293  1.0491
24089SOL    HW274275   9.599   1.100   2.682  0.6832 -1.3825 -1.0112
24090SOL     OW74276   9.587   8.226   8.401  0.6849  0.4166 -0.0609
24090SOL    HW174277   9.567   8.313   8.366  1.1335  0.4785 -0.1732
24090SOL    HW274278   9.594   8.239   8.495  1.6963  0.6976 -0.1653
24091SOL     OW74279   1.377   5.055   3.769  0.2417 -0.4264  0.4639
24091SOL    HW174280   1.419   5.004   3.700  0.9171  0.4483  0.2116
24091SOL    HW274281   1.342   5.132   3.724  2.2668  1.0943  1.2865
24092SOL     OW74282   7.197   1.704   6.663  0.3333  0.4653 -0.8161
24092SOL    HW174283   7.221   1.717   6.755 -0.5839  2.8096 -0.8416
24092SOL    HW274284   7.270   1.742   6.614  0.1845  0.4745 -1.0298
24093SOL     OW74285   2.881  11.208   2.808 -0.6464 -0.5841  0.4478
24093SOL    HW174286   2.865  11.152   2.884  1.7024  2.5694  3.5167
24093SOL    HW274287   2.812  11.274   2.812  0.2385  0.3481  0.6599
24094SOL     OW74288   1.508   0.385   8.862  0.4956  0.0708  0.2036
24094SOL    HW174289   1.511   0.472   8.902 -0.4547  0.4926 -0.6064
24094SOL    HW274290   1.557   0.329   8.923  0.6703  1.0579  0.9986
24095SOL     OW74291   7.694  10.989  10.395  0.1491  0.7860  0.2170
24095SOL    HW174292   7.706  10.959  10.485 -0.0722 -1.2072 -0.3716
24095SOL    HW274293   7.605  10.962  10.373 -0.3616  2.6091 -0.1491
24096SOL     OW74294   5.737   9.553   9.014 -0.0871 -0.6655  0.3264
24096SOL    HW174295   5.734   9.458   9.022  1.9911 -0.6303  2.6681
24096SOL    HW274296   5.702   9.585   9.097  0.2507  0.5821  0.0059
24097SOL     OW74297   4.948   8.432  10.831  0.2697 -0.8363  0.3632
24097SOL    HW174298   4.996   8.361  10.789 -3.2350 -3.2409 -0.0018
24097SOL    HW274299   4.958   8.506  10.771  4.2696 -0.7533  0.8977
24098SOL     OW74300   5.095   1.785   1.037  0.7966 -0.7431 -0.0571
24098SOL    HW174301   5.156   1.853   1.009  0.7666  0.3088  2.2166
24098SOL    HW274302   5.010   1.816   1.006  0.2359  2.1221  3.5879
24099SOL     OW74303  10.356   2.408   8.492  0.8847  0.4226  0.2154
24099SOL    HW174304  10.301   2.332   8.474  0.2380  1.5470 -3.2128
24099SOL    HW274305  10.357   2.415   8.587 -2.2334 -1.5605  0.5268
24100SOL     OW74306   7.271   8.445   3.712  0.0115 -0.7763 -0.9309
24100SOL    HW174307   7.354   8.405   3.739  0.1915  0.4182  0.4247
24100SOL    HW274308   7.209   8.422   3.781  0.2889  1.7399  0.2939
24101SOL     OW74309  11.254   5.023   1.872 -0.1285 -0.0729  0.2506
24101SOL    HW174310  11.343   5.027   1.837 -0.0268  1.0829  0.5914
24101SOL    HW274311  11.259   5.069   1.956 -0.8784 -0.7057  0.6570
24102SOL     OW74312   9.417   1.206   8.381  0.7586 -0.0654  0.3671
24102SOL    HW174313   9.507   1.173   8.378  0.3939 -1.0812  0.0578
24102SOL    HW274314   9.424   1.298   8.357  1.6058 -0.3838 -0.6755
24103SOL     OW74315   4.431   4.246  10.798 -0.3806  0.2250 -0.0069
24103SOL    HW174316   4.436   4.155  10.828 -1.1886  1.0618  2.9480
24103SOL    HW274317   4.353   4.250  10.743 -0.9951 -0.6362  0.7861
24104SOL     OW74318   5.572   9.376  10.258  0.1480  0.1848 -0.9527
24104SOL    HW174319   5.542   9.397  10.170 -1.1185  3.0262  0.0441
24104SOL    HW274320   5.667   9.390  10.254  0.0265  0.8757 -1.7195
24105SOL     OW74321   7.903   9.429   0.989 -1.0947 -0.2986  0.7743
24105SOL    HW174322   7.985   9.429   1.039 -0.5461  0.8792 -0.0743
24105SOL    HW274323   7.930   9.418   0.898 -1.9013 -0.1622  0.5107
24106SOL     OW74324   4.094   2.615   2.401  0.9513  0.5423  0.3841
24106SOL    HW174325   4.086   2.709   2.387  0.1047  0.8496  2.5055
24106SOL    HW274326   4.187   2.596   2.385  1.6571  2.1992  2.1649
24107SOL     OW74327   5.868   0.715   9.938  0.4473 -0.1199  0.4630
24107SOL    HW174328   5.903   0.751  10.019  0.6902  1.0663 -0.1548
24107SOL    HW274329   5.877   0.620   9.948  1.6343  0.0677  1.2981
24108SOL     OW74330   7.123  10.189   2.882  0.0830 -0.0818 -0.8388
24108SOL    HW174331   7.107  10.281   2.861  0.5532 -0.1445 -1.4947
24108SOL    HW274332   7.047  10.143   2.847  0.6518 -0.1323 -2.0543
24109SOL     OW74333   1.945  10.741   2.335  0.2961  0.0924  0.2716
24109SOL    HW174334   1.935  10.665   2.392  1.3311  0.6967  1.2826
24109SOL    HW274335   2.034  10.771   2.350  0.3543  0.7110 -1.1367
24110SOL     OW74336  11.087   3.158   4.938 -0.4256 -0.2550  0.4467
24110SOL    HW174337  11.033   3.084   4.963 -0.2861  0.1291  1.9940
24110SOL    HW274338  11.026   3.232   4.932 -0.2844 -0.1084  0.7948
24111SOL     OW74339   1.497   8.504   3.312  0.4134  0.0883 -0.4309
24111SOL    HW174340   1.415   8.523   3.265  0.8073  0.6662 -0.9091
24111SOL    HW274341   1.475   8.431   3.369  0.5595 -2.5006 -3.4141
24112SOL     OW74342   2.441   1.962   6.770  0.5341 -0.1285  0.5253
24112SOL    HW174343   2.504   1.995   6.834  0.9184 -1.6300  0.9652
24112SOL    HW274344   2.391   1.895   6.817  1.3822 -1.8624 -0.9109
24113SOL     OW74345   2.316   7.674   1.647  0.0481 -0.0452  0.4353
24113SOL    HW174346   2.260   7.750   1.630  0.3133  0.5452  2.1035
24113SOL    HW274347   2.257   7.599   1.642 -0.9850  0.5851  2.3997
24114SOL     OW74348  11.031   8.072   7.104  0.4035  0.9446 -0.2206
24114SOL    HW174349  11.100   8.080   7.038 -0.0053  0.5638 -0.7063
24114SOL    HW274350  11.065   8.008   7.167  0.3120  0.4012 -0.7082
24115SOL     OW74351   3.443   9.092   6.307 -0.4428 -0.6506 -0.4368
24115SOL    HW174352   3.381   9.050   6.368 -1.6199  1.7784  0.1434
24115SOL    HW274353   3.519   9.112   6.362 -1.5422  1.6295  0.3801
24116SOL     OW74354   6.641   3.088  10.160  0.1856 -0.0678  0.0550
24116SOL    HW174355   6.549   3.074  10.183  0.3879  0.1824  1.0672
24116SOL    HW274356   6.639   3.121  10.070 -0.6614 -0.7675 -0.1928
24117SOL     OW74357   7.954   3.469  11.045 -0.0152  0.1117  0.2269
24117SOL    HW174358   7.921   3.558  11.037 -1.2889 -0.2041  1.4523
24117SOL    HW274359   8.006   3.470  11.125 -0.2101 -0.2739  0.3644
24118SOL     OW74360   3.685   2.597   3.270 -0.2728  0.2785  0.5460
24118SOL    HW174361   3.767   2.620   3.312  0.5874 -0.4808 -0.6639
24118SOL    HW274362   3.648   2.681   3.241  0.9787  0.4879 -0.5064
24119SOL     OW74363   2.122   2.476   7.304  0.0484  0.0046  0.5130
24119SOL    HW174364   2.113   2.571   7.299 -0.4311 -0.0497  0.1595
24119SOL    HW274365   2.167   2.453   7.222 -0.4209 -0.1270  0.2857
24120SOL     OW74366   5.593   1.297   8.137 -0.1180 -0.0091 -0.4592
24120SOL    HW174367   5.589   1.393   8.135  0.8454  0.0456 -0.2805
24120SOL    HW274368   5.525   1.269   8.076 -0.5738  0.7802 -0.3362
24121SOL     OW74369   9.157   1.123   3.535 -0.7305 -0.6749  0.8363
24121SOL    HW174370   9.248   1.149   3.519 -0.8687 -0.9645 -0.5060
24121SOL    HW274371   9.149   1.038   3.492 -2.4825  0.7629 -1.9305
24122SOL     OW74372   5.167   6.331   4.598 -0.1785  0.2539 -1.1252
24122SOL    HW174373   5.158   6.426   4.588  0.0024  0.5530  1.0150
24122SOL    HW274374   5.093   6.306   4.653  0.2579 -0.7059 -0.9554
24123SOL     OW74375   1.138   8.699   3.530 -0.4648  0.3504 -0.0940
24123SOL    HW174376   1.113   8.639   3.460 -2.0009 -0.7016  1.2959
24123SOL    HW274377   1.070   8.766   3.531  0.7947  1.7356 -1.0795
24124SOL     OW74378   3.661   5.095   0.787  0.9712 -0.2638  0.2970
24124SOL    HW174379   3.600   5.112   0.715 -0.9882 -0.1197  1.9115
24124SOL    HW274380   3.674   5.000   0.785 -0.6672 -0.5435  0.9064
24125SOL     OW74381   0.801   7.453   6.847 -0.8668 -0.3629 -0.2085
24125SOL    HW174382   0.861   7.417   6.913  0.3933 -0.0069 -1.1226
24125SOL    HW274383   0.794   7.384   6.781 -0.8297 -0.0950 -0.4939
24126SOL     OW74384   4.951   2.592   2.140  0.3679  0.0801  0.2971
24126SOL    HW174385   5.020   2.620   2.080 -0.2414 -0.3060 -0.5999
24126SOL    HW274386   4.984   2.616   2.227 -0.6235  4.9687 -0.3542
24127SOL     OW74387   4.375   1.895  10.353  0.2596  0.2405  0.1813
24127SOL    HW174388   4.294   1.875  10.399 -0.4596 -0.2131 -1.2326
24127SOL    HW274389   4.351   1.965  10.292  0.5227 -0.9654 -1.3551
24128SOL     OW74390   4.828   3.412   8.344 -0.2029 -0.0539 -0.8102
24128SOL    HW174391   4.781   3.432   8.425  0.3340  0.0471 -0.5239
24128SOL    HW274392   4.759   3.412   8.277 -0.7250 -0.6279 -0.2852
24129SOL     OW74393   5.228   8.845   3.828  0.4757 -0.0460 -0.0730
24129SOL    HW174394   5.200   8.935   3.844 -1.0190 -0.7510  1.5851
24129SOL    HW274395   5.316   8.840   3.865 -0.0308  0.3558  1.2331
24130SOL     OW74396   5.006   7.433   8.471 -0.0004 -0.4797  0.7854
24130SOL    HW174397   5.100   7.429   8.492  0.6452  3.3931 -0.5494
24130SOL    HW274398   4.963   7.417   8.554  1.9611 -0.2840  1.9197
24131SOL     OW74399   3.144   2.772   2.981  0.3792 -0.3822 -0.3793
24131SOL    HW174400   3.087   2.711   2.934 -1.1881  0.8203 -0.1588
24131SOL    HW274401   3.099   2.786   3.065  0.2297  1.6774 -0.7559
24132SOL     OW74402   7.647  10.692   4.854 -0.1249 -0.3488  0.2118
24132SOL    HW174403   7.606  10.771   4.889  2.7316  1.8362 -0.9280
24132SOL    HW274404   7.585  10.660   4.788 -1.1649  1.2242  0.3672
24133SOL     OW74405   3.954   0.334   6.924  0.6527 -0.1660  0.0448
24133SOL    HW174406   3.892   0.269   6.958  0.2282  0.2484  0.0643
24133SOL    HW274407   4.022   0.338   6.991  1.0955 -1.1645 -0.3183
24134SOL     OW74408   4.396   7.625  10.075  0.5240 -0.3006 -0.6519
24134SOL    HW174409   4.370   7.582  10.156  1.0564 -1.0697 -0.8749
24134SOL    HW274410   4.339   7.701  10.068  0.4116 -0.2767  0.3961
24135SOL     OW74411   6.025   4.207  11.195 -0.7735 -1.0493  0.2172
24135SOL    HW174412   6.091   4.188  11.262  0.6614 -1.8293 -1.3402
24135SOL    HW274413   5.996   4.296  11.216  2.5639  0.3452 -0.3643
24136SOL     OW74414  11.028   4.368   3.452  0.1919 -0.5419  1.1503
24136SOL    HW174415  11.094   4.301   3.469 -0.2961 -0.9772  1.3626
24136SOL    HW274416  10.950   4.338   3.499 -0.0393  0.1673  1.2384
24137SOL     OW74417  11.073   4.613   7.417  0.2968  0.4222  0.4760
24137SOL    HW174418  11.072   4.518   7.400  1.5900  0.7944 -2.3537
24137SOL    HW274419  11.125   4.649   7.345 -0.0147  3.2963  1.5684
24138SOL     OW74420   2.424   4.417  10.041  0.7510  0.1215 -0.4644
24138SOL    HW174421   2.473   4.446  10.117  1.7420 -1.6420 -0.3825
24138SOL    HW274422   2.351   4.366  10.078  1.5526 -1.2156 -0.6667
24139SOL     OW74423   9.481   1.506  10.875 -0.1219 -0.1541 -0.2338
24139SOL    HW174424   9.492   1.601  10.877  1.9990 -0.3417  1.7093
24139SOL    HW274425   9.477   1.481  10.967  1.0022 -2.0846 -0.6561
24140SOL     OW74426   0.594   0.329   5.068  0.0961  0.0526 -0.2550
24140SOL    HW174427   0.595   0.410   5.119  1.5636  0.5666 -1.0652
24140SOL    HW274428   0.634   0.352   4.984  2.7106 -1.9948  0.2995
24141SOL     OW74429   3.213   0.768   3.359 -0.1270  0.7995  0.3085
24141SOL    HW174430   3.248   0.695   3.411  2.2768  2.4513  1.1874
24141SOL    HW274431   3.119   0.752   3.358  0.3457 -3.0641 -0.8048
24142SOL     OW74432   0.559   1.927   8.823 -0.2602 -0.9201  0.4807
24142SOL    HW174433   0.600   1.999   8.775  0.7481 -2.7620 -1.5918
24142SOL    HW274434   0.482   1.967   8.864 -0.4021  1.1106 -1.5358
24143SOL     OW74435   4.979   2.219   2.882 -0.2412 -0.2327  0.3393
24143SOL    HW174436   5.071   2.242   2.874  0.0768 -1.4759  0.2457
24143SOL    HW274437   4.950   2.202   2.793 -0.9054  1.3315  0.2251
24144SOL     OW74438   9.417  10.876   4.892  0.1641 -0.2894 -0.0020
24144SOL    HW174439   9.403  10.970   4.901 -2.0750 -0.3077 -2.0932
24144SOL    HW274440   9.384  10.839   4.974 -2.9734  0.5469 -0.7497
24145SOL     OW74441   2.187   2.346   4.298 -0.4512 -0.4976 -0.0489
24145SOL    HW174442   2.271   2.300   4.299 -0.6861 -0.9505 -0.5665
24145SOL    HW274443   2.152   2.332   4.387  0.7044  1.0182  0.6814
24146SOL     OW74444   1.606   4.049   0.882 -0.0903 -0.4962  0.1815
24146SOL    HW174445   1.532   4.059   0.941 -0.5809 -1.6386 -0.1982
24146SOL    HW274446   1.650   3.969   0.911  0.1936 -0.5700 -0.4213
24147SOL     OW74447   6.107   8.719   5.009  0.0811  0.5111 -0.4764
24147SOL    HW174448   6.047   8.793   5.009  1.2515  1.5074  1.0108
24147SOL    HW274449   6.103   8.685   5.098  1.1873  0.1589 -0.5454
24148SOL     OW74450  11.246   5.242   8.390  0.2253 -0.6382 -0.8012
24148SOL    HW174451  11.335   5.244   8.356  1.6520 -1.8876  2.3865
24148SOL    HW274452  11.191   5.275   8.319  3.1280 -0.4672 -3.1245
24149SOL     OW74453   3.237  10.346  10.698  0.4213  0.1571  0.1591
24149SOL    HW174454   3.232  10.354  10.793 -1.5331  1.7448 -0.0214
24149SOL    HW274455   3.295  10.417  10.671 -1.2688  1.5521  0.0160
24150SOL     OW74456   8.169   7.799   4.293 -0.3092  0.0966  0.0513
24150SOL    HW174457   8.117   7.771   4.218  1.0055 -1.3867 -0.3648
24150SOL    HW274458   8.111   7.788   4.368 -0.7686 -1.0799 -0.4511
24151SOL     OW74459   5.113   3.349   7.627 -0.3658  0.6051  0.8605
24151SOL    HW174460   5.148   3.273   7.580 -0.3726  1.2074 -0.1493
24151SOL    HW274461   5.176   3.419   7.609 -1.1613  1.2419  0.5033
24152SOL     OW74462   3.582   9.294   3.538  0.0132  0.1660 -0.1840
24152SOL    HW174463   3.673   9.265   3.535  0.2188  0.3212  2.2432
24152SOL    HW274464   3.541   9.235   3.601 -1.2611  0.8751 -0.3364
24153SOL     OW74465   6.071   4.804   5.047 -0.1310  0.0021 -0.2411
24153SOL    HW174466   6.122   4.884   5.035 -0.4997  0.1922 -0.5808
24153SOL    HW274467   6.029   4.815   5.133  4.3905 -2.3994  2.6721
24154SOL     OW74468   2.979   9.217   9.511  0.4265  0.2686 -0.3662
24154SOL    HW174469   2.947   9.128   9.496  0.3036 -0.1699  2.0352
24154SOL    HW274470   3.069   9.215   9.480  0.0009 -0.2528 -1.6458
24155SOL     OW74471   5.587   7.004   0.485 -0.1740  0.2953  0.1962
24155SOL    HW174472   5.611   7.090   0.519 -0.5787  0.6754 -0.4746
24155SOL    HW274473   5.671   6.961   0.469  0.0580  1.0014 -0.5612
24156SOL     OW74474   7.362   5.783   3.583  0.1893  0.2082 -0.6111
24156SOL    HW174475   7.360   5.793   3.678 -2.2205  1.7536 -0.7379
24156SOL    HW274476   7.450   5.751   3.564  1.0642  0.7771  2.0491
24157SOL     OW74477   1.835   9.964   3.184  0.2824 -0.0132  0.2271
24157SOL    HW174478   1.915   9.916   3.205  1.0610  1.7942  1.6859
24157SOL    HW274479   1.863  10.030   3.119 -0.4665 -0.5770 -0.6988
24158SOL     OW74480   4.469   9.572   9.983  0.0787  0.4947 -0.2615
24158SOL    HW174481   4.402   9.557  10.050  0.6287 -1.0348  0.0056
24158SOL    HW274482   4.482   9.666   9.982  0.0041  0.5565  1.7424
24159SOL     OW74483   4.066   0.791   6.309  0.2190  0.0843 -0.2267
24159SOL    HW174484   4.052   0.874   6.354  2.2826 -1.1674  3.0540
24159SOL    HW274485   4.151   0.800   6.267 -0.9820  0.6573 -2.7337
24160SOL     OW74486   9.240   3.818   4.895 -0.0543  0.0205  0.2132
24160SOL    HW174487   9.189   3.737   4.890 -0.9951  0.6654 -1.8062
24160SOL    HW274488   9.325   3.796   4.859 -0.5803  0.0782 -1.1326
24161SOL     OW74489   4.496  10.014   8.181 -0.2294  0.1645  1.1012
24161SOL    HW174490   4.462   9.928   8.154 -1.8506  0.2038  2.8104
24161SOL    HW274491   4.584   9.996   8.212  0.1761 -0.5274 -0.3609
24162SOL     OW74492   0.888   9.651   5.927 -0.8993 -0.9731  0.0212
24162SOL    HW174493   0.934   9.699   5.995 -0.1877  0.4931 -1.4307
24162SOL    HW274494   0.809   9.617   5.970  0.5019 -1.8335  2.0476
24163SOL     OW74495   9.499   0.460   6.149  0.0041  0.7796  0.2369
24163SOL    HW174496   9.563   0.510   6.200 -0.2687  0.8293  0.5291
24163SOL    HW274497   9.483   0.515   6.072 -1.5338  1.9410  1.3410
24164SOL     OW74498   1.226   4.324   1.937 -0.1211  0.4896  0.0241
24164SOL    HW174499   1.289   4.394   1.921 -0.4140  0.5516 -0.9148
24164SOL    HW274500   1.156   4.365   1.988  0.0434  0.7023  0.0793
24165SOL     OW74501   7.496  10.287   8.320 -0.1435 -0.0106  0.2558
24165SOL    HW174502   7.542  10.249   8.395  0.4798 -0.2260 -0.2290
24165SOL    HW274503   7.485  10.380   8.342  2.6560  0.6067 -0.6072
24166SOL     OW74504   8.349   4.458   9.911 -0.2746 -0.0409  0.7935
24166SOL    HW174505   8.331   4.401   9.836  2.0082  0.9081 -0.5668
24166SOL    HW274506   8.334   4.547   9.878  0.2401  0.3650  1.6211
24167SOL     OW74507   4.763  10.858   8.199 -0.0678  0.6186 -0.4946
24167SOL    HW174508   4.820  10.813   8.263 -0.2375  0.2988 -0.5662
24167SOL    HW274509   4.778  10.811   8.117  1.1093  1.8190 -1.0061
24168SOL     OW74510   1.837   6.204  10.480 -0.3305 -0.6214  0.1538
24168SOL    HW174511   1.826   6.225  10.572 -0.3344 -0.3276  0.0874
24168SOL    HW274512   1.821   6.110  10.474 -2.5812 -0.2870  0.1083
24169SOL     OW74513  10.574   2.667  10.438  0.0029  0.6136  0.2006
24169SOL    HW174514  10.611   2.638  10.521  0.5410  0.2413 -0.1618
24169SOL    HW274515  10.480   2.679  10.456  0.0444  0.1378  0.7509
24170SOL     OW74516   4.322   0.800   6.283  0.6207  0.0742  0.5472
24170SOL    HW174517   4.378   0.845   6.219 -0.0800  0.0332 -0.1024
24170SOL    HW274518   4.379   0.787   6.359  1.7889 -0.8372 -0.4452
24171SOL     OW74519   9.662   9.414  10.455  0.3033  0.1012 -0.1150
24171SOL    HW174520   9.675   9.508  10.456 -0.5832  0.3006 -1.8722
24171SOL    HW274521   9.654   9.389  10.547  0.3882  1.7551  0.3745
24172SOL     OW74522  10.789   4.300   0.704  0.4133  0.0690 -0.0368
24172SOL    HW174523  10.730   4.327   0.634  0.0618 -0.9956 -0.1672
24172SOL    HW274524  10.837   4.225   0.667  2.8741  1.7262 -0.4572
24173SOL     OW74525  11.245  10.012   7.395  0.1781  0.3245 -0.7613
24173SOL    HW174526  11.199  10.063   7.461 -1.0783  0.6615 -1.8725
24173SOL    HW274527  11.210   9.924   7.404 -1.1395  0.6955 -1.9676
24174SOL     OW74528   7.415   3.246   9.623 -0.4388  0.2603 -0.2186
24174SOL    HW174529   7.480   3.311   9.597  1.4258 -1.0683  0.8586
24174SOL    HW274530   7.337   3.268   9.571  1.0084  1.6067 -1.9638
24175SOL     OW74531   1.382  10.495   7.822  0.4746 -0.3165 -0.1371
24175SOL    HW174532   1.358  10.587   7.817  1.1523 -0.1513 -0.4971
24175SOL    HW274533   1.454  10.491   7.886 -1.1089 -0.9459  1.6953
24176SOL     OW74534   1.270  11.205   0.489  0.2128  0.3313 -0.2323
24176SOL    HW174535   1.353  11.168   0.461  1.1439  0.1096  2.5383
24176SOL    HW274536   1.274  11.297   0.462  1.3079  0.2889 -0.2399
24177SOL     OW74537   1.837   2.804   4.527 -0.1224 -0.1684  0.1244
24177SOL    HW174538   1.869   2.761   4.607 -0.8125  0.4372  0.7442
24177SOL    HW274539   1.906   2.788   4.462 -0.7147 -2.9439  0.0508
24178SOL     OW74540   9.552   8.547   0.836  0.3829 -0.2417 -0.1129
24178SOL    HW174541   9.519   8.467   0.877 -0.1426 -0.3845 -0.8099
24178SOL    HW274542   9.604   8.516   0.762  3.0956 -0.0918  1.5685
24179SOL     OW74543   5.111   9.942   4.768  0.3618  0.7720  0.0797
24179SOL    HW174544   5.069  10.027   4.762 -1.2698  0.1569  1.8175
24179SOL    HW274545   5.071   9.890   4.698  0.7234  1.1721 -0.4250
24180SOL     OW74546  10.338   9.376   1.614 -0.0085  0.2601 -0.0604
24180SOL    HW174547  10.320   9.449   1.554  0.1999  0.4448  0.0979
24180SOL    HW274548  10.413   9.406   1.666 -1.6458  1.1063  1.9517
24181SOL     OW74549   5.819   9.421   2.943 -0.2890  0.0759 -0.5118
24181SOL    HW174550   5.820   9.465   2.858 -0.0799  1.2469  0.0764
24181SOL    HW274551   5.792   9.488   3.005  2.4397  0.1306  0.8053
24182SOL     OW74552   2.849   8.388   9.636  0.3317  0.2920  0.7684
24182SOL    HW174553   2.828   8.467   9.586 -0.1098 -0.3598 -0.1029
24182SOL    HW274554   2.764   8.354   9.664  0.4860 -0.1338  0.7247
24183SOL     OW74555   3.617   3.748   2.310 -0.3767 -0.4493 -0.5991
24183SOL    HW174556   3.659   3.717   2.230  2.7030  1.0631  0.2963
24183SOL    HW274557   3.566   3.824   2.283 -0.1509 -0.5231 -1.2464
24184SOL     OW74558   3.331   0.597   0.426  0.4373 -0.9838  0.3329
24184SOL    HW174559   3.320   0.526   0.363  0.7212 -1.0903  0.4044
24184SOL    HW274560   3.404   0.648   0.392  1.1555 -1.5291  1.0297
24185SOL     OW74561   5.642  10.519   8.395 -0.0736 -0.2087 -0.6432
24185SOL    HW174562   5.683  10.505   8.310  1.1260  2.0229 -0.5191
24185SOL    HW274563   5.583  10.593   8.381 -1.2086 -0.9555  0.0771
24186SOL     OW74564   2.399   1.124   5.878 -0.3432 -0.0876  0.0314
24186SOL    HW174565   2.337   1.088   5.815  0.3238  1.6504 -1.7245
24186SOL    HW274566   2.344   1.166   5.945 -1.1225  1.1920 -1.3509
24187SOL     OW74567   8.562   7.463   4.827 -0.0251 -0.2683 -0.2848
24187SOL    HW174568   8.551   7.379   4.782  1.5634 -2.3471  2.8944
24187SOL    HW274569   8.657   7.476   4.830 -0.1729  0.6446  1.0028
24188SOL     OW74570   2.898   6.663  10.241 -1.3069  0.2860 -0.2873
24188SOL    HW174571   2.963   6.721  10.202 -2.4711  1.6600 -0.2777
24188SOL    HW274572   2.914   6.577  10.202  0.5004  0.5844 -0.2540
24189SOL     OW74573   5.719   4.740   6.857  0.1605  0.3048 -0.3454
24189SOL    HW174574   5.687   4.807   6.918 -0.0130  0.2914 -0.4208
24189SOL    HW274575   5.812   4.731   6.878  0.7626  2.2592 -1.8981
24190SOL     OW74576   9.483   3.643   9.673 -0.0393 -0.0926  0.1712
24190SOL    HW174577   9.559   3.595   9.706 -0.2893 -0.0075  0.8909
24190SOL    HW274578   9.489   3.635   9.578  0.2638 -1.0129  0.2599
24191SOL     OW74579   6.517   2.621   3.920  0.4935  0.3563 -0.1685
24191SOL    HW174580   6.435   2.590   3.882  1.2473 -0.1176 -1.4905
24191SOL    HW274581   6.539   2.556   3.986  0.1630  0.1028 -0.3031
24192SOL     OW74582   1.034   6.478   3.771  0.2527  0.8408 -0.5233
24192SOL    HW174583   0.941   6.494   3.784  0.4012  0.5571  1.0095
24192SOL    HW274584   1.046   6.386   3.794  0.4885  0.0890 -3.2392
24193SOL     OW74585   5.068   0.249   1.701 -0.1919 -0.2581 -0.2115
24193SOL    HW174586   5.022   0.172   1.667  1.2743 -0.3255 -2.2039
24193SOL    HW274587   5.134   0.212   1.761 -1.6486 -0.2572  1.4786
24194SOL     OW74588  11.068   6.802   4.409  0.3992 -0.6106  0.0468
24194SOL    HW174589  11.068   6.831   4.318 -0.9992 -1.2768 -0.1915
24194SOL    HW274590  11.014   6.868   4.454 -0.9791 -1.5990 -0.0959
24195SOL     OW74591  10.058   5.668   1.089  0.2927  0.1331 -0.0756
24195SOL    HW174592  10.147   5.652   1.059  0.5080 -0.6847  0.9539
24195SOL    HW274593  10.002   5.625   1.023  0.6625  0.3923 -0.5621
24196SOL     OW74594   5.966   7.925   9.619 -0.3918  0.3347  0.3451
24196SOL    HW174595   5.992   8.015   9.594  1.9973 -0.0351  1.1968
24196SOL    HW274596   6.041   7.872   9.593 -0.9105 -1.1166  1.7011
24197SOL     OW74597   5.277   6.270   8.566  0.5159  0.1081  0.0192
24197SOL    HW174598   5.360   6.311   8.591  0.7034  0.5875 -1.3167
24197SOL    HW274599   5.238   6.331   8.504 -0.8723 -0.0909  0.6427
24198SOL     OW74600   1.480   0.812   2.739  0.2581  0.9103  0.3545
24198SOL    HW174601   1.420   0.792   2.668  1.1424  0.9195 -0.4193
24198SOL    HW274602   1.552   0.750   2.727  1.5450  2.4508 -0.1901
24199SOL     OW74603   8.184   2.356   2.968  0.0571 -0.2924  0.2945
24199SOL    HW174604   8.111   2.295   2.976  0.7797 -1.3491 -0.8175
24199SOL    HW274605   8.185   2.381   2.876 -0.4619  1.7477  0.8027
24200SOL     OW74606   9.378   0.802   7.292 -0.2923 -0.2629 -0.2821
24200SOL    HW174607   9.467   0.802   7.255  0.1133 -1.3677  0.6219
24200SOL    HW274608   9.359   0.894   7.308  1.3308 -0.1016  0.9649
24201SOL     OW74609   9.132   7.429   2.845  0.4053  0.2748  1.0474
24201SOL    HW174610   9.118   7.511   2.892 -1.1321  2.3464 -2.6247
24201SOL    HW274611   9.222   7.434   2.814 -0.0510  1.2003 -0.1749
24202SOL     OW74612   8.595   0.692   1.901  0.2533 -0.3846  0.0422
24202SOL    HW174613   8.661   0.642   1.949 -0.3111  0.1784  1.4669
24202SOL    HW274614   8.570   0.636   1.827  1.1078 -1.3034  0.4377
24203SOL     OW74615   7.253   9.193   3.095 -0.0910  0.3726  0.0365
24203SOL    HW174616   7.286   9.257   3.158 -1.2409  1.5386 -0.4904
24203SOL    HW274617   7.188   9.143   3.143  1.8174 -1.4444  0.8684
24204SOL     OW74618   6.891   1.638   7.604 -0.2315  0.6037 -0.5841
24204SOL    HW174619   6.819   1.576   7.589  1.9348 -1.9357 -1.2440
24204SOL    HW274620   6.920   1.662   7.517  2.1617 -1.5756 -0.5102
24205SOL     OW74621   1.906   3.765  10.295 -0.1943  0.0716 -0.4919
24205SOL    HW174622   1.876   3.760  10.386  1.7028  0.9495  0.2140
24205SOL    HW274623   1.854   3.836  10.257  0.1256  0.7815  0.3640
24206SOL     OW74624  10.505  10.800   1.369  0.2500 -0.4055 -0.4092
24206SOL    HW174625  10.479  10.776   1.279 -1.2780 -1.1611  0.1844
24206SOL    HW274626  10.546  10.721   1.404 -0.1815 -0.4926 -0.0895
24207SOL     OW74627  10.146   0.809   8.417 -0.2513 -0.2981 -0.5087
24207SOL    HW174628  10.107   0.870   8.354 -0.4923  0.4343  0.3170
24207SOL    HW274629  10.081   0.803   8.487  0.9298  0.6881  0.7419
24208SOL     OW74630   3.542   1.412   0.466 -0.0778  0.2175 -0.0803
24208SOL    HW174631   3.505   1.500   0.471 -1.3684 -0.3281  1.0101
24208SOL    HW274632   3.510   1.369   0.546  2.2252 -0.6095  0.4635
24209SOL     OW74633   1.625   7.979   1.401 -0.6986  0.7056  0.3451
24209SOL    HW174634   1.578   8.026   1.332 -0.1908  2.8554  1.3543
24209SOL    HW274635   1.683   8.045   1.439  0.2620 -0.8436  1.7280
24210SOL     OW74636   8.636   6.812   6.005 -0.1013 -0.1939  0.2866
24210SOL    HW174637   8.682   6.764   6.073  1.0765 -0.1472 -0.4500
24210SOL    HW274638   8.570   6.864   6.052  1.0071  0.2121  1.4358
24211SOL     OW74639   5.645   5.102   3.769 -0.1768  0.4023 -0.1875
24211SOL    HW174640   5.688   5.145   3.843 -0.7569 -0.3367  0.6083
24211SOL    HW274641   5.670   5.010   3.778 -1.6082  0.0136  0.0908
24212SOL     OW74642   6.203  10.486   3.830 -0.7549 -0.4248  1.0339
24212SOL    HW174643   6.190  10.581   3.829 -2.4270 -0.6243  0.5025
24212SOL    HW274644   6.294  10.473   3.802 -1.6247  0.8904 -3.0067
24213SOL     OW74645   3.300   5.083   6.492  0.0671 -0.2018  0.2734
24213SOL    HW174646   3.348   5.100   6.573 -0.7483 -0.9261  0.9344
24213SOL    HW274647   3.261   5.167   6.468 -2.2991 -0.5404  2.3984
24214SOL     OW74648   5.292   3.437   1.251  0.1962  0.0983 -0.7961
24214SOL    HW174649   5.210   3.453   1.298 -1.0211 -2.3853 -1.8637
24214SOL    HW274650   5.272   3.461   1.161  1.0959  0.6970 -0.8441
24215SOL     OW74651   7.556  10.896   3.080  0.2817 -0.6799  0.0227
24215SOL    HW174652   7.591  10.909   2.991 -2.5174 -1.5050 -1.3030
24215SOL    HW274653   7.547  10.801   3.087  0.0320 -0.5842  1.0373
24216SOL     OW74654  10.210   9.602  10.915 -0.6726  0.4051 -0.6258
24216SOL    HW174655  10.305   9.609  10.905 -0.7280  0.1320 -1.4906
24216SOL    HW274656  10.174   9.662  10.848 -1.1023 -2.9249 -3.6973
24217SOL     OW74657   7.855   1.279  10.512  0.1498 -0.3872  0.1349
24217SOL    HW174658   7.855   1.264  10.417 -2.1631  0.6190 -0.0976
24217SOL    HW274659   7.765   1.260  10.539 -0.7285  4.2368  1.2133
24218SOL     OW74660   2.910   5.130   2.339  0.2027  0.8296  0.2531
24218SOL    HW174661   2.992   5.097   2.375 -0.6435 -1.5107  0.2245
24218SOL    HW274662   2.859   5.156   2.416  0.2665  0.4743  0.4196
24219SOL     OW74663   8.528  10.559   6.511  0.1856  0.0515 -0.2934
24219SOL    HW174664   8.585  10.512   6.571 -1.5196 -3.2025 -0.9860
24219SOL    HW274665   8.441  10.553   6.550 -0.4317  0.8158 -1.4777
24220SOL     OW74666   3.148   1.812   2.078 -0.0134  0.2096 -0.7701
24220SOL    HW174667   3.136   1.888   2.020  0.5382 -0.2765 -1.5581
24220SOL    HW274668   3.234   1.828   2.119 -1.1789  1.4540  1.3692
24221SOL     OW74669   1.097  11.144  10.702  0.1148 -0.0002 -0.0495
24221SOL    HW174670   1.110  11.191  10.784  0.9824  0.8418 -0.6436
24221SOL    HW274671   1.031  11.195  10.655 -0.3879 -0.4856  0.1313
24222SOL     OW74672   4.369   7.082  10.071 -0.3968  0.3357  0.0159
24222SOL    HW174673   4.342   7.136   9.996  0.3196  1.4087  0.5076
24222SOL    HW274674   4.465   7.086  10.069 -0.2452 -2.1349 -0.7879
24223SOL     OW74675   7.681   6.202   7.047 -0.2849  0.2657  1.0044
24223SOL    HW174676   7.660   6.295   7.043 -0.3640  0.2048 -0.6064
24223SOL    HW274677   7.767   6.195   7.006  0.3513 -0.2203  2.3493
24224SOL     OW74678  10.914   6.999   4.538  0.0545 -0.3637  0.3612
24224SOL    HW174679  10.855   6.979   4.610  1.5717 -2.5514  1.0844
24224SOL    HW274680  10.988   7.044   4.579  0.0277  0.1559 -0.1477
24225SOL     OW74681   4.912   0.389   9.207 -0.0006  0.4337  0.4295
24225SOL    HW174682   4.868   0.316   9.249  1.3980  0.6423  2.3952
24225SOL    HW274683   4.901   0.373   9.113 -1.7570 -0.9790  0.8290
24226SOL     OW74684  10.500   1.452   3.057  0.4624  0.2208 -0.5501
24226SOL    HW174685  10.585   1.434   3.097  0.6544  0.0800 -1.0071
24226SOL    HW274686  10.438   1.447   3.129  1.0028  1.7324  0.0547
24227SOL     OW74687   7.490   0.833  10.537  0.0693 -0.0007  0.9585
24227SOL    HW174688   7.526   0.826  10.626 -0.5046 -2.3850  1.0583
24227SOL    HW274689   7.412   0.779  10.538 -0.5279  0.7587 -0.7593
24228SOL     OW74690   3.792   7.668  10.400  0.6405  0.6168  0.0598
24228SOL    HW174691   3.701   7.697  10.409  0.2542 -0.9223  1.6604
24228SOL    HW274692   3.789   7.600  10.332  0.0564 -1.2335  1.8222
24229SOL     OW74693   5.874   0.845   1.152  0.1714  0.4114  0.1977
24229SOL    HW174694   5.916   0.906   1.092 -0.5545  0.0994 -0.6485
24229SOL    HW274695   5.935   0.772   1.160  0.7091  0.8959  0.6306
24230SOL     OW74696   9.877  10.118   9.991 -0.5900  0.6479 -0.5064
24230SOL    HW174697   9.845  10.207  10.002  0.0501  1.0683 -1.9008
24230SOL    HW274698   9.969  10.121  10.016  0.2399  1.0894 -3.2527
24231SOL     OW74699   3.037   1.220   3.461  0.6327  0.8531 -0.2712
24231SOL    HW174700   3.061   1.169   3.384  0.0634  1.7172 -1.0474
24231SOL    HW274701   3.118   1.228   3.511  0.7539 -0.7015 -0.1651
24232SOL     OW74702   4.596   1.919   9.442  0.0607  0.4768  0.0913
24232SOL    HW174703   4.625   1.881   9.524  0.0077 -1.0511 -0.5659
24232SOL    HW274704   4.500   1.922   9.449 -0.0172 -0.6462 -0.3054
24233SOL     OW74705   2.937   6.171   8.736 -0.6886  0.1343 -0.4880
24233SOL    HW174706   3.021   6.167   8.782 -0.2471  0.9648 -1.1782
24233SOL    HW274707   2.899   6.255   8.762 -1.0090  0.0456 -0.6601
24234SOL     OW74708   3.032   9.237   3.181 -0.2390  0.2133  0.2357
24234SOL    HW174709   3.037   9.333   3.186  4.2039  0.2174  0.2826
24234SOL    HW274710   2.962   9.219   3.118  1.1045  3.6992 -2.6200
24235SOL     OW74711   0.881   8.431   4.509 -0.8913 -1.1319  0.1138
24235SOL    HW174712   0.936   8.460   4.437  0.7315 -0.5717  1.5243
24235SOL    HW274713   0.795   8.416   4.469  0.5639 -3.5065 -2.4601
24236SOL     OW74714   5.085   0.659   7.196 -1.4647 -0.4475  0.0974
24236SOL    HW174715   4.998   0.640   7.231 -2.7358 -0.7750 -2.9565
24236SOL    HW274716   5.134   0.578   7.209 -2.4054 -1.0939 -0.2761
24237SOL     OW74717   7.443   4.804   5.896  0.2565 -0.6466 -0.2541
24237SOL    HW174718   7.433   4.713   5.869 -0.8237 -0.8599  0.7938
24237SOL    HW274719   7.497   4.800   5.975  1.0354 -0.2799 -0.7552
24238SOL     OW74720   6.310   9.791   3.621 -0.1499  0.3234  0.4527
24238SOL    HW174721   6.276   9.871   3.662  1.3408  0.8234  0.7730
24238SOL    HW274722   6.350   9.742   3.693 -0.3219 -0.3150  0.1153
24239SOL     OW74723   0.367   6.757   0.914 -0.5520 -0.0492 -0.2221
24239SOL    HW174724   0.426   6.751   0.989  0.4205 -2.3028 -1.0803
24239SOL    HW274725   0.280   6.744   0.952 -0.1169 -0.6942  0.5963
24240SOL     OW74726   5.109   4.975   4.097 -0.0985 -0.0459  0.3326
24240SOL    HW174727   5.162   5.039   4.143  0.3746 -0.9336  1.0453
24240SOL    HW274728   5.098   4.903   4.159 -1.7362 -0.0995  0.0390
24241SOL     OW74729  10.390   2.611  11.144 -0.2190 -0.2578 -0.3688
24241SOL    HW174730  10.321   2.664  11.182 -0.2305 -1.7308  1.8261
24241SOL    HW274731  10.363   2.521  11.160  0.5039 -0.9512 -2.6769
24242SOL     OW74732   5.767   9.034   9.189 -0.4061  0.0817  0.3411
24242SOL    HW174733   5.708   8.970   9.147 -0.5397  0.1389  0.4391
24242SOL    HW274734   5.723   9.118   9.178 -0.2839  0.1416  0.3100
24243SOL     OW74735   8.769   8.003   8.940  0.0010 -0.1251  0.4534
24243SOL    HW174736   8.771   7.940   9.011  3.9576 -0.6279  0.1125
24243SOL    HW274737   8.820   8.077   8.972 -1.1502  1.1826 -0.6284
24244SOL     OW74738   7.526   9.706   8.788  0.1083 -0.5137  0.3999
24244SOL    HW174739   7.527   9.681   8.880  2.3793  0.6081  0.7360
24244SOL    HW274740   7.612   9.681   8.755 -0.0933  0.5213 -1.0024
24245SOL     OW74741   0.631   6.676   5.549 -0.6865 -0.1619  0.7762
24245SOL    HW174742   0.704   6.707   5.601  0.1285 -1.4913  0.4612
24245SOL    HW274743   0.612   6.749   5.489 -0.4512  0.6634  1.6697
24246SOL     OW74744   3.742   6.556  10.250  0.8282 -0.2212 -0.0808
24246SOL    HW174745   3.775   6.605  10.325  0.5298  0.6582 -0.5226
24246SOL    HW274746   3.682   6.616  10.205  0.5698 -0.9298 -0.7096
24247SOL     OW74747  10.259  11.004   5.980  0.0979  0.6914  1.1512
24247SOL    HW174748  10.277  10.988   6.073 -1.0727 -0.2482  1.2598
24247SOL    HW274749  10.167  10.977   5.970  0.7114 -0.9385 -0.6387
24248SOL     OW74750   1.191   3.383   0.326  0.2738  0.1648 -0.8379
24248SOL    HW174751   1.164   3.299   0.364  0.2413  0.3828 -0.3800
24248SOL    HW274752   1.281   3.367   0.298  0.3904  0.0786 -0.4286
24249SOL     OW74753   1.042   0.606   0.684 -0.3446  0.4581 -0.1826
24249SOL    HW174754   0.971   0.670   0.690  1.0178  1.9962  0.3081
24249SOL    HW274755   1.005   0.526   0.721 -1.9661  1.0722 -0.3891
24250SOL     OW74756   2.939  11.026   0.988  0.1382  0.1118 -0.2570
24250SOL    HW174757   2.997  10.951   1.001  1.1460  1.2541  2.5365
24250SOL    HW274758   2.895  11.039   1.072 -1.7692  1.2900 -1.3381
24251SOL     OW74759   0.377   2.521   4.823 -0.1002  0.2216 -0.6845
24251SOL    HW174760   0.366   2.546   4.915  2.3090  1.1860 -0.5725
24251SOL    HW274761   0.428   2.440   4.826 -0.5599 -0.0917 -1.1748
24252SOL     OW74762   4.439   7.690   9.005 -0.2377  0.1514  0.1984
24252SOL    HW174763   4.528   7.725   9.012  0.1968 -0.3386 -2.0487
24252SOL    HW274764   4.384   7.758   9.043  0.9171  1.5781 -0.5483
24253SOL     OW74765   6.531   3.371   7.097 -0.1832 -0.2210  0.6288
24253SOL    HW174766   6.546   3.310   7.025 -2.1778  0.6107 -0.6148
24253SOL    HW274767   6.565   3.455   7.065  0.4831 -0.1949  1.3792
24254SOL     OW74768   7.997   9.101   4.759  0.3598  0.0769  0.2907
24254SOL    HW174769   7.997   9.091   4.855 -0.8056 -0.9837  0.2086
24254SOL    HW274770   8.072   9.049   4.730  0.1488 -0.3901  0.5671
24255SOL     OW74771   3.188   5.881   3.126  0.2196 -0.4531 -0.5195
24255SOL    HW174772   3.135   5.943   3.075  0.3621 -0.1929 -0.3507
24255SOL    HW274773   3.175   5.797   3.081 -0.4078 -0.4147 -0.4289
24256SOL     OW74774   2.952   5.585   1.287  0.3482 -0.1466  0.2637
24256SOL    HW174775   2.875   5.554   1.333 -0.9874  1.5444 -0.7091
24256SOL    HW274776   3.013   5.611   1.356 -0.9437  0.7887  1.0828
24257SOL     OW74777   7.868   8.099   4.702  0.1278  0.1670 -0.2312
24257SOL    HW174778   7.877   8.021   4.757  0.5566  0.7793  0.5783
24257SOL    HW274779   7.892   8.172   4.759 -0.6928  0.9439 -0.8506
24258SOL     OW74780   9.048   9.239   7.120  0.1738 -0.6323  0.0106
24258SOL    HW174781   9.072   9.149   7.142 -2.6763 -0.8001  3.2528
24258SOL    HW274782   8.955   9.234   7.097 -0.0536  1.4637  0.2938
24259SOL     OW74783  10.345   6.710   9.006  0.1461 -0.3005 -0.2668
24259SOL    HW174784  10.258   6.688   8.973 -0.2592 -0.0025  0.5670
24259SOL    HW274785  10.404   6.650   8.961 -0.3876  0.0393 -1.4474
24260SOL     OW74786   2.101   6.648  10.797  0.9445  0.3289  0.4015
24260SOL    HW174787   2.195   6.637  10.815  1.4626  1.4470 -1.3017
24260SOL    HW274788   2.074   6.565  10.759  1.0666 -0.2239  1.4827
24261SOL     OW74789   7.140   9.775   9.430 -0.7236 -0.2543  0.2056
24261SOL    HW174790   7.166   9.861   9.398 -0.4867 -0.7041 -0.8335
24261SOL    HW274791   7.149   9.782   9.525  1.7789  0.0865  0.0167
24262SOL     OW74792   4.238   8.280   3.812 -0.0528  0.7292 -0.8113
24262SOL    HW174793   4.245   8.352   3.874 -2.0401  0.9691 -0.8096
24262SOL    HW274794   4.253   8.320   3.727 -0.6057  1.0483 -0.7622
24263SOL     OW74795   6.649   0.549   5.289  0.6358 -0.0577 -0.7886
24263SOL    HW174796   6.692   0.465   5.305  3.3220  1.5157  1.0753
24263SOL    HW274797   6.560   0.538   5.324  0.7624 -2.2032 -1.0095
24264SOL     OW74798   2.541   8.937   2.443  0.2917 -0.0763  0.6948
24264SOL    HW174799   2.496   8.881   2.507 -0.7122 -1.0684 -0.8325
24264SOL    HW274800   2.482   8.941   2.368  3.6431 -3.7067 -2.6143
24265SOL     OW74801   6.762   8.768   6.999  0.1373 -0.2751 -0.4060
24265SOL    HW174802   6.710   8.688   7.002 -0.0311 -0.1422  0.3804
24265SOL    HW274803   6.798   8.770   6.910 -1.0210 -0.4741 -0.9006
24266SOL     OW74804   2.237   3.581   9.352  0.0258 -0.3685 -0.0840
24266SOL    HW174805   2.250   3.505   9.409 -0.5519 -0.7018 -0.3797
24266SOL    HW274806   2.296   3.648   9.386 -1.4276 -0.0149  1.9224
24267SOL     OW74807   1.616   2.779   4.059 -0.0633  0.4424 -0.5257
24267SOL    HW174808   1.532   2.820   4.081 -0.4160 -0.6908  0.3317
24267SOL    HW274809   1.616   2.774   3.964 -1.6771 -0.9257 -0.4986
24268SOL     OW74810   0.027  10.259   6.273 -0.0527 -0.1102  0.3110
24268SOL    HW174811   0.087  10.236   6.203  0.3338 -1.3971  1.0327
24268SOL    HW274812  -0.014  10.176   6.298 -0.4500  0.3768  1.3430
24269SOL     OW74813   9.568   6.854   1.164 -0.6269  0.1939  0.9051
24269SOL    HW174814   9.492   6.868   1.108  0.4997  1.5508 -0.3965
24269SOL    HW274815   9.567   6.928   1.225  0.3983  1.0742 -0.0841
24270SOL     OW74816   8.160   4.322   6.899  0.0605  0.3504  0.3709
24270SOL    HW174817   8.109   4.394   6.935 -0.0402  0.7621 -0.5685
24270SOL    HW274818   8.240   4.362   6.867  1.2546 -0.3639  2.2956
24271SOL     OW74819   7.336  10.177   1.160  0.7036  0.5823  0.6614
24271SOL    HW174820   7.318  10.105   1.220 -0.5616  0.6456  0.4061
24271SOL    HW274821   7.431  10.185   1.159  0.8873 -1.1091  0.6662
24272SOL     OW74822   4.603   2.573  10.574 -0.1021  0.5083  0.1059
24272SOL    HW174823   4.612   2.622  10.493 -0.6770  0.4273 -0.0120
24272SOL    HW274824   4.693   2.563  10.606  0.1493  0.3377 -0.6351
24273SOL     OW74825  10.147   3.414  10.089  0.3342  0.1433 -0.0645
24273SOL    HW174826  10.194   3.348  10.140 -1.1747 -0.9772 -0.0386
24273SOL    HW274827  10.082   3.364  10.040 -1.3299  1.6601  0.4789
24274SOL     OW74828  10.254   2.384   5.815  0.4366 -0.2737  0.9254
24274SOL    HW174829  10.173   2.361   5.862  0.1880 -0.4288  0.4247
24274SOL    HW274830  10.297   2.300   5.797 -0.6666 -0.4463 -1.2512
24275SOL     OW74831   4.180   1.846   5.887 -0.2017  0.2204  0.3911
24275SOL    HW174832   4.105   1.821   5.940 -1.2615  0.6419 -0.8768
24275SOL    HW274833   4.256   1.829   5.944 -1.2370 -0.1310  1.7160
24276SOL     OW74834   3.457   0.625   4.266  0.0677 -0.5181  0.4213
24276SOL    HW174835   3.363   0.626   4.286  0.2766  0.8201  1.5102
24276SOL    HW274836   3.480   0.718   4.256  1.1389 -0.8634 -0.6114
24277SOL     OW74837   6.708   4.289   6.795  0.4333 -0.5104  0.1973
24277SOL    HW174838   6.797   4.255   6.788  0.2941 -0.9348  0.4862
24277SOL    HW274839   6.658   4.218   6.835  0.0183 -0.1805  0.2695
24278SOL     OW74840   1.480   2.692   0.393 -0.8883  0.4454  0.0746
24278SOL    HW174841   1.402   2.746   0.388 -1.3927 -0.3504 -1.2878
24278SOL    HW274842   1.545   2.739   0.341 -0.9975  0.2773 -0.2174
24279SOL     OW74843   6.887  10.277   0.710 -0.9955  0.1650  0.1082
24279SOL    HW174844   6.920  10.201   0.758 -3.1046 -0.9726 -0.1581
24279SOL    HW274845   6.810  10.305   0.759  0.1026  2.6325  0.6057
24280SOL     OW74846   8.248   3.027   4.648  0.0723 -0.3834  0.3246
24280SOL    HW174847   8.243   2.951   4.592  0.7350  1.3331 -2.2285
24280SOL    HW274848   8.218   3.100   4.593  1.2357  1.4906  2.0123
24281SOL     OW74849   9.104   8.795   3.235 -0.1798  0.0791 -0.0176
24281SOL    HW174850   9.074   8.878   3.199  1.4106  0.7356  0.0506
24281SOL    HW274851   9.026   8.739   3.239 -1.7016  2.1497  1.6531
24282SOL     OW74852   0.100   6.419   9.802  0.2763 -0.2685 -0.2838
24282SOL    HW174853   0.029   6.482   9.819  0.7860  0.0473  0.7550
24282SOL    HW274854   0.149   6.458   9.730 -0.2654 -0.2038 -0.6254
24283SOL     OW74855   2.931  11.095   0.314 -0.1001 -0.2712  0.1608
24283SOL    HW174856   2.958  11.113   0.224  0.1118  0.7376  0.4063
24283SOL    HW274857   2.837  11.115   0.316  0.1991  1.2309  0.5104
24284SOL     OW74858   4.023   6.689   2.356 -0.1561 -0.2187  0.7686
24284SOL    HW174859   4.027   6.599   2.389  1.0749 -1.1929 -1.8089
24284SOL    HW274860   3.959   6.686   2.286  0.4154  0.7388  0.1830
24285SOL     OW74861   7.428   1.299   0.639  0.1041 -0.7542 -0.6286
24285SOL    HW174862   7.339   1.279   0.611 -0.7809  1.6827  0.1488
24285SOL    HW274863   7.476   1.313   0.557 -1.0453  0.9092 -1.0681
24286SOL     OW74864   7.493   1.685   2.410 -0.7779 -0.0122  0.2607
24286SOL    HW174865   7.443   1.753   2.455 -0.6679  1.0173 -1.1086
24286SOL    HW274866   7.565   1.732   2.368  0.5901 -1.2953  1.1006
24287SOL     OW74867   8.306  11.173   9.907 -0.3478  0.6923 -0.6344
24287SOL    HW174868   8.221  11.201   9.942  0.9467  2.2487  1.5090
24287SOL    HW274869   8.329  11.096   9.958  0.2274  1.2118 -0.1016
24288SOL     OW74870   1.043   4.449   6.655  0.1837  0.3477  0.6398
24288SOL    HW174871   1.026   4.410   6.570  0.5542 -1.0619  1.1809
24288SOL    HW274872   0.996   4.533   6.653 -1.5181 -0.5633 -0.2189
24289SOL     OW74873   2.560  10.818   9.850  0.3706  0.5945 -0.5272
24289SOL    HW174874   2.592  10.903   9.817  0.0721  1.7885  1.9895
24289SOL    HW274875   2.640  10.768   9.867  0.7049  1.3660  0.2933
24290SOL     OW74876  10.769   1.279   1.012  0.5408 -0.3213  0.2652
24290SOL    HW174877  10.748   1.369   1.037  3.0295  0.4105  0.0228
24290SOL    HW274878  10.845   1.257   1.065  0.9745 -1.6707 -0.8583
24291SOL     OW74879   9.314  10.995   8.079 -0.0821 -0.4647  0.0308
24291SOL    HW174880   9.240  11.005   8.019  1.9252  0.6528 -2.4695
24291SOL    HW274881   9.391  11.010   8.024  1.9857 -0.6110  2.6878
24292SOL     OW74882   5.351   1.466   8.040 -0.8542 -0.5089  0.2599
24292SOL    HW174883   5.435   1.453   7.997 -1.2082 -3.0709  0.2009
24292SOL    HW274884   5.309   1.538   7.991  1.3971  1.1227  0.5646
24293SOL     OW74885   0.714   3.125   3.580  0.3449 -0.5452  0.1967
24293SOL    HW174886   0.644   3.181   3.547 -0.9444 -2.6171 -0.7668
24293SOL    HW274887   0.794   3.162   3.542 -0.6135 -0.1471 -1.5389
24294SOL     OW74888   6.501   8.813   3.452  0.0430  0.4652 -0.1491
24294SOL    HW174889   6.477   8.788   3.362  1.7224  1.7018 -0.9879
24294SOL    HW274890   6.528   8.730   3.493  0.1131  0.0253 -1.0614
24295SOL     OW74891   2.847   8.154   5.205  0.8128  0.0234  0.0932
24295SOL    HW174892   2.853   8.214   5.130  1.4450  0.9811  0.8913
24295SOL    HW274893   2.919   8.179   5.262  1.8516 -2.2749 -0.0814
24296SOL     OW74894   2.782   5.162   3.199  0.2724 -0.1620  0.6461
24296SOL    HW174895   2.730   5.107   3.140  0.1069  0.6023  0.0606
24296SOL    HW274896   2.797   5.242   3.149  0.9248  0.1307  1.3024
24297SOL     OW74897   0.745   7.472   8.334 -0.0033 -0.2161  0.1320
24297SOL    HW174898   0.825   7.462   8.282 -0.6424  0.1998 -0.9649
24297SOL    HW274899   0.748   7.563   8.364 -0.1746 -0.1359 -0.0947
24298SOL     OW74900   2.291   8.729   6.823 -0.5022 -0.1141 -0.2033
24298SOL    HW174901   2.283   8.823   6.835  0.3786 -0.1064  0.4403
24298SOL    HW274902   2.223   8.692   6.881 -0.6839  0.1131 -0.2697
24299SOL     OW74903   0.019   9.093   9.878 -1.2095  0.8597  0.9092
24299SOL    HW174904   0.091   9.077   9.940 -1.8095  0.1369  1.4513
24299SOL    HW274905  -0.021   9.174   9.909 -0.9423  0.9952  0.9075
24300SOL     OW74906   5.992   0.995  10.777 -0.2618 -0.3805  0.1262
24300SOL    HW174907   6.035   1.079  10.758  0.0776 -0.7562 -0.8733
24300SOL    HW274908   6.058   0.945  10.826 -0.5080 -0.0324  0.8284
24301SOL     OW74909   7.231   4.066   0.487  0.0885  0.1240 -0.4671
24301SOL    HW174910   7.304   4.014   0.452 -0.3109 -0.9681  0.2704
24301SOL    HW274911   7.250   4.155   0.458  2.1272  0.0176  0.3292
24302SOL     OW74912  10.884   5.233   3.075  1.1642 -0.3509 -0.1851
24302SOL    HW174913  10.965   5.278   3.049  0.5326  0.8673 -0.1070
24302SOL    HW274914  10.814   5.286   3.037  0.2840  0.2623  2.1339
24303SOL     OW74915   2.742   6.322   1.007  0.1586 -0.8012  0.0671
24303SOL    HW174916   2.648   6.337   1.003 -0.0889 -2.4764 -2.1167
24303SOL    HW274917   2.751   6.228   1.025  1.4118 -0.6437  0.3804
24304SOL     OW74918   0.270   3.825   4.117  0.6644 -0.1507  0.3551
24304SOL    HW174919   0.276   3.918   4.094  0.0099 -0.3199 -0.5346
24304SOL    HW274920   0.334   3.782   4.061 -0.2548 -0.4427 -0.4942
24305SOL     OW74921   2.890   1.456   2.355 -0.2976 -0.7447 -0.4067
24305SOL    HW174922   2.850   1.507   2.285 -0.1054 -0.4158 -0.2757
24305SOL    HW274923   2.949   1.395   2.310 -0.3438 -0.6873 -0.5440
24306SOL     OW74924   1.727   5.319   3.974  0.2723  0.7148  0.4520
24306SOL    HW174925   1.656   5.303   3.912  1.4605 -0.9939 -0.5513
24306SOL    HW274926   1.726   5.414   3.987 -0.8851  0.9601 -1.1241
24307SOL     OW74927   4.531   0.284   4.161  0.4205  0.1021 -0.6052
24307SOL    HW174928   4.475   0.334   4.102  0.8668 -0.9790 -1.9906
24307SOL    HW274929   4.479   0.206   4.182  1.0109 -0.4466 -1.1398
24308SOL     OW74930   1.143   1.880   8.123 -0.2519 -0.0667  0.0209
24308SOL    HW174931   1.081   1.953   8.116 -0.0329  0.2313  0.9592
24308SOL    HW274932   1.091   1.803   8.099 -0.4036  0.4182 -1.2694
24309SOL     OW74933   6.594  10.181   6.832  0.4418  0.0959  0.1944
24309SOL    HW174934   6.528  10.123   6.793 -0.8951  1.9152 -0.3704
24309SOL    HW274935   6.566  10.191   6.923 -0.2918  1.1632 -0.1414
24310SOL     OW74936   8.333  10.496   9.234 -0.0564 -0.1746  0.5086
24310SOL    HW174937   8.390  10.470   9.307 -1.0905 -2.0405  0.7182
24310SOL    HW274938   8.316  10.414   9.187 -0.2348  0.8311 -1.2565
24311SOL     OW74939   8.486   3.349   1.579  0.2173  0.0682 -0.7775
24311SOL    HW174940   8.467   3.332   1.671  2.7308 -0.6882 -0.3050
24311SOL    HW274941   8.484   3.444   1.571  1.6552  0.2506  0.5292
24312SOL     OW74942   7.992  10.111   6.229 -0.0236  0.0486 -0.1334
24312SOL    HW174943   8.007  10.029   6.182 -1.2146  0.0916 -0.6305
24312SOL    HW274944   7.920  10.091   6.289  0.2866  0.4897  0.3936
24313SOL     OW74945   5.634   1.866   2.293 -0.1477 -0.5525  0.4439
24313SOL    HW174946   5.631   1.793   2.232  1.4823 -1.5045  1.3899
24313SOL    HW274947   5.723   1.862   2.330  0.0158  1.9473  0.5027
24314SOL     OW74948  10.328   6.563   3.590 -0.1943  0.8133 -0.4808
24314SOL    HW174949  10.421   6.563   3.614 -0.2321  0.6199 -0.3394
24314SOL    HW274950  10.307   6.472   3.572 -1.1707  0.2706  2.6593
24315SOL     OW74951   5.977   9.375   9.290 -0.3012  0.4727 -0.1017
24315SOL    HW174952   6.017   9.352   9.374 -0.1025  0.3868 -0.2178
24315SOL    HW274953   6.044   9.426   9.245 -0.1228 -0.1024 -0.5048
24316SOL     OW74954   8.842   1.243   9.775 -0.4041  0.0650  0.1475
24316SOL    HW174955   8.815   1.154   9.751 -0.9820  0.0849  0.6890
24316SOL    HW274956   8.918   1.230   9.833 -0.1537 -0.0533 -0.2063
24317SOL     OW74957   5.652   1.928   7.289 -0.0538 -0.2418 -0.5343
24317SOL    HW174958   5.631   2.017   7.260  0.3825 -0.2611 -0.9116
24317SOL    HW274959   5.702   1.890   7.217  0.5154 -0.4982 -0.0085
24318SOL     OW74960   9.750   6.308   6.445  0.2775  0.2742 -0.6200
24318SOL    HW174961   9.693   6.378   6.413 -0.5851 -0.9267 -1.8102
24318SOL    HW274962   9.702   6.269   6.518 -0.2470 -0.4147 -1.3077
24319SOL     OW74963   1.638   6.942  10.647  0.4102 -0.9429  0.4933
24319SOL    HW174964   1.666   7.020  10.599 -1.9397  0.5377  1.3677
24319SOL    HW274965   1.715   6.915  10.696  0.7763  2.1703  1.8648
24320SOL     OW74966  11.084   6.897   4.147  0.5947  0.2837  0.2658
24320SOL    HW174967  11.007   6.911   4.092 -0.4371 -2.5141  0.8579
24320SOL    HW274968  11.158   6.916   4.089 -0.4158  2.9462 -0.3457
24321SOL     OW74969   2.660   9.991   7.168  0.2170 -0.5348 -0.3215
24321SOL    HW174970   2.687   9.913   7.121 -2.4875 -0.3959 -2.3454
24321SOL    HW274971   2.622  10.048   7.101 -0.8843  1.0922  1.5677
24322SOL     OW74972   1.694   8.066   3.160 -0.3901  0.0281  0.0538
24322SOL    HW174973   1.664   7.994   3.104 -1.4526 -0.4023  1.1295
24322SOL    HW274974   1.789   8.066   3.149 -0.1892 -2.4438  1.0254
24323SOL     OW74975   4.484   7.901   9.595 -0.4164 -0.5237  1.2577
24323SOL    HW174976   4.529   7.966   9.542 -1.3886 -1.0084 -0.2216
24323SOL    HW274977   4.553   7.861   9.648  0.7656 -0.6491 -0.3107
24324SOL     OW74978   9.062   0.798   5.298  0.2520  0.5055  0.7534
24324SOL    HW174979   9.057   0.709   5.264 -0.4505  0.3615  1.2111
24324SOL    HW274980   9.096   0.850   5.225  0.7488 -0.1458  0.5111
24325SOL     OW74981   5.168   1.893   2.865 -0.3512 -0.3222 -0.3550
24325SOL    HW174982   5.201   1.835   2.934 -1.2327 -1.2184 -0.6660
24325SOL    HW274983   5.077   1.908   2.888 -0.4244  0.0468 -0.8772
24326SOL     OW74984   8.470   3.707  10.466  0.0907 -0.4096  0.3440
24326SOL    HW174985   8.467   3.670  10.377  1.3396 -1.2610  0.6211
24326SOL    HW274986   8.401   3.773  10.467  0.3113 -0.0934 -1.4014
24327SOL     OW74987   0.358   4.553  11.211  0.9945 -0.2787  0.2042
24327SOL    HW174988   0.404   4.569  11.293  0.8943  2.6601 -0.1854
24327SOL    HW274989   0.267   4.540  11.236  0.7603  1.7472  0.5697
24328SOL     OW74990   4.812   8.887   5.259 -0.3992  0.3110 -0.2987
24328SOL    HW174991   4.867   8.815   5.228 -0.8601 -1.0703  1.8178
24328SOL    HW274992   4.872   8.943   5.309 -0.1875  1.0134 -1.3147
24329SOL     OW74993   3.269  10.365   9.378 -0.4632  0.0059  0.7452
24329SOL    HW174994   3.199  10.314   9.338  0.7556 -2.8784  1.9841
24329SOL    HW274995   3.310  10.411   9.305 -0.0312 -2.8926 -1.0139
24330SOL     OW74996   1.776   1.542   5.752  0.6560 -0.8315 -0.3264
24330SOL    HW174997   1.866   1.538   5.784  1.0650 -0.4580 -1.3739
24330SOL    HW274998   1.745   1.629   5.777  1.6436  0.2518 -2.5233
24331SOL     OW74999  11.278   6.906   9.545  0.0671 -0.1588 -0.2539
24331SOL    HW175000  11.299   6.816   9.571 -0.5518 -0.1593  0.2533
24331SOL    HW275001  11.335   6.923   9.470  0.6768 -0.7335  0.0783
24332SOL     OW75002  11.180   4.320   9.275  0.0501  0.7541  0.4095
24332SOL    HW175003  11.104   4.265   9.259 -0.5457  1.2720  1.3459
24332SOL    HW275004  11.248   4.260   9.306  0.4926  0.0852 -1.7195
24333SOL     OW75005   0.608   8.870   2.135  0.7998 -0.2221  0.8448
24333SOL    HW175006   0.700   8.856   2.160  0.4637  0.2735  2.4651
24333SOL    HW275007   0.581   8.948   2.183 -0.8368 -1.0846  1.4036
24334SOL     OW75008   9.997   0.180   2.770  0.7281  0.3063  0.1519
24334SOL    HW175009   9.922   0.238   2.759 -0.7044 -1.5440 -0.4083
24334SOL    HW275010  10.059   0.230   2.824 -0.4738  2.2548 -0.2012
24335SOL     OW75011   4.290   8.072   7.509  0.6119 -0.5351 -0.1791
24335SOL    HW175012   4.235   8.018   7.453  1.1787  0.4081 -1.7116
24335SOL    HW275013   4.288   8.028   7.594  0.0153 -2.2161 -1.0106
24336SOL     OW75014   6.146   9.521   1.197  0.1166 -0.2362 -0.1012
24336SOL    HW175015   6.213   9.587   1.180  0.7734 -1.1483 -1.2514
24336SOL    HW275016   6.190   9.455   1.251  0.7027 -1.6250 -2.1506
24337SOL     OW75017  10.408  10.476   4.973  0.6749  0.1789  0.4121
24337SOL    HW175018  10.476  10.490   4.907  0.0524  3.2427  0.2904
24337SOL    HW275019  10.398  10.381   4.977  4.0360 -0.3512 -0.4800
24338SOL     OW75020  10.166   2.887   8.410  0.0739  0.4233  0.2102
24338SOL    HW175021  10.231   2.887   8.339  0.4342 -3.0038  0.3539
24338SOL    HW275022  10.083   2.870   8.366 -0.0917  0.7236  0.4051
24339SOL     OW75023   9.520   8.339   0.613 -0.0758  0.1107  0.7042
24339SOL    HW175024   9.450   8.359   0.551  0.2101  0.8534  0.6061
24339SOL    HW275025   9.601   8.361   0.566  0.2836 -1.5532  0.5095
24340SOL     OW75026   4.698   9.450   2.501 -0.4099  0.2475  0.2517
24340SOL    HW175027   4.756   9.445   2.576 -0.7168 -1.1476  0.4394
24340SOL    HW275028   4.746   9.500   2.435  0.5348  0.0777  0.8044
24341SOL     OW75029   4.954   7.661   0.712 -1.0356 -0.1222  0.1967
24341SOL    HW175030   5.019   7.621   0.654 -1.3029 -1.0248  0.4989
24341SOL    HW275031   5.004   7.691   0.788 -0.7437  0.6973 -0.3120
24342SOL     OW75032  10.355   6.922  10.932  0.4802 -0.1751  0.2398
24342SOL    HW175033  10.364   7.002  10.880  1.1245  0.2139  0.9269
24342SOL    HW275034  10.413   6.859  10.888  0.1349 -0.2063 -0.1779
24343SOL     OW75035   4.426   3.937   6.920  1.1314 -0.3995  0.7928
24343SOL    HW175036   4.447   4.029   6.933 -0.9489  0.2437  0.1211
24343SOL    HW275037   4.335   3.929   6.949  0.2372 -1.4978 -1.9335
24344SOL     OW75038   8.713   0.781   2.345  0.8276 -0.6939 -0.2241
24344SOL    HW175039   8.633   0.742   2.311  0.2467  1.4264 -1.4675
24344SOL    HW275040   8.685   0.834   2.419  1.2739 -0.8431  0.0569
24345SOL     OW75041   4.554   1.117   7.370  0.4975 -0.8785 -0.4248
24345SOL    HW175042   4.632   1.066   7.392  0.6080  0.0092  1.5136
24345SOL    HW275043   4.541   1.173   7.447 -0.3187  1.1148 -1.9451
24346SOL     OW75044   5.243   2.283   1.175 -0.1853  0.1985 -0.4628
24346SOL    HW175045   5.310   2.216   1.166 -0.1011  0.4003 -1.4221
24346SOL    HW275046   5.208   2.270   1.263  1.1136  0.0969  0.0725
24347SOL     OW75047   7.432   0.908   0.566  0.0122 -0.1914  0.1580
24347SOL    HW175048   7.349   0.861   0.563 -0.7010  1.0527 -0.1448
24347SOL    HW275049   7.468   0.899   0.477  0.1768 -0.6581  0.2670
24348SOL     OW75050   7.048   8.217   1.062  0.1798  1.0062 -0.4064
24348SOL    HW175051   7.124   8.242   1.114  0.4705 -3.8703  2.1128
24348SOL    HW275052   7.069   8.130   1.029 -3.3123  0.5352 -1.8339
24349SOL     OW75053   0.246   0.325   6.325 -0.1461  0.3915 -0.5924
24349SOL    HW175054   0.273   0.233   6.327  0.7826  0.6639  0.7720
24349SOL    HW275055   0.154   0.324   6.350 -0.2229 -0.1897 -0.8822
24350SOL     OW75056   7.829   2.804   0.622  0.4930  1.0042 -0.4956
24350SOL    HW175057   7.878   2.733   0.662  1.7201  2.0078 -0.1525
24350SOL    HW275058   7.863   2.884   0.663  0.3819  1.9251 -2.0922
24351SOL     OW75059   4.219   1.748   8.067  0.4584  0.6702 -0.2312
24351SOL    HW175060   4.229   1.695   7.988  1.2113  1.3158 -0.5881
24351SOL    HW275061   4.201   1.837   8.034 -2.5072  0.3817  0.3547
24352SOL     OW75062  10.709   9.949   3.100 -0.4369 -0.5690 -0.0581
24352SOL    HW175063  10.690   9.923   3.010 -0.8549 -0.1431 -0.0921
24352SOL    HW275064  10.779  10.014   3.092  1.2971 -2.2962  0.0788
24353SOL     OW75065   8.436   8.633   3.351  0.0365 -0.2503  0.1224
24353SOL    HW175066   8.505   8.580   3.393  1.8480  1.6479 -0.3021
24353SOL    HW275067   8.422   8.591   3.267  0.6903 -0.6790  0.2156
24354SOL     OW75068   6.270  10.216   0.553 -0.0174 -0.9156  0.0442
24354SOL    HW175069   6.312  10.243   0.472  0.8993  0.4669  0.9350
24354SOL    HW275070   6.203  10.153   0.526  0.9382 -1.2495 -1.6613
24355SOL     OW75071   0.107  10.848   4.208 -0.4112 -0.0959 -0.1742
24355SOL    HW175072   0.096  10.939   4.179  3.6246  0.8069  0.4231
24355SOL    HW275073   0.124  10.856   4.302  1.5932 -1.2084 -0.3952
24356SOL     OW75074   6.388   4.939   5.546 -0.4420 -0.0645  0.2104
24356SOL    HW175075   6.419   4.928   5.636  0.9799  1.7312 -0.0097
24356SOL    HW275076   6.464   4.915   5.492 -1.1056 -0.5892 -0.5064
24357SOL     OW75077   4.091   4.610   6.024  0.1700  0.1640 -0.6034
24357SOL    HW175078   4.092   4.694   6.069 -0.9780  0.3957 -0.9707
24357SOL    HW275079   4.008   4.610   5.975  0.4464 -0.9151 -1.1017
24358SOL     OW75080   2.889   3.994   0.635  0.2851 -0.3094 -0.3125
24358SOL    HW175081   2.968   3.989   0.688  0.3529 -2.0054 -0.5314
24358SOL    HW275082   2.820   4.021   0.695  0.7238 -0.3854  0.2238
24359SOL     OW75083  11.176   7.860   9.855 -0.5437  0.6250  0.3237
24359SOL    HW175084  11.108   7.918   9.891 -0.0393  0.5284  1.4580
24359SOL    HW275085  11.208   7.810   9.930  0.2259  0.0862 -0.3420
24360SOL     OW75086   1.286   7.018   7.867  0.5523 -0.5421 -0.0840
24360SOL    HW175087   1.268   7.034   7.959 -0.0357  1.8106 -0.5477
24360SOL    HW275088   1.348   7.086   7.842  1.3484 -1.6417 -1.2742
24361SOL     OW75089   7.259   3.566   1.308  0.0113  0.1909  0.0468
24361SOL    HW175090   7.353   3.583   1.306 -0.1752  1.4623 -2.5617
24361SOL    HW275091   7.252   3.472   1.292  0.8139 -0.8277  4.4088
24362SOL     OW75092   0.150   6.771   8.342  0.4688  0.3853 -0.0658
24362SOL    HW175093   0.085   6.839   8.326  0.5574  0.2640 -0.9595
24362SOL    HW275094   0.101   6.700   8.382  0.1412  0.4585 -0.3424
24363SOL     OW75095   5.821   8.479   3.192  0.1207  0.0016 -0.1961
24363SOL    HW175096   5.824   8.573   3.212  0.1704 -0.1266  0.4162
24363SOL    HW275097   5.730   8.453   3.209  0.4762 -0.3921  1.2309
24364SOL     OW75098   7.892   0.602   9.743  0.3230 -0.1164  0.4914
24364SOL    HW175099   7.798   0.601   9.725  0.8237 -1.7677 -2.5350
24364SOL    HW275100   7.915   0.695   9.742 -1.0760  0.2542  0.2007
24365SOL     OW75101   7.410   9.121   6.729 -0.8809 -0.0929 -0.1271
24365SOL    HW175102   7.348   9.191   6.711  1.3435  2.0016 -0.2137
24365SOL    HW275103   7.371   9.043   6.691 -2.4398  1.5568 -2.0814
24366SOL     OW75104   8.147   6.581   3.707 -0.2522  0.0781  0.2076
24366SOL    HW175105   8.122   6.529   3.631  2.2172 -1.5261  0.3584
24366SOL    HW275106   8.083   6.558   3.774 -1.8169  0.6776 -1.0318
24367SOL     OW75107   9.099   4.838   9.330 -0.0752 -0.2696 -0.1702
24367SOL    HW175108   9.062   4.884   9.255 -2.3654 -1.2642  0.2715
24367SOL    HW275109   9.155   4.771   9.292 -0.7481 -0.3822 -0.9763
24368SOL     OW75110   9.507  10.329   3.852  0.1337  0.3855  0.5683
24368SOL    HW175111   9.533  10.381   3.929 -1.6010  0.9071  0.8418
24368SOL    HW275112   9.450  10.261   3.887 -0.2804  0.3290 -0.1931
24369SOL     OW75113   4.215   9.434   7.622  0.8720 -0.8266 -0.0789
24369SOL    HW175114   4.193   9.353   7.668 -3.4140 -0.5050 -1.1472
24369SOL    HW275115   4.180   9.503   7.678 -0.4325 -0.1400 -1.6742
24370SOL     OW75116  10.373   7.087   9.472  0.3617  0.0086 -0.6068
24370SOL    HW175117  10.444   7.123   9.525  0.0502  0.2923 -0.3805
24370SOL    HW275118  10.417   7.044   9.399  0.7637  0.2420 -0.5038
24371SOL     OW75119   1.442  11.005   6.511 -0.7319  0.1587  0.8628
24371SOL    HW175120   1.383  11.021   6.437 -0.3670 -1.3122  0.2072
24371SOL    HW275121   1.501  11.080   6.512  1.1840 -1.1192 -2.2827
24372SOL     OW75122   3.118   1.070   4.782 -0.2553 -0.1706  0.2181
24372SOL    HW175123   3.130   0.986   4.826 -0.7671 -0.7128 -0.6444
24372SOL    HW275124   3.145   1.053   4.691 -0.0988  0.6748  0.1012
24373SOL     OW75125   5.377   0.319  11.177  0.1897  0.5172 -0.0135
24373SOL    HW175126   5.460   0.350  11.140  0.7883 -0.7030  0.2439
24373SOL    HW275127   5.322   0.301  11.101  0.6348  0.0907 -0.2391
24374SOL     OW75128   3.165   7.170   5.788 -0.2434 -1.0458 -0.5054
24374SOL    HW175129   3.080   7.208   5.810 -0.3055 -1.8160  0.6595
24374SOL    HW275130   3.225   7.245   5.783 -1.0904 -0.4164 -2.0120
24375SOL     OW75131   5.631   9.431   7.840  0.0036 -0.0898  0.6571
24375SOL    HW175132   5.632   9.370   7.766 -0.7767  2.1261 -1.3023
24375SOL    HW275133   5.720   9.427   7.876  0.2591 -1.5590 -0.0881
24376SOL     OW75134   0.303   3.573   7.390 -0.2236  1.2657 -0.0249
24376SOL    HW175135   0.358   3.645   7.422  0.7406  0.2248  0.7295
24376SOL    HW275136   0.362   3.498   7.386 -1.1731  0.5394 -0.9639
24377SOL     OW75137   0.445   2.025   6.968 -0.6700 -0.5015  0.6734
24377SOL    HW175138   0.422   2.099   6.912 -2.1488 -1.5558 -0.2050
24377SOL    HW275139   0.480   2.064   7.047  0.1566  1.0752 -0.4243
24378SOL     OW75140   4.360   0.430   0.487  0.2898 -0.3733 -0.6264
24378SOL    HW175141   4.409   0.388   0.417 -0.8534  0.1277 -1.7548
24378SOL    HW275142   4.309   0.360   0.527 -0.0671 -0.4300 -1.1751
24379SOL     OW75143   3.078   8.099   7.390  0.5489 -0.4376  0.0737
24379SOL    HW175144   3.166   8.133   7.407 -0.2071  2.1268 -0.6254
24379SOL    HW275145   3.076   8.086   7.295  0.3061 -0.9402  0.1437
24380SOL     OW75146   4.677   8.906   2.773  0.6298 -0.2036  0.1806
24380SOL    HW175147   4.701   8.984   2.825  0.9274  0.3176 -0.7150
24380SOL    HW275148   4.630   8.941   2.698  0.9544 -0.8737 -0.3469
24381SOL     OW75149   6.694   9.874   0.107  0.2765 -0.0699  0.1473
24381SOL    HW175150   6.611   9.917   0.084  0.6751  0.2152 -0.8074
24381SOL    HW275151   6.678   9.836   0.194 -0.3345  1.3815  0.7124
24382SOL     OW75152   1.653   4.164   3.597 -0.4993  0.4801 -0.3560
24382SOL    HW175153   1.621   4.084   3.639  0.9071 -0.6279 -1.3178
24382SOL    HW275154   1.582   4.192   3.539 -0.8527 -0.2762 -0.2902
24383SOL     OW75155   6.290   3.868  10.011 -0.5321  0.1673  0.4119
24383SOL    HW175156   6.230   3.806   9.970 -0.1112  0.6283 -0.9955
24383SOL    HW275157   6.376   3.826  10.006 -0.7597 -0.7227  2.9075
24384SOL     OW75158   0.737   9.441   6.431  0.3696 -0.2132  0.4258
24384SOL    HW175159   0.724   9.369   6.369  0.2846  0.8540 -0.8499
24384SOL    HW275160   0.692   9.516   6.391 -0.8176  0.2260  2.4074
24385SOL     OW75161   4.436   9.665   5.114  0.1908  0.1820 -0.0050
24385SOL    HW175162   4.439   9.614   5.033  1.8784  1.5231 -0.8512
24385SOL    HW275163   4.367   9.624   5.166 -3.1746  1.0617 -3.3266
24386SOL     OW75164   9.753   2.665   1.781 -0.1499 -0.3501 -0.4309
24386SOL    HW175165   9.806   2.599   1.827 -0.7247 -1.4633 -1.3124
24386SOL    HW275166   9.807   2.692   1.708  0.0145  0.0305 -0.1694
24387SOL     OW75167   8.848   9.016   0.461  0.1217  0.0748  0.0084
24387SOL    HW175168   8.925   9.051   0.505  0.2883 -0.0372 -0.1966
24387SOL    HW275169   8.878   8.935   0.419  0.3310  0.9425 -1.5659
24388SOL     OW75170   1.840   1.711   5.204  0.6514 -0.8008  0.6391
24388SOL    HW175171   1.825   1.618   5.185 -0.1315 -0.2955 -1.5057
24388SOL    HW275172   1.796   1.725   5.288 -0.7741 -2.0063  0.1513
24389SOL     OW75173   7.765   8.220   8.722  0.2076 -0.0076  0.1515
24389SOL    HW175174   7.792   8.171   8.801  0.1352  0.0413  0.2064
24389SOL    HW275175   7.670   8.224   8.728  0.2087  0.0786  0.1094
24390SOL     OW75176   5.738  10.894   2.745 -0.5748  0.1146 -0.0499
24390SOL    HW175177   5.814  10.937   2.785 -0.3859  0.4826 -0.7839
24390SOL    HW275178   5.775  10.837   2.678 -1.0042  1.4040 -1.4365
24391SOL     OW75179   2.685   9.328   7.894 -0.5371 -0.1894 -0.1425
24391SOL    HW175180   2.721   9.333   7.983 -0.9457 -1.6797  0.1301
24391SOL    HW275181   2.594   9.354   7.904 -0.2508  0.9926 -0.3889
24392SOL     OW75182   9.325   1.696   0.112  0.0032 -0.0913  0.8518
24392SOL    HW175183   9.253   1.638   0.137  0.5664 -1.9627 -1.5603
24392SOL    HW275184   9.394   1.677   0.176  0.5148 -2.8898 -0.3845
24393SOL     OW75185   9.569  10.373   0.994 -0.4305 -0.8397 -0.3409
24393SOL    HW175186   9.588  10.466   1.004  2.0283 -1.2076 -1.1049
24393SOL    HW275187   9.488  10.360   1.044  0.4135  1.2414  1.7276
24394SOL     OW75188   7.253   9.003   1.730 -0.3031  0.6106 -0.4055
24394SOL    HW175189   7.219   9.091   1.712  0.4433  0.5694 -2.2413
24394SOL    HW275190   7.186   8.962   1.785 -1.1205  1.9784 -0.3300
24395SOL     OW75191   6.863   7.662  10.936  0.4581 -0.3713  0.1376
24395SOL    HW175192   6.823   7.707  11.010  0.1842 -2.6322  1.4494
24395SOL    HW275193   6.901   7.583  10.973  0.8018 -1.3316 -2.0657
24396SOL     OW75194   3.340   1.879   7.109  0.1948  0.5035 -0.3634
24396SOL    HW175195   3.394   1.955   7.129  0.9206  0.0574 -0.5715
24396SOL    HW275196   3.252   1.902   7.140  0.7287  0.8186  0.9898
24397SOL     OW75197   3.887   4.087   0.860 -0.2679  0.6779 -0.5503
24397SOL    HW175198   3.931   4.002   0.859 -0.4349  0.4844  2.0203
24397SOL    HW275199   3.880   4.112   0.768  1.9846 -0.9314 -1.2369
24398SOL     OW75200   0.483   1.676   0.556  0.4850 -0.0603  0.2843
24398SOL    HW175201   0.548   1.741   0.527  1.5021 -1.4245 -0.6141
24398SOL    HW275202   0.399   1.719   0.543  1.1184  2.7540  3.8096
24399SOL     OW75203   3.804   0.310   1.900  0.0072  0.1136  0.1668
24399SOL    HW175204   3.843   0.243   1.843  1.0891  0.3639  0.5852
24399SOL    HW275205   3.810   0.274   1.988 -2.1528 -0.5019  0.1130
24400SOL     OW75206   4.975   9.591   0.279 -0.2277  0.1474  0.1307
24400SOL    HW175207   4.934   9.588   0.366 -0.1907 -1.8930  0.1264
24400SOL    HW275208   5.020   9.676   0.276 -1.1046  0.6967  1.6880
24401SOL     OW75209   8.965   9.864  10.847 -0.6196  0.4289 -0.0304
24401SOL    HW175210   9.019   9.837  10.921 -1.8214  2.2575  1.5909
24401SOL    HW275211   9.023   9.853  10.771  1.6901  1.2094  1.4879
24402SOL     OW75212   5.676   5.468   0.816 -0.4078  0.2293  0.5923
24402SOL    HW175213   5.664   5.391   0.762  1.1941 -0.4332  1.1417
24402SOL    HW275214   5.736   5.441   0.886  0.1511  1.9313  0.8413
24403SOL     OW75215   0.013   4.672   8.205  0.3046  0.3593  0.2172
24403SOL    HW175216  -0.001   4.688   8.112  1.9908  1.5445  0.1183
24403SOL    HW275217   0.006   4.577   8.215 -4.2586  0.4311 -0.2651
24404SOL     OW75218   3.264   2.804   6.704  0.2385 -0.8756  0.1235
24404SOL    HW175219   3.316   2.726   6.726 -1.8530 -1.9288  1.7626
24404SOL    HW275220   3.262   2.854   6.785 -0.6074 -0.4408 -0.1633
24405SOL     OW75221   8.821   6.874   2.856 -0.1325  0.1090  0.1122
24405SOL    HW175222   8.894   6.934   2.867 -0.0218 -0.2833  1.7326
24405SOL    HW275223   8.857   6.788   2.879 -0.4411 -0.5243 -1.6027
24406SOL     OW75224   1.564   4.604   4.458  0.0892 -0.0553  0.2335
24406SOL    HW175225   1.548   4.692   4.492  0.2366 -0.4910  1.4443
24406SOL    HW275226   1.632   4.567   4.514 -2.7493 -2.4379  2.4184
24407SOL     OW75227   3.347   5.639   8.968  0.0611  0.0585 -0.0856
24407SOL    HW175228   3.348   5.544   8.979  2.1171  0.1068  0.5093
24407SOL    HW275229   3.310   5.652   8.880 -1.3115 -1.1963  0.2637
24408SOL     OW75230  11.112   1.051   3.877 -0.0756 -0.2993  0.4507
24408SOL    HW175231  11.142   1.099   3.954 -3.1206  2.2936  0.1922
24408SOL    HW275232  11.119   1.113   3.805 -1.0412 -1.3599 -0.5997
24409SOL     OW75233   1.911   2.235   7.088  0.1336  0.1320  0.3297
24409SOL    HW175234   1.866   2.240   7.004  1.0719  0.3248 -0.1693
24409SOL    HW275235   1.842   2.213   7.151  0.0459 -4.2087 -1.0121
24410SOL     OW75236  10.776   0.451  10.742  0.7780 -0.1910  0.1246
24410SOL    HW175237  10.753   0.502  10.820  2.0914 -1.1658  1.2169
24410SOL    HW275238  10.718   0.375  10.745  0.2970  0.1549 -0.2946
24411SOL     OW75239   2.276  10.662   1.103 -0.4540 -0.2589 -0.0723
24411SOL    HW175240   2.295  10.649   1.010  3.0852  1.3341  0.2512
24411SOL    HW275241   2.289  10.575   1.142 -1.5925 -0.8572 -0.9699
24412SOL     OW75242   5.796   1.283  10.544 -0.6917  0.3157  0.3419
24412SOL    HW175243   5.867   1.271  10.606 -0.5081 -0.5788 -0.0228
24412SOL    HW275244   5.835   1.332  10.472 -0.6228  0.4119  0.4448
24413SOL     OW75245   2.950   6.107  11.001  0.5331 -0.5345 -0.5029
24413SOL    HW175246   2.955   6.033  11.062  0.9059 -1.0461 -1.1373
24413SOL    HW275247   2.999   6.077  10.924 -0.1393  0.0055 -1.1467
24414SOL     OW75248   5.830   0.521   7.032 -0.3337 -0.5655 -0.1357
24414SOL    HW175249   5.776   0.485   6.961 -0.1729 -1.3331  0.1213
24414SOL    HW275250   5.766   0.549   7.098 -0.4592 -0.3541 -0.3418
24415SOL     OW75251  10.844   2.805   3.821  0.3801  0.3476  0.0878
24415SOL    HW175252  10.817   2.718   3.851 -0.8822  1.5071  2.6568
24415SOL    HW275253  10.939   2.803   3.823  0.3617 -0.9579  0.1406
24416SOL     OW75254   8.977   5.717   9.371 -0.3216 -0.1491  0.0797
24416SOL    HW175255   8.987   5.644   9.310  0.8635 -0.5725  0.7606
24416SOL    HW275256   8.887   5.708   9.404 -1.1180  0.2810 -1.8024
24417SOL     OW75257   8.510   4.238   2.086 -0.4451  0.5528 -0.8809
24417SOL    HW175258   8.511   4.186   2.006 -0.8615 -2.2486  0.8101
24417SOL    HW275259   8.594   4.284   2.086  1.1792 -2.2434 -1.2288
24418SOL     OW75260   2.940   7.211   3.630 -0.2245  0.3897 -0.1838
24418SOL    HW175261   2.926   7.303   3.610  0.6602  0.8492  1.1829
24418SOL    HW275262   2.976   7.174   3.549  0.1297  1.4072 -0.5001
24419SOL     OW75263   4.954   4.819   2.969 -0.5274  0.1396 -0.0895
24419SOL    HW175264   4.952   4.908   2.935 -0.2319 -0.3578 -1.4687
24419SOL    HW275265   4.992   4.828   3.056 -0.6079  1.3693 -0.1642
24420SOL     OW75266   5.633   9.359   4.859  0.2372 -0.0981  0.7148
24420SOL    HW175267   5.694   9.317   4.920 -0.1374  0.2182  1.3209
24420SOL    HW275268   5.562   9.295   4.848  0.8412 -0.6198 -0.2807
24421SOL     OW75269  10.213   0.501   4.991 -0.0744  0.2596 -0.0446
24421SOL    HW175270  10.170   0.462   5.068 -0.4088  2.0113  0.7119
24421SOL    HW275271  10.271   0.568   5.028  2.2293 -0.9958 -1.1471
24422SOL     OW75272   3.434   1.476   6.546 -0.0942  0.0422 -0.3402
24422SOL    HW175273   3.404   1.435   6.464  0.1855 -2.1448  0.5893
24422SOL    HW275274   3.481   1.555   6.517  1.8119 -1.7253 -2.4984
24423SOL     OW75275   8.912   3.438   7.883  0.8640 -0.3461 -0.0651
24423SOL    HW175276   8.835   3.443   7.826  1.1104 -1.2982 -0.5139
24423SOL    HW275277   8.912   3.348   7.916  0.4757  0.3149  1.8414
24424SOL     OW75278  10.020   5.485   7.072 -0.4327 -0.4839 -0.3798
24424SOL    HW175279   9.940   5.514   7.114 -0.8596  0.0988 -1.5307
24424SOL    HW275280   9.991   5.434   6.996  0.2655 -0.2829 -0.7999
24425SOL     OW75281   1.485   9.920   5.198 -0.2527  0.1053  0.0108
24425SOL    HW175282   1.561   9.880   5.156  1.8013  2.5560  1.1568
24425SOL    HW275283   1.445   9.848   5.248  0.8978 -1.3776 -1.0991
24426SOL     OW75284   8.625   9.508   8.297  0.6270 -0.3695  0.5829
24426SOL    HW175285   8.698   9.541   8.348  0.8077  1.2850 -0.6722
24426SOL    HW275286   8.648   9.527   8.206 -1.8682  1.3579  0.2191
24427SOL     OW75287   6.160  10.525   1.150  0.2209 -0.3439 -0.4349
24427SOL    HW175288   6.240  10.492   1.191 -0.0442 -1.0337 -0.4560
24427SOL    HW275289   6.137  10.602   1.201  1.5136  0.5361 -1.1255
24428SOL     OW75290   9.719   2.519   0.470  0.2010  0.2733  0.2573
24428SOL    HW175291   9.678   2.476   0.546 -1.2034 -0.6236 -0.9672
24428SOL    HW275292   9.795   2.565   0.507  1.0762 -2.2213  1.8625
24429SOL     OW75293   3.495   3.862   2.015 -0.6569  0.1914  0.0415
24429SOL    HW175294   3.461   3.901   2.095 -2.1379  1.5925 -1.2042
24429SOL    HW275295   3.418   3.833   1.967  0.2207 -1.0066 -0.7060
24430SOL     OW75296   9.947   7.567   2.415  0.7032 -1.0873 -0.5332
24430SOL    HW175297  10.030   7.596   2.376  0.7864 -1.1749 -0.4204
24430SOL    HW275298   9.881   7.620   2.371  0.7851 -1.2700 -0.8798
24431SOL     OW75299  11.238   4.240   2.687 -0.1017 -0.3321  0.1607
24431SOL    HW175300  11.271   4.151   2.697  2.1804  0.0217 -2.9140
24431SOL    HW275301  11.143   4.231   2.695 -0.1435 -3.4566 -2.0034
24432SOL     OW75302  10.412   2.821   1.565 -0.2173  0.2503 -0.2762
24432SOL    HW175303  10.386   2.750   1.505  1.0625 -2.0201  1.6660
24432SOL    HW275304  10.330   2.847   1.607 -0.6351 -0.5027 -0.6015
24433SOL     OW75305   5.353   9.935   1.515 -0.1219 -0.1141 -0.4767
24433SOL    HW175306   5.260   9.955   1.524 -0.1207  1.2022 -2.7563
24433SOL    HW275307   5.382   9.917   1.605 -2.2872  0.6467  0.4471
24434SOL     OW75308   2.273   3.993   5.698 -0.6959 -0.3237  0.3181
24434SOL    HW175309   2.298   4.060   5.762 -0.9666  0.4365 -0.3516
24434SOL    HW275310   2.250   3.916   5.750  1.0900 -0.4080  1.0461
24435SOL     OW75311   7.560   5.076   6.906 -0.3246 -0.2912  1.0472
24435SOL    HW175312   7.607   5.129   6.971  0.1344  0.1015  0.4092
24435SOL    HW275313   7.575   4.985   6.933 -1.4255 -0.1053  2.3574
24436SOL     OW75314   7.219   4.782  10.555  0.6166 -1.1914 -0.3652
24436SOL    HW175315   7.262   4.867  10.558  0.6105 -1.0948 -2.1866
24436SOL    HW275316   7.133   4.799  10.517 -1.0170 -1.4454  2.9005
24437SOL     OW75317   3.049   4.426   1.657 -0.0202 -0.2798 -0.1555
24437SOL    HW175318   3.134   4.464   1.635 -0.5937  0.0980 -1.8503
24437SOL    HW275319   2.989   4.501   1.657 -0.9072 -0.9139 -2.1350
24438SOL     OW75320  10.328   1.861   1.183  0.0286  0.2040  0.0241
24438SOL    HW175321  10.322   1.935   1.244  1.3819  0.0902  0.3180
24438SOL    HW275322  10.289   1.894   1.102  0.5219  1.2185  0.1767
24439SOL     OW75323  10.251   8.180  10.569  0.5632 -0.1437 -0.2626
24439SOL    HW175324  10.198   8.228  10.505  1.5041  0.9631 -0.2487
24439SOL    HW275325  10.307   8.247  10.608  2.8988 -1.4410 -1.1919
24440SOL     OW75326   1.360  10.970   4.483 -0.1343 -0.3993 -0.5042
24440SOL    HW175327   1.313  11.001   4.561 -0.4930 -2.0456 -0.0062
24440SOL    HW275328   1.299  10.985   4.411 -0.1508  0.3662 -0.3329
24441SOL     OW75329   8.204   2.885   9.739  0.2128  0.1937 -0.0719
24441SOL    HW175330   8.231   2.930   9.818  0.5086 -0.9238  0.4825
24441SOL    HW275331   8.242   2.797   9.746 -1.2048 -0.5075 -0.5971
24442SOL     OW75332   8.406   7.622   2.752  0.0505  0.1541 -0.3785
24442SOL    HW175333   8.344   7.639   2.681 -0.5531  1.7292  0.4834
24442SOL    HW275334   8.357   7.569   2.815  0.6230 -1.3459 -1.1185
24443SOL     OW75335   9.725   7.648   6.553  0.1357  0.3157 -0.5555
24443SOL    HW175336   9.798   7.621   6.496 -0.0629  0.4276 -0.8691
24443SOL    HW275337   9.751   7.733   6.587  0.6654 -0.1656  0.2579
24444SOL     OW75338  10.717   1.200   0.136 -0.0791 -0.1154 -0.1261
24444SOL    HW175339  10.677   1.262   0.075  0.3489 -1.1485 -1.5057
24444SOL    HW275340  10.660   1.123   0.134  0.1320 -0.2948  0.4908
24445SOL     OW75341   6.738   6.869   1.267  0.1307 -0.0772 -0.2223
24445SOL    HW175342   6.720   6.962   1.250  1.3252  0.2289  0.0715
24445SOL    HW275343   6.656   6.825   1.247 -1.3708  1.3295  2.3051
24446SOL     OW75344  10.581   3.168   8.770 -0.3482 -0.4941  0.1863
24446SOL    HW175345  10.627   3.250   8.786  0.2398 -0.0597 -3.0879
24446SOL    HW275346  10.497   3.193   8.733  0.8415 -1.1987 -3.3695
24447SOL     OW75347   4.029   7.937   2.796  0.1862  0.1043 -0.4084
24447SOL    HW175348   3.965   7.967   2.859 -1.3930  1.1192 -2.3714
24447SOL    HW275349   4.111   7.931   2.845 -1.6018 -2.8915  2.6475
24448SOL     OW75350   4.417   3.097   2.417  0.2360 -0.2852 -0.4971
24448SOL    HW175351   4.510   3.088   2.434  0.3479  0.9032 -0.3797
24448SOL    HW275352   4.377   3.024   2.463  0.9700  0.1407  0.8588
24449SOL     OW75353   2.991   0.864   4.208  0.4656  0.1609  0.1879
24449SOL    HW175354   2.951   0.862   4.295 -1.1977  2.5357 -0.4135
24449SOL    HW275355   2.970   0.779   4.170 -0.3851 -0.2175  1.4283
24450SOL     OW75356   2.567   4.768   1.853  0.0306  0.0995 -0.1508
24450SOL    HW175357   2.564   4.772   1.758  0.1723  0.7862 -0.1339
24450SOL    HW275358   2.640   4.709   1.873  0.3663  0.4079 -0.4644
24451SOL     OW75359  10.120  10.283   7.480  0.3079  0.6970 -0.2529
24451SOL    HW175360  10.213  10.297   7.496  0.1161  0.0224  1.6341
24451SOL    HW275361  10.075  10.344   7.538 -0.4361  0.4926 -0.5922
24452SOL     OW75362   9.639   4.201   8.432 -0.0398 -0.5801  0.2375
24452SOL    HW175363   9.733   4.220   8.428 -0.3540  0.9598 -0.7093
24452SOL    HW275364   9.609   4.211   8.341 -1.2689 -0.1735  0.6689
24453SOL     OW75365   7.953   6.785   4.725  0.2680  0.0505  0.0761
24453SOL    HW175366   7.861   6.775   4.701  0.4652 -1.0270 -0.2512
24453SOL    HW275367   7.954   6.779   4.820  0.3263 -2.9900 -0.0449
24454SOL     OW75368   6.221   3.956   2.695  0.0487  0.2690  0.4701
24454SOL    HW175369   6.197   4.037   2.651 -1.9498 -0.4271  0.1327
24454SOL    HW275370   6.185   3.966   2.783  0.1235 -0.0894  0.5418
24455SOL     OW75371   3.720   8.967   3.462  0.9265  0.1511  0.1127
24455SOL    HW175372   3.630   8.953   3.493  1.6841 -2.4267  1.3892
24455SOL    HW275373   3.762   9.015   3.533  1.1772 -0.7793  0.6018
24456SOL     OW75374   5.184   3.369   7.199 -0.1493  0.0023  0.3870
24456SOL    HW175375   5.260   3.313   7.213  1.9710  1.6734 -3.0019
24456SOL    HW275376   5.110   3.308   7.192  1.4287 -2.0145  0.4858
24457SOL     OW75377   8.586   3.280   1.249 -0.0144 -0.2082  0.3984
24457SOL    HW175378   8.629   3.236   1.322  1.1312  0.1993 -0.0068
24457SOL    HW275379   8.604   3.373   1.263 -1.2798  0.0272  0.5305
24458SOL     OW75380   9.495   3.917   0.182 -0.6713 -0.1495  0.1345
24458SOL    HW175381   9.404   3.923   0.208 -0.5365 -1.2267  0.9164
24458SOL    HW275382   9.493   3.875   0.096 -0.8788 -0.9953  0.5427
24459SOL     OW75383   4.192   3.180   7.084 -0.5796  0.1583  0.1871
24459SOL    HW175384   4.155   3.094   7.064  0.6139  0.3266 -3.4623
24459SOL    HW275385   4.270   3.161   7.137 -0.0101 -1.1315 -1.0404
24460SOL     OW75386   9.926   7.927   6.699 -0.7154  0.1827  0.1890
24460SOL    HW175387   9.910   8.012   6.658 -1.5744 -0.9960 -2.1246
24460SOL    HW275388   9.840   7.884   6.699 -0.2090 -0.8725  0.8669
24461SOL     OW75389   2.135   3.912  10.315  0.5621  0.0519  0.2210
24461SOL    HW175390   2.213   3.876  10.274  1.3409  0.3986  1.3630
24461SOL    HW275391   2.071   3.841  10.311  1.6344 -1.0107  1.2332
24462SOL     OW75392   6.776   9.376  11.105 -0.2535  0.0259 -0.4751
24462SOL    HW175393   6.813   9.292  11.130 -1.0196  0.5823  3.1328
24462SOL    HW275394   6.850   9.424  11.065  0.4581 -1.9121 -1.5930
24463SOL     OW75395   1.792  10.576   8.510 -0.2238  0.3419 -0.7512
24463SOL    HW175396   1.727  10.594   8.443 -0.7558 -1.4912 -0.7981
24463SOL    HW275397   1.755  10.504   8.560  0.7086  0.8674  0.7590
24464SOL     OW75398   6.203   6.039   7.850 -0.0830 -0.1369  0.0529
24464SOL    HW175399   6.195   5.965   7.910  1.3494 -0.7047 -0.3952
24464SOL    HW275400   6.119   6.042   7.804 -0.4086 -1.0541  0.5548
24465SOL     OW75401   4.270   5.454   2.057 -0.4589  0.7757 -0.6646
24465SOL    HW175402   4.242   5.460   2.148  0.1545 -1.5978 -0.2380
24465SOL    HW275403   4.360   5.487   2.057  0.8530 -2.4334  0.4125
24466SOL     OW75404   4.353   1.653   3.139 -0.5752 -0.0446  0.2022
24466SOL    HW175405   4.440   1.631   3.173 -0.0530 -1.6753 -1.9549
24466SOL    HW275406   4.304   1.571   3.144 -1.6022  0.5486  0.2088
24467SOL     OW75407   5.494   2.650   2.135  0.2289  0.8320 -0.2669
24467SOL    HW175408   5.455   2.737   2.120 -3.0390 -0.2048  1.2134
24467SOL    HW275409   5.498   2.642   2.230  0.9327 -0.4752 -0.3924
24468SOL     OW75410   9.590   6.118   2.958  0.0751  0.1056 -0.1446
24468SOL    HW175411   9.499   6.130   2.930  0.3818  1.8099 -0.5134
24468SOL    HW275412   9.584   6.092   3.050 -0.8154 -1.5432 -0.6233
24469SOL     OW75413   6.408   8.930   2.502 -0.3262 -0.0416  0.4374
24469SOL    HW175414   6.491   8.953   2.461  0.8202 -3.8287  0.3125
24469SOL    HW275415   6.409   8.975   2.587 -0.2431  3.4296 -1.2362
24470SOL     OW75416   8.307   0.781   5.736  0.6667 -0.1794  0.3199
24470SOL    HW175417   8.328   0.699   5.691  0.8246  0.6484 -1.2068
24470SOL    HW275418   8.241   0.758   5.801  0.0195 -1.3677 -0.7240
24471SOL     OW75419   7.518   1.278   2.865  0.1042  0.3559  0.5076
24471SOL    HW175420   7.566   1.279   2.948  1.1429  1.1398 -0.0687
24471SOL    HW275421   7.426   1.283   2.890  0.4073  0.8109  1.6068
24472SOL     OW75422   5.841  10.046   1.403 -0.3602 -0.3717 -0.0468
24472SOL    HW175423   5.828   9.953   1.389 -1.1666 -0.1119 -1.1138
24472SOL    HW275424   5.843  10.084   1.315  1.0221  0.4888  0.3214
24473SOL     OW75425   0.153   5.242   1.491 -0.4464  0.3993  0.2197
24473SOL    HW175426   0.232   5.223   1.542  0.4357  0.5866 -1.0443
24473SOL    HW275427   0.145   5.337   1.495  1.4528  0.8057 -2.4973
24474SOL     OW75428   6.341   2.012   9.028  0.5360  0.4430  1.2804
24474SOL    HW175429   6.395   1.935   9.046  1.9374  0.6678 -1.4379
24474SOL    HW275430   6.257   1.977   8.999  1.4949 -0.1631 -0.9239
24475SOL     OW75431   6.783   5.585   5.355  0.2928  0.4295  0.1074
24475SOL    HW175432   6.876   5.563   5.357  0.4523  1.0791  1.7814
24475SOL    HW275433   6.779   5.674   5.391 -1.0568 -0.0036  1.1036
24476SOL     OW75434   5.722   0.757   3.353 -0.4564 -0.1019 -0.6317
24476SOL    HW175435   5.642   0.787   3.395  0.6773  0.0049  1.5940
24476SOL    HW275436   5.696   0.739   3.263 -3.2430 -1.1209  0.2573
24477SOL     OW75437   9.684   4.950   1.709 -0.3920  0.2925  0.0459
24477SOL    HW175438   9.691   4.990   1.796 -1.7050 -1.5801  1.0828
24477SOL    HW275439   9.620   4.879   1.720  1.5899 -1.9320 -1.7063
24478SOL     OW75440   2.585   6.596   9.795 -0.1844 -0.1770 -0.1723
24478SOL    HW175441   2.554   6.537   9.864 -2.9838  0.8566 -0.3904
24478SOL    HW275442   2.647   6.544   9.744  1.5321 -1.1673  2.7064
24479SOL     OW75443   9.403   5.283   1.563  0.1205 -0.0881  0.1479
24479SOL    HW175444   9.426   5.366   1.606  0.2955  1.2454 -2.3336
24479SOL    HW275445   9.433   5.294   1.473 -0.5052 -2.6165 -0.4331
24480SOL     OW75446   4.585   2.312   2.416  0.4782  0.2165  0.0323
24480SOL    HW175447   4.491   2.292   2.415  0.6932 -0.9929  1.6630
24480SOL    HW275448   4.588   2.407   2.407 -0.9398  0.3473  0.5787
24481SOL     OW75449   9.809   3.056   2.788  0.1417  0.6155  0.4225
24481SOL    HW175450   9.895   3.034   2.825 -0.5634 -1.8845  0.7432
24481SOL    HW275451   9.792   2.987   2.724 -1.6580  1.0161  0.4255
24482SOL     OW75452   9.802   3.818   5.097 -0.4369  0.6701  0.2316
24482SOL    HW175453   9.880   3.782   5.140  1.1629  3.8358  0.2459
24482SOL    HW275454   9.765   3.879   5.161 -4.1794 -1.9795  0.9654
24483SOL     OW75455  10.296   4.184   0.813  0.6005 -0.7086  0.4936
24483SOL    HW175456  10.345   4.235   0.877  1.4165 -0.7320 -0.1052
24483SOL    HW275457  10.215   4.161   0.858  0.1644  1.1675  0.7566
24484SOL     OW75458   3.250   6.503   0.704 -0.0805 -0.3164  0.0827
24484SOL    HW175459   3.278   6.553   0.781 -1.2623  1.1027 -0.3556
24484SOL    HW275460   3.159   6.531   0.690  0.0132 -0.7899 -1.6300
24485SOL     OW75461   6.645   2.443   0.585  0.5724  0.1752  0.4870
24485SOL    HW175462   6.641   2.496   0.665  0.1618  0.5881  0.2030
24485SOL    HW275463   6.579   2.375   0.597 -0.9121  1.4096 -0.3012
24486SOL     OW75464   1.103   3.014   2.227 -0.2034  0.6901  0.1787
24486SOL    HW175465   1.066   3.056   2.150 -0.5950 -3.0262 -1.8909
24486SOL    HW275466   1.031   2.961   2.262  0.4917  0.9283  2.0463
24487SOL     OW75467  10.227   5.917   6.480 -0.9204  0.0026  0.1535
24487SOL    HW175468  10.175   5.916   6.399  0.3078 -0.0132 -0.6676
24487SOL    HW275469  10.249   5.825   6.496 -2.9162 -0.2819  1.7402
24488SOL     OW75470  11.006   9.112  11.247 -0.1366  0.0973 -0.1035
24488SOL    HW175471  10.955   9.072  11.177 -1.4684 -0.5378  1.1711
24488SOL    HW275472  10.959   9.192  11.269 -1.4267 -1.0977  1.9159
24489SOL     OW75473   9.740   3.838   2.754 -0.5708  0.1989 -0.2262
24489SOL    HW175474   9.804   3.886   2.807  0.2801  0.1257 -1.1657
24489SOL    HW275475   9.792   3.793   2.688 -1.4083 -1.5297  0.2347
24490SOL     OW75476   2.162  11.270   8.848 -0.0799  0.5503 -0.5781
24490SOL    HW175477   2.103  11.344   8.862  0.7655  0.9296  1.3168
24490SOL    HW275478   2.246  11.311   8.825  0.0057  0.1039 -1.0805
24491SOL     OW75479   2.522   2.757   7.938  0.2198  0.2177  0.2338
24491SOL    HW175480   2.566   2.672   7.936  2.1458  1.1765 -0.5651
24491SOL    HW275481   2.498   2.769   8.030 -2.4746 -2.2855 -0.0130
24492SOL     OW75482   5.148   8.468   8.002 -0.4820 -0.3352 -0.1312
24492SOL    HW175483   5.070   8.439   8.048 -1.0220 -1.0375 -1.4141
24492SOL    HW275484   5.154   8.562   8.020 -0.5970 -0.6016  1.4101
24493SOL     OW75485   2.291   4.658   9.322  0.8473 -0.5144 -0.0623
24493SOL    HW175486   2.329   4.708   9.250 -0.1187  1.5599  0.7727
24493SOL    HW275487   2.238   4.722   9.369 -1.2103 -2.5647  0.5723
24494SOL     OW75488   0.091   6.367   0.714  0.5813 -0.2587 -0.0733
24494SOL    HW175489   0.060   6.349   0.626  0.3230 -1.4108  0.2339
24494SOL    HW275490   0.123   6.282   0.746  1.2345  0.2689  0.7166
24495SOL     OW75491   3.044   9.764   2.538 -0.0153  0.0658 -0.3928
24495SOL    HW175492   3.129   9.758   2.495  0.1330 -0.9338  0.0076
24495SOL    HW275493   2.996   9.686   2.508 -0.6987  0.4814 -0.4141
24496SOL     OW75494  10.842   3.123   3.331  0.7186  0.1477  0.2283
24496SOL    HW175495  10.831   3.082   3.416  0.6891 -0.0460  0.1319
24496SOL    HW275496  10.837   3.050   3.268 -0.0880  0.3867 -0.0013
24497SOL     OW75497   4.287   9.316   8.048  0.1435 -0.2851 -0.0013
24497SOL    HW175498   4.214   9.359   8.003  0.4842 -0.0426 -0.3315
24497SOL    HW275499   4.311   9.243   7.991 -2.2123 -2.7126  1.8256
24498SOL     OW75500   4.629   6.340   8.839 -0.1001  0.0621 -0.7392
24498SOL    HW175501   4.612   6.423   8.885 -2.0464 -0.3363 -0.6820
24498SOL    HW275502   4.663   6.367   8.754  2.4994  0.8322  0.4331
24499SOL     OW75503   3.513   8.940   4.630  0.0385  0.0932  0.2816
24499SOL    HW175504   3.507   8.910   4.721 -1.4931  0.2375  0.2492
24499SOL    HW275505   3.464   8.875   4.580  0.6360  0.1680 -0.4203
24500SOL     OW75506   3.583   1.125   8.981  0.3047  0.1750  0.1110
24500SOL    HW175507   3.673   1.098   9.001  0.5440 -0.2921 -1.4939
24500SOL    HW275508   3.557   1.178   9.057  1.8196  0.0816  0.7379
24501SOL     OW75509  10.721  10.871   2.476 -0.7251 -0.4788 -0.1003
24501SOL    HW175510  10.709  10.928   2.400  0.0197  0.2172  0.2885
24501SOL    HW275511  10.778  10.921   2.535 -0.1139 -1.5952  0.2883
24502SOL     OW75512   2.845   1.954   6.940  0.3714  0.2483  0.4577
24502SOL    HW175513   2.927   1.993   6.969  1.0905 -0.0297 -1.1359
24502SOL    HW275514   2.780   2.024   6.952  0.6324  0.2131  2.4852
24503SOL     OW75515   2.905   8.677   1.238 -0.3785  0.4720  0.1129
24503SOL    HW175516   2.925   8.643   1.325  0.9646  0.8334 -0.0314
24503SOL    HW275517   2.902   8.772   1.249 -1.7572  0.4586  0.0503
24504SOL     OW75518   4.976   5.334   4.695 -0.1843 -0.6822 -0.0060
24504SOL    HW175519   5.028   5.291   4.763 -0.6336 -3.0255 -1.0460
24504SOL    HW275520   5.041   5.362   4.630  0.0970  0.1634  0.6101
24505SOL     OW75521   7.093  11.261   6.000  0.8870 -0.3151  0.4874
24505SOL    HW175522   7.027  11.196   5.973  0.4016  0.2577  0.2672
24505SOL    HW275523   7.044  11.322   6.055  0.5952  1.5612 -1.7070
24506SOL     OW75524   6.371   4.333   0.342  0.6655 -0.6434  0.0767
24506SOL    HW175525   6.406   4.259   0.392  2.4215  1.4785  2.2316
24506SOL    HW275526   6.300   4.367   0.397  0.8378  0.1188 -0.1646
24507SOL     OW75527   3.139   5.690   5.852 -0.8285 -0.2772  0.0114
24507SOL    HW175528   3.195   5.666   5.778  0.3847  0.6237  0.5883
24507SOL    HW275529   3.179   5.770   5.887 -2.1791  0.0889  0.7912
24508SOL     OW75530  10.519  11.074   4.031  0.0406 -0.0354 -0.0574
24508SOL    HW175531  10.493  11.062   3.939 -0.3400  0.7699 -0.0612
24508SOL    HW275532  10.607  11.035   4.035 -0.0137 -0.2509 -0.7229
24509SOL     OW75533   1.353   3.530   0.480 -0.4078 -0.1930 -0.2635
24509SOL    HW175534   1.272   3.482   0.464 -0.3260 -0.8145  1.0675
24509SOL    HW275535   1.329   3.622   0.468 -1.8316 -0.2025  2.0212
24510SOL     OW75536   3.194   3.010  10.423 -0.1200  0.6208 -0.8824
24510SOL    HW175537   3.287   3.021  10.404 -0.1003 -0.4855 -1.5427
24510SOL    HW275538   3.152   3.084  10.380  0.4851  1.3717 -0.2089
24511SOL     OW75539   9.996   1.719   8.046  0.4085 -0.5365  0.0213
24511SOL    HW175540   9.941   1.785   8.003  1.9772  1.1625  0.4915
24511SOL    HW275541  10.037   1.672   7.974  1.9691  1.3807 -0.4248
24512SOL     OW75542  11.104  10.683   7.302  0.1458 -0.2888  0.0572
24512SOL    HW175543  11.093  10.760   7.357 -0.1260 -1.2898  1.4565
24512SOL    HW275544  11.187  10.698   7.255 -0.3078  1.1930 -0.3243
24513SOL     OW75545   1.402   3.904   3.049  0.5883  0.6394  0.2045
24513SOL    HW175546   1.486   3.950   3.047  2.2738 -2.1723 -0.8923
24513SOL    HW275547   1.358   3.930   2.967  0.2308  2.2766  0.8764
24514SOL     OW75548   1.304   2.916   0.325  0.0896  0.1939 -0.2264
24514SOL    HW175549   1.253   2.963   0.392  0.9624  0.7761  0.0472
24514SOL    HW275550   1.318   2.981   0.256 -1.5648 -0.6511 -1.4396
24515SOL     OW75551   6.925  10.419   6.108 -0.4292 -0.1231 -0.5103
24515SOL    HW175552   6.895  10.475   6.179  0.1989 -2.0115  1.3615
24515SOL    HW275553   6.894  10.331   6.132  3.4940 -1.6190 -0.1709
24516SOL     OW75554   8.841   2.544   2.842 -0.8093 -0.3132 -0.0461
24516SOL    HW175555   8.842   2.466   2.786  0.4693 -0.7354  0.5515
24516SOL    HW275556   8.758   2.587   2.820 -1.2580 -1.5187 -0.8156
24517SOL     OW75557   3.852   2.695   8.647 -0.0378 -0.2903 -0.0262
24517SOL    HW175558   3.809   2.643   8.579  0.1922  0.4425 -0.7458
24517SOL    HW275559   3.940   2.711   8.612 -0.3627  1.2813 -0.2055
24518SOL     OW75560   9.071   0.103  11.060  0.0817  0.4607 -0.1752
24518SOL    HW175561   9.010   0.164  11.018 -0.4631 -0.0414 -0.1394
24518SOL    HW275562   9.021   0.021  11.066  0.2840  0.4184  1.0999
24519SOL     OW75563   5.327   3.515   8.039 -0.0458  0.2858 -0.1918
24519SOL    HW175564   5.416   3.542   8.019 -0.7593  3.1771  0.1047
24519SOL    HW275565   5.273   3.555   7.971 -1.2947  0.2890  0.7539
24520SOL     OW75566   7.715   1.261   1.838 -0.5913  0.7305 -0.3977
24520SOL    HW175567   7.640   1.210   1.806  0.4346 -0.6962 -0.6476
24520SOL    HW275568   7.739   1.317   1.764  0.0665 -0.5689 -1.2020
24521SOL     OW75569   3.188   1.359  10.598  0.3634 -0.2944  0.2942
24521SOL    HW175570   3.223   1.437  10.642  0.9921  1.1356 -2.5028
24521SOL    HW275571   3.231   1.359  10.512 -2.4045 -1.6362 -1.2092
24522SOL     OW75572   8.304   9.654   3.845 -0.2661 -0.5760 -0.4155
24522SOL    HW175573   8.334   9.568   3.874  1.8691 -0.0935 -0.9874
24522SOL    HW275574   8.379   9.712   3.861 -1.6614  1.2135  0.0213
24523SOL     OW75575   0.250   3.368   6.805 -0.0856 -0.7368  0.0627
24523SOL    HW175576   0.293   3.310   6.743 -0.0392 -3.0819  2.1092
24523SOL    HW275577   0.159   3.372   6.775 -0.9041 -4.5083  1.3846
24524SOL     OW75578   3.581   1.507  10.720 -0.0620  0.1483 -0.4148
24524SOL    HW175579   3.627   1.568  10.662  1.7398 -0.3903  0.3829
24524SOL    HW275580   3.516   1.561  10.765  1.5085  1.5281  0.3050
24525SOL     OW75581   6.271   0.861   9.602  0.3372  0.0096 -0.2446
24525SOL    HW175582   6.287   0.800   9.530 -1.5753 -0.1633 -0.5679
24525SOL    HW275583   6.235   0.939   9.561 -2.8793 -0.8839  0.5789
24526SOL     OW75584  10.105   7.856   7.052  0.1327  0.2006  0.1239
24526SOL    HW175585  10.142   7.905   6.979  0.9661 -0.2493  0.2423
24526SOL    HW275586  10.180   7.819   7.098 -0.3763  0.4508  1.2049
24527SOL     OW75587   2.768   4.580   3.170  0.5006  0.6440 -0.7193
24527SOL    HW175588   2.848   4.569   3.119  0.4743  1.0691 -0.8541
24527SOL    HW275589   2.794   4.636   3.243  0.4908  0.2020 -0.3729
24528SOL     OW75590   6.582   2.188   4.508 -0.5087  0.0450 -0.2396
24528SOL    HW175591   6.550   2.164   4.595 -3.7930 -1.9069 -1.7873
24528SOL    HW275592   6.613   2.106   4.470 -0.3924  0.5852 -1.3557
24529SOL     OW75593   4.376   6.180   3.564  0.0018  0.1613 -0.5547
24529SOL    HW175594   4.348   6.238   3.635  0.0320 -0.4188 -0.0585
24529SOL    HW275595   4.320   6.203   3.490 -0.5954  0.2132 -0.0917
24530SOL     OW75596   9.732   0.415  10.030  0.3232  0.4710 -0.5152
24530SOL    HW175597   9.767   0.471   9.961  1.4766 -0.5261 -0.7459
24530SOL    HW275598   9.759   0.459  10.111  0.4478  0.7185 -0.6873
24531SOL     OW75599   7.168   1.882   0.798  0.2884 -0.1653 -0.8683
24531SOL    HW175600   7.233   1.886   0.728  0.2592  0.6703 -0.8506
24531SOL    HW275601   7.113   1.806   0.776  0.0135  0.3439 -1.9666
24532SOL     OW75602   3.638   5.940   9.301 -0.3832  0.3589 -0.4239
24532SOL    HW175603   3.733   5.953   9.298 -0.3598  0.1370 -0.7440
24532SOL    HW275604   3.601   6.028   9.298 -0.1988  0.4221 -0.8613
24533SOL     OW75605   1.443   8.958   7.130  0.2297  0.6356  0.2028
24533SOL    HW175606   1.526   8.954   7.177 -0.2369 -0.8647  0.9764
24533SOL    HW275607   1.418   8.866   7.117 -1.1583  1.0474 -0.2747
24534SOL     OW75608   2.453   0.494  11.057 -0.7826 -0.1168  0.9412
24534SOL    HW175609   2.473   0.458  10.971  2.4036 -0.2233  1.5932
24534SOL    HW275610   2.377   0.550  11.043 -0.6495 -0.5059 -1.8441
24535SOL     OW75611   1.373   9.678   0.373 -0.5361 -0.0162  0.4145
24535SOL    HW175612   1.305   9.651   0.435 -3.2234  1.5825 -1.5826
24535SOL    HW275613   1.367   9.774   0.372 -0.3264  0.0360 -1.9333
24536SOL     OW75614   5.416   1.966   2.073 -0.0970 -0.1994 -0.0152
24536SOL    HW175615   5.493   1.952   2.129 -1.3239 -2.2136  1.3059
24536SOL    HW275616   5.412   2.060   2.060  3.2283 -0.0910 -1.1166
24537SOL     OW75617   5.688  10.158   7.922  0.0475  0.3857  0.2156
24537SOL    HW175618   5.713  10.085   7.865 -1.6937 -0.0603 -0.0328
24537SOL    HW275619   5.768  10.179   7.970  1.6027  0.7504 -2.3196
24538SOL     OW75620   7.719   7.735   4.507 -0.7145 -0.6910 -0.6143
24538SOL    HW175621   7.698   7.826   4.488  0.0230 -0.0174  1.4376
24538SOL    HW275622   7.671   7.685   4.442  0.5725  1.2180 -3.2140
24539SOL     OW75623   8.237   2.213   7.601 -0.6876  0.3818  1.0245
24539SOL    HW175624   8.249   2.122   7.573 -0.9831  0.2708  1.2490
24539SOL    HW275625   8.143   2.220   7.619 -0.6592  0.7229  1.0351
24540SOL     OW75626   8.462   2.637   3.393  0.7570 -0.2583  0.9508
24540SOL    HW175627   8.539   2.653   3.337  0.4001 -1.2272  0.1539
24540SOL    HW275628   8.461   2.542   3.406 -2.1433 -0.7778 -1.8474
24541SOL     OW75629   1.998   3.695   9.446  0.1081 -0.3669  0.3592
24541SOL    HW175630   1.977   3.788   9.456  0.6901 -0.1678 -0.1336
24541SOL    HW275631   2.077   3.695   9.391  1.9036 -1.0110  2.7787
24542SOL     OW75632   7.397   8.651   6.972 -0.2778 -0.1836 -0.3204
24542SOL    HW175633   7.346   8.597   6.912  2.6176 -0.6739 -2.5538
24542SOL    HW275634   7.440   8.715   6.916  1.2931  0.3988  1.4478
24543SOL     OW75635   6.351   7.169   8.827  0.5900 -0.5156 -1.0570
24543SOL    HW175636   6.311   7.118   8.756 -1.5524 -0.9832  0.3971
24543SOL    HW275637   6.435   7.125   8.844 -0.0959 -2.0744 -1.4930
24544SOL     OW75638   6.914   5.178   6.678 -0.1376  0.1139 -0.0423
24544SOL    HW175639   6.877   5.261   6.706  1.1776  0.7871 -0.2037
24544SOL    HW275640   7.000   5.174   6.721  0.7270 -0.1462 -1.6933
24545SOL     OW75641   8.323   4.537   7.415  0.2893  0.0816 -0.5785
24545SOL    HW175642   8.245   4.525   7.361  1.8400  0.2685 -3.0526
24545SOL    HW275643   8.370   4.454   7.409  0.5806  0.1649  0.3693
24546SOL     OW75644  10.897   3.442   7.895  0.2806  0.1401  0.7032
24546SOL    HW175645  10.840   3.480   7.828  1.9759  0.4550 -0.6345
24546SOL    HW275646  10.895   3.348   7.878 -1.1900 -0.0728  1.8152
24547SOL     OW75647   3.917   4.081   6.822 -0.9226 -0.3582  0.8419
24547SOL    HW175648   3.828   4.062   6.851 -0.3741 -1.1193  2.1436
24547SOL    HW275649   3.941   4.160   6.871 -0.6172 -0.6119  1.1094
24548SOL     OW75650   5.333   2.071   9.406  0.5710  0.2492 -0.1574
24548SOL    HW175651   5.423   2.080   9.438  1.3172  0.5651 -2.1401
24548SOL    HW275652   5.340   2.090   9.312 -1.8273  1.7895 -0.1063
24549SOL     OW75653   3.196   3.173  10.819 -0.0786  0.2454  0.7224
24549SOL    HW175654   3.132   3.227  10.866 -0.2608 -1.2971  2.3403
24549SOL    HW275655   3.189   3.203  10.728 -1.0581  2.0539  1.3296
24550SOL     OW75656   8.497   7.704   7.329 -0.3055 -0.3244 -0.3042
24550SOL    HW175657   8.451   7.648   7.391  0.2239  0.8897  1.2563
24550SOL    HW275658   8.490   7.792   7.366  2.1460  0.0990 -0.6513
24551SOL     OW75659   3.938   1.497   3.748 -0.8909 -0.2133  0.8170
24551SOL    HW175660   4.018   1.472   3.793 -0.3200 -1.2081 -0.6834
24551SOL    HW275661   3.876   1.516   3.819  0.4182 -0.1809  2.0030
24552SOL     OW75662   7.427   5.289   7.684  0.5500  0.4995 -0.0844
24552SOL    HW175663   7.512   5.262   7.650  0.9518 -0.2403  1.4218
24552SOL    HW275664   7.393   5.212   7.729 -0.4754  1.0776  0.1664
24553SOL     OW75665   0.154   6.179   0.191 -0.0558 -0.3630 -0.2789
24553SOL    HW175666   0.165   6.217   0.103  0.1589  1.4241  0.4692
24553SOL    HW275667   0.148   6.255   0.249 -0.5715 -1.5058  1.2248
24554SOL     OW75668   8.255   4.678   2.250 -0.1775  0.0807  0.2641
24554SOL    HW175669   8.270   4.586   2.228 -0.8631  0.4550 -2.0340
24554SOL    HW275670   8.216   4.715   2.171 -1.3833  1.9969  1.6736
24555SOL     OW75671   1.346  10.420   2.938  0.2743  0.0714 -0.0751
24555SOL    HW175672   1.430  10.374   2.940  0.5090  0.2694 -2.2806
24555SOL    HW275673   1.281  10.350   2.940  0.5958 -0.3160 -1.6558
24556SOL     OW75674   7.770   4.751   2.388 -0.1946  0.0814  0.3633
24556SOL    HW175675   7.865   4.744   2.375 -0.2290 -1.4331  0.7031
24556SOL    HW275676   7.745   4.665   2.421 -1.6321  0.6060  0.6789
24557SOL     OW75677   5.529   4.909   1.890 -0.7791 -0.4595  0.2308
24557SOL    HW175678   5.602   4.965   1.918 -2.1787  0.5475  2.0557
24557SOL    HW275679   5.489   4.956   1.817 -1.2645  0.3868  1.0294
24558SOL     OW75680   6.954   5.949   9.119  0.6166 -0.3754 -0.2041
24558SOL    HW175681   6.975   5.959   9.027  0.9200 -1.7870 -0.3030
24558SOL    HW275682   7.031   5.981   9.166  1.8080 -2.5904 -0.5195
24559SOL     OW75683   8.723  11.270   0.450 -0.0611 -0.0061  0.4757
24559SOL    HW175684   8.792  11.286   0.514 -0.5611  1.7595  0.6436
24559SOL    HW275685   8.717  11.352   0.401 -0.2189 -1.0483 -1.3368
24560SOL     OW75686   0.104   5.114   9.011  0.0679 -0.0471  0.1006
24560SOL    HW175687   0.198   5.095   9.013 -0.0991 -0.9463 -0.0953
24560SOL    HW275688   0.067   5.047   8.954 -0.5477  1.0379 -0.8011
24561SOL     OW75689   3.191   7.165   5.262  0.0228 -0.0914  0.6150
24561SOL    HW175690   3.226   7.143   5.176 -0.8188  2.2879 -0.3963
24561SOL    HW275691   3.103   7.197   5.245  0.0898  1.0772  2.2797
24562SOL     OW75692   9.053   4.562   6.316  0.1816 -0.0002 -0.5124
24562SOL    HW175693   9.085   4.495   6.255  2.1956 -0.1925  0.6671
24562SOL    HW275694   9.112   4.636   6.304  0.3472  0.1214  0.8719
24563SOL     OW75695   0.661   4.513   0.146 -0.3122 -0.4932 -0.2475
24563SOL    HW175696   0.661   4.560   0.229  1.2059  0.4200 -0.7199
24563SOL    HW275697   0.691   4.425   0.168 -0.3397 -0.3813  0.2417
24564SOL     OW75698  10.706   1.533   2.860 -1.1540  0.7161  0.0397
24564SOL    HW175699  10.742   1.444   2.866 -2.5051 -0.0238 -1.9495
24564SOL    HW275700  10.613   1.521   2.842 -1.7818  2.5870  1.6570
24565SOL     OW75701   4.084   4.662  10.214  0.4060  0.3903  0.2131
24565SOL    HW175702   4.040   4.720  10.276  0.7980 -0.5539  1.3939
24565SOL    HW275703   4.105   4.719  10.139  0.0155  1.5655  0.9733
24566SOL     OW75704   9.519  11.156   2.145  1.0514 -0.2428  0.1747
24566SOL    HW175705   9.493  11.167   2.237  0.2791  0.5376 -0.1254
24566SOL    HW275706   9.515  11.062   2.130  1.1702 -0.3734  0.9338
24567SOL     OW75707   1.857   1.256   0.342 -0.4851 -0.5549  0.2388
24567SOL    HW175708   1.774   1.257   0.295 -1.5091  2.3545  1.9108
24567SOL    HW275709   1.923   1.266   0.274 -1.3973 -2.7726 -1.1055
24568SOL     OW75710   8.329   1.969  11.264  0.8984  0.3804  0.5393
24568SOL    HW175711   8.241   1.992  11.236  1.4013  1.6539 -0.0664
24568SOL    HW275712   8.374   1.941  11.184  0.7835 -1.2255  1.0016
24569SOL     OW75713   3.366  10.569   9.853 -0.6111  0.1983 -0.5400
24569SOL    HW175714   3.447  10.524   9.880 -0.6629 -0.3104 -1.2090
24569SOL    HW275715   3.327  10.599   9.935  0.0570  0.1050 -0.1772
24570SOL     OW75716   3.777   3.714   3.361 -0.2257 -0.5074  0.5498
24570SOL    HW175717   3.788   3.628   3.321 -0.6295  0.5554 -2.0366
24570SOL    HW275718   3.693   3.710   3.407 -0.2983 -1.4317  0.3407
24571SOL     OW75719  10.721   6.437  10.280 -0.0354  0.0139 -0.1653
24571SOL    HW175720  10.730   6.408  10.371 -0.2164  0.8509  0.1242
24571SOL    HW275721  10.784   6.384  10.232 -0.5578 -1.0698  0.3028
24572SOL     OW75722   0.633  10.716   3.486 -0.0735 -0.1636 -0.5376
24572SOL    HW175723   0.556  10.678   3.529  1.0696 -1.4488  0.4543
24572SOL    HW275724   0.623  10.811   3.499 -0.0465 -0.4455  2.2457
24573SOL     OW75725   5.114   1.610   0.748  0.0355  0.7388 -0.6247
24573SOL    HW175726   5.104   1.648   0.661  1.8392  0.7236 -0.8774
24573SOL    HW275727   5.167   1.673   0.796 -0.7402  0.6332  0.3912
24574SOL     OW75728  10.254   0.811   9.315  0.6582 -0.1801 -0.2911
24574SOL    HW175729  10.260   0.870   9.390  2.1880 -1.4639  0.6520
24574SOL    HW275730  10.296   0.858   9.243 -0.1879  0.7763 -0.1783
24575SOL     OW75731   4.358   3.873  10.282  0.2891  0.3330 -0.6083
24575SOL    HW175732   4.428   3.847  10.221  1.3155  0.7825  0.3360
24575SOL    HW275733   4.360   3.968  10.281  0.0500  0.3454 -0.1715
24576SOL     OW75734   3.200   3.848   0.546 -0.3748 -0.1700 -0.5895
24576SOL    HW175735   3.126   3.900   0.516 -1.2475 -0.9155  0.2385
24576SOL    HW275736   3.162   3.780   0.601  0.6362 -2.0922 -2.1098
24577SOL     OW75737   1.769   3.282   6.902  0.6032 -0.2158  0.8638
24577SOL    HW175738   1.768   3.266   6.808 -0.2832 -1.7241  1.0874
24577SOL    HW275739   1.803   3.201   6.939 -0.9642 -0.4415  1.9281
24578SOL     OW75740   3.528   9.091   6.563  0.0630  0.0131 -0.3615
24578SOL    HW175741   3.514   8.997   6.558 -1.9194  0.2469  0.0444
24578SOL    HW275742   3.510   9.113   6.655  0.2553  0.8181 -0.5100
24579SOL     OW75743   2.002   0.936   7.690 -0.6618 -0.2388  0.7903
24579SOL    HW175744   2.096   0.927   7.677 -1.1076 -0.6989 -3.8375
24579SOL    HW275745   1.982   1.023   7.657 -2.0381 -0.8211  0.0180
24580SOL     OW75746   8.981   9.782   6.927  0.4920 -0.3975 -0.0583
24580SOL    HW175747   9.038   9.831   6.867  1.6772  1.9823  2.7166
24580SOL    HW275748   8.909   9.841   6.945 -1.7657 -2.4606 -1.6589
24581SOL     OW75749   9.951   0.819   8.693  0.4848  0.1548 -0.1998
24581SOL    HW175750  10.015   0.748   8.700 -0.2376 -0.5735 -0.7925
24581SOL    HW275751   9.883   0.784   8.636 -0.6176  0.7874  0.6866
24582SOL     OW75752   6.781   8.646   3.312 -0.4367 -0.3866 -0.2640
24582SOL    HW175753   6.830   8.565   3.328 -1.2968 -1.2620 -1.8643
24582SOL    HW275754   6.709   8.643   3.375 -0.5150 -0.9074 -0.3757
24583SOL     OW75755   8.081   1.167   2.312  0.0203 -0.2210 -0.4214
24583SOL    HW175756   8.040   1.094   2.265  0.3170  0.0320 -1.0894
24583SOL    HW275757   8.151   1.126   2.363 -0.8777 -0.6182  0.5131
24584SOL     OW75758   7.121   5.889   4.695  0.1189  0.2172  0.2379
24584SOL    HW175759   7.052   5.855   4.638  1.1989 -0.0853 -0.9437
24584SOL    HW275760   7.158   5.962   4.646 -1.4796  2.5457  2.2836
24585SOL     OW75761   7.555   9.363   3.862  0.1156  0.2222 -0.0767
24585SOL    HW175762   7.594   9.449   3.845  1.6688 -0.4915 -0.3544
24585SOL    HW275763   7.529   9.366   3.954  1.4198  0.5570  0.3141
24586SOL     OW75764   3.738   9.925   8.533  0.4604 -0.2157  0.4906
24586SOL    HW175765   3.661   9.868   8.540  0.0176  0.2896 -0.1596
24586SOL    HW275766   3.812   9.865   8.538  0.1777 -0.5025  3.9775
24587SOL     OW75767   1.716  10.686   1.143 -0.1806  0.3460  0.0287
24587SOL    HW175768   1.709  10.622   1.073 -1.6225  2.4155 -1.8584
24587SOL    HW275769   1.768  10.758   1.106 -1.5764  1.7999  0.7549
24588SOL     OW75770   2.355   6.217  10.069  0.3048 -0.4294  0.1098
24588SOL    HW175771   2.305   6.241   9.990 -4.5275 -0.0290  2.8915
24588SOL    HW275772   2.402   6.296  10.093  0.7212 -0.1333 -1.5134
24589SOL     OW75773  10.602   5.292   6.668 -0.1056  0.0127 -0.2729
24589SOL    HW175774  10.675   5.333   6.713 -0.5207  1.3755 -0.7647
24589SOL    HW275775  10.628   5.201   6.656  1.8882  0.6584 -1.2103
24590SOL     OW75776   8.198   1.589   1.942 -0.4120  0.0251 -0.3450
24590SOL    HW175777   8.215   1.609   1.850 -2.1275  0.2654 -0.6319
24590SOL    HW275778   8.152   1.666   1.975 -1.0403 -0.6395  0.3502
24591SOL     OW75779   9.483   9.600   0.866 -0.8389 -0.4245  0.4568
24591SOL    HW175780   9.527   9.526   0.824 -0.3392  0.3442 -0.4059
24591SOL    HW275781   9.554   9.649   0.908 -1.2179 -0.6518  1.3966
24592SOL     OW75782  10.582   7.561   8.491  0.2319 -0.4479  0.8489
24592SOL    HW175783  10.662   7.564   8.439 -0.4189 -2.0012 -0.3262
24592SOL    HW275784  10.525   7.628   8.453  0.6532  0.0811  1.1439
24593SOL     OW75785   7.852   4.043   6.348 -0.2016  0.0364 -0.4336
24593SOL    HW175786   7.937   4.087   6.344 -1.4461  2.6163 -3.0591
24593SOL    HW275787   7.802   4.093   6.412 -0.6017  0.4036 -1.0182
24594SOL     OW75788   9.133   1.153   7.224 -0.6259  0.5167  0.5953
24594SOL    HW175789   9.107   1.166   7.133  0.5488  0.4948  0.2370
24594SOL    HW275790   9.107   1.063   7.244  2.2430 -0.8011 -0.9107
24595SOL     OW75791   5.026   9.726   6.515 -0.2821 -0.1938 -0.0922
24595SOL    HW175792   5.046   9.785   6.442 -0.7225  1.1138  0.8148
24595SOL    HW275793   5.110   9.715   6.560 -0.0852 -0.7109 -0.5807
24596SOL     OW75794   6.472   2.536   3.527  0.2100  0.1066 -0.7891
24596SOL    HW175795   6.473   2.631   3.541 -0.6562  0.3077 -1.8854
24596SOL    HW275796   6.382   2.510   3.548  1.0383 -0.8957  1.8040
24597SOL     OW75797   3.810   4.500   6.902  0.3991  0.7530 -0.4622
24597SOL    HW175798   3.716   4.495   6.883  0.3899  0.4695 -0.3431
24597SOL    HW275799   3.851   4.493   6.816  0.4043 -1.8186 -0.3468
24598SOL     OW75800   6.651   6.394   0.640 -0.4676  0.4034 -0.2750
24598SOL    HW175801   6.594   6.357   0.571 -0.5200 -1.7066  0.8400
24598SOL    HW275802   6.591   6.414   0.712  0.0277 -0.8408  0.5104
24599SOL     OW75803   8.377   1.810   9.643 -0.4195 -0.2112  0.4641
24599SOL    HW175804   8.352   1.902   9.649 -1.4618 -0.1775 -2.4668
24599SOL    HW275805   8.370   1.777   9.732 -3.1512  1.8113  1.1535
24600SOL     OW75806   3.667   5.983   0.967  0.0466 -0.3564 -0.6276
24600SOL    HW175807   3.750   5.954   1.004  0.1455  0.9397  0.2419
24600SOL    HW275808   3.613   5.905   0.966  1.0255 -1.0547 -0.4893
24601SOL     OW75809   3.615   4.699  10.854 -0.6627  0.4108 -0.1574
24601SOL    HW175810   3.585   4.768  10.795 -1.2938  0.4007  0.1474
24601SOL    HW275811   3.705   4.723  10.876 -0.2315  0.1579 -1.5174
24602SOL     OW75812   7.650   9.311   5.900  0.2960 -0.0979 -0.1986
24602SOL    HW175813   7.709   9.289   5.828  0.6311  1.7994 -0.5553
24602SOL    HW275814   7.647   9.231   5.953  2.8897 -0.4207 -0.3784
24603SOL     OW75815  11.117   1.678   7.215 -0.1604  0.0733 -0.5951
24603SOL    HW175816  11.150   1.729   7.141  0.5873  0.1887 -0.1881
24603SOL    HW275817  11.139   1.587   7.194 -1.7257 -0.1513 -1.4466
24604SOL     OW75818  10.059   9.024   3.705  0.4750 -0.1769  0.1921
24604SOL    HW175819  10.007   9.081   3.649  0.7109 -0.5707 -0.4373
24604SOL    HW275820  10.002   9.004   3.780 -0.8439 -1.7755 -1.1700
24605SOL     OW75821   1.151   3.325   2.243 -0.1508  0.3081 -0.7331
24605SOL    HW175822   1.104   3.407   2.262 -3.8011 -1.4743 -1.2771
24605SOL    HW275823   1.173   3.290   2.329 -0.4825  0.8316 -0.4264
24606SOL     OW75824   6.895   3.949   7.830  0.2763  0.0096 -0.2982
24606SOL    HW175825   6.913   4.015   7.897  2.7333 -0.4262 -0.4608
24606SOL    HW275826   6.843   3.996   7.764  0.2599  1.2229  0.5430
24607SOL     OW75827   3.797   8.007   5.570 -0.2016 -0.1960 -0.0866
24607SOL    HW175828   3.817   8.094   5.535  1.4323  0.1822  1.5971
24607SOL    HW275829   3.757   7.961   5.497 -0.3708  1.7029 -1.2786
24608SOL     OW75830   1.201   3.092   7.018  0.6202 -0.1327  0.3716
24608SOL    HW175831   1.177   3.152   7.088 -1.3568  1.1408 -1.2574
24608SOL    HW275832   1.142   3.017   7.029 -0.5686  0.6125 -0.5349
24609SOL     OW75833   5.238   2.897   4.327  0.0146 -0.0111  0.1848
24609SOL    HW175834   5.145   2.877   4.335 -0.5532  0.2351 -3.6375
24609SOL    HW275835   5.280   2.850   4.399 -2.8772 -1.7313  0.8851
24610SOL     OW75836   0.633   4.805   8.131  0.0673 -0.2977  0.0832
24610SOL    HW175837   0.641   4.893   8.094 -1.1682  0.3956  1.3390
24610SOL    HW275838   0.632   4.747   8.055  1.4414  0.7025 -0.7447
24611SOL     OW75839   7.703   7.183   6.686  0.0359 -0.4771 -0.5505
24611SOL    HW175840   7.715   7.096   6.724  1.3736 -0.8131 -1.6530
24611SOL    HW275841   7.771   7.237   6.728 -0.6766  0.0131  0.0010
24612SOL     OW75842   2.037   5.413   4.709  0.8150 -0.6937 -0.0064
24612SOL    HW175843   1.988   5.489   4.678  0.4314 -1.1706 -0.5819
24612SOL    HW275844   2.073   5.373   4.630 -1.7860 -3.0483 -0.1298
24613SOL     OW75845   3.393   1.321  10.383 -0.3359  0.0898 -0.2514
24613SOL    HW175846   3.462   1.260  10.409 -0.1143  0.7296  0.7109
24613SOL    HW275847   3.436   1.380  10.321  0.1262  0.7639  0.6845
24614SOL     OW75848   6.126   3.928   2.322  0.4001  0.8015 -0.4760
24614SOL    HW175849   6.121   3.965   2.234 -2.0341 -1.8914 -1.6112
24614SOL    HW275850   6.210   3.881   2.323  0.9147  1.6851 -0.9840
24615SOL     OW75851  10.636   2.474   7.184 -0.1174 -0.2302  0.0471
24615SOL    HW175852  10.681   2.390   7.169  3.3962  1.3442  0.6150
24615SOL    HW275853  10.623   2.510   7.096  1.2786 -0.0846 -0.1373
24616SOL     OW75854   4.934   9.216   5.822  0.6296  0.7398 -0.0001
24616SOL    HW175855   4.998   9.258   5.765  1.4903  2.0827  1.8718
24616SOL    HW275856   4.852   9.218   5.772  1.6876  0.3500 -1.8141
24617SOL     OW75857   5.203   7.262   8.926 -0.0936  0.8232 -0.2450
24617SOL    HW175858   5.120   7.216   8.929  0.8188 -0.8665  0.0755
24617SOL    HW275859   5.268   7.194   8.910  1.4085  1.8887  1.0324
24618SOL     OW75860   9.237   9.732   9.889  0.2878 -0.1829  0.2960
24618SOL    HW175861   9.216   9.825   9.876  0.8454 -0.1646 -0.5541
24618SOL    HW275862   9.191   9.687   9.817 -3.1162 -1.0668  2.7581
24619SOL     OW75863   1.836   6.130   6.051 -0.1517 -0.1755 -0.3299
24619SOL    HW175864   1.845   6.035   6.061 -0.1469 -0.1151  0.2688
24619SOL    HW275865   1.842   6.144   5.957  1.5276 -0.6067 -0.3276
24620SOL     OW75866   8.684   4.405   1.731  0.0878 -0.1609  0.0197
24620SOL    HW175867   8.745   4.466   1.689 -1.0764  0.0462 -1.4700
24620SOL    HW275868   8.685   4.328   1.675 -0.6335 -0.3471  0.2493
24621SOL     OW75869   0.311  10.482   8.929  0.3952 -0.2686  0.0721
24621SOL    HW175870   0.369  10.432   8.871  0.1130 -0.4941 -0.0204
24621SOL    HW275871   0.235  10.424   8.942  0.0424  0.1542 -0.0743
24622SOL     OW75872   6.985   3.000   6.389  0.1541 -0.0057 -0.1531
24622SOL    HW175873   7.037   2.960   6.459  0.7707  0.6382 -0.2354
24622SOL    HW275874   6.964   2.928   6.330  0.2209 -0.4261  0.3287
24623SOL     OW75875   1.299   9.396  10.666 -0.2229 -0.9380 -0.3106
24623SOL    HW175876   1.299   9.407  10.761  0.3349 -0.7610 -0.3274
24623SOL    HW275877   1.370   9.334  10.649  1.5462  1.1050 -0.8232
24624SOL     OW75878   6.541   1.826   9.075  0.3116 -0.7094 -0.4457
24624SOL    HW175879   6.538   1.735   9.106 -1.4699 -1.4121 -2.4221
24624SOL    HW275880   6.610   1.826   9.009  0.3356 -0.6339 -0.4203
24625SOL     OW75881   4.136   9.662   2.574  0.3974  0.0008  0.1647
24625SOL    HW175882   4.081   9.584   2.563 -0.3360  0.6246 -0.7739
24625SOL    HW275883   4.140   9.676   2.668 -1.5839  0.2867  0.2446
24626SOL     OW75884   9.516   2.744   6.702 -0.3962  0.5554  0.4475
24626SOL    HW175885   9.538   2.667   6.755  0.2094  0.9799  0.8309
24626SOL    HW275886   9.519   2.817   6.764 -1.3745  0.8438  0.1741
24627SOL     OW75887   0.223   7.607   7.312  0.0586 -0.1002  0.1294
24627SOL    HW175888   0.210   7.690   7.358 -0.0335 -1.0257  1.8315
24627SOL    HW275889   0.246   7.633   7.223 -0.6505  1.7401  0.4338
24628SOL     OW75890   6.665   0.194   3.448 -0.4630 -1.0918 -0.3082
24628SOL    HW175891   6.728   0.213   3.378  0.1362 -0.5765  0.3618
24628SOL    HW275892   6.635   0.280   3.477 -0.2551 -1.2817  0.4804
24629SOL     OW75893   8.872   2.544   9.508  0.0270 -1.0054 -1.0288
24629SOL    HW175894   8.843   2.510   9.424 -0.4270  1.2372 -1.8379
24629SOL    HW275895   8.940   2.608   9.487 -0.1575 -0.3290  0.2849
24630SOL     OW75896   4.943  11.134   9.070 -0.5687 -0.2087 -0.6855
24630SOL    HW175897   4.871  11.180   9.025 -1.5856 -1.6566 -0.6111
24630SOL    HW275898   4.900  11.081   9.136  0.7231  0.0164  0.3750
24631SOL     OW75899   4.621   2.946  10.949  0.0525 -0.0997  0.4956
24631SOL    HW175900   4.555   2.948  10.879 -1.9398  2.3850  2.2947
24631SOL    HW275901   4.594   2.874  11.006  1.4908 -1.9085 -0.9529
24632SOL     OW75902   2.258   8.602   0.493  0.6789  0.3635 -0.3677
24632SOL    HW175903   2.185   8.620   0.435 -1.6600  0.0719  2.2648
24632SOL    HW275904   2.254   8.671   0.559  2.0441 -0.3313  0.4946
24633SOL     OW75905   9.822   9.937   2.259 -0.9215 -0.2708 -0.1042
24633SOL    HW175906   9.773   9.965   2.181  0.6966  1.3141 -0.6176
24633SOL    HW275907   9.846  10.019   2.303  0.7070 -1.0168  0.4585
24634SOL     OW75908   6.543   5.087   5.803 -1.1281  0.0978 -0.1892
24634SOL    HW175909   6.578   4.999   5.817 -0.7916  0.3727  0.8004
24634SOL    HW275910   6.577   5.113   5.717 -0.2030 -0.2734  0.0493
24635SOL     OW75911   5.548   3.661   2.477 -0.6087  0.3293  0.1974
24635SOL    HW175912   5.481   3.647   2.545 -1.6270  1.4807 -0.5256
24635SOL    HW275913   5.548   3.755   2.462  0.1275  0.1740 -0.8771
24636SOL     OW75914   0.119  10.173   0.560 -0.6374 -0.3564  0.9665
24636SOL    HW175915   0.108  10.084   0.525  0.8637 -0.0601 -0.3786
24636SOL    HW275916   0.061  10.227   0.507 -0.4326 -0.3227  0.7737
24637SOL     OW75917   7.164   4.286   2.774 -0.1742  0.4225  0.7505
24637SOL    HW175918   7.071   4.292   2.748 -0.3330  1.0015  1.4096
24637SOL    HW275919   7.168   4.212   2.834 -0.8632  2.2101  3.2011
24638SOL     OW75920   7.822   1.446  10.074  0.4329 -0.2828  0.3347
24638SOL    HW175921   7.834   1.510  10.144  0.9471 -1.1096  1.0229
24638SOL    HW275922   7.729   1.449  10.053  0.6169  1.4572 -0.4114
24639SOL     OW75923   7.505   7.489   8.080  0.2970  0.1349 -0.4692
24639SOL    HW175924   7.555   7.419   8.122  2.8452  2.4547  0.7371
24639SOL    HW275925   7.419   7.484   8.120  0.5138 -2.0530 -0.1683
24640SOL     OW75926   0.829  10.246  10.829  0.9417  0.1238 -0.6793
24640SOL    HW175927   0.847  10.294  10.910  0.2261 -0.0765 -0.3961
24640SOL    HW275928   0.896  10.176  10.828  0.9198  0.0924 -0.2329
24641SOL     OW75929   7.484   4.979   0.782  0.2307 -0.1016 -0.1665
24641SOL    HW175930   7.411   4.951   0.726  0.7099 -0.6756 -0.5186
24641SOL    HW275931   7.445   4.993   0.868 -0.4037  0.1748 -0.4954
24642SOL     OW75932   6.414  10.924   6.966 -0.4962 -0.3455  0.0846
24642SOL    HW175933   6.432  11.015   6.942  0.5623 -0.2873  0.9860
24642SOL    HW275934   6.496  10.878   6.950 -0.7697 -0.9736  0.4391
24643SOL     OW75935   2.076   8.804   1.053 -0.4719 -0.2441 -0.0303
24643SOL    HW175936   2.063   8.885   1.101 -0.2584 -0.2853  0.0965
24643SOL    HW275937   2.160   8.770   1.084 -1.2868 -1.3280  1.0925
24644SOL     OW75938   7.168   5.419   6.950  0.2705 -0.2429  0.1090
24644SOL    HW175939   7.113   5.438   6.874  2.5746 -0.8579 -1.8291
24644SOL    HW275940   7.106   5.391   7.017 -1.8011 -0.6457 -1.8213
24645SOL     OW75941   6.866   9.602   5.027  0.0798 -0.1874 -0.0698
24645SOL    HW175942   6.896   9.609   4.937 -1.1135  0.8590 -0.4067
24645SOL    HW275943   6.804   9.674   5.038 -0.6849 -0.9998  1.2315
24646SOL     OW75944   5.990   2.464   1.910 -0.3677 -0.0888 -0.3087
24646SOL    HW175945   5.966   2.489   1.999  0.7657  0.2442 -0.0844
24646SOL    HW275946   5.916   2.410   1.880 -1.0760  0.3563  0.5738
24647SOL     OW75947   0.179  10.489  10.142  0.0655 -0.2325  0.2818
24647SOL    HW175948   0.118  10.446  10.202 -1.7308 -0.5531 -1.6477
24647SOL    HW275949   0.220  10.558  10.195 -3.4653  1.3378  1.2705
24648SOL     OW75950   2.870   7.033   5.285  0.1087  0.1189  0.8845
24648SOL    HW175951   2.835   6.986   5.360 -0.2499  0.0772  0.6937
24648SOL    HW275952   2.914   6.965   5.233 -1.3622 -0.2287  0.0405
24649SOL     OW75953   2.806   4.130   2.974  0.4378 -0.2157  0.1275
24649SOL    HW175954   2.738   4.148   3.039 -0.3946 -0.1276 -0.7254
24649SOL    HW275955   2.758   4.131   2.890  1.4084 -0.6763 -0.4451
24650SOL     OW75956   8.140   4.773   2.005 -0.3041  0.3811  0.7492
24650SOL    HW175957   8.122   4.707   1.938 -1.0755  1.8937 -0.5931
24650SOL    HW275958   8.055   4.809   2.027 -0.0392  0.0464  2.4628
24651SOL     OW75959   9.916   6.469   2.237  0.2594  0.3948 -0.0701
24651SOL    HW175960   9.854   6.399   2.215 -0.6048 -0.1414  3.5211
24651SOL    HW275961   9.981   6.428   2.293  2.7964  1.4359 -2.0548
24652SOL     OW75962   6.854   3.055   2.709  0.5126 -0.0162  0.4536
24652SOL    HW175963   6.842   3.048   2.804  2.7652 -0.1266  0.7639
24652SOL    HW275964   6.897   3.139   2.696 -0.0543  0.1433 -0.5314
24653SOL     OW75965   3.524   7.069   6.002  0.0295  0.2251 -0.0913
24653SOL    HW175966   3.592   7.011   6.036  1.9759  1.5031 -1.5802
24653SOL    HW275967   3.442   7.028   6.029  1.3277 -2.2096  0.4761
24654SOL     OW75968   7.762   3.683   1.810  0.3196  0.2043 -0.5744
24654SOL    HW175969   7.690   3.728   1.767  1.8537  1.7484 -1.6943
24654SOL    HW275970   7.816   3.753   1.847  1.1189 -0.9053  0.4635
24655SOL     OW75971   8.681   2.579   9.081 -0.2494 -0.5613  0.8118
24655SOL    HW175972   8.602   2.594   9.132  0.6092  1.5782  1.6518
24655SOL    HW275973   8.739   2.653   9.104  1.9469 -1.9746  0.1684
24656SOL     OW75974  10.746   5.302   1.812  0.1630 -0.1808 -0.3759
24656SOL    HW175975  10.760   5.324   1.904 -0.7952  2.0812 -0.7048
24656SOL    HW275976  10.823   5.252   1.787  0.6670 -0.4328  1.5128
24657SOL     OW75977   4.946   6.425   3.785 -0.8686  0.9683 -0.6528
24657SOL    HW175978   4.988   6.457   3.865  1.3826  1.7293 -2.0323
24657SOL    HW275979   4.915   6.337   3.807  0.8455  0.6521  0.7002
24658SOL     OW75980   7.172   1.464   5.215 -0.3641  0.0338 -0.0502
24658SOL    HW175981   7.180   1.380   5.262  2.2059  0.3494  0.2448
24658SOL    HW275982   7.122   1.520   5.274 -0.6430 -0.7879  0.5102
24659SOL     OW75983   6.538   3.149   2.615  0.6068  0.5682 -0.6038
24659SOL    HW175984   6.539   3.059   2.647 -0.2206  0.5489 -0.6212
24659SOL    HW275985   6.449   3.163   2.583  0.9744  1.1019 -1.4317
24660SOL     OW75986   5.214   6.885   4.935 -0.5094  1.0249 -0.5523
24660SOL    HW175987   5.169   6.920   5.012 -0.4291 -0.3658  0.1640
24660SOL    HW275988   5.298   6.931   4.933  0.2801 -0.1837  1.3169
24661SOL     OW75989   5.321  11.171  10.094 -0.0937  0.4010 -0.4045
24661SOL    HW175990   5.413  11.156  10.072 -0.0592  1.9940 -1.5065
24661SOL    HW275991   5.316  11.155  10.188  1.8287  2.4351  0.1369
24662SOL     OW75992   2.111   3.662   4.112  0.0413 -0.6528  0.3962
24662SOL    HW175993   2.109   3.758   4.111 -1.9442 -0.5428  3.1940
24662SOL    HW275994   2.187   3.641   4.167 -0.9681 -0.5440  1.8845
24663SOL     OW75995   2.319   3.438   8.686  0.7675 -0.0591  0.5145
24663SOL    HW175996   2.371   3.408   8.611 -0.5378  0.1815 -0.5296
24663SOL    HW275997   2.376   3.424   8.762  2.9160  1.5166 -0.6917
24664SOL     OW75998   2.780   6.770   2.730 -0.2749  0.3723  0.0177
24664SOL    HW175999   2.776   6.704   2.800  0.8624  0.3986  0.1214
24664SOL    HW276000   2.750   6.723   2.652 -0.9790  0.1785  0.3923
24665SOL     OW76001   2.206   3.297   0.278  0.5133  0.5165  0.4958
24665SOL    HW176002   2.293   3.294   0.320  0.1886 -1.4340  1.1174
24665SOL    HW276003   2.184   3.205   0.262 -0.8539  1.0583 -0.9369
24666SOL     OW76004   5.614   9.918   3.215  1.5019 -0.2222  0.1592
24666SOL    HW176005   5.636   9.978   3.143  0.0500  0.6989  0.4325
24666SOL    HW276006   5.641   9.965   3.294 -1.3405  1.0429  0.5242
24667SOL     OW76007   5.680   6.124   3.508 -0.9835  0.3022  0.6325
24667SOL    HW176008   5.604   6.155   3.459 -0.1441  0.1922 -0.7588
24667SOL    HW276009   5.735   6.201   3.519 -0.5674  0.0568  0.2787
24668SOL     OW76010   4.864  10.396   5.241 -0.2006  0.5133 -0.7565
24668SOL    HW176011   4.888  10.304   5.253 -1.2771 -0.1182 -2.9160
24668SOL    HW276012   4.786  10.407   5.295  1.0418  0.7700  1.0826
24669SOL     OW76013   8.230   0.679   9.518 -0.1134 -0.0034 -0.8302
24669SOL    HW176014   8.309   0.637   9.551  0.3004 -0.0426 -1.8156
24669SOL    HW276015   8.242   0.772   9.536 -0.3674 -0.1396  0.0511
24670SOL     OW76016   8.210   1.449   4.057 -0.1529 -0.1291  0.0254
24670SOL    HW176017   8.273   1.400   4.005 -0.1190 -1.2260  1.0654
24670SOL    HW276018   8.153   1.491   3.992  0.3146 -0.8900 -0.9044
24671SOL     OW76019   2.635   1.084   8.707 -0.1038  0.5028 -0.1060
24671SOL    HW176020   2.637   1.180   8.712  0.1827  0.4860  0.1597
24671SOL    HW276021   2.675   1.055   8.789  2.0677  0.1689 -1.2229
24672SOL     OW76022   4.042  10.222   7.382  0.1569 -0.1559  0.4877
24672SOL    HW176023   4.018  10.278   7.308 -1.7456 -0.3266  0.9141
24672SOL    HW276024   4.123  10.179   7.355 -0.9406 -0.9043 -1.8885
24673SOL     OW76025   7.379   8.117   8.331  0.1870 -0.3093 -0.0016
24673SOL    HW176026   7.382   8.211   8.311  0.0927 -0.0908  0.9430
24673SOL    HW276027   7.325   8.079   8.262 -0.9930  0.5617  0.4126
24674SOL     OW76028   1.896   5.502   6.310  0.9723  0.3108  0.0766
24674SOL    HW176029   1.863   5.483   6.398  0.2189  0.9187 -0.0648
24674SOL    HW276030   1.871   5.426   6.258  3.8250 -1.3737  0.9409
24675SOL     OW76031   4.005   1.518   1.106 -0.1550  0.5771 -0.1636
24675SOL    HW176032   4.060   1.572   1.164 -2.6156  1.9971  1.0059
24675SOL    HW276033   3.926   1.501   1.157 -0.1374 -2.9930 -1.0880
24676SOL     OW76034   2.042   1.766   7.708  0.3553 -0.0336  0.1140
24676SOL    HW176035   2.129   1.762   7.748  1.3389 -0.6371 -1.9255
24676SOL    HW276036   2.059   1.761   7.614 -1.9310 -0.5817 -0.3323
24677SOL     OW76037   1.135   5.701   0.615  0.0301 -0.0469 -0.0225
24677SOL    HW176038   1.156   5.688   0.522  0.8335 -0.5121  0.2174
24677SOL    HW276039   1.215   5.677   0.661  0.1558  1.6731  0.7203
24678SOL     OW76040   5.478   8.953   7.229 -0.6125 -0.4127 -0.7956
24678SOL    HW176041   5.537   8.937   7.155  0.9094 -1.7979  0.6411
24678SOL    HW276042   5.536   8.967   7.304 -2.1121  0.5062  0.2616
24679SOL     OW76043   4.213   8.254   7.313 -0.5391  0.2587 -0.1932
24679SOL    HW176044   4.289   8.199   7.334  0.3814  1.3390 -0.5916
24679SOL    HW276045   4.225   8.277   7.221 -0.3710  1.9099  0.2148
24680SOL     OW76046   8.624   9.763   5.408 -0.7075  0.7489 -0.0258
24680SOL    HW176047   8.645   9.854   5.432  0.3219  0.8771 -1.3420
24680SOL    HW276048   8.530   9.755   5.426 -0.7922  2.0485  0.1966
24681SOL     OW76049   1.179   0.919  11.175 -1.1104  0.6204  0.7488
24681SOL    HW176050   1.241   0.954  11.111 -0.3650 -0.5265  0.8179
24681SOL    HW276051   1.186   0.977  11.250 -1.6991  1.7457 -0.0346
24682SOL     OW76052   4.350   0.284   3.002 -0.7060  0.0899  0.3590
24682SOL    HW176053   4.386   0.351   3.060 -1.2968  1.4928 -0.8570
24682SOL    HW276054   4.266   0.318   2.974 -0.7776 -0.9156 -0.7206
24683SOL     OW76055   6.752   8.258   4.675  0.0468  0.0332 -0.4392
24683SOL    HW176056   6.769   8.298   4.760  0.3115  0.7563 -0.8169
24683SOL    HW276057   6.748   8.164   4.692  0.3939  0.1514  0.3178
24684SOL     OW76058   3.282   0.662   2.409  0.6651  0.1850  0.3175
24684SOL    HW176059   3.305   0.655   2.502  0.5924  0.7370  0.3817
24684SOL    HW276060   3.345   0.606   2.364 -0.2561 -1.2990  0.8306
24685SOL     OW76061   0.929   6.989   3.175  0.4425 -0.5659 -0.5256
24685SOL    HW176062   0.942   7.075   3.136  1.4757 -0.2627  0.4354
24685SOL    HW276063   1.017   6.951   3.179  0.1139 -1.3213 -0.1517
24686SOL     OW76064   1.979   9.698  10.784 -0.9913  1.0238 -0.1815
24686SOL    HW176065   1.956   9.682  10.692 -0.9575  4.3992 -0.9082
24686SOL    HW276066   2.068   9.664  10.792 -0.5002  1.7963 -1.8031
24687SOL     OW76067   6.542  10.086   5.001 -0.0094  0.5550 -0.0590
24687SOL    HW176068   6.602  10.160   5.017 -0.8274  1.1374  0.4350
24687SOL    HW276069   6.556  10.063   4.910  2.1252 -0.3913  0.4459
24688SOL     OW76070  11.185   8.015   8.472 -0.0381 -0.1089  0.6634
24688SOL    HW176071  11.263   8.047   8.518 -0.8054  0.3318  1.6738
24688SOL    HW276072  11.207   8.024   8.379  1.3290 -0.5215  0.9210
24689SOL     OW76073   9.388   3.422   3.045 -0.4258 -0.4237 -1.0273
24689SOL    HW176074   9.374   3.465   3.129 -1.3774  0.6849 -1.7048
24689SOL    HW276075   9.400   3.330   3.066 -0.1841 -0.0980  0.3482
24690SOL     OW76076   1.462   9.925   1.480  0.6462  0.1092  0.2811
24690SOL    HW176077   1.537   9.900   1.426 -0.8184  0.6902 -2.1979
24690SOL    HW276078   1.418   9.842   1.499  1.2689 -0.1189  0.7669
24691SOL     OW76079   0.441   4.750   9.276 -0.3678  0.2915  0.1858
24691SOL    HW176080   0.449   4.826   9.333  4.0403 -1.3660  2.2622
24691SOL    HW276081   0.419   4.786   9.191 -1.4755  3.5033  1.6584
24692SOL     OW76082  11.268   6.717   2.559  0.4120  0.0195 -0.3734
24692SOL    HW176083  11.357   6.751   2.547  0.0017  1.1241 -0.3888
24692SOL    HW276084  11.233   6.709   2.470 -0.1443  1.3890 -0.3002
24693SOL     OW76085   4.602   8.072   5.120  0.5367 -0.1763 -0.1699
24693SOL    HW176086   4.614   8.020   5.041 -0.7844 -0.1398 -0.4080
24693SOL    HW276087   4.681   8.126   5.125  0.7339 -0.3389 -1.3289
24694SOL     OW76088   5.055   5.762   8.897  0.1598 -0.1609  0.0228
24694SOL    HW176089   5.044   5.836   8.957  0.8185 -1.5849  2.0045
24694SOL    HW276090   5.135   5.719   8.925 -1.0401 -2.5701  0.0294
24695SOL     OW76091   6.289   1.846   0.514 -0.3066 -0.3035 -0.2121
24695SOL    HW176092   6.228   1.889   0.454 -0.5993  2.3170  1.7536
24695SOL    HW276093   6.368   1.900   0.510  0.1030 -0.7964  0.8045
24696SOL     OW76094   3.967   2.110   0.057 -0.2974 -0.0701 -0.1063
24696SOL    HW176095   4.059   2.090   0.041 -0.5805 -1.4894 -0.1112
24696SOL    HW276096   3.968   2.194   0.103  0.9462  0.3236 -0.8194
24697SOL     OW76097   8.023   9.718  10.415  0.0676  0.6690  0.2930
24697SOL    HW176098   7.991   9.635  10.450  1.7249  0.0677  0.4947
24697SOL    HW276099   7.950   9.753  10.365 -0.5027 -1.1788 -0.2414
24698SOL     OW76100  10.736   7.930   1.874 -0.2170  0.5034 -0.1215
24698SOL    HW176101  10.741   7.885   1.958 -0.3288 -1.7775 -1.2473
24698SOL    HW276102  10.718   8.021   1.896 -1.1977 -0.1954  2.2734
24699SOL     OW76103   9.253  10.221   6.061 -0.5283  0.1419 -0.1855
24699SOL    HW176104   9.241  10.298   6.117 -2.8083  0.8858 -1.5305
24699SOL    HW276105   9.329  10.242   6.008  1.1594 -0.2112  1.9520
24700SOL     OW76106   3.102   5.816   3.900 -0.0992  0.6206  0.0842
24700SOL    HW176107   3.114   5.733   3.854 -0.6370  1.2122 -1.1731
24700SOL    HW276108   3.184   5.828   3.950  0.7524  0.2342 -1.1766
24701SOL     OW76109   3.990   6.322   4.737 -0.2278 -0.0890 -0.1183
24701SOL    HW176110   3.956   6.272   4.812 -0.9649 -0.1236 -0.4611
24701SOL    HW276111   3.975   6.413   4.760  1.3854  0.0158  0.6345
24702SOL     OW76112   0.354  11.122   1.782  0.1212 -0.3980 -0.4432
24702SOL    HW176113   0.341  11.107   1.689  1.0211  0.5811 -0.7387
24702SOL    HW276114   0.373  11.215   1.790  0.7011 -0.5809  0.6364
24703SOL     OW76115  10.332   3.708   8.361  0.4984 -0.1963  0.0799
24703SOL    HW176116  10.324   3.668   8.448 -2.0779 -0.9139 -0.4218
24703SOL    HW276117  10.259   3.770   8.356  0.8117  0.0896 -1.4592
24704SOL     OW76118   6.775   1.099  10.941  0.0753 -0.0659  0.6624
24704SOL    HW176119   6.688   1.108  10.902 -0.2609 -1.4301  1.0513
24704SOL    HW276120   6.807   1.015  10.909  2.0727  1.2469 -0.9906
24705SOL     OW76121   0.749   0.864   0.940  0.2910  0.4563 -0.0057
24705SOL    HW176122   0.681   0.919   0.979 -1.6669  0.4318 -3.0437
24705SOL    HW276123   0.831   0.900   0.975 -1.1178  2.3832  1.5678
24706SOL     OW76124   2.794   4.268   1.206 -0.1926 -0.2192 -0.0443
24706SOL    HW176125   2.703   4.265   1.235 -0.7949  0.8297 -1.7200
24706SOL    HW276126   2.830   4.345   1.250  0.5257 -1.7092  2.1830
24707SOL     OW76127   9.729   3.413   6.559 -0.2177 -0.1166  0.2699
24707SOL    HW176128   9.754   3.462   6.481 -1.1974  1.5465  0.9478
24707SOL    HW276129   9.669   3.471   6.605 -1.5167 -2.0210  1.0871
24708SOL     OW76130   9.477   9.098   9.751 -0.2905  0.2441 -0.4784
24708SOL    HW176131   9.443   9.031   9.691  0.7819 -1.0635  0.3217
24708SOL    HW276132   9.405   9.161   9.758 -1.0146 -0.3441 -1.9387
24709SOL     OW76133   4.746   2.697   2.713 -0.0013  0.3188 -0.5459
24709SOL    HW176134   4.684   2.639   2.758  0.5802  0.4735  0.4649
24709SOL    HW276135   4.812   2.718   2.779  0.3742  1.2829 -1.2145
24710SOL     OW76136   3.039  11.061   4.574 -0.0387 -0.5861  0.0813
24710SOL    HW176137   2.960  11.008   4.565  0.2253 -1.3894  1.9539
24710SOL    HW276138   3.084  11.051   4.491 -0.9605 -1.7105 -0.3102
24711SOL     OW76139   9.602   4.223   2.028 -0.8190  0.0424  0.1082
24711SOL    HW176140   9.621   4.130   2.043 -1.1863 -0.0546 -0.0326
24711SOL    HW276141   9.688   4.263   2.015 -0.4794  0.0848  2.1903
24712SOL     OW76142   0.698   7.197   3.921 -0.0774  0.0326  1.3435
24712SOL    HW176143   0.786   7.200   3.957  0.6781 -0.1316 -0.4005
24712SOL    HW276144   0.641   7.193   3.997  1.4946 -2.0995  2.5221
24713SOL     OW76145   4.250  10.046   5.819  0.7337  0.0960 -0.6993
24713SOL    HW176146   4.309   9.978   5.851 -0.0221  0.1564  0.8935
24713SOL    HW276147   4.180   9.998   5.775  2.0560  0.0347 -2.8881
24714SOL     OW76148   2.732   9.685   5.332  0.1993 -0.0497 -0.3055
24714SOL    HW176149   2.645   9.690   5.292  0.3241 -0.1959 -0.6005
24714SOL    HW276150   2.716   9.658   5.423 -0.2701  2.4923  0.4408
24715SOL     OW76151   0.475   7.773   1.959  0.1717 -0.0951  0.3438
24715SOL    HW176152   0.431   7.707   2.012 -0.9408  0.6865  0.4214
24715SOL    HW276153   0.409   7.840   1.943  1.1285  0.7732 -0.1455
24716SOL     OW76154   0.583   3.793   1.032 -0.4640 -0.5558  0.2840
24716SOL    HW176155   0.636   3.866   1.002 -1.9162 -0.0393 -1.2101
24716SOL    HW276156   0.571   3.808   1.126 -1.2594  1.4955 -0.1000
24717SOL     OW76157   0.478   6.387   9.787 -0.2245 -0.4546  0.3762
24717SOL    HW176158   0.415   6.353   9.850 -0.8561  0.2437  0.1409
24717SOL    HW276159   0.514   6.465   9.829  0.6123 -0.9367  0.5747
24718SOL     OW76160   4.365   4.438   5.401 -0.1205 -0.3854 -0.6737
24718SOL    HW176161   4.302   4.497   5.441  0.3652  0.3479 -0.9683
24718SOL    HW276162   4.322   4.405   5.323  0.7224  2.0540 -2.2757
24719SOL     OW76163   6.302   0.221   9.202  0.3149  0.2210  0.2254
24719SOL    HW176164   6.238   0.194   9.268  1.7440 -1.9802  0.8114
24719SOL    HW276165   6.249   0.252   9.129 -1.4721 -1.9558  0.4926
24720SOL     OW76166   1.128   0.874   9.311 -0.4399 -0.5067  0.1728
24720SOL    HW176167   1.085   0.795   9.344 -0.2454 -0.1886  1.2237
24720SOL    HW276168   1.178   0.845   9.235 -2.4944 -0.9055 -1.1353
24721SOL     OW76169   9.564   1.298  10.748 -0.1754  0.0999  0.1528
24721SOL    HW176170   9.507   1.299  10.671 -2.5108 -0.0880  1.7604
24721SOL    HW276171   9.528   1.367  10.804  0.8861 -0.3910  1.4590
24722SOL     OW76172   8.257   6.514   7.340 -0.1412  0.0401  0.4264
24722SOL    HW176173   8.212   6.558   7.412 -1.0105 -3.1330  1.9834
24722SOL    HW276174   8.199   6.526   7.265  0.2982  2.5574  0.3890
24723SOL     OW76175   1.838   7.692   4.362 -0.6640 -0.1488  0.5394
24723SOL    HW176176   1.895   7.616   4.349  0.1952  0.4812  0.5048
24723SOL    HW276177   1.864   7.727   4.446 -0.8435  0.2885  0.4148
24724SOL     OW76178   2.837   7.919   4.690  0.2986  0.0666 -0.3558
24724SOL    HW176179   2.794   7.871   4.619 -0.5067  0.9236 -0.4748
24724SOL    HW276180   2.892   7.854   4.733  3.4881  0.1469 -3.7479
24725SOL     OW76181   0.009   8.123   1.378 -0.0248 -0.1716 -0.2240
24725SOL    HW176182   0.097   8.086   1.389  0.9724  2.2767  0.7220
24725SOL    HW276183  -0.043   8.081   1.446  0.1762 -2.1633 -1.2186
24726SOL     OW76184   5.541   7.874  11.086 -0.3269  0.3273  0.3389
24726SOL    HW176185   5.547   7.957  11.134  1.9684  1.1196 -1.1426
24726SOL    HW276186   5.471   7.888  11.022 -1.0970  0.4745  1.1909
24727SOL     OW76187   7.118   8.344   2.695  0.4661 -0.1796 -0.0700
24727SOL    HW176188   7.073   8.266   2.664  1.2279 -0.0718 -1.5474
24727SOL    HW276189   7.170   8.373   2.620 -0.1862  2.0455  0.2581
24728SOL     OW76190  10.126   1.438   8.057 -0.5926  0.0034 -0.3232
24728SOL    HW176191  10.182   1.452   8.133 -1.1871 -0.4293  0.2077
24728SOL    HW276192  10.181   1.460   7.982 -0.4867  2.0808  0.2993
24729SOL     OW76193   7.088   0.385   0.725 -0.1919 -1.1541  0.8266
24729SOL    HW176194   7.110   0.445   0.654 -1.3654 -2.0495 -0.3683
24729SOL    HW276195   7.032   0.436   0.784 -0.2427 -0.7547  0.4336
24730SOL     OW76196   5.763   5.966   5.005  0.1978 -0.7705  1.1925
24730SOL    HW176197   5.689   5.984   5.064 -0.0757 -3.0771  1.6593
24730SOL    HW276198   5.732   5.893   4.950  0.2401  1.5750 -2.2675
24731SOL     OW76199   2.645   5.319   1.927  0.4459 -0.0453 -0.6130
24731SOL    HW176200   2.638   5.352   2.017  0.6514  0.1399 -0.6640
24731SOL    HW276201   2.661   5.398   1.875  0.3453 -0.1555 -0.8104
24732SOL     OW76202   1.813   7.188   3.323  0.0872 -0.2811 -0.4855
24732SOL    HW176203   1.908   7.203   3.317  0.0771 -0.1928 -0.4177
24732SOL    HW276204   1.774   7.275   3.314 -0.0188 -0.3890 -1.1647
24733SOL     OW76205   7.148   2.780  11.157 -0.3389 -0.3983  0.0166
24733SOL    HW176206   7.113   2.730  11.084  0.9306 -2.7142  0.8869
24733SOL    HW276207   7.242   2.764  11.154 -0.2183 -0.2665  1.9198
24734SOL     OW76208   5.447   6.828   2.985  0.3451  0.2487  0.0618
24734SOL    HW176209   5.406   6.900   3.032 -2.6386 -0.8126 -0.7074
24734SOL    HW276210   5.458   6.860   2.896 -2.8024 -0.7268 -0.7957
24735SOL     OW76211   5.937   8.284  10.995 -0.3618 -0.0918  0.1448
24735SOL    HW176212   5.918   8.253  11.083 -4.3647  0.1749 -0.4577
24735SOL    HW276213   5.922   8.208  10.939  4.7281 -1.0708 -0.3590
24736SOL     OW76214   2.972  10.882   9.600 -0.5905 -0.2582 -0.0130
24736SOL    HW176215   2.982  10.884   9.695 -0.5176  3.0428  0.0042
24736SOL    HW276216   2.983  10.790   9.577  0.7912 -0.9631  3.0061
24737SOL     OW76217  10.466   6.515   4.134 -0.3902  0.3292 -0.3829
24737SOL    HW176218  10.530   6.586   4.143 -0.8525  0.4999  4.8283
24737SOL    HW276219  10.381   6.559   4.131 -0.6212  0.2237  2.0024
24738SOL     OW76220   8.193   0.812   0.499 -0.2390 -0.5014 -0.0595
24738SOL    HW176221   8.148   0.844   0.578  0.4767  2.0990 -0.6136
24738SOL    HW276222   8.284   0.840   0.511  0.2616 -1.6338 -1.0444
24739SOL     OW76223  10.799  10.742   4.314 -0.0840  0.1692  0.1769
24739SOL    HW176224  10.879  10.699   4.284 -2.0968 -2.5686 -1.8083
24739SOL    HW276225  10.815  10.761   4.406  1.9958 -2.5338  0.5181
24740SOL     OW76226   1.333   2.426   3.505 -0.0232 -0.6413  0.4008
24740SOL    HW176227   1.258   2.464   3.551  0.5276 -0.5501  1.2614
24740SOL    HW276228   1.409   2.464   3.550  0.5391 -1.8273  0.4858
24741SOL     OW76229  10.327   5.719   3.882 -0.3857  0.1624  0.2748
24741SOL    HW176230  10.247   5.772   3.879 -0.2689  0.3551  0.5703
24741SOL    HW276231  10.295   5.631   3.904 -0.6123  0.0279 -0.5363
24742SOL     OW76232   2.853   7.873   9.980  0.0797 -0.7328  0.2176
24742SOL    HW176233   2.762   7.884  10.008  0.5975 -1.0987  2.1950
24742SOL    HW276234   2.905   7.882  10.060  1.6677 -2.0710 -0.5817
24743SOL     OW76235   2.043   6.472   6.682 -0.7477  0.2259  1.0007
24743SOL    HW176236   1.996   6.452   6.601 -0.2103 -0.8258  0.9420
24743SOL    HW276237   2.065   6.387   6.720  1.3136  0.6812  0.9186
24744SOL     OW76238   5.698   6.116   8.176 -0.0093  0.4691 -0.1876
24744SOL    HW176239   5.704   6.182   8.246 -0.5086  0.0708  0.2439
24744SOL    HW276240   5.710   6.032   8.222  1.4811  0.2826 -0.8510
24745SOL     OW76241   4.427   8.818   8.836 -0.3925 -0.4050  0.0294
24745SOL    HW176242   4.483   8.811   8.759  0.4758 -0.3619  0.6484
24745SOL    HW276243   4.355   8.757   8.818 -0.2955 -0.2757 -0.8811
24746SOL     OW76244   5.342   6.103   0.302  0.0153 -0.1858 -0.0350
24746SOL    HW176245   5.282   6.155   0.356  0.3626 -1.2938  1.4884
24746SOL    HW276246   5.288   6.032   0.268  0.6047 -1.9326  2.3807
24747SOL     OW76247   1.603   0.893   1.375  0.5583  0.3380 -0.1729
24747SOL    HW176248   1.629   0.852   1.293 -2.3043 -0.4294 -0.8075
24747SOL    HW276249   1.529   0.949   1.351  0.9897  1.7572  1.5789
24748SOL     OW76250   0.419   4.187   9.213  0.3401 -0.1386  0.5417
24748SOL    HW176251   0.363   4.251   9.256  1.6840  2.0721 -0.7892
24748SOL    HW276252   0.492   4.175   9.273  0.2384 -0.1730  0.6588
24749SOL     OW76253   3.996   3.895   3.438  0.1663  0.4776 -0.2890
24749SOL    HW176254   4.042   3.812   3.422 -0.9695 -0.4544  1.0643
24749SOL    HW276255   3.907   3.879   3.404  0.7826  2.3508 -3.1573
24750SOL     OW76256   9.177   2.002   9.696  0.1724 -0.5883 -0.2416
24750SOL    HW176257   9.110   2.070   9.708 -1.4320 -2.4811  2.5779
24750SOL    HW276258   9.127   1.921   9.686  2.0722 -1.8371  0.0617
24751SOL     OW76259   4.743   3.674   6.793 -0.1889  0.4354 -0.7436
24751SOL    HW176260   4.699   3.684   6.709  1.1306  1.3521 -1.3479
24751SOL    HW276261   4.809   3.606   6.778  1.0699  1.6494 -0.9133
24752SOL     OW76262   6.597   3.096   4.438 -0.5478 -0.0896 -0.0723
24752SOL    HW176263   6.560   3.106   4.526 -3.1748  0.7394 -1.1631
24752SOL    HW276264   6.559   3.014   4.405  0.2199 -0.2720 -0.5205
24753SOL     OW76265   7.077   4.814   7.262 -0.7229 -0.6913 -0.4636
24753SOL    HW176266   7.128   4.738   7.293  0.3533  0.3833  0.5138
24753SOL    HW276267   6.986   4.790   7.281 -0.4267 -1.8335 -0.3825
24754SOL     OW76268   6.646   3.847   6.070 -0.4949  0.5566 -0.0604
24754SOL    HW176269   6.624   3.794   5.993 -2.4615 -0.4924  1.1221
24754SOL    HW276270   6.657   3.783   6.141  2.3764  1.3990  0.3875
24755SOL     OW76271   5.503   2.485  11.201 -0.1317  0.1958  0.6534
24755SOL    HW176272   5.585   2.438  11.186 -0.1793  0.7867 -1.7464
24755SOL    HW276273   5.513   2.567  11.154 -1.0613  1.5240  2.6369
24756SOL     OW76274  10.908   6.663   6.308  0.2411  0.2957 -1.0470
24756SOL    HW176275  10.813   6.662   6.293 -0.1406 -0.0132  1.1419
24756SOL    HW276276  10.942   6.724   6.242 -1.8401  2.7401 -0.0351
24757SOL     OW76277   7.345   9.267   4.309 -0.5072  0.2198  0.3101
24757SOL    HW176278   7.269   9.303   4.354 -2.0760 -1.0577 -1.2073
24757SOL    HW276279   7.404   9.240   4.380 -2.8447 -1.7128  1.6545
24758SOL     OW76280   1.696   8.782   8.042  0.1231  0.2227  0.1661
24758SOL    HW176281   1.725   8.723   8.112 -2.5045 -0.2760  0.9391
24758SOL    HW276282   1.737   8.747   7.963  2.2307  0.1018  1.2462
24759SOL     OW76283   5.664   5.368   3.727  0.5655 -0.0716  0.3427
24759SOL    HW176284   5.591   5.410   3.681  0.3312 -0.8542 -0.0160
24759SOL    HW276285   5.650   5.274   3.713  1.0634 -0.2744  1.1543
24760SOL     OW76286   6.897  10.824   0.916  0.7259 -0.1998 -0.2621
24760SOL    HW176287   6.927  10.913   0.901 -0.2395  0.1549 -0.1584
24760SOL    HW276288   6.895  10.815   1.011  0.1015 -0.0693 -0.2580
24761SOL     OW76289   2.475   9.666   1.434  0.0147 -0.0749 -0.2698
24761SOL    HW176290   2.487   9.644   1.341 -0.2799 -0.4961 -0.2100
24761SOL    HW276291   2.436   9.753   1.433 -0.2326 -0.1873 -0.5533
24762SOL     OW76292   1.494   6.236   3.146  0.0614 -0.4463 -0.5430
24762SOL    HW176293   1.478   6.264   3.237 -0.4157 -2.9696  0.2205
24762SOL    HW276294   1.552   6.161   3.154  1.7614  0.5794 -2.5275
24763SOL     OW76295   3.812   8.289  10.181  0.3621  0.0979 -0.2784
24763SOL    HW176296   3.881   8.300  10.246 -0.0637  0.0065  0.1976
24763SOL    HW276297   3.827   8.359  10.117 -0.3654  1.4336  0.9595
24764SOL     OW76298   2.986   6.054   3.957 -0.0740  0.3811 -0.5160
24764SOL    HW176299   3.018   6.048   4.047  0.6674 -0.3992 -0.8217
24764SOL    HW276300   3.015   5.973   3.916  2.2685  1.9794 -2.2910
24765SOL     OW76301   3.441   3.258   5.390  0.2809 -0.5343 -0.1781
24765SOL    HW176302   3.400   3.297   5.468  2.2915  0.8211  0.2678
24765SOL    HW276303   3.463   3.169   5.417  0.9307 -0.0884  0.8246
24766SOL     OW76304   6.697   7.673   4.979  0.2821  0.6612  0.4604
24766SOL    HW176305   6.618   7.663   4.927  0.5892 -0.4115  0.1722
24766SOL    HW276306   6.703   7.592   5.030 -0.3243  1.9140  2.6491
24767SOL     OW76307   3.343   0.356   4.015 -0.4452 -0.1769 -0.3715
24767SOL    HW176308   3.305   0.417   4.077 -0.1454 -0.9468  0.5913
24767SOL    HW276309   3.425   0.328   4.056  0.5203  0.4511 -1.8003
24768SOL     OW76310   7.220   1.826   7.839 -0.3537  0.4150  0.7731
24768SOL    HW176311   7.257   1.791   7.920 -0.7867  0.2831  0.9186
24768SOL    HW276312   7.247   1.764   7.771  0.9105  1.0880  0.6321
24769SOL     OW76313   7.392   3.107   7.215  0.2431  0.0420 -0.2197
24769SOL    HW176314   7.476   3.089   7.173  1.4758 -0.9301  2.3785
24769SOL    HW276315   7.364   3.021   7.249 -0.5043  0.7714  1.0890
24770SOL     OW76316   1.124   0.297  10.418 -0.1979 -0.2395  0.1090
24770SOL    HW176317   1.167   0.217  10.388  0.6102  0.1437  0.2164
24770SOL    HW276318   1.149   0.363  10.353  0.1610  0.1996  0.6854
24771SOL     OW76319  11.266   2.875   4.058  0.0956 -0.3402  0.3447
24771SOL    HW176320  11.251   2.970   4.056  0.4397 -0.1459  3.1132
24771SOL    HW276321  11.257   2.852   4.151  1.4987 -2.7766 -0.0657
24772SOL     OW76322   9.343   8.408   9.212 -0.1817 -0.0509  0.4102
24772SOL    HW176323   9.321   8.448   9.296 -2.4167 -0.0290 -0.1169
24772SOL    HW276324   9.263   8.362   9.186  1.3332 -2.4216 -0.4060
24773SOL     OW76325  10.579   7.327   9.888 -0.3760 -0.2482  0.4445
24773SOL    HW176326  10.565   7.367   9.974  0.3395 -0.6606  0.7620
24773SOL    HW276327  10.667   7.290   9.893 -0.0708  0.2784 -0.6840
24774SOL     OW76328   6.729   9.210   9.959 -0.0452 -0.4515  0.1797
24774SOL    HW176329   6.755   9.129  10.003 -1.0741 -1.7739 -1.5095
24774SOL    HW276330   6.710   9.183   9.869  0.0918  1.7818 -0.5773
24775SOL     OW76331   2.673   2.755   9.165  0.1126 -0.3559  0.1496
24775SOL    HW176332   2.593   2.760   9.112 -0.7133 -1.7159  1.2385
24775SOL    HW276333   2.685   2.662   9.184  1.4398 -0.0834  0.7981
24776SOL     OW76334   1.061   8.369   7.815  0.1653 -0.4762 -0.5936
24776SOL    HW176335   1.119   8.294   7.806  0.1959 -0.5809  0.3753
24776SOL    HW276336   1.117   8.439   7.848  0.3640  0.2911 -2.4716
24777SOL     OW76337   1.607   1.528   2.415 -0.0084 -0.1822 -0.5206
24777SOL    HW176338   1.545   1.557   2.482  1.7263 -0.1141  1.1185
24777SOL    HW276339   1.606   1.432   2.422  1.3020 -0.1389  0.7395
24778SOL     OW76340   1.124   7.833   8.382  0.0303  0.4424 -0.3468
24778SOL    HW176341   1.107   7.831   8.288  1.5040  2.1779 -0.6993
24778SOL    HW276342   1.055   7.889   8.418 -0.8826 -0.6838 -0.2547
24779SOL     OW76343  10.603   5.420   3.708  0.1556  0.5194  0.0067
24779SOL    HW176344  10.586   5.494   3.649  0.6442 -0.4443 -1.4131
24779SOL    HW276345  10.697   5.405   3.700  0.1699  0.1649  0.8045
24780SOL     OW76346   8.788   9.704   1.681 -0.0940  0.1144  0.0671
24780SOL    HW176347   8.763   9.777   1.623 -0.2937  0.0332  0.0501
24780SOL    HW276348   8.730   9.713   1.757  2.1977  2.0628  1.7213
24781SOL     OW76349   5.615   5.026   9.723 -0.1311 -0.9754  1.1791
24781SOL    HW176350   5.577   5.030   9.811 -1.1188 -1.0539  0.7691
24781SOL    HW276351   5.544   4.994   9.668 -0.3242  1.3449 -0.0814
24782SOL     OW76352   1.817   3.084   9.879  0.0859 -0.2297 -0.2992
24782SOL    HW176353   1.887   3.133   9.837 -1.9111  1.6531 -1.6856
24782SOL    HW276354   1.788   3.141   9.951  1.6007 -2.1628  1.9876
24783SOL     OW76355   7.355   3.619   5.205  0.3472  0.4140  0.3246
24783SOL    HW176356   7.289   3.564   5.248  0.7773 -1.1518 -0.9039
24783SOL    HW276357   7.435   3.603   5.254  0.0639  1.5073  1.1758
24784SOL     OW76358   8.098   2.633   9.775  0.0996  0.5741  0.0210
24784SOL    HW176359   8.086   2.542   9.747  3.9478  0.5893 -2.3079
24784SOL    HW276360   8.022   2.679   9.740 -0.1258 -1.1532 -1.9311
24785SOL     OW76361   4.279   3.715   6.577  0.1919  0.1069  0.1327
24785SOL    HW176362   4.331   3.731   6.656  1.7187 -2.2999 -0.2723
24785SOL    HW276363   4.188   3.724   6.606  0.7285  0.5686  1.8251
24786SOL     OW76364   1.097   1.197   8.295  0.5318  0.2549  0.1717
24786SOL    HW176365   1.189   1.175   8.279  0.2648 -0.4577 -0.4641
24786SOL    HW276366   1.065   1.129   8.353  0.2113  0.0635 -0.2214
24787SOL     OW76367   7.999   8.624   3.312 -0.3421  0.3554  0.3458
24787SOL    HW176368   8.001   8.531   3.337  0.2979  0.5116  0.9253
24787SOL    HW276369   7.933   8.663   3.369  0.3759  0.5104  1.0955
24788SOL     OW76370  10.863   4.489   8.378 -0.9255 -0.0445 -0.2770
24788SOL    HW176371  10.957   4.490   8.396 -0.5511 -0.8166 -1.9881
24788SOL    HW276372  10.852   4.421   8.312 -2.8263 -0.5629  0.5088
24789SOL     OW76373  10.321   9.442   5.189 -0.2515 -1.0434  0.7738
24789SOL    HW176374  10.254   9.376   5.167 -0.6910  0.0219 -1.3209
24789SOL    HW276375  10.403   9.393   5.188 -0.7294 -1.8862  0.9521
24790SOL     OW76376   6.672   3.611   1.900  0.0849 -0.7781  0.2327
24790SOL    HW176377   6.700   3.684   1.844  0.8621 -0.0216  1.5592
24790SOL    HW276378   6.601   3.570   1.851  0.0350  0.4876 -0.8365
24791SOL     OW76379   9.918   6.242   3.988 -0.3380  0.4456  0.2089
24791SOL    HW176380   9.961   6.272   3.908 -0.7441  0.1935 -0.1071
24791SOL    HW276381   9.988   6.199   4.038 -0.4407 -1.0044 -0.8291
24792SOL     OW76382   0.148   5.023  11.020 -0.4568 -0.4966 -0.1370
24792SOL    HW176383   0.232   5.042  10.978 -0.2362  0.8681  0.8590
24792SOL    HW276384   0.149   4.929  11.034  1.5321 -0.3479  1.0854
24793SOL     OW76385   0.770   6.088   6.108 -0.8348 -0.2182  0.4691
24793SOL    HW176386   0.700   6.148   6.082 -0.1201 -0.7271 -3.1804
24793SOL    HW276387   0.842   6.109   6.049  1.8667 -0.3566  3.4597
24794SOL     OW76388  11.018   0.101   4.602 -0.0164 -0.0480 -0.3823
24794SOL    HW176389  10.924   0.114   4.592 -0.0627  2.4021  2.0534
24794SOL    HW276390  11.040   0.146   4.684  2.9451 -2.4371  0.2970
24795SOL     OW76391   6.468   4.323   1.943 -0.3745 -0.5979 -0.5565
24795SOL    HW176392   6.411   4.258   1.903 -0.0951 -0.0669 -1.8557
24795SOL    HW276393   6.409   4.393   1.972 -0.5377 -0.7847 -0.4399
24796SOL     OW76394   8.922  11.285   7.814  0.4803 -0.2352  0.0352
24796SOL    HW176395   8.947  11.377   7.814 -1.6975  0.4058  0.1226
24796SOL    HW276396   8.845  11.280   7.758 -0.3217 -1.7155  1.1739
24797SOL     OW76397   9.789   4.534   4.509 -0.1585 -0.7395 -0.5109
24797SOL    HW176398   9.731   4.533   4.434 -0.6513 -0.7109 -0.1346
24797SOL    HW276399   9.858   4.596   4.486 -0.7827 -0.0627 -0.5841
24798SOL     OW76400   2.833  10.080   0.076  0.2922  0.0468  0.7590
24798SOL    HW176401   2.829   9.994   0.118  2.1767 -1.1994 -1.4065
24798SOL    HW276402   2.818  10.062  -0.017  0.3767  2.1172  0.2982
24799SOL     OW76403   1.274   1.939   1.141 -0.2217 -0.5727  0.0206
24799SOL    HW176404   1.320   1.861   1.111  1.0952 -1.1565  3.2294
24799SOL    HW276405   1.240   1.916   1.228 -2.9476  1.2925 -0.4027
24800SOL     OW76406   7.898   4.969  10.821 -0.1385  0.2365 -0.4891
24800SOL    HW176407   7.825   4.951  10.879  0.0082  0.3658 -0.2615
24800SOL    HW276408   7.930   5.055  10.849  1.7059 -0.8957  1.1119
24801SOL     OW76409   3.350   5.751   9.228  0.8514  0.1243 -0.4360
24801SOL    HW176410   3.298   5.708   9.296  1.7089 -0.5234 -0.1819
24801SOL    HW276411   3.321   5.708   9.147  1.5117 -0.7744 -0.2128
24802SOL     OW76412   4.087   0.398   1.977 -0.3410 -0.2892 -0.3438
24802SOL    HW176413   4.008   0.404   1.923 -0.6372 -2.0623 -0.1524
24802SOL    HW276414   4.064   0.444   2.058 -1.0270 -0.4308 -0.4520
24803SOL     OW76415   3.951   5.144   7.653 -0.2109  0.3745  0.2129
24803SOL    HW176416   3.944   5.052   7.629 -2.4886  0.8964 -1.4183
24803SOL    HW276417   3.893   5.154   7.728  0.5655  0.3842  0.8303
24804SOL     OW76418   5.562   7.303   9.692  0.1939 -0.0239 -0.0035
24804SOL    HW176419   5.544   7.217   9.653  1.1361 -0.5571  0.6908
24804SOL    HW276420   5.576   7.361   9.617  2.1200 -1.0627 -0.5207
24805SOL     OW76421   1.619   4.425   3.736 -0.5689  0.4475 -0.1425
24805SOL    HW176422   1.635   4.511   3.698  0.0244  0.5395  0.2960
24805SOL    HW276423   1.593   4.370   3.662 -1.9644  1.2412 -0.2689
24806SOL     OW76424   1.290   4.400   7.326  0.0049  0.7927  0.8098
24806SOL    HW176425   1.384   4.416   7.322  0.1934  0.2729  2.4888
24806SOL    HW276426   1.273   4.340   7.253  1.5801 -1.6754  2.3162
24807SOL     OW76427   4.490   5.763   7.830 -0.0708  0.4706 -0.2195
24807SOL    HW176428   4.567   5.724   7.789 -0.6729 -0.5920 -0.3815
24807SOL    HW276429   4.446   5.690   7.873 -0.7345  1.1466  0.2824
24808SOL     OW76430   5.044   6.580   3.430  0.7354  0.3730 -0.0487
24808SOL    HW176431   5.139   6.569   3.435  0.5373 -0.9280  1.7675
24808SOL    HW276432   5.017   6.523   3.358  1.1780 -0.6252  0.5505
24809SOL     OW76433   4.115   9.335   3.055  0.3120 -0.6023  0.7365
24809SOL    HW176434   4.028   9.299   3.041  1.4869 -3.9866  1.1313
24809SOL    HW276435   4.122   9.347   3.150  0.5949 -1.4264  0.8336
24810SOL     OW76436   2.263  11.191  11.260 -0.1228 -0.3611 -0.7339
24810SOL    HW176437   2.187  11.236  11.224  0.5948 -1.0076 -3.2192
24810SOL    HW276438   2.263  11.106  11.218  1.9924 -0.3631 -0.8321
24811SOL     OW76439   0.417   8.594   2.399  0.4472 -0.3542  0.6049
24811SOL    HW176440   0.429   8.677   2.445  0.5504  0.1283 -0.2659
24811SOL    HW276441   0.505   8.555   2.396  0.3941 -0.5104  1.0348
24812SOL     OW76442   3.976   1.482   6.206  0.6877 -0.0760  0.4570
24812SOL    HW176443   3.992   1.533   6.127  0.1550  1.6561  1.4138
24812SOL    HW276444   3.903   1.425   6.183 -2.2648  3.2206  0.7357
24813SOL     OW76445   1.773   4.630   7.223  0.1787 -0.3899 -1.1478
24813SOL    HW176446   1.835   4.674   7.282 -0.7457 -1.0526  0.4023
24813SOL    HW276447   1.828   4.590   7.156  1.5392 -1.3828  0.4469
24814SOL     OW76448   4.054   3.587   5.246 -0.4457  0.8406  0.5816
24814SOL    HW176449   4.015   3.588   5.159  1.6721  1.4035 -0.4326
24814SOL    HW276450   4.006   3.653   5.295 -0.8913  1.3663 -0.5306
24815SOL     OW76451   5.659   3.855   2.041 -0.0621 -0.0137 -0.0318
24815SOL    HW176452   5.738   3.893   2.003 -0.0146 -0.7882 -0.7245
24815SOL    HW276453   5.681   3.843   2.134  0.3080  0.5926 -0.0351
24816SOL     OW76454   6.178   5.429   5.473 -0.4536 -0.3234  0.2034
24816SOL    HW176455   6.110   5.376   5.431  1.3323 -1.6229 -1.2326
24816SOL    HW276456   6.247   5.367   5.495  1.2320  1.2245 -0.4603
24817SOL     OW76457   7.599   8.583   0.464 -1.1232 -0.3830 -0.4014
24817SOL    HW176458   7.561   8.666   0.492  2.7817  1.1390  1.1710
24817SOL    HW276459   7.636   8.601   0.377  3.2383  1.1203  1.4790
24818SOL     OW76460   0.770   5.222   4.847  0.0285  0.0204  0.2663
24818SOL    HW176461   0.814   5.305   4.863  1.0673 -0.0605 -1.7796
24818SOL    HW276462   0.760   5.219   4.751 -4.1762 -0.1233  0.4896
24819SOL     OW76463   0.045   7.066   8.548 -0.6181 -0.0417  0.0298
24819SOL    HW176464  -0.040   7.026   8.534 -1.2247  1.2120  0.0161
24819SOL    HW276465   0.027   7.160   8.557  0.7131  0.2025  0.4102
24820SOL     OW76466  11.022   8.513   3.377 -0.0135 -0.2359 -0.5293
24820SOL    HW176467  11.057   8.602   3.386  0.9100 -0.6258 -0.2050
24820SOL    HW276468  10.974   8.514   3.294  1.5737  0.0547 -1.4846
24821SOL     OW76469   9.112   9.104   0.238  1.3817 -0.5009  1.0203
24821SOL    HW176470   9.037   9.046   0.221  0.0747  1.6108 -1.0532
24821SOL    HW276471   9.076   9.174   0.293  1.4658  1.0561 -0.7887
24822SOL     OW76472  11.042   1.352   0.352  0.9779  0.1160  0.1853
24822SOL    HW176473  11.043   1.371   0.445  0.0769 -2.3572  0.7782
24822SOL    HW276474  11.130   1.374   0.322  1.5354  0.2076  1.7957
24823SOL     OW76475   1.818   0.597   4.091  0.7371 -0.5516  0.1277
24823SOL    HW176476   1.901   0.624   4.129  0.2700  2.0157 -0.5067
24823SOL    HW276477   1.800   0.662   4.023 -1.1168 -1.8556 -0.7252
24824SOL     OW76478   6.667   3.398   2.692  0.0732 -0.0478  0.3142
24824SOL    HW176479   6.622   3.442   2.764  1.7929 -0.7521  1.9165
24824SOL    HW276480   6.619   3.316   2.679 -0.8263  0.5281 -0.0206
24825SOL     OW76481   6.311   8.329  11.178  0.2135 -0.2902  0.3007
24825SOL    HW176482   6.215   8.323  11.174  0.1786  0.2525  0.2127
24825SOL    HW276483   6.331   8.412  11.135  0.6348  0.2622  1.5211
24826SOL     OW76484   3.641   5.890   5.478  0.5046 -0.0187 -0.1772
24826SOL    HW176485   3.550   5.892   5.449  0.8435  0.4066 -1.2482
24826SOL    HW276486   3.667   5.798   5.472 -0.5162 -0.5445  2.3434
24827SOL     OW76487  11.097   1.920   0.897 -0.0788  0.0117 -0.0924
24827SOL    HW176488  11.028   1.986   0.906 -0.8389 -0.7952  0.1078
24827SOL    HW276489  11.112   1.914   0.803 -1.3707 -0.8854 -0.2650
24828SOL     OW76490   1.705   3.226   9.069  0.1186  0.3914  0.2273
24828SOL    HW176491   1.624   3.175   9.070 -0.3669  1.0479 -1.5508
24828SOL    HW276492   1.677   3.315   9.091 -0.2476  1.2795 -3.2941
24829SOL     OW76493   0.068   0.660  10.485 -0.3387  0.5636  0.1118
24829SOL    HW176494   0.087   0.575  10.525 -0.7212  0.2796 -0.3036
24829SOL    HW276495   0.122   0.662  10.406 -0.3202  0.7119  0.1287
24830SOL     OW76496   5.973   8.420   5.699 -0.2872  0.1558 -0.4967
24830SOL    HW176497   6.032   8.461   5.762  1.5290 -0.0602 -1.9690
24830SOL    HW276498   5.986   8.470   5.618  0.3217 -1.8766 -1.7212
24831SOL     OW76499  10.094   2.341   5.167 -0.1965 -0.0154  0.3548
24831SOL    HW176500  10.122   2.433   5.169 -0.3492  0.0777 -0.9217
24831SOL    HW276501   9.998   2.345   5.173 -0.1909 -0.1076  0.5105
24832SOL     OW76502  10.565   1.178   7.199 -0.1664  0.8675 -0.3962
24832SOL    HW176503  10.492   1.137   7.246  1.0451 -3.4348 -1.8120
24832SOL    HW276504  10.643   1.155   7.250  0.6295  1.3241 -1.3653
24833SOL     OW76505   3.023   3.130   0.749  0.2339 -0.4108 -0.8059
24833SOL    HW176506   3.049   3.218   0.721 -0.4156 -0.1391 -0.5944
24833SOL    HW276507   2.928   3.137   0.762  0.3091 -0.8951  0.0870
24834SOL     OW76508  10.748   5.250   5.957 -0.3994 -0.2930  0.3921
24834SOL    HW176509  10.736   5.178   6.019  1.3304  0.2974  1.4843
24834SOL    HW276510  10.692   5.227   5.882 -1.6845 -1.5830  1.6736
24835SOL     OW76511   9.093   7.202   2.977 -0.2947  0.6875 -0.0169
24835SOL    HW176512   9.092   7.294   2.951 -0.5632  0.3984 -1.0660
24835SOL    HW276513   9.074   7.153   2.897  3.1403 -0.4747 -0.2747
24836SOL     OW76514   9.261   1.204   6.201 -0.0464  0.3439  0.1359
24836SOL    HW176515   9.276   1.247   6.116  1.3976  1.1357  0.7459
24836SOL    HW276516   9.327   1.134   6.203  0.1839  0.5739  0.7488
24837SOL     OW76517   5.741   2.002   3.850 -0.3452 -0.1994  0.1875
24837SOL    HW176518   5.659   1.957   3.871 -1.3160  0.9474 -1.0546
24837SOL    HW276519   5.758   2.056   3.927 -1.3779  0.4263 -0.0084
24838SOL     OW76520   3.263  10.988   8.102  1.1300  0.4782 -0.0641
24838SOL    HW176521   3.256  11.076   8.141 -0.0372  0.4022 -0.0710
24838SOL    HW276522   3.315  11.001   8.023  0.6280  1.2430 -0.2781
24839SOL     OW76523   7.629   8.072  11.010 -0.1666 -0.3551 -0.2912
24839SOL    HW176524   7.718   8.084  11.043  0.1625 -0.8540 -0.9775
24839SOL    HW276525   7.572   8.096  11.084  0.5401 -0.5335  0.3159
24840SOL     OW76526   9.518   3.027   4.800 -0.1545  0.4437 -0.2184
24840SOL    HW176527   9.535   3.109   4.753  1.6100 -0.4626 -1.2607
24840SOL    HW276528   9.552   2.959   4.742 -0.1872 -0.9249  1.3081
24841SOL     OW76529   5.279   2.581   3.584 -0.1801 -0.1177 -0.1849
24841SOL    HW176530   5.369   2.554   3.602 -0.7105 -1.7002  0.2846
24841SOL    HW276531   5.268   2.661   3.635  0.9662  0.1127 -0.2721
24842SOL     OW76532   3.218   0.362   6.093 -0.0498 -0.3654 -0.4109
24842SOL    HW176533   3.248   0.390   6.180  1.2621  0.0507 -0.9776
24842SOL    HW276534   3.127   0.336   6.107  0.4361 -1.2843  1.2970
24843SOL     OW76535   6.906   4.753   3.691 -0.3014  0.4324  0.3877
24843SOL    HW176536   6.822   4.724   3.727 -0.4404 -0.2043 -0.4112
24843SOL    HW276537   6.901   4.848   3.692 -1.2340  0.4025 -0.0896
24844SOL     OW76538  10.632   2.947  10.825 -0.1701  0.4565  0.4573
24844SOL    HW176539  10.614   2.872  10.768 -0.7814 -0.5267  1.9144
24844SOL    HW276540  10.549   2.993  10.831 -0.6488 -0.5366  2.0728
24845SOL     OW76541   4.763   3.730  10.792 -0.7167  0.4377 -0.0172
24845SOL    HW176542   4.836   3.742  10.731  1.1855  0.1136  2.0907
24845SOL    HW276543   4.755   3.814  10.837 -1.6681  0.4681 -0.2202
24846SOL     OW76544   2.548   8.172   3.192 -0.3751  0.1887  0.2207
24846SOL    HW176545   2.543   8.252   3.244  0.1754  0.5564 -0.2836
24846SOL    HW276546   2.534   8.101   3.255 -1.8842  0.7085  0.5142
24847SOL     OW76547   7.628   2.578   0.219 -0.4609 -0.4281 -0.7194
24847SOL    HW176548   7.634   2.667   0.253  2.1182 -1.4937  2.0548
24847SOL    HW276549   7.605   2.524   0.295  0.5699 -2.4015 -1.7205
24848SOL     OW76550   0.083   0.025   6.173  0.3225 -0.5061 -0.0862
24848SOL    HW176551   0.164   0.028   6.223  0.2382 -0.3343  0.0430
24848SOL    HW276552   0.033   0.101   6.204 -0.3901 -1.2715  0.6798
24849SOL     OW76553   3.994   2.039   0.379 -0.3554 -0.5281  0.6295
24849SOL    HW176554   4.062   2.010   0.440 -0.6108  0.0664  1.1989
24849SOL    HW276555   3.930   1.968   0.380  0.5695 -1.4099 -0.4279
24850SOL     OW76556   6.070   3.419   6.989  0.6992  0.2724 -0.5781
24850SOL    HW176557   5.997   3.468   6.951  0.4854  0.1408 -0.3413
24850SOL    HW276558   6.133   3.486   7.015 -0.2033  0.5259  1.0474
24851SOL     OW76559   8.358   9.389   4.769 -0.1087  0.0145 -0.8143
24851SOL    HW176560   8.281   9.369   4.716 -1.9456 -1.5315  2.1568
24851SOL    HW276561   8.433   9.367   4.713 -1.7793  0.7746 -3.5161
24852SOL     OW76562   0.455   2.459   6.683 -0.3170 -0.5016  0.1696
24852SOL    HW176563   0.389   2.463   6.615  2.0190  0.7256 -2.2077
24852SOL    HW276564   0.496   2.546   6.682  2.3203 -1.6453  0.4175
24853SOL     OW76565   9.036   0.485   1.896 -0.3779  0.9534 -0.2949
24853SOL    HW176566   8.960   0.484   1.954 -1.7888 -0.1318 -2.0255
24853SOL    HW276567   9.094   0.417   1.930  0.9592  3.2313  2.3241
24854SOL     OW76568  10.760   6.917   5.632 -0.0302  0.2960 -0.5862
24854SOL    HW176569  10.725   6.829   5.624  2.2712 -0.7410 -0.0172
24854SOL    HW276570  10.759   6.952   5.543 -0.5910 -0.4405 -0.8784
24855SOL     OW76571   1.975   6.406   8.600 -0.1615  0.5848  0.0461
24855SOL    HW176572   1.962   6.446   8.514  1.6004  0.5606 -0.2764
24855SOL    HW276573   1.974   6.312   8.584 -0.0347  0.5758  0.0866
24856SOL     OW76574   6.128   1.140   2.334  0.3229  0.4890  0.3898
24856SOL    HW176575   6.144   1.048   2.315  1.8952  0.8866 -0.4952
24856SOL    HW276576   6.210   1.171   2.372 -0.1281  1.5460  0.5443
24857SOL     OW76577   3.521   0.107   2.754  0.1221 -0.1541 -0.5907
24857SOL    HW176578   3.476   0.177   2.802  2.5305  1.3981 -0.4211
24857SOL    HW276579   3.561   0.152   2.680  2.0713 -1.2524 -0.2563
24858SOL     OW76580   2.888   1.253   0.351  0.0801 -0.1860  0.8936
24858SOL    HW176581   2.805   1.246   0.398 -0.7165  0.9056 -0.2579
24858SOL    HW276582   2.946   1.300   0.411 -0.5230  0.0927  1.2746
24859SOL     OW76583   7.212   1.559   6.029 -0.5581  0.6731  0.0765
24859SOL    HW176584   7.281   1.498   6.054 -0.5056  0.9386  0.6097
24859SOL    HW276585   7.133   1.506   6.022 -0.0415  0.0998 -2.0015
24860SOL     OW76586   5.090   3.870   7.492  0.1769  0.0222 -0.5095
24860SOL    HW176587   5.043   3.793   7.461 -1.0960  0.4898  0.2034
24860SOL    HW276588   5.140   3.899   7.416 -2.6737  0.9981 -2.1737
24861SOL     OW76589   7.598   4.233   8.393  0.3031 -0.4626 -0.3137
24861SOL    HW176590   7.529   4.241   8.328  0.0129  1.3295  0.1575
24861SOL    HW276591   7.674   4.275   8.353  0.3489 -0.0597  0.1878
24862SOL     OW76592   1.148   0.327   8.074  0.0280  0.1989  0.7042
24862SOL    HW176593   1.227   0.307   8.024  0.7977 -2.8943  2.8843
24862SOL    HW276594   1.121   0.414   8.042  2.8735  0.3198 -1.8314
24863SOL     OW76595   0.310   5.857   9.119 -0.8661  0.1552  0.0340
24863SOL    HW176596   0.226   5.889   9.086 -0.5528  1.3780  0.3501
24863SOL    HW276597   0.367   5.857   9.043  0.0084  3.4875  0.5107
24864SOL     OW76598   3.265   7.250   1.723 -0.1259  0.4218 -0.4579
24864SOL    HW176599   3.215   7.169   1.715 -0.8470  0.9880 -2.4331
24864SOL    HW276600   3.245   7.283   1.810 -2.3516  0.0605 -0.7935
24865SOL     OW76601   7.779   1.488   6.151  0.1216  0.0492  0.3223
24865SOL    HW176602   7.809   1.405   6.187  1.6602 -0.0971 -1.1717
24865SOL    HW276603   7.801   1.484   6.058  0.2200  2.1096  0.2015
24866SOL     OW76604   1.912   8.790  11.229  0.0147 -0.5422 -0.3661
24866SOL    HW176605   1.864   8.736  11.166 -1.9799  2.3394 -1.5664
24866SOL    HW276606   1.845   8.817  11.293  0.7070  1.1179 -0.2985
24867SOL     OW76607   1.706   8.434   3.130  0.2144 -0.3954 -0.2800
24867SOL    HW176608   1.647   8.406   3.060  0.3405 -0.0902 -0.5122
24867SOL    HW276609   1.653   8.491   3.185 -0.6408 -2.6032  1.3370
24868SOL     OW76610   2.264   6.708   5.763 -0.0479 -0.1917  0.3317
24868SOL    HW176611   2.335   6.762   5.729 -1.4352  0.9119 -0.9690
24868SOL    HW276612   2.305   6.654   5.831  1.7169  1.4105  0.6287
24869SOL     OW76613  10.743   3.842   3.361 -0.1632 -0.2525 -0.1734
24869SOL    HW176614  10.655   3.819   3.330 -0.7612  1.3970  0.1606
24869SOL    HW276615  10.748   3.805   3.449 -0.0725 -1.3545 -0.6379
24870SOL     OW76616   9.117   7.602   1.313 -0.5142  0.0830 -0.3350
24870SOL    HW176617   9.035   7.591   1.360  0.2579 -0.3624  0.9639
24870SOL    HW276618   9.184   7.606   1.382  0.4759  1.2842 -1.3103
24871SOL     OW76619   0.635   7.097   0.297 -0.8025  0.0658 -0.2766
24871SOL    HW176620   0.566   7.164   0.291 -0.4036  0.3836 -1.7191
24871SOL    HW276621   0.716   7.148   0.304 -0.6442 -0.3020  0.6688
24872SOL     OW76622   4.782   9.842   7.124  0.1075  0.5523  0.0452
24872SOL    HW176623   4.699   9.798   7.104 -1.3288  0.8426  4.3563
24872SOL    HW276624   4.782   9.920   7.068 -0.3263 -1.5586 -3.1438
24873SOL     OW76625   1.955   9.633  11.277  0.6282  0.0776  0.1850
24873SOL    HW176626   1.951   9.602  11.186  0.5236  0.6052  0.0060
24873SOL    HW276627   1.886   9.584  11.322  0.7323 -0.2456 -0.0006
24874SOL     OW76628   1.771   5.497  10.312 -0.4926  0.2014  0.5786
24874SOL    HW176629   1.788   5.413  10.354  1.0495  0.1947 -0.0234
24874SOL    HW276630   1.728   5.549  10.380  1.2866 -0.0592  1.9581
24875SOL     OW76631  11.184   0.076   2.494  0.3063 -0.7567 -0.4631
24875SOL    HW176632  11.108   0.020   2.512  0.2576 -0.4929  0.2074
24875SOL    HW276633  11.238   0.069   2.573 -0.2068  0.9327  0.0790
24876SOL     OW76634  10.595   5.215   3.360 -0.6553  0.3767 -0.5553
24876SOL    HW176635  10.619   5.267   3.283 -2.1734  0.9922 -0.6359
24876SOL    HW276636  10.518   5.165   3.333 -2.4511  2.0869  1.1028
24877SOL     OW76637   2.706   7.075   0.777  0.1860  0.0445 -0.1395
24877SOL    HW176638   2.721   7.084   0.871  0.1123 -1.1515 -0.0042
24877SOL    HW276639   2.634   7.012   0.769  0.8291 -0.6128 -1.0138
24878SOL     OW76640  10.591   9.248   2.645 -0.2743  0.2658  0.2009
24878SOL    HW176641  10.627   9.200   2.570 -1.7229 -0.2679 -0.2003
24878SOL    HW276642  10.629   9.206   2.722 -0.6484 -0.8098 -0.1853
24879SOL     OW76643   2.937   8.331   6.126  0.6554  0.4696  0.6250
24879SOL    HW176644   2.916   8.408   6.073  1.6649 -0.1105 -0.6714
24879SOL    HW276645   3.017   8.356   6.173  1.3871  0.0168 -0.3262
24880SOL     OW76646  10.087   3.201   2.201  0.7080  0.6617 -0.0196
24880SOL    HW176647  10.016   3.195   2.265  1.3317  1.2392  0.7445
24880SOL    HW276648  10.092   3.113   2.164 -0.2369  0.5453  0.0912
24881SOL     OW76649  10.061   0.083   8.684  0.0231 -0.1971 -0.7620
24881SOL    HW176650  10.029   0.123   8.765  0.0142  0.5595 -1.1297
24881SOL    HW276651  10.117   0.149   8.645 -0.0105 -0.5345 -1.4025
24882SOL     OW76652   4.998   6.224   8.827  0.1398 -0.8525  0.6460
24882SOL    HW176653   5.063   6.167   8.788 -1.3661 -1.4819 -1.1149
24882SOL    HW276654   4.924   6.166   8.847 -0.3950  0.0402  1.3571
24883SOL     OW76655   5.124  10.565  10.906  0.4138 -0.5374 -0.7728
24883SOL    HW176656   5.138  10.565  11.001  0.7043  0.2068 -0.8130
24883SOL    HW276657   5.201  10.520  10.871 -1.2397 -3.8997 -0.4706
24884SOL     OW76658   7.426   0.134   4.990 -0.2129 -0.2509 -0.0734
24884SOL    HW176659   7.423   0.079   5.069  2.1964  0.1768  0.4123
24884SOL    HW276660   7.347   0.188   4.996 -0.7666 -1.1398  1.3506
24885SOL     OW76661   1.232   1.473   3.515  0.0926 -0.6024 -0.4409
24885SOL    HW176662   1.250   1.561   3.548 -0.9252  0.7826 -3.2723
24885SOL    HW276663   1.292   1.417   3.563  2.3418  1.9322 -0.0462
24886SOL     OW76664  10.863   1.446   9.202 -0.0423  0.5251  0.1313
24886SOL    HW176665  10.913   1.411   9.276  1.3345  1.4372 -0.3320
24886SOL    HW276666  10.809   1.516   9.240 -2.4214 -1.6011  0.9668
24887SOL     OW76667   7.666   2.882   7.229 -0.1769  0.0664 -0.0071
24887SOL    HW176668   7.642   2.858   7.140  0.2619 -1.4626  0.2466
24887SOL    HW276669   7.747   2.933   7.219  0.3733 -0.8548 -0.4603
24888SOL     OW76670   8.336   3.120  11.085  0.0649 -0.6910 -0.3013
24888SOL    HW176671   8.271   3.177  11.046  1.6983  0.7858 -1.0143
24888SOL    HW276672   8.341   3.147  11.177 -0.1018 -0.6088 -0.3176
24889SOL     OW76673   2.760   9.977   5.900 -0.3075 -0.1463  0.1060
24889SOL    HW176674   2.720   9.895   5.872  1.8117  0.1485 -4.9057
24889SOL    HW276675   2.837   9.951   5.950 -1.3394 -0.9953  1.3248
24890SOL     OW76676   8.891   3.830   7.616  0.7996 -0.9025  0.0944
24890SOL    HW176677   8.984   3.847   7.629  0.4836  0.2772  1.0105
24890SOL    HW276678   8.888   3.765   7.545  2.2245  1.0268 -1.8771
24891SOL     OW76679   7.119   6.858  10.108 -0.4170 -0.2763  0.2707
24891SOL    HW176680   7.212   6.877  10.097 -0.6362  0.6718  0.0118
24891SOL    HW276681   7.111   6.765  10.085  1.0531 -1.4095  3.6848
24892SOL     OW76682   0.427   4.017  10.738  0.1003 -0.3119  0.4037
24892SOL    HW176683   0.427   3.921  10.732 -1.6522 -0.2632 -1.4273
24892SOL    HW276684   0.378   4.046  10.661  0.7010  2.0873  0.8413
24893SOL     OW76685   8.760   5.003   1.359  0.3255  0.2622 -0.6118
24893SOL    HW176686   8.698   5.076   1.357 -0.2191 -0.2090 -2.2613
24893SOL    HW276687   8.755   4.971   1.449 -0.6399  1.2271 -0.2889
24894SOL     OW76688   8.217   5.825   4.437  0.3310  0.1494 -0.1334
24894SOL    HW176689   8.155   5.821   4.364 -1.1614 -0.0955  1.1058
24894SOL    HW276690   8.303   5.831   4.395 -0.5352  0.8111 -1.8980
24895SOL     OW76691   1.655   6.884   1.198  0.6287  0.2626 -0.0904
24895SOL    HW176692   1.598   6.959   1.180  0.6190  0.7983  1.9168
24895SOL    HW276693   1.742   6.923   1.207  1.1387 -0.3801 -1.8448
24896SOL     OW76694   2.476   9.375   5.443  0.0361 -0.3008 -0.3905
24896SOL    HW176695   2.553   9.344   5.489  0.8669  0.7312 -1.0338
24896SOL    HW276696   2.458   9.308   5.376  0.1515 -0.7134 -0.0104
24897SOL     OW76697   4.298   2.163   8.378 -0.1604 -0.0198  0.3153
24897SOL    HW176698   4.228   2.226   8.366  0.9278  0.9813 -1.0976
24897SOL    HW276699   4.363   2.185   8.312  1.1703 -1.3779  1.0795
24898SOL     OW76700   5.427   1.549   7.632 -0.6269 -0.2610 -0.2732
24898SOL    HW176701   5.392   1.491   7.564 -0.3407 -1.4939  0.6106
24898SOL    HW276702   5.518   1.520   7.643 -0.1653  1.0269 -0.5170
24899SOL     OW76703  10.571   5.511   5.798  0.2534 -0.2735 -0.2698
24899SOL    HW176704  10.666   5.495   5.799  0.2528 -0.2655 -0.0625
24899SOL    HW276705  10.532   5.425   5.782  0.3967  0.1473 -3.5926
24900SOL     OW76706   7.522   2.852   2.732 -0.5090 -0.1674  0.3880
24900SOL    HW176707   7.454   2.792   2.765 -0.6306  1.2176  2.9424
24900SOL    HW276708   7.475   2.934   2.715  0.4178  0.7977  2.1579
24901SOL     OW76709   4.695   4.317   5.567 -0.6546 -0.1929  0.1380
24901SOL    HW176710   4.687   4.322   5.662  0.1028  1.4207  0.1436
24901SOL    HW276711   4.623   4.260   5.540  0.0509 -1.9923  1.7854
24902SOL     OW76712   2.913   7.849   5.922  0.1055 -0.0004  0.1224
24902SOL    HW176713   2.866   7.825   6.002 -0.5070 -3.0345 -1.0271
24902SOL    HW276714   3.004   7.859   5.951  0.1302 -2.2956  1.0863
24903SOL     OW76715   5.111   1.498  10.481 -0.1040 -0.5844 -0.2059
24903SOL    HW176716   5.159   1.441  10.541 -0.0865 -1.8268 -1.3400
24903SOL    HW276717   5.157   1.582  10.485  1.5107 -1.4220 -0.4591
24904SOL     OW76718   1.325  10.028  10.512 -0.6553  0.5423  0.6329
24904SOL    HW176719   1.279   9.946  10.494 -1.4658  1.1911 -0.3917
24904SOL    HW276720   1.273  10.095  10.467  0.4288  1.5169  0.7776
24905SOL     OW76721   2.219  10.665   2.628  0.0857 -0.0106  1.1318
24905SOL    HW176722   2.233  10.626   2.542  1.0484  0.4617  1.0585
24905SOL    HW276723   2.138  10.625   2.660 -1.4922  1.3609 -0.8810
24906SOL     OW76724   3.231   1.661   3.042  0.0529 -0.3674  0.6344
24906SOL    HW176725   3.261   1.749   3.066 -1.6421 -0.2414  2.5382
24906SOL    HW276726   3.166   1.676   2.973  1.4617 -0.3786 -0.7791
24907SOL     OW76727   0.801   8.681   1.399  0.2217 -0.0846  0.1866
24907SOL    HW176728   0.761   8.606   1.355  2.8094 -1.6032  0.2360
24907SOL    HW276729   0.818   8.651   1.488  3.7089 -0.5358 -0.4832
24908SOL     OW76730   5.656   2.643   8.192 -0.6197 -0.2403  0.0958
24908SOL    HW176731   5.595   2.705   8.230  0.0025  0.9507 -0.7680
24908SOL    HW276732   5.615   2.557   8.205 -1.4565  0.3211  1.3930
24909SOL     OW76733  10.337   3.231   7.500 -0.3848 -0.2564  0.0028
24909SOL    HW176734  10.335   3.309   7.444 -4.0723 -0.1537  0.0871
24909SOL    HW276735  10.331   3.158   7.439 -0.5363 -0.3258  0.1015
24910SOL     OW76736   7.240   0.895   0.290  0.4104 -0.7919  0.7461
24910SOL    HW176737   7.280   0.925   0.208  0.8663  0.2161  1.3215
24910SOL    HW276738   7.257   0.801   0.291  3.3851 -0.3437  1.2555
24911SOL     OW76739   7.065   1.623   5.384  0.3754  0.3414 -0.0869
24911SOL    HW176740   6.984   1.672   5.373  0.2462  0.1568  0.0357
24911SOL    HW276741   7.069   1.604   5.478 -0.1314 -0.8364 -0.2973
24912SOL     OW76742   4.920   6.141   2.965  0.2521  0.0199  0.2104
24912SOL    HW176743   4.887   6.179   2.883  0.4195 -1.0968 -0.3877
24912SOL    HW276744   4.998   6.192   2.985  0.3353  0.1623 -0.4470
24913SOL     OW76745   4.099   6.142  10.421 -0.1766 -0.2137 -0.5176
24913SOL    HW176746   4.081   6.178  10.335 -0.8291 -0.5010 -0.5031
24913SOL    HW276747   4.130   6.216  10.473  0.2375 -0.0453 -1.0021
24914SOL     OW76748   2.687   9.345  10.984  1.2154 -0.0573  0.7768
24914SOL    HW176749   2.637   9.409  10.933  1.3866  0.7100  1.5596
24914SOL    HW276750   2.660   9.359  11.074  1.7239 -0.6660  1.0295
24915SOL     OW76751   3.229   1.417   8.892  0.4692 -0.6389 -0.2241
24915SOL    HW176752   3.161   1.383   8.950  1.2603 -1.6536  0.1292
24915SOL    HW276753   3.301   1.441   8.951  0.3670  0.6091 -0.5768
24916SOL     OW76754  10.917  10.868   1.909  0.6069  0.4751  0.1650
24916SOL    HW176755  10.825  10.892   1.900  0.1060  1.2459  5.0221
24916SOL    HW276756  10.916  10.773   1.916  0.2700  0.4523 -0.1346
24917SOL     OW76757   3.179   0.295   2.927 -0.2298  0.3304  0.2465
24917SOL    HW176758   3.165   0.385   2.954  0.3254  1.0338 -1.6621
24917SOL    HW276759   3.143   0.290   2.838 -1.2888 -1.6461  0.7253
24918SOL     OW76760   8.685   5.761   7.406 -0.3696 -0.2235 -0.3903
24918SOL    HW176761   8.768   5.756   7.359 -0.7866 -0.5545 -1.1108
24918SOL    HW276762   8.689   5.843   7.455  0.0482  0.1527 -1.0532
24919SOL     OW76763   7.813   2.112   4.467 -0.3951 -0.1449  0.0815
24919SOL    HW176764   7.906   2.104   4.488 -0.1617 -0.1954 -0.9350
24919SOL    HW276765   7.803   2.065   4.384 -1.0364  1.1663 -0.6039
24920SOL     OW76766   3.249   7.212   2.438 -0.4482 -0.3937 -0.0924
24920SOL    HW176767   3.283   7.297   2.412  0.2224 -0.2194  1.2575
24920SOL    HW276768   3.224   7.224   2.530 -0.0462 -1.7425  0.2083
24921SOL     OW76769   5.508   3.474   4.000  0.3681 -0.3572 -0.5594
24921SOL    HW176770   5.474   3.385   4.009 -4.4690  1.2909  0.5431
24921SOL    HW276771   5.475   3.504   3.915  2.5491  0.2566 -1.2478
24922SOL     OW76772   1.991   5.531   9.225 -0.5660 -0.5534  0.0499
24922SOL    HW176773   2.002   5.542   9.320 -0.7101  0.0624  0.0031
24922SOL    HW276774   2.075   5.559   9.188 -1.3659  1.8476 -0.1545
24923SOL     OW76775   1.669   7.552   3.313  0.1366  0.2021 -0.0178
24923SOL    HW176776   1.762   7.548   3.294  0.2803  1.6867  0.2642
24923SOL    HW276777   1.664   7.580   3.405 -0.5634  1.1871 -0.3323
24924SOL     OW76778   9.212   0.603   4.128  0.0356 -0.2778 -0.0439
24924SOL    HW176779   9.294   0.646   4.153  0.3260  0.3778 -1.9228
24924SOL    HW276780   9.235   0.553   4.049 -1.4608  0.2809 -0.8773
24925SOL     OW76781   6.001   6.435   1.315  0.0216  0.0061 -0.3435
24925SOL    HW176782   6.078   6.458   1.368 -0.4112 -2.0187  1.2763
24925SOL    HW276783   5.965   6.519   1.288 -0.0237  1.2226  3.0566
24926SOL     OW76784   8.024   2.613   8.223 -0.3443 -0.1978  0.4749
24926SOL    HW176785   8.034   2.706   8.203 -1.1351 -0.1747  0.1438
24926SOL    HW276786   7.937   2.607   8.264 -0.9615 -0.9859 -0.8730
24927SOL     OW76787   7.774   6.621   7.420 -0.3994  0.0961  0.4441
24927SOL    HW176788   7.708   6.561   7.384 -0.7838  0.6500  0.2227
24927SOL    HW276789   7.745   6.636   7.510 -1.3275  1.3671 -0.0310
24928SOL     OW76790   5.116   0.730   6.940 -0.1053  0.1950  0.3138
24928SOL    HW176791   5.143   0.737   7.031  1.4246 -0.5684 -0.0483
24928SOL    HW276792   5.157   0.650   6.908 -1.1587  0.0808 -0.8764
24929SOL     OW76793   5.874   1.299   2.358 -0.4854 -0.6046  0.3442
24929SOL    HW176794   5.831   1.220   2.392 -0.5964 -0.7903 -0.2227
24929SOL    HW276795   5.963   1.271   2.338 -0.0523 -0.1912  1.6239
24930SOL     OW76796   1.934   7.923   7.515 -0.3557 -0.1524  0.1804
24930SOL    HW176797   1.940   7.949   7.608 -0.8045  0.4995  0.0402
24930SOL    HW276798   2.022   7.937   7.481 -0.8155  2.5083 -0.1852
24931SOL     OW76799  10.129   3.524   4.141  0.2835 -0.6323 -0.1100
24931SOL    HW176800  10.145   3.493   4.052 -1.0818  0.5810 -0.8166
24931SOL    HW276801  10.047   3.482   4.167  0.1866 -0.2592  0.2005
24932SOL     OW76802   9.579   6.022   8.497  0.3486  0.3455 -0.1175
24932SOL    HW176803   9.629   5.941   8.481  1.0306  0.5574  0.8315
24932SOL    HW276804   9.491   6.001   8.468  0.7114 -0.4557 -0.7032
24933SOL     OW76805   1.965   8.665   2.995 -0.4907 -0.0599  0.7089
24933SOL    HW176806   1.997   8.589   3.044 -2.0627 -2.4960 -1.7409
24933SOL    HW276807   1.902   8.706   3.054 -1.9069 -2.5541  1.0936
24934SOL     OW76808  10.035   1.995   8.815 -0.6507 -0.3739  0.1770
24934SOL    HW176809   9.943   1.989   8.789 -0.5044 -0.4375 -0.3421
24934SOL    HW276810  10.033   2.035   8.902 -1.1534 -0.1098  0.0499
24935SOL     OW76811   3.203   9.446   7.591  0.3381 -0.3368 -0.0932
24935SOL    HW176812   3.135   9.484   7.535 -0.1927  1.0628  1.4324
24935SOL    HW276813   3.155   9.401   7.661  0.9790 -0.3194  0.3664
24936SOL     OW76814   0.182  10.042   1.084 -0.1352 -0.3393  0.2443
24936SOL    HW176815   0.215   9.952   1.077 -0.7478 -0.7220  1.7601
24936SOL    HW276816   0.245  10.086   1.140 -0.7570 -0.3304  0.9508
24937SOL     OW76817   7.990   2.131   5.886 -0.0369  0.2440  0.5315
24937SOL    HW176818   7.941   2.102   5.809 -0.1208 -0.5253  0.8566
24937SOL    HW276819   8.001   2.225   5.874  1.2765 -0.0718 -1.1626
24938SOL     OW76820   2.993   3.183  11.127 -0.7263  0.0362 -0.3924
24938SOL    HW176821   2.919   3.187  11.187 -1.8215 -0.8360 -1.6146
24938SOL    HW276822   2.983   3.259  11.071  0.3870  0.9403  0.5791
24939SOL     OW76823   6.732   8.343   5.930  0.1281  0.2827 -0.2989
24939SOL    HW176824   6.655   8.286   5.926 -0.2658  0.8304 -0.6410
24939SOL    HW276825   6.697   8.431   5.922  0.8782  0.4937 -1.5863
24940SOL     OW76826   5.787   5.909   9.692  0.3064  0.2043  0.0575
24940SOL    HW176827   5.790   6.001   9.667 -1.7672 -0.2333 -2.2005
24940SOL    HW276828   5.707   5.875   9.651  3.0355 -3.5807 -2.9563
24941SOL     OW76829   5.219   9.460   9.650  0.1064  0.3271 -0.2317
24941SOL    HW176830   5.158   9.460   9.724 -1.8681  0.4588 -1.7870
24941SOL    HW276831   5.211   9.547   9.612  1.8273  0.5845 -0.0633
24942SOL     OW76832   7.877   7.825   9.253 -0.3797  0.4115 -0.1208
24942SOL    HW176833   7.859   7.744   9.205 -1.1665 -0.3399  1.3626
24942SOL    HW276834   7.914   7.884   9.187 -2.4654 -0.1449 -1.9330
24943SOL     OW76835   1.091   2.645   0.392 -0.2712  0.2323  0.4061
24943SOL    HW176836   1.024   2.710   0.370  0.7832  1.3439  0.4345
24943SOL    HW276837   1.174   2.687   0.373  0.6181  0.2381  3.6921
24944SOL     OW76838   5.804   0.223   4.689 -0.0318 -0.5439  0.0552
24944SOL    HW176839   5.815   0.129   4.693 -0.9104 -0.8761 -2.6895
24944SOL    HW276840   5.719   0.235   4.647 -0.7540  1.5296  1.8994
24945SOL     OW76841   5.689   5.779   4.473 -0.1424 -0.3635 -0.0846
24945SOL    HW176842   5.708   5.812   4.385 -0.3794  0.2261  0.0786
24945SOL    HW276843   5.639   5.849   4.514 -0.1689 -0.7023  0.4699
24946SOL     OW76844   7.389   5.632  10.636 -0.2246 -0.0816 -0.8884
24946SOL    HW176845   7.479   5.602  10.628 -0.4951 -1.4269  0.7132
24946SOL    HW276846   7.394   5.710  10.692 -0.0599 -0.1277 -0.8401
24947SOL     OW76847   8.896   5.666   6.400 -0.6882  0.2932  0.5741
24947SOL    HW176848   8.914   5.584   6.355 -1.2998  0.1276  0.6175
24947SOL    HW276849   8.806   5.656   6.433 -1.4947  1.7042 -1.0656
24948SOL     OW76850   3.622   3.308   5.201 -0.1212  0.4958 -0.1208
24948SOL    HW176851   3.594   3.238   5.142 -1.1565  2.8680 -2.7254
24948SOL    HW276852   3.555   3.310   5.270 -0.9904 -0.0383 -0.9264
24949SOL     OW76853   5.787   8.923  10.781 -0.1037 -0.2160 -0.5413
24949SOL    HW176854   5.815   8.852  10.839 -0.6273  0.1693  0.2008
24949SOL    HW276855   5.779   8.999  10.839 -2.1140 -0.1663 -0.7978
24950SOL     OW76856   2.729   5.376   0.320 -0.0338  0.5995 -0.7795
24950SOL    HW176857   2.775   5.390   0.403 -0.9209 -0.2842 -0.1225
24950SOL    HW276858   2.772   5.300   0.281 -1.0979 -0.4292 -0.0124
24951SOL     OW76859   1.712   7.858   8.633  0.1315  0.4725 -0.0072
24951SOL    HW176860   1.757   7.823   8.710 -0.1401  2.0100  0.9123
24951SOL    HW276861   1.754   7.815   8.559 -0.9229 -2.5727  1.0218
24952SOL     OW76862   3.374   0.831   8.761 -0.4022  1.1479  0.0381
24952SOL    HW176863   3.387   0.757   8.821  0.4148  1.6001  0.4478
24952SOL    HW276864   3.404   0.799   8.676  0.7458  1.2447  0.3820
24953SOL     OW76865   1.362   4.002   0.984  0.4467  0.1561 -0.3146
24953SOL    HW176866   1.381   3.922   1.033  1.0469 -0.0552 -0.8720
24953SOL    HW276867   1.274   4.026   1.011  0.4751 -0.3750  0.2933
24954SOL     OW76868   9.833  10.334   1.484  0.2751  0.3244  0.4125
24954SOL    HW176869   9.776  10.347   1.559 -1.0990  1.0392 -0.7014
24954SOL    HW276870   9.810  10.248   1.450 -0.4218  0.7522 -0.2374
24955SOL     OW76871   1.561  10.179   3.226  1.0434  0.5212  0.1581
24955SOL    HW176872   1.634  10.207   3.171 -0.7552  2.9806 -1.1818
24955SOL    HW276873   1.507  10.124   3.169 -0.5039  2.5685 -0.4980
24956SOL     OW76874   7.562   6.123   9.713 -0.4848 -0.0567 -0.7345
24956SOL    HW176875   7.636   6.132   9.774 -2.0729 -0.4007  1.3868
24956SOL    HW276876   7.602   6.117   9.627  1.8963  0.7475  0.2325
24957SOL     OW76877  10.381   3.365   4.782  0.2193  0.5141 -0.0090
24957SOL    HW176878  10.389   3.460   4.768 -0.8989  0.2463 -3.3115
24957SOL    HW276879  10.305   3.340   4.731 -0.2519 -2.0699  1.7807
24958SOL     OW76880  11.023   0.233   7.390 -1.1073 -0.7654 -0.3974
24958SOL    HW176881  10.975   0.157   7.423  0.0715 -1.4560 -0.2347
24958SOL    HW276882  11.112   0.202   7.376 -0.9854  0.1435 -1.9238
24959SOL     OW76883   3.815   1.194   9.966 -0.4833 -1.0831  0.0690
24959SOL    HW176884   3.891   1.135   9.968  0.6217  0.2925  0.9368
24959SOL    HW276885   3.831   1.255  10.038 -2.2108 -0.4866 -0.0221
24960SOL     OW76886   2.109   3.884   0.857 -0.8361 -0.3802 -0.0144
24960SOL    HW176887   2.191   3.925   0.830 -1.7637  0.5075 -1.6906
24960SOL    HW276888   2.057   3.878   0.776 -1.3511 -3.5696  0.4163
24961SOL     OW76889   6.790   9.288   1.196 -0.3235  0.1563  0.3648
24961SOL    HW176890   6.814   9.253   1.281 -0.2410 -0.2876  0.1647
24961SOL    HW276891   6.816   9.220   1.134 -1.3875 -0.0081  0.0783
24962SOL     OW76892  10.793   8.779   6.761 -0.2278  0.3201 -0.9648
24962SOL    HW176893  10.706   8.788   6.724 -0.8454  1.8838  0.7450
24962SOL    HW276894  10.852   8.801   6.689 -1.2232 -0.6037 -2.0948
24963SOL     OW76895   5.984   4.671   6.720 -0.1003 -0.5234 -0.3094
24963SOL    HW176896   6.012   4.700   6.807 -0.8694 -0.3006 -0.1363
24963SOL    HW276897   5.948   4.583   6.734  0.7983 -0.9512 -0.5881
24964SOL     OW76898   0.156   7.570   6.758  0.0088  0.3988  0.2057
24964SOL    HW176899   0.139   7.481   6.788  1.2404  0.9909  2.9152
24964SOL    HW276900   0.227   7.561   6.695 -0.1813 -0.5565  0.1178
24965SOL     OW76901   0.334   9.228   9.632 -0.6645  0.7053  0.5729
24965SOL    HW176902   0.308   9.174   9.706 -1.1527  1.2518  0.8001
24965SOL    HW276903   0.368   9.309   9.671  1.3542  0.0552  0.2948
24966SOL     OW76904   0.810   8.108   5.278 -0.6652 -0.3139  0.2577
24966SOL    HW176905   0.823   8.172   5.347  0.4138 -1.3576  1.0547
24966SOL    HW276906   0.769   8.157   5.207 -0.4307  1.1051  1.0750
24967SOL     OW76907   5.903   7.688   7.393  0.2718 -0.1808  0.0812
24967SOL    HW176908   5.945   7.702   7.308  0.2025 -0.8677 -0.0756
24967SOL    HW276909   5.869   7.598   7.388 -2.7977  0.8636 -0.5169
24968SOL     OW76910   9.841   3.173   0.209 -0.5568 -0.6577 -0.6022
24968SOL    HW176911   9.818   3.105   0.272  0.1167 -0.2809  0.0765
24968SOL    HW276912   9.775   3.167   0.140 -1.2640 -1.1337  0.1078
24969SOL     OW76913   6.539   9.335   2.134 -0.1166  0.4652 -0.4056
24969SOL    HW176914   6.503   9.364   2.218 -0.8014  1.6236 -1.0746
24969SOL    HW276915   6.470   9.281   2.095 -0.2833  0.9220 -0.7487
24970SOL     OW76916   1.218   3.322   8.900  0.9206  0.0454  0.0795
24970SOL    HW176917   1.288   3.256   8.902  0.4128 -0.4871  0.5679
24970SOL    HW276918   1.265   3.405   8.908  1.4486 -0.3551  1.5296
24971SOL     OW76919   4.389   4.014   8.792 -0.0846 -0.0015  0.0310
24971SOL    HW176920   4.407   3.928   8.754 -0.4880  0.3666 -1.0524
24971SOL    HW276921   4.304   4.005   8.834 -0.1344 -0.1364 -0.0966
24972SOL     OW76922   4.962   8.763   4.819 -0.7323 -0.4969 -0.3195
24972SOL    HW176923   5.041   8.732   4.776 -0.1829 -0.8265  0.8815
24972SOL    HW276924   4.931   8.836   4.765  0.3691 -0.3844 -0.8073
24973SOL     OW76925   5.636   3.462   0.040  0.3705  0.0387  0.4847
24973SOL    HW176926   5.725   3.468   0.004  0.8418 -0.2379  1.5655
24973SOL    HW276927   5.579   3.468  -0.037  1.2660  1.4791 -0.1189
24974SOL     OW76928   6.691   9.338   8.842  0.4385 -0.3710 -0.3385
24974SOL    HW176929   6.626   9.267   8.843  0.2989 -0.3241  2.3002
24974SOL    HW276930   6.656   9.402   8.780  0.1023 -2.1361 -2.0972
24975SOL     OW76931   7.993   4.620  10.163 -0.3721  0.5321  0.8580
24975SOL    HW176932   7.988   4.535  10.207  1.0733 -0.5256 -0.8918
24975SOL    HW276933   8.082   4.624  10.130 -1.2777  1.3983 -1.6856
24976SOL     OW76934   8.425   8.156   4.283 -0.0687  0.3448 -0.0254
24976SOL    HW176935   8.485   8.149   4.209 -0.6805  0.7476 -0.5761
24976SOL    HW276936   8.413   8.250   4.295 -0.5028  0.2693  0.1471
24977SOL     OW76937   8.677   1.793   0.329  0.2471 -0.4905  0.5988
24977SOL    HW176938   8.694   1.699   0.333  0.9039 -0.4111 -0.0905
24977SOL    HW276939   8.620   1.810   0.404 -0.7049 -1.6011  0.1681
24978SOL     OW76940   4.254   7.912   0.222  0.2727 -0.0263  1.1840
24978SOL    HW176941   4.193   7.986   0.220 -0.8726 -0.9425  0.6582
24978SOL    HW276942   4.302   7.919   0.140 -0.6558 -0.4981  0.5784
24979SOL     OW76943   0.523   2.486   3.345 -0.4459 -0.3388 -0.0209
24979SOL    HW176944   0.532   2.515   3.436 -1.7534 -0.1088  0.0604
24979SOL    HW276945   0.526   2.390   3.351 -0.8987 -0.3397  0.3286
24980SOL     OW76946  10.275   6.206   1.627  0.6754 -0.0071 -0.0884
24980SOL    HW176947  10.283   6.187   1.720  0.1411  0.8255  0.1309
24980SOL    HW276948  10.283   6.120   1.585 -0.1307 -0.5324  0.7809
24981SOL     OW76949   5.295   1.525   0.272  0.3671 -0.1674  0.4710
24981SOL    HW176950   5.275   1.432   0.282  0.0593 -0.2580 -0.8731
24981SOL    HW276951   5.353   1.529   0.196 -1.5769  0.9696 -1.0170
24982SOL     OW76952   8.265   5.030   5.989 -0.1981 -0.2101 -0.1048
24982SOL    HW176953   8.286   4.947   6.031 -1.4167  0.5534  2.1626
24982SOL    HW276954   8.219   5.006   5.909  1.3494 -1.7150 -0.5912
24983SOL     OW76955   3.852   5.151   4.268 -0.9243  0.2860 -0.1829
24983SOL    HW176956   3.905   5.073   4.279 -3.5758 -1.5042  0.9339
24983SOL    HW276957   3.836   5.158   4.174 -0.0112 -0.0153 -0.3655
24984SOL     OW76958   4.292  10.646   0.800 -0.2098  0.2300  0.3133
24984SOL    HW176959   4.307  10.553   0.816  3.6739  0.2392 -2.1438
24984SOL    HW276960   4.273  10.653   0.707 -1.1466  1.8931  0.5749
24985SOL     OW76961   2.522   7.478   2.236  0.1050  0.0990  0.1587
24985SOL    HW176962   2.581   7.496   2.309  0.6945 -1.6639  0.1637
24985SOL    HW276963   2.439   7.456   2.277  0.8771 -2.5838  0.4713
24986SOL     OW76964   8.446   9.327   9.946 -0.6014  0.3141 -0.0864
24986SOL    HW176965   8.448   9.252  10.005 -1.1168 -0.3398 -0.8883
24986SOL    HW276966   8.382   9.386   9.985 -0.6601  0.0605  0.2042
24987SOL     OW76967   5.860   8.176   3.274  0.1922  0.1455  0.6054
24987SOL    HW176968   5.835   8.127   3.351 -0.0681 -0.3694  0.1990
24987SOL    HW276969   5.893   8.260   3.308 -0.2131  0.0492  1.2484
24988SOL     OW76970  11.154   8.952   4.511 -0.2012  0.1857  0.4791
24988SOL    HW176971  11.109   8.998   4.440  2.0748  1.9979  0.0431
24988SOL    HW276972  11.098   8.965   4.587 -1.1132  1.1083 -0.3071
24989SOL     OW76973   8.073   1.833   1.539  0.0815 -0.0292  0.1092
24989SOL    HW176974   8.137   1.893   1.577  1.7798 -0.9571 -1.1277
24989SOL    HW276975   7.999   1.889   1.515  2.5033  2.2177 -3.2293
24990SOL     OW76976   3.710   7.319   8.861 -0.5589  0.0265  0.2213
24990SOL    HW176977   3.798   7.343   8.832 -1.3787  0.6323 -1.9063
24990SOL    HW276978   3.692   7.379   8.934 -0.1981  1.7532 -1.0471
24991SOL     OW76979   1.947   8.007   0.359 -0.2084 -0.0310 -0.0341
24991SOL    HW176980   1.883   7.947   0.321 -0.4347  0.9314 -1.2519
24991SOL    HW276981   1.898   8.088   0.373  0.5571  0.5013 -0.3396
24992SOL     OW76982   4.707  10.920   6.543  0.0044 -0.5081 -0.0632
24992SOL    HW176983   4.688  10.852   6.607  0.3305 -0.5294  0.0091
24992SOL    HW276984   4.708  11.002   6.593 -0.2489 -0.4652 -0.1269
24993SOL     OW76985   3.093  10.306   0.808  1.0408  0.3366 -0.2077
24993SOL    HW176986   3.098  10.240   0.877  0.0265  1.1763  0.7105
24993SOL    HW276987   3.131  10.264   0.731  2.4621 -0.5309  0.9163
24994SOL     OW76988   6.989   5.063   1.766  0.0619 -0.6254  0.0719
24994SOL    HW176989   7.076   5.078   1.802 -1.0421  1.8834  1.9985
24994SOL    HW276990   7.000   5.071   1.671  1.7312  0.9612  0.3518
24995SOL     OW76991   0.346   5.347   2.943  0.4208  0.8286  0.1002
24995SOL    HW176992   0.268   5.358   2.889  0.0001 -1.9801 -0.0274
24995SOL    HW276993   0.419   5.353   2.881  0.3731  3.3550  0.2042
24996SOL     OW76994   7.164   0.134   7.123 -0.2455 -0.4550 -0.0947
24996SOL    HW176995   7.069   0.139   7.114 -0.4767 -1.2357  1.5851
24996SOL    HW276996   7.194   0.224   7.116 -1.0093 -0.2899 -1.4754
24997SOL     OW76997   8.622   8.296   2.447 -1.0090  0.1343  0.1877
24997SOL    HW176998   8.675   8.288   2.367 -1.6565  0.2476 -0.2599
24997SOL    HW276999   8.544   8.344   2.419 -2.2810 -1.7158  0.3824
24998SOL     OW77000   4.543   3.446   3.628  0.3578 -0.5771  0.4634
24998SOL    HW177001   4.569   3.494   3.550  0.4461 -1.8491 -0.3264
24998SOL    HW277002   4.562   3.354   3.607 -1.5533 -1.1793  1.1673
24999SOL     OW77003   5.381   1.139   3.186 -0.0706 -0.8576 -0.1859
24999SOL    HW177004   5.465   1.169   3.221 -0.1221  0.5810 -1.1883
24999SOL    HW277005   5.349   1.076   3.250  1.3431 -0.7464  0.6746
25000SOL     OW77006   0.229   3.569   6.266  0.0589  0.6066 -0.1081
25000SOL    HW177007   0.234   3.642   6.327 -1.4711  0.7153 -0.0805
25000SOL    HW277008   0.319   3.560   6.233  1.2141 -0.2300  2.9708
25001SOL     OW77009  10.392   7.338   7.589  0.1210  0.7255  0.0473
25001SOL    HW177010  10.322   7.290   7.633  0.5709 -0.0593 -0.0741
25001SOL    HW277011  10.377   7.321   7.496  1.1417 -0.4187  0.0677
25002SOL     OW77012   8.797   2.661  10.439 -0.3071 -0.3962  0.1867
25002SOL    HW177013   8.880   2.697  10.406  1.5066 -1.7031  2.9113
25002SOL    HW277014   8.771   2.596  10.374  1.1609 -0.4315 -0.4064
25003SOL     OW77015   8.450   4.760   6.875  0.1289 -0.2004 -0.2827
25003SOL    HW177016   8.544   4.752   6.889 -0.1733 -1.4837  1.1883
25003SOL    HW277017   8.418   4.670   6.870 -0.8606  0.1902 -2.2247
25004SOL     OW77018   0.781   7.400   0.599  0.2109 -0.2973  0.7450
25004SOL    HW177019   0.872   7.428   0.591  0.0472  0.8212  2.4298
25004SOL    HW277020   0.731   7.481   0.598 -0.9215 -0.9334 -1.2896
25005SOL     OW77021   7.367   9.650   6.061  0.0557  0.6966 -0.0183
25005SOL    HW177022   7.456   9.619   6.043  0.1508  0.9875 -0.0447
25005SOL    HW277023   7.353   9.628   6.153  0.9671  2.6038  0.6177
25006SOL     OW77024   4.155   7.830   4.570 -0.1477 -0.3071 -0.5384
25006SOL    HW177025   4.060   7.844   4.574  0.0284  4.7114 -4.1478
25006SOL    HW277026   4.192   7.903   4.620  1.8720 -1.3198 -0.4456
25007SOL     OW77027   0.100   8.293   7.702 -0.2457  0.1527  0.7297
25007SOL    HW177028   0.140   8.208   7.719 -0.1989 -0.5228 -2.1566
25007SOL    HW277029   0.011   8.285   7.736  0.6363  0.1277  3.2536
25008SOL     OW77030   8.209   7.669   8.483  0.0350  0.1566  0.2842
25008SOL    HW177031   8.196   7.763   8.494 -3.3212 -0.1731  0.0801
25008SOL    HW277032   8.208   7.634   8.573  0.9749  0.2474  0.3411
25009SOL     OW77033   5.767  10.786   5.449  0.5282 -0.0184  0.2421
25009SOL    HW177034   5.738  10.774   5.359  2.2487  1.1612 -0.5247
25009SOL    HW277035   5.698  10.839   5.490  0.2508  0.3509 -0.6916
25010SOL     OW77036   1.535   0.276  10.787  0.7437  0.4546  0.4277
25010SOL    HW177037   1.475   0.350  10.795  0.1951 -0.0900  1.5851
25010SOL    HW277038   1.494   0.206  10.838  1.5127 -0.4858 -0.2064
25011SOL     OW77039   1.750   6.253   2.456  0.2346 -0.0070 -0.6776
25011SOL    HW177040   1.756   6.332   2.508  0.4687 -1.1703  1.1537
25011SOL    HW277041   1.818   6.262   2.389  0.4669  1.1847 -0.2953
25012SOL     OW77042   3.319   2.961   8.510 -0.3620  0.2013  0.0563
25012SOL    HW177043   3.377   2.913   8.451  0.6961 -1.2523  2.1522
25012SOL    HW277044   3.242   2.905   8.519 -1.8792  1.7830 -2.1312
25013SOL     OW77045   7.328  10.297   0.124 -0.2121 -0.8096 -1.1758
25013SOL    HW177046   7.390  10.224   0.125  0.3551 -0.3956  1.2702
25013SOL    HW277047   7.255  10.266   0.177 -0.7778 -0.2326 -1.6029
25014SOL     OW77048   8.339  11.032  10.580  0.7535  0.3861 -0.4265
25014SOL    HW177049   8.368  10.944  10.558 -0.8431 -0.4340  0.5529
25014SOL    HW277050   8.307  11.068  10.497  2.1516  0.3784 -0.9912
25015SOL     OW77051   1.679   8.459   4.317  0.3996 -0.4448  0.3437
25015SOL    HW177052   1.725   8.511   4.251 -0.8663 -0.7474 -0.8199
25015SOL    HW277053   1.587   8.480   4.305  0.1374 -0.3091  2.2258
25016SOL     OW77054   0.216   5.952   3.575  0.6775  0.2441  0.2159
25016SOL    HW177055   0.268   5.926   3.651  0.6726 -2.8811 -0.6707
25016SOL    HW277056   0.225   5.878   3.515  0.9019  2.6621 -2.9838
25017SOL     OW77057   4.145   4.156   7.318  0.6154  0.8153  0.4060
25017SOL    HW177058   4.062   4.123   7.351 -0.5170  4.0413  1.0557
25017SOL    HW277059   4.121   4.218   7.249  2.6512 -0.1091 -1.2695
25018SOL     OW77060   6.564   7.371   9.838 -0.5765 -0.3526 -0.2746
25018SOL    HW177061   6.575   7.460   9.872 -0.7689 -0.0736 -0.9445
25018SOL    HW277062   6.649   7.351   9.798  0.2441 -1.3122  1.7686
25019SOL     OW77063   4.614   5.171   3.401 -0.0429  0.2753  0.0271
25019SOL    HW177064   4.618   5.239   3.333 -0.1568 -0.8075 -1.1136
25019SOL    HW277065   4.669   5.100   3.366  2.0653  0.6718  2.2842
25020SOL     OW77066   6.731  10.586  10.744 -0.4686 -0.3095  0.5336
25020SOL    HW177067   6.822  10.591  10.772 -0.3206  2.1133 -0.2270
25020SOL    HW277068   6.683  10.641  10.806 -0.9747  0.6547 -0.6705
25021SOL     OW77069  10.392   7.505   2.357 -0.3787 -0.2279  0.3740
25021SOL    HW177070  10.465   7.529   2.415 -0.3492  0.1215  0.1908
25021SOL    HW277071  10.335   7.452   2.413 -0.7177  0.7017  0.9421
25022SOL     OW77072   4.629   2.291  10.037  0.0941 -0.0561  0.6011
25022SOL    HW177073   4.534   2.284  10.051  0.0058  0.4172  0.2803
25022SOL    HW277074   4.640   2.376   9.994  0.6475 -0.1940  0.4667
25023SOL     OW77075   7.930   9.204  10.928  0.3540 -0.6498  0.4322
25023SOL    HW177076   7.943   9.218  10.834 -0.9103  1.4135  0.5108
25023SOL    HW277077   7.943   9.110  10.940  1.7301 -0.7865 -1.5927
25024SOL     OW77078   1.690   3.412   8.425  0.5000 -0.0984 -0.2189
25024SOL    HW177079   1.682   3.361   8.506  0.0940  1.3481  0.7045
25024SOL    HW277080   1.776   3.387   8.390 -0.5681 -3.0160 -1.0312
25025SOL     OW77081   2.306   4.601   4.325  0.4425 -0.3113 -0.1036
25025SOL    HW177082   2.332   4.601   4.233 -0.5203  0.9743 -0.4105
25025SOL    HW277083   2.210   4.599   4.322  0.3175  1.7356  0.7841
25026SOL     OW77084   5.224   2.708   9.278  0.0749  0.3887 -0.0680
25026SOL    HW177085   5.144   2.663   9.306 -0.0152  1.7519  2.1074
25026SOL    HW277086   5.215   2.797   9.314  1.0160  1.6606 -2.7392
25027SOL     OW77087   5.683   3.434  10.780  0.0803 -0.0735 -0.0335
25027SOL    HW177088   5.687   3.515  10.731  0.3449  0.0165  0.1324
25027SOL    HW277089   5.592   3.426  10.808  0.2857  0.7470  0.9176
25028SOL     OW77090  10.191   1.700   5.334  0.1192  0.0666 -0.1588
25028SOL    HW177091  10.241   1.758   5.277  3.1971 -2.1191  0.1049
25028SOL    HW277092  10.160   1.757   5.405  1.1702  1.7393 -0.9863
25029SOL     OW77093   3.596   9.868   7.817  0.4546  0.6236  0.4457
25029SOL    HW177094   3.515   9.843   7.773  1.3862  1.5215 -1.9536
25029SOL    HW277095   3.579   9.955   7.851 -0.3523 -0.1710  2.2074
25030SOL     OW77096   8.858   7.752   6.279 -0.3715  0.2766 -0.6573
25030SOL    HW177097   8.777   7.706   6.303 -1.0813 -0.4145 -3.8839
25030SOL    HW277098   8.861   7.827   6.338 -0.9930 -1.9552  2.5040
25031SOL     OW77099  10.424   0.251   2.248 -0.1897 -0.2472 -0.7068
25031SOL    HW177100  10.513   0.216   2.255 -1.0737 -2.3534  1.2435
25031SOL    HW277101  10.420   0.319   2.314 -0.4113 -1.1552  0.2412
25032SOL     OW77102   9.924   6.088  10.177 -0.2441 -0.0152  0.1381
25032SOL    HW177103   9.949   6.172  10.139  0.2894 -0.0252  0.4552
25032SOL    HW277104   9.828   6.090  10.178 -0.2396  0.5205 -0.0107
25033SOL     OW77105  10.794   3.057   5.348 -0.2929  0.3707  0.3623
25033SOL    HW177106  10.747   3.104   5.416  2.8320  0.7422  2.4827
25033SOL    HW277107  10.803   3.121   5.277  0.2756  1.6024  1.4953
25034SOL     OW77108   0.108  10.114   9.597  0.1768  0.0222 -0.1182
25034SOL    HW177109   0.022  10.107   9.640 -0.5012  1.8460 -1.0438
25034SOL    HW277110   0.116  10.034   9.546  0.5289 -1.6973  2.4739
25035SOL     OW77111   8.506   9.360  11.180  0.1185 -0.5860  0.2436
25035SOL    HW177112   8.508   9.438  11.237  0.4133  1.2428 -2.1132
25035SOL    HW277113   8.579   9.307  11.211  0.1756  0.2450  1.6706
25036SOL     OW77114   8.879   3.390   5.965  0.0926  0.9536 -0.0494
25036SOL    HW177115   8.961   3.440   5.963  0.5491  0.2280 -0.1849
25036SOL    HW277116   8.810   3.456   5.956  0.7017  1.4899 -1.0855
25037SOL     OW77117   8.645   8.629   0.640  0.2781 -0.2279 -0.0267
25037SOL    HW177118   8.622   8.545   0.601 -0.1284  0.0603 -0.4222
25037SOL    HW277119   8.736   8.645   0.614 -0.7232  1.1662 -3.1012
25038SOL     OW77120   6.297  10.489  10.478 -0.3170 -0.6109  0.2587
25038SOL    HW177121   6.361  10.473  10.409  1.2545  0.1886  1.4809
25038SOL    HW277122   6.268  10.579  10.464 -0.7157 -0.7605  0.0943
25039SOL     OW77123   5.199   1.921   4.228 -0.1711  0.1764 -0.4137
25039SOL    HW177124   5.149   1.999   4.204 -0.9781  0.3771  1.7187
25039SOL    HW277125   5.186   1.861   4.154 -2.7372  0.6395 -0.4370
25040SOL     OW77126   8.290   7.492   4.012 -0.0851  0.0603  0.3065
25040SOL    HW177127   8.206   7.490   4.056 -1.3842  3.4740 -1.6687
25040SOL    HW277128   8.291   7.412   3.959 -0.1728 -2.0758  3.3147
25041SOL     OW77129  10.278   3.714   4.268 -0.6081  0.0662  0.8889
25041SOL    HW177130  10.203   3.668   4.231  0.7032 -1.2238 -0.2960
25041SOL    HW277131  10.287   3.678   4.357 -0.8808 -0.3942  0.7350
25042SOL     OW77132   7.547   8.574  10.038 -0.6089  0.4194  0.0204
25042SOL    HW177133   7.458   8.559  10.072  0.9346 -2.4717  3.5346
25042SOL    HW277134   7.556   8.510   9.967 -0.5488 -1.4168  1.5844
25043SOL     OW77135   2.771   0.125   6.326  0.2028  0.0925  0.5455
25043SOL    HW177136   2.740   0.130   6.416 -0.8233 -0.3962  0.2328
25043SOL    HW277137   2.698   0.158   6.274  0.9579  0.8154 -0.0886
25044SOL     OW77138   1.750   7.373   3.031  0.1595  0.1529 -0.1945
25044SOL    HW177139   1.786   7.449   2.985  0.8545  0.0749  0.2115
25044SOL    HW277140   1.660   7.398   3.052  0.1301  0.5473 -0.7756
25045SOL     OW77141   8.347  10.915   5.691 -0.1003 -0.3636 -0.1168
25045SOL    HW177142   8.349  11.005   5.725  0.1398 -0.2856 -0.3297
25045SOL    HW277143   8.254  10.892   5.690 -0.0865 -0.5154  0.9646
25046SOL     OW77144  10.004   1.388   6.559 -0.5558  0.2195  0.3564
25046SOL    HW177145  10.031   1.350   6.642 -0.4389  0.8341  0.6030
25046SOL    HW277146  10.052   1.471   6.554 -1.6359  0.8576  0.3331
25047SOL     OW77147   3.079  10.055   4.491 -0.6640 -0.3034  0.2193
25047SOL    HW177148   3.074  10.126   4.555 -0.6216 -0.6367  0.5911
25047SOL    HW277149   3.168  10.060   4.457 -0.7793  0.0649 -0.0358
25048SOL     OW77150   5.862   6.761  10.788 -0.3106 -0.1707  1.1901
25048SOL    HW177151   5.896   6.850  10.792 -0.6173 -0.1048  3.1920
25048SOL    HW277152   5.920   6.711  10.846  1.3991 -1.8603 -1.7621
25049SOL     OW77153   2.135   8.380   2.885  0.1753 -0.4084  0.8596
25049SOL    HW177154   2.164   8.322   2.814 -0.1288  0.6206 -0.1283
25049SOL    HW277155   2.041   8.392   2.869  0.4405  1.2222  0.3862
25050SOL     OW77156   6.185   1.397   0.941 -0.1312  0.5757 -0.1571
25050SOL    HW177157   6.162   1.357   0.857  0.1595 -1.1840  0.5558
25050SOL    HW277158   6.138   1.480   0.942 -3.1671 -1.0084 -0.4951
25051SOL     OW77159   6.003   7.654   5.984  0.0630 -0.1067  0.0101
25051SOL    HW177160   6.074   7.690   5.930 -1.0669  2.1629 -0.0789
25051SOL    HW277161   6.047   7.626   6.065  1.6277 -2.6557 -1.5731
25052SOL     OW77162   0.437   7.406   3.538  0.0859 -0.4886 -0.4673
25052SOL    HW177163   0.405   7.467   3.471 -1.0178 -1.1976 -0.5991
25052SOL    HW277164   0.370   7.409   3.607  1.0123 -0.0683  0.4359
25053SOL     OW77165   6.338   6.921   5.842 -0.5933  0.8658  0.2515
25053SOL    HW177166   6.421   6.951   5.879  0.2961 -2.8087  1.6258
25053SOL    HW277167   6.272   6.950   5.905  0.2440 -0.1972  1.6854
25054SOL     OW77168   6.709   5.371   3.467 -0.8532 -0.1881 -0.0920
25054SOL    HW177169   6.658   5.348   3.544 -2.1419  1.0741 -0.5166
25054SOL    HW277170   6.704   5.294   3.410  0.1257 -1.1330  1.0424
25055SOL     OW77171   4.710   0.554   1.664 -0.0879 -0.2917 -0.4777
25055SOL    HW177172   4.711   0.647   1.687  2.6735 -0.2377 -0.4658
25055SOL    HW277173   4.671   0.511   1.741 -0.3837  0.7472 -0.0287
25056SOL     OW77174   1.580   6.638   9.980  0.8617  0.3704 -0.0765
25056SOL    HW177175   1.615   6.617  10.066 -0.4629 -0.9566  0.1787
25056SOL    HW277176   1.523   6.713   9.994  0.6973  0.1950  0.1849
25057SOL     OW77177   1.130  10.781   2.279 -0.1200 -0.4248  0.1606
25057SOL    HW177178   1.182  10.841   2.226 -0.3864  0.5486  0.9671
25057SOL    HW277179   1.086  10.838   2.342 -0.3678 -1.4758  0.9531
25058SOL     OW77180  11.158   9.944   9.159  0.1526  0.3947  0.0901
25058SOL    HW177181  11.252   9.950   9.175 -0.2345  1.8874  2.1449
25058SOL    HW277182  11.129   9.869   9.212  0.0559  0.3859  0.0269
25059SOL     OW77183   6.228   1.974   1.335  0.2796 -0.2707  0.5686
25059SOL    HW177184   6.258   1.939   1.419  0.6987  0.2103  0.6183
25059SOL    HW277185   6.184   2.056   1.357  0.8936  0.1434  0.2548
25060SOL     OW77186  10.127   2.765   1.915  0.0298  0.8960  0.0166
25060SOL    HW177187  10.210   2.796   1.951  0.0122  1.1797 -0.1850
25060SOL    HW277188  10.151   2.719   1.835  0.0503  0.4289  0.2887
25061SOL     OW77189   4.092   2.248   2.301 -0.5480 -0.0430 -0.3870
25061SOL    HW177190   4.109   2.180   2.366  1.7585 -1.2857 -2.1724
25061SOL    HW277191   4.058   2.200   2.226 -0.4074  0.9994 -1.1231
25062SOL     OW77192   1.690   8.122   8.364 -0.0393 -0.0104  0.5750
25062SOL    HW177193   1.631   8.163   8.429 -0.9262  1.1152 -0.8772
25062SOL    HW277194   1.774   8.115   8.410 -1.4208 -2.4499  3.0179
25063SOL     OW77195   5.208   4.545  10.004  0.0594  0.5017 -0.1158
25063SOL    HW177196   5.255   4.476  10.050  1.4910  1.6950  0.2648
25063SOL    HW277197   5.121   4.547  10.046  0.2870 -0.4969  0.4177
25064SOL     OW77198   0.875   4.168   2.572 -0.3245 -0.0620 -0.0548
25064SOL    HW177199   0.854   4.103   2.504 -0.4594 -0.9582  0.8136
25064SOL    HW277200   0.793   4.215   2.586 -0.1141  0.6227 -1.0005
25065SOL     OW77201   0.277   1.688   8.817  0.4713  0.2341  0.2131
25065SOL    HW177202   0.284   1.741   8.896 -0.7636  1.5481 -0.5126
25065SOL    HW277203   0.220   1.614   8.842 -1.3553  1.5545  0.1508
25066SOL     OW77204   2.334   0.580   0.160 -0.0211 -0.1175  0.5851
25066SOL    HW177205   2.285   0.510   0.118 -0.5503 -0.2838  1.4551
25066SOL    HW277206   2.360   0.638   0.089 -0.2926 -0.7597 -0.0420
25067SOL     OW77207   9.292  10.382   3.221 -0.0808  0.0469  0.0472
25067SOL    HW177208   9.262  10.299   3.185  1.9782 -1.0817  0.7698
25067SOL    HW277209   9.242  10.392   3.302 -0.8082 -0.1256 -0.3645
25068SOL     OW77210  10.498  10.345   1.962  0.2118 -0.2988  0.3876
25068SOL    HW177211  10.448  10.426   1.947  0.1612 -0.4332 -0.2241
25068SOL    HW277212  10.588  10.374   1.974  0.4506 -0.2229 -1.2858
25069SOL     OW77213   5.557   3.047   2.720 -0.6630 -0.3680  0.2310
25069SOL    HW177214   5.610   3.071   2.643 -0.6047  1.9261  0.8984
25069SOL    HW277215   5.474   3.017   2.684 -1.4588  2.7387 -0.7881
25070SOL     OW77216   6.556   0.296   8.334 -0.2306  0.4360  0.0277
25070SOL    HW177217   6.508   0.218   8.309 -1.5228  1.2150 -0.0387
25070SOL    HW277218   6.582   0.336   8.251  1.3527 -0.4459  0.0732
25071SOL     OW77219   9.272   7.521  10.194 -0.8719 -0.1024 -0.5593
25071SOL    HW177220   9.341   7.528  10.260 -0.1972 -1.3158 -1.1058
25071SOL    HW277221   9.304   7.575  10.121  0.5553 -2.2576 -1.6394
25072SOL     OW77222   7.957   9.243   7.143 -0.1696 -1.0676  0.1461
25072SOL    HW177223   7.991   9.180   7.079 -0.7403  0.7164 -2.0678
25072SOL    HW277224   7.996   9.326   7.117  0.2883 -0.3845  2.7604
25073SOL     OW77225   2.989   6.889   0.549 -0.4368 -0.1325 -0.3917
25073SOL    HW177226   2.994   6.981   0.577  1.6593 -0.2027 -0.3694
25073SOL    HW277227   2.915   6.853   0.598 -1.6617  1.6661 -0.8303
25074SOL     OW77228   1.326   7.175   3.198  0.1142  1.1158 -0.7129
25074SOL    HW177229   1.273   7.238   3.149  1.4682  1.2818 -2.0258
25074SOL    HW277230   1.404   7.224   3.223 -0.2572  0.8457  1.1272
25075SOL     OW77231   3.617   1.567   2.558 -0.6834  0.8599  0.4667
25075SOL    HW177232   3.613   1.603   2.469 -0.3169  1.0616  0.5284
25075SOL    HW277233   3.533   1.523   2.570 -0.8869  1.1563  0.1577
25076SOL     OW77234   8.323   0.681   3.817 -0.2934 -0.5144 -0.2118
25076SOL    HW177235   8.357   0.663   3.730 -0.7165 -1.0711 -0.2670
25076SOL    HW277236   8.387   0.644   3.877  1.3542  2.1285 -0.1846
25077SOL     OW77237   5.477  10.351   1.976  0.6841 -0.4963  0.2706
25077SOL    HW177238   5.448  10.275   1.925 -0.2886  0.2214 -0.2824
25077SOL    HW277239   5.430  10.344   2.059  0.1468 -0.1828 -0.0082
25078SOL     OW77240   8.547   6.824   2.788  0.3905  0.1513  0.2278
25078SOL    HW177241   8.639   6.850   2.783  1.1716 -2.2985  0.6917
25078SOL    HW277242   8.502   6.904   2.818  2.3376  1.4019  0.0276
25079SOL     OW77243   2.702   0.123   5.918  0.1248  0.3109 -0.1723
25079SOL    HW177244   2.757   0.185   5.870 -0.7161  0.0709 -1.5047
25079SOL    HW277245   2.744   0.038   5.904 -1.7759 -0.2774 -3.2931
25080SOL     OW77246   2.741   6.170   1.394 -0.0617  0.3241  0.0330
25080SOL    HW177247   2.684   6.171   1.471  0.2147  0.0523  0.2411
25080SOL    HW277248   2.743   6.261   1.365  2.0900  0.9925  2.0095
25081SOL     OW77249   0.933   2.335   3.964 -0.3830 -0.3260  0.0743
25081SOL    HW177250   0.900   2.255   3.923 -1.4494  0.2373 -0.1970
25081SOL    HW277251   1.015   2.353   3.918 -0.9880 -0.3362 -1.0471
25082SOL     OW77252   2.394   5.504   3.303  0.1861  0.0221 -0.4739
25082SOL    HW177253   2.324   5.492   3.368  0.2445  2.6098  0.1712
25082SOL    HW277254   2.347   5.531   3.224  0.3699  0.4667 -0.4293
25083SOL     OW77255   5.042   1.834   6.725  0.2556  0.9059 -0.2853
25083SOL    HW177256   5.104   1.900   6.694 -1.8907  2.7403 -0.9234
25083SOL    HW277257   5.055   1.831   6.820  2.2698  0.1475 -0.5270
25084SOL     OW77258   9.600   7.765   3.610  0.4523  0.1181 -0.1558
25084SOL    HW177259   9.576   7.775   3.518 -0.2366 -1.0351 -0.1202
25084SOL    HW277260   9.658   7.689   3.611  1.8916  1.1767  0.1486
25085SOL     OW77261   0.373   7.791  10.869  0.1840 -0.0030 -0.4704
25085SOL    HW177262   0.353   7.832  10.953 -0.0874  1.6866 -1.3218
25085SOL    HW277263   0.385   7.699  10.890 -1.6464  0.0638  1.1452
25086SOL     OW77264   9.039  10.362   0.624  0.8192  0.2789  0.2277
25086SOL    HW177265   9.050  10.429   0.691 -0.4061  1.6815 -0.8964
25086SOL    HW277266   8.984  10.403   0.557  1.0864 -1.4261 -1.1292
25087SOL     OW77267   3.553  11.285  10.164 -0.1649  0.6980 -0.0126
25087SOL    HW177268   3.575  11.377  10.177 -1.2361  0.7905  1.4106
25087SOL    HW277269   3.468  11.274  10.206  0.7573 -1.3497  1.5201
25088SOL     OW77270   5.747  10.260   4.449  0.0209  0.6364  0.1762
25088SOL    HW177271   5.730  10.203   4.374 -3.2662  1.7715 -0.0857
25088SOL    HW277272   5.808  10.210   4.504 -0.5063 -1.8754 -1.3680
25089SOL     OW77273   3.014   8.375   7.459  0.4379 -0.5512  0.7004
25089SOL    HW177274   2.962   8.399   7.382  2.2447 -3.1107 -1.5563
25089SOL    HW277275   2.968   8.299   7.495  0.5983 -0.5072  0.9969
25090SOL     OW77276   0.275   2.218   8.331 -0.5277 -0.4485  0.1945
25090SOL    HW177277   0.243   2.149   8.389 -0.5266 -1.8507 -1.4107
25090SOL    HW277278   0.209   2.224   8.262  0.5085 -0.3149 -0.8095
25091SOL     OW77279   0.711   0.925   8.596  0.0427  0.0804 -0.2344
25091SOL    HW177280   0.728   0.924   8.501 -1.7697 -1.3961 -0.6069
25091SOL    HW277281   0.662   1.006   8.611  0.7155  0.5381 -0.4682
25092SOL     OW77282   2.804   4.031   4.933 -0.0230  0.0111 -0.2907
25092SOL    HW177283   2.773   4.119   4.909  1.6207  0.6679 -0.1829
25092SOL    HW277284   2.881   4.017   4.878  1.8906  0.1907  2.1475
25093SOL     OW77285   3.358  11.253   7.572 -0.7463  0.8333 -0.2556
25093SOL    HW177286   3.358  11.325   7.636  0.1385 -1.0745  2.0296
25093SOL    HW277287   3.451  11.230   7.562 -1.0177  0.0316 -1.0012
25094SOL     OW77288   8.791   7.017  10.994  0.2045 -0.1750 -0.1670
25094SOL    HW177289   8.845   7.082  11.038  1.7983 -0.7627 -1.1704
25094SOL    HW277290   8.757   6.962  11.064 -1.5601  1.9579  0.7474
25095SOL     OW77291   1.410   9.463   9.669 -0.3173  0.8933  0.0376
25095SOL    HW177292   1.384   9.419   9.749  0.7805  2.2617  1.2156
25095SOL    HW277293   1.504   9.446   9.662  0.2604  3.3579  0.8203
25096SOL     OW77294   0.430   8.217   7.979  1.0584  0.1063  0.3903
25096SOL    HW177295   0.387   8.171   7.906 -2.0355  0.9567  1.4910
25096SOL    HW277296   0.494   8.154   8.013 -0.8123 -2.2212 -0.1161
25097SOL     OW77297   7.965  10.122   0.974  0.1629 -0.4866  0.0545
25097SOL    HW177298   7.923  10.174   1.042 -0.4058 -1.7345  0.7060
25097SOL    HW277299   8.032  10.179   0.936 -1.3210  1.1621 -0.1980
25098SOL     OW77300   4.205   3.415   4.220 -0.2409  0.0818 -0.9475
25098SOL    HW177301   4.198   3.448   4.309 -0.6197  0.1617 -1.0049
25098SOL    HW277302   4.167   3.485   4.166 -0.4440 -0.1637 -1.1257
25099SOL     OW77303  11.172   6.130   1.063 -0.1322 -0.7290 -0.3091
25099SOL    HW177304  11.159   6.133   0.968 -0.1428 -1.3072 -0.3250
25099SOL    HW277305  11.250   6.184   1.077 -0.7123  0.2002 -0.5317
25100SOL     OW77306   7.955   1.457   7.983 -0.6631  0.0425  0.3482
25100SOL    HW177307   7.963   1.543   7.942  0.5900  0.0798  0.6400
25100SOL    HW277308   7.879   1.417   7.941 -2.3532  1.9550  1.4070
25101SOL     OW77309  10.634   0.004   1.697 -0.5751 -0.0248  0.6606
25101SOL    HW177310  10.583   0.007   1.777  1.3471 -0.8468  1.9885
25101SOL    HW277311  10.569  -0.004   1.627 -2.2212 -1.4345  2.2717
25102SOL     OW77312   7.839  10.535   5.008 -0.3603  0.0906 -0.2306
25102SOL    HW177313   7.781  10.470   4.969  0.7076  0.1518 -2.0624
25102SOL    HW277314   7.851  10.600   4.939 -1.2891  2.2108  1.4949
25103SOL     OW77315  11.019   0.910   6.511  0.2653  0.1435 -0.7706
25103SOL    HW177316  10.967   0.948   6.441 -2.6641  0.4396  1.3562
25103SOL    HW277317  10.961   0.844   6.551  1.8171 -0.0965  1.2656
25104SOL     OW77318   6.627   8.647   0.396 -0.5228 -0.3336  0.0063
25104SOL    HW177319   6.644   8.553   0.396 -0.4571 -0.3211 -0.1486
25104SOL    HW277320   6.632   8.673   0.304 -2.1061 -0.4583 -0.1379
25105SOL     OW77321   9.016   5.321  10.564  0.4125  0.2182 -0.3625
25105SOL    HW177322   9.076   5.317  10.489  0.5144  0.5905 -0.3059
25105SOL    HW277323   9.041   5.247  10.619  1.7630  1.1576  0.3462
25106SOL     OW77324   7.523  10.526   6.920  0.3639  0.2895  0.1870
25106SOL    HW177325   7.516  10.467   6.845 -0.8196 -0.8997  1.1713
25106SOL    HW277326   7.616  10.522   6.945  0.5081 -0.3214 -0.4127
25107SOL     OW77327   7.468   9.488   0.812  0.0865  0.5383  0.2225
25107SOL    HW177328   7.478   9.571   0.860  1.6274  0.1048  0.7024
25107SOL    HW277329   7.484   9.420   0.877 -0.7638 -0.1502 -0.2607
25108SOL     OW77330   0.382   8.671   8.476 -0.4955  0.0772 -0.1628
25108SOL    HW177331   0.300   8.668   8.525 -1.9841  1.5514 -2.4062
25108SOL    HW277332   0.372   8.605   8.407 -2.2622  3.6481 -3.7675
25109SOL     OW77333   0.071  10.483   0.653  0.3493 -0.0479 -0.3226
25109SOL    HW177334   0.095  10.391   0.663  2.8958  0.7739  2.4558
25109SOL    HW277335   0.119  10.512   0.575  1.0794 -0.6193 -0.0935
25110SOL     OW77336   1.992   9.706   0.383  0.5167 -0.3051 -0.3095
25110SOL    HW177337   1.947   9.638   0.433 -2.5760  1.5234 -0.3465
25110SOL    HW277338   1.937   9.720   0.306  0.0635  3.2063  0.4456
25111SOL     OW77339   9.491   2.567  11.166 -0.2590  0.5724 -0.1455
25111SOL    HW177340   9.435   2.645  11.170 -1.7335 -0.4654  0.1530
25111SOL    HW277341   9.508   2.555  11.072 -0.7681  0.7388 -0.2626
25112SOL     OW77342   7.813   8.510  10.128 -0.0501  0.3915 -0.3495
25112SOL    HW177343   7.852   8.514  10.040 -0.2456 -1.9707 -0.6166
25112SOL    HW277344   7.724   8.543  10.116 -0.1332 -0.0730 -1.0990
25113SOL     OW77345   8.658  10.151   2.701  0.3035 -0.1079 -0.4210
25113SOL    HW177346   8.632  10.217   2.764  2.3352  1.2226 -0.8935
25113SOL    HW277347   8.666  10.198   2.618  1.6238 -0.9693 -0.8135
25114SOL     OW77348   9.468   0.651   1.221 -0.3190  0.1378 -1.1015
25114SOL    HW177349   9.450   0.596   1.298 -0.5571  1.1516 -0.4168
25114SOL    HW277350   9.474   0.740   1.256 -2.6364  0.9517 -2.5420
25115SOL     OW77351   3.292   0.363   2.410  0.0432 -0.0277  0.5833
25115SOL    HW177352   3.197   0.353   2.410  0.1580 -1.3745  0.9149
25115SOL    HW277353   3.313   0.402   2.325 -0.7250 -0.6746  0.0883
25116SOL     OW77354   3.714   4.669   3.980  0.1913 -0.4282 -0.7621
25116SOL    HW177355   3.754   4.692   3.896 -0.1754 -0.9537 -1.0873
25116SOL    HW277356   3.627   4.635   3.957 -0.0098 -0.3443 -0.1521
25117SOL     OW77357   3.593  11.231   4.310 -0.0469 -0.7237 -0.2362
25117SOL    HW177358   3.583  11.243   4.215  1.2030 -2.3720 -0.6124
25117SOL    HW277359   3.509  11.193   4.338  0.3424 -2.3106 -1.0960
25118SOL     OW77360   0.665   8.486   9.037  0.2364 -0.0479  0.2715
25118SOL    HW177361   0.596   8.422   9.018 -0.6626  0.3001  2.1225
25118SOL    HW277362   0.617   8.567   9.056  1.2561  0.6109  0.1191
25119SOL     OW77363   3.154   2.899   3.840 -0.7086 -0.5802  0.4936
25119SOL    HW177364   3.231   2.849   3.814 -0.7686 -0.2131 -0.4303
25119SOL    HW277365   3.190   2.975   3.887 -0.4372  0.0232 -0.6480
25120SOL     OW77366   1.815   7.694   8.843 -0.6382 -0.1229 -0.0868
25120SOL    HW177367   1.891   7.695   8.902 -0.8344  1.5030  0.1945
25120SOL    HW277368   1.761   7.623   8.875  1.3459 -2.2107 -1.0935
25121SOL     OW77369  10.885   6.003   4.697 -0.3700 -0.5622 -0.5135
25121SOL    HW177370  10.837   6.084   4.678 -0.7133 -0.9987 -1.6388
25121SOL    HW277371  10.913   6.011   4.788 -0.5946  0.7195 -0.5458
25122SOL     OW77372   9.146   9.525   3.086 -0.4319  0.9854 -0.8879
25122SOL    HW177373   9.109   9.482   3.009  1.2401  1.0236 -1.7570
25122SOL    HW277374   9.222   9.573   3.053  0.4160  0.8861  0.8068
25123SOL     OW77375   0.801   5.681   7.177  0.1765  0.5454  0.2503
25123SOL    HW177376   0.710   5.654   7.190 -0.1819  0.8885 -1.2871
25123SOL    HW277377   0.818   5.662   7.085  1.8109  0.1037  0.6152
25124SOL     OW77378   2.159   3.851   6.166 -0.3315 -0.0276 -0.0788
25124SOL    HW177379   2.106   3.846   6.246  1.7206 -0.1359  1.3580
25124SOL    HW277380   2.249   3.858   6.198  0.4071  2.3451 -2.3956
25125SOL     OW77381   8.794   4.363   9.372  0.2234 -0.9500 -0.2583
25125SOL    HW177382   8.757   4.278   9.397  0.0326 -0.2315  2.1462
25125SOL    HW277383   8.860   4.381   9.439  3.2053 -0.9598 -2.9237
25126SOL     OW77384  10.644   9.022   5.891  0.0252  0.6122  0.3645
25126SOL    HW177385  10.612   8.952   5.947 -1.7704  2.2323  1.5122
25126SOL    HW277386  10.585   9.022   5.816  1.0191 -0.0985 -0.4376
25127SOL     OW77387   9.904   5.721  10.104  0.3412  0.1117  0.6538
25127SOL    HW177388   9.850   5.688  10.176 -0.7462  3.0388  1.3200
25127SOL    HW277389   9.974   5.770  10.147  1.4833 -0.6593 -0.2796
25128SOL     OW77390   7.774   9.592   5.288  0.1570 -0.5315 -0.0279
25128SOL    HW177391   7.839   9.630   5.347 -0.4796  3.4685 -1.6076
25128SOL    HW277392   7.801   9.619   5.200 -1.8183 -1.6472 -1.0770
25129SOL     OW77393   5.851   3.660   0.306 -0.0975 -0.2271 -0.1636
25129SOL    HW177394   5.803   3.669   0.223 -0.5335 -1.6993 -0.0999
25129SOL    HW277395   5.913   3.589   0.290  0.0152 -0.3315  0.6819
25130SOL     OW77396   2.453   6.401   1.997  0.5570 -0.4080  0.0226
25130SOL    HW177397   2.539   6.359   1.997  0.3175 -0.9688 -1.4753
25130SOL    HW277398   2.458   6.468   1.929  0.2806  0.6320  0.9941
25131SOL     OW77399   4.220   8.625   1.212  0.2513 -0.4792  0.2429
25131SOL    HW177400   4.202   8.531   1.200  0.4514 -0.5819  0.7136
25131SOL    HW277401   4.211   8.639   1.306  1.6037 -0.3218  0.3703
25132SOL     OW77402   5.441   8.269   9.545 -0.8166  0.1792 -0.0670
25132SOL    HW177403   5.369   8.225   9.591 -0.1829  0.2702  1.0312
25132SOL    HW277404   5.421   8.255   9.452 -0.3256 -3.0161  0.1763
25133SOL     OW77405   8.913  10.401   6.749  1.1264 -0.2034  0.2116
25133SOL    HW177406   8.972  10.477   6.748  0.8726 -0.0054 -0.2540
25133SOL    HW277407   8.921  10.366   6.838  1.7671 -0.0447  0.2259
25134SOL     OW77408   9.713   2.158   6.679 -0.5306  0.3525  0.4407
25134SOL    HW177409   9.661   2.225   6.635 -0.7460 -0.3748 -0.4382
25134SOL    HW277410   9.689   2.077   6.635  1.3920  0.0085 -0.0385
25135SOL     OW77411   4.670   6.122   2.480 -0.0910  0.2034 -0.6033
25135SOL    HW177412   4.588   6.143   2.524 -1.0946 -1.6978 -1.4270
25135SOL    HW277413   4.644   6.102   2.390  1.1443 -1.2742 -0.6653
25136SOL     OW77414  10.069  10.150   1.437  0.0300 -0.4337  0.3982
25136SOL    HW177415  10.008  10.078   1.420  0.2749 -0.9283  1.5293
25136SOL    HW277416  10.015  10.229   1.431 -0.1637 -0.6522 -1.2320
25137SOL     OW77417   1.197   7.338   0.408 -0.8024 -0.3325 -0.4640
25137SOL    HW177418   1.281   7.296   0.387  0.7693  1.9243  0.8710
25137SOL    HW277419   1.170   7.298   0.491 -0.5454 -0.3879 -0.4055
25138SOL     OW77420  11.260   3.014   6.532  0.0734 -0.4869  0.3205
25138SOL    HW177421  11.251   3.063   6.614 -0.9832 -0.4365  0.1973
25138SOL    HW277422  11.201   2.939   6.544 -1.0584  0.1699 -0.8560
25139SOL     OW77423   7.687   4.117   2.922  0.5176 -0.2333 -0.1193
25139SOL    HW177424   7.719   4.111   2.832  1.2277  0.5328  0.0693
25139SOL    HW277425   7.722   4.039   2.965  1.8627  0.4084 -0.0091
25140SOL     OW77426   9.090   4.554   9.195 -0.3302 -0.1377 -0.1197
25140SOL    HW177427   9.156   4.490   9.221  1.2800  1.0338 -1.1331
25140SOL    HW277428   9.015   4.501   9.170  1.0346 -1.6825 -1.1722
25141SOL     OW77429  11.207   1.881   8.660 -0.2456  0.1592  0.5387
25141SOL    HW177430  11.150   1.958   8.661  0.0718  0.3922  0.7386
25141SOL    HW277431  11.279   1.904   8.602 -0.6592 -0.3622 -0.1947
25142SOL     OW77432   1.004   6.769   4.473  0.3629  0.0824  0.0848
25142SOL    HW177433   0.914   6.790   4.449  0.0876 -0.7454  0.3621
25142SOL    HW277434   1.047   6.745   4.391  0.4465  0.8337 -0.1052
25143SOL     OW77435   7.835   4.628   5.553 -1.0001  0.0375 -0.3778
25143SOL    HW177436   7.928   4.647   5.539 -1.0097  2.5072  1.9696
25143SOL    HW277437   7.789   4.694   5.502 -1.5307 -1.1434 -1.4856
25144SOL     OW77438   6.113   2.179   7.665 -0.3892 -0.0417  0.0245
25144SOL    HW177439   6.159   2.255   7.700  0.0508 -1.1334  1.9047
25144SOL    HW277440   6.031   2.176   7.714 -0.3295 -0.8648  0.0868
25145SOL     OW77441   7.876   2.769   6.501  0.2100 -0.7814  0.3466
25145SOL    HW177442   7.818   2.697   6.527  1.2642 -1.6212  0.4075
25145SOL    HW277443   7.930   2.732   6.431  1.0502 -0.1699  0.6639
25146SOL     OW77444   3.565   3.921   7.772 -1.0297  0.6745  0.7109
25146SOL    HW177445   3.602   3.985   7.711 -0.9495  0.5018  0.5787
25146SOL    HW277446   3.483   3.962   7.803 -2.8614 -0.6049 -2.0471
25147SOL     OW77447   5.682   4.017   9.697 -0.6598 -0.8337  0.4292
25147SOL    HW177448   5.758   3.976   9.739 -0.2434  0.0720  0.5839
25147SOL    HW277449   5.638   3.945   9.652  0.0221 -1.4576  0.7365
25148SOL     OW77450   2.935   3.339   4.733  0.0141  0.4279  0.8365
25148SOL    HW177451   3.030   3.341   4.747  0.3031  2.7067 -0.8055
25148SOL    HW277452   2.910   3.249   4.750  2.5857 -0.3981  0.7034
25149SOL     OW77453   8.453   6.731   3.282 -0.8024  0.8990  0.1136
25149SOL    HW177454   8.548   6.737   3.276 -0.7596  0.1463 -0.0209
25149SOL    HW277455   8.432   6.766   3.369 -0.5048  2.0555 -0.2624
25150SOL     OW77456   0.887   2.374   2.821 -0.3731 -0.2455 -0.0883
25150SOL    HW177457   0.822   2.420   2.767 -0.3687  0.5485  0.5683
25150SOL    HW277458   0.870   2.282   2.805  0.8375 -0.0710 -2.9234
25151SOL     OW77459   9.242   4.813   0.078  0.4691 -0.0468 -0.3036
25151SOL    HW177460   9.232   4.839  -0.014  1.1460  1.6403  0.0626
25151SOL    HW277461   9.279   4.891   0.121  0.9363 -1.0822  1.2419
25152SOL     OW77462   4.159   9.015  10.063 -0.3503  0.5315  0.1299
25152SOL    HW177463   4.102   8.941  10.084  0.2430 -0.1193 -0.4889
25152SOL    HW277464   4.140   9.080  10.131 -2.6864  0.8308 -0.7209
25153SOL     OW77465   0.682   0.192   3.849  0.2019  0.4839 -0.9833
25153SOL    HW177466   0.615   0.259   3.835  0.2463  1.1748  1.4708
25153SOL    HW277467   0.764   0.235   3.825  0.3936  1.9406  1.7619
25154SOL     OW77468   4.130   5.188   2.041  0.2660  0.0618  0.1759
25154SOL    HW177469   4.170   5.273   2.060 -1.3687  1.8619 -3.3122
25154SOL    HW277470   4.041   5.195   2.074 -0.2569  0.2756 -1.1941
25155SOL     OW77471   3.669   2.987  10.681  0.1360 -0.2763 -0.2374
25155SOL    HW177472   3.578   3.010  10.699  0.6961  1.4578  0.6071
25155SOL    HW277473   3.698   2.940  10.760 -0.0340 -0.8754 -0.5283
25156SOL     OW77474   4.626   9.815   7.775  0.1292  0.0095  0.7223
25156SOL    HW177475   4.628   9.797   7.681  1.0361 -0.5203  0.8278
25156SOL    HW277476   4.541   9.855   7.790 -0.3435 -0.6108 -0.2024
25157SOL     OW77477   9.373   7.587   7.626  0.2318 -0.8085 -0.0467
25157SOL    HW177478   9.388   7.494   7.611  0.3917 -0.7880 -0.0229
25157SOL    HW277479   9.318   7.591   7.704 -2.0980 -0.9860 -1.5974
25158SOL     OW77480   9.917   0.941   9.570 -0.4065 -0.0182 -0.2465
25158SOL    HW177481   9.984   1.002   9.600 -1.0110  0.4950  0.1031
25158SOL    HW277482   9.952   0.904   9.489  0.1016  0.5772 -0.3065
25159SOL     OW77483   9.510   9.041   6.729  0.5679 -0.3722 -0.8105
25159SOL    HW177484   9.567   8.974   6.690 -0.2906 -0.4606 -1.9737
25159SOL    HW277485   9.435   9.046   6.670 -0.3762  0.1444  0.3738
25160SOL     OW77486   3.474   0.024  11.167  0.2140 -0.0602 -0.6082
25160SOL    HW177487   3.547   0.086  11.160  1.9800 -2.0009 -0.3257
25160SOL    HW277488   3.414   0.065  11.229  0.7042  1.8929 -1.3331
25161SOL     OW77489   2.753  10.232   6.695 -0.0952 -0.3846  0.0619
25161SOL    HW177490   2.659  10.247   6.692  0.2945  2.6041  0.3339
25161SOL    HW277491   2.780  10.227   6.603 -0.6478 -2.8013 -0.0346
25162SOL     OW77492   2.619   8.500   2.884 -1.1215 -0.0795  0.5887
25162SOL    HW177493   2.688   8.565   2.871  0.1352 -0.9692  2.3612
25162SOL    HW277494   2.549   8.548   2.928 -0.3661  0.2024  1.5209
25163SOL     OW77495   6.162   5.792   7.994  0.1433 -0.1917 -0.1265
25163SOL    HW177496   6.247   5.749   7.988  0.7399  1.0938 -2.0610
25163SOL    HW277497   6.108   5.749   7.927  0.4428  1.2999 -1.3943
25164SOL     OW77498   8.348   7.219   2.169 -0.6235  0.0198 -0.0340
25164SOL    HW177499   8.369   7.136   2.211 -0.4829 -0.0263 -0.1945
25164SOL    HW277500   8.385   7.212   2.081 -1.9875 -0.3594 -0.5949
25165SOL     OW77501   5.508   3.432   8.367  0.1198 -0.3216  0.5349
25165SOL    HW177502   5.589   3.411   8.414 -0.6541 -2.5906  1.0021
25165SOL    HW277503   5.499   3.527   8.376  2.9488  0.0945  0.0397
25166SOL     OW77504   2.934  10.032   6.910  0.1879 -0.0290  0.1062
25166SOL    HW177505   2.894   9.952   6.946  1.7616 -0.8557  0.1006
25166SOL    HW277506   2.860  10.081   6.875 -0.7578 -1.9905 -0.8463
25167SOL     OW77507   8.918   6.034   4.039  0.2360 -0.6430 -0.4032
25167SOL    HW177508   8.949   6.031   4.129 -1.3291 -1.2838  0.1513
25167SOL    HW277509   8.870   6.117   4.033  0.5052 -0.5058 -0.7169
25168SOL     OW77510   9.540  10.260   6.747 -0.1934 -0.8130  0.7017
25168SOL    HW177511   9.580  10.213   6.674 -0.0962  1.1561 -0.5973
25168SOL    HW277512   9.473  10.201   6.781 -1.5349 -1.1176 -2.2046
25169SOL     OW77513   4.988   4.019   1.561  0.1589 -0.3365  0.1525
25169SOL    HW177514   5.076   4.055   1.576 -0.4326  0.8848  0.8207
25169SOL    HW277515   4.978   4.019   1.466  1.0327 -0.8843  0.0501
25170SOL     OW77516   7.320   1.053   8.880  0.5180  0.8735 -0.3754
25170SOL    HW177517   7.254   1.123   8.885 -0.5191 -0.0588 -0.5490
25170SOL    HW277518   7.278   0.978   8.922  0.3171 -0.5890 -3.0228
25171SOL     OW77519  10.701   8.701  10.867  0.4209 -0.5016  0.0894
25171SOL    HW177520  10.757   8.635  10.907 -0.6052 -0.8407  1.0374
25171SOL    HW277521  10.658   8.744  10.942  1.1712  1.3579 -0.4907
25172SOL     OW77522   8.317  10.945   4.101 -0.9009 -0.6311  0.0618
25172SOL    HW177523   8.389  10.926   4.041  0.5356  1.3342  1.0390
25172SOL    HW277524   8.281  10.859   4.123  1.6821 -1.7821  0.1614
25173SOL     OW77525   0.716   7.898   5.419 -0.2266 -0.2145 -0.0016
25173SOL    HW177526   0.738   7.967   5.357 -1.3382  0.4186  0.2615
25173SOL    HW277527   0.652   7.940   5.478 -1.9672 -1.8241 -0.6412
25174SOL     OW77528   6.939   3.154  10.147 -0.2280  0.2275 -0.1262
25174SOL    HW177529   6.992   3.084  10.185  0.0207 -0.3320 -1.4552
25174SOL    HW277530   6.851   3.139  10.182  0.5615  1.7350  2.8754
25175SOL     OW77531   4.861   6.486  11.186 -0.1536  0.2157 -0.1424
25175SOL    HW177532   4.850   6.397  11.221 -0.4053 -0.8411 -2.6720
25175SOL    HW277533   4.948   6.485  11.147 -0.5903  0.7039 -1.1556
25176SOL     OW77534   8.566   8.363   8.522  0.1654  0.3541  0.2130
25176SOL    HW177535   8.549   8.314   8.441 -3.1643 -0.5958  1.3620
25176SOL    HW277536   8.480   8.378   8.560  1.4940  2.4409  2.6862
25177SOL     OW77537   2.482   7.014   3.255  0.0073  0.4361  0.3154
25177SOL    HW177538   2.395   6.975   3.263 -0.3849  1.0274 -0.8178
25177SOL    HW277539   2.512   6.990   3.168  0.7522  0.7153  0.4817
25178SOL     OW77540   6.108   2.520   8.062 -1.0762 -0.5240  0.5501
25178SOL    HW177541   6.068   2.606   8.052  0.5189  0.1710 -0.1036
25178SOL    HW277542   6.039   2.459   8.037 -1.6228  0.6474 -0.9179
25179SOL     OW77543   6.516   3.755   2.749  0.0622 -0.1543  0.2963
25179SOL    HW177544   6.601   3.776   2.788  1.5681 -2.6273 -1.3645
25179SOL    HW277545   6.457   3.823   2.782  2.6092  1.5610  1.6581
25180SOL     OW77546   3.076   2.783   3.250 -0.2158  0.2164 -0.0750
25180SOL    HW177547   3.006   2.822   3.303 -0.2493  0.9810 -0.6716
25180SOL    HW277548   3.092   2.698   3.292 -0.7135  0.5112  0.7494
25181SOL     OW77549   7.117   0.941   2.093  0.0364 -0.2546  0.4696
25181SOL    HW177550   7.114   0.845   2.095  1.1634 -0.3360 -0.2487
25181SOL    HW277551   7.041   0.966   2.042  0.4880 -0.8661 -0.5454
25182SOL     OW77552   4.969   1.929   0.141  0.1885  0.2002  1.1370
25182SOL    HW177553   4.955   1.839   0.112  1.7238  0.1906  0.3247
25182SOL    HW277554   4.911   1.939   0.216 -3.1136 -0.1482 -1.1293
25183SOL     OW77555   4.556  11.025   8.259  0.1826  0.2875 -0.0270
25183SOL    HW177556   4.621  10.958   8.239 -0.6423 -2.0761  4.0610
25183SOL    HW277557   4.608  11.100   8.287  1.2782 -1.0924  1.8967
25184SOL     OW77558   5.079   3.546   8.252 -0.1555  0.4939  0.5770
25184SOL    HW177559   5.113   3.493   8.181 -0.0884  0.1198  0.8850
25184SOL    HW277560   5.006   3.495   8.288  2.3090 -1.3392  3.4397
25185SOL     OW77561   2.787   0.685   0.067 -0.0696 -0.2565 -0.3594
25185SOL    HW177562   2.708   0.720   0.026 -0.6304  2.0809  2.3998
25185SOL    HW277563   2.753   0.632   0.140  0.8130  1.0833  1.0901
25186SOL     OW77564  10.471   2.179   4.946  0.5619  0.5205  0.2253
25186SOL    HW177565  10.431   2.181   5.033 -0.9758 -1.7033 -0.3682
25186SOL    HW277566  10.495   2.270   4.930  0.2460  1.1237  2.6621
25187SOL     OW77567   7.843   2.953  10.938 -0.0594  0.1704 -0.6108
25187SOL    HW177568   7.935   2.930  10.931  0.2835  1.5917 -1.2515
25187SOL    HW277569   7.806   2.936  10.852  0.8695  4.3984 -2.0855
25188SOL     OW77570   2.402   5.036   1.142 -0.2049 -0.1457  0.3548
25188SOL    HW177571   2.459   5.013   1.069 -2.4508  0.2986 -1.6312
25188SOL    HW277572   2.403   4.958   1.198 -0.1632 -1.4029 -1.3202
25189SOL     OW77573   0.444   6.008  10.911  1.1302  0.0785 -0.1660
25189SOL    HW177574   0.508   6.074  10.937  1.9147 -0.9868  0.6915
25189SOL    HW277575   0.378   6.057  10.862  1.7830  1.4613  0.2808
25190SOL     OW77576   3.458   9.262   1.443 -0.0755 -0.9146 -0.7947
25190SOL    HW177577   3.436   9.289   1.532  1.3279 -0.9470 -0.4095
25190SOL    HW277578   3.390   9.301   1.388  0.1788  0.8367  0.0748
25191SOL     OW77579  10.907   5.550   2.985  0.4711  0.2593  0.2541
25191SOL    HW177580  10.838   5.544   3.051 -0.3721  0.1655 -0.6098
25191SOL    HW277581  10.966   5.477   3.004 -1.2241 -1.4502 -0.6977
25192SOL     OW77582   4.020   3.274   5.483  1.1157  0.1453 -0.0410
25192SOL    HW177583   4.114   3.291   5.479  1.3869 -1.4214 -2.8252
25192SOL    HW277584   4.013   3.191   5.531  1.0845  0.5366  0.6414
25193SOL     OW77585   0.145   0.258   3.577 -0.2581  0.3977  0.2661
25193SOL    HW177586   0.103   0.294   3.655 -0.0729  0.0801  0.5136
25193SOL    HW277587   0.094   0.181   3.555 -0.3248  0.4992  0.0558
25194SOL     OW77588  10.718   3.657   3.621 -0.1924 -0.0078  0.0268
25194SOL    HW177589  10.706   3.619   3.534  0.7092  1.1039 -0.6062
25194SOL    HW277590  10.629   3.676   3.651 -0.5711 -1.2033 -0.2532
25195SOL     OW77591   9.837   5.036   0.117 -0.3865  0.2091  0.6238
25195SOL    HW177592   9.846   5.010   0.025 -1.0476  2.7804 -0.2521
25195SOL    HW277593   9.750   5.005   0.142 -0.7241  0.6046 -0.0356
25196SOL     OW77594   9.879   9.849   2.707  0.0834  0.6665  0.0608
25196SOL    HW177595   9.896   9.940   2.685  0.6925  0.3252 -0.9364
25196SOL    HW277596   9.965   9.813   2.730  0.0801  0.0082 -0.8782
25197SOL     OW77597   9.811  10.166   8.619 -0.6687 -0.0422 -0.4975
25197SOL    HW177598   9.789  10.148   8.527  0.7986 -2.1902 -0.5192
25197SOL    HW277599   9.728  10.159   8.666 -1.5005  1.4210 -1.6552
25198SOL     OW77600   8.271   1.149   5.390  0.6520  0.1251  0.6482
25198SOL    HW177601   8.339   1.177   5.451 -1.1500  2.1237  1.8855
25198SOL    HW277602   8.208   1.221   5.391 -1.5003 -1.6590 -0.3986
25199SOL     OW77603   7.035   8.207   1.520  0.1018  0.3594 -0.3093
25199SOL    HW177604   7.116   8.227   1.474  1.3269 -1.1323  1.1090
25199SOL    HW277605   6.967   8.215   1.453  1.4962  0.7579 -1.7415
25200SOL     OW77606   4.546   7.755   7.576  0.2095 -0.2762  0.1975
25200SOL    HW177607   4.532   7.832   7.520 -1.0506 -0.6605 -0.0357
25200SOL    HW277608   4.641   7.749   7.584  0.3498  0.9333 -0.3015
25201SOL     OW77609   9.004   8.011   0.477 -0.0746 -0.4146  0.1920
25201SOL    HW177610   9.058   8.080   0.440 -0.3963 -0.1956  0.1319
25201SOL    HW277611   8.915   8.043   0.468 -0.1519 -0.2929  1.2718
25202SOL     OW77612   7.392   7.234   2.914  0.4603  0.1285  0.2447
25202SOL    HW177613   7.415   7.325   2.928 -2.7639  1.2096 -0.5301
25202SOL    HW277614   7.382   7.197   3.002  0.1520  1.0223  0.5901
25203SOL     OW77615   8.825   5.014   5.708 -0.2050  0.4337  0.5592
25203SOL    HW177616   8.862   4.940   5.756  1.1694  3.0984  4.0717
25203SOL    HW277617   8.732   5.012   5.728 -0.2486 -0.5128  0.3069
25204SOL     OW77618   4.791   7.628  10.762  0.5631  0.1509 -0.7014
25204SOL    HW177619   4.740   7.707  10.742 -0.0087  0.9191  3.1012
25204SOL    HW277620   4.862   7.659  10.818  1.4369 -1.8242 -0.6389
25205SOL     OW77621   7.640   8.544   5.681  0.0316  0.7105  0.4615
25205SOL    HW177622   7.633   8.479   5.751  2.2668 -0.2770 -0.1574
25205SOL    HW277623   7.710   8.512   5.625 -0.8918  2.0933 -1.6113
25206SOL     OW77624   0.945   7.754   5.513  0.3416 -0.0880 -0.2681
25206SOL    HW177625   0.923   7.815   5.584 -1.2699 -2.5679  1.5109
25206SOL    HW277626   0.869   7.757   5.455  0.6677  0.2541 -0.6832
25207SOL     OW77627   0.343   3.956   2.618 -0.0958  0.0999 -0.1335
25207SOL    HW177628   0.324   3.900   2.543 -2.5356  0.4159  0.1567
25207SOL    HW277629   0.260   3.960   2.666  1.3797 -0.0997  2.6161
25208SOL     OW77630  11.006   1.020   1.465  0.3056 -0.2165 -0.0595
25208SOL    HW177631  11.006   0.953   1.397  0.8706 -0.1824 -0.0974
25208SOL    HW277632  11.097   1.023   1.495  0.4553  1.0593 -0.5835
25209SOL     OW77633  11.086   5.596   8.439 -0.2452 -0.2967 -0.1386
25209SOL    HW177634  11.146   5.648   8.492  0.4059  1.3172 -2.2882
25209SOL    HW277635  11.105   5.622   8.349 -0.9484 -3.2058 -1.2602
25210SOL     OW77636   3.034  10.956   9.185  0.3648 -0.6115  0.3557
25210SOL    HW177637   3.056  10.918   9.270  1.2005 -0.0249  0.4137
25210SOL    HW277638   2.964  11.019   9.205  2.8145  2.0629  1.2480
25211SOL     OW77639  11.053   8.260   8.752  0.5210  0.9832 -0.7237
25211SOL    HW177640  10.973   8.301   8.786 -0.3854  0.3524 -2.0352
25211SOL    HW277641  11.047   8.272   8.658  0.6853 -1.3195 -1.0722
25212SOL     OW77642   1.249   0.451  10.160  0.2931 -0.5481  0.2510
25212SOL    HW177643   1.327   0.502  10.140  0.0187  0.5301  1.7301
25212SOL    HW277644   1.223   0.413  10.076 -0.0690  2.5743 -1.2118
25213SOL     OW77645   3.367   8.798  10.053  0.1778 -0.5262  0.1110
25213SOL    HW177646   3.357   8.758   9.967  0.7811 -0.3587 -0.0431
25213SOL    HW277647   3.322   8.738  10.113  1.5113 -1.7423 -0.0417
25214SOL     OW77648   1.688   9.609   3.565  0.4445  0.1447 -0.7304
25214SOL    HW177649   1.663   9.692   3.607  0.4621  0.6739 -1.7231
25214SOL    HW277650   1.757   9.574   3.621  0.7700  1.0465 -0.5384
25215SOL     OW77651  11.128   7.849   0.034  0.0916 -0.2790 -0.0644
25215SOL    HW177652  11.073   7.812   0.103 -0.1455  1.4329  0.7336
25215SOL    HW277653  11.141   7.940   0.061  1.0831  0.0790 -1.6343
25216SOL     OW77654  11.008   4.397   2.861  0.1896  0.0857 -0.4183
25216SOL    HW177655  10.958   4.327   2.819  0.4458 -0.2477 -0.1752
25216SOL    HW277656  10.947   4.435   2.925  0.5170 -0.9212  0.5304
25217SOL     OW77657   7.937   8.438   7.332 -0.1298  0.5464 -0.1043
25217SOL    HW177658   7.989   8.442   7.252  0.6889  4.6541  0.4394
25217SOL    HW277659   7.854   8.479   7.309 -0.2737  0.8337  0.8905
25218SOL     OW77660   9.597   2.100   5.801  0.6019  0.0313  0.4557
25218SOL    HW177661   9.617   2.057   5.718  1.9159 -0.7217  1.1215
25218SOL    HW277662   9.516   2.148   5.785  1.0551  0.2483 -1.3766
25219SOL     OW77663   6.647   6.834   9.298  0.5669  0.6342  0.0739
25219SOL    HW177664   6.711   6.780   9.345  0.3243 -0.4911 -0.8433
25219SOL    HW277665   6.647   6.799   9.209 -0.0897  1.7373 -0.3790
25220SOL     OW77666   0.567   9.983   1.749 -0.1846 -0.5157  0.1222
25220SOL    HW177667   0.603  10.069   1.727 -0.6376 -0.5842 -0.9582
25220SOL    HW277668   0.536   9.993   1.839  0.0243  0.3717  0.1073
25221SOL     OW77669   4.430   4.200   6.488 -0.1787 -0.2015  0.5576
25221SOL    HW177670   4.477   4.150   6.421 -0.5553 -0.1701  0.2613
25221SOL    HW277671   4.339   4.199   6.458 -0.1489  0.9011  0.3974
25222SOL     OW77672   0.579   4.541   0.825 -0.2753  0.3850 -0.6382
25222SOL    HW177673   0.607   4.450   0.813  0.3827  0.5674 -0.5601
25222SOL    HW277674   0.625   4.569   0.905 -0.2714  0.8624 -0.8065
25223SOL     OW77675   7.836   0.116   3.074 -0.2475 -0.3654  0.3352
25223SOL    HW177676   7.897   0.056   3.032  1.0524 -0.5235  2.3168
25223SOL    HW277677   7.826   0.188   3.011  1.2657 -0.7861 -0.4310
25224SOL     OW77678   6.118   2.796  10.899 -0.2169  0.8989  0.1538
25224SOL    HW177679   6.090   2.713  10.861 -1.1918  0.3259  2.0056
25224SOL    HW277680   6.086   2.794  10.990  2.6488  1.8184  1.3098
25225SOL     OW77681   7.764   6.706   6.463 -0.6571 -0.2421 -0.4779
25225SOL    HW177682   7.758   6.798   6.488 -0.7415 -0.4637  0.3341
25225SOL    HW277683   7.713   6.700   6.382 -2.1195  0.0906  0.3814
25226SOL     OW77684   3.656   8.842   3.175  0.0593  0.1231 -0.2879
25226SOL    HW177685   3.616   8.929   3.166 -0.2551 -0.1731 -2.1573
25226SOL    HW277686   3.749   8.859   3.185  0.1940  0.6782 -2.1331
25227SOL     OW77687   7.559   7.705   9.318  0.2356  0.0644 -0.2807
25227SOL    HW177688   7.566   7.758   9.398 -0.9749  1.6166 -1.1456
25227SOL    HW277689   7.603   7.758   9.251  0.0145 -0.5644 -0.9330
25228SOL     OW77690  10.908   5.304   9.185  0.3378 -0.2387 -0.2727
25228SOL    HW177691  10.898   5.211   9.165  0.4588 -0.3264  0.0640
25228SOL    HW277692  10.970   5.306   9.258 -2.2779 -0.1471  2.1270
25229SOL     OW77693   9.011   4.826   5.322  0.1044 -0.5140  0.1014
25229SOL    HW177694   9.081   4.793   5.379  0.5395  0.3364  0.0834
25229SOL    HW277695   9.014   4.921   5.334  0.4950 -0.2662 -1.6347
25230SOL     OW77696   6.708   7.517  10.427  0.6822  0.2435  0.4519
25230SOL    HW177697   6.685   7.515  10.334  1.9757  4.3102 -0.1607
25230SOL    HW277698   6.626   7.537  10.471 -0.0086 -2.0490  0.3022
25231SOL     OW77699  10.795   3.881  10.918 -0.2571 -0.1852 -0.1184
25231SOL    HW177700  10.864   3.890  10.984  1.4532  0.3152 -1.8891
25231SOL    HW277701  10.795   3.964  10.871 -0.7385 -0.8787 -1.4000
25232SOL     OW77702   9.635  11.192   9.784  0.0944  0.0737 -0.1352
25232SOL    HW177703   9.640  11.261   9.717 -0.0806  0.2466  0.0275
25232SOL    HW277704   9.661  11.237   9.865 -0.2572  0.0076  0.0151
25233SOL     OW77705   7.473   5.608   9.461 -0.2430 -0.5843  1.1340
25233SOL    HW177706   7.383   5.580   9.480 -0.5616  0.5808  1.4107
25233SOL    HW277707   7.477   5.698   9.493 -0.0838  0.7213 -2.1861
25234SOL     OW77708  10.482   8.106  10.318 -0.3319 -0.0857  0.4130
25234SOL    HW177709  10.506   8.133  10.406  3.0737  2.0047 -0.9671
25234SOL    HW277710  10.483   8.010  10.321 -1.4951 -0.1109  2.8101
25235SOL     OW77711   0.889   1.058   0.203 -0.4886 -0.0115 -0.3681
25235SOL    HW177712   0.980   1.077   0.181 -0.2241 -0.6727  0.1409
25235SOL    HW277713   0.862   1.132   0.258  0.0056 -0.2480  0.1916
25236SOL     OW77714   6.338   0.085   7.661 -0.0819  0.0502  0.5295
25236SOL    HW177715   6.319  -0.008   7.649  0.9343 -0.0991 -0.0210
25236SOL    HW277716   6.304   0.128   7.582  2.3299 -0.3078 -0.7993
25237SOL     OW77717   5.759   0.243   8.731 -0.4011 -0.0385  0.3361
25237SOL    HW177718   5.715   0.161   8.710 -0.7839  0.7766 -2.5721
25237SOL    HW277719   5.743   0.298   8.654 -1.9056  3.5433  2.9433
25238SOL     OW77720   5.114   9.641   5.168 -0.6042  0.0931  0.6976
25238SOL    HW177721   5.132   9.719   5.115  0.1714 -1.1103 -0.9066
25238SOL    HW277722   5.022   9.621   5.151 -0.0005 -1.1744 -1.5942
25239SOL     OW77723  10.661  10.953   3.683  0.7291  0.8094 -0.1728
25239SOL    HW177724  10.668  11.043   3.716 -0.1135  0.6162  0.5765
25239SOL    HW277725  10.624  10.963   3.595 -3.8385  1.1013  1.4681
25240SOL     OW77726   4.024  10.398   1.375 -0.7101 -0.1331 -0.1512
25240SOL    HW177727   4.098  10.446   1.339  0.0976 -1.1574  0.0843
25240SOL    HW277728   4.042  10.394   1.469 -1.4942  0.3159  0.0248
25241SOL     OW77729   0.755  10.001   6.813 -0.6324  0.5039  0.6050
25241SOL    HW177730   0.746   9.979   6.906 -2.4011  1.2793  0.6704
25241SOL    HW277731   0.727  10.092   6.807 -2.5985 -0.1027 -0.9283
25242SOL     OW77732   1.666   2.328   3.492 -0.0329  0.3377 -0.1504
25242SOL    HW177733   1.590   2.373   3.529 -0.7558 -0.3418 -0.7616
25242SOL    HW277734   1.630   2.276   3.419  0.7035 -1.4329  0.6880
25243SOL     OW77735  10.883   4.289   9.041 -0.2919 -0.5875 -0.7922
25243SOL    HW177736  10.812   4.258   9.097 -1.0907 -0.2524 -1.5834
25243SOL    HW277737  10.939   4.213   9.028  0.5240 -0.4198  1.3042
25244SOL     OW77738   6.602   7.314   8.292  0.3268  0.2735  0.2782
25244SOL    HW177739   6.604   7.328   8.197  2.1744  1.0258  0.3813
25244SOL    HW277740   6.624   7.400   8.328  0.0739 -0.1143  1.3690
25245SOL     OW77741   3.158   6.951   4.574  0.5559 -0.0151 -0.6792
25245SOL    HW177742   3.232   6.901   4.608  0.2263 -0.5311 -0.7057
25245SOL    HW277743   3.179   6.964   4.481 -0.4755 -2.2576 -1.2936
25246SOL     OW77744   4.105   4.343   7.120  0.0119  0.5343  0.1853
25246SOL    HW177745   4.101   4.402   7.045  2.0423  2.7389  1.6684
25246SOL    HW277746   4.047   4.384   7.185  0.8761  0.5362  0.9722
25247SOL     OW77747  10.503   6.990   1.677 -0.0007 -0.3333 -0.1420
25247SOL    HW177748  10.523   6.952   1.763  0.6280 -1.9161 -0.9381
25247SOL    HW277749  10.584   7.035   1.651 -1.2504  3.2072  1.5228
25248SOL     OW77750  10.869  10.477   1.149 -0.6926  0.3525 -0.2020
25248SOL    HW177751  10.939  10.541   1.159 -1.6117  1.1793  1.1928
25248SOL    HW277752  10.868  10.458   1.055  0.2880  1.5737 -0.4847
25249SOL     OW77753   5.368   2.946   5.456 -0.4567  0.7514  0.3272
25249SOL    HW177754   5.323   3.001   5.391 -3.8347 -2.8593 -0.7865
25249SOL    HW277755   5.325   2.968   5.539 -0.5801  0.9756  0.2055
25250SOL     OW77756  10.058   2.157   1.005 -0.5522 -0.3018  0.4181
25250SOL    HW177757  10.119   2.100   0.957 -0.2952 -0.0902  0.4898
25250SOL    HW277758  10.048   2.234   0.948 -0.4389 -0.1596  0.5869
25251SOL     OW77759   7.738   1.673   1.930 -0.4882  0.4164  0.0447
25251SOL    HW177760   7.712   1.727   1.856  0.2769  0.7031 -0.0268
25251SOL    HW277761   7.698   1.716   2.006  0.1701  1.1428 -0.0024
25252SOL     OW77762  10.811   7.350  10.140 -0.4196 -0.5037  0.6036
25252SOL    HW177763  10.862   7.430  10.125  0.1396 -0.7153  1.2913
25252SOL    HW277764  10.773   7.362  10.227 -1.6966 -0.2836  0.0322
25253SOL     OW77765   1.453   6.022   2.774  0.0847  0.0510 -0.6368
25253SOL    HW177766   1.441   6.011   2.680 -0.3409  0.9958 -0.7035
25253SOL    HW277767   1.548   6.027   2.786  0.0992  1.8261 -1.2608
25254SOL     OW77768   5.950  10.007   3.814 -0.0648  0.2107  0.0154
25254SOL    HW177769   6.032  10.050   3.790  0.4969 -1.4204 -1.1312
25254SOL    HW277770   5.956   9.998   3.910  1.1243  0.0670 -0.0540
25255SOL     OW77771   9.064   5.332   6.714  0.8265  0.3503 -0.0509
25255SOL    HW177772   9.070   5.329   6.619  0.2220 -0.8454 -0.0676
25255SOL    HW277773   9.152   5.358   6.743  1.9208 -2.1400 -0.8364
25256SOL     OW77774   8.690   5.856   8.955  0.0163  0.3694  0.1785
25256SOL    HW177775   8.597   5.839   8.941 -0.2660  1.8732  0.0172
25256SOL    HW277776   8.709   5.817   9.041 -0.4373 -1.0618 -0.3547
25257SOL     OW77777  10.561   0.752   0.843 -0.5624 -0.3644  0.7808
25257SOL    HW177778  10.518   0.824   0.797 -1.0982 -1.5996 -0.7403
25257SOL    HW277779  10.566   0.681   0.779 -0.7058 -1.9524  2.4280
25258SOL     OW77780   0.083   1.055   4.994  0.6806  0.2131  0.1535
25258SOL    HW177781   0.100   1.134   5.046 -0.5132  0.0472  0.8167
25258SOL    HW277782   0.106   0.983   5.052  2.0032  0.0482 -0.5358
25259SOL     OW77783   8.060   0.202   8.809 -0.8536  0.5986  0.3774
25259SOL    HW177784   8.076   0.292   8.838  0.4369  0.9438 -1.2950
25259SOL    HW277785   8.133   0.151   8.846 -0.3566  0.6648 -0.4824
25260SOL     OW77786   9.325  11.195   7.131 -0.3944  0.6422  0.2276
25260SOL    HW177787   9.288  11.110   7.155 -0.4862  0.6448  0.0981
25260SOL    HW277788   9.338  11.241   7.214  4.0535 -1.2466  0.8755
25261SOL     OW77789   4.920   3.054   5.700  0.8131  0.4138 -0.3121
25261SOL    HW177790   5.003   3.093   5.726  1.5560 -2.1197  1.6001
25261SOL    HW277791   4.900   2.991   5.770 -1.3171 -1.0261 -2.0590
25262SOL     OW77792   2.217   4.614   1.070 -0.3656  1.1462  0.5874
25262SOL    HW177793   2.269   4.623   0.990 -1.2258  1.1945  0.0199
25262SOL    HW277794   2.263   4.548   1.122 -0.0438  0.7937 -0.1368
25263SOL     OW77795   7.747   5.553   9.804 -0.0218 -0.2810  0.2032
25263SOL    HW177796   7.741   5.586   9.714 -0.6977  1.3389  0.8149
25263SOL    HW277797   7.667   5.500   9.815 -0.8405  0.9560  0.3854
25264SOL     OW77798  11.072   1.868   6.914  0.1470 -0.0842  0.1649
25264SOL    HW177799  11.074   1.933   6.984  1.9150  0.5643 -0.4312
25264SOL    HW277800  10.988   1.881   6.871 -0.9968 -0.5347  2.1550
25265SOL     OW77801  10.891   2.983   5.010 -0.4741 -0.2256 -0.1182
25265SOL    HW177802  10.802   2.952   4.993 -0.1765 -0.7645 -0.7737
25265SOL    HW277803  10.919   2.933   5.086 -0.9715  0.4612  0.5363
25266SOL     OW77804   9.980   7.330   6.082 -0.1662  0.4322  0.1879
25266SOL    HW177805   9.917   7.259   6.065  0.8060 -0.6635  1.0265
25266SOL    HW277806   9.978   7.383   6.002 -1.9742  0.3006  0.1094
25267SOL     OW77807  11.034  10.453   0.165  0.6493  0.5022 -0.3915
25267SOL    HW177808  10.953  10.442   0.215  1.2086 -0.7976  0.2811
25267SOL    HW277809  11.049  10.367   0.126  1.8530  0.6431 -0.2599
25268SOL     OW77810   4.981   1.182   9.836 -0.1854  0.0661  0.1852
25268SOL    HW177811   4.916   1.124   9.875 -1.6174  1.9875  0.7843
25268SOL    HW277812   4.990   1.254   9.898  0.7450  1.0276 -1.0054
25269SOL     OW77813   1.171   6.071   9.996 -0.0598 -0.1027 -0.4081
25269SOL    HW177814   1.222   6.007   9.947  0.9528 -0.9329  1.6000
25269SOL    HW277815   1.237   6.122  10.044 -1.0114 -0.0876  0.9462
25270SOL     OW77816  10.180   8.010   6.847 -1.2697  0.3814 -0.2994
25270SOL    HW177817  10.257   7.984   6.797 -0.7474  0.0746  0.6319
25270SOL    HW277818  10.109   8.010   6.784 -0.6060  0.1306 -1.0606
25271SOL     OW77819   7.630   4.485   8.163 -0.7793  0.2672 -0.3220
25271SOL    HW177820   7.664   4.549   8.226 -0.3474 -0.2766  0.0032
25271SOL    HW277821   7.535   4.484   8.179 -0.5508 -0.7554  1.1857
25272SOL     OW77822   8.673  10.845  10.350 -0.3631  0.2492 -0.0411
25272SOL    HW177823   8.680  10.806  10.263  0.9781  2.1761 -0.8799
25272SOL    HW277824   8.638  10.933  10.334  1.1589  1.1261  1.1740
25273SOL     OW77825   9.038  10.245  10.799 -0.2424 -0.6478 -0.0972
25273SOL    HW177826   8.994  10.328  10.785  1.7705  0.7471  1.2838
25273SOL    HW277827   8.971  10.189  10.839 -1.0892  1.0481  0.9999
25274SOL     OW77828   8.731   7.988  10.679 -0.4913  0.6622  0.3689
25274SOL    HW177829   8.788   8.030  10.743  1.1023  2.9664 -2.3025
25274SOL    HW277830   8.763   7.899  10.672 -0.8087  0.2923  2.7666
25275SOL     OW77831   8.054   0.357   9.679 -0.8971 -0.4216  0.3789
25275SOL    HW177832   8.050   0.430   9.618  0.1080 -0.3332  0.4053
25275SOL    HW277833   7.991   0.379   9.748 -0.4620  0.5079  0.4848
25276SOL     OW77834  10.056   0.593   9.511 -0.6536  0.1865  0.6104
25276SOL    HW177835  10.040   0.659   9.444 -1.3829  0.1932  0.7763
25276SOL    HW277836  10.098   0.520   9.464 -0.1295  0.6372  0.3700
25277SOL     OW77837   5.501   2.988  10.497  0.4067 -0.6160  0.5908
25277SOL    HW177838   5.462   2.905  10.472 -1.0392  0.2157 -0.0324
25277SOL    HW277839   5.431   3.035  10.543  1.4624 -0.0800  1.7198
25278SOL     OW77840   1.840  10.045   2.254 -0.2211 -0.2608  0.6530
25278SOL    HW177841   1.774  10.109   2.283 -0.4319  0.0449 -0.4613
25278SOL    HW277842   1.804   9.960   2.281 -1.3635 -0.1441 -0.4050
25279SOL     OW77843   0.373   4.146  10.268  0.2870 -0.6808  0.7934
25279SOL    HW177844   0.382   4.108  10.181 -3.5970 -1.9573  0.7557
25279SOL    HW277845   0.338   4.234  10.252  2.5726  0.3587  1.0918
25280SOL     OW77846  11.121   5.565   7.431 -0.0307  1.0857 -0.2434
25280SOL    HW177847  11.143   5.516   7.352 -4.1970 -0.3992 -0.7347
25280SOL    HW277848  11.157   5.652   7.416 -0.0096  0.6573 -3.4756
25281SOL     OW77849   8.765   1.808   1.202 -0.3200 -0.1457  0.2973
25281SOL    HW177850   8.691   1.867   1.215  0.9606  1.1535  2.0718
25281SOL    HW277851   8.831   1.861   1.158 -0.6292 -1.5159 -2.0365
25282SOL     OW77852   1.345   9.950   0.364  0.3544 -0.5910 -0.4616
25282SOL    HW177853   1.267   9.982   0.319 -0.2606 -0.5707  0.5812
25282SOL    HW277854   1.349  10.001   0.445  1.8440 -0.1180 -0.8099
25283SOL     OW77855   7.078   3.074  10.784  0.0297 -0.2790 -0.4381
25283SOL    HW177856   7.031   3.104  10.862 -0.1099  1.8838 -1.2714
25283SOL    HW277857   7.039   3.125  10.713  1.3701 -0.9045 -1.6579
25284SOL     OW77858   2.669   1.257   7.374 -0.2135 -0.5373 -0.5468
25284SOL    HW177859   2.717   1.337   7.392 -2.2579  0.4858  0.7027
25284SOL    HW277860   2.690   1.237   7.282  1.5197  0.5285 -0.4426
25285SOL     OW77861   1.529   5.037   7.978 -1.2262  0.6217 -0.0921
25285SOL    HW177862   1.465   4.968   7.995 -0.8848 -0.1229 -1.6089
25285SOL    HW277863   1.535   5.041   7.883  0.2389  1.3703 -0.0011
25286SOL     OW77864   7.042   3.857   4.263  0.2025 -0.1885 -0.8943
25286SOL    HW177865   6.964   3.912   4.258  0.1565 -0.3034 -1.5256
25286SOL    HW277866   7.112   3.912   4.229  0.1385 -0.5476 -1.6245
25287SOL     OW77867  10.851   2.798   6.245 -0.8991 -0.0338 -0.1964
25287SOL    HW177868  10.761   2.769   6.257 -1.1751  0.8222 -0.1644
25287SOL    HW277869  10.860   2.874   6.302 -1.3994  2.4158 -3.1361
25288SOL     OW77870   1.845   3.671   8.230  0.5683 -0.3918 -0.1244
25288SOL    HW177871   1.778   3.663   8.299  1.7646 -0.1386  1.1055
25288SOL    HW277872   1.843   3.586   8.186 -0.5344 -0.4002 -0.0923
25289SOL     OW77873   4.066   9.757   6.233 -0.5416 -0.0628  0.6016
25289SOL    HW177874   4.047   9.679   6.181  0.0053 -0.2283  0.6483
25289SOL    HW277875   3.980   9.800   6.244 -0.7249 -0.2465 -0.0716
25290SOL     OW77876   7.503   4.853   8.494 -0.1848  0.2184 -0.0636
25290SOL    HW177877   7.525   4.945   8.479  2.3089  0.0131  1.6083
25290SOL    HW277878   7.503   4.814   8.407  0.2637  1.5068 -0.6740
25291SOL     OW77879   5.685   1.713   3.296  0.2513 -0.1137  0.3785
25291SOL    HW177880   5.707   1.627   3.330 -0.4549 -0.6287 -0.4180
25291SOL    HW277881   5.608   1.698   3.241 -2.6850  1.6073  3.5301
25292SOL     OW77882   2.912   0.153  10.943 -0.3043  0.1479  0.3970
25292SOL    HW177883   2.972   0.078  10.942 -0.8839 -0.3175  0.0603
25292SOL    HW277884   2.970   0.230  10.939  0.3303 -0.2481  1.6050
25293SOL     OW77885   6.777   9.195   9.529  0.0089 -0.0950 -0.0075
25293SOL    HW177886   6.832   9.117   9.540  0.0573  0.0354  0.7226
25293SOL    HW277887   6.698   9.176   9.580 -0.2393  0.0851 -0.3264
25294SOL     OW77888   1.225   7.171   2.284 -0.2338  0.1434 -0.2111
25294SOL    HW177889   1.261   7.192   2.197 -0.0956  0.4964 -0.0729
25294SOL    HW277890   1.133   7.197   2.279 -0.0794  0.7475 -0.0626
25295SOL     OW77891   1.483   9.787   2.719 -0.8686 -0.1694  0.2451
25295SOL    HW177892   1.502   9.704   2.675  1.6392  0.9890 -1.0819
25295SOL    HW277893   1.418   9.829   2.662  0.5547  0.2759 -1.1214
25296SOL     OW77894   2.919   2.617  10.435 -0.0059 -0.5927 -0.0243
25296SOL    HW177895   3.004   2.640  10.474 -0.4779 -0.0835  0.7224
25296SOL    HW277896   2.859   2.684  10.466 -0.2930  0.1917 -2.1296
25297SOL     OW77897   1.018   0.687   6.169 -0.7918 -0.0784 -0.7928
25297SOL    HW177898   0.937   0.738   6.176 -0.1991  0.6997  0.9543
25297SOL    HW277899   0.995   0.602   6.208 -0.6351  0.3310  0.2142
25298SOL     OW77900   9.638   7.613   7.733  0.3546 -0.0064  0.0766
25298SOL    HW177901   9.716   7.635   7.682  1.4821 -1.3213  1.1572
25298SOL    HW277902   9.568   7.609   7.669  1.2349  0.8715 -0.9768
25299SOL     OW77903   4.741   9.377   5.527  0.1801  0.0989 -0.6263
25299SOL    HW177904   4.657   9.380   5.481  0.9471 -0.0443 -2.1081
25299SOL    HW277905   4.804   9.411   5.464  1.2932 -0.1328  0.3240
25300SOL     OW77906   8.504   6.014  10.646  0.0344 -0.1198 -0.3736
25300SOL    HW177907   8.474   6.075  10.713 -0.2144 -0.2282 -0.3839
25300SOL    HW277908   8.439   5.944  10.646  2.3223 -2.4688  2.3738
25301SOL     OW77909   5.220   0.733   7.847 -0.3867  0.2413 -0.2023
25301SOL    HW177910   5.256   0.695   7.767  0.0441  2.3149 -1.0748
25301SOL    HW277911   5.135   0.768   7.820 -1.8669 -2.0578  1.1454
25302SOL     OW77912   0.023   4.212   7.672  0.6036 -0.0645  0.7947
25302SOL    HW177913   0.017   4.277   7.742  1.5330  0.6865  0.1956
25302SOL    HW277914   0.032   4.263   7.592 -1.1227 -0.8883  0.0058
25303SOL     OW77915   5.158   9.119   5.968 -0.1901  0.4936  0.6450
25303SOL    HW177916   5.082   9.163   5.930 -0.3869  1.4028  2.0050
25303SOL    HW277917   5.143   9.026   5.951 -1.7929  0.6163  1.1752
25304SOL     OW77918   6.809   7.411   9.736 -0.0953 -0.1788 -0.6006
25304SOL    HW177919   6.890   7.385   9.779 -0.7595 -1.9276 -0.3200
25304SOL    HW277920   6.837   7.457   9.657  1.1726 -0.8267 -0.5543
25305SOL     OW77921   6.068   0.221   0.442  0.3321  0.1192 -0.1328
25305SOL    HW177922   6.160   0.197   0.428  0.2804  0.8768 -1.9714
25305SOL    HW277923   6.072   0.300   0.496  0.8476  1.0550 -1.5015
25306SOL     OW77924  11.152   0.837   2.995  0.0997  0.0978  0.0142
25306SOL    HW177925  11.230   0.874   3.036  0.1647 -1.1660  1.1228
25306SOL    HW277926  11.083   0.901   3.012  0.0344 -0.5203  2.5540
25307SOL     OW77927   5.161   4.123   2.942 -1.0296 -0.0543 -0.1256
25307SOL    HW177928   5.123   4.063   3.005 -1.2080  0.5594  0.3519
25307SOL    HW277929   5.182   4.202   2.992  1.8719 -0.7167 -0.0891
25308SOL     OW77930   5.769   8.629   8.519  0.3315  0.0903  0.7178
25308SOL    HW177931   5.710   8.660   8.450  0.9155  0.4731  0.3758
25308SOL    HW277932   5.857   8.641   8.482  0.6064 -1.3992  0.8147
25309SOL     OW77933   9.038   7.127   2.690  0.2560  0.4493  0.2274
25309SOL    HW177934   9.086   7.204   2.661 -1.6806  0.7173 -2.6712
25309SOL    HW277935   9.081   7.054   2.645 -1.0972  0.5449 -1.3244
25310SOL     OW77936  11.195   7.537   6.449 -0.1282  0.0009 -0.2972
25310SOL    HW177937  11.207   7.497   6.535  1.0912 -1.9785 -1.3168
25310SOL    HW277938  11.273   7.512   6.400 -1.4915 -0.2280 -2.4653
25311SOL     OW77939   2.874   0.310   4.306  0.2504 -0.0209 -0.4346
25311SOL    HW177940   2.904   0.220   4.318 -2.3633 -0.6123  3.8802
25311SOL    HW277941   2.787   0.301   4.267 -0.5333  0.4541  1.1286
25312SOL     OW77942  11.129   2.797   6.198  0.0075  1.2591 -0.3923
25312SOL    HW177943  11.036   2.777   6.201  0.0754  0.7172 -1.3673
25312SOL    HW277944  11.142   2.863   6.266 -0.3771 -1.4240  2.5761
25313SOL     OW77945  11.042   8.576   3.885  0.1959  0.4316  0.7934
25313SOL    HW177946  11.136   8.572   3.872  0.2058  1.2336  0.5667
25313SOL    HW277947  11.030   8.575   3.980  0.6251  3.2188  0.9726
25314SOL     OW77948   8.569   4.868   6.144 -0.0452  0.1354 -0.2143
25314SOL    HW177949   8.620   4.935   6.099 -0.1180  0.8647  0.7472
25314SOL    HW277950   8.564   4.796   6.082  1.6946  0.2495 -0.5413
25315SOL     OW77951   1.864   0.761   0.485 -0.2529  0.3286 -0.5545
25315SOL    HW177952   1.818   0.686   0.522 -2.0554  1.7769  0.2895
25315SOL    HW277953   1.817   0.837   0.518  0.5104  1.8211 -2.6713
25316SOL     OW77954  10.825   0.979   4.842  0.0215  0.3792 -0.3193
25316SOL    HW177955  10.878   0.912   4.885  1.0912  1.7108  0.5321
25316SOL    HW277956  10.788   0.935   4.765  1.1375 -1.0171 -0.0988
25317SOL     OW77957   0.063   3.946   6.791  0.6173  0.4039  0.3308
25317SOL    HW177958   0.025   3.861   6.768 -0.1282  0.6759  0.5251
25317SOL    HW277959   0.043   4.002   6.716  1.0392  0.4296  0.2364
25318SOL     OW77960   1.685   9.807   8.666  0.7814  0.2094  0.7403
25318SOL    HW177961   1.686   9.854   8.582 -1.0094  2.2260  1.7202
25318SOL    HW277962   1.599   9.765   8.668  0.4239  0.9500  1.9088
25319SOL     OW77963   5.381   6.309   6.941  0.2973  0.1879  0.2759
25319SOL    HW177964   5.323   6.370   6.895  0.1666  0.8482  1.2670
25319SOL    HW277965   5.457   6.299   6.883 -0.6423 -0.4060 -0.8703
25320SOL     OW77966  10.264   1.828   7.405  0.4201  0.1438  0.7473
25320SOL    HW177967  10.180   1.819   7.360 -0.1352  1.2266  1.5016
25320SOL    HW277968  10.257   1.912   7.452  2.0384  0.4114  0.5884
25321SOL     OW77969   4.897   5.060   3.589 -0.3498  0.1273  0.2594
25321SOL    HW177970   4.938   5.024   3.668  0.5806  3.1300  1.2767
25321SOL    HW277971   4.895   4.986   3.528  2.2145 -1.4235  1.8428
25322SOL     OW77972   9.411   6.930   7.498 -0.1005 -0.3699 -0.7302
25322SOL    HW177973   9.454   7.015   7.488  0.1157 -0.5931 -1.8293
25322SOL    HW277974   9.342   6.930   7.431 -0.9333 -0.5621  0.1045
25323SOL     OW77975   5.561   1.760   5.322  0.6075  0.0053  0.1900
25323SOL    HW177976   5.656   1.745   5.328  0.3485 -1.1917  3.9501
25323SOL    HW277977   5.536   1.721   5.239  3.2990 -0.4388 -0.5198
25324SOL     OW77978   5.511  10.916   3.273  0.4990  0.3722 -0.7685
25324SOL    HW177979   5.429  10.937   3.319  0.6258  1.0078 -0.8228
25324SOL    HW277980   5.506  10.967   3.192 -0.0330 -1.2500 -1.8005
25325SOL     OW77981   4.890  11.209   3.171  0.7391 -0.0138  0.0544
25325SOL    HW177982   4.841  11.204   3.089 -0.7924  1.9754  0.7577
25325SOL    HW277983   4.962  11.268   3.151 -0.1828  1.2540  0.3330
25326SOL     OW77984   1.701   6.232   4.104  0.2781  0.6639  0.1053
25326SOL    HW177985   1.656   6.258   4.184 -0.6492 -0.8994  0.1294
25326SOL    HW277986   1.656   6.282   4.035  1.5757  2.5940  0.5794
25327SOL     OW77987   5.645   2.985   5.389  0.6157 -0.2669  0.3469
25327SOL    HW177988   5.551   2.971   5.378  0.4783  1.1896 -0.7805
25327SOL    HW277989   5.656   3.002   5.482 -0.2474 -0.4476  0.4949
25328SOL     OW77990   8.693   0.405   3.213  0.7152 -0.1258  0.0243
25328SOL    HW177991   8.734   0.372   3.133  2.9856  0.1065  1.0181
25328SOL    HW277992   8.663   0.327   3.259  1.7528 -0.4845  0.1294
25329SOL     OW77993   6.731   3.694   8.800 -0.6090  0.1638 -0.0522
25329SOL    HW177994   6.794   3.661   8.864 -1.6791  1.3404  1.7008
25329SOL    HW277995   6.664   3.738   8.853 -1.8191  0.7484 -1.9693
25330SOL     OW77996   3.157   8.656   6.104  0.4203  0.5882 -0.8289
25330SOL    HW177997   3.189   8.577   6.147  0.6757  1.0543 -0.1335
25330SOL    HW277998   3.062   8.644   6.097  0.2698  0.8121  0.5635
25331SOL     OW77999   7.672   5.897   0.398  0.0827 -0.4432 -0.0502
25331SOL    HW178000   7.620   5.926   0.322 -0.3228  2.0888  1.0844
25331SOL    HW278001   7.759   5.934   0.383  0.6128 -1.7124 -0.2424
25332SOL     OW78002   1.879   0.208   5.170  0.1165 -0.0759 -0.0306
25332SOL    HW178003   1.955   0.183   5.224  0.0486 -0.4397 -0.1024
25332SOL    HW278004   1.910   0.196   5.080  0.3792  0.9572 -0.0934
25333SOL     OW78005   3.627   1.129   5.250  0.2534  0.2104 -0.3233
25333SOL    HW178006   3.708   1.078   5.258  1.3106  1.8563 -0.2209
25333SOL    HW278007   3.566   1.086   5.311  1.2310 -0.6853  0.0509
25334SOL     OW78008   8.620   2.317   5.105  0.0123 -0.0028 -0.9893
25334SOL    HW178009   8.539   2.267   5.107  0.4861 -0.7775 -0.7775
25334SOL    HW278010   8.687   2.253   5.079  1.0290 -0.0980  1.6159
25335SOL     OW78011   0.971   0.132   1.801  0.6888 -0.3190 -0.3858
25335SOL    HW178012   0.990   0.223   1.821 -1.8330  0.2466 -0.2033
25335SOL    HW278013   1.001   0.084   1.878 -1.2918  0.8415  1.1856
25336SOL     OW78014   1.275   8.261   0.808 -0.1438 -0.5735  0.0037
25336SOL    HW178015   1.217   8.283   0.736  1.0294  0.8954 -0.5619
25336SOL    HW278016   1.324   8.185   0.778  0.6866  0.3279 -0.9915
25337SOL     OW78017   8.109   7.130   6.700 -0.2555  0.3562 -0.0423
25337SOL    HW178018   8.135   7.040   6.681  3.0137  1.5623 -2.1286
25337SOL    HW278019   8.155   7.152   6.781  2.0584  1.1514 -1.4661
25338SOL     OW78020   7.771  10.512   2.502 -0.5032  0.0888  0.4618
25338SOL    HW178021   7.715  10.588   2.485 -1.6066 -0.4248  1.6081
25338SOL    HW278022   7.773  10.465   2.419 -0.6316  0.8363  0.0235
25339SOL     OW78023  10.662   0.224   7.529  0.0590  0.5350 -0.0012
25339SOL    HW178024  10.587   0.275   7.500 -0.5344 -1.1932 -1.7253
25339SOL    HW278025  10.656   0.224   7.624  0.3881  3.9959  0.1468
25340SOL     OW78026   2.317  10.096   9.139  0.4888  0.2193  0.3229
25340SOL    HW178027   2.396  10.066   9.185  0.0610  0.3772  1.1739
25340SOL    HW278028   2.259  10.021   9.139  0.5859  0.1414 -0.1973
25341SOL     OW78029   8.840   7.352   2.550 -0.2071  0.5774  0.3954
25341SOL    HW178030   8.879   7.265   2.554 -1.6967 -0.1947 -0.9503
25341SOL    HW278031   8.822   7.374   2.642 -0.7106 -0.9635  0.6921
25342SOL     OW78032  10.535   6.706   8.170 -0.5983  0.1337 -0.2305
25342SOL    HW178033  10.452   6.749   8.149 -0.7413 -0.3624 -0.7292
25342SOL    HW278034  10.509   6.621   8.206 -0.3225  0.4488  0.7321
25343SOL     OW78035   4.892   9.843   3.783  0.5107 -0.1563 -0.2292
25343SOL    HW178036   4.878   9.933   3.813  1.0255  0.0045 -0.4438
25343SOL    HW278037   4.937   9.853   3.699 -2.4031 -0.5633 -1.9525
25344SOL     OW78038   6.830   4.720   5.496 -0.1752 -0.0824  0.7663
25344SOL    HW178039   6.895   4.652   5.475 -1.3382 -0.7538 -0.8952
25344SOL    HW278040   6.746   4.674   5.490 -0.8771  1.0519  1.6616
25345SOL     OW78041   3.471   1.954   1.492  0.5605 -0.4846  0.4727
25345SOL    HW178042   3.381   1.983   1.506  0.2925  0.0858 -1.9184
25345SOL    HW278043   3.522   1.998   1.560 -0.2870  3.1616 -1.0137
25346SOL     OW78044   4.436  10.961   8.495 -0.7401  0.5651  0.0613
25346SOL    HW178045   4.519  10.934   8.534 -1.2367  0.2136  0.8859
25346SOL    HW278046   4.458  10.980   8.403  0.8500  3.2512  0.8843
25347SOL     OW78047   2.968   2.109   7.541  0.2214  0.9006  0.0883
25347SOL    HW178048   3.016   2.124   7.459  1.7649 -0.5399  0.6740
25347SOL    HW278049   2.878   2.094   7.513  0.3300  2.2752 -1.1687
25348SOL     OW78050   3.497   1.010   0.807 -0.0534 -0.7361  0.2185
25348SOL    HW178051   3.452   1.030   0.726  1.6763 -0.4826 -0.7208
25348SOL    HW278052   3.576   1.065   0.806 -1.0811  1.0468  3.1721
25349SOL     OW78053   4.958  11.144   2.541 -0.0244  0.5692 -0.2726
25349SOL    HW178054   5.005  11.081   2.486  0.1352 -0.7762  1.3301
25349SOL    HW278055   5.010  11.224   2.536  2.1812 -0.6782  0.9312
25350SOL     OW78056   6.073   5.105   3.603  0.0226  0.7688  0.1009
25350SOL    HW178057   6.011   5.046   3.646  0.4810 -0.1118 -0.4228
25350SOL    HW278058   6.113   5.154   3.675 -0.9504  1.0407  0.4751
25351SOL     OW78059   2.899   5.550   9.651  0.5066 -0.0727  0.1393
25351SOL    HW178060   2.809   5.518   9.657 -0.2559  1.4596 -1.9766
25351SOL    HW278061   2.912   5.603   9.730 -0.2061 -0.8367  0.7730
25352SOL     OW78062   8.557   2.783   0.122 -0.1935  0.1765 -0.6396
25352SOL    HW178063   8.467   2.787   0.153 -0.3408 -1.2200 -0.7988
25352SOL    HW278064   8.559   2.707   0.063  0.4927  1.6630 -2.6591
25353SOL     OW78065   1.014   2.268   7.875  0.3800 -0.5249  0.2691
25353SOL    HW178066   1.027   2.227   7.789  0.1004 -0.5044  0.2155
25353SOL    HW278067   1.103   2.283   7.908  0.4886 -0.7640  0.0947
25354SOL     OW78068  10.576   8.146   2.082 -0.5825 -0.1675 -0.0846
25354SOL    HW178069  10.497   8.198   2.097 -0.4400  1.2312 -3.2811
25354SOL    HW278070  10.545   8.056   2.073 -1.9788  0.4227 -1.8373
25355SOL     OW78071   7.325   0.748  11.016 -0.3568  0.3261  0.0572
25355SOL    HW178072   7.264   0.746  11.090  0.3403  2.7400  0.7856
25355SOL    HW278073   7.309   0.833  10.975 -0.5456 -0.8671 -2.4620
25356SOL     OW78074  10.625   7.653   2.459  0.6150 -0.4940 -0.2987
25356SOL    HW178075  10.711   7.682   2.430  0.8227 -0.4545  0.3531
25356SOL    HW278076  10.640   7.609   2.543  0.0421 -0.7438 -0.3174
25357SOL     OW78077   1.059   0.055   9.213 -0.0870  0.2118 -0.0751
25357SOL    HW178078   1.090   0.146   9.221  0.0993  0.0443  1.4456
25357SOL    HW278079   1.093   0.012   9.291 -1.5179 -0.7687  0.0419
25358SOL     OW78080   8.845   1.040   0.662 -0.5158  0.0116 -0.1510
25358SOL    HW178081   8.926   1.035   0.713  1.1413  0.5209 -2.5880
25358SOL    HW278082   8.864   0.996   0.580 -2.7478  0.1287 -0.8086
25359SOL     OW78083   0.100   8.353   0.063  0.3019  0.5014 -0.2939
25359SOL    HW178084   0.105   8.443   0.030 -0.7594 -0.1052 -2.2700
25359SOL    HW278085   0.007   8.330   0.055  0.2783 -0.2735  1.6974
25360SOL     OW78086   4.262   0.141   4.301 -0.7321  0.7844  0.6314
25360SOL    HW178087   4.254   0.146   4.206  0.6850  1.9407  0.5294
25360SOL    HW278088   4.279   0.049   4.319 -2.0343  0.3703 -0.1151
25361SOL     OW78089   2.951   0.532   4.474  0.0741 -0.0230 -0.4123
25361SOL    HW178090   3.021   0.476   4.508  0.3062  1.1397  1.1262
25361SOL    HW278091   2.895   0.472   4.425  1.0478 -1.3452  0.0204
25362SOL     OW78092   9.938  10.248   6.442 -0.3916  0.3014  0.3937
25362SOL    HW178093   9.871  10.180   6.432 -1.0220  0.5430  2.4785
25362SOL    HW278094   9.959  10.247   6.535  1.3791  1.3247  0.0448
25363SOL     OW78095   1.277   5.349   5.798 -0.3155  0.1687  0.0513
25363SOL    HW178096   1.195   5.388   5.767 -0.8386 -1.0867 -0.1881
25363SOL    HW278097   1.316   5.417   5.853 -3.1598 -0.3365  3.0063
25364SOL     OW78098   2.123  10.843   9.714  0.5244  0.2730 -0.0519
25364SOL    HW178099   2.074  10.764   9.737  0.1989  0.2148 -0.9156
25364SOL    HW278100   2.174  10.862   9.792 -2.8642  1.8997  2.0138
25365SOL     OW78101   0.450   4.721   1.519 -0.0413  0.4833  0.2790
25365SOL    HW178102   0.462   4.734   1.613  0.9676  0.3652  0.1697
25365SOL    HW278103   0.537   4.734   1.481 -0.4671  0.6820 -0.6592
25366SOL     OW78104   4.525   7.721   8.219 -0.1345 -0.5416  0.3832
25366SOL    HW178105   4.479   7.802   8.241  0.2377 -0.2686  0.1663
25366SOL    HW278106   4.567   7.694   8.301 -1.2714 -1.1915  0.7771
25367SOL     OW78107   1.520   6.273   6.645  0.4402  0.3451  0.2402
25367SOL    HW178108   1.495   6.202   6.705 -0.1796  1.9060  1.9442
25367SOL    HW278109   1.511   6.352   6.698  0.6086  1.7549 -1.7449
25368SOL     OW78110   8.329   1.478   7.150  0.1037  0.0952 -0.2065
25368SOL    HW178111   8.390   1.476   7.076  0.9045  0.0981  0.4380
25368SOL    HW278112   8.372   1.425   7.217 -1.8421 -2.2166 -0.6486
25369SOL     OW78113   0.163   1.190   8.212  0.5888  0.6731  0.7711
25369SOL    HW178114   0.162   1.173   8.306 -0.1149  0.2028  0.6842
25369SOL    HW278115   0.077   1.161   8.181  0.6331  1.2638  0.0579
25370SOL     OW78116   3.819   0.000   7.892 -0.4146 -0.9975  0.1982
25370SOL    HW178117   3.856  -0.088   7.890  0.0479 -0.9665  3.0192
25370SOL    HW278118   3.895   0.058   7.888 -0.2622 -0.8847  2.8794
25371SOL     OW78119   9.735  11.133   4.943  0.6483 -0.1799 -0.0579
25371SOL    HW178120   9.800  11.082   4.893  1.6024  0.2958  0.6572
25371SOL    HW278121   9.732  11.090   5.028 -1.4321 -1.3584 -0.6712
25372SOL     OW78122   8.301   1.876   6.524 -0.0029 -0.3218  0.5684
25372SOL    HW178123   8.367   1.912   6.583  0.2174 -1.0796  0.8034
25372SOL    HW278124   8.227   1.936   6.530  0.8177  0.7968 -0.0407
25373SOL     OW78125   3.537  10.769   8.153 -0.1267 -0.0439  0.2007
25373SOL    HW178126   3.483  10.694   8.128  1.5005 -1.0115 -0.5354
25373SOL    HW278127   3.552  10.816   8.071  0.8650 -0.2715  0.2496
25374SOL     OW78128   1.782   7.504  11.281 -0.3315  0.3117  0.4617
25374SOL    HW178129   1.692   7.537  11.290  0.0908  1.6448 -0.0240
25374SOL    HW278130   1.795   7.496  11.187  0.3263  0.9085  0.4964
25375SOL     OW78131   8.139   3.936   3.112 -0.0439 -0.4786  0.2374
25375SOL    HW178132   8.045   3.943   3.091 -0.0442  1.1482  0.6332
25375SOL    HW278133   8.177   4.018   3.079  1.0212 -0.5759  1.1629
25376SOL     OW78134   9.437   9.997   8.413 -0.2806  0.3406 -0.4964
25376SOL    HW178135   9.474   9.930   8.470 -0.8429  0.4382 -0.0087
25376SOL    HW278136   9.442   9.960   8.325  0.6945  0.2319 -0.4032
25377SOL     OW78137   8.437   7.980   9.762  0.1015  0.3882  0.5413
25377SOL    HW178138   8.455   7.957   9.853  1.2983  1.4928  0.6121
25377SOL    HW278139   8.359   7.930   9.740 -0.6316  0.6198  2.3955
25378SOL     OW78140   4.599   6.420  10.194 -0.0849  0.1206  0.7522
25378SOL    HW178141   4.514   6.407  10.237 -0.4742  0.7036  0.1778
25378SOL    HW278142   4.655   6.352  10.232 -0.5363  0.3245  1.8462
25379SOL     OW78143   2.518   1.682   8.328 -0.2656  0.2579 -0.8182
25379SOL    HW178144   2.515   1.703   8.421  1.3010 -0.1817 -0.6398
25379SOL    HW278145   2.505   1.766   8.284  1.7940  1.0040 -0.1473
25380SOL     OW78146  10.096   7.674  10.348  0.4330 -0.3653  0.2077
25380SOL    HW178147  10.192   7.678  10.349  0.5093 -1.8290  1.0747
25380SOL    HW278148  10.075   7.589  10.386 -1.1941 -0.6054 -1.1213
25381SOL     OW78149   4.822   9.012   7.463  0.0165  0.2250  0.1253
25381SOL    HW178150   4.912   8.984   7.480 -0.5942 -0.8193  1.9738
25381SOL    HW278151   4.803   8.980   7.375  1.7329  1.3185 -0.7036
25382SOL     OW78152   1.967   9.389   2.259 -0.2530 -0.5161 -0.0586
25382SOL    HW178153   1.924   9.441   2.326 -0.3531 -0.5646 -0.0858
25382SOL    HW278154   1.896   9.358   2.202 -0.2106 -0.8134  0.0476
25383SOL     OW78155  11.188   1.061   0.621  0.3966 -0.0746 -0.2571
25383SOL    HW178156  11.149   0.974   0.612  1.0799 -0.4732  0.4816
25383SOL    HW278157  11.113   1.120   0.630 -0.1973 -0.2269 -3.2018
25384SOL     OW78158   8.467   2.287   6.438 -0.4616  0.3608  0.2524
25384SOL    HW178159   8.454   2.382   6.432 -0.6200  0.3963  1.0224
25384SOL    HW278160   8.474   2.258   6.348  3.4481  1.6330 -0.0552
25385SOL     OW78161   4.286   8.904   1.869 -0.7993 -0.5565 -0.0914
25385SOL    HW178162   4.336   8.947   1.939 -0.9389  0.3641 -0.5428
25385SOL    HW278163   4.353   8.876   1.807 -0.8473  1.8392 -1.3447
25386SOL     OW78164   3.528   0.625   8.232  0.2340 -0.0254  0.0492
25386SOL    HW178165   3.452   0.575   8.262  0.8921 -0.5584  0.8491
25386SOL    HW278166   3.512   0.637   8.138 -2.1987  2.2513  0.6128
25387SOL     OW78167  10.437   0.802  10.660 -0.0489 -0.4240 -0.2015
25387SOL    HW178168  10.381   0.866  10.617 -0.0505 -1.0276 -1.1128
25387SOL    HW278169  10.431   0.724  10.605  1.5362 -0.5635 -0.2173
25388SOL     OW78170   7.488   3.982   1.657  0.2854 -0.5886 -0.6078
25388SOL    HW178171   7.507   3.892   1.630 -2.1404 -1.0375 -1.1112
25388SOL    HW278172   7.504   4.035   1.580  1.2419 -0.6509 -0.4580
25389SOL     OW78173   0.469   5.357   0.914  0.3502 -0.5297 -0.2781
25389SOL    HW178174   0.414   5.411   0.971 -1.8416  1.0728 -3.6299
25389SOL    HW278175   0.474   5.272   0.959 -0.6475  0.7930  2.5533
25390SOL     OW78176   4.281  10.383   0.883  0.7212 -0.1675 -0.1595
25390SOL    HW178177   4.186  10.389   0.872  0.8709  1.4093 -0.8997
25390SOL    HW278178   4.310  10.326   0.811  0.1676 -2.4441  1.3267
25391SOL     OW78179   6.633   2.572   5.530 -0.4470  0.3639 -0.1920
25391SOL    HW178180   6.574   2.645   5.552 -0.4356  0.8715 -1.7237
25391SOL    HW278181   6.581   2.517   5.472 -0.0720 -0.2772  0.0738
25392SOL     OW78182   5.420   0.274   2.013  0.6508  0.2824 -0.6156
25392SOL    HW178183   5.407   0.328   1.934 -0.3018  1.0298  0.0245
25392SOL    HW278184   5.510   0.242   2.006 -0.2547 -2.0734 -3.4829
25393SOL     OW78185   8.885   0.354   8.402  0.1053  0.2298 -0.6176
25393SOL    HW178186   8.800   0.313   8.388  0.5996 -0.5752 -1.3920
25393SOL    HW278187   8.906   0.396   8.319  0.1111  1.1019 -0.1792
25394SOL     OW78188   3.928   3.864   2.263  0.4019 -0.5498  0.2824
25394SOL    HW178189   3.965   3.899   2.344  0.2640 -1.6139  0.8259
25394SOL    HW278190   3.967   3.916   2.194 -0.0709  0.8945  1.0730
25395SOL     OW78191   3.833   6.790  10.408 -0.1710  0.7768 -0.3612
25395SOL    HW178192   3.858   6.761  10.496 -0.1192 -0.8488 -0.8789
25395SOL    HW278193   3.897   6.858  10.386  0.3356  0.5975  0.5346
25396SOL     OW78194   0.843   0.844  10.355  0.0401  0.1297 -0.0205
25396SOL    HW178195   0.759   0.827  10.314  0.3302  0.8896 -0.9693
25396SOL    HW278196   0.888   0.760  10.355 -0.8556 -0.3620  0.8450
25397SOL     OW78197   4.243   7.135   4.625  0.3599 -0.3570  0.8423
25397SOL    HW178198   4.180   7.197   4.589  0.2176 -0.1670  1.4015
25397SOL    HW278199   4.312   7.129   4.559 -0.1830 -0.4689  0.2822
25398SOL     OW78200   9.810   7.314   2.559  0.6177  0.0009  0.3081
25398SOL    HW178201   9.871   7.368   2.508  1.2784  0.5316  1.6120
25398SOL    HW278202   9.836   7.328   2.650 -2.4584  1.5614  1.0890
25399SOL     OW78203   8.436   3.162   3.499  0.1482  0.4968 -0.1484
25399SOL    HW178204   8.362   3.222   3.485 -1.3309 -1.0143  0.7846
25399SOL    HW278205   8.512   3.210   3.466 -1.0652  2.5723 -0.1247
25400SOL     OW78206   2.694   2.128   6.601  0.2807 -0.3901  0.4423
25400SOL    HW178207   2.788   2.116   6.614  0.3084 -0.2704  0.3441
25400SOL    HW278208   2.663   2.041   6.573  0.0012 -1.0370  2.5665
25401SOL     OW78209   4.131   6.951   3.233  1.0485 -0.3918  0.5938
25401SOL    HW178210   4.072   7.008   3.282 -0.2201  0.3595 -1.6935
25401SOL    HW278211   4.118   6.864   3.273 -1.5446 -0.2329  0.3010
25402SOL     OW78212   6.101   5.748   5.352 -0.4619 -0.6171  0.4169
25402SOL    HW178213   6.152   5.810   5.300  2.0069 -1.5369  1.5968
25402SOL    HW278214   6.162   5.716   5.418 -2.2716 -2.7192  1.1860
25403SOL     OW78215   1.794   2.611   0.754  0.0937 -0.5001 -0.1528
25403SOL    HW178216   1.713   2.618   0.804 -0.5003 -1.9033 -0.8615
25403SOL    HW278217   1.812   2.517   0.750  1.5301 -0.2343 -0.3701
25404SOL     OW78218   2.137   4.002   0.187 -0.0050  0.0476 -0.0761
25404SOL    HW178219   2.094   3.988   0.271 -0.2616 -0.9282 -0.3529
25404SOL    HW278220   2.094   4.079   0.151 -3.1161 -2.0032 -1.2634
25405SOL     OW78221   0.572   6.740   4.806 -0.3399 -0.7461  0.6964
25405SOL    HW178222   0.543   6.824   4.769  1.3559  0.3880  1.7794
25405SOL    HW278223   0.502   6.679   4.784 -2.9391  1.5060  2.0491
25406SOL     OW78224   6.822   1.950   6.397  0.7846  0.0674  0.4281
25406SOL    HW178225   6.836   1.933   6.304  1.6717 -0.4942  0.6529
25406SOL    HW278226   6.910   1.947   6.435  0.5772  1.6139  1.0835
25407SOL     OW78227   1.972   5.685   2.584 -0.0999 -0.1516  0.3047
25407SOL    HW178228   2.066   5.698   2.578 -0.2865  0.8766 -1.0401
25407SOL    HW278229   1.952   5.690   2.677  1.2720 -1.2833  0.6823
25408SOL     OW78230   6.719   0.716   0.897  0.1442  0.2480 -0.2227
25408SOL    HW178231   6.728   0.761   0.981 -1.5620  2.8071 -1.2914
25408SOL    HW278232   6.628   0.687   0.895  0.4475 -0.7289 -0.8083
25409SOL     OW78233   7.972   8.406   8.345 -0.1801  0.2125  0.1091
25409SOL    HW178234   8.067   8.403   8.335 -0.1136  1.0210  0.4442
25409SOL    HW278235   7.954   8.491   8.386 -0.8114 -1.1013  2.7717
25410SOL     OW78236  11.025   0.933   5.348 -0.1675 -0.1769 -0.6984
25410SOL    HW178237  10.942   0.960   5.388 -0.8938 -3.1755  0.0699
25410SOL    HW278238  11.055   0.860   5.402  1.2226 -1.3885 -2.9569
25411SOL     OW78239   6.013   3.414  10.308  0.2851  0.5786  0.4104
25411SOL    HW178240   6.052   3.487  10.259  0.9740  0.3474  0.5974
25411SOL    HW278241   6.081   3.388  10.370 -0.5911  0.9069  1.5460
25412SOL     OW78242   2.139  10.767   3.120 -0.0768 -0.1416 -0.5372
25412SOL    HW178243   2.134  10.843   3.063  1.8735  0.4317 -0.0520
25412SOL    HW278244   2.090  10.699   3.075 -1.5455  1.2748 -1.1679
25413SOL     OW78245   1.628   2.370   0.519  0.3882 -0.1660  0.2303
25413SOL    HW178246   1.710   2.377   0.471  0.7625 -1.1480  0.6875
25413SOL    HW278247   1.632   2.284   0.561 -0.3887  0.2252  1.1521
25414SOL     OW78248   5.137   8.114   4.530 -0.6085 -0.1728  0.0345
25414SOL    HW178249   5.100   8.116   4.442 -1.7337  0.1289  0.5106
25414SOL    HW278250   5.145   8.206   4.556 -2.8713 -0.2734  1.3011
25415SOL     OW78251   6.573   6.351   5.318  0.5918 -0.2201 -0.0861
25415SOL    HW178252   6.525   6.433   5.328 -2.1090 -1.2793 -2.7590
25415SOL    HW278253   6.651   6.374   5.268  1.0811  0.9910  1.1633
25416SOL     OW78254   0.907   0.310   3.216  0.6958 -0.3652 -0.6687
25416SOL    HW178255   0.902   0.279   3.126 -1.4415 -0.4792 -0.5645
25416SOL    HW278256   0.826   0.359   3.228  1.0374 -0.1946  1.1484
25417SOL     OW78257   6.603   8.907   9.246 -0.2771  0.0772  0.6304
25417SOL    HW178258   6.638   8.819   9.231 -1.2147 -0.4462  1.3978
25417SOL    HW278259   6.525   8.911   9.192 -0.9735 -0.0580  1.5995
25418SOL     OW78260  11.247   8.816   2.996 -0.0620 -0.1437  0.3644
25418SOL    HW178261  11.330   8.813   3.043 -0.3542  1.1401  1.0169
25418SOL    HW278262  11.202   8.893   3.031 -0.4641  0.6398 -1.7337
25419SOL     OW78263   5.579   3.802   1.443 -0.1015  0.5251  0.2707
25419SOL    HW178264   5.535   3.853   1.512  0.0335  0.0226  0.7392
25419SOL    HW278265   5.510   3.746   1.407 -0.1557  0.7364  0.0434
25420SOL     OW78266   2.218   2.131   9.042  0.1777  0.1181  0.8459
25420SOL    HW178267   2.182   2.120   8.954 -0.3456 -0.1444  1.0851
25420SOL    HW278268   2.147   2.175   9.090  0.5238  0.4066  1.0931
25421SOL     OW78269   7.932  10.969   7.652  0.2335 -0.1015 -0.1115
25421SOL    HW178270   7.940  10.886   7.700  0.5894  0.2533  0.4527
25421SOL    HW278271   7.901  11.031   7.718 -1.7246 -0.1556 -0.9224
25422SOL     OW78272   8.068   3.206   6.640  0.2773  0.0001  0.3346
25422SOL    HW178273   8.111   3.132   6.682  0.1530 -1.6721 -2.2712
25422SOL    HW278274   8.130   3.279   6.651  0.9363 -0.7645  1.9606
25423SOL     OW78275   4.997  10.260   8.282 -0.0802 -0.1365  0.4064
25423SOL    HW178276   5.041  10.203   8.219 -0.6523  1.3308 -1.4219
25423SOL    HW278277   4.949  10.201   8.339  1.0333 -1.5600 -0.0618
25424SOL     OW78278   1.742   1.695   2.019  0.5673 -0.1069 -0.4430
25424SOL    HW178279   1.745   1.747   1.939  1.7643  0.4141 -0.0862
25424SOL    HW278280   1.673   1.735   2.072 -0.4061 -0.6096 -1.2948
25425SOL     OW78281   5.505   8.669   5.023 -0.8619 -0.3309  0.2186
25425SOL    HW178282   5.567   8.601   4.996 -0.6011 -0.7898  1.8700
25425SOL    HW278283   5.555   8.750   5.018 -0.4219 -0.5766  0.6110
25426SOL     OW78284   0.707   4.769   0.704 -0.3835 -0.5078  0.3724
25426SOL    HW178285   0.787   4.722   0.680 -0.4328 -0.4530  0.0895
25426SOL    HW278286   0.679   4.730   0.786 -0.5734 -1.1588  0.0045
25427SOL     OW78287  10.978   3.846   5.694 -0.2542  0.1999 -0.2016
25427SOL    HW178288  10.926   3.818   5.619 -0.1730  0.3822 -0.3262
25427SOL    HW278289  10.913   3.878   5.757 -0.3012  0.3552 -0.3264
25428SOL     OW78290  10.425   2.484   6.297 -0.2705 -0.0865  0.2800
25428SOL    HW178291  10.495   2.427   6.264 -0.8439 -0.6998  0.0853
25428SOL    HW278292  10.375   2.507   6.219 -1.3927 -1.2040  0.6317
25429SOL     OW78293   7.129   5.758   8.785  0.5626  0.3116  0.0506
25429SOL    HW178294   7.096   5.832   8.734  1.4066  1.1839  0.7235
25429SOL    HW278295   7.155   5.797   8.868  2.2622 -0.5126 -0.0584
25430SOL     OW78296   4.938   9.795   2.526 -0.0211 -0.0500  0.8553
25430SOL    HW178297   4.995   9.871   2.519 -0.2825  0.0746 -0.0164
25430SOL    HW278298   4.994   9.721   2.504 -0.0947  0.0267  0.4184
25431SOL     OW78299   8.565   6.918   9.299 -0.0865  0.1482 -0.1160
25431SOL    HW178300   8.516   6.956   9.371 -0.7438  0.3262 -0.6474
25431SOL    HW278301   8.536   6.967   9.222 -0.4535 -0.9954 -0.7167
25432SOL     OW78302   1.246   4.888   9.173 -0.7369 -0.1655 -0.0799
25432SOL    HW178303   1.281   4.810   9.216 -3.0359 -1.1594  0.1593
25432SOL    HW278304   1.255   4.958   9.238 -0.3625 -0.6629  0.4093
25433SOL     OW78305   9.070   7.102   8.673 -0.2422 -0.1794  0.0512
25433SOL    HW178306   9.114   7.018   8.661  2.7299  1.0712  1.2479
25433SOL    HW278307   9.060   7.137   8.584  0.3083 -0.9002 -0.3043
25434SOL     OW78308   2.143   6.105   9.868 -0.0022  0.2070 -0.3553
25434SOL    HW178309   2.163   6.196   9.846  1.4588  0.5623  2.1071
25434SOL    HW278310   2.061   6.110   9.918 -1.4829 -0.2347 -2.5653
25435SOL     OW78311   9.531   4.701   9.930  0.3592 -0.2715 -0.2883
25435SOL    HW178312   9.592   4.658   9.990  0.3235  0.1466  0.0537
25435SOL    HW278313   9.578   4.704   9.847  0.0643 -1.6693 -0.5402
25436SOL     OW78314  11.062   1.155   5.167 -0.1475 -0.5235 -0.5456
25436SOL    HW178315  10.993   1.116   5.112 -0.8560 -0.2653  0.1345
25436SOL    HW278316  11.063   1.100   5.245 -0.7618  0.4774  0.1790
25437SOL     OW78317   6.586   1.778   0.896  0.0968 -0.1014 -0.4165
25437SOL    HW178318   6.603   1.855   0.949 -2.0480  0.1692 -0.0108
25437SOL    HW278319   6.596   1.808   0.806  0.3973  0.3397 -0.2359
25438SOL     OW78320   6.141   9.972   8.687  0.0901 -0.0164 -0.2396
25438SOL    HW178321   6.129   9.918   8.610  1.4536 -1.7785  0.7189
25438SOL    HW278322   6.121  10.061   8.657 -3.3937 -1.0760 -1.5677
25439SOL     OW78323   8.000   9.995   7.887  0.0214  0.0707 -0.5961
25439SOL    HW178324   7.992   9.994   7.983 -0.1283 -1.2558 -0.6084
25439SOL    HW278325   7.958  10.077   7.861  1.2742  1.1488  0.5538
25440SOL     OW78326   1.589   6.455   9.405  0.3824 -0.2766 -0.3384
25440SOL    HW178327   1.675   6.438   9.368 -0.3753 -2.0924 -1.3726
25440SOL    HW278328   1.589   6.407   9.489  0.5593  0.1921 -0.0659
25441SOL     OW78329  10.641   1.566   2.467  0.0580  0.1994  0.2195
25441SOL    HW178330  10.620   1.495   2.406 -0.4319 -0.2489  0.8920
25441SOL    HW278331  10.737   1.565   2.473  0.2007  0.9902 -1.3893
25442SOL     OW78332   9.357   1.287   8.958 -0.5677  0.0892 -0.2700
25442SOL    HW178333   9.337   1.352   9.025 -0.9907 -0.5646  0.2564
25442SOL    HW278334   9.273   1.245   8.939 -0.5111  0.4542 -1.4293
25443SOL     OW78335   8.747  10.038   1.189 -0.3670 -0.4562  0.4372
25443SOL    HW178336   8.662  10.081   1.202 -0.9126 -1.1178 -0.7768
25443SOL    HW278337   8.761   9.988   1.269 -1.2752 -0.5954  0.5155
25444SOL     OW78338   8.441   0.399   0.150 -0.1616 -0.1373  0.5051
25444SOL    HW178339   8.402   0.372   0.067 -1.1566 -0.5898  1.1000
25444SOL    HW278340   8.535   0.396   0.135 -0.2347 -2.7882  0.1525
25445SOL     OW78341  10.671   5.777   6.084 -0.3138  0.0762  0.2526
25445SOL    HW178342  10.749   5.773   6.140  0.9179  1.6142 -1.2571
25445SOL    HW278343  10.603   5.813   6.141 -0.4140 -2.5208  1.9952
25446SOL     OW78344  10.359   4.923   1.743 -0.5199 -0.2317 -0.0393
25446SOL    HW178345  10.444   4.913   1.785 -0.4814  1.3629  0.3400
25446SOL    HW278346  10.318   4.837   1.751  0.8362 -0.8851  0.2325
25447SOL     OW78347  11.171   1.752   8.885 -0.6452 -0.2344  0.4959
25447SOL    HW178348  11.253   1.707   8.904 -0.6043 -0.0054  0.8920
25447SOL    HW278349  11.188   1.803   8.806 -0.2491  0.2026  0.8568
25448SOL     OW78350   9.902   5.355  11.156 -0.1273 -0.0271 -0.0129
25448SOL    HW178351   9.862   5.421  11.212  2.1470 -0.2349  1.9958
25448SOL    HW278352   9.834   5.334  11.092 -1.6898  2.6193  0.6247
25449SOL     OW78353   1.692   2.482   7.400  0.3244 -0.3145  0.1456
25449SOL    HW178354   1.631   2.497   7.473  0.9260 -0.1062  0.6149
25449SOL    HW278355   1.776   2.465   7.442  0.9871  1.1623 -0.5036
25450SOL     OW78356   1.484   3.165   6.761 -0.5443 -0.0908 -0.6817
25450SOL    HW178357   1.408   3.117   6.728 -1.2199 -0.0604  0.7495
25450SOL    HW278358   1.455   3.203   6.844  1.5846 -1.7088  0.9330
25451SOL     OW78359   4.355   9.100   7.092  0.1247 -0.0608  0.6642
25451SOL    HW178360   4.338   9.056   7.175 -0.3713 -0.3406  0.4191
25451SOL    HW278361   4.269   9.130   7.063  0.1478 -0.7634 -0.1878
25452SOL     OW78362   9.441   2.490   8.070 -0.8785 -0.0606 -0.0858
25452SOL    HW178363   9.511   2.548   8.099 -0.0926 -1.3779  0.6901
25452SOL    HW278364   9.456   2.479   7.976  0.1930 -0.6556  0.1517
25453SOL     OW78365   0.028   8.854   7.308 -0.2463 -0.2783  0.2064
25453SOL    HW178366   0.068   8.940   7.300 -1.8233  0.4057 -0.6667
25453SOL    HW278367   0.012   8.843   7.402 -0.6050  0.6472  0.2559
25454SOL     OW78368   0.533   1.586   9.288 -0.1083 -0.1083 -0.6435
25454SOL    HW178369   0.465   1.626   9.343 -0.3701  2.9537 -2.8903
25454SOL    HW278370   0.596   1.550   9.350 -1.9132  0.2980  1.5754
25455SOL     OW78371   6.773  11.031   0.377 -0.1957 -0.7386 -0.7011
25455SOL    HW178372   6.756  11.107   0.433  0.0590 -1.1387 -0.0612
25455SOL    HW278373   6.790  11.067   0.291 -0.2574 -0.0796 -0.4422
25456SOL     OW78374   5.206   4.329   8.743 -0.0234 -0.0795  0.0722
25456SOL    HW178375   5.218   4.280   8.661  3.8214 -0.8309  0.9108
25456SOL    HW278376   5.185   4.262   8.808  1.5193 -0.1721  0.5107
25457SOL     OW78377  10.326   7.801   4.967 -0.2351  0.2586  0.2644
25457SOL    HW178378  10.262   7.849   5.020 -1.0120  1.1403 -1.4014
25457SOL    HW278379  10.317   7.710   4.995 -2.8224  0.2236 -0.4499
25458SOL     OW78380   1.430   5.390   0.996 -0.0154  0.1605 -0.2316
25458SOL    HW178381   1.481   5.319   0.955 -0.2522  0.5411 -1.2062
25458SOL    HW278382   1.461   5.392   1.086 -0.5542 -1.7189  0.0497
25459SOL     OW78383   4.244   1.026   3.328 -0.4686 -0.6670  0.4909
25459SOL    HW178384   4.189   1.096   3.361 -1.5388 -0.7804 -0.9706
25459SOL    HW278385   4.285   1.062   3.249 -2.1427 -2.0644 -1.1158
25460SOL     OW78386   5.815  10.912   1.307  0.2898  0.7212  0.6167
25460SOL    HW178387   5.755  10.845   1.340 -1.8981  2.2616  0.0116
25460SOL    HW278388   5.815  10.980   1.374  0.2912  1.3278  0.0149
25461SOL     OW78389   7.081   3.157   0.459  0.2950 -1.0165  0.6594
25461SOL    HW178390   7.109   3.244   0.488 -0.2223 -0.0327 -1.5067
25461SOL    HW278391   7.153   3.126   0.403  0.2559 -1.7633  1.0133
25462SOL     OW78392   8.830   6.167   8.836 -0.0039 -0.4533 -0.5401
25462SOL    HW178393   8.911   6.215   8.817 -0.2936  0.8031  1.2020
25462SOL    HW278394   8.860   6.083   8.871  0.5923  0.3170  0.8675
25463SOL     OW78395   3.542   2.596  10.577 -0.1088 -0.6550  0.1186
25463SOL    HW178396   3.624   2.646  10.579  0.0985 -0.9012 -1.1078
25463SOL    HW278397   3.483   2.651  10.524 -1.0307 -0.0832  1.6830
25464SOL     OW78398   7.732   3.984   1.867 -0.3022  0.3664 -0.2181
25464SOL    HW178399   7.674   3.962   1.795 -1.3882 -0.3439  0.8421
25464SOL    HW278400   7.780   4.061   1.836  0.8167 -1.1531 -2.5005
25465SOL     OW78401   9.557  11.139   7.009 -0.0021  0.4635 -0.3488
25465SOL    HW178402   9.487  11.143   7.074 -1.3517  0.9425 -1.7642
25465SOL    HW278403   9.563  11.228   6.974 -0.1274 -0.0064 -1.6607
25466SOL     OW78404   3.138   7.364   0.755 -0.0666  0.3654 -0.0805
25466SOL    HW178405   3.232   7.357   0.771  0.3181  0.6778 -1.9455
25466SOL    HW278406   3.117   7.455   0.773 -0.0797  0.2283  0.6128
25467SOL     OW78407   5.249   6.829  10.555 -0.1571  0.1028  0.5198
25467SOL    HW178408   5.261   6.890  10.627  1.7356 -1.5653  1.7145
25467SOL    HW278409   5.335   6.821  10.515 -0.5902 -1.0015 -0.2367
25468SOL     OW78410  10.940   3.471  10.480  0.4794 -0.2478  0.6518
25468SOL    HW178411  10.903   3.536  10.540 -0.0463 -0.3185  0.4126
25468SOL    HW278412  10.971   3.522  10.406 -0.5964 -0.3106  0.1281
25469SOL     OW78413   4.743   6.433   8.607 -0.1978  0.4825 -0.6354
25469SOL    HW178414   4.756   6.503   8.543 -0.2473  1.7953  0.7172
25469SOL    HW278415   4.829   6.392   8.616 -0.5202 -0.8164 -2.6629
25470SOL     OW78416   9.111   7.912   1.025  0.3070  0.2854 -0.0422
25470SOL    HW178417   9.078   7.890   0.938  2.1719  0.1037 -0.7416
25470SOL    HW278418   9.068   7.996   1.046 -0.2936  0.2453 -1.0452
25471SOL     OW78419   9.032   1.935   3.441  0.3957 -0.6386 -0.0171
25471SOL    HW178420   9.046   2.030   3.439  1.6071 -0.8099 -1.3790
25471SOL    HW278421   8.937   1.925   3.429  0.2667  0.3887  0.0396
25472SOL     OW78422   2.997   6.206  10.282 -0.1260  0.0238 -0.1899
25472SOL    HW178423   3.045   6.140  10.332  0.4931  1.2080  0.8330
25472SOL    HW278424   2.969   6.270  10.347 -1.6774  0.2291 -1.0068
25473SOL     OW78425   4.498   6.737   8.536  0.0868 -0.5030  0.0738
25473SOL    HW178426   4.427   6.677   8.512 -0.3972  0.7968 -1.9629
25473SOL    HW278427   4.576   6.697   8.498 -0.3935  0.5723 -2.2529
25474SOL     OW78428   8.049   9.823   6.264 -0.2774 -0.0171  0.3690
25474SOL    HW178429   8.084   9.787   6.182  0.8361  0.8293  0.4398
25474SOL    HW278430   7.994   9.754   6.299 -0.0537 -0.7422 -0.6492
25475SOL     OW78431  10.927   0.798   8.729  0.2543  0.1700  0.2568
25475SOL    HW178432  10.834   0.775   8.723  0.1492  0.5988  0.2255
25475SOL    HW278433  10.941   0.815   8.823  0.4441 -0.4715  0.3521
25476SOL     OW78434   5.431   9.176   9.854  0.1994  0.1547 -0.0189
25476SOL    HW178435   5.353   9.154   9.905  0.4789  3.6443  2.2977
25476SOL    HW278436   5.502   9.130   9.899  0.2025  1.8624  1.8825
25477SOL     OW78437   7.748   6.315   7.352 -0.6843  0.2963 -0.2849
25477SOL    HW178438   7.772   6.227   7.323 -1.2760 -0.4856  1.4634
25477SOL    HW278439   7.796   6.327   7.434 -1.5659  1.1084  0.1284
25478SOL     OW78440   8.795   3.644   2.019  0.4806 -0.0417  0.3668
25478SOL    HW178441   8.704   3.666   2.003  0.6394  0.6394  0.3402
25478SOL    HW278442   8.834   3.637   1.932  0.4246 -0.4878  0.3739
25479SOL     OW78443   5.017   2.200   6.583 -0.4926 -0.5762 -0.3447
25479SOL    HW178444   5.039   2.142   6.656 -1.4436 -0.6238 -0.0946
25479SOL    HW278445   4.943   2.158   6.540 -0.2607 -0.2895 -1.0480
25480SOL     OW78446  10.710   8.725  10.574  0.4080 -0.5346  0.6371
25480SOL    HW178447  10.648   8.669  10.526  0.0818 -0.8106  1.3642
25480SOL    HW278448  10.707   8.692  10.664  1.6299 -0.5487  0.6832
25481SOL     OW78449   7.922   3.283   0.882 -0.8502  0.4888  0.4532
25481SOL    HW178450   7.902   3.218   0.949 -0.7394 -0.4418 -0.3931
25481SOL    HW278451   7.999   3.329   0.915  0.0341 -0.8739  0.3544
25482SOL     OW78452   7.159   2.401   9.445  0.1962 -0.5724  0.0867
25482SOL    HW178453   7.115   2.481   9.474 -0.4862 -0.7715 -0.3768
25482SOL    HW278454   7.127   2.333   9.504  0.4618 -0.5822  0.2216
25483SOL     OW78455   7.706   0.688   9.459  0.4199  0.8007 -0.5610
25483SOL    HW178456   7.767   0.615   9.442  1.1674  1.2277  0.2159
25483SOL    HW278457   7.663   0.664   9.540 -0.0682  0.7611 -0.8295
25484SOL     OW78458   6.472   9.538   5.016 -0.0996 -0.0725 -0.2214
25484SOL    HW178459   6.546   9.482   5.038 -1.3217 -1.5244  0.3561
25484SOL    HW278460   6.429   9.556   5.099 -1.2793 -0.5407 -0.7159
25485SOL     OW78461   2.917   3.479   0.151  0.6045  0.0124 -0.0567
25485SOL    HW178462   3.013   3.477   0.156  0.8526 -1.1623 -3.1508
25485SOL    HW278463   2.895   3.417   0.082 -2.5359 -0.6444  1.3516
25486SOL     OW78464   9.228  10.204   8.132 -0.3244 -0.3503  0.2532
25486SOL    HW178465   9.302  10.208   8.071  0.7215 -2.3154  1.3159
25486SOL    HW278466   9.152  10.227   8.078  0.8257  0.0433 -1.2798
25487SOL     OW78467   1.465   5.263   4.273  0.8904 -0.4968  0.2678
25487SOL    HW178468   1.460   5.205   4.349 -0.4784 -2.2420 -1.0697
25487SOL    HW278469   1.374   5.284   4.252  1.3206  2.0339  0.5418
25488SOL     OW78470   9.762   0.521   8.955 -0.3868 -0.3114  0.1775
25488SOL    HW178471   9.751   0.455   9.023 -1.6355  1.7870  2.1263
25488SOL    HW278472   9.790   0.600   9.002  0.9734  0.6293 -2.0407
25489SOL     OW78473   0.853  10.317   3.985 -0.1188  0.8825  0.9284
25489SOL    HW178474   0.936  10.326   3.937 -1.1926  0.4200 -1.1464
25489SOL    HW278475   0.877  10.275   4.067  1.5983 -0.1217 -0.0391
25490SOL     OW78476   9.904   0.324   4.601  0.4881  0.2235  0.3320
25490SOL    HW178477   9.999   0.310   4.600  0.4814  0.1334 -1.2522
25490SOL    HW278478   9.869   0.244   4.639  0.9520 -0.6356 -0.9790
25491SOL     OW78479   1.390   1.306   4.435  0.1023  0.0090  0.4909
25491SOL    HW178480   1.463   1.265   4.482  0.0801 -1.0724 -0.3686
25491SOL    HW278481   1.313   1.255   4.462 -0.2427  0.7228  0.8852
25492SOL     OW78482   2.345   8.244   8.754  0.3920  0.8526  0.5250
25492SOL    HW178483   2.393   8.305   8.809  1.9862 -0.4247  0.6403
25492SOL    HW278484   2.412   8.204   8.698 -0.8316  0.3764 -0.6725
25493SOL     OW78485   5.453   1.695   1.389 -0.6704 -0.6280 -0.1572
25493SOL    HW178486   5.444   1.606   1.422 -0.8937 -0.9681 -1.1019
25493SOL    HW278487   5.422   1.751   1.461  2.2471 -1.1167  1.6016
25494SOL     OW78488   2.739   9.139  10.273  0.0340  0.4349 -0.4922
25494SOL    HW178489   2.672   9.206  10.286 -0.5102 -0.3026  0.6864
25494SOL    HW278490   2.705   9.086  10.200 -0.7427 -0.0070  0.1797
25495SOL     OW78491   0.269   8.865   5.167 -0.1344  0.2415 -0.4858
25495SOL    HW178492   0.297   8.940   5.220 -0.0439 -0.4722  0.5168
25495SOL    HW278493   0.350   8.814   5.154 -0.2196  0.2450 -1.0431
25496SOL     OW78494   7.418   8.886   5.293  0.3534  0.5075  0.4652
25496SOL    HW178495   7.418   8.922   5.381  0.4372  0.3898  0.5140
25496SOL    HW278496   7.455   8.798   5.303 -3.6697 -1.3612  1.0831
25497SOL     OW78497   9.936  11.032   3.905 -0.5844  0.2517 -0.5827
25497SOL    HW178498   9.890  11.103   3.860  0.3447  0.9767 -0.4114
25497SOL    HW278499  10.007  11.075   3.952 -2.5958 -0.1256  3.2820
25498SOL     OW78500   6.626   8.960   4.059 -0.1186 -0.0220  0.7757
25498SOL    HW178501   6.689   9.014   4.011  0.5093  0.1707  1.7861
25498SOL    HW278502   6.548   9.014   4.067 -1.1650 -0.9207 -2.1046
25499SOL     OW78503   1.627   7.684   4.100  0.0641  0.3414 -0.4556
25499SOL    HW178504   1.716   7.652   4.085 -0.2764 -0.6145 -0.5127
25499SOL    HW278505   1.635   7.742   4.175  0.9450  1.2708 -1.2295
25500SOL     OW78506  10.429   7.652   9.098 -0.4281 -0.3447 -0.1188
25500SOL    HW178507  10.461   7.653   9.008  1.2243 -1.9038  0.3943
25500SOL    HW278508  10.381   7.569   9.105 -2.5978  0.8352 -0.1698
25501SOL     OW78509   1.611   5.065   5.584 -0.1026 -0.0578  0.0775
25501SOL    HW178510   1.578   4.992   5.636 -2.9786 -0.4095 -1.9574
25501SOL    HW278511   1.602   5.035   5.493  0.5361  2.0896 -0.7477
25502SOL     OW78512  10.235   1.821   2.449  0.7997  0.4721  0.9244
25502SOL    HW178513  10.290   1.872   2.508  0.1292  1.3209  0.8302
25502SOL    HW278514  10.179   1.886   2.407  0.4774 -0.2596  0.2155
25503SOL     OW78515   2.122   5.697   1.946  0.3196 -0.2382 -0.0913
25503SOL    HW178516   2.087   5.613   1.916  0.4900  0.2608 -1.7658
25503SOL    HW278517   2.048   5.757   1.940 -0.5203 -0.6723  3.4225
25504SOL     OW78518  10.780   8.363   3.162  0.1222  0.3684 -0.2049
25504SOL    HW178519  10.785   8.403   3.075 -0.4884  1.0160  0.0441
25504SOL    HW278520  10.721   8.420   3.212  0.3917 -0.0367  0.6118
25505SOL     OW78521   1.668  10.123   5.666 -0.2490  0.2024  0.1760
25505SOL    HW178522   1.724  10.155   5.737  0.8142 -0.7099 -0.2219
25505SOL    HW278523   1.612  10.058   5.708 -0.9067  0.9784  0.5362
25506SOL     OW78524   0.207   9.596   1.889  0.1905 -0.1821  0.3617
25506SOL    HW178525   0.222   9.637   1.804 -2.8678  2.7669  0.9881
25506SOL    HW278526   0.243   9.659   1.952 -2.1525  0.3275  1.2958
25507SOL     OW78527   7.879   6.315   8.670 -0.0436  0.2436 -1.2630
25507SOL    HW178528   7.889   6.395   8.723  1.0671 -0.5998 -0.1520
25507SOL    HW278529   7.926   6.334   8.589  3.1695 -0.3835  0.2865
25508SOL     OW78530   1.997   7.933   1.048  0.0631  0.3172 -0.2187
25508SOL    HW178531   1.962   7.847   1.071 -0.1106  0.2639 -0.6788
25508SOL    HW278532   2.077   7.941   1.100 -0.1127  0.0348  0.1028
25509SOL     OW78533   7.377   3.251   1.864  0.1074  0.1709 -0.2609
25509SOL    HW178534   7.320   3.210   1.799 -0.5830  2.0897 -0.9478
25509SOL    HW278535   7.464   3.249   1.823  0.4188 -1.8899  0.3771
25510SOL     OW78536   9.027   2.553   3.326 -0.0925 -0.9932  0.0082
25510SOL    HW178537   9.116   2.590   3.332  0.0760 -1.4525  0.4020
25510SOL    HW278538   9.007   2.554   3.232 -0.1558  0.2407  0.0114
25511SOL     OW78539   4.627   8.166   2.610  0.0536  0.8173 -0.4265
25511SOL    HW178540   4.615   8.196   2.700 -1.8708  2.1361 -1.0495
25511SOL    HW278541   4.696   8.222   2.574  1.1080  0.0253  0.3030
25512SOL     OW78542   2.142   8.638  10.292  0.5971 -0.3742  0.2825
25512SOL    HW178543   2.133   8.655  10.386  2.3954 -0.5688  0.5150
25512SOL    HW278544   2.147   8.542  10.286  1.3934 -0.3202  0.0794
25513SOL     OW78545   6.074   3.103   9.016  1.1307 -0.1613  0.6033
25513SOL    HW178546   6.112   3.026   9.057  0.9656 -1.2020 -1.1168
25513SOL    HW278547   5.983   3.104   9.047  0.8626 -1.2289 -0.1051
25514SOL     OW78548   1.089  10.752   9.694 -0.6207 -0.4657 -0.7158
25514SOL    HW178549   1.175  10.711   9.685  0.1240  0.6584  0.8913
25514SOL    HW278550   1.093  10.830   9.639 -0.5491 -0.3244 -0.5113
25515SOL     OW78551   7.289   4.731   4.317  0.2214 -0.3919 -0.3370
25515SOL    HW178552   7.356   4.690   4.262  0.7057 -2.7550  1.8504
25515SOL    HW278553   7.239   4.657   4.353 -2.4046  1.2197 -0.4160
25516SOL     OW78554   7.996   8.995   1.799  0.2224 -0.0574  0.2756
25516SOL    HW178555   8.049   9.003   1.720 -0.3987 -3.9324 -0.7700
25516SOL    HW278556   7.944   9.075   1.802  0.8709  0.6075 -2.8051
25517SOL     OW78557   6.024   9.743   0.400  0.6162 -0.2433 -0.7661
25517SOL    HW178558   6.110   9.711   0.375  0.5899 -0.0046 -1.1926
25517SOL    HW278559   5.979   9.668   0.437  1.4416 -0.0732  0.6374
25518SOL     OW78560   8.156  10.964   9.688 -0.0735  0.5321 -0.0167
25518SOL    HW178561   8.087  11.030   9.689  1.1629  1.8866  0.3183
25518SOL    HW278562   8.180  10.952   9.780  0.6330  0.6563 -0.1714
25519SOL     OW78563   5.134   6.983   0.023  0.1128  0.7726 -0.0587
25519SOL    HW178564   5.154   7.032   0.102  1.0788  0.1451  0.1055
25519SOL    HW278565   5.053   6.935   0.043 -0.3069  1.5484  0.1108
25520SOL     OW78566  10.872   6.378  10.734  0.3111 -0.1013  0.5437
25520SOL    HW178567  10.901   6.287  10.742 -1.1563 -0.5788  0.6139
25520SOL    HW278568  10.798   6.385  10.794 -2.2267  0.0092 -2.3810
25521SOL     OW78569   2.931   2.945   7.588  0.5309 -0.0398 -0.2823
25521SOL    HW178570   2.846   2.901   7.581  0.0547  0.8960 -0.4858
25521SOL    HW278571   2.936   3.000   7.510  0.6129  1.1098  0.5037
25522SOL     OW78572   8.344   8.480   9.281  0.0396 -0.1879 -0.4358
25522SOL    HW178573   8.274   8.426   9.316  0.0739 -0.3866 -0.6719
25522SOL    HW278574   8.302   8.535   9.215  0.2691 -0.9704 -1.2555
25523SOL     OW78575   9.901   7.749   2.989 -0.8331 -0.0839  0.3583
25523SOL    HW178576   9.931   7.658   2.995  1.5841  0.7474  2.7184
25523SOL    HW278577   9.862   7.767   3.074 -0.8186  1.2583  0.0942
25524SOL     OW78578   7.013   7.433   9.927 -0.2600 -0.5367 -0.6662
25524SOL    HW178579   6.966   7.359   9.967 -0.9314  0.7972  1.1521
25524SOL    HW278580   6.972   7.511   9.966  0.2548  0.8197 -2.7141
25525SOL     OW78581   2.393   4.325   2.927 -0.1778  0.9382  0.0212
25525SOL    HW178582   2.408   4.333   2.833  2.3582 -0.7205  0.1937
25525SOL    HW278583   2.374   4.233   2.941  3.9268  0.1039  1.4938
25526SOL     OW78584   6.437   5.652   3.580  0.5556  0.0603  0.1238
25526SOL    HW178585   6.351   5.689   3.558 -0.7628 -1.6645  2.0331
25526SOL    HW278586   6.445   5.576   3.522  0.7151  0.1135  0.0769
25527SOL     OW78587   1.459   7.519   2.016 -0.4028  0.2897  0.4001
25527SOL    HW178588   1.534   7.537   1.960  0.4527  0.6630  1.6455
25527SOL    HW278589   1.489   7.452   2.078 -1.1081  0.3998  0.8838
25528SOL     OW78590   2.662   8.455  10.158  0.4137 -0.2810  0.4198
25528SOL    HW178591   2.684   8.367  10.130  2.4589 -0.1936  1.5255
25528SOL    HW278592   2.694   8.460  10.249  2.3573  2.2056 -0.2700
25529SOL     OW78593  11.058   4.814   1.882 -0.1533  0.3096 -0.6042
25529SOL    HW178594  11.135   4.867   1.860 -0.1452 -0.3456 -2.2230
25529SOL    HW278595  10.999   4.823   1.808 -1.3751  0.2515  0.3189
25530SOL     OW78596   7.028   8.514   7.136 -0.5969 -0.4824  0.0510
25530SOL    HW178597   7.111   8.471   7.157 -0.9054 -1.3016 -0.3522
25530SOL    HW278598   6.974   8.444   7.099 -1.8858 -0.2254  1.3868
25531SOL     OW78599   6.803  10.591   7.575 -0.0747  0.2737 -0.0788
25531SOL    HW178600   6.796  10.522   7.642  2.2865  0.1859  0.1608
25531SOL    HW278601   6.718  10.635   7.578 -0.9295 -1.3184  1.2061
25532SOL     OW78602  10.186   2.953   8.025  0.4774 -0.5760 -0.3594
25532SOL    HW178603  10.101   2.943   8.068  0.8712 -0.5029  0.4526
25532SOL    HW278604  10.203   2.867   7.986 -0.2231 -0.4232 -1.0205
25533SOL     OW78605   8.107   6.953   3.369 -0.3740  0.0992  0.4415
25533SOL    HW178606   8.112   7.048   3.356 -1.1441  0.0392 -0.4437
25533SOL    HW278607   8.077   6.919   3.284  2.1480 -1.1881 -0.0284
25534SOL     OW78608   2.621   3.787   0.756 -0.3446  0.3311 -0.8681
25534SOL    HW178609   2.604   3.693   0.757  0.2571  0.1995 -1.6350
25534SOL    HW278610   2.650   3.805   0.667 -0.8661  1.3284 -0.8552
25535SOL     OW78611  10.753   2.889   1.040 -0.0507  0.0878 -0.1971
25535SOL    HW178612  10.760   2.983   1.025  0.0926  0.0025 -0.6778
25535SOL    HW278613  10.664   2.877   1.074  0.2138  0.4918  0.6571
25536SOL     OW78614   4.242   0.952   0.601 -0.4625  0.1336  0.2164
25536SOL    HW178615   4.221   0.914   0.516 -0.1789  0.9632 -0.2353
25536SOL    HW278616   4.220   1.045   0.592 -0.4635  0.2238  1.0589
25537SOL     OW78617   6.203   1.936   3.669  0.3262  0.1382  0.1298
25537SOL    HW178618   6.275   1.986   3.707  0.3883  0.4015 -0.3224
25537SOL    HW278619   6.130   1.948   3.729  0.4807  0.3862  0.2683
25538SOL     OW78620   3.823   5.143   5.096 -0.4676 -0.2985  0.6792
25538SOL    HW178621   3.732   5.134   5.123 -1.1870  0.3700 -1.4022
25538SOL    HW278622   3.824   5.219   5.038  1.0901 -1.3042 -0.6993
25539SOL     OW78623   6.804   3.097   7.361  0.6153 -0.3482  0.1086
25539SOL    HW178624   6.789   3.169   7.422 -1.7568  0.7945 -1.6728
25539SOL    HW278625   6.857   3.136   7.291  2.1741 -1.2969  0.6879
25540SOL     OW78626   5.672   6.826   7.263  0.1075 -0.3321  0.3757
25540SOL    HW178627   5.594   6.866   7.301 -0.0899  0.5099 -0.8582
25540SOL    HW278628   5.740   6.839   7.329 -0.2599  0.9406  0.5327
25541SOL     OW78629   9.041   7.794   9.886  0.3241  0.1658 -0.1629
25541SOL    HW178630   9.061   7.883   9.856 -1.1971  0.4884 -0.3210
25541SOL    HW278631   8.958   7.773   9.843 -0.2831 -0.6134  1.3301
25542SOL     OW78632  10.709   5.435   8.280 -0.0902  0.0109 -0.1678
25542SOL    HW178633  10.754   5.357   8.247 -0.1224  0.4033 -1.1754
25542SOL    HW278634  10.633   5.444   8.223 -0.4365  0.4081  0.3598
25543SOL     OW78635   0.884   8.105   2.378  0.2157 -0.1675  0.1139
25543SOL    HW178636   0.964   8.140   2.339 -1.0377  2.6017 -0.1923
25543SOL    HW278637   0.831   8.076   2.304  0.0868 -0.0358  0.1532
25544SOL     OW78638   8.280   4.172   3.029 -0.3843  0.1638 -0.2272
25544SOL    HW178639   8.329   4.250   3.005  0.4202 -0.3729 -0.3721
25544SOL    HW278640   8.344   4.116   3.073 -0.8694 -0.5442 -0.4109
25545SOL     OW78641   0.263   1.662   7.649  0.2498  0.1164 -0.3218
25545SOL    HW178642   0.205   1.664   7.725  1.6798 -0.4942  0.8218
25545SOL    HW278643   0.244   1.743   7.602  0.0507  1.0046  1.2422
25546SOL     OW78644   3.641   8.595   3.312  0.1126 -0.7368 -0.2708
25546SOL    HW178645   3.718   8.540   3.294  1.0725 -0.2256  1.9039
25546SOL    HW278646   3.668   8.682   3.284 -0.5062 -0.9264 -1.4921
25547SOL     OW78647   4.169   9.917   9.331 -0.2286  0.0735 -0.2904
25547SOL    HW178648   4.154   9.949   9.242 -1.9477  2.8140  0.8456
25547SOL    HW278649   4.098   9.955   9.383  0.1690 -2.1635  2.1359
25548SOL     OW78650   4.529   4.426   9.319 -0.1443  0.0657 -0.4890
25548SOL    HW178651   4.456   4.427   9.382 -0.3174  3.0576 -0.5840
25548SOL    HW278652   4.597   4.479   9.361  0.9615 -0.5017 -1.5270
25549SOL     OW78653   1.232   3.921  10.067 -0.4478 -0.2547  0.2963
25549SOL    HW178654   1.241   3.846  10.008  0.2329  0.0238  0.0275
25549SOL    HW278655   1.144   3.914  10.102 -1.7265  0.7515 -2.4091
25550SOL     OW78656   4.633   2.892   2.084 -0.1325 -0.1980  0.7539
25550SOL    HW178657   4.708   2.902   2.025  0.4330 -1.1410  1.3036
25550SOL    HW278658   4.659   2.936   2.164 -0.0711 -0.7208  1.0247
25551SOL     OW78659   8.885   2.277   6.694 -0.7031  0.2729  0.0070
25551SOL    HW178660   8.948   2.207   6.680 -0.0762  0.5878  1.1486
25551SOL    HW278661   8.919   2.351   6.643 -2.2544 -0.6650 -2.6309
25552SOL     OW78662   7.384   5.363  11.071 -0.3062  0.3259 -0.4099
25552SOL    HW178663   7.427   5.322  10.996  0.4458 -0.2783  0.3265
25552SOL    HW278664   7.304   5.401  11.035 -0.6029 -1.0458 -1.2959
25553SOL     OW78665   7.433   0.513   5.890 -0.0525  0.7001  0.2322
25553SOL    HW178666   7.411   0.457   5.964 -1.6286  0.3564 -0.4469
25553SOL    HW278667   7.497   0.575   5.925  0.5092 -0.5002  1.4197
25554SOL     OW78668   2.567   2.436   7.819 -0.2122 -0.5810  0.4060
25554SOL    HW178669   2.631   2.409   7.753  1.3323  1.6073  0.8736
25554SOL    HW278670   2.506   2.493   7.771 -0.7122 -1.1491  0.3516
25555SOL     OW78671   7.882   8.003   3.432  0.1648 -0.0750  0.2634
25555SOL    HW178672   7.976   7.994   3.447  0.0026 -0.9223  0.8619
25555SOL    HW278673   7.862   8.093   3.458  0.0254 -1.1953  4.8974
25556SOL     OW78674   9.786   2.466   8.862 -0.4541  0.2479  0.3905
25556SOL    HW178675   9.822   2.383   8.832  0.6318  0.5178  0.8950
25556SOL    HW278676   9.808   2.469   8.955 -2.5455  0.0517  0.9453
25557SOL     OW78677   5.411   0.466   2.242  0.3114 -0.3319 -0.2753
25557SOL    HW178678   5.368   0.521   2.177 -3.6191 -0.3240  2.0163
25557SOL    HW278679   5.405   0.378   2.207 -0.8186 -0.2140 -0.3976
25558SOL     OW78680   8.736   1.583   5.975 -0.9222  0.1487 -0.7355
25558SOL    HW178681   8.756   1.571   6.068 -1.3723  1.3880 -0.4604
25558SOL    HW278682   8.821   1.587   5.932 -0.7008  0.0289 -0.3105
25559SOL     OW78683  10.659   0.704   8.782  0.1000  0.1673  0.3539
25559SOL    HW178684  10.589   0.715   8.846 -0.9386  0.8523 -0.8770
25559SOL    HW278685  10.681   0.610   8.787 -0.6927  0.0055  0.9460
25560SOL     OW78686   6.709   1.286   0.021 -0.6805  0.1978  0.1161
25560SOL    HW178687   6.756   1.243  -0.050 -0.9916  1.3763 -0.8293
25560SOL    HW278688   6.777   1.324   0.075 -0.4582 -0.3647  0.2407
25561SOL     OW78689   5.462   1.298   2.509  0.3017  0.1416 -0.0983
25561SOL    HW178690   5.402   1.272   2.439  1.3038  1.6143 -1.5944
25561SOL    HW278691   5.458   1.227   2.572 -1.6227 -0.6405 -1.0245
25562SOL     OW78692   9.301  10.982   5.846  0.1170 -0.3361 -0.6609
25562SOL    HW178693   9.330  11.072   5.861 -0.9133 -0.0243 -0.4135
25562SOL    HW278694   9.305  10.941   5.932 -1.7627  0.2186 -0.2570
25563SOL     OW78695   1.707   0.819   1.123 -0.0033  0.4991  0.6260
25563SOL    HW178696   1.769   0.764   1.171 -1.3973 -1.7221  0.0150
25563SOL    HW278697   1.733   0.809   1.031 -1.4060 -0.6981  0.3364
25564SOL     OW78698  10.631   0.763   2.664 -0.2621 -0.4690  0.1839
25564SOL    HW178699  10.559   0.794   2.720 -0.1801  2.0742 -0.9892
25564SOL    HW278700  10.593   0.758   2.577  0.3854 -1.4620 -0.0494
25565SOL     OW78701   0.481   3.045   2.725  0.8551 -0.0487  0.2057
25565SOL    HW178702   0.504   3.073   2.636  0.9443  3.4073  1.1726
25565SOL    HW278703   0.396   3.002   2.715  0.5072  0.9085 -1.5090
25566SOL     OW78704   4.156   3.985   8.924  0.5106 -0.3811 -0.3836
25566SOL    HW178705   4.088   4.052   8.930 -1.2661 -2.1931  1.9652
25566SOL    HW278706   4.108   3.904   8.907  1.7666 -2.0207  2.9724
25567SOL     OW78707   8.816   5.182  10.734  0.8023 -0.4213  0.4704
25567SOL    HW178708   8.836   5.201  10.642 -1.3281 -0.6827 -0.1032
25567SOL    HW278709   8.857   5.254  10.782  3.1990 -1.0359 -0.4893
25568SOL     OW78710   6.406   8.995   7.265 -0.1844  0.0284  0.8979
25568SOL    HW178711   6.472   9.058   7.295 -0.3606  0.4324  0.4424
25568SOL    HW278712   6.457   8.920   7.234  0.0449  0.1802  0.9063
25569SOL     OW78713   4.582  10.603   0.153  0.0605 -0.1548  0.3514
25569SOL    HW178714   4.511  10.637   0.098  0.6210 -0.6428 -0.6964
25569SOL    HW278715   4.537  10.572   0.232 -0.6412  1.5160  0.6599
25570SOL     OW78716   5.714   4.169   3.080 -0.0249 -0.1546 -0.1897
25570SOL    HW178717   5.747   4.214   3.158 -1.9962 -0.4762  0.8932
25570SOL    HW278718   5.781   4.185   3.013  1.3928  0.7223  1.3551
25571SOL     OW78719  10.244   1.136   1.674  0.6925 -0.2022  0.1674
25571SOL    HW178720  10.268   1.046   1.652 -0.6139 -0.6041  0.3179
25571SOL    HW278721  10.171   1.156   1.615 -1.1360 -0.3882  2.2621
25572SOL     OW78722   3.869   1.915   6.658 -0.4961  0.6752 -1.2693
25572SOL    HW178723   3.783   1.955   6.642  0.1722  1.8509 -2.1274
25572SOL    HW278724   3.882   1.855   6.585  0.0453  1.6671 -2.0254
25573SOL     OW78725  10.701   1.914   1.242  0.2434  0.3295 -0.8256
25573SOL    HW178726  10.658   1.831   1.221  1.9340 -0.7690 -0.1350
25573SOL    HW278727  10.784   1.889   1.281  1.3657  2.3671 -1.7428
25574SOL     OW78728   8.252   8.758   0.613  0.0917 -0.2342 -0.6149
25574SOL    HW178729   8.311   8.811   0.666 -1.2280  1.7307 -1.0021
25574SOL    HW278730   8.165   8.776   0.649 -0.5227 -1.1478 -1.5980
25575SOL     OW78731   9.608   0.885   7.186 -0.0059 -0.3437  0.3673
25575SOL    HW178732   9.686   0.836   7.162  0.1029  0.5093 -1.1380
25575SOL    HW278733   9.631   0.977   7.169  0.5419  0.6386  4.9228
25576SOL     OW78734   7.357  11.227   0.108  0.4464  0.5580 -0.2750
25576SOL    HW178735   7.300  11.234   0.184 -0.8630  0.6034 -1.2283
25576SOL    HW278736   7.440  11.195   0.143 -0.3931 -0.2566  1.0517
25577SOL     OW78737   7.970   9.563   4.467  0.7485 -0.1383 -0.6548
25577SOL    HW178738   7.936   9.506   4.398 -0.0484 -0.5943  0.0931
25577SOL    HW278739   7.974   9.650   4.427 -0.1344 -0.3163 -1.1371
25578SOL     OW78740   3.605   6.934  10.405  0.4826 -0.0796  0.5888
25578SOL    HW178741   3.669   6.878  10.449  0.5208 -0.2748  0.2839
25578SOL    HW278742   3.526   6.880  10.399  0.2032  0.2476  1.1949
25579SOL     OW78743   1.027   0.600  10.255  0.0208  0.3232 -0.6749
25579SOL    HW178744   1.092   0.536  10.225  1.8510  1.7319  0.0971
25579SOL    HW278745   1.019   0.662  10.182  0.8619  1.0860 -0.1432
25580SOL     OW78746  10.193   0.524   0.125 -0.1165  0.7141 -0.3900
25580SOL    HW178747  10.259   0.496   0.062 -1.1321  3.7440 -3.0475
25580SOL    HW278748  10.241   0.582   0.185  0.3767 -0.2918  0.2126
25581SOL     OW78749   4.233   1.468   4.179  0.1039  0.0904  0.0063
25581SOL    HW178750   4.220   1.412   4.255 -0.8619 -0.4456 -0.5348
25581SOL    HW278751   4.284   1.542   4.212  2.7220 -1.7919  0.4188
25582SOL     OW78752   1.275   9.068   9.661  0.4546  0.6956  1.1886
25582SOL    HW178753   1.243   9.158   9.668 -1.1290  0.1085  2.0428
25582SOL    HW278754   1.295   9.042   9.751  0.7190  0.1342  0.9764
25583SOL     OW78755   0.877   3.800   0.797 -0.2971  0.0216 -0.1178
25583SOL    HW178756   0.869   3.727   0.735 -0.0354 -1.4662  1.5133
25583SOL    HW278757   0.971   3.809   0.810 -0.2893  1.2168 -0.9122
25584SOL     OW78758   7.674   1.062  10.023 -0.0176  0.5286 -0.3345
25584SOL    HW178759   7.657   1.128   9.955  0.0648 -0.6156 -1.4899
25584SOL    HW278760   7.606   0.997  10.012 -1.3087  1.3249  2.0854
25585SOL     OW78761   3.442   8.643   3.702 -0.0700 -0.0717  0.2180
25585SOL    HW178762   3.437   8.738   3.687 -2.3204 -0.2044 -0.1991
25585SOL    HW278763   3.360   8.621   3.745 -0.0724 -2.0150 -0.6647
25586SOL     OW78764   1.971   2.242  11.102  0.0720 -0.0340  0.1185
25586SOL    HW178765   1.977   2.150  11.078 -0.4809 -0.4665  1.5226
25586SOL    HW278766   1.968   2.242  11.198  0.3600  1.4626  0.1617
25587SOL     OW78767   6.215   5.341   3.507  0.3033  0.3263 -0.3492
25587SOL    HW178768   6.133   5.295   3.490  1.0942 -0.6197 -1.8290
25587SOL    HW278769   6.243   5.309   3.593 -0.3086 -0.1993 -0.3381
25588SOL     OW78770  10.490   5.124   0.189  0.0095  0.3951  0.5613
25588SOL    HW178771  10.527   5.036   0.177 -0.5371  0.2210  0.1387
25588SOL    HW278772  10.455   5.148   0.103 -0.6215  0.6690  0.8908
25589SOL     OW78773   1.907   1.393  11.173 -0.8058  0.1866 -0.3895
25589SOL    HW178774   1.952   1.347  11.244 -0.5103  0.2690 -0.5225
25589SOL    HW278775   1.976   1.413  11.110 -1.0172  0.3803 -0.5606
25590SOL     OW78776   1.627   6.781  11.093 -0.0896 -0.3708  0.4095
25590SOL    HW178777   1.637   6.816  11.182  0.4095 -2.3932  1.1882
25590SOL    HW278778   1.710   6.802  11.050  0.1208 -0.4096  0.7930
25591SOL     OW78779  10.526   5.864   3.754 -0.4081  1.0082  0.1276
25591SOL    HW178780  10.538   5.870   3.659 -0.1343 -1.5942 -0.0658
25591SOL    HW278781  10.468   5.789   3.766  0.9829  0.1632  2.0831
25592SOL     OW78782   2.065   7.855   3.293  0.0046  0.1273  0.0191
25592SOL    HW178783   2.079   7.938   3.338 -1.1041  0.9295 -1.0601
25592SOL    HW278784   2.065   7.790   3.363  2.5728  0.7711  0.7370
25593SOL     OW78785   5.856   5.522   9.622  0.2465 -0.1187 -0.1721
25593SOL    HW178786   5.903   5.523   9.539 -0.3354 -1.4780 -0.5542
25593SOL    HW278787   5.832   5.430   9.635  1.2653 -0.1356  2.0577
25594SOL     OW78788   2.013   0.929   2.097 -0.1744 -0.2819 -0.0317
25594SOL    HW178789   2.065   0.984   2.039  0.8990 -0.9872  0.2102
25594SOL    HW278790   2.078   0.874   2.142 -1.0667 -0.5855  0.9454
25595SOL     OW78791   2.129  10.528   5.904  0.5117 -0.2190 -0.0266
25595SOL    HW178792   2.100  10.456   5.960 -0.6620  2.3755  3.0091
25595SOL    HW278793   2.056  10.590   5.906  0.0392 -0.1785 -5.2283
25596SOL     OW78794   7.432   3.061   0.913 -0.5590  0.3217  0.1002
25596SOL    HW178795   7.450   3.012   0.833  0.2614  2.5067 -1.1259
25596SOL    HW278796   7.437   3.153   0.887  1.4227  1.1582  3.0085
25597SOL     OW78797   4.076   3.988   4.724 -0.1267 -0.7305  0.5383
25597SOL    HW178798   4.135   3.975   4.798 -0.1958 -1.0553  0.5390
25597SOL    HW278799   4.077   3.904   4.677  1.0022 -0.1068 -0.6258
25598SOL     OW78800   8.330  10.811   6.945  0.0646 -0.9718 -0.3894
25598SOL    HW178801   8.280  10.758   6.882  0.0004 -2.7000  1.0463
25598SOL    HW278802   8.391  10.860   6.890 -1.6554 -0.5139 -1.9960
25599SOL     OW78803   4.589   7.768   2.357 -0.8271 -0.2294  0.0337
25599SOL    HW178804   4.592   7.850   2.309 -0.3540 -1.8913 -3.0377
25599SOL    HW278805   4.506   7.770   2.404 -1.5522  1.3469 -1.2355
25600SOL     OW78806   7.882  10.120  10.032  0.3336 -0.0039  0.1647
25600SOL    HW178807   7.973  10.091  10.032  0.3143 -0.1887  1.8475
25600SOL    HW278808   7.886  10.214  10.017  1.0252  0.4116  2.5616
25601SOL     OW78809   0.232   0.071   6.696 -0.1380 -0.1806 -0.8156
25601SOL    HW178810   0.152   0.122   6.709 -0.9358 -1.5450 -0.1011
25601SOL    HW278811   0.290   0.098   6.768 -2.0205 -2.9092  2.0297
25602SOL     OW78812   9.761   4.413  11.157 -0.4075 -0.3611 -0.1108
25602SOL    HW178813   9.842   4.455  11.185  0.4056  0.0017 -2.6779
25602SOL    HW278814   9.760   4.424  11.061 -3.4401 -0.4561 -0.2047
25603SOL     OW78815   3.589   1.681   4.815  0.3644  0.4067 -0.5313
25603SOL    HW178816   3.581   1.730   4.732 -0.3986  0.4354 -0.4502
25603SOL    HW278817   3.551   1.596   4.796 -0.0783  0.5119 -0.1298
25604SOL     OW78818   6.440   1.920   9.758  0.5474 -0.5671 -0.2925
25604SOL    HW178819   6.354   1.918   9.716 -0.1185  0.6369  0.9302
25604SOL    HW278820   6.427   1.972   9.837  2.2779 -0.8572  0.2314
25605SOL     OW78821   4.330   8.648   8.310  0.3975 -0.3980  0.1188
25605SOL    HW178822   4.236   8.649   8.292  0.2245 -0.6459  0.9306
25605SOL    HW278823   4.364   8.574   8.261  0.2511 -0.0266 -0.5510
25606SOL     OW78824   3.245   2.934   0.187 -0.4906  0.0381  0.0631
25606SOL    HW178825   3.338   2.944   0.206 -0.4233 -0.4401  0.0134
25606SOL    HW278826   3.232   2.976   0.102 -0.1128 -0.7707 -0.4058
25607SOL     OW78827   0.022   1.512   3.152 -0.1339  0.2638  0.1509
25607SOL    HW178828   0.092   1.511   3.087 -0.6406  0.5410 -0.4041
25607SOL    HW278829  -0.058   1.501   3.101 -0.7338  2.7217  0.4538
25608SOL     OW78830   4.906   9.003  10.049 -0.2475 -0.2932 -0.1886
25608SOL    HW178831   4.835   9.064  10.028 -1.8383 -2.1210 -0.3910
25608SOL    HW278832   4.898   8.934   9.982 -0.0393 -1.9083  1.3913
25609SOL     OW78833   3.351   3.026   1.337  0.4494  0.5757 -0.0158
25609SOL    HW178834   3.430   3.075   1.313 -0.1592  1.9400  0.6093
25609SOL    HW278835   3.283   3.063   1.282  0.8407 -3.4712 -3.7588
25610SOL     OW78836   1.279  10.403   2.358  0.5081  0.3050  0.4123
25610SOL    HW178837   1.321  10.319   2.335 -0.2043 -0.1714  0.8057
25610SOL    HW278838   1.186  10.381   2.366  0.1041  1.4504 -0.9483
25611SOL     OW78839   4.482   4.387   8.163 -0.7683  0.2312  0.3478
25611SOL    HW178840   4.507   4.358   8.251 -2.0874  0.0206  0.6664
25611SOL    HW278841   4.559   4.434   8.131  1.2011 -2.8371  0.1333
25612SOL     OW78842   4.962  11.030  11.095 -0.4857  0.1424 -0.1616
25612SOL    HW178843   4.928  11.003  11.181 -0.6992 -1.0972 -0.6167
25612SOL    HW278844   4.920  10.971  11.033 -1.0229  1.6135 -1.2337
25613SOL     OW78845  10.100   1.555   1.897  0.0405 -0.1299 -0.0545
25613SOL    HW178846  10.102   1.646   1.928  0.2029  0.1139 -0.7535
25613SOL    HW278847  10.169   1.511   1.947  0.3387  0.2669 -0.1056
25614SOL     OW78848  10.488   4.503   8.985 -0.3929  0.4092  0.0474
25614SOL    HW178849  10.404   4.541   8.958 -1.6061  0.3405  3.3083
25614SOL    HW278850  10.465   4.417   9.019  0.7648  0.8429  2.0660
25615SOL     OW78851   3.561   5.346   9.238 -0.1545  0.7492 -1.0665
25615SOL    HW178852   3.604   5.339   9.323  2.0370  2.8348 -1.8592
25615SOL    HW278853   3.471   5.317   9.253 -0.2786  2.4010  2.3014
25616SOL     OW78854   3.065   5.441  10.860  0.2578 -0.0115  0.1229
25616SOL    HW178855   3.014   5.402  10.931  0.3169 -0.1300  0.1007
25616SOL    HW278856   3.084   5.368  10.802 -1.0006  0.3298 -0.7611
25617SOL     OW78857   0.963   5.125  10.870  0.1448 -0.4000 -0.0258
25617SOL    HW178858   0.903   5.182  10.821  0.6828 -1.0415 -1.5140
25617SOL    HW278859   1.048   5.170  10.865  0.0462 -0.0817  1.0300
25618SOL     OW78860   4.094  10.442   9.818 -0.1927  0.3327  0.1284
25618SOL    HW178861   4.028  10.456   9.751 -0.2744 -0.7895 -0.0527
25618SOL    HW278862   4.106  10.527   9.859 -0.4482  0.9456 -1.0322
25619SOL     OW78863   7.498   0.845   6.445  0.6759 -0.2012 -0.0829
25619SOL    HW178864   7.531   0.838   6.355  1.1276  0.7832 -0.0014
25619SOL    HW278865   7.511   0.937   6.469  2.7158 -0.8700  1.7959
25620SOL     OW78866   0.340   1.346   1.024  1.3043  0.2143  0.8982
25620SOL    HW178867   0.430   1.352   0.991  2.5675 -0.7003  3.9039
25620SOL    HW278868   0.318   1.253   1.017  0.6844  0.3828  0.4896
25621SOL     OW78869  11.022   9.487  10.203 -0.0444  0.6738 -0.5627
25621SOL    HW178870  10.966   9.560  10.178 -1.1274 -0.5630 -1.9626
25621SOL    HW278871  10.963   9.425  10.246  0.9856  0.8816  1.2261
25622SOL     OW78872   2.590   3.280   3.054 -0.0971  0.3855  0.0358
25622SOL    HW178873   2.627   3.203   3.097  0.2869  0.7676  0.3947
25622SOL    HW278874   2.504   3.250   3.022  1.2446 -1.0926 -2.5045
25623SOL     OW78875   1.805   0.598   6.540  0.5276  0.2367  0.6456
25623SOL    HW178876   1.772   0.600   6.450  2.8728 -1.2801 -0.3320
25623SOL    HW278877   1.894   0.634   6.534  0.9473 -0.4314  2.2672
25624SOL     OW78878   1.513   6.304   1.733  0.7712 -1.0593 -0.1585
25624SOL    HW178879   1.579   6.325   1.798  0.6662  0.8955 -0.6202
25624SOL    HW278880   1.556   6.323   1.649 -0.0232 -0.7878 -0.5104
25625SOL     OW78881   1.035   4.106   9.011 -0.4522 -1.0551  0.4629
25625SOL    HW178882   1.032   4.167   9.085  3.3850  1.7576 -1.3158
25625SOL    HW278883   0.966   4.136   8.952  0.3120  0.6615  0.3608
25626SOL     OW78884   3.149   1.112   9.586 -0.0819  0.5799  0.4796
25626SOL    HW178885   3.186   1.030   9.553 -0.6833 -0.8328  3.0658
25626SOL    HW278886   3.067   1.087   9.628 -0.4899  2.5916  1.0074
25627SOL     OW78887   8.980  10.407   0.036 -0.3506 -0.1976 -0.5258
25627SOL    HW178888   8.947  10.319   0.024  0.8201 -0.5805 -1.1017
25627SOL    HW278889   9.037  10.422  -0.040  1.9428 -0.1517  1.0906
25628SOL     OW78890   3.237   8.455   9.327 -0.0092 -0.1781  0.1357
25628SOL    HW178891   3.309   8.458   9.263 -1.7365 -0.2457 -1.9059
25628SOL    HW278892   3.250   8.533   9.381  0.7959  0.5846 -1.1049
25629SOL     OW78893   9.894   8.204   1.904 -0.1378  0.2406  1.0567
25629SOL    HW178894   9.982   8.219   1.870 -0.4437 -1.2455 -0.4949
25629SOL    HW278895   9.885   8.109   1.907 -1.5847  0.3662  1.4866
25630SOL     OW78896   9.267  10.904   1.130  0.5484  0.2154  0.9315
25630SOL    HW178897   9.307  10.816   1.133  0.1264  0.0218  0.9749
25630SOL    HW278898   9.251  10.925   1.222 -0.0197  0.0228  0.8827
25631SOL     OW78899   7.042   3.706   1.616  0.2143 -0.2968  0.3018
25631SOL    HW178900   7.080   3.794   1.607 -0.1881 -0.1376  0.1284
25631SOL    HW278901   7.098   3.662   1.679  0.9146 -0.1892 -0.2353
25632SOL     OW78902   1.262   6.800   1.210 -0.3945  0.3909  0.2772
25632SOL    HW178903   1.318   6.809   1.133  0.3495  0.6410  0.8357
25632SOL    HW278904   1.229   6.710   1.205 -1.6574  0.8842 -1.1801
25633SOL     OW78905   9.664   7.556  11.245 -0.2544  0.5154  1.0093
25633SOL    HW178906   9.648   7.464  11.224 -1.2638  0.6090  1.2843
25633SOL    HW278907   9.587   7.582  11.297 -0.0146  1.5262  0.8787
25634SOL     OW78908   8.280   2.530   8.323 -0.1562 -0.1442  0.2669
25634SOL    HW178909   8.314   2.564   8.406  2.4831 -1.2567 -0.2721
25634SOL    HW278910   8.190   2.562   8.320  0.0528  0.9941  2.9495
25635SOL     OW78911   6.049   2.551   1.055 -0.3333  0.4097 -0.2714
25635SOL    HW178912   6.053   2.544   1.150 -0.7158 -0.2170 -0.2966
25635SOL    HW278913   6.108   2.482   1.023 -2.6851 -1.6161 -0.5128
25636SOL     OW78914   4.138  10.244   8.776 -0.3019 -0.1668 -0.4743
25636SOL    HW178915   4.131  10.156   8.738 -0.3264 -0.2684 -0.2351
25636SOL    HW278916   4.210  10.238   8.839 -0.5515 -0.1185 -0.1807
25637SOL     OW78917   2.683   9.708   2.990  0.1141  0.6194  0.0120
25637SOL    HW178918   2.748   9.650   2.951  0.6552  1.8276 -0.9284
25637SOL    HW278919   2.729   9.748   3.064  0.9114  2.3670 -1.3426
25638SOL     OW78920   9.497   6.003   7.759  0.0024  0.6533  0.3346
25638SOL    HW178921   9.428   6.007   7.825  0.7907 -1.2291  1.3384
25638SOL    HW278922   9.578   6.012   7.809  0.7467 -2.9923  0.0678
25639SOL     OW78923  10.902  10.652   2.475 -0.1367  0.6957  0.0404
25639SOL    HW178924  10.852  10.732   2.459  0.1559  0.6736 -1.1187
25639SOL    HW278925  10.983  10.682   2.516  0.1698  1.0682 -0.8000
25640SOL     OW78926   1.999   9.061  11.099  0.1553  0.6162  0.1669
25640SOL    HW178927   2.036   9.022  11.020 -0.4022 -0.4713  0.4294
25640SOL    HW278928   1.961   8.988  11.147  1.6719  1.0336  2.1298
25641SOL     OW78929   4.556   3.826  10.094 -0.2175  0.0084 -0.1291
25641SOL    HW178930   4.616   3.824  10.019 -1.1800 -0.3625 -0.9124
25641SOL    HW278931   4.612   3.807  10.170  0.6595 -0.3013 -0.8285
25642SOL     OW78932  10.104   1.190   2.680  0.0976  0.0731  0.3679
25642SOL    HW178933  10.197   1.170   2.689 -0.3743 -3.0453 -0.4744
25642SOL    HW278934  10.092   1.207   2.586  0.1992  3.5981  0.8312
25643SOL     OW78935   1.924   2.449   3.278  0.1373 -0.8060  0.0361
25643SOL    HW178936   2.012   2.456   3.316 -1.3251 -0.5919  3.7786
25643SOL    HW278937   1.930   2.495   3.194  3.1043  0.8694  1.0387
25644SOL     OW78938   6.608  10.329   0.793  0.3203  0.2785  0.1084
25644SOL    HW178939   6.649  10.415   0.798 -0.4531  0.6365  0.3027
25644SOL    HW278940   6.563  10.318   0.876 -1.0809  0.4462 -0.6103
25645SOL     OW78941   9.671   8.201   9.699  0.5732 -0.0757  0.4493
25645SOL    HW178942   9.665   8.286   9.656 -1.7144  0.5725  1.8641
25645SOL    HW278943   9.729   8.216   9.774  1.0544 -0.0586  0.0752
25646SOL     OW78944   9.638   3.750   2.047 -0.0829 -0.6533 -0.4375
25646SOL    HW178945   9.643   3.674   2.105  0.5044 -0.7360 -0.5984
25646SOL    HW278946   9.548   3.749   2.014  0.0183 -1.4657 -0.6908
25647SOL     OW78947   5.859   1.838   2.463  0.0487 -0.1787 -0.1032
25647SOL    HW178948   5.828   1.747   2.462 -0.4393 -0.0180  0.0937
25647SOL    HW278949   5.948   1.832   2.499 -0.7996 -0.3522  2.1324
25648SOL     OW78950  10.987   9.108   0.495 -0.4041  0.7325 -0.5320
25648SOL    HW178951  10.964   9.070   0.580 -0.8606  2.8273  0.3453
25648SOL    HW278952  11.079   9.087   0.483 -0.2098  0.8119  0.7108
25649SOL     OW78953   4.634   2.787   8.762 -0.1139 -0.0992 -0.1878
25649SOL    HW178954   4.594   2.820   8.681 -0.9584 -0.2293  0.1614
25649SOL    HW278955   4.671   2.702   8.737  1.0619  0.5744 -0.8141
25650SOL     OW78956   0.105   7.219  11.223  0.0647  0.1745  0.0919
25650SOL    HW178957   0.197   7.200  11.202 -0.4867 -2.2613 -0.3505
25650SOL    HW278958   0.079   7.150  11.284 -0.6402  2.6349  2.8618
25651SOL     OW78959   1.412   5.092   7.336  0.3422 -0.0245  0.4727
25651SOL    HW178960   1.504   5.070   7.355  1.0307 -2.2188 -4.0223
25651SOL    HW278961   1.362   5.030   7.389  1.4282  0.4522  2.1619
25652SOL     OW78962   2.604   0.132   3.030  0.6092 -0.1828  0.6781
25652SOL    HW178963   2.640   0.165   3.112  2.0680 -0.2091  0.0820
25652SOL    HW278964   2.515   0.166   3.027 -0.0019 -1.3961  2.9518
25653SOL     OW78965  10.450   5.404   1.028  0.1189  0.0552 -0.0198
25653SOL    HW178966  10.541   5.401   0.998  0.0117 -0.1838 -0.3240
25653SOL    HW278967  10.446   5.341   1.100  0.4235  0.7629  0.6408
25654SOL     OW78968   5.081   2.209   7.831 -0.5144  0.2215  0.4905
25654SOL    HW178969   5.084   2.266   7.754  1.2428 -1.2257 -0.6147
25654SOL    HW278970   5.158   2.235   7.883 -0.4431 -0.2625  0.6325
25655SOL     OW78971   1.498  10.143   3.968  0.9001  0.4120  0.5970
25655SOL    HW178972   1.451  10.222   3.942  0.2758  0.0373  0.5469
25655SOL    HW278973   1.440  10.071   3.942  1.8343 -0.1005 -0.1364
25656SOL     OW78974   6.845   5.820   3.550 -0.0307  0.4704 -0.1309
25656SOL    HW178975   6.833   5.785   3.461  1.9809  0.1727 -0.3348
25656SOL    HW278976   6.834   5.744   3.607  1.9192 -0.0916 -0.4093
25657SOL     OW78977   1.413   0.854   9.483 -0.0498  0.8194  0.2322
25657SOL    HW178978   1.371   0.940   9.476 -0.6323  0.5830  0.7499
25657SOL    HW278979   1.340   0.792   9.493  0.3981  0.3740  0.8339
25658SOL     OW78980  10.319   1.639   7.232 -0.5099 -0.4166  0.4118
25658SOL    HW178981  10.280   1.712   7.279 -1.6843  1.2631 -2.8185
25658SOL    HW278982  10.413   1.651   7.242 -0.7101  0.4736  1.3801
25659SOL     OW78983  10.971  10.743   3.779  0.2968 -0.4681 -0.4271
25659SOL    HW178984  11.045  10.689   3.754  0.9821  0.5660 -0.6927
25659SOL    HW278985  10.999  10.788   3.858 -0.5201 -0.9902  0.1804
25660SOL     OW78986   2.267   4.117   5.445  0.6146  0.1922  0.0973
25660SOL    HW178987   2.292   4.205   5.473 -0.3143  0.4230  0.2137
25660SOL    HW278988   2.244   4.071   5.526 -0.4564  0.3486 -0.1000
25661SOL     OW78989  11.035   0.178   6.603  0.6261 -0.6291  0.1180
25661SOL    HW178990  10.982   0.112   6.648 -0.3444 -1.8702 -2.6323
25661SOL    HW278991  10.994   0.188   6.517  0.5536  3.8699  0.4292
25662SOL     OW78992   7.360   8.172   7.932  0.3310  0.0149 -0.1644
25662SOL    HW178993   7.352   8.141   7.842  0.3089  2.2398 -0.9832
25662SOL    HW278994   7.317   8.104   7.985 -0.3308 -0.9608 -1.8919
25663SOL     OW78995   4.034   5.182   8.923  0.1138  0.4025 -0.7127
25663SOL    HW178996   3.994   5.268   8.911  1.3486  0.8226 -2.1896
25663SOL    HW278997   4.101   5.196   8.990 -0.5263  0.2820 -0.0404
25664SOL     OW78998   8.431   4.452   2.627 -0.6919 -0.2853 -0.0569
25664SOL    HW178999   8.412   4.490   2.713  0.5543  0.8988 -0.2667
25664SOL    HW279000   8.487   4.377   2.645  2.1589  1.7308  0.0833
25665SOL     OW79001   1.786   8.682   2.246  0.0563  0.2892 -0.6110
25665SOL    HW179002   1.741   8.657   2.166 -0.9693  1.3378 -0.4029
25665SOL    HW279003   1.873   8.711   2.218  0.1926 -0.6405 -1.1676
25666SOL     OW79004   8.543   7.744   1.710 -0.9979  0.3077 -0.2587
25666SOL    HW179005   8.558   7.655   1.678 -2.1577 -0.2758  0.7295
25666SOL    HW279006   8.619   7.794   1.680 -0.4159 -0.9734 -0.9773
25667SOL     OW79007   9.402   3.275   1.490 -0.5825  0.1258  0.2685
25667SOL    HW179008   9.475   3.215   1.474 -0.3238  0.1521  1.3192
25667SOL    HW279009   9.328   3.218   1.510 -0.4574  0.1453  0.7842
25668SOL     OW79010   7.826   1.700  10.532  0.4399  0.4496 -0.1158
25668SOL    HW179011   7.909   1.654  10.547  0.1515  0.3365  1.3022
25668SOL    HW279012   7.783   1.700  10.618 -1.6368 -0.6818 -1.0711
25669SOL     OW79013   6.352   2.058   0.857 -0.7966  0.6582  0.1759
25669SOL    HW179014   6.377   2.004   0.783  1.1164  0.3305  1.0075
25669SOL    HW279015   6.287   2.118   0.822  0.1109  0.5569 -1.7918
25670SOL     OW79016   1.085   9.176   8.491 -0.3356 -0.7826  0.0226
25670SOL    HW179017   1.149   9.143   8.554 -0.3483 -1.3494 -0.2530
25670SOL    HW279018   1.003   9.181   8.541  0.4694  2.9060  1.2938
25671SOL     OW79019   7.927   5.417   4.066 -0.2495 -0.3131 -0.1754
25671SOL    HW179020   8.014   5.390   4.095 -1.0707 -2.2677  0.6670
25671SOL    HW279021   7.914   5.370   3.984 -0.3070  0.4298 -0.5995
25672SOL     OW79022   1.719   4.047   4.015  0.0401  0.3306  0.1638
25672SOL    HW179023   1.781   4.015   4.081  0.0715 -1.0526 -0.5002
25672SOL    HW279024   1.645   4.080   4.066 -0.3251 -1.5317  0.9082
25673SOL     OW79025   4.870   6.306  10.844  0.4307  0.3989  0.4513
25673SOL    HW179026   4.930   6.380  10.844  1.0921 -0.1117  1.2657
25673SOL    HW279027   4.888   6.261  10.927 -0.9931  0.1550  0.6520
25674SOL     OW79028   2.184   8.303   5.882  0.0083 -0.6771  0.0074
25674SOL    HW179029   2.107   8.360   5.878 -0.6730 -1.5127  0.7351
25674SOL    HW279030   2.208   8.288   5.791  2.2913  3.4376 -0.3218
25675SOL     OW79031   6.237   1.318   7.141 -0.2387 -0.0559 -0.7349
25675SOL    HW179032   6.239   1.222   7.144  1.9428 -0.0379  0.3727
25675SOL    HW279033   6.269   1.340   7.053 -2.3625 -0.2889 -1.6329
25676SOL     OW79034   2.343   6.661   1.286 -0.1671 -1.1684  0.4329
25676SOL    HW179035   2.260   6.650   1.332 -0.9069 -0.1196 -0.5757
25676SOL    HW279036   2.348   6.754   1.267  0.6604 -1.3924 -0.5764
25677SOL     OW79037   9.395   7.959   5.780 -0.5251  0.2597 -0.1934
25677SOL    HW179038   9.309   7.920   5.762 -0.3170  0.4121 -1.6861
25677SOL    HW279039   9.433   7.974   5.693  2.3838 -2.7607  0.3523
25678SOL     OW79040   1.227   9.506   8.966  0.3057 -0.0831 -0.0058
25678SOL    HW179041   1.223   9.490   9.061 -1.2899  0.6976  0.1022
25678SOL    HW279042   1.226   9.601   8.958 -0.4163 -0.1443 -0.8040
25679SOL     OW79043   5.639   7.736  10.528 -0.4989  0.3813 -0.3041
25679SOL    HW179044   5.637   7.806  10.463 -0.1141 -0.3699 -1.1549
25679SOL    HW279045   5.634   7.655  10.476  0.1170 -0.2447  0.5836
25680SOL     OW79046   8.335   4.681   9.577 -0.3070  0.4400  0.1361
25680SOL    HW179047   8.308   4.730   9.655 -0.0071 -0.8668  1.0905
25680SOL    HW279048   8.291   4.596   9.585  0.1748  0.0804 -0.8401
25681SOL     OW79049   1.268   7.596   3.773  0.4195 -1.0127 -0.3850
25681SOL    HW179050   1.219   7.538   3.715  0.1912  0.4410 -1.7103
25681SOL    HW279051   1.201   7.635   3.830  0.2988 -0.5867 -0.8115
25682SOL     OW79052   3.320   6.500   7.420  0.0442  0.3390  0.3142
25682SOL    HW179053   3.317   6.519   7.326  0.1237 -0.6148  0.1085
25682SOL    HW279054   3.409   6.524   7.446  0.9801 -1.9473 -0.4627
25683SOL     OW79055   2.611   9.883   8.627 -0.1505 -0.6204 -0.1508
25683SOL    HW179056   2.521   9.870   8.599 -0.4303  0.4244  0.2116
25683SOL    HW279057   2.605   9.911   8.718  0.5087 -0.2278 -0.2135
25684SOL     OW79058   0.793   2.091   1.436 -0.2711 -0.1221 -0.7308
25684SOL    HW179059   0.781   2.014   1.491 -0.7985  0.1027 -0.5195
25684SOL    HW279060   0.887   2.107   1.436 -0.2788 -0.0597  0.2003
25685SOL     OW79061   1.499   0.202   6.576  0.2286  0.3219 -0.5388
25685SOL    HW179062   1.591   0.207   6.599  0.0994 -0.5813  0.2392
25685SOL    HW279063   1.455   0.174   6.656 -0.7401  0.8716 -0.8614
25686SOL     OW79064   8.953   9.460   8.350  0.0491  0.3142 -0.3250
25686SOL    HW179065   8.984   9.370   8.358 -0.0511  0.2040 -1.0932
25686SOL    HW279066   8.945   9.491   8.440  0.2162 -0.4005 -0.0600
25687SOL     OW79067   9.999  10.930   8.396  0.5127 -0.1204  0.5330
25687SOL    HW179068  10.020  10.999   8.459  0.3503  0.5973 -0.1865
25687SOL    HW279069   9.904  10.928   8.393  0.5192 -0.0703  0.2302
25688SOL     OW79070   2.817   3.164   1.563  1.0721 -0.1734 -0.1530
25688SOL    HW179071   2.871   3.223   1.510  1.3240  0.9757  1.3173
25688SOL    HW279072   2.745   3.140   1.506  0.0607  2.9006 -0.3284
25689SOL     OW79073   0.256   1.242   3.774  0.4454  0.6680  0.2031
25689SOL    HW179074   0.175   1.284   3.802  0.2593  2.7261 -2.8902
25689SOL    HW279075   0.325   1.294   3.816  0.2065  0.0119  1.4417
25690SOL     OW79076   8.565   8.957   9.154  0.1613  0.5855  0.1465
25690SOL    HW179077   8.580   9.000   9.069  1.4050 -0.1409 -0.0167
25690SOL    HW279078   8.471   8.937   9.154  0.6018 -2.0731 -2.3574
25691SOL     OW79079   3.166   2.013   2.501  0.1125  0.5065 -0.0010
25691SOL    HW179080   3.093   1.954   2.482  0.7601 -0.3469  0.1303
25691SOL    HW279081   3.173   2.014   2.596  1.9959 -1.6302 -0.0232
25692SOL     OW79082   1.843   1.251   9.914  0.2490 -0.3313  0.0894
25692SOL    HW179083   1.804   1.164   9.904  0.4316 -0.2434 -1.6762
25692SOL    HW279084   1.861   1.279   9.824 -1.6216  2.3554  0.4427
25693SOL     OW79085   1.826   5.278   3.254  0.1855  0.4232  0.1601
25693SOL    HW179086   1.840   5.351   3.194 -0.5404  1.0296  0.7193
25693SOL    HW279087   1.897   5.217   3.234 -1.0503 -0.2564 -2.6241
25694SOL     OW79088   5.600   1.417   8.989 -0.0532  0.0441 -0.5342
25694SOL    HW179089   5.567   1.468   8.915 -1.5473 -0.9344 -0.5860
25694SOL    HW279090   5.547   1.446   9.064 -2.2432 -2.5802 -0.8997
25695SOL     OW79091   4.662   3.042   0.998 -0.0011 -0.3280 -0.1538
25695SOL    HW179092   4.585   3.031   1.054  1.4657  0.4955  2.1810
25695SOL    HW279093   4.642   3.117   0.942 -1.6886 -1.4513 -1.1504
25696SOL     OW79094   6.908   6.426  10.549 -0.0631  0.0974 -0.3337
25696SOL    HW179095   6.947   6.437  10.463 -0.1558  3.8977 -0.0871
25696SOL    HW279096   6.862   6.342  10.545  0.7777 -0.3302 -3.5978
25697SOL     OW79097   1.082   9.761   6.094 -0.6985 -0.1363  0.2809
25697SOL    HW179098   1.153   9.789   6.151 -1.1869  1.8498 -0.0260
25697SOL    HW279099   1.057   9.675   6.127  0.1513  0.2314  1.9654
25698SOL     OW79100   9.519   2.409   6.482 -0.0896 -0.2898  0.6399
25698SOL    HW179101   9.455   2.441   6.418  0.5952  1.5124  0.7875
25698SOL    HW279102   9.592   2.378   6.428 -0.0381  0.0547  0.5035
25699SOL     OW79103   0.738  10.152   2.252 -0.0632  0.2256  0.4374
25699SOL    HW179104   0.694  10.072   2.284 -1.2176  0.9576  0.7611
25699SOL    HW279105   0.799  10.175   2.322  0.4328 -0.4941  0.2472
25700SOL     OW79106  10.930   5.345   2.035 -0.3349  0.4760 -0.9736
25700SOL    HW179107  10.872   5.421   2.032  2.2891  2.6925  0.7322
25700SOL    HW279108  10.982   5.351   1.955  1.3054  1.8038  0.1226
25701SOL     OW79109   2.228   9.569   0.006  0.5436 -0.3615  0.4566
25701SOL    HW179110   2.148   9.617   0.025 -0.1917 -1.7963  1.1965
25701SOL    HW279111   2.273   9.560   0.090 -0.7762 -3.3554  0.9735
25702SOL     OW79112   3.461   3.322   1.653 -0.3223  0.5673 -0.1817
25702SOL    HW179113   3.419   3.243   1.618 -0.1755 -0.4018  1.7297
25702SOL    HW279114   3.389   3.375   1.685 -0.3727  0.9696 -0.9248
25703SOL     OW79115   1.778   6.885   7.090  0.8660  0.4139 -0.6803
25703SOL    HW179116   1.702   6.867   7.035 -0.5081  1.4106  0.7964
25703SOL    HW279117   1.851   6.892   7.029 -0.5062  1.0380 -2.3250
25704SOL     OW79118   9.074  10.641   0.487  0.0620  0.4470 -0.3193
25704SOL    HW179119   9.139  10.703   0.454  0.1673 -0.3233 -1.6263
25704SOL    HW279120   9.078  10.567   0.426  1.3265 -1.7685  2.2663
25705SOL     OW79121   8.387   9.192   9.593  0.1853  0.1185  0.0901
25705SOL    HW179122   8.474   9.194   9.553 -0.0860 -1.0225 -0.6041
25705SOL    HW279123   8.388   9.116   9.651 -0.2782  0.2232  0.2429
25706SOL     OW79124  11.126   3.590   1.170 -0.4703  0.0388 -0.1239
25706SOL    HW179125  11.073   3.657   1.128  0.3265  1.0305  0.4034
25706SOL    HW279126  11.120   3.610   1.264  1.0662  0.3760 -0.0703
25707SOL     OW79127   6.424   6.071   3.305 -0.0603  0.0188 -0.1395
25707SOL    HW179128   6.470   6.119   3.235 -1.0562  0.8488 -0.2497
25707SOL    HW279129   6.418   5.981   3.272 -0.2833  0.3439 -1.0117
25708SOL     OW79130   1.711   2.633   7.181  0.2776 -0.7014  0.0070
25708SOL    HW179131   1.800   2.637   7.144 -0.0179  0.2330 -0.6454
25708SOL    HW279132   1.722   2.587   7.264  0.8176 -3.8234 -1.6350
25709SOL     OW79133   9.023   4.955   3.210  0.4567 -0.1052  0.2319
25709SOL    HW179134   9.095   4.914   3.162  0.6144 -0.4805  0.7825
25709SOL    HW279135   8.963   4.883   3.230  0.1954  0.1158  0.2488
25710SOL     OW79136   3.058   4.958   3.499 -0.1486  0.3237  0.3021
25710SOL    HW179137   3.018   5.040   3.528 -0.8288  0.4740 -0.9661
25710SOL    HW279138   3.098   4.979   3.414  2.0172 -0.0226  1.1749
25711SOL     OW79139   0.225   3.202   7.022 -0.1612 -0.5030 -0.3106
25711SOL    HW179140   0.156   3.226   7.083 -0.0981 -1.7498  0.2762
25711SOL    HW279141   0.234   3.278   6.965 -1.2875  0.0783  0.2589
25712SOL     OW79142   6.491   5.701   0.027 -0.1407 -0.1642 -0.8699
25712SOL    HW179143   6.410   5.665   0.064 -0.9592 -0.2069 -2.6267
25712SOL    HW279144   6.534   5.626  -0.013  1.4063 -0.3781  1.0356
25713SOL     OW79145   2.758   0.746   7.844 -0.2379  0.1259 -0.2678
25713SOL    HW179146   2.829   0.682   7.852 -0.6788 -0.3296  0.0913
25713SOL    HW279147   2.744   0.754   7.750 -1.0162 -1.2702 -0.3077
25714SOL     OW79148   7.877   9.451   0.147  0.2492  0.5363  0.1071
25714SOL    HW179149   7.954   9.475   0.199  1.0918 -1.5838 -0.0684
25714SOL    HW279150   7.911   9.397   0.076 -1.3510 -0.0960 -0.2321
25715SOL     OW79151   1.010   6.215   3.155 -0.2432  0.3297  0.0767
25715SOL    HW179152   1.049   6.174   3.077  1.3489  0.6106  0.6809
25715SOL    HW279153   1.011   6.308   3.136  0.0737  0.3916  0.3926
25716SOL     OW79154   2.889   7.990   9.406  0.2554  0.2943  0.6667
25716SOL    HW179155   2.883   8.081   9.375 -0.5144 -0.5618 -1.9769
25716SOL    HW279156   2.816   7.980   9.466  0.3068  1.3927  0.9354
25717SOL     OW79157  10.227   1.327   3.507 -0.2384  0.2367 -0.0878
25717SOL    HW179158  10.183   1.243   3.491  1.6163 -0.8475  0.1967
25717SOL    HW279159  10.194   1.356   3.592  0.3711 -1.1001  0.6306
25718SOL     OW79160  10.052   9.407  10.955 -0.1638  0.1335  0.5106
25718SOL    HW179161  10.111   9.347  11.002  3.3058  0.9242 -2.3571
25718SOL    HW279162  10.109   9.481  10.931 -1.9828  0.4369 -3.5282
25719SOL     OW79163   2.388   6.595   8.378  0.5250 -0.7312  0.1506
25719SOL    HW179164   2.355   6.566   8.463  1.8590 -4.3293 -0.3528
25719SOL    HW279165   2.314   6.586   8.318  0.4262 -1.4086  0.3667
25720SOL     OW79166   3.669   5.430   0.223  0.0829  0.3647  0.4478
25720SOL    HW179167   3.725   5.450   0.297  2.7076  1.9372 -1.8117
25720SOL    HW279168   3.649   5.514   0.183 -1.0886 -0.4378 -0.7829
25721SOL     OW79169   0.212   2.778   4.454 -0.1996 -0.2585  0.6524
25721SOL    HW179170   0.165   2.781   4.537 -0.9981 -0.5464  0.2246
25721SOL    HW279171   0.226   2.684   4.438 -0.9835 -0.2640 -0.0441
25722SOL     OW79172   5.898   1.476   8.007 -0.0335  0.2048  0.2123
25722SOL    HW179173   5.805   1.485   7.986 -0.2534  1.4627  1.5486
25722SOL    HW279174   5.906   1.387   8.041 -0.7337  0.0554  0.0050
25723SOL     OW79175   4.582   0.673   2.430  0.2700 -0.1090 -0.2931
25723SOL    HW179176   4.495   0.701   2.460 -0.0422  0.5400 -1.7533
25723SOL    HW279177   4.640   0.745   2.454 -0.2040  1.0144 -2.3263
25724SOL     OW79178   0.595   7.646   3.359  0.2463 -0.2688 -0.1550
25724SOL    HW179179   0.665   7.709   3.339  0.5902  0.2422  2.2493
25724SOL    HW279180   0.524   7.670   3.300  0.8532  1.5589 -0.2265
25725SOL     OW79181   7.170   2.587   4.164  0.3539 -0.5177 -0.4630
25725SOL    HW179182   7.185   2.509   4.218  0.1961 -1.4280 -1.7064
25725SOL    HW279183   7.239   2.584   4.098 -0.3029 -0.1793 -1.1733
25726SOL     OW79184   2.608  10.953   6.819 -0.0550 -0.0336 -0.1071
25726SOL    HW179185   2.654  11.022   6.868  0.2167 -0.7098  0.6137
25726SOL    HW279186   2.670  10.927   6.751 -0.6593  1.3158 -1.2124
25727SOL     OW79187   2.829   5.825   4.243  0.1893 -0.3643  0.2212
25727SOL    HW179188   2.756   5.861   4.193 -0.0506  0.6342  1.2443
25727SOL    HW279189   2.907   5.864   4.203  0.0412 -0.0466  0.2435
25728SOL     OW79190   5.274   3.186   6.255 -0.3945 -0.1684  0.5376
25728SOL    HW179191   5.355   3.196   6.204 -1.0053  0.4382 -0.3491
25728SOL    HW279192   5.287   3.106   6.305 -0.3895 -1.6948 -1.7792
25729SOL     OW79193   0.959   6.945   0.504 -0.0431  0.2734 -0.2138
25729SOL    HW179194   0.901   6.871   0.523  1.4748 -0.9349 -0.1086
25729SOL    HW279195   0.963   6.948   0.408  1.7337 -1.3615 -0.2581
25730SOL     OW79196   0.950   7.141   5.479 -0.5316  0.1379 -0.1533
25730SOL    HW179197   1.018   7.098   5.532 -1.5333 -1.2759  0.0586
25730SOL    HW279198   0.961   7.234   5.497  0.4795 -0.1593  0.9291
25731SOL     OW79199   7.336   1.484  10.767  0.1790 -0.1344 -0.1354
25731SOL    HW179200   7.323   1.556  10.704  2.4453 -0.4732 -1.0796
25731SOL    HW279201   7.329   1.405  10.714  1.8235 -0.4359  0.0527
25732SOL     OW79202   4.634   6.907   3.465  0.3296 -0.0626 -0.2873
25732SOL    HW179203   4.592   6.880   3.546  0.8159  0.7018  0.2262
25732SOL    HW279204   4.671   6.993   3.483 -0.2110  0.4655 -1.5559
25733SOL     OW79205   2.703  10.885   1.746 -0.3010 -0.3522  0.2356
25733SOL    HW179206   2.709  10.794   1.776  1.1083 -1.0919 -1.9511
25733SOL    HW279207   2.771  10.931   1.794  1.0869 -1.2188 -0.8187
25734SOL     OW79208   0.048   0.276   0.798 -0.1267  0.0323 -0.2812
25734SOL    HW179209   0.097   0.224   0.734 -0.9351 -0.0310 -0.8660
25734SOL    HW279210  -0.038   0.287   0.758  0.2578  2.5177 -0.5368
25735SOL     OW79211   7.687   0.014   5.443 -0.1548  0.3296 -0.1528
25735SOL    HW179212   7.702   0.073   5.517  0.3566  1.9553 -1.4980
25735SOL    HW279213   7.754   0.038   5.379 -0.8234 -0.7684 -1.3092
25736SOL     OW79214   1.252   4.320   7.861  0.0423 -0.5585  0.4698
25736SOL    HW179215   1.206   4.393   7.819  0.4062 -1.3505 -1.4295
25736SOL    HW279216   1.344   4.333   7.838 -0.0412 -2.3241 -1.1950
25737SOL     OW79217  11.035   7.487   6.725 -0.2530  0.6703 -0.0638
25737SOL    HW179218  11.081   7.571   6.728  1.2682 -0.0350  4.7812
25737SOL    HW279219  10.943   7.510   6.715  0.2533  2.7557 -0.3489
25738SOL     OW79220   7.708   8.204   3.725 -0.6403  0.0277  0.0743
25738SOL    HW179221   7.797   8.238   3.722  0.2422 -2.1202 -0.2459
25738SOL    HW279222   7.705   8.148   3.802 -0.7826 -2.1016 -1.3732
25739SOL     OW79223   9.846   8.862   1.884 -0.6769 -0.0491  0.6218
25739SOL    HW179224   9.814   8.936   1.937 -0.4178  1.2376 -0.9389
25739SOL    HW279225   9.823   8.885   1.794 -1.6056 -2.4435  0.1621
25740SOL     OW79226   1.859   1.506   1.857  0.0035  0.5479 -0.8403
25740SOL    HW179227   1.886   1.444   1.926  0.7551 -0.6139 -2.1280
25740SOL    HW279228   1.829   1.583   1.905  1.3463  0.1230  0.7723
25741SOL     OW79229   1.507   8.992   8.262  0.3927 -0.0209  0.6629
25741SOL    HW179230   1.532   8.900   8.267  0.1651 -0.4170 -2.7241
25741SOL    HW279231   1.414   8.993   8.284 -0.5067 -1.3037 -2.4518
25742SOL     OW79232   6.380   7.585   7.630 -0.2283 -0.0249 -0.4245
25742SOL    HW179233   6.360   7.526   7.702 -2.3731  0.2078 -0.7613
25742SOL    HW279234   6.295   7.613   7.598  0.7069  2.3418 -1.0360
25743SOL     OW79235   3.809   0.032   6.736  0.2837  0.2683  0.2050
25743SOL    HW179236   3.891   0.081   6.743  0.0879  0.4612  1.5430
25743SOL    HW279237   3.749   0.091   6.690  0.6144  0.5132  0.0868
25744SOL     OW79238   1.713   8.727   7.378  0.5289  0.0707  0.0971
25744SOL    HW179239   1.680   8.639   7.357  3.0937 -0.8891 -0.2478
25744SOL    HW279240   1.661   8.754   7.454 -3.1122  0.0461 -2.1342
25745SOL     OW79241   5.994   4.882   6.933 -0.3688  0.4441  0.2854
25745SOL    HW179242   5.963   4.914   7.018  0.5418  0.6767  0.5480
25745SOL    HW279243   5.991   4.958   6.876 -0.5149  0.4096  0.2488
25746SOL     OW79244   3.300  10.492   2.713  0.4378  0.5260 -0.2932
25746SOL    HW179245   3.249  10.425   2.667  3.0106 -0.5542 -1.7995
25746SOL    HW279246   3.305  10.564   2.650  2.3371 -0.1893 -1.0606
25747SOL     OW79247   9.070   1.343   1.389  0.2583 -0.1489 -0.3546
25747SOL    HW179248   9.020   1.317   1.467 -1.0004 -2.6400 -1.8461
25747SOL    HW279249   9.139   1.400   1.422 -1.7236  0.9535  2.2341
25748SOL     OW79250   7.310   1.017   4.022 -0.0216 -0.4457  0.7191
25748SOL    HW179251   7.392   0.969   4.035  0.0115 -0.3567  0.8444
25748SOL    HW279252   7.243   0.948   4.018  0.0804 -0.5268  0.4417
25749SOL     OW79253   5.039   2.731   9.844  0.3535 -0.4565  0.1561
25749SOL    HW179254   5.091   2.769   9.773  1.7213 -1.9555  0.2791
25749SOL    HW279255   4.956   2.707   9.803  0.3002  0.6505 -0.4088
25750SOL     OW79256   7.788   7.008   0.226 -0.0350 -0.3762  0.2433
25750SOL    HW179257   7.766   7.047   0.142  0.4579 -1.5994 -0.4688
25750SOL    HW279258   7.884   7.015   0.231  0.1532 -2.1475 -0.2552
25751SOL     OW79259   5.596  11.075   2.546  0.1154 -0.1454  0.5868
25751SOL    HW179260   5.646  11.006   2.589  0.3249  0.2065  0.9116
25751SOL    HW279261   5.633  11.157   2.580  1.1389  0.1813 -1.1953
25752SOL     OW79262   4.353  11.013   1.589  0.4590 -0.5839  0.3512
25752SOL    HW179263   4.420  11.028   1.523 -0.7587  2.6426 -0.3194
25752SOL    HW279264   4.274  10.993   1.539 -0.6661  2.6480  0.6184
25753SOL     OW79265   0.531   4.028   2.100 -0.4383 -0.0342  0.2988
25753SOL    HW179266   0.469   3.957   2.113  2.4025 -2.4260  2.0443
25753SOL    HW279267   0.617   3.990   2.119  1.4762  3.4516 -0.3340
25754SOL     OW79268   3.107   6.644   3.873 -0.1904  0.2274  0.0493
25754SOL    HW179269   3.011   6.642   3.870 -0.1566 -0.7142 -0.4620
25754SOL    HW279270   3.135   6.567   3.825  0.8451  0.7391 -0.2011
25755SOL     OW79271  11.257   4.879   3.393  0.2747  0.4038 -0.4889
25755SOL    HW179272  11.231   4.855   3.304  0.5869  1.6402 -0.9326
25755SOL    HW279273  11.329   4.941   3.381  1.5513 -0.7997  0.6688
25756SOL     OW79274   3.475   7.836   4.948 -0.2769  0.2516  0.1112
25756SOL    HW179275   3.513   7.773   5.010 -1.4381 -1.2370 -0.6143
25756SOL    HW279276   3.403   7.788   4.906 -1.2549  2.1066 -0.4456
25757SOL     OW79277   1.994   7.798   6.103 -0.1465 -0.2528  0.4258
25757SOL    HW179278   2.051   7.874   6.099 -0.1524 -0.0856  2.4861
25757SOL    HW279279   2.029   7.737   6.038  0.9619  0.7829  0.0315
25758SOL     OW79280  10.531   9.572   2.110 -0.8318  0.1668  0.3818
25758SOL    HW179281  10.450   9.621   2.123 -1.1515  0.2481 -1.5588
25758SOL    HW279282  10.513   9.515   2.035  1.7607  2.4350 -2.2461
25759SOL     OW79283   7.296   8.220   5.862 -0.2354  0.6796 -0.0268
25759SOL    HW179284   7.236   8.219   5.937  0.0522  0.8158  0.2072
25759SOL    HW279285   7.243   8.254   5.790 -0.4324  0.8346  0.1883
25760SOL     OW79286   6.675   4.840   5.754  0.5085  0.0013  0.7949
25760SOL    HW179287   6.637   4.765   5.801  2.5071 -0.5736  1.5809
25760SOL    HW279288   6.745   4.801   5.701  0.3012  1.0741 -0.3003
25761SOL     OW79289   3.407   0.124   8.778  0.3027 -0.0611 -0.1235
25761SOL    HW179290   3.422   0.099   8.869 -3.0686 -3.2236 -0.1936
25761SOL    HW279291   3.420   0.043   8.729  1.8193  1.5203 -2.5451
25762SOL     OW79292   8.984   7.316   0.552  0.3448 -0.0935 -0.2479
25762SOL    HW179293   9.078   7.329   0.569  0.2470  1.3256 -0.6596
25762SOL    HW279294   8.976   7.222   0.533  2.4234  0.3381 -4.5067
25763SOL     OW79295   2.946   1.798   8.089 -0.3185  0.0213  0.2427
25763SOL    HW179296   2.913   1.748   8.014  1.2306 -0.8093  0.0845
25763SOL    HW279297   2.994   1.871   8.050 -0.6019  0.3286  0.4572
25764SOL     OW79298   7.951   6.056   7.573  0.3294  0.1954 -0.6639
25764SOL    HW179299   7.859   6.030   7.565 -0.0828  0.9956  1.0570
25764SOL    HW279300   7.947   6.149   7.597  1.6141  0.4133 -1.2590
25765SOL     OW79301   0.694   7.119   5.308 -0.4929 -0.4046 -0.6705
25765SOL    HW179302   0.758   7.129   5.379 -0.5348 -0.5697 -0.6073
25765SOL    HW279303   0.746   7.112   5.229 -0.4954  1.5026 -0.8743
25766SOL     OW79304   3.987   3.087   2.135 -0.4648 -0.3144  0.0901
25766SOL    HW179305   4.081   3.071   2.145 -0.6959 -1.8701  0.0083
25766SOL    HW279306   3.971   3.168   2.185  0.8666 -0.1521  0.2876
25767SOL     OW79307   9.613   5.307   3.938  0.5293 -0.3570  0.3429
25767SOL    HW179308   9.577   5.387   3.978  0.0177 -0.6245  0.4222
25767SOL    HW279309   9.541   5.271   3.886  0.9597 -0.4209 -0.2159
25768SOL     OW79310   7.997   4.917   7.520 -0.0152  0.0856 -0.1264
25768SOL    HW179311   8.002   4.821   7.527 -0.8546  0.1090  1.2039
25768SOL    HW279312   7.913   4.939   7.560  0.6665  1.4645  0.6003
25769SOL     OW79313   0.980   3.177   2.535 -0.3343  0.7822  0.1404
25769SOL    HW179314   0.998   3.084   2.523  1.9735  1.1387  0.4019
25769SOL    HW279315   0.886   3.185   2.521 -0.9074 -1.8484  1.8831
25770SOL     OW79316   5.909   5.289   3.356  0.2064 -0.5954  0.0585
25770SOL    HW179317   5.818   5.262   3.359  0.2154 -0.5404  1.6348
25770SOL    HW279318   5.932   5.309   3.447  1.2198  1.3080 -0.5491
25771SOL     OW79319   0.298   9.330  10.141 -0.1408  0.5053  0.1447
25771SOL    HW179320   0.316   9.407  10.087 -0.3585 -0.3276 -1.1343
25771SOL    HW279321   0.344   9.348  10.224  3.8589 -0.0024 -1.7362
25772SOL     OW79322   0.293   1.081   7.759 -0.8080  0.6095 -0.4317
25772SOL    HW179323   0.362   1.074   7.693  0.8786 -1.4496  1.3839
25772SOL    HW279324   0.236   1.006   7.742 -0.0966 -0.2169  0.6378
25773SOL     OW79325   5.701  11.066   1.081  0.1555 -0.4100 -0.2715
25773SOL    HW179326   5.752  11.066   1.162 -1.2732  0.4484  0.6882
25773SOL    HW279327   5.694  11.159   1.056 -0.4639 -0.5502 -0.6655
25774SOL     OW79328   9.339   9.196   7.499  0.2406 -0.8452  0.5299
25774SOL    HW179329   9.410   9.147   7.539  0.3426  0.5323  2.1211
25774SOL    HW279330   9.341   9.169   7.407  1.6312 -2.1984  0.9135
25775SOL     OW79331  10.796  10.132   1.127 -0.0712 -0.0658  0.0383
25775SOL    HW179332  10.735  10.194   1.168 -0.1353 -0.5351  0.6640
25775SOL    HW279333  10.814  10.170   1.041 -0.5984  0.5020  0.1694
25776SOL     OW79334  10.437   9.654   4.578  1.2032  0.1895 -0.3337
25776SOL    HW179335  10.393   9.573   4.554  2.6691 -1.3206  1.7048
25776SOL    HW279336  10.366   9.717   4.590 -0.5392 -2.0376  2.4546
25777SOL     OW79337   9.304   0.383   0.291 -0.2189 -0.4915  0.0961
25777SOL    HW179338   9.215   0.360   0.316  0.4102 -1.6434  1.3851
25777SOL    HW279339   9.339   0.304   0.250  0.6288 -0.4753  0.7786
25778SOL     OW79340   2.543   4.227   1.346 -0.0987 -0.3147  0.0719
25778SOL    HW179341   2.572   4.136   1.353  1.5175  0.2362  0.9203
25778SOL    HW279342   2.472   4.224   1.282 -0.0441 -2.1597  0.0357
25779SOL     OW79343   8.061   9.535  10.123  0.1868  0.3044  0.1011
25779SOL    HW179344   8.005   9.461  10.146 -1.4310  1.2832 -0.5029
25779SOL    HW279345   8.012   9.582  10.056  1.5568  1.4595 -0.1404
25780SOL     OW79346   0.782   3.124   4.200  0.0523 -0.1056 -0.4047
25780SOL    HW179347   0.802   3.047   4.252 -0.5924  1.1380  1.8205
25780SOL    HW279348   0.718   3.094   4.136  1.4234 -1.8464 -1.0277
25781SOL     OW79349   1.107   7.980   4.840 -0.0175 -0.0554 -0.6505
25781SOL    HW179350   1.088   7.887   4.849 -2.0517  0.0782 -2.6599
25781SOL    HW279351   1.021   8.023   4.844  1.0103  2.0477  2.5305
25782SOL     OW79352   9.253   0.630   1.540 -0.1237 -0.8439  0.1811
25782SOL    HW179353   9.297   0.556   1.497 -1.7571 -1.0409 -1.2689
25782SOL    HW279354   9.280   0.707   1.489  0.0172 -0.7074  0.4596
25783SOL     OW79355   4.799   0.036   8.949 -0.3176 -0.1437  0.3213
25783SOL    HW179356   4.853   0.073   8.880 -1.9214  0.9981 -0.3995
25783SOL    HW279357   4.746  -0.030   8.905 -0.0962 -0.6762  0.8425
25784SOL     OW79358   5.258   5.544   0.103  0.1884  0.2176 -0.1435
25784SOL    HW179359   5.239   5.629   0.141 -1.9396  0.3961 -1.4281
25784SOL    HW279360   5.210   5.543   0.020  0.1839 -2.1989 -0.2011
25785SOL     OW79361   4.533  10.611   4.015 -0.0685 -0.6531  0.5139
25785SOL    HW179362   4.472  10.615   3.942  0.7523  0.7843 -0.1167
25785SOL    HW279363   4.502  10.536   4.067 -1.1134 -1.2305 -0.8706
25786SOL     OW79364   8.491   8.413   4.254  0.0181  0.5328  0.0232
25786SOL    HW179365   8.494   8.409   4.349 -0.5942 -0.1806  0.0194
25786SOL    HW279366   8.413   8.465   4.234 -0.1402  0.2558 -0.0885
25787SOL     OW79367   9.499   6.218   4.972  0.0508 -0.1284 -0.1402
25787SOL    HW179368   9.470   6.196   4.883 -0.3957 -0.6194  0.1248
25787SOL    HW279369   9.442   6.290   4.999 -0.6209 -0.7808  0.2016
25788SOL     OW79370   1.290   1.699   9.205 -0.0330  0.1165 -0.0662
25788SOL    HW179371   1.259   1.639   9.137 -1.4512  0.1868  0.4751
25788SOL    HW279372   1.333   1.770   9.157 -0.8878  0.0980 -0.9097
25789SOL     OW79373   0.569   8.949   0.932  0.1196  0.2232 -0.1513
25789SOL    HW179374   0.588   9.042   0.916  2.0269 -0.0664  0.2454
25789SOL    HW279375   0.645   8.916   0.979 -0.6142 -1.5145 -0.0990
25790SOL     OW79376   6.627   0.643   1.226  0.9382 -0.4916  0.2291
25790SOL    HW179377   6.549   0.590   1.209  1.1942 -1.1366  1.0008
25790SOL    HW279378   6.606   0.690   1.307  1.2042 -0.3763  0.2307
25791SOL     OW79379   8.454   1.070  10.798  0.5402 -0.0504 -0.0185
25791SOL    HW179380   8.428   1.037  10.884  0.2067  1.7518  0.6113
25791SOL    HW279381   8.528   1.015  10.773 -1.2186 -2.5760  0.0314
25792SOL     OW79382   0.740   3.602   3.538  0.5114 -0.2025 -0.3737
25792SOL    HW179383   0.662   3.656   3.537  1.0848  0.6599  0.0948
25792SOL    HW279384   0.766   3.598   3.630  0.4737 -1.2926 -0.4008
25793SOL     OW79385   6.230   2.802   3.228  0.0822 -0.2988  0.1935
25793SOL    HW179386   6.290   2.874   3.208  1.5330 -1.3649  0.5017
25793SOL    HW279387   6.143   2.838   3.212  0.7877  1.3408 -0.1925
25794SOL     OW79388   4.249   3.868   5.933  0.2683 -0.7498 -0.0019
25794SOL    HW179389   4.195   3.867   5.854 -0.5721 -1.0349  0.5645
25794SOL    HW279390   4.274   3.959   5.945  0.2774 -0.6849 -0.5176
25795SOL     OW79391   0.785   0.392   0.843 -0.1183 -1.0994  0.0062
25795SOL    HW179392   0.717   0.396   0.776  1.6800 -0.9506 -1.9038
25795SOL    HW279393   0.752   0.449   0.913 -2.1824 -1.4733 -0.6032
25796SOL     OW79394   5.263   9.493   8.711 -0.7159 -0.5568  0.1944
25796SOL    HW179395   5.275   9.581   8.746  0.2056 -0.1305 -1.1475
25796SOL    HW279396   5.349   9.451   8.718 -0.6035 -0.5996 -1.1292
25797SOL     OW79397   1.799   2.699   6.465 -0.2329  0.0147 -0.0513
25797SOL    HW179398   1.722   2.729   6.514 -0.7099 -1.1316 -0.0612
25797SOL    HW279399   1.776   2.716   6.373  0.0094  0.7181  0.0121
25798SOL     OW79400  11.252  10.800   5.250  0.0864 -0.0233  0.0706
25798SOL    HW179401  11.157  10.796   5.261 -0.0025 -4.4831 -0.3010
25798SOL    HW279402  11.282  10.854   5.322 -2.6347 -0.2803  1.5366
25799SOL     OW79403   8.840   6.888   8.059 -0.2487 -0.3403  0.2008
25799SOL    HW179404   8.773   6.944   8.096  0.5102 -0.4750  1.8989
25799SOL    HW279405   8.919   6.942   8.058 -0.0176 -0.6729 -0.3143
25800SOL     OW79406   4.695   2.243   0.564 -0.6072  0.1125  0.3525
25800SOL    HW179407   4.671   2.331   0.536 -1.3794 -0.2545 -0.1618
25800SOL    HW279408   4.645   2.228   0.644 -1.8834 -0.5221 -0.5330
25801SOL     OW79409   6.127   9.948   8.411 -0.0439 -0.2357  0.2017
25801SOL    HW179410   6.032   9.958   8.414  0.1761  2.3820  2.5508
25801SOL    HW279411   6.158  10.023   8.360  0.8021 -0.9606 -0.3886
25802SOL     OW79412   6.596  11.201   1.186  0.2505  0.0537 -0.0194
25802SOL    HW179413   6.551  11.208   1.270  1.0401  0.1359  0.4022
25802SOL    HW279414   6.579  11.111   1.158 -0.2070  0.0936  0.1147
25803SOL     OW79415   0.822   4.178   7.450  0.4132  0.3132 -0.5501
25803SOL    HW179416   0.877   4.109   7.412  0.4402 -0.1493  0.3109
25803SOL    HW279417   0.738   4.169   7.406 -0.2663 -1.6581  1.0144
25804SOL     OW79418   2.657   0.385   8.283  0.3008 -0.6285 -0.0317
25804SOL    HW179419   2.690   0.442   8.213 -2.0954 -0.8662 -1.4965
25804SOL    HW279420   2.592   0.330   8.239 -1.0610 -1.0404  2.3423
25805SOL     OW79421   1.326   5.922   4.599  0.2761 -0.4944  0.3688
25805SOL    HW179422   1.368   6.006   4.617 -0.5585 -0.4910  2.6256
25805SOL    HW279423   1.298   5.891   4.685 -0.1852 -2.6931 -0.5186
25806SOL     OW79424   7.462   6.411   9.937 -0.3244  0.0406  0.0785
25806SOL    HW179425   7.454   6.346   9.867 -0.5434  0.7088 -0.5191
25806SOL    HW279426   7.535   6.467   9.911 -0.7223  0.5966  0.1323
25807SOL     OW79427   9.424   0.835   4.606 -0.4102  0.3046 -0.4250
25807SOL    HW179428   9.411   0.823   4.700  2.0782 -0.9932 -0.1561
25807SOL    HW279429   9.465   0.922   4.598  1.1198 -0.3449 -0.0476
25808SOL     OW79430  10.829   0.374   9.003 -0.3825 -0.4510  0.1301
25808SOL    HW179431  10.913   0.367   9.049 -0.5210 -1.0002  0.3102
25808SOL    HW279432  10.763   0.379   9.073 -0.5544 -0.7766 -0.0056
25809SOL     OW79433   8.487   6.379   7.863  0.0388 -0.6881 -0.6678
25809SOL    HW179434   8.397   6.411   7.855  0.8620  1.5580 -1.9325
25809SOL    HW279435   8.478   6.284   7.858 -2.1605 -0.4973 -2.3323
25810SOL     OW79436   4.107   1.784   0.813  0.3744  0.1311  0.9008
25810SOL    HW179437   4.201   1.789   0.828  0.2483  0.1050  1.7126
25810SOL    HW279438   4.087   1.690   0.812  0.1679  0.1523  1.9829
25811SOL     OW79439   9.486  11.161   4.322  0.5192 -0.0468  0.2355
25811SOL    HW179440   9.535  11.190   4.244 -0.3303 -0.3510 -0.4260
25811SOL    HW279441   9.401  11.133   4.288 -0.2189  0.6997  1.3862
25812SOL     OW79442   0.587   4.437   0.460 -0.7464 -0.5727 -0.4395
25812SOL    HW179443   0.572   4.529   0.439 -0.7743 -0.5870 -0.4814
25812SOL    HW279444   0.533   4.420   0.537 -0.9137 -0.6141 -0.5671
25813SOL     OW79445   4.628   6.367   9.868  0.0254 -0.4341  0.8748
25813SOL    HW179446   4.612   6.273   9.857 -1.2741 -0.3410  1.7297
25813SOL    HW279447   4.570   6.392   9.940  0.4676  0.9953  0.7489
25814SOL     OW79448   7.321   4.124  10.514  0.0094 -0.0910  0.0168
25814SOL    HW179449   7.343   4.140  10.606  1.0256  1.2020 -0.4254
25814SOL    HW279450   7.403   4.094  10.475  0.2379  1.6372 -0.9456
25815SOL     OW79451  11.185   3.483  10.087 -0.2696 -0.2676 -0.6108
25815SOL    HW179452  11.249   3.444  10.148  0.2621 -0.5786 -1.3558
25815SOL    HW279453  11.225   3.565  10.060 -0.8401  0.2309  0.0061
25816SOL     OW79454   1.265   0.297   8.988 -0.1578 -0.3232  0.4797
25816SOL    HW179455   1.188   0.309   8.932  0.1413 -0.5064  0.0216
25816SOL    HW279456   1.338   0.332   8.937  0.1286 -0.5468  0.7298
25817SOL     OW79457   7.082   0.527  11.097 -0.6560  0.4099 -0.1958
25817SOL    HW179458   7.147   0.460  11.074 -2.4661 -1.4088 -0.2943
25817SOL    HW279459   7.098   0.544  11.190 -0.7942 -0.9417  0.1000
25818SOL     OW79460   6.420   5.827   1.513 -0.2189  0.1079  0.1611
25818SOL    HW179461   6.390   5.899   1.458 -0.5828  2.2338  2.9539
25818SOL    HW279462   6.514   5.842   1.522  0.2488 -1.5070 -1.5540
25819SOL     OW79463   8.930   0.966   9.303  0.1245 -0.3797  0.2401
25819SOL    HW179464   9.023   0.947   9.321 -0.3356 -3.3915 -0.0850
25819SOL    HW279465   8.884   0.934   9.381 -0.8348 -1.5267 -0.7665
25820SOL     OW79466   1.578   3.947   8.654 -0.3808  0.1429  0.1875
25820SOL    HW179467   1.672   3.935   8.641  0.1129  3.1764  0.1135
25820SOL    HW279468   1.556   3.892   8.729  0.9758 -2.1460 -0.9820
25821SOL     OW79469   4.035   8.052   7.050  0.9200 -0.2422 -0.8241
25821SOL    HW179470   4.090   8.017   7.120  0.2878  0.3477 -0.0092
25821SOL    HW279471   4.067   8.142   7.037  0.2264  0.0661 -0.4228
25822SOL     OW79472   7.742   1.881  10.296  0.0386  0.1115  0.2353
25822SOL    HW179473   7.760   1.922  10.380  1.0773  0.1423  0.0033
25822SOL    HW279474   7.659   1.834  10.310 -1.1646  2.2217  0.5094
25823SOL     OW79475   6.024   2.934   3.089  0.6419  0.6800  0.7307
25823SOL    HW179476   5.991   2.886   3.013  2.1578  1.2248 -0.3238
25823SOL    HW279477   6.065   3.012   3.051 -0.0082  1.8152  2.2517
25824SOL     OW79478   0.006   0.136   9.474 -0.0518  0.3868 -0.1652
25824SOL    HW179479   0.002   0.224   9.509 -2.8019 -0.4135  1.8277
25824SOL    HW279480   0.094   0.129   9.436  0.9606  3.2675  1.4009
25825SOL     OW79481   1.069   0.685   2.216  0.0100 -0.2079 -0.2612
25825SOL    HW179482   1.046   0.686   2.309  1.0065 -0.6261 -0.0043
25825SOL    HW279483   1.143   0.625   2.209  0.1554  0.0606 -1.2803
25826SOL     OW79484   0.044   5.199   5.203  0.4851 -0.1682 -0.1221
25826SOL    HW179485  -0.052   5.205   5.206  0.6145  3.0896  1.4003
25826SOL    HW279486   0.062   5.163   5.116 -2.1047  1.3327 -1.4244
25827SOL     OW79487   1.062   9.739   8.317 -0.3276 -0.0948  0.3101
25827SOL    HW179488   1.025   9.694   8.393 -1.4159  1.3012  0.6571
25827SOL    HW279489   1.110   9.813   8.354  0.8459 -0.5345 -0.2829
25828SOL     OW79490  11.058   3.050   2.653  0.2040 -0.4203 -0.8801
25828SOL    HW179491  11.021   3.128   2.613  2.5047  0.9445 -0.5411
25828SOL    HW279492  11.127   3.022   2.593  0.7384 -0.9896 -0.0289
25829SOL     OW79493   2.093  10.384   7.289  0.0712  0.5847 -0.4064
25829SOL    HW179494   2.113  10.380   7.382  0.1084  0.5311 -0.4165
25829SOL    HW279495   2.113  10.475   7.264 -0.2259  0.6803 -0.2983
25830SOL     OW79496   9.558  10.655  10.459  0.5583  0.3506  0.2948
25830SOL    HW179497   9.518  10.591  10.518 -0.1505  1.0933  0.6384
25830SOL    HW279498   9.562  10.736  10.510  1.1326  0.6753 -0.2478
25831SOL     OW79499  11.036   9.943   7.865  0.0444 -1.0027  0.3629
25831SOL    HW179500  11.008   9.897   7.944 -2.0674  0.5326  0.6078
25831SOL    HW279501  11.115   9.991   7.892 -0.9463 -0.0642  1.7645
25832SOL     OW79502   1.271   3.864   6.532 -0.3551 -0.3077  0.0326
25832SOL    HW179503   1.277   3.946   6.582  2.6791  0.1446 -0.8704
25832SOL    HW279504   1.268   3.796   6.598 -0.7169  0.4561  0.8199
25833SOL     OW79505   8.292   7.463   6.123 -0.4631  0.8567  0.0453
25833SOL    HW179506   8.245   7.439   6.043  1.3847 -0.7717 -0.6047
25833SOL    HW279507   8.235   7.433   6.194 -0.4697 -1.0740 -0.7188
25834SOL     OW79508   7.893   4.908   5.540  0.1630  0.1646  0.5325
25834SOL    HW179509   7.946   4.939   5.468  1.0313  1.9978  1.8865
25834SOL    HW279510   7.810   4.955   5.531 -0.1673 -0.4791  0.1038
25835SOL     OW79511   6.175   5.718  10.430  0.4901  0.1228 -0.1525
25835SOL    HW179512   6.132   5.633  10.421  1.4296 -0.4854  0.8290
25835SOL    HW279513   6.268   5.696  10.445  0.7442  1.3149  0.1072
25836SOL     OW79514   9.082   8.763   4.481  0.0043  0.3450  0.2300
25836SOL    HW179515   9.109   8.745   4.391 -1.0286 -0.6985  0.1026
25836SOL    HW279516   9.163   8.761   4.532  0.5317  0.4171 -0.5936
25837SOL     OW79517   1.816   4.829   6.117 -0.4879 -0.1568  0.4429
25837SOL    HW179518   1.782   4.840   6.029 -0.4289  1.7039  0.6098
25837SOL    HW279519   1.910   4.839   6.108 -0.0159 -3.6988  0.2214
25838SOL     OW79520   8.377   1.874   7.967  0.0297  0.0293  0.0520
25838SOL    HW179521   8.447   1.934   7.990  1.5152 -1.9568  0.9951
25838SOL    HW279522   8.325   1.865   8.047 -1.0140  1.0633 -0.4823
25839SOL     OW79523   6.450   4.224   4.961  0.7011  0.3340 -0.3293
25839SOL    HW179524   6.478   4.146   5.007 -3.4324 -2.9153 -2.6259
25839SOL    HW279525   6.395   4.271   5.023  0.5340 -0.3585  0.0438
25840SOL     OW79526   3.453   5.969   9.950 -0.1394 -0.5187  0.0261
25840SOL    HW179527   3.543   5.946   9.971  0.0930  0.3212 -0.0124
25840SOL    HW279528   3.457   6.003   9.860 -0.2991  0.5346  0.4007
25841SOL     OW79529   1.300   9.227   1.878  0.4460  0.6673 -0.9688
25841SOL    HW179530   1.322   9.199   1.967  1.6297  1.4680 -0.9853
25841SOL    HW279531   1.373   9.196   1.825 -0.5210 -0.2937 -1.7759
25842SOL     OW79532   5.922   4.573   4.983  0.4709 -0.0196 -0.0729
25842SOL    HW179533   5.964   4.659   4.991  1.4885 -0.6832  2.7102
25842SOL    HW279534   5.836   4.585   5.022  0.0225  0.0514 -1.0440
25843SOL     OW79535   6.960   6.300   2.706  0.1073  0.7967  0.3171
25843SOL    HW179536   6.952   6.295   2.611 -0.2717  0.1649  0.3804
25843SOL    HW279537   7.036   6.246   2.727 -0.8498 -0.5119  0.5211
25844SOL     OW79538  10.036   8.716   9.968 -0.2485 -1.0311 -0.0780
25844SOL    HW179539  10.048   8.744   9.877  2.6337 -1.1449  0.1763
25844SOL    HW279540   9.943   8.732   9.986 -0.6132  0.2116 -2.6120
25845SOL     OW79541   1.764   6.667   9.441 -0.0169 -0.1416  0.1972
25845SOL    HW179542   1.832   6.631   9.498 -0.6410 -1.9655 -0.1543
25845SOL    HW279543   1.690   6.607   9.451 -1.0085  0.9021 -0.6586
25846SOL     OW79544   9.353   5.132   4.435  0.2732  0.8548 -0.0472
25846SOL    HW179545   9.394   5.053   4.402  0.8503  0.2871  1.8933
25846SOL    HW279546   9.293   5.159   4.365  0.0559 -1.2797 -0.7495
25847SOL     OW79547   4.242   5.141   7.436  0.0955 -0.1334 -0.0822
25847SOL    HW179548   4.284   5.088   7.503 -0.7744 -1.6850 -0.7264
25847SOL    HW279549   4.229   5.226   7.478  3.4596  0.3273  0.2829
25848SOL     OW79550   7.062   5.532   3.696  0.5595 -0.1063 -0.5098
25848SOL    HW179551   7.047   5.486   3.614  1.5682  1.6842 -1.7842
25848SOL    HW279552   6.976   5.535   3.738 -0.2046 -0.2214 -1.9901
25849SOL     OW79553  10.283   8.904   2.117  0.5458 -0.5594  0.2014
25849SOL    HW179554  10.269   8.929   2.208 -2.1498  0.4441 -0.3908
25849SOL    HW279555  10.358   8.956   2.089  0.2233  0.5599  1.3225
25850SOL     OW79556   3.027   2.300   8.616  0.3566 -0.3285 -0.8508
25850SOL    HW179557   2.975   2.220   8.614 -0.2464  0.0452 -2.9443
25850SOL    HW279558   2.975   2.363   8.565  1.4660  0.9632 -0.4463
25851SOL     OW79559   6.443   8.194   2.738 -0.1662 -0.0410 -0.3214
25851SOL    HW179560   6.438   8.099   2.741  0.7819 -0.1240  3.3391
25851SOL    HW279561   6.360   8.224   2.774  0.0839  0.4534 -0.1357
25852SOL     OW79562   7.825  11.263   4.345  0.5452 -0.0856 -0.3490
25852SOL    HW179563   7.829  11.214   4.427  1.0975 -0.0690 -0.3619
25852SOL    HW279564   7.838  11.354   4.370  0.2238 -0.0243 -0.4030
25853SOL     OW79565   3.199   7.342   9.859  0.2719  0.1226 -0.2464
25853SOL    HW179566   3.144   7.264   9.866  0.0512  0.2702 -0.3218
25853SOL    HW279567   3.138   7.413   9.840  0.4609  0.3302 -0.0851
25854SOL     OW79568   9.291  10.836   2.463  0.3108 -0.3309  0.3697
25854SOL    HW179569   9.337  10.760   2.426  0.0167 -2.1715  3.4557
25854SOL    HW279570   9.335  10.852   2.546  0.2826  2.9419 -0.1190
25855SOL     OW79571   4.042   9.355   6.330 -0.3266  0.2606  0.1976
25855SOL    HW179572   4.137   9.352   6.335 -0.3318 -0.5618 -0.0227
25855SOL    HW279573   4.013   9.284   6.388 -0.7566 -0.5008 -0.9090
25856SOL     OW79574  10.635   7.259   4.766 -0.5962 -0.2315  0.5752
25856SOL    HW179575  10.712   7.294   4.720 -0.1016  1.5739  2.5843
25856SOL    HW279576  10.608   7.330   4.824 -3.7945 -0.8268  0.0189
25857SOL     OW79577  10.177   6.226   0.747  0.0000  0.5138 -0.2778
25857SOL    HW179578  10.257   6.266   0.715  0.6616 -0.1202  0.5417
25857SOL    HW279579  10.182   6.135   0.719  0.0100  0.2480  0.5634
25858SOL     OW79580   9.376   7.043   8.993  0.1992  0.1921 -0.4489
25858SOL    HW179581   9.392   6.959   8.949  1.2639  0.2589 -0.2152
25858SOL    HW279582   9.280   7.048   9.001  0.0572 -0.3992 -1.6096
25859SOL     OW79583   1.631   0.826   6.684 -0.2801 -0.0302 -0.4121
25859SOL    HW179584   1.633   0.759   6.616  0.5477 -1.1983  0.7114
25859SOL    HW279585   1.539   0.852   6.689 -0.2995  0.3565 -2.2013
25860SOL     OW79586   7.983   0.956   8.943  0.5950  0.1879 -0.1870
25860SOL    HW179587   7.945   0.883   8.992  0.2620 -0.1623 -0.9551
25860SOL    HW279588   7.964   0.937   8.852  3.2413 -0.3870 -0.7103
25861SOL     OW79589  10.050   1.370   4.706 -0.6882 -0.3852 -0.9731
25861SOL    HW179590  10.045   1.459   4.671 -0.8167 -0.1859 -0.4629
25861SOL    HW279591  10.116   1.326   4.653 -0.6474  0.0039 -1.2470
25862SOL     OW79592   3.985   6.062   5.220  0.6643 -0.2536 -0.2399
25862SOL    HW179593   4.012   6.008   5.294  1.0647 -1.2775 -1.0946
25862SOL    HW279594   4.066   6.079   5.172  0.3600  0.0742 -0.6469
25863SOL     OW79595  11.000   6.503   5.145 -0.3525 -0.2087 -0.0727
25863SOL    HW179596  11.051   6.523   5.067  0.9355  0.5488  0.9317
25863SOL    HW279597  10.995   6.408   5.147  1.0026 -0.2915 -0.2024
25864SOL     OW79598   7.035   2.225   0.185 -0.0733 -0.1396 -0.0263
25864SOL    HW179599   7.060   2.317   0.198  0.8953 -0.4649  0.5107
25864SOL    HW279600   7.040   2.212   0.090  2.2764 -0.2798  0.0669
25865SOL     OW79601   1.045   7.816  10.943 -0.1869 -0.3092  0.1817
25865SOL    HW179602   0.993   7.736  10.936 -1.0162  0.2405 -0.1096
25865SOL    HW279603   1.115   7.805  10.878  1.0154 -1.7145  1.6202
25866SOL     OW79604   5.103   5.050   7.705 -0.0749 -0.5693  0.1394
25866SOL    HW179605   5.175   5.004   7.748  0.4513 -0.4234 -0.5692
25866SOL    HW279606   5.070   5.109   7.772  0.6351 -0.4531  0.4035
25867SOL     OW79607   3.395   5.034   9.187  0.0735  0.2898  0.0256
25867SOL    HW179608   3.374   4.957   9.134  1.2536 -0.2853  0.3647
25867SOL    HW279609   3.484   5.057   9.161  1.5382 -1.2237  3.0789
25868SOL     OW79610  10.329   5.568   8.898 -0.7531  0.4778 -0.7603
25868SOL    HW179611  10.319   5.542   8.989  0.1199  2.2238 -0.1204
25868SOL    HW279612  10.422   5.553   8.879 -0.5602  1.6540 -0.8232
25869SOL     OW79613   6.441   8.815  10.377 -0.3982 -0.0247  0.1277
25869SOL    HW179614   6.386   8.850  10.307 -0.6425  2.0325  1.2588
25869SOL    HW279615   6.403   8.850  10.457  1.3884 -0.1648  1.1014
25870SOL     OW79616   5.299   7.325   2.987 -0.2599 -0.0697  0.1548
25870SOL    HW179617   5.344   7.407   3.010 -0.1519 -0.1176  0.1167
25870SOL    HW279618   5.217   7.353   2.947 -0.0273  0.0247 -0.2540
25871SOL     OW79619   6.527   0.609   2.990 -0.1925  0.3292 -0.1797
25871SOL    HW179620   6.461   0.660   2.944 -0.1254  0.7006  0.1245
25871SOL    HW279621   6.591   0.674   3.019 -0.4860  0.1755  0.8579
25872SOL     OW79622   2.213  11.224   0.877 -0.0170  0.0300  0.5133
25872SOL    HW179623   2.151  11.224   0.804  1.1811  3.1240 -0.6882
25872SOL    HW279624   2.192  11.303   0.927  1.9404  0.3508  0.9266
25873SOL     OW79625   0.543   4.033   7.337  0.0785 -0.4161  0.1990
25873SOL    HW179626   0.538   3.941   7.361  2.5666 -0.3102  1.3984
25873SOL    HW279627   0.556   4.079   7.420 -0.1898  0.9236 -0.4686
25874SOL     OW79628   1.757   0.260   1.142 -0.9814  0.1497  0.0557
25874SOL    HW179629   1.782   0.348   1.171  1.8548 -0.2303 -0.8585
25874SOL    HW279630   1.664   0.267   1.121 -0.9802  2.7746  0.5171
25875SOL     OW79631   9.366   6.212   1.752 -0.4021 -0.1785 -0.3262
25875SOL    HW179632   9.331   6.258   1.828 -1.5420 -1.1977 -0.2009
25875SOL    HW279633   9.292   6.161   1.719 -0.3298  1.1541 -2.8635
25876SOL     OW79634   5.651   8.220   8.945  0.4576 -0.5076  0.8087
25876SOL    HW179635   5.624   8.161   9.015  0.3629  1.0697  2.1567
25876SOL    HW279636   5.571   8.232   8.893  0.2707 -0.9152  0.9889
25877SOL     OW79637   5.189   6.201   0.509  0.5906  0.3754 -0.3679
25877SOL    HW179638   5.129   6.276   0.517 -1.6572 -1.4591  1.6623
25877SOL    HW279639   5.266   6.226   0.560 -1.2515  0.4185  2.6216
25878SOL     OW79640   7.880   7.344   8.990 -0.3124  0.1711 -0.3719
25878SOL    HW179641   7.798   7.355   8.943  0.1473 -0.0389 -1.2542
25878SOL    HW279642   7.856   7.344   9.082 -1.2419  0.5639 -0.6077
25879SOL     OW79643   5.727   3.886   2.994  0.4788 -0.2524  0.3779
25879SOL    HW179644   5.723   3.961   3.054  0.8876 -1.1493  1.5762
25879SOL    HW279645   5.729   3.925   2.907  0.3393  1.1176  0.9563
25880SOL     OW79646   3.203   0.804   1.108 -0.0360  1.0720 -0.4178
25880SOL    HW179647   3.145   0.745   1.061 -0.4200  2.1235 -1.3042
25880SOL    HW279648   3.289   0.791   1.067  0.3456 -0.3423  0.7649
25881SOL     OW79649   3.715   7.470   2.605  0.5820  0.2275  0.1657
25881SOL    HW179650   3.771   7.476   2.683  1.2235  0.2724 -0.2883
25881SOL    HW279651   3.642   7.529   2.623 -0.5028 -1.4953  1.7064
25882SOL     OW79652  11.263   3.301   2.036  0.0819 -0.1639  1.0102
25882SOL    HW179653  11.237   3.210   2.047  1.1604 -0.6320 -0.1446
25882SOL    HW279654  11.347   3.308   2.081  0.3358  0.0949  0.4937
25883SOL     OW79655   0.489   6.737   0.652  0.3459  0.1507 -0.3919
25883SOL    HW179656   0.446   6.731   0.737  1.4983 -0.4717  0.1800
25883SOL    HW279657   0.434   6.796   0.601 -0.4854  0.3682  0.7148
25884SOL     OW79658   9.171   5.964   3.500  0.0447 -0.0144  0.3991
25884SOL    HW179659   9.125   5.889   3.461  0.8546 -0.4074  0.1836
25884SOL    HW279660   9.124   5.979   3.583 -0.8139 -0.0509 -0.0616
25885SOL     OW79661   9.118   0.493   4.686  0.0593 -0.4792  0.1795
25885SOL    HW179662   9.205   0.471   4.651 -0.0445 -1.8156  0.6937
25885SOL    HW279663   9.059   0.429   4.647 -0.7000  0.3684 -0.0964
25886SOL     OW79664   0.155   0.566  11.261 -0.0947 -0.1514 -0.3476
25886SOL    HW179665   0.177   0.499  11.326  1.1582  0.4858 -0.0663
25886SOL    HW279666   0.199   0.537  11.181 -0.8481 -0.4479 -0.6648
25887SOL     OW79667  10.805   3.449   7.156 -0.3993 -0.5888 -0.4698
25887SOL    HW179668  10.720   3.470   7.118  0.7893  0.3184 -2.8603
25887SOL    HW279669  10.829   3.527   7.207 -0.6571 -0.5409 -0.4199
25888SOL     OW79670   6.708   4.653   9.769 -0.1926 -0.5157 -1.0636
25888SOL    HW179671   6.739   4.741   9.750  0.2751 -0.3077  0.5148
25888SOL    HW279672   6.653   4.630   9.694 -0.0059  0.9500 -1.6833
25889SOL     OW79673   2.075  10.151   7.504  0.0693  0.0160 -1.2977
25889SOL    HW179674   2.065  10.120   7.414 -0.4073 -1.1453 -0.8655
25889SOL    HW279675   2.079  10.071   7.557  0.0357  0.6803 -0.2518
25890SOL     OW79676   4.136   6.673   0.589 -0.9305  0.6841  0.5582
25890SOL    HW179677   4.107   6.694   0.500 -0.7133 -0.0021  0.3242
25890SOL    HW279678   4.158   6.580   0.586  0.0494  0.8894  1.0693
25891SOL     OW79679   2.305   2.505   3.090 -0.1946 -0.4772  0.0635
25891SOL    HW179680   2.267   2.488   3.177 -0.9128  0.8845  0.0437
25891SOL    HW279681   2.375   2.568   3.107  1.0917 -1.8100 -0.1058
25892SOL     OW79682   3.467   9.590  10.609  0.0063  0.1673 -0.3507
25892SOL    HW179683   3.544   9.537  10.627 -0.4655 -0.0823  1.0732
25892SOL    HW279684   3.499   9.680  10.611  0.1767  0.1026  0.8844
25893SOL     OW79685   9.197   0.256   2.029  0.0512  0.0762  0.2146
25893SOL    HW179686   9.273   0.201   2.011 -0.0668  0.2000 -0.7244
25893SOL    HW279687   9.179   0.243   2.122  0.7688 -0.5216  0.2780
25894SOL     OW79688   2.378   6.254   4.786  0.0134 -0.4656  0.0325
25894SOL    HW179689   2.294   6.290   4.760  1.8643  3.1230 -1.7059
25894SOL    HW279690   2.420   6.228   4.704  0.9332 -1.4283  0.7766
25895SOL     OW79691   8.954   6.611   1.843  0.3249 -0.1055 -0.1215
25895SOL    HW179692   8.942   6.519   1.869 -0.8985  0.0485 -0.0807
25895SOL    HW279693   9.047   6.617   1.820  0.2586 -1.5703 -0.9420
25896SOL     OW79694   0.337   3.611  10.933  0.2846  0.1126  0.4655
25896SOL    HW179695   0.243   3.606  10.917  0.3940  0.1616 -0.2048
25896SOL    HW279696   0.344   3.630  11.027 -0.3442 -1.5635  0.8949
25897SOL     OW79697   1.354   6.830   2.936 -0.2529 -0.0052  0.0169
25897SOL    HW179698   1.425   6.885   2.902 -1.3763  1.9853  0.7541
25897SOL    HW279699   1.385   6.740   2.922  2.0238  0.7870 -0.4629
25898SOL     OW79700  10.008  11.093   9.036 -0.6311 -0.5860  0.7156
25898SOL    HW179701  10.033  11.020   8.980 -0.9931  0.5935 -1.0497
25898SOL    HW279702   9.915  11.080   9.051 -0.3702 -1.3746  1.8310
25899SOL     OW79703   5.768  10.295   6.515  0.1475  0.0198 -0.2336
25899SOL    HW179704   5.797  10.386   6.502  1.7486 -0.6906 -2.0815
25899SOL    HW279705   5.805  10.271   6.600  1.1864  0.5834 -0.5079
25900SOL     OW79706  10.247   8.317   3.991  0.2105  0.2580  0.4800
25900SOL    HW179707  10.339   8.322   4.018  0.9431 -3.1283 -0.8656
25900SOL    HW279708  10.211   8.243   4.040 -1.2241  0.3063 -0.4316
25901SOL     OW79709  10.367   9.001   0.242  0.0126 -0.2299  0.0315
25901SOL    HW179710  10.423   8.928   0.214  1.0169  0.8759 -0.9956
25901SOL    HW279711  10.427   9.059   0.289 -0.5192  0.4431 -0.1140
25902SOL     OW79712   6.528   1.091   0.783  0.2720 -0.5936 -0.4406
25902SOL    HW179713   6.590   1.149   0.740  0.8705 -1.4492 -0.7592
25902SOL    HW279714   6.490   1.039   0.712 -1.5164  0.5171 -0.3816
25903SOL     OW79715   4.405  10.486   8.768 -0.1230 -0.2337 -0.1498
25903SOL    HW179716   4.417  10.456   8.858 -3.0787 -2.9554 -0.5001
25903SOL    HW279717   4.410  10.581   8.774  2.8416 -0.3645  2.2779
25904SOL     OW79718   2.341   9.276   9.294  0.3517 -0.8279 -0.1083
25904SOL    HW179719   2.370   9.316   9.212 -0.8419  0.0696 -0.1054
25904SOL    HW279720   2.251   9.306   9.305  0.4090 -1.1595  1.4015
25905SOL     OW79721   2.222   6.286   3.065 -0.4314  0.5428 -0.6946
25905SOL    HW179722   2.184   6.338   3.136  1.9901  1.7752 -0.1932
25905SOL    HW279723   2.286   6.230   3.108  0.4788  0.7133 -1.7833
25906SOL     OW79724   6.223   7.065   9.637 -0.4691  0.9141 -0.1498
25906SOL    HW179725   6.306   7.039   9.597 -1.3610  1.1648 -2.3375
25906SOL    HW279726   6.223   7.023   9.723  2.0535  1.2116  0.0710
25907SOL     OW79727  10.497   1.717  10.121 -0.6796  0.5922 -0.5191
25907SOL    HW179728  10.459   1.646  10.069  0.4319 -0.2460 -0.2172
25907SOL    HW279729  10.576   1.679  10.159  0.3731  2.2330 -0.9795
25908SOL     OW79730   1.796   7.282   7.475  0.3218 -0.0610  0.1304
25908SOL    HW179731   1.822   7.204   7.425 -0.5914 -0.5265  0.3655
25908SOL    HW279732   1.716   7.257   7.519 -0.2113  1.1455 -0.1030
25909SOL     OW79733  10.836   2.930   9.689 -0.0281  0.0513  0.1274
25909SOL    HW179734  10.762   2.960   9.742 -0.7033 -0.7785 -0.3118
25909SOL    HW279735  10.835   2.834   9.700  0.8894  0.0186 -0.0109
25910SOL     OW79736   6.808   6.333   6.173  0.0113 -0.1187 -0.0864
25910SOL    HW179737   6.760   6.407   6.136 -2.8234 -1.3876  0.7550
25910SOL    HW279738   6.833   6.281   6.098 -2.1676 -0.6340 -0.5359
25911SOL     OW79739   5.834   3.631   4.560 -0.8141  0.1266 -0.1297
25911SOL    HW179740   5.851   3.712   4.607 -2.9251  0.6459 -0.1459
25911SOL    HW279741   5.894   3.632   4.486  1.4369  0.0760  1.5811
25912SOL     OW79742   1.588   8.125   9.801 -0.1386 -0.2991  0.1096
25912SOL    HW179743   1.595   8.108   9.707 -0.3985 -1.0968  0.2241
25912SOL    HW279744   1.534   8.204   9.807  0.9504  0.5158 -0.4466
25913SOL     OW79745   1.458   0.201   3.441 -0.2353  0.1804  0.1632
25913SOL    HW179746   1.409   0.130   3.400  0.0334 -0.2659  0.5929
25913SOL    HW279747   1.475   0.169   3.530  0.2174  0.6227  0.2381
25914SOL     OW79748   5.445   9.113   9.326  0.1619  0.0346  0.7170
25914SOL    HW179749   5.492   9.177   9.380 -1.3059  2.8649 -1.1379
25914SOL    HW279750   5.355   9.145   9.323 -0.2835 -1.2435 -1.5824
25915SOL     OW79751   9.354   2.571   5.220 -0.3455 -0.1740  0.2372
25915SOL    HW179752   9.286   2.505   5.215 -1.0228  0.5151  0.2322
25915SOL    HW279753   9.422   2.531   5.275 -0.7434 -0.8650  0.2337
25916SOL     OW79754   6.460   6.456  10.961  0.6776  0.8139  0.5039
25916SOL    HW179755   6.490   6.416  11.043 -0.5441  0.3867  0.7633
25916SOL    HW279756   6.484   6.392  10.893 -0.1685  0.1816  0.7807
25917SOL     OW79757   1.310   1.575   1.119 -0.9699 -0.5202 -0.0536
25917SOL    HW179758   1.247   1.565   1.191 -1.8071  1.8357 -0.3638
25917SOL    HW279759   1.395   1.553   1.158 -1.3705  0.8295  1.7437
25918SOL     OW79760   8.384  10.771  10.434  0.4917 -0.1274 -0.1140
25918SOL    HW179761   8.331  10.719  10.494 -2.1692  0.9130 -1.3553
25918SOL    HW279762   8.462  10.718  10.418  0.2777 -1.3829  2.5077
25919SOL     OW79763   3.017   9.869   2.777  0.1022  0.7066 -0.1298
25919SOL    HW179764   3.054   9.956   2.763 -1.7405  1.4409 -0.7821
25919SOL    HW279765   2.997   9.837   2.688  0.2040 -0.1251  0.1398
25920SOL     OW79766   8.309   9.930   0.917  0.2182  0.3760  0.2411
25920SOL    HW179767   8.264   9.974   0.844  1.8950  0.2627 -0.9095
25920SOL    HW279768   8.238   9.892   0.969 -1.0244 -1.9853 -2.8520
25921SOL     OW79769   9.349   6.580   3.962  0.4445 -0.2570 -0.1052
25921SOL    HW179770   9.265   6.550   3.928  0.4228  0.3409 -0.6031
25921SOL    HW279771   9.329   6.615   4.049  0.2641 -0.5788 -0.0192
25922SOL     OW79772   8.384   8.025   8.653 -0.1254 -0.3238 -0.7059
25922SOL    HW179773   8.360   8.116   8.668 -0.1196  0.1112 -2.9444
25922SOL    HW279774   8.372   7.982   8.737  2.2377  2.2181  1.0992
25923SOL     OW79775   5.249   1.597   1.137  0.4741  0.0658  0.5906
25923SOL    HW179776   5.228   1.602   1.231  1.4989  1.1585  0.7817
25923SOL    HW279777   5.188   1.659   1.096 -0.7047 -1.1931  0.3730
25924SOL     OW79778   8.080   9.894  11.125  0.3227  0.0019 -0.2710
25924SOL    HW179779   8.119   9.971  11.084  2.1329 -0.0551  1.1820
25924SOL    HW279780   7.991   9.891  11.092 -0.7232  4.2344  1.5389
25925SOL     OW79781   6.758   9.112   8.535  0.4712 -0.1354 -0.5111
25925SOL    HW179782   6.803   9.095   8.452 -0.6471 -1.8079 -0.8246
25925SOL    HW279783   6.747   9.025   8.574 -2.6079  0.1385 -0.5294
25926SOL     OW79784  10.421   3.646   4.773  0.1041  0.2732  0.8265
25926SOL    HW179785  10.484   3.717   4.787  1.0682 -0.4380  0.2179
25926SOL    HW279786  10.348   3.667   4.832 -0.4162  2.6442 -0.5358
25927SOL     OW79787   7.796   2.387   5.869 -0.8043 -0.9563 -0.3859
25927SOL    HW179788   7.836   2.473   5.881 -2.1288 -0.2437 -0.8001
25927SOL    HW279789   7.813   2.365   5.777 -0.3755 -1.1890 -0.2521
25928SOL     OW79790   7.374   2.255   3.326 -0.0826  0.5438 -0.0784
25928SOL    HW179791   7.467   2.256   3.302  0.4025  0.0905  1.6242
25928SOL    HW279792   7.339   2.335   3.287  0.0220 -1.1306 -4.1511
25929SOL     OW79793   9.889   7.244   3.224 -0.1082  0.0706 -0.3353
25929SOL    HW179794   9.963   7.184   3.215 -0.0711  0.1419 -0.4923
25929SOL    HW279795   9.847   7.217   3.307  0.1456  0.0921 -0.2000
25930SOL     OW79796   7.442   9.885   8.585  0.3445  0.4194  0.4823
25930SOL    HW179797   7.373   9.944   8.615  0.4267 -0.0887  1.7250
25930SOL    HW279798   7.438   9.810   8.645 -0.4587 -1.3779 -1.7030
25931SOL     OW79799   9.904   9.854   1.418  0.2250 -0.2193  0.4860
25931SOL    HW179800   9.946   9.855   1.332  2.0464  2.1412  1.3113
25931SOL    HW279801   9.976   9.850   1.481 -0.9759  0.0071  1.9422
25932SOL     OW79802   5.758   0.439   0.940  0.3419  0.2660  0.0292
25932SOL    HW179803   5.716   0.388   0.870 -0.8221  0.8787  0.2427
25932SOL    HW279804   5.850   0.443   0.915  0.2571 -0.9856 -0.5601
25933SOL     OW79805   3.092   0.300   6.885 -0.2625 -0.7486 -0.1482
25933SOL    HW179806   3.082   0.391   6.854  2.9492 -0.0075  0.6421
25933SOL    HW279807   3.071   0.304   6.978  1.3980 -0.4133  0.2417
25934SOL     OW79808   1.096   2.134   2.585  0.3232  0.6738  0.4017
25934SOL    HW179809   1.017   2.168   2.626  1.6292  1.7221  2.1967
25934SOL    HW279810   1.159   2.206   2.590  1.0613  0.3328 -2.1594
25935SOL     OW79811   6.823   2.205   9.434 -0.1553 -0.3857  0.4264
25935SOL    HW179812   6.890   2.175   9.494  0.0896 -0.9031 -0.0913
25935SOL    HW279813   6.791   2.125   9.391 -1.4185 -0.2067  0.9856
25936SOL     OW79814   0.792   3.478   7.804  0.9496  0.1884  0.3175
25936SOL    HW179815   0.883   3.462   7.828  0.3664 -1.2898  1.7197
25936SOL    HW279816   0.777   3.419   7.730  0.1386 -2.6254  2.5166
25937SOL     OW79817   2.758   0.265   4.631  0.4485  0.8286  0.4498
25937SOL    HW179818   2.794   0.352   4.616 -0.1266  1.0308  0.2029
25937SOL    HW279819   2.827   0.205   4.603  0.4481  1.2099 -0.4073
25938SOL     OW79820   0.658   4.561  10.947 -0.4213  0.5413 -0.3987
25938SOL    HW179821   0.617   4.475  10.945 -0.1068  0.3899 -0.3318
25938SOL    HW279822   0.745   4.547  10.909 -0.6920  1.0025 -1.2168
25939SOL     OW79823   0.474   6.173   2.222 -0.1347  0.0354  1.0874
25939SOL    HW179824   0.480   6.127   2.138 -0.9774  0.1967  0.9260
25939SOL    HW279825   0.464   6.103   2.286  0.9216 -0.1084  1.1058
25940SOL     OW79826   6.158   3.390   0.716  0.8869  0.6229 -0.0503
25940SOL    HW179827   6.197   3.469   0.678 -0.7448  1.0601 -0.9193
25940SOL    HW279828   6.064   3.400   0.700  0.6962 -1.9149 -1.0124
25941SOL     OW79829   4.932   7.679   7.860  0.3488 -0.3528 -0.4554
25941SOL    HW179830   4.909   7.591   7.833 -0.9476  0.2836 -1.5099
25941SOL    HW279831   4.849   7.720   7.885  0.7313  0.9780 -1.2534
25942SOL     OW79832   2.151   2.413   3.876 -0.0312 -0.1852 -0.2453
25942SOL    HW179833   2.197   2.389   3.956  1.7092  0.4756 -1.0116
25942SOL    HW279834   2.218   2.415   3.809 -1.1528  0.9498 -1.3919
25943SOL     OW79835   7.731   5.433   4.936 -0.3866 -0.4288  0.1710
25943SOL    HW179836   7.671   5.506   4.923 -0.9439 -0.7130  1.0329
25943SOL    HW279837   7.794   5.440   4.864 -0.2560  1.0642  0.4055
25944SOL     OW79838  10.250  10.698  11.072  0.9188  0.3262 -0.8172
25944SOL    HW179839  10.179  10.701  11.136  1.2807 -2.1727 -0.1790
25944SOL    HW279840  10.312  10.766  11.101  0.8667 -0.4405  1.2732
25945SOL     OW79841  10.188   1.394   9.633 -0.2115  0.0058 -0.8328
25945SOL    HW179842  10.121   1.376   9.566 -0.3135 -1.3711 -0.3990
25945SOL    HW279843  10.246   1.458   9.592 -0.5869 -0.3834 -2.0378
25946SOL     OW79844   7.865   0.145   1.471 -0.1382 -0.2783 -0.2402
25946SOL    HW179845   7.929   0.100   1.415  1.6905  1.4032  0.4020
25946SOL    HW279846   7.841   0.224   1.422  0.2291  0.3752  0.6119
25947SOL     OW79847   2.849   5.926   2.429  0.0764 -0.6675 -0.2424
25947SOL    HW179848   2.789   5.996   2.402  1.1348  0.0504 -0.8415
25947SOL    HW279849   2.809   5.889   2.507 -1.1793 -0.2660 -0.6687
25948SOL     OW79850  10.043  11.177   1.570 -0.5334  0.4229  0.6114
25948SOL    HW179851  10.085  11.245   1.518 -0.5308 -2.1453 -3.1101
25948SOL    HW279852   9.961  11.217   1.600 -0.0145  2.3891 -0.4412
25949SOL     OW79853   7.750   2.276   6.977  0.4658 -0.3457  0.3833
25949SOL    HW179854   7.775   2.205   7.035 -1.5692  0.5827  2.5624
25949SOL    HW279855   7.654   2.274   6.975  0.3679  1.7449 -0.2072
25950SOL     OW79856   4.440   4.470   4.627 -0.0467  0.3269 -0.0607
25950SOL    HW179857   4.429   4.425   4.543 -0.2664 -0.6540  0.4779
25950SOL    HW279858   4.359   4.521   4.637  0.2556  0.9424 -0.7339
25951SOL     OW79859   5.775   4.710   2.715 -0.2834  0.1187 -0.5505
25951SOL    HW179860   5.762   4.803   2.731  0.5712  0.3716 -1.2794
25951SOL    HW279861   5.848   4.686   2.772  2.1051  0.7988 -3.1119
25952SOL     OW79862   8.943   3.120   2.588  0.4468 -0.0969 -0.6353
25952SOL    HW179863   9.038   3.121   2.596  0.3963 -0.1317  0.0367
25952SOL    HW279864   8.917   3.212   2.593  0.4266 -0.1079 -0.5235
25953SOL     OW79865   9.645   8.493   3.766 -0.3836 -0.1472 -0.1054
25953SOL    HW179866   9.678   8.539   3.843  2.3312  0.5311 -1.5510
25953SOL    HW279867   9.710   8.509   3.698 -3.6498  1.0975 -3.2825
25954SOL     OW79868   8.325  10.093   7.996  0.6978 -0.3976 -0.1839
25954SOL    HW179869   8.401  10.046   7.962  1.5032  1.2183 -0.7426
25954SOL    HW279870   8.303  10.155   7.926  0.2714  0.6899  0.8860
25955SOL     OW79871   2.633   1.191   1.541  0.5711  0.5196 -0.0567
25955SOL    HW179872   2.709   1.185   1.599  1.4489 -1.2986 -1.3073
25955SOL    HW279873   2.653   1.263   1.482  1.8978 -0.6018 -1.0604
25956SOL     OW79874   8.853   7.742   0.357  0.1487  0.2900 -0.0922
25956SOL    HW179875   8.859   7.790   0.274 -0.7523  0.2974 -0.1581
25956SOL    HW279876   8.862   7.810   0.424 -0.3533  0.4485 -0.1850
25957SOL     OW79877   9.059   5.684   4.736  0.8267  0.3386  0.0027
25957SOL    HW179878   9.079   5.595   4.706 -2.3206 -0.5703  0.2413
25957SOL    HW279879   9.042   5.673   4.830  0.8871  1.2821  0.1262
25958SOL     OW79880   3.127   1.894   7.667  0.2626 -0.1751 -0.1182
25958SOL    HW179881   3.207   1.944   7.686  1.2662 -1.9897  0.6887
25958SOL    HW279882   3.063   1.960   7.641  1.7386  1.4373  0.1580
25959SOL     OW79883   8.662   9.185   0.889 -0.4044 -0.4329  0.7254
25959SOL    HW179884   8.684   9.198   0.797  1.6448  0.9785  1.3315
25959SOL    HW279885   8.589   9.245   0.905 -1.0628 -1.0036 -0.0403
25960SOL     OW79886   7.000   3.061   1.172  0.0529 -0.1825 -0.8039
25960SOL    HW179887   6.986   3.071   1.266 -3.2343  0.2193 -1.2232
25960SOL    HW279888   6.982   3.147   1.136 -1.6928 -1.0149 -2.0390
25961SOL     OW79889   5.327   0.862   3.868 -0.4218  0.3134  0.1958
25961SOL    HW179890   5.375   0.924   3.923  1.0135  0.8547 -1.5431
25961SOL    HW279891   5.388   0.789   3.856 -1.6574 -0.9648  1.2768
25962SOL     OW79892   1.169   5.301   7.612 -0.1351 -0.0720 -0.3536
25962SOL    HW179893   1.172   5.231   7.548  0.2165  0.0907 -0.5158
25962SOL    HW279894   1.260   5.316   7.637 -0.4267 -1.7829  1.9976
25963SOL     OW79895   9.938   5.198   4.192 -0.0472  0.2112 -0.5691
25963SOL    HW179896   9.994   5.267   4.228 -0.3386  0.2417 -0.1662
25963SOL    HW279897   9.944   5.210   4.098  1.5450 -0.5212 -0.5895
25964SOL     OW79898   2.865   5.105   7.383  0.3229  0.6308 -0.3837
25964SOL    HW179899   2.884   5.155   7.462  0.2300  1.1034 -0.6595
25964SOL    HW279900   2.951   5.074   7.353  0.2609 -0.4695  0.4955
25965SOL     OW79901   9.928   4.419   1.027 -0.1939 -0.0300 -0.3285
25965SOL    HW179902   9.848   4.379   1.063  0.5819 -0.6274  0.7791
25965SOL    HW279903   9.955   4.360   0.957 -0.9119  0.3760 -0.9734
25966SOL     OW79904  10.634   2.634   7.752  0.4252 -0.2797 -0.1471
25966SOL    HW179905  10.568   2.704   7.752  1.4488  0.7222 -0.8500
25966SOL    HW279906  10.585   2.555   7.729 -0.6492  0.3074  0.0424
25967SOL     OW79907   8.494  11.077   6.816  0.0276  0.2392  0.2617
25967SOL    HW179908   8.589  11.066   6.811  0.1429  1.5319 -0.8258
25967SOL    HW279909   8.480  11.171   6.812 -1.2639  0.1473  1.6240
25968SOL     OW79910  10.948   0.019   6.062  0.0044  0.1062  0.3238
25968SOL    HW179911  10.953  -0.025   6.147  0.9291  1.3179  0.9436
25968SOL    HW279912  11.036   0.008   6.024 -0.3797 -0.3596 -0.4490
25969SOL     OW79913   9.668   1.811   0.130 -0.7453  0.1004 -0.1510
25969SOL    HW179914   9.616   1.750   0.182  0.2814  1.3322  2.4634
25969SOL    HW279915   9.748   1.763   0.109 -0.5046  0.1018  0.7573
25970SOL     OW79916   1.871  10.228   5.327 -0.3650  0.4647 -0.0518
25970SOL    HW179917   1.910  10.241   5.413 -0.8195  0.7358  0.1167
25970SOL    HW279918   1.916  10.291   5.270 -0.0669  0.2878 -0.0120
25971SOL     OW79919   4.846   9.513   8.907 -0.1414 -0.5528  0.6056
25971SOL    HW179920   4.902   9.549   8.976 -0.1336 -0.9750  0.8230
25971SOL    HW279921   4.770   9.570   8.906 -0.6804 -1.2160  1.7626
25972SOL     OW79922   4.776   2.365   5.455 -0.5066  0.1041 -0.1549
25972SOL    HW179923   4.850   2.425   5.442 -0.5255  0.0992 -0.2801
25972SOL    HW279924   4.804   2.309   5.528 -0.6105  0.4605  0.1648
25973SOL     OW79925   1.415   3.174   8.729  0.0015  0.8330 -0.2725
25973SOL    HW179926   1.508   3.193   8.720  0.1613  0.3671  0.2894
25973SOL    HW279927   1.378   3.193   8.643  0.5785  1.2107 -0.4465
25974SOL     OW79928   6.966   1.849   7.947 -0.1331 -0.5114  0.2295
25974SOL    HW179929   7.058   1.851   7.919 -0.4908  1.1206 -0.9649
25974SOL    HW279930   6.970   1.820   8.038  1.6190 -0.0203  0.3464
25975SOL     OW79931   7.123   8.960   8.644 -0.0261 -0.2569 -0.0051
25975SOL    HW179932   7.209   8.983   8.680  0.0368 -1.9415  1.0077
25975SOL    HW279933   7.067   8.949   8.720 -1.3886  1.5480 -0.6721
25976SOL     OW79934   6.673   4.870   8.332 -0.0989 -0.4545 -0.0088
25976SOL    HW179935   6.619   4.882   8.254 -2.1277 -3.0058  0.8445
25976SOL    HW279936   6.702   4.779   8.327  0.1664 -0.5188  1.9059
25977SOL     OW79937   9.751   9.047  10.666  0.1443 -0.6728  0.4578
25977SOL    HW179938   9.669   8.999  10.658 -0.1201 -0.1032 -0.3995
25977SOL    HW279939   9.768   9.081  10.578 -0.6509  2.3706  1.3404
25978SOL     OW79940   8.284   4.615   6.502 -0.0397 -0.4848 -0.3098
25978SOL    HW179941   8.202   4.653   6.471  0.5312  1.5521  0.4953
25978SOL    HW279942   8.351   4.679   6.476  1.1602 -1.5714  0.0035
25979SOL     OW79943   2.031   9.881  10.974 -0.2201  0.3309 -0.3974
25979SOL    HW179944   1.996   9.813  10.917  0.0591  0.9194 -1.2790
25979SOL    HW279945   2.057   9.951  10.915  2.2025  0.0289  0.2144
25980SOL     OW79946   2.808   2.060   8.523  0.6036  0.2114 -0.3310
25980SOL    HW179947   2.863   1.984   8.504  1.5869  0.5430  1.0664
25980SOL    HW279948   2.803   2.063   8.618 -2.5076 -0.2536 -0.3660
25981SOL     OW79949   0.905   7.216   6.089 -0.2157  0.4802  0.3928
25981SOL    HW179950   0.900   7.150   6.157  2.2538 -1.4282 -1.0963
25981SOL    HW279951   0.814   7.228   6.060 -0.8217 -1.8273  1.1362
25982SOL     OW79952   9.724   8.824   1.227 -1.0744 -0.4719  0.1096
25982SOL    HW179953   9.691   8.738   1.201  1.0027 -0.9762 -1.0056
25982SOL    HW279954   9.657   8.885   1.196 -2.4001 -1.6246  0.5869
25983SOL     OW79955  10.761   3.486   8.960  0.1344  0.1628  0.3223
25983SOL    HW179956  10.802   3.440   8.886 -1.7182 -0.1612 -0.5712
25983SOL    HW279957  10.723   3.416   9.013  0.1929  0.4822  0.7872
25984SOL     OW79958   2.435   8.989   4.630  0.4983  0.0488 -0.0466
25984SOL    HW179959   2.454   9.081   4.649 -2.5371  1.2868 -2.1612
25984SOL    HW279960   2.364   8.966   4.689  1.9527 -1.3949  1.2381
25985SOL     OW79961   6.351   2.857   6.538 -0.0643  0.2991 -0.0345
25985SOL    HW179962   6.295   2.821   6.607  1.3611 -1.1556  0.4535
25985SOL    HW279963   6.422   2.793   6.530  1.8109  2.2670 -0.2440
25986SOL     OW79964  10.676   5.997   2.668  0.0130 -0.7474 -0.1676
25986SOL    HW179965  10.748   6.048   2.630  0.2008 -1.3708 -0.6613
25986SOL    HW279966  10.624   6.062   2.715  0.9934 -0.3079  0.3600
25987SOL     OW79967   1.342   8.579   2.519 -0.0800 -0.0337 -0.6694
25987SOL    HW179968   1.263   8.538   2.554  0.6764 -0.3271  0.7478
25987SOL    HW279969   1.386   8.616   2.595  1.2265  0.0021 -1.4168
25988SOL     OW79970   7.929   9.571   8.803 -0.4018  0.2990  0.5528
25988SOL    HW179971   7.836   9.553   8.793  0.0462 -2.2558  0.4622
25988SOL    HW279972   7.958   9.513   8.873  1.5281 -0.5888 -0.8887
25989SOL     OW79973   5.986   7.798   1.641 -0.4798  0.1666  0.5244
25989SOL    HW179974   6.045   7.797   1.565  0.4198 -0.0769  1.2107
25989SOL    HW279975   5.996   7.711   1.680 -3.0951 -0.7890 -0.6690
25990SOL     OW79976   5.916   4.866  10.893  0.1620 -0.3711 -0.4031
25990SOL    HW179977   5.995   4.881  10.945  0.1264 -1.3813 -0.0406
25990SOL    HW279978   5.863   4.945  10.906  0.8840  0.0974 -0.2445
25991SOL     OW79979   0.087   4.637   9.318  0.1220 -0.1819  0.2459
25991SOL    HW179980   0.081   4.728   9.288 -1.8686 -0.1918  0.4992
25991SOL    HW279981   0.062   4.640   9.410  1.8948 -0.7616  0.7802
25992SOL     OW79982   8.708   0.178   2.278 -0.0171 -0.4072 -0.2473
25992SOL    HW179983   8.759   0.149   2.203  0.0113 -0.0514 -0.3680
25992SOL    HW279984   8.758   0.150   2.354 -0.0461 -0.7676 -0.3597
25993SOL     OW79985   5.823  11.228   4.693 -0.8173 -0.0146 -0.4262
25993SOL    HW179986   5.829  11.132   4.690  1.2005  0.0682 -0.5298
25993SOL    HW279987   5.821  11.249   4.786  1.3698 -0.1156 -0.2902
25994SOL     OW79988   4.339   9.575  10.520  0.0243 -0.1540  0.3825
25994SOL    HW179989   4.410   9.629  10.555 -0.0278 -0.9711  1.8452
25994SOL    HW279990   4.279   9.563  10.594 -0.5055 -1.3131 -0.2031
25995SOL     OW79991   6.506   5.205  11.186 -0.5729 -0.5651  0.7693
25995SOL    HW179992   6.492   5.296  11.160 -0.2508 -0.7309 -0.0142
25995SOL    HW279993   6.503   5.155  11.104  0.6800 -1.0771  1.0103
25996SOL     OW79994   6.070   4.251   9.223 -0.2377 -0.1807  0.2188
25996SOL    HW179995   6.099   4.228   9.135  1.0696  0.5651  0.4226
25996SOL    HW279996   5.997   4.312   9.210 -0.8958 -1.0707 -0.3276
25997SOL     OW79997   8.244   6.248   4.650  0.7904  0.0729 -0.0804
25997SOL    HW179998   8.237   6.270   4.743 -0.0451 -1.3880  0.2388
25997SOL    HW279999   8.183   6.174   4.638  1.6568 -0.4488 -1.5631
25998SOL     OW80000   4.901   6.611   0.391 -0.0475 -0.5381  0.1161
25998SOL    HW180001   4.847   6.616   0.470 -1.0389 -0.9040 -0.5243
25998SOL    HW280002   4.955   6.533   0.404  0.9614  0.2759  1.1239
25999SOL     OW80003   4.171   9.085   2.829 -0.7130 -0.7343  0.4486
25999SOL    HW180004   4.210   9.167   2.801  0.1144 -1.5758 -0.9976
25999SOL    HW280005   4.077   9.097   2.815 -0.4234 -0.7386 -1.8241
26000SOL     OW80006   8.222   0.533   4.491 -0.1973  0.3595  0.3246
26000SOL    HW180007   8.251   0.479   4.417  1.3196  2.0627 -0.3909
26000SOL    HW280008   8.161   0.596   4.452 -0.5892  0.2894  0.8205
26001SOL     OW80009   8.894   4.764   1.254  0.1329  1.1396 -0.2072
26001SOL    HW180010   8.962   4.775   1.320 -1.0656 -0.9692  1.5354
26001SOL    HW280011   8.835   4.838   1.268  0.1149  0.9412  0.8359
26002SOL     OW80012  10.051   7.282   5.088  0.7791 -0.1207 -0.4883
26002SOL    HW180013  10.115   7.290   5.017  0.7179 -0.4195 -0.5785
26002SOL    HW280014   9.973   7.246   5.047  0.0979  1.4380 -0.6299
26003SOL     OW80015   8.839   4.739   3.302  0.5720  0.3859 -0.9122
26003SOL    HW180016   8.753   4.779   3.307  0.6244  0.5554 -1.3334
26003SOL    HW280017   8.838   4.688   3.222  1.5558  2.0650 -2.0643
26004SOL     OW80018   9.031   5.670   8.721 -0.6143  0.1931 -0.7175
26004SOL    HW180019   8.989   5.756   8.713 -0.6216  0.1170 -1.6179
26004SOL    HW280020   8.997   5.620   8.647  1.1197  0.1560 -1.5220
26005SOL     OW80021   0.288   1.587   5.960  0.2556 -0.1061 -0.0429
26005SOL    HW180022   0.248   1.642   5.893 -1.4393 -1.9697 -0.6511
26005SOL    HW280023   0.214   1.551   6.009  1.3696 -0.6921  1.2933
26006SOL     OW80024   8.522   1.298  11.150  0.1581  0.5504 -0.4591
26006SOL    HW180025   8.426   1.297  11.153 -0.1211  3.4615 -2.6634
26006SOL    HW280026   8.550   1.258  11.232 -2.8689 -1.6814 -0.3421
26007SOL     OW80027   8.739   1.323   2.509  0.0124  0.0306  0.5801
26007SOL    HW180028   8.715   1.297   2.421 -2.9549 -0.9605  1.5729
26007SOL    HW280029   8.835   1.321   2.509  0.1183  0.3483 -2.6400
26008SOL     OW80030   7.869   8.119   7.753 -0.5745 -0.0425  0.5375
26008SOL    HW180031   7.846   8.192   7.696 -0.5982  0.0560  0.6705
26008SOL    HW280032   7.810   8.130   7.829  0.6343  0.8322  1.3903
26009SOL     OW80033   3.086   0.093   3.395  0.3929 -0.0723 -0.2355
26009SOL    HW180034   3.019   0.124   3.334 -0.3317  0.1054  0.6186
26009SOL    HW280035   3.103   0.168   3.452 -0.9108 -0.9677  1.4427
26010SOL     OW80036   6.549   1.854   8.232 -0.4695 -0.0597  0.5146
26010SOL    HW180037   6.558   1.786   8.299  0.8287  0.4663  0.9178
26010SOL    HW280038   6.536   1.935   8.282  0.4081  0.3228  0.1573
26011SOL     OW80039   0.912   6.708   3.983 -0.0723 -0.1188  0.1723
26011SOL    HW180040   0.883   6.617   3.988 -0.1731 -0.1399 -0.6658
26011SOL    HW280041   0.850   6.756   4.038 -0.9286 -0.3555 -0.5566
26012SOL     OW80042   0.938   2.914   9.219  0.1832  0.1962 -0.1453
26012SOL    HW180043   0.929   2.951   9.132 -1.2791  0.7459  0.2143
26012SOL    HW280044   0.982   2.830   9.205  1.1187  0.8474 -1.2522
26013SOL     OW80045   5.197   6.591   5.772 -0.6943 -0.4821 -0.5080
26013SOL    HW180046   5.269   6.623   5.826 -2.4422  2.6821  0.1614
26013SOL    HW280047   5.240   6.549   5.697  1.8026 -4.1344  2.6113
26014SOL     OW80048   1.909   3.050   7.013  0.0938  0.3620  0.3609
26014SOL    HW180049   1.955   2.970   6.988 -0.5353  0.0219  0.2555
26014SOL    HW280050   1.933   3.065   7.104  1.4670  0.9478 -0.0691
26015SOL     OW80051  10.150   2.552   9.889  0.0623 -0.0063 -0.1883
26015SOL    HW180052  10.128   2.639   9.923 -0.0415 -0.1472  0.1136
26015SOL    HW280053  10.161   2.498   9.968 -1.3691 -0.6377 -0.4012
26016SOL     OW80054   6.392   0.706   6.706 -0.1927  0.1454  0.1111
26016SOL    HW180055   6.455   0.771   6.676  0.7950 -0.8852 -0.1106
26016SOL    HW280056   6.352   0.745   6.784  0.6919  0.8348  0.2306
26017SOL     OW80057   9.010  10.880  10.150 -0.4329 -0.2047  0.3012
26017SOL    HW180058   9.024  10.925  10.233 -0.0124 -0.3653  0.3166
26017SOL    HW280059   9.008  10.949  10.085 -0.2831 -0.1206  0.3864
26018SOL     OW80060   5.060   2.267   6.202  0.5651 -1.0677 -0.4216
26018SOL    HW180061   5.092   2.315   6.278  1.2507 -1.3867 -0.4965
26018SOL    HW280062   5.012   2.333   6.151  1.2177 -0.5319 -0.3621
26019SOL     OW80063   9.315   9.677   6.365  0.2562 -0.2293 -0.1012
26019SOL    HW180064   9.276   9.744   6.421  2.1888  0.5900  0.3607
26019SOL    HW280065   9.409   9.682   6.384  0.8070 -0.9805 -2.3029
26020SOL     OW80066   7.534   1.185   9.797  0.2312 -0.4286  0.1447
26020SOL    HW180067   7.448   1.144   9.788  0.5823 -0.9948 -0.7127
26020SOL    HW280068   7.562   1.204   9.708  1.6178 -1.5670  0.2939
26021SOL     OW80069   6.569  11.262   0.896  0.0407  0.0185  0.4238
26021SOL    HW180070   6.583  11.240   0.988  1.9944 -2.2271 -0.3245
26021SOL    HW280071   6.565  11.177   0.851 -0.4842  1.0554 -1.6270
26022SOL     OW80072   4.611   1.363   2.878  0.0959  0.2220 -0.3354
26022SOL    HW180073   4.630   1.361   2.784 -0.5475  1.9905 -0.5286
26022SOL    HW280074   4.628   1.453   2.905 -1.3223  0.1617  0.9010
26023SOL     OW80075   3.464   6.115   7.561 -0.1508  0.5509  0.6285
26023SOL    HW180076   3.530   6.142   7.497  0.9638  1.4283  2.0709
26023SOL    HW280077   3.514   6.061   7.623 -1.3781 -0.9831  0.3449
26024SOL     OW80078   6.105   4.538   1.767  0.0943 -0.2880  0.5260
26024SOL    HW180079   6.151   4.479   1.825 -0.3660 -0.3690  0.8156
26024SOL    HW280080   6.158   4.618   1.765  0.4886 -0.5525  0.4757
26025SOL     OW80081  10.339   8.735   4.206 -0.3860 -0.6325 -0.1842
26025SOL    HW180082  10.267   8.726   4.143 -1.1183 -0.0236  0.5457
26025SOL    HW280083  10.417   8.741   4.152 -0.9254 -0.9075 -1.0121
26026SOL     OW80084   7.605   0.742   5.928 -0.1760  0.2688 -0.4661
26026SOL    HW180085   7.571   0.810   5.870 -0.7877  0.3911  0.0260
26026SOL    HW280086   7.700   0.750   5.921 -0.2358  1.2301 -0.3661
26027SOL     OW80087   5.659   0.593   4.614  0.1756  0.6354  0.2421
26027SOL    HW180088   5.668   0.607   4.520  0.5166 -2.2142 -0.2523
26027SOL    HW280089   5.613   0.670   4.646  0.1126  1.7138 -2.2385
26028SOL     OW80090   1.524   5.781  10.828 -0.7649  0.2691 -0.1703
26028SOL    HW180091   1.468   5.858  10.818 -0.9232  0.1536 -0.1755
26028SOL    HW280092   1.536   5.748  10.739  0.3377  1.0172 -0.3119
26029SOL     OW80093   9.829   9.760   0.722 -0.1671 -0.7200 -0.7944
26029SOL    HW180094   9.766   9.738   0.653  0.1758  0.9433 -1.6783
26029SOL    HW280095   9.828   9.855   0.726  1.3993 -0.7138  0.0367
26030SOL     OW80096   9.704   8.966   5.392  0.1808  0.0073 -0.7515
26030SOL    HW180097   9.779   8.999   5.342  0.8383 -1.1932 -0.5733
26030SOL    HW280098   9.740   8.900   5.450 -1.0883 -1.0139 -1.0655
26031SOL     OW80099   1.341   4.281   3.023  0.0903 -0.1981 -0.5628
26031SOL    HW180100   1.266   4.255   2.969  1.7968 -2.3255 -2.0951
26031SOL    HW280101   1.414   4.228   2.990  2.3643  1.9474  0.6617
26032SOL     OW80102   0.706   6.103  10.725 -0.0860 -0.3806  1.0812
26032SOL    HW180103   0.785   6.107  10.672 -0.7691  1.7925  0.0918
26032SOL    HW280104   0.690   6.010  10.739  1.3435 -0.9306 -0.6614
26033SOL     OW80105   9.999   1.704  10.636  0.2347 -0.2938  0.2944
26033SOL    HW180106  10.094   1.707  10.621 -0.1278  0.5547 -2.3156
26033SOL    HW280107   9.970   1.625  10.591 -0.4140 -0.0068  0.1966
26034SOL     OW80108   0.061   9.119   5.536 -0.2000  0.0301  0.1566
26034SOL    HW180109   0.044   9.197   5.483  0.1079 -0.6683 -1.0110
26034SOL    HW280110   0.025   9.047   5.484  0.5234 -0.7241  0.6824
26035SOL     OW80111   0.256   0.917   9.428 -0.1991  0.4884  0.0960
26035SOL    HW180112   0.287   0.890   9.341 -0.4024 -1.3490  0.5568
26035SOL    HW280113   0.172   0.873   9.439  0.1536  0.1184  1.5167
26036SOL     OW80114   2.270   9.243   5.742  0.1037  0.1387 -0.5124
26036SOL    HW180115   2.241   9.240   5.833  1.0403 -0.5378 -0.2157
26036SOL    HW280116   2.365   9.257   5.748 -0.1402  2.7212 -1.4298
26037SOL     OW80117   6.755   0.772  10.475  0.6158  0.1402 -0.2291
26037SOL    HW180118   6.842   0.771  10.515  0.8088  1.3429 -0.5589
26037SOL    HW280119   6.755   0.851  10.421 -0.9014  0.5108  0.2614
26038SOL     OW80120   8.159   1.350   3.379  0.3275 -0.2938 -0.6610
26038SOL    HW180121   8.139   1.323   3.290  1.5090 -0.0274 -1.0234
26038SOL    HW280122   8.089   1.411   3.402  0.7020  0.6487 -1.9019
26039SOL     OW80123   4.474   5.675   1.792  0.4208  0.3041 -0.5971
26039SOL    HW180124   4.388   5.703   1.825  0.0793  1.5100 -2.3293
26039SOL    HW280125   4.506   5.613   1.857 -0.9476  1.2235  1.0383
26040SOL     OW80126   3.206   6.657   1.615  0.5841 -0.6104  0.1528
26040SOL    HW180127   3.239   6.702   1.693 -2.3184 -0.7616  1.6139
26040SOL    HW280128   3.182   6.727   1.555  2.1675 -0.4769 -0.3759
26041SOL     OW80129   8.649   5.954   4.117 -0.0896  0.2027 -0.3163
26041SOL    HW180130   8.611   5.996   4.040  0.1957  1.0758  0.0027
26041SOL    HW280131   8.742   5.946   4.096 -0.3386 -1.4977 -0.9057
26042SOL     OW80132   9.434   7.751  10.748  0.9852  0.2229 -0.5611
26042SOL    HW180133   9.484   7.800  10.814  1.3137  0.6848 -1.1461
26042SOL    HW280134   9.498   7.731  10.680  1.1173 -1.9089  0.1156
26043SOL     OW80135   0.986   8.205   1.807 -0.3304 -0.1158 -0.2685
26043SOL    HW180136   0.953   8.158   1.730  0.8624 -0.4551 -0.5968
26043SOL    HW280137   0.937   8.287   1.808 -1.1831 -0.5972 -0.7109
26044SOL     OW80138   4.812   3.959   8.846  0.2444 -0.0459 -0.3939
26044SOL    HW180139   4.783   4.042   8.885  1.7596 -0.4177  1.7261
26044SOL    HW280140   4.890   3.936   8.897  0.2900 -2.3977 -1.4465
26045SOL     OW80141   5.215  11.065   7.556 -0.5055 -0.5082  0.3578
26045SOL    HW180142   5.240  11.007   7.484  3.4628 -0.6991  1.6290
26045SOL    HW280143   5.214  11.007   7.633 -0.5076  0.3944  1.0523
26046SOL     OW80144   1.369  10.404   3.858  0.0918 -0.4104  0.0096
26046SOL    HW180145   1.322  10.444   3.785 -1.0451 -2.0702 -0.1954
26046SOL    HW280146   1.461  10.427   3.841 -0.1428 -0.6698 -1.8881
26047SOL     OW80147   9.194   3.570   2.278  0.0821  0.3213 -0.0310
26047SOL    HW180148   9.118   3.517   2.304  1.9278 -1.2724  2.5624
26047SOL    HW280149   9.245   3.512   2.221  0.2987  0.6664 -0.1905
26048SOL     OW80150   6.715   5.808   0.340  0.7289 -0.1544 -0.0300
26048SOL    HW180151   6.727   5.832   0.248  0.8088 -1.3688 -0.3604
26048SOL    HW280152   6.624   5.830   0.359  0.9951  1.0539 -0.0860
26049SOL     OW80153   1.406   4.164   9.224  0.2462  0.5077  0.0965
26049SOL    HW180154   1.382   4.128   9.139 -0.8649  1.5615 -0.0604
26049SOL    HW280155   1.347   4.121   9.286 -1.4102  2.2807 -0.1485
26050SOL     OW80156   3.231  10.356   0.542 -0.0616 -0.3697  0.4272
26050SOL    HW180157   3.320  10.390   0.539  0.1696 -0.8709  1.2243
26050SOL    HW280158   3.176  10.434   0.541  0.3838 -0.0508  0.0872
26051SOL     OW80159   2.814   2.116   2.165  0.6728 -0.0891  1.3635
26051SOL    HW180160   2.888   2.121   2.226 -1.7959  0.8870  4.5819
26051SOL    HW280161   2.759   2.046   2.200 -0.7354  0.3152  0.0474
26052SOL     OW80162   5.673   0.675   2.562  0.5198  0.0964  0.1505
26052SOL    HW180163   5.768   0.689   2.562  0.7095 -0.9623  1.9934
26052SOL    HW280164   5.638   0.747   2.614  0.1963  0.9522 -1.2037
26053SOL     OW80165   4.820   0.625   7.286  0.5291 -0.5960 -1.0370
26053SOL    HW180166   4.748   0.682   7.260  1.1548  0.6763 -0.1041
26053SOL    HW280167   4.782   0.568   7.353  0.3723  0.0922 -0.5252
26054SOL     OW80168   5.168   1.935   6.384 -0.3349  1.1611  0.0347
26054SOL    HW180169   5.210   1.995   6.445  1.9036 -2.3171  2.2034
26054SOL    HW280170   5.089   1.906   6.429  0.8321 -0.6888  1.0015
26055SOL     OW80171   6.469   6.673   0.425 -0.4826  0.6761 -0.7061
26055SOL    HW180172   6.485   6.620   0.347  0.0755  1.4642 -1.1364
26055SOL    HW280173   6.412   6.619   0.479 -0.9260  0.1372 -1.6841
26056SOL     OW80174   8.911   1.078  11.261  0.2387 -0.0498  0.1830
26056SOL    HW180175   8.988   1.089  11.206  0.8192 -1.5875  0.6373
26056SOL    HW280176   8.925   1.137  11.335 -0.5855  2.0978 -1.2583
26057SOL     OW80177   5.185   0.426   6.286  0.0849  0.7091  0.1402
26057SOL    HW180178   5.194   0.337   6.253 -0.0756  0.3239  1.1181
26057SOL    HW280179   5.232   0.480   6.222  0.5086 -0.1090 -0.2523
26058SOL     OW80180   7.023   8.049   6.538 -0.2548 -0.2113 -0.0867
26058SOL    HW180181   6.949   8.051   6.477 -0.5126  2.9037  0.1456
26058SOL    HW280182   7.093   8.005   6.489 -1.6920 -1.6141 -0.9821
26059SOL     OW80183   8.356  10.431   4.666  0.3105 -0.7060 -0.0568
26059SOL    HW180184   8.360  10.425   4.570 -1.2682  1.4071 -0.3236
26059SOL    HW280185   8.268  10.462   4.684  0.2174 -2.1340  2.1972
26060SOL     OW80186   2.748   7.193   1.837  0.1526  0.2146  0.1209
26060SOL    HW180187   2.793   7.114   1.866  0.8225  0.7310  0.5193
26060SOL    HW280188   2.747   7.250   1.914  0.1321  0.7976 -0.3060
26061SOL     OW80189   5.604   2.701  10.198 -0.0222  0.0595 -0.1088
26061SOL    HW180190   5.675   2.651  10.239  0.9120  1.3957 -0.0196
26061SOL    HW280191   5.528   2.644  10.205  1.1058 -1.5866 -0.5455
26062SOL     OW80192   7.580   2.331   6.416 -0.0712 -0.2876 -0.6044
26062SOL    HW180193   7.651   2.385   6.381 -1.6007  1.5209 -1.0582
26062SOL    HW280194   7.504   2.354   6.364 -0.9424 -2.5442 -0.4507
26063SOL     OW80195   0.558   7.989   9.520 -0.0686 -0.1970  0.7195
26063SOL    HW180196   0.538   7.969   9.429 -0.9261 -2.2744  1.3068
26063SOL    HW280197   0.478   8.031   9.554  0.4233  1.0230  0.4267
26064SOL     OW80198   2.538   7.349   1.739  0.4087 -0.4401 -0.3350
26064SOL    HW180199   2.603   7.280   1.753  0.8159 -0.2733 -1.3613
26064SOL    HW280200   2.580   7.429   1.770  1.5273  0.0267 -2.8096
26065SOL     OW80201  10.017   3.613  10.332  0.5377  0.1184  0.4237
26065SOL    HW180202   9.933   3.653  10.352  0.0019 -0.9291  0.3419
26065SOL    HW280203   9.995   3.532  10.287  1.6405  1.0515 -1.9582
26066SOL     OW80204   5.005   0.627   0.492 -0.3121  0.0749  0.6565
26066SOL    HW180205   4.972   0.702   0.442  2.8331  0.3523 -1.2435
26066SOL    HW280206   4.997   0.553   0.431  1.2977 -0.0823  0.6102
26067SOL     OW80207   2.128   3.278   1.330 -0.5680  0.4356 -0.1459
26067SOL    HW180208   2.117   3.331   1.251 -1.5079  2.0732  1.0509
26067SOL    HW280209   2.085   3.327   1.399  0.4516 -0.8430  1.4719
26068SOL     OW80210   4.403   5.857   8.495  0.6386  0.1110 -0.2724
26068SOL    HW180211   4.354   5.781   8.527  0.1211 -1.0228 -3.3702
26068SOL    HW280212   4.340   5.929   8.497  0.2639 -0.2226  0.1351
26069SOL     OW80213  10.737   2.609   3.547 -0.3357 -0.8607  0.6305
26069SOL    HW180214  10.683   2.539   3.510 -1.6689  0.0254  0.8174
26069SOL    HW280215  10.767   2.575   3.631  1.2342 -2.2016 -0.4059
26070SOL     OW80216   0.187   2.981  10.402 -0.0958  0.0127 -0.9038
26070SOL    HW180217   0.267   3.026  10.431  1.4881 -3.1941  0.1753
26070SOL    HW280218   0.118   3.017  10.457  1.1993  0.6160  0.3878
26071SOL     OW80219   9.667   4.377   9.525  0.0612 -0.2655 -0.2833
26071SOL    HW180220   9.695   4.290   9.495  0.9204 -0.5805  1.3139
26071SOL    HW280221   9.660   4.429   9.445  4.0337 -0.5521 -1.0301
26072SOL     OW80222   1.699   6.286   1.207 -0.1779  0.6424  0.8971
26072SOL    HW180223   1.665   6.223   1.144 -1.8974  0.4185  1.9824
26072SOL    HW280224   1.791   6.298   1.182 -0.6111  0.0204 -1.1683
26073SOL     OW80225   6.877   7.915   2.190  0.3131  0.5645  0.1432
26073SOL    HW180226   6.791   7.955   2.199  0.6965  1.6095 -0.6478
26073SOL    HW280227   6.880   7.849   2.259 -1.1754  0.3957  0.0754
26074SOL     OW80228   8.227  10.960   7.925  0.2219 -0.1449  0.0896
26074SOL    HW180229   8.259  10.937   8.012 -1.5189 -2.2967  0.2759
26074SOL    HW280230   8.267  10.894   7.867 -1.2151 -0.8503 -0.1545
26075SOL     OW80231   0.020   5.153   2.727 -0.3345  0.4673 -0.7924
26075SOL    HW180232  -0.068   5.116   2.722 -0.2273 -0.1081  0.9704
26075SOL    HW280233   0.007   5.248   2.724 -1.1009  0.4143  0.2409
26076SOL     OW80234   3.527   8.145   5.777  0.9348 -0.4651  0.3656
26076SOL    HW180235   3.472   8.120   5.852 -0.2964  0.3910 -0.2313
26076SOL    HW280236   3.547   8.237   5.791  4.1315 -1.2205  1.7176
26077SOL     OW80237   8.056   1.288   6.555 -0.2110 -0.7819 -0.0788
26077SOL    HW180238   8.027   1.297   6.646 -0.5172 -1.9038 -0.0408
26077SOL    HW280239   8.134   1.343   6.549 -0.3654 -0.4497  0.7766
26078SOL     OW80240   7.568   0.705   8.911 -0.4399  0.4978 -0.1213
26078SOL    HW180241   7.475   0.692   8.928 -0.3579 -0.9693 -0.6445
26078SOL    HW280242   7.575   0.797   8.885 -1.1631  1.7281  3.4187
26079SOL     OW80243  10.078   7.297   7.035 -0.3232 -0.3919 -0.2268
26079SOL    HW180244  10.100   7.221   7.089  0.0417  0.1842  0.4469
26079SOL    HW280245  10.081   7.371   7.096  0.1588  0.2784 -1.0578
26080SOL     OW80246   6.115   5.918   7.560 -0.0752  0.7165  0.0212
26080SOL    HW180247   6.093   5.825   7.550  0.2601  0.4407  1.4931
26080SOL    HW280248   6.203   5.917   7.597 -0.0239  1.6322 -0.0762
26081SOL     OW80249   7.978   6.453   4.748 -0.4828  0.3754 -0.1085
26081SOL    HW180250   7.998   6.509   4.823 -0.0861 -0.1888  0.2147
26081SOL    HW280251   7.957   6.368   4.786  0.1491 -0.0363 -0.6524
26082SOL     OW80252   1.351   8.221   8.609  0.5189 -0.3729  0.7941
26082SOL    HW180253   1.373   8.297   8.555 -0.3866 -0.1637  0.6969
26082SOL    HW280254   1.400   8.233   8.690  0.2690  0.3979  0.8389
26083SOL     OW80255   3.016   4.613   3.065  0.3250  0.3501 -0.3304
26083SOL    HW180256   2.979   4.700   3.049  1.9088  1.0005 -0.6533
26083SOL    HW280257   3.111   4.626   3.060  0.7968 -0.6712  3.3003
26084SOL     OW80258   6.150   4.833   7.303  0.6414 -0.2730 -1.1251
26084SOL    HW180259   6.070   4.787   7.280  0.3771 -0.3107 -0.1751
26084SOL    HW280260   6.143   4.848   7.397  3.3059 -3.3509 -0.2690
26085SOL     OW80261   0.798  10.448   2.434  0.3650 -0.1019 -0.2150
26085SOL    HW180262   0.711  10.407   2.425 -0.1298  1.1194 -1.2806
26085SOL    HW280263   0.781  10.541   2.424  1.6034  0.3223  1.2536
26086SOL     OW80264   7.161  11.136   6.980  0.3140  0.4183  0.0615
26086SOL    HW180265   7.155  11.145   6.885  0.6485  0.0077 -0.0053
26086SOL    HW280266   7.097  11.068   7.001  0.9402 -0.2095 -0.0027
26087SOL     OW80267   5.826   3.506   6.440 -0.5567 -0.0080 -0.6248
26087SOL    HW180268   5.850   3.522   6.349 -2.5267  1.6776 -0.9268
26087SOL    HW280269   5.764   3.433   6.437 -1.2297  0.5624 -0.7432
26088SOL     OW80270   9.496   7.854   5.393  0.3866  0.0558 -0.4232
26088SOL    HW180271   9.429   7.804   5.440  1.5025  0.9837  2.4031
26088SOL    HW280272   9.495   7.819   5.304 -1.4258 -2.3594  0.4423
26089SOL     OW80273   1.753  10.220   1.789 -0.3121  0.2404  0.1177
26089SOL    HW180274   1.727  10.134   1.823 -2.0771  0.2893 -0.9745
26089SOL    HW280275   1.715  10.224   1.701  0.1283  1.9665 -0.0368
26090SOL     OW80276   5.804   2.593   7.585 -0.0979  0.4973 -0.5682
26090SOL    HW180277   5.751   2.589   7.664  0.2393  0.5224 -0.3395
26090SOL    HW280278   5.890   2.620   7.615 -0.1464  1.1983 -1.0231
26091SOL     OW80279  10.041   4.938   5.360 -0.3011 -0.3192 -0.3657
26091SOL    HW180280  10.085   5.012   5.402 -0.8093  0.5295 -1.2840
26091SOL    HW280281  10.063   4.863   5.415  0.6596  0.4177  0.2973
26092SOL     OW80282  10.866   2.932   7.808 -0.2695 -0.2954 -0.5567
26092SOL    HW180283  10.936   2.987   7.773  0.0575 -0.7538 -0.6325
26092SOL    HW280284  10.786   2.983   7.794 -0.0990 -0.2865 -1.5930
26093SOL     OW80285   8.628   2.261  10.896  0.1108 -0.2854 -0.1124
26093SOL    HW180286   8.586   2.182  10.931 -0.8960 -0.1361 -0.9285
26093SOL    HW280287   8.630   2.321  10.970  0.5933 -0.9584  0.4339
26094SOL     OW80288  10.114   6.586   4.462 -0.3502  0.1257 -0.0696
26094SOL    HW180289  10.046   6.641   4.501 -1.0223 -1.2589  0.7806
26094SOL    HW280290  10.100   6.595   4.367 -1.4325  0.2303  0.0832
26095SOL     OW80291   8.848   2.072   6.047  0.2156 -0.2245  0.1647
26095SOL    HW180292   8.851   1.998   5.988 -0.3486  0.4217 -0.6931
26095SOL    HW280293   8.914   2.052   6.114 -1.2032 -2.3649  1.0240
26096SOL     OW80294   8.591   7.028   4.050  0.6991  0.3864 -0.7300
26096SOL    HW180295   8.682   7.023   4.081  1.1605  1.7140 -1.7722
26096SOL    HW280296   8.596   7.016   3.956 -0.4591 -1.4909 -0.5999
26097SOL     OW80297   4.417   4.116   9.398 -0.5161 -0.0459  0.1240
26097SOL    HW180298   4.487   4.100   9.461  0.3163  0.7100 -0.5909
26097SOL    HW280299   4.338   4.083   9.441  0.0872  0.1437  1.4065
26098SOL     OW80300   8.293   5.060   2.519  0.4844  1.1128 -0.0668
26098SOL    HW180301   8.328   4.982   2.477  0.1033  0.3344  1.0063
26098SOL    HW280302   8.202   5.038   2.539  0.6490  1.4245  1.1419
26099SOL     OW80303   8.493   7.835   3.652  0.6039  0.0573 -0.3945
26099SOL    HW180304   8.482   7.789   3.735 -1.8008  1.8697  0.4140
26099SOL    HW280305   8.439   7.787   3.590  1.7203 -0.7896 -0.7549
26100SOL     OW80306   9.685   1.394   7.405  0.4426  0.4253  0.3280
26100SOL    HW180307   9.663   1.463   7.468  2.0140  1.1278  0.1632
26100SOL    HW280308   9.779   1.379   7.418  0.1083 -1.8458  0.4811
26101SOL     OW80309   1.949   9.988   2.513  0.2736 -0.0158  0.0622
26101SOL    HW180310   2.023   9.976   2.573 -0.7299  3.5086  2.3650
26101SOL    HW280311   1.949  10.082   2.494 -0.6459 -0.6697 -4.1346
26102SOL     OW80312  10.749   9.476   6.770 -0.1071  0.1003  0.1870
26102SOL    HW180313  10.770   9.569   6.777  0.6856 -0.0071 -0.5899
26102SOL    HW280314  10.827   9.432   6.805  0.6753 -0.3028 -1.9436
26103SOL     OW80315   0.955  10.998   4.959 -0.1344 -0.1042 -0.0424
26103SOL    HW180316   0.972  10.957   4.874 -0.5606  1.1962 -0.7883
26103SOL    HW280317   1.034  10.979   5.011 -0.0580 -1.3003 -0.5545
26104SOL     OW80318  10.880   2.040  11.113  0.5729 -0.7021 -0.1077
26104SOL    HW180319  10.846   1.994  11.036  1.3398 -0.8112 -0.3941
26104SOL    HW280320  10.926   1.972  11.163 -1.8633 -1.1479  1.6676
26105SOL     OW80321   1.402  11.032   7.116  0.1931  0.8770 -0.5287
26105SOL    HW180322   1.424  10.945   7.150 -1.3595  0.7773  0.2952
26105SOL    HW280323   1.355  11.075   7.187  0.0919  2.0501 -1.2748
26106SOL     OW80324   1.615   4.507  10.436 -0.1659  0.4564 -0.6542
26106SOL    HW180325   1.570   4.533  10.517  0.6103  1.0728 -0.4067
26106SOL    HW280326   1.649   4.420  10.454 -0.4347  0.3822 -0.4987
26107SOL     OW80327   5.053   5.482   9.396 -0.2457 -0.1151  0.4346
26107SOL    HW180328   5.066   5.389   9.381 -0.5663 -0.0186 -0.4993
26107SOL    HW280329   4.983   5.507   9.335 -0.7104  0.5719  1.2267
26108SOL     OW80330   6.374   3.618   0.938 -0.5094  0.3496  0.5947
26108SOL    HW180331   6.443   3.591   0.877 -0.8411  2.6705 -0.9508
26108SOL    HW280332   6.408   3.697   0.979 -0.6688 -0.6911  2.8547
26109SOL     OW80333   3.351   9.475   8.100 -0.4664  0.0127 -0.1474
26109SOL    HW180334   3.258   9.452   8.097 -0.8544  1.5436 -1.4107
26109SOL    HW280335   3.372   9.499   8.010  0.8313  0.8709  0.3670
26110SOL     OW80336   0.453   6.995   7.619 -0.0271  0.1715  0.7160
26110SOL    HW180337   0.500   7.078   7.614 -0.4100  0.4268  1.3452
26110SOL    HW280338   0.363   7.017   7.598 -0.5271  0.2740  2.8145
26111SOL     OW80339   3.743   2.540   6.366 -0.3966 -0.3420 -0.7528
26111SOL    HW180340   3.680   2.579   6.306 -3.4151  0.1455  2.4074
26111SOL    HW280341   3.779   2.615   6.414 -1.3729 -0.9057  0.9434
26112SOL     OW80342   5.513   6.738   1.504  0.4929  0.7408 -0.1715
26112SOL    HW180343   5.492   6.684   1.429 -1.3616  1.0288  0.0993
26112SOL    HW280344   5.573   6.684   1.556  0.3291 -0.1923 -0.9252
26113SOL     OW80345  10.983   0.903   9.521 -0.3117  0.2083 -0.0922
26113SOL    HW180346  11.003   0.838   9.453  0.1101  2.8274 -2.6936
26113SOL    HW280347  11.041   0.882   9.593  0.4024 -1.7618 -1.1635
26114SOL     OW80348   9.686   3.895   2.349 -0.2171 -0.1173 -0.0958
26114SOL    HW180349   9.724   3.953   2.415 -0.7190  0.1057  0.0058
26114SOL    HW280350   9.760   3.847   2.313  0.6260  2.3434 -1.9430
26115SOL     OW80351   0.719  10.673   2.954  0.1722  0.2990  0.0837
26115SOL    HW180352   0.668  10.634   2.884  0.6097  1.3416 -0.8551
26115SOL    HW280353   0.730  10.603   3.018  2.1850 -1.6677 -2.1683
26116SOL     OW80354   0.246   2.954   9.021  0.0552  0.3178  0.2627
26116SOL    HW180355   0.276   2.900   9.093 -1.3434 -0.5676  0.2221
26116SOL    HW280356   0.185   3.016   9.062 -0.3388  0.1532 -0.0628
26117SOL     OW80357   2.751   9.652   2.562 -0.4493  0.2691 -0.3430
26117SOL    HW180358   2.657   9.653   2.580 -0.4216  0.5227 -0.2124
26117SOL    HW280359   2.764   9.574   2.508 -0.5836 -0.2904  0.4283
26118SOL     OW80360  10.495   8.550  10.078  0.2170 -0.3194 -0.4412
26118SOL    HW180361  10.428   8.592  10.024 -0.5402 -0.4022  0.3876
26118SOL    HW280362  10.446   8.517  10.154  1.0319 -1.3593 -0.3428
26119SOL     OW80363   0.535   1.869   9.530 -0.2145 -0.0696 -0.4275
26119SOL    HW180364   0.612   1.876   9.473  0.6615  0.1986  0.7269
26119SOL    HW280365   0.518   1.959   9.558  0.7799 -0.3947  1.4457
26120SOL     OW80366   7.913   6.328   7.627  0.0233  0.6480  0.0789
26120SOL    HW180367   7.873   6.404   7.669 -0.9903  0.7106 -0.9443
26120SOL    HW280368   8.001   6.356   7.602  0.2317  0.9586  1.1419
26121SOL     OW80369   1.186   8.470   3.904  0.2446  0.0401 -0.6653
26121SOL    HW180370   1.256   8.408   3.883  1.0787  1.1584 -1.2770
26121SOL    HW280371   1.226   8.556   3.895 -0.3065  0.6955  2.2090
26122SOL     OW80372   3.345   8.824   9.786  0.2137 -0.2301 -0.3169
26122SOL    HW180373   3.385   8.844   9.702 -0.0238 -1.4681 -0.7381
26122SOL    HW280374   3.310   8.909   9.816 -0.1037  0.1476 -1.6722
26123SOL     OW80375   5.024   7.153   3.423 -0.4992 -0.4617 -0.5969
26123SOL    HW180376   5.099   7.106   3.460 -0.7497  0.0826  0.6793
26123SOL    HW280377   5.063   7.214   3.361 -0.1074 -1.7732 -1.6792
26124SOL     OW80378   9.960   9.218   8.004 -0.4500 -0.0206 -0.0701
26124SOL    HW180379   9.904   9.296   8.002  0.8445  0.9179 -0.8902
26124SOL    HW280380   9.998   9.213   7.916 -0.2861 -1.4215  0.0607
26125SOL     OW80381   9.554   3.182   7.327  0.2120 -0.2113  0.6310
26125SOL    HW180382   9.520   3.271   7.327  0.4524 -0.1113  1.7999
26125SOL    HW280383   9.554   3.156   7.234  0.6065  1.1600  0.2345
26126SOL     OW80384   0.602   9.146  10.908  0.6411 -0.5153 -0.0442
26126SOL    HW180385   0.602   9.122  10.815 -0.4159  2.3842 -0.9095
26126SOL    HW280386   0.684   9.193  10.921  0.2354  0.1644  0.1283
26127SOL     OW80387   6.037   2.323  10.811 -0.1743  0.6871  0.0049
26127SOL    HW180388   6.036   2.399  10.870 -0.9950 -0.3738  1.4234
26127SOL    HW280389   6.130   2.311  10.791  0.4813 -0.3020  3.0463
26128SOL     OW80390   3.940   9.256   4.923  0.0698 -0.8023 -0.0590
26128SOL    HW180391   3.948   9.221   4.834 -0.7079 -1.7173  0.2000
26128SOL    HW280392   4.029   9.277   4.949  0.3374 -0.7589 -0.9664
26129SOL     OW80393   7.041   5.289   5.546  0.1306 -0.8475  0.7731
26129SOL    HW180394   7.068   5.218   5.486  1.1099 -0.5454  0.8317
26129SOL    HW280395   7.049   5.369   5.493 -1.2622 -0.7853  0.6154
26130SOL     OW80396   5.911  10.198   1.876 -0.1918  0.0791  0.0322
26130SOL    HW180397   5.917  10.110   1.839 -2.6641  1.3846 -4.1227
26130SOL    HW280398   5.968  10.252   1.821 -1.8510  1.6829 -0.2127
26131SOL     OW80399   1.574   4.192   7.650 -0.3470 -1.2049 -0.2965
26131SOL    HW180400   1.620   4.276   7.647  0.2518 -1.4676  0.8075
26131SOL    HW280401   1.482   4.215   7.653 -0.2291 -0.6174 -0.9625
26132SOL     OW80402   4.805   7.551   1.278 -0.1608 -0.1850 -0.1342
26132SOL    HW180403   4.844   7.624   1.229 -1.0020  0.0377 -0.4856
26132SOL    HW280404   4.753   7.593   1.347 -1.1050 -0.4220 -0.6852
26133SOL     OW80405   0.606   5.997   5.354 -0.1815 -0.6434  0.1963
26133SOL    HW180406   0.580   5.910   5.325  1.4575 -0.8492 -0.8031
26133SOL    HW280407   0.701   5.996   5.350 -0.1325  1.6892 -1.4744
26134SOL     OW80408   0.851  10.885   5.651  0.5054  0.1081  0.0726
26134SOL    HW180409   0.913  10.873   5.579 -0.6096 -0.1834 -0.8784
26134SOL    HW280410   0.824  10.797   5.675 -0.8612  0.2723 -0.7492
26135SOL     OW80411   9.890   4.675   6.346 -0.4078  0.7266 -0.1746
26135SOL    HW180412   9.908   4.741   6.412 -0.0016 -0.6949  1.1941
26135SOL    HW280413   9.936   4.706   6.268 -1.5858  2.8581 -0.0979
26136SOL     OW80414   3.417  10.647   0.955 -0.8256  0.2563 -0.1682
26136SOL    HW180415   3.456  10.563   0.932 -3.1148 -0.5118 -1.6006
26136SOL    HW280416   3.444  10.706   0.884  1.0760  0.8900  1.0223
26137SOL     OW80417  11.085   4.013   5.279  0.8169 -0.4764  0.3402
26137SOL    HW180418  11.168   4.048   5.247  0.7699  0.0666  0.7865
26137SOL    HW280419  11.087   4.029   5.374  0.5599 -1.2116  0.4776
26138SOL     OW80420   2.700   7.332   2.079 -0.0479  0.2608  0.2545
26138SOL    HW180421   2.629   7.381   2.121 -0.1063 -0.0223  0.4926
26138SOL    HW280422   2.780   7.368   2.118 -0.0573  0.6012 -0.0360
26139SOL     OW80423   0.424   1.326  10.846  0.4031 -0.4065 -0.5944
26139SOL    HW180424   0.389   1.244  10.812  0.4415 -0.7540  0.1819
26139SOL    HW280425   0.382   1.394  10.793 -0.5845 -0.8729 -0.4289
26140SOL     OW80426   6.333   9.508  10.169  0.2394  0.4749 -0.8288
26140SOL    HW180427   6.351   9.495  10.262 -0.2047  0.4926 -0.7383
26140SOL    HW280428   6.248   9.465  10.155 -1.2223  3.0710 -0.5508
26141SOL     OW80429   4.978   9.202   1.106 -0.3065  0.2690 -0.3186
26141SOL    HW180430   4.896   9.225   1.151 -0.5238 -0.0122 -0.5621
26141SOL    HW280431   4.979   9.106   1.107  1.3449  0.2227  2.0666
26142SOL     OW80432   5.722   6.256   7.655 -0.1569  0.3168  0.3600
26142SOL    HW180433   5.688   6.325   7.599 -0.8011  1.4902  2.1077
26142SOL    HW280434   5.787   6.300   7.710  1.5600 -1.1137 -0.4170
26143SOL     OW80435   2.306   0.387   5.905 -0.0772  0.3940 -0.0161
26143SOL    HW180436   2.327   0.451   5.973  0.2620  1.0540 -0.7227
26143SOL    HW280437   2.372   0.402   5.837 -1.2733  0.7479 -1.1304
26144SOL     OW80438   7.306   2.552   8.351 -0.1555 -0.8001  0.1652
26144SOL    HW180439   7.385   2.500   8.336  0.3231 -0.5693  1.6931
26144SOL    HW280440   7.336   2.629   8.399 -1.0787  0.1425 -0.7122
26145SOL     OW80441   4.986   8.291   0.202 -0.3091 -0.1002 -0.2236
26145SOL    HW180442   5.058   8.273   0.263  0.8815  3.8271 -0.1970
26145SOL    HW280443   5.027   8.287   0.116 -0.8324 -0.8300 -0.4481
26146SOL     OW80444   8.771   8.794   0.312  0.6319  0.5037  0.3767
26146SOL    HW180445   8.681   8.823   0.296  0.1673 -1.0013  0.0721
26146SOL    HW280446   8.807   8.780   0.224  1.0539  0.7717  0.5049
26147SOL     OW80447   4.728   7.876  10.666  0.1904 -0.5319  0.1949
26147SOL    HW180448   4.758   7.954  10.619  2.4528 -1.6490 -0.3357
26147SOL    HW280449   4.639   7.862  10.633  0.1800  1.1030 -0.6026
26148SOL     OW80450   0.609  10.464   9.112 -0.0741 -0.4186 -0.0968
26148SOL    HW180451   0.697  10.463   9.148  0.9631  1.0438 -2.3761
26148SOL    HW280452   0.615  10.413   9.031 -1.3385 -0.3261 -0.2807
26149SOL     OW80453   5.421   1.882   8.571  0.0600  0.1931 -0.1694
26149SOL    HW180454   5.460   1.969   8.577  0.3420  0.0548  0.0734
26149SOL    HW280455   5.422   1.862   8.478 -1.2459  0.9904 -0.3773
26150SOL     OW80456   4.445   4.555   2.814 -0.0986  0.2000 -0.2097
26150SOL    HW180457   4.537   4.531   2.827 -0.7480 -1.4411  1.9130
26150SOL    HW280458   4.428   4.623   2.879 -1.3605 -2.4901  2.5243
26151SOL     OW80459   8.154   4.184   2.084  0.4482  0.4533 -0.1136
26151SOL    HW180460   8.249   4.180   2.084  0.4294 -0.1801  0.4814
26151SOL    HW280461   8.134   4.276   2.104  0.9357  0.1211  2.0454
26152SOL     OW80462   1.564   2.928   9.944 -0.2791  0.4447  0.2292
26152SOL    HW180463   1.563   2.995   9.876  0.6874  0.5775  0.3319
26152SOL    HW280464   1.651   2.889   9.938 -1.3862 -2.0816 -1.0565
26153SOL     OW80465   1.119  10.618   4.032  0.2690  0.1739  0.0984
26153SOL    HW180466   1.105  10.698   3.982 -2.2565 -0.2783 -0.0193
26153SOL    HW280467   1.209  10.625   4.064  0.8328  2.0080 -1.7223
26154SOL     OW80468   5.977   9.058   1.034 -0.2418  0.3094 -0.2988
26154SOL    HW180469   6.038   8.984   1.032 -1.2866 -0.5896 -0.5151
26154SOL    HW280470   6.019   9.123   1.089  0.2759 -0.8579  0.7401
26155SOL     OW80471   0.972   3.449   5.950  0.3829  0.3031  0.2852
26155SOL    HW180472   0.901   3.386   5.932  1.8878 -1.6634  0.9346
26155SOL    HW280473   0.956   3.478   6.039 -1.7019  2.8501 -0.7684
26156SOL     OW80474   1.875   2.692   0.500  0.2712  0.7743  0.7605
26156SOL    HW180475   1.849   2.684   0.592  0.4513 -0.1947  0.7363
26156SOL    HW280476   1.959   2.737   0.503  0.7079 -0.0517  1.1384
26157SOL     OW80477   4.213   5.719   8.633  0.3364 -0.3900  0.2603
26157SOL    HW180478   4.252   5.636   8.660  0.0302 -1.2894 -1.9079
26157SOL    HW280479   4.132   5.724   8.684  0.0746 -1.7099  0.0039
26158SOL     OW80480   2.464   6.966   2.468 -0.2193 -0.8411 -0.1484
26158SOL    HW180481   2.473   7.021   2.390 -0.8981 -0.8879 -0.2671
26158SOL    HW280482   2.387   7.000   2.513  0.8134 -0.0907  1.1076
26159SOL     OW80483   3.743   5.028   6.701  0.1847 -0.2610 -0.3059
26159SOL    HW180484   3.682   4.972   6.749  0.2700 -0.1236 -0.0327
26159SOL    HW280485   3.827   4.982   6.708  0.2380 -0.1410 -0.1509
26160SOL     OW80486   6.027  11.213   7.849 -0.8160 -0.3536 -0.1403
26160SOL    HW180487   6.052  11.256   7.931 -1.4921 -0.4759  0.1321
26160SOL    HW280488   6.008  11.285   7.789 -1.3606 -0.2674  0.1332
26161SOL     OW80489   6.332   7.147   4.731  0.1223 -0.6300 -0.3208
26161SOL    HW180490   6.283   7.206   4.788  0.3798 -0.5073 -0.2253
26161SOL    HW280491   6.313   7.059   4.765 -0.9517 -0.6786 -0.9927
26162SOL     OW80492   6.740   2.736   6.887  0.1330 -0.3693 -0.5408
26162SOL    HW180493   6.777   2.791   6.956 -0.7587  1.5616 -1.5182
26162SOL    HW280494   6.740   2.648   6.924  0.6490  0.4361  1.5105
26163SOL     OW80495   1.684   6.019   9.668 -0.1492 -0.0067 -0.1949
26163SOL    HW180496   1.659   6.047   9.580  1.2695  0.2669 -0.5180
26163SOL    HW280497   1.777   5.998   9.662 -0.2762 -1.0388  0.9843
26164SOL     OW80498   3.381   9.435   3.404 -0.1346  0.0740  0.1840
26164SOL    HW180499   3.440   9.361   3.419  0.9874  0.5755 -1.4104
26164SOL    HW280500   3.344   9.419   3.317  0.4369  1.5606 -0.3706
26165SOL     OW80501   2.515   0.356   1.081 -0.3378 -0.1694  0.1382
26165SOL    HW180502   2.480   0.321   1.162  0.3769 -1.4988 -0.0934
26165SOL    HW280503   2.477   0.301   1.012 -0.5749  0.6407 -0.3965
26166SOL     OW80504   2.013   7.112   3.515  0.2974 -0.1976 -0.4088
26166SOL    HW180505   1.958   7.191   3.515 -0.1561 -0.4732  0.9915
26166SOL    HW280506   2.045   7.105   3.426 -2.9667 -0.7450 -1.6883
26167SOL     OW80507   2.996   6.824   9.273  0.3021 -0.6320 -0.2687
26167SOL    HW180508   2.959   6.907   9.303  1.3722 -0.5022  0.7777
26167SOL    HW280509   2.929   6.759   9.293 -0.5364 -0.0400 -1.0669
26168SOL     OW80510   0.318   8.108  11.263  0.0418  0.4103  0.3540
26168SOL    HW180511   0.235   8.114  11.216 -1.3987  1.6900  2.8046
26168SOL    HW280512   0.369   8.184  11.233 -1.4135  2.0175  1.7167
26169SOL     OW80513  11.036   5.817   5.540 -0.5934 -0.1192  0.2138
26169SOL    HW180514  11.102   5.758   5.504  0.6872  1.6073 -0.3847
26169SOL    HW280515  10.989   5.850   5.463 -1.0300 -0.0675  0.5035
26170SOL     OW80516   9.765   9.385  10.204  0.1496  0.1642 -0.2846
26170SOL    HW180517   9.798   9.470  10.173  1.8449 -0.5219 -0.4501
26170SOL    HW280518   9.755   9.397  10.298  2.3107 -0.0175  0.0095
26171SOL     OW80519   2.581   6.789   9.456 -0.0385  0.1748  0.0785
26171SOL    HW180520   2.491   6.756   9.466 -0.3125  0.9504  0.2763
26171SOL    HW280521   2.578   6.877   9.493  1.2499 -0.4358  1.7583
26172SOL     OW80522   6.374   4.513   1.410  0.7276 -0.7875  0.2619
26172SOL    HW180523   6.397   4.437   1.357 -0.0802 -2.8494  2.6902
26172SOL    HW280524   6.278   4.514   1.410  0.7190 -0.5199  1.2698
26173SOL     OW80525   2.685   7.881   6.611 -0.0859  0.1550 -0.4464
26173SOL    HW180526   2.679   7.793   6.572  0.1780  1.3510 -3.5210
26173SOL    HW280527   2.682   7.866   6.705  1.0024 -3.2453 -0.8017
26174SOL     OW80528  10.299   2.693   9.378 -0.3152 -0.0985  0.0592
26174SOL    HW180529  10.269   2.782   9.360  0.7822  0.3162  0.1873
26174SOL    HW280530  10.242   2.662   9.448 -0.5351  0.6059  0.2013
26175SOL     OW80531   5.603  11.002   2.975  0.0993  0.0736 -0.1118
26175SOL    HW180532   5.561  11.076   2.931 -1.8099 -1.2600 -0.6765
26175SOL    HW280533   5.652  10.958   2.905 -2.0936 -1.4480 -0.8309
26176SOL     OW80534   9.401   8.819   1.664 -0.2843  0.8499  0.4286
26176SOL    HW180535   9.495   8.836   1.653 -0.0778 -0.0516  0.6890
26176SOL    HW280536   9.397   8.735   1.711 -1.1933  2.3303  3.1951
26177SOL     OW80537   5.174   0.267   7.033  0.0134 -0.2336 -0.2720
26177SOL    HW180538   5.129   0.197   6.985  2.8952 -0.9601 -2.1850
26177SOL    HW280539   5.267   0.248   7.021  0.9318  3.3910 -0.0299
26178SOL     OW80540   2.121   7.353   2.509 -0.0626 -0.0056 -0.7211
26178SOL    HW180541   2.110   7.291   2.581  1.3163 -0.4917 -0.9071
26178SOL    HW280542   2.094   7.437   2.547 -0.4858 -0.4564  0.0012
26179SOL     OW80543   8.503   4.215   5.166 -0.0994 -0.2200  0.5401
26179SOL    HW180544   8.533   4.124   5.171  0.4607 -0.0588  0.1749
26179SOL    HW280545   8.572   4.260   5.118 -0.8238  0.2106 -0.1048
26180SOL     OW80546   8.093   6.381   3.439  0.0646 -0.3297 -0.3867
26180SOL    HW180547   8.015   6.435   3.437 -0.3936 -0.8370  1.5684
26180SOL    HW280548   8.148   6.415   3.368 -1.1001  1.2704 -0.5704
26181SOL     OW80549   4.050   6.652   3.640 -0.2713  0.1004 -0.2710
26181SOL    HW180550   4.108   6.726   3.655  0.3558 -0.5301  0.4243
26181SOL    HW280551   4.020   6.664   3.549  0.3402  0.8314 -0.3869
26182SOL     OW80552   4.264   4.417   0.053 -0.4523  0.3452 -0.3510
26182SOL    HW180553   4.318   4.349   0.092  1.0856  1.0873 -1.1204
26182SOL    HW280554   4.260   4.485   0.121  0.4714  0.7331 -0.6703
26183SOL     OW80555   5.251   0.272   1.220  0.4777 -0.2113  0.8905
26183SOL    HW180556   5.244   0.364   1.192  1.1981 -0.3410  0.2373
26183SOL    HW280557   5.323   0.273   1.283 -0.4311 -0.1040  1.9473
26184SOL     OW80558   6.076   3.737   9.193  0.6875 -0.2671  0.2606
26184SOL    HW180559   6.068   3.681   9.270  4.1329 -1.3614 -0.0123
26184SOL    HW280560   5.989   3.774   9.181 -0.5773 -1.9669  3.1994
26185SOL     OW80561   1.992   3.344   8.493 -0.1702 -0.0627  0.5053
26185SOL    HW180562   2.046   3.419   8.519  0.1588 -0.2150  0.2598
26185SOL    HW280563   1.916   3.348   8.552 -1.0903  1.5391 -0.6980
26186SOL     OW80564   1.497   6.864   7.019  0.3474  0.1278 -0.1247
26186SOL    HW180565   1.407   6.833   7.008  0.5468  0.3237 -3.2859
26186SOL    HW280566   1.496   6.913   7.101 -2.4387  0.1691 -0.0858
26187SOL     OW80567   5.663  10.724   7.478  0.2891  0.2843 -0.3636
26187SOL    HW180568   5.654  10.803   7.424 -0.0686  0.1210 -0.5523
26187SOL    HW280569   5.697  10.755   7.561  1.9660  0.4023 -1.0676
26188SOL     OW80570   5.688   2.320   0.302  0.1279  0.0324 -0.3547
26188SOL    HW180571   5.661   2.232   0.275 -0.7664  0.2920 -0.3311
26188SOL    HW280572   5.610   2.359   0.340  0.7553  0.5235  0.4652
26189SOL     OW80573   0.232   7.032   6.711 -0.2743 -0.5629 -0.2357
26189SOL    HW180574   0.322   7.017   6.681 -1.3837 -3.2723 -2.6922
26189SOL    HW280575   0.210   7.118   6.676  1.2912  0.1636  0.4261
26190SOL     OW80576   2.606   8.374   7.646 -0.5944  0.0217 -0.1415
26190SOL    HW180577   2.608   8.292   7.596  0.1970  0.2069 -0.4423
26190SOL    HW280578   2.612   8.346   7.737  0.4405 -0.2548 -0.2702
26191SOL     OW80579   0.224   9.283   7.999 -0.1250 -0.0912  0.9301
26191SOL    HW180580   0.137   9.244   7.988 -1.4832  2.5857  1.4167
26191SOL    HW280581   0.279   9.237   7.935 -2.1892 -1.0036 -0.3005
26192SOL     OW80582   6.940   8.815   5.087 -0.1646  0.4446  0.2468
26192SOL    HW180583   6.923   8.767   5.168 -2.1750 -0.2734 -0.5345
26192SOL    HW280584   6.969   8.748   5.026  1.6766  1.0390  0.4231
26193SOL     OW80585   2.372   7.954   2.413 -0.2507 -0.0106 -0.6709
26193SOL    HW180586   2.316   7.885   2.378 -1.1955  0.0189  0.7078
26193SOL    HW280587   2.448   7.955   2.355 -0.8438 -1.2795 -1.5137
26194SOL     OW80588   2.287   1.011   8.549  0.3960 -0.9026 -0.7068
26194SOL    HW180589   2.295   0.968   8.634  2.0219 -1.5068 -1.1082
26194SOL    HW280590   2.196   0.999   8.524 -0.4759  0.5573  1.5640
26195SOL     OW80591   8.340   1.727   6.254  0.0074  0.4205 -0.1954
26195SOL    HW180592   8.289   1.778   6.191 -0.5675  1.1443  0.8228
26195SOL    HW280593   8.287   1.727   6.333  1.7444  1.5621  1.0468
26196SOL     OW80594   8.557   5.624   0.148 -0.4258  0.0468 -0.3717
26196SOL    HW180595   8.595   5.710   0.129  0.9168 -0.6530 -0.9810
26196SOL    HW280596   8.579   5.608   0.240 -2.3775  1.1531  0.3633
26197SOL     OW80597   3.857   7.301   7.395  0.0174 -0.0197  0.0670
26197SOL    HW180598   3.921   7.346   7.340  1.4806 -0.9208  0.9601
26197SOL    HW280599   3.803   7.371   7.431 -0.7272  0.6104 -2.1631
26198SOL     OW80600   1.818   3.828   8.551 -0.0739  0.5116  0.3577
26198SOL    HW180601   1.905   3.845   8.585  0.4045 -1.2366  0.1058
26198SOL    HW280602   1.830   3.824   8.456 -0.6630  1.4060  0.2318
26199SOL     OW80603   6.616   7.357   1.021 -0.3116 -0.1248 -0.2285
26199SOL    HW180604   6.555   7.338   0.950 -1.0176  0.0976  0.3044
26199SOL    HW280605   6.702   7.338   0.984 -0.6826 -0.2563 -1.0594
26200SOL     OW80606   9.524   1.350   1.656 -0.4097  0.1433 -0.0476
26200SOL    HW180607   9.538   1.444   1.645 -1.4365  0.3805  0.5053
26200SOL    HW280608   9.494   1.319   1.570  0.1831  0.2700 -0.2987
26201SOL     OW80609   4.454   9.360   2.567  0.3790 -0.2732  0.6023
26201SOL    HW180610   4.549   9.358   2.575  0.3098  1.0177  2.0929
26201SOL    HW280611   4.435   9.446   2.528 -0.2677  0.4464  2.4274
26202SOL     OW80612   9.235   3.512   5.090  0.4464  0.2695 -0.4419
26202SOL    HW180613   9.247   3.459   5.168 -1.1503 -1.3893 -1.2327
26202SOL    HW280614   9.314   3.496   5.037  2.0107  2.1894  1.1558
26203SOL     OW80615   2.095   2.577   4.157 -0.2191  0.8256  0.5820
26203SOL    HW180616   2.187   2.575   4.181  0.2383  0.2303 -1.1214
26203SOL    HW280617   2.071   2.485   4.146 -0.3863  1.0388 -1.1454
26204SOL     OW80618   1.156   5.582  11.226 -0.4606 -0.2189 -0.1749
26204SOL    HW180619   1.173   5.593  11.133  0.8200  2.5652  0.2851
26204SOL    HW280620   1.067   5.547  11.230  0.1022 -2.1395 -2.4124
26205SOL     OW80621   1.268   6.652   3.601  0.4694 -0.0879  0.1863
26205SOL    HW180622   1.230   6.576   3.558 -0.1798 -0.0151  0.6047
26205SOL    HW280623   1.345   6.674   3.549  0.9205 -1.2999  0.3263
26206SOL     OW80624   9.097   9.843   1.379  0.1519 -0.0255 -0.3665
26206SOL    HW180625   9.032   9.865   1.446  0.7562 -0.4978  0.3829
26206SOL    HW280626   9.046   9.803   1.309 -0.2418 -1.3979  0.6748
26207SOL     OW80627   1.804   4.208   5.866  0.0903  0.2285  0.2047
26207SOL    HW180628   1.731   4.165   5.910 -1.3372  0.4936 -1.7258
26207SOL    HW280629   1.870   4.140   5.856 -0.0881 -0.1607  1.5312
26208SOL     OW80630   2.398   8.065  11.228  0.8573  0.2033 -0.0413
26208SOL    HW180631   2.420   8.146  11.274  1.3931 -0.4333  0.8510
26208SOL    HW280632   2.458   8.000  11.263  1.2578 -0.3392 -1.6193
26209SOL     OW80633   6.219   3.696   2.699 -0.2450  0.7277  0.3034
26209SOL    HW180634   6.180   3.783   2.688 -1.2826  0.4518  1.5290
26209SOL    HW280635   6.157   3.637   2.656 -0.3622  0.4510  0.8419
26210SOL     OW80636   3.413   3.496   1.093 -0.2589  0.2870 -0.0237
26210SOL    HW180637   3.318   3.505   1.104 -0.3167  2.1115 -1.5154
26210SOL    HW280638   3.451   3.558   1.154  0.0687 -1.1754  1.3213
26211SOL     OW80639   2.920   4.290   3.663  0.0041 -0.3047 -0.3326
26211SOL    HW180640   2.838   4.303   3.711 -0.7597  0.6224 -1.8190
26211SOL    HW280641   2.972   4.368   3.682  0.3337 -0.6444  0.1827
26212SOL     OW80642   8.239   4.441   2.432  0.3420  0.7290 -0.1696
26212SOL    HW180643   8.271   4.353   2.411 -0.1756  0.8326 -1.4628
26212SOL    HW280644   8.302   4.474   2.496  2.7177  0.8114 -2.3895
26213SOL     OW80645   5.565  11.218   9.971  0.4967  0.3641 -0.1940
26213SOL    HW180646   5.657  11.202   9.991  1.3899  0.9847 -3.2783
26213SOL    HW280647   5.555  11.313   9.976 -0.9530  0.1896  3.3515
26214SOL     OW80648   1.659   3.223   0.964  0.5155 -0.2229  0.2832
26214SOL    HW180649   1.731   3.179   0.919  0.3784 -1.5474  1.3106
26214SOL    HW280650   1.689   3.231   1.055 -1.4484 -2.8451  1.2777
26215SOL     OW80651   1.972   2.616   5.579 -0.2982  0.0686 -0.0628
26215SOL    HW180652   2.017   2.566   5.648  0.6804  0.2724 -0.5406
26215SOL    HW280653   2.011   2.703   5.583 -0.4638  0.1733 -0.6678
26216SOL     OW80654   0.526   5.787   4.379  0.0478 -0.3029  1.0155
26216SOL    HW180655   0.613   5.800   4.416  0.5868  1.5404 -0.7677
26216SOL    HW280656   0.541   5.774   4.286 -1.6771  3.2070  0.0750
26217SOL     OW80657   2.822  10.772   8.704  0.1658  0.0764 -0.0191
26217SOL    HW180658   2.800  10.854   8.659 -0.3980 -1.2628 -2.3208
26217SOL    HW280659   2.796  10.703   8.643  0.1801 -1.8674  2.0502
26218SOL     OW80660   3.302   5.219   2.688  0.6376  0.4887  0.7425
26218SOL    HW180661   3.361   5.148   2.664  1.5745  1.5275 -0.1549
26218SOL    HW280662   3.221   5.200   2.642  0.4281 -0.6774  1.5601
26219SOL     OW80663   3.851   5.366   3.792 -0.3697  0.0426  0.0482
26219SOL    HW180664   3.781   5.370   3.857 -1.3910 -0.0324 -1.0327
26219SOL    HW280665   3.883   5.456   3.785 -2.7713  0.8418 -2.0023
26220SOL     OW80666   6.278  10.480   4.952 -0.2772 -0.7480 -0.6266
26220SOL    HW180667   6.277  10.421   4.876  0.0548 -1.4114 -0.1355
26220SOL    HW280668   6.344  10.546   4.930 -0.1231 -0.9815 -0.8782
26221SOL     OW80669   1.595   6.613   8.652 -0.0452 -0.0630  0.5589
26221SOL    HW180670   1.571   6.556   8.579 -1.0121 -0.3861  1.0995
26221SOL    HW280671   1.683   6.585   8.677 -0.2323 -0.8429  0.3611
26222SOL     OW80672   9.233   8.434   6.709  0.9308  0.4277 -0.1233
26222SOL    HW180673   9.263   8.454   6.620 -0.1078 -0.7640 -0.7643
26222SOL    HW280674   9.167   8.366   6.697 -0.9695  1.9079  1.3667
26223SOL     OW80675   6.810   8.373   0.959  0.3586 -0.2577  0.1249
26223SOL    HW180676   6.768   8.302   0.911 -0.1805  0.9401 -1.2849
26223SOL    HW280677   6.897   8.340   0.981 -0.7244 -2.2185  1.7282
26224SOL     OW80678   0.262   9.655   0.021 -0.0727  0.5763 -0.3416
26224SOL    HW180679   0.259   9.721  -0.047 -0.8348  1.2629  0.3405
26224SOL    HW280680   0.181   9.605   0.010  0.9325 -0.8851 -1.4529
26225SOL     OW80681   3.547   9.802   0.053 -0.0203  0.1520  0.3973
26225SOL    HW180682   3.567   9.880   0.105  1.6493  0.5027 -0.6905
26225SOL    HW280683   3.469   9.826   0.003  0.0368  0.8496  0.6347
26226SOL     OW80684   5.510   8.579   8.589 -0.0120 -0.0640 -0.8562
26226SOL    HW180685   5.605   8.569   8.601  0.3079  2.2330 -1.0595
26226SOL    HW280686   5.483   8.499   8.545  1.4471 -1.7251  1.0528
26227SOL     OW80687   6.983   3.366   1.306 -0.0433 -0.8882  0.3889
26227SOL    HW180688   7.072   3.363   1.270  1.2968  1.6283  3.0492
26227SOL    HW280689   6.987   3.309   1.383 -1.1296 -1.6040 -0.0510
26228SOL     OW80690  10.382   5.991   5.550  0.2804  0.3249 -0.2372
26228SOL    HW180691  10.474   6.009   5.571 -0.2101  0.7094  1.8535
26228SOL    HW280692  10.356   6.065   5.495  1.2218  0.1978 -0.8869
26229SOL     OW80693   5.898   0.842   6.648 -0.3094  0.3403 -0.1766
26229SOL    HW180694   5.884   0.931   6.681 -0.5887  0.1589  0.2000
26229SOL    HW280695   5.894   0.851   6.553 -0.1569  0.7596 -0.1464
26230SOL     OW80696  10.794   0.881  10.666  0.0699  0.1558 -0.0321
26230SOL    HW180697  10.771   0.842  10.582 -1.7124 -0.0101  0.4931
26230SOL    HW280698  10.710   0.891  10.712  1.0019  0.1485  1.7639
26231SOL     OW80699   9.857   1.988   2.086  0.8222 -0.0982 -0.0527
26231SOL    HW180700   9.828   1.909   2.042 -1.3651  1.2689 -1.2002
26231SOL    HW280701   9.944   2.005   2.050 -0.4259  0.3453 -3.1420
26232SOL     OW80702  10.168   6.925   4.305 -0.3813  0.0359 -0.1046
26232SOL    HW180703  10.135   6.838   4.284  1.0624 -0.5331 -0.1070
26232SOL    HW280704  10.244   6.937   4.249  1.0974  0.1498  1.8098
26233SOL     OW80705   7.906   5.302   0.278  1.1559 -0.2449 -0.9815
26233SOL    HW180706   7.874   5.337   0.194 -2.6338 -1.0118 -0.0335
26233SOL    HW280707   7.904   5.207   0.266  0.5786 -0.3577 -0.0669
26234SOL     OW80708   6.943   0.148   8.212 -0.0737 -0.1495 -0.2183
26234SOL    HW180709   6.962   0.109   8.126  1.6219  2.1230 -0.9854
26234SOL    HW280710   6.857   0.188   8.201  0.0256 -0.0797 -0.8122
26235SOL     OW80711   0.387   7.695   2.261 -0.0395 -0.5704  0.5894
26235SOL    HW180712   0.361   7.638   2.189 -1.5397  1.1884 -0.3478
26235SOL    HW280713   0.482   7.691   2.262 -0.0622 -1.9712 -0.3468
26236SOL     OW80714   5.467   6.301  11.137 -0.1316  0.0565 -0.1060
26236SOL    HW180715   5.427   6.356  11.070 -4.4300 -0.8655  1.3709
26236SOL    HW280716   5.475   6.215  11.096 -1.5095 -0.1816  0.0541
26237SOL     OW80717   1.476  10.033   9.599  0.3800 -0.1926 -0.1714
26237SOL    HW180718   1.513  10.093   9.664 -0.1176 -0.5412  0.4475
26237SOL    HW280719   1.472  10.084   9.518 -1.8717  1.2908  0.7831
26238SOL     OW80720   7.489   3.607   5.791  0.8974  0.4581  0.3264
26238SOL    HW180721   7.511   3.579   5.880 -0.0975 -0.3160  0.3427
26238SOL    HW280722   7.471   3.701   5.800  0.3188  0.2914  1.0404
26239SOL     OW80723   9.622   3.256   0.883  0.5976 -0.3693  0.2871
26239SOL    HW180724   9.632   3.317   0.810  1.2942 -1.1069 -0.2434
26239SOL    HW280725   9.544   3.287   0.929  2.2310  2.3349  1.4231
26240SOL     OW80726  10.596   0.200   5.727 -0.9183 -0.8357  0.5063
26240SOL    HW180727  10.656   0.229   5.659 -0.6557 -2.5238 -0.0327
26240SOL    HW280728  10.649   0.195   5.806 -0.3273 -2.1955  0.0594
26241SOL     OW80729   3.744   5.649   5.398 -0.6839 -0.0448  1.0248
26241SOL    HW180730   3.794   5.655   5.317  3.4029  0.1950  3.3359
26241SOL    HW280731   3.654   5.632   5.369  0.6949 -0.9805 -3.4701
26242SOL     OW80732   0.133   9.112   7.342  0.3816 -0.1325 -0.7619
26242SOL    HW180733   0.085   9.186   7.378 -1.2981 -1.0797 -0.9308
26242SOL    HW280734   0.194   9.087   7.410 -0.1247  0.4463 -0.0800
26243SOL     OW80735   2.951   3.876   4.280  0.1324 -0.3077  0.1517
26243SOL    HW180736   2.959   3.831   4.364  0.8573 -2.3087 -0.9083
26243SOL    HW280737   2.916   3.809   4.221 -0.6987  1.1543 -1.0740
26244SOL     OW80738   0.216   2.375   2.509  0.8191  0.3259  0.0097
26244SOL    HW180739   0.165   2.296   2.518 -0.0854  0.8896 -0.0638
26244SOL    HW280740   0.306   2.349   2.530  0.7218 -0.9479 -1.0492
26245SOL     OW80741   1.214   2.247   1.155  0.4457 -0.2118 -0.0394
26245SOL    HW180742   1.204   2.153   1.144 -3.4524 -0.0715  0.7846
26245SOL    HW280743   1.198   2.283   1.068  0.5723 -0.2666 -0.0851
26246SOL     OW80744   7.179   8.188   6.795  0.1347  0.1852 -0.0741
26246SOL    HW180745   7.088   8.158   6.793  0.4258 -0.7802  0.4518
26246SOL    HW280746   7.218   8.150   6.716  0.3008 -0.1594  0.1704
26247SOL     OW80747   2.063   0.788   9.128 -0.1424  0.1267  0.7706
26247SOL    HW180748   2.131   0.784   9.195  1.9410  2.0185 -1.0706
26247SOL    HW280749   2.024   0.874   9.138 -1.1488 -0.3105  0.7315
26248SOL     OW80750   4.424   3.849   1.774  0.2151  0.2270  0.2869
26248SOL    HW180751   4.441   3.863   1.681 -0.4357  0.3265  0.1801
26248SOL    HW280752   4.403   3.756   1.781 -0.9711  0.4763  0.1376
26249SOL     OW80753  10.034   4.425   5.285 -0.1537  0.1079 -0.0044
26249SOL    HW180754  10.092   4.349   5.283  0.9291  0.8372  1.5258
26249SOL    HW280755  10.067   4.483   5.216 -0.4339 -0.4051 -0.5792
26250SOL     OW80756   7.312   3.916   1.121  0.0218 -0.2421  0.6445
26250SOL    HW180757   7.403   3.887   1.131 -0.2153 -2.0390 -1.5512
26250SOL    HW280758   7.260   3.837   1.134 -1.0054  0.1321 -0.9096
26251SOL     OW80759   7.711   3.996   0.471  0.4606  0.0950  0.4946
26251SOL    HW180760   7.638   4.058   0.466 -0.1758 -0.7279 -3.1242
26251SOL    HW280761   7.729   3.973   0.380  2.5463 -2.8783  1.5155
26252SOL     OW80762  11.258   8.342   5.605  0.4238 -0.4491  0.7874
26252SOL    HW180763  11.198   8.267   5.602  0.8194 -0.7993 -2.6758
26252SOL    HW280764  11.332   8.311   5.657  0.0022 -2.0289  0.5068
26253SOL     OW80765   0.076   0.773   5.126 -0.2116 -0.3098 -0.4705
26253SOL    HW180766   0.117   0.836   5.185 -0.8186  0.0181 -0.3877
26253SOL    HW280767   0.147   0.740   5.072  0.7855 -2.1135  1.7524
26254SOL     OW80768  11.008   2.193   5.291  0.0743  0.1832 -0.3968
26254SOL    HW180769  11.015   2.120   5.230 -1.9616 -0.9368  0.5802
26254SOL    HW280770  10.941   2.250   5.253  1.3584  1.3642 -0.9486
26255SOL     OW80771   0.688   0.574   7.993 -0.0547  0.0628  0.2711
26255SOL    HW180772   0.666   0.611   8.079  1.6382  1.2176  0.2625
26255SOL    HW280773   0.687   0.480   8.006 -3.0360  0.0468  0.6905
26256SOL     OW80774   5.190   0.287   2.119 -0.2763 -0.5613  0.2642
26256SOL    HW180775   5.281   0.293   2.091  0.2169  1.0012  1.9880
26256SOL    HW280776   5.141   0.334   2.051 -0.1155 -2.9620 -1.6372
26257SOL     OW80777   8.628   1.618   4.048  0.6662 -0.5283 -0.0696
26257SOL    HW180778   8.702   1.608   3.988 -0.0410 -0.0701 -1.0408
26257SOL    HW280779   8.586   1.700   4.022 -0.7357 -1.2417 -0.1680
26258SOL     OW80780  10.524  11.245   9.600  0.2475  0.5524 -0.1155
26258SOL    HW180781  10.582  11.320   9.613  1.3540 -0.4457  0.9993
26258SOL    HW280782  10.500  11.217   9.688  1.0253 -1.2590 -0.4339
26259SOL     OW80783   2.778   0.142   9.433 -0.4129 -0.9603 -0.5050
26259SOL    HW180784   2.701   0.122   9.487  0.7517 -0.5647  1.3888
26259SOL    HW280785   2.804   0.230   9.460  0.1485 -0.6738 -1.8632
26260SOL     OW80786   9.731   0.961   9.756 -0.4449 -0.3069  0.2895
26260SOL    HW180787   9.814   0.950   9.710 -0.3139  0.6731  0.2747
26260SOL    HW280788   9.708   0.873   9.785  0.3533 -0.6628 -0.1253
26261SOL     OW80789   8.859   8.885  10.572  0.8933  0.2606 -0.0656
26261SOL    HW180790   8.866   8.790  10.572  2.8302  0.3157 -1.7962
26261SOL    HW280791   8.768   8.903  10.596  0.2530 -2.0441 -0.5428
26262SOL     OW80792   1.350   4.743   1.601  0.2727  0.6459  0.8360
26262SOL    HW180793   1.297   4.751   1.522  1.4246 -0.8519 -0.1542
26262SOL    HW280794   1.330   4.822   1.652 -1.0824  1.2651 -0.5719
26263SOL     OW80795   3.225   8.292   6.540 -0.2116  0.2818  0.2767
26263SOL    HW180796   3.151   8.347   6.568  0.3324  1.4636 -0.5037
26263SOL    HW280797   3.222   8.296   6.444  1.0795  0.6615  0.2306
26264SOL     OW80798   6.984   9.461   6.412 -0.3441 -1.2157  0.6023
26264SOL    HW180799   6.987   9.533   6.475 -1.1673 -3.1633  3.0450
26264SOL    HW280800   6.958   9.502   6.330  0.1037  1.3781  1.6468
26265SOL     OW80801   1.163   9.094   3.440 -0.1412  0.3213  0.8919
26265SOL    HW180802   1.090   9.086   3.501 -0.4897  2.5348  0.8456
26265SOL    HW280803   1.200   9.181   3.458  1.3691 -0.0398 -0.2886
26266SOL     OW80804  11.130   3.800   4.513  0.6607  0.0248  0.2769
26266SOL    HW180805  11.196   3.730   4.509 -0.5030 -1.2012  1.5035
26266SOL    HW280806  11.109   3.818   4.421  2.4907  0.2808 -0.1383
26267SOL     OW80807   3.050   6.153   2.183 -0.4382  0.4594  0.6274
26267SOL    HW180808   3.072   6.132   2.274 -1.0966 -0.5599  0.5672
26267SOL    HW280809   3.041   6.248   2.182  2.7568  0.8715  0.9160
26268SOL     OW80810   6.760   2.080   3.779  0.3205  1.0875  0.5012
26268SOL    HW180811   6.776   2.172   3.797  2.1235  0.6487  1.4845
26268SOL    HW280812   6.773   2.071   3.685  2.7824  1.4501  0.7212
26269SOL     OW80813   4.441   2.196   5.820 -0.1375  0.4942  0.3721
26269SOL    HW180814   4.478   2.263   5.762  1.1445 -1.4242 -1.1540
26269SOL    HW280815   4.347   2.197   5.802  0.0201  1.1147 -0.4563
26270SOL     OW80816   1.049   7.464   0.641 -1.0206  0.3932 -0.3933
26270SOL    HW180817   1.100   7.476   0.721  0.2992 -1.4619 -0.9016
26270SOL    HW280818   1.079   7.535   0.583  0.6994 -0.3762 -0.5058
26271SOL     OW80819   6.361   0.245   3.074  0.2126 -0.1169  0.1015
26271SOL    HW180820   6.386   0.177   3.136  1.5644  1.5181  1.4630
26271SOL    HW280821   6.444   0.276   3.038 -0.3639  0.8241 -0.4582
26272SOL     OW80822   3.836   5.854   3.626  0.4364  0.4954  0.0812
26272SOL    HW180823   3.891   5.819   3.556  0.1499  0.6749 -0.2294
26272SOL    HW280824   3.809   5.941   3.596 -0.5263  0.1657 -0.0421
26273SOL     OW80825   4.920   8.525   0.939  0.4124 -0.4068  0.8619
26273SOL    HW180826   4.867   8.449   0.913 -0.0246 -0.2310  1.2433
26273SOL    HW280827   4.942   8.509   1.031  1.8180 -0.9413  0.4729
26274SOL     OW80828   0.610   6.513   4.166  0.1207 -0.3936  0.3403
26274SOL    HW180829   0.600   6.606   4.147  0.9277 -0.6318 -1.4298
26274SOL    HW280830   0.634   6.510   4.259 -0.9159  1.0807  0.6870
26275SOL     OW80831   3.355   1.657   7.799 -0.1388 -0.1229  0.0366
26275SOL    HW180832   3.394   1.716   7.734 -0.3966  1.2447  1.0894
26275SOL    HW280833   3.321   1.715   7.867  0.4893 -1.5333  1.6226
26276SOL     OW80834   0.925   0.336   4.667 -0.8795  0.6295 -0.6092
26276SOL    HW180835   0.833   0.312   4.677 -0.7446 -0.6881 -2.1242
26276SOL    HW280836   0.973   0.273   4.721 -0.7328 -0.5039 -1.9978
26277SOL     OW80837   0.278   8.262   1.999  0.3410 -0.1779 -0.1477
26277SOL    HW180838   0.267   8.305   1.913 -0.9118 -1.9713 -0.9402
26277SOL    HW280839   0.201   8.288   2.048  1.6260  1.8370  0.9815
26278SOL     OW80840   2.512   6.769   5.258 -0.1822  0.0187  0.2907
26278SOL    HW180841   2.561   6.747   5.179  0.0427 -1.3694  0.7885
26278SOL    HW280842   2.423   6.785   5.228 -0.5548 -2.3839 -0.0781
26279SOL     OW80843   4.064   8.139   1.269 -0.0423  0.9623  0.3272
26279SOL    HW180844   4.052   8.109   1.360  0.1470  1.6753  0.5946
26279SOL    HW280845   4.005   8.214   1.261  0.9753  1.7773  0.3000
26280SOL     OW80846   9.135  10.012   4.331 -1.0291 -0.0833  0.7217
26280SOL    HW180847   9.181  10.085   4.371  1.4631 -0.0213 -1.9334
26280SOL    HW280848   9.073  10.053   4.271 -1.6039 -0.1721  1.2473
26281SOL     OW80849   1.537   0.996   2.189  0.0904 -0.1339  0.3438
26281SOL    HW180850   1.573   0.992   2.100 -2.0541 -0.1610 -0.5767
26281SOL    HW280851   1.488   0.915   2.198 -0.4240  0.2703  1.2455
26282SOL     OW80852   4.833   2.642  10.185  0.0486  0.2692  0.4909
26282SOL    HW180853   4.754   2.641  10.132  0.3336 -2.9186 -0.0367
26282SOL    HW280854   4.824   2.721  10.239 -3.5309 -0.0067  0.5318
26283SOL     OW80855   1.811   2.604   1.678 -0.8201 -0.4117 -0.2388
26283SOL    HW180856   1.870   2.534   1.652  0.5048  0.6027 -0.0719
26283SOL    HW280857   1.846   2.634   1.762 -0.5047  1.3452 -0.9538
26284SOL     OW80858   3.255   9.516   2.578 -0.0500 -0.3118  0.6080
26284SOL    HW180859   3.173   9.469   2.562 -0.1795  0.5378 -1.4912
26284SOL    HW280860   3.260   9.524   2.674 -2.7361  0.2182  0.7688
26285SOL     OW80861   9.182   7.492   0.078  0.0385  0.2876 -0.4019
26285SOL    HW180862   9.175   7.531   0.166  0.5016  0.6543 -0.5228
26285SOL    HW280863   9.136   7.409   0.085 -2.9520  1.7818 -0.7157
26286SOL     OW80864   6.374   8.826   6.402  0.1256  0.0347 -0.0769
26286SOL    HW180865   6.290   8.852   6.442  1.1000  0.9778  1.4389
26286SOL    HW280866   6.380   8.882   6.324 -1.0826 -0.7383 -0.7708
26287SOL     OW80867   9.191   0.481   8.139 -0.0893 -0.0285  0.5280
26287SOL    HW180868   9.248   0.408   8.116 -0.8066 -0.4187 -0.0606
26287SOL    HW280869   9.236   0.526   8.211 -0.8445 -2.5672  2.7603
26288SOL     OW80870   9.608   4.233   5.253  0.2419  0.2390 -0.2077
26288SOL    HW180871   9.570   4.306   5.205  1.2270  0.7256 -0.2669
26288SOL    HW280872   9.674   4.273   5.310 -0.9603 -0.3089  1.6593
26289SOL     OW80873   4.643   1.434   3.157 -0.1357  0.3435 -0.6060
26289SOL    HW180874   4.638   1.505   3.093  0.9401  1.0572  0.0709
26289SOL    HW280875   4.733   1.401   3.150  0.0923  0.6062  0.6801
26290SOL     OW80876   1.683   2.490   5.709 -0.5870 -0.5159 -0.2579
26290SOL    HW180877   1.665   2.460   5.798 -1.3168  1.4365  0.3125
26290SOL    HW280878   1.777   2.508   5.708 -0.9960  2.3588  1.1917
26291SOL     OW80879   9.818   9.010   8.951 -0.2860  0.3325 -0.2135
26291SOL    HW180880   9.816   8.991   9.045  0.3396  0.0147 -0.2607
26291SOL    HW280881   9.850   8.929   8.911  0.5462  0.8426 -0.6000
26292SOL     OW80882  10.622   1.425   9.687  0.7201  0.1427 -0.4731
26292SOL    HW180883  10.718   1.416   9.685  0.5292 -3.9565 -2.3112
26292SOL    HW280884  10.597   1.390   9.772  0.7969  1.6426  0.1988
26293SOL     OW80885  10.160   6.658   5.587 -0.0002  0.1800  0.0582
26293SOL    HW180886  10.228   6.725   5.593 -0.7249  0.8674  0.8325
26293SOL    HW280887  10.086   6.703   5.545 -0.1616 -0.4101 -0.2960
26294SOL     OW80888   4.648   8.356   0.399 -0.9954 -0.0311  0.0163
26294SOL    HW180889   4.557   8.338   0.378 -0.6833 -2.1030  0.2502
26294SOL    HW280890   4.654   8.343   0.493  0.2345 -3.6941 -0.4273
26295SOL     OW80891   0.089   5.892   8.286  0.0868 -0.3292 -0.8112
26295SOL    HW180892   0.044   5.859   8.208  2.0593  0.9455 -2.6340
26295SOL    HW280893   0.073   5.986   8.285 -0.3226 -0.3616  0.6831
26296SOL     OW80894   9.554   9.281   8.136  0.3552  0.4309 -0.5540
26296SOL    HW180895   9.620   9.350   8.134  1.3691 -0.4133  1.1295
26296SOL    HW280896   9.585   9.221   8.204 -1.6767 -0.4893 -0.3804
26297SOL     OW80897   0.271   3.638   8.878  0.8471  0.0618  0.6452
26297SOL    HW180898   0.346   3.666   8.826  0.4649  2.2544  1.1829
26297SOL    HW280899   0.307   3.623   8.966  0.6451  1.5245  1.0098
26298SOL     OW80900   3.003   7.366   8.915 -0.1550 -0.0424  0.5422
26298SOL    HW180901   3.074   7.309   8.885 -0.5345 -0.0285 -0.4275
26298SOL    HW280902   3.015   7.372   9.009  0.9549 -0.2905  0.4321
26299SOL     OW80903   5.854   4.394   5.236  0.4306 -0.1836  0.8063
26299SOL    HW180904   5.906   4.362   5.161  1.7360 -0.1903  1.6721
26299SOL    HW280905   5.840   4.486   5.218  1.8155  0.1132  1.1006
26300SOL     OW80906   1.089   9.264   9.391  0.2008 -0.0202  0.2153
26300SOL    HW180907   1.035   9.186   9.381  1.5982 -0.9151 -0.7416
26300SOL    HW280908   1.174   9.231   9.420  0.5842  1.2318  0.5902
26301SOL     OW80909   8.474   3.610   9.723  0.1333 -0.3136  0.3772
26301SOL    HW180910   8.568   3.610   9.739  0.3944  1.4143 -0.8934
26301SOL    HW280911   8.454   3.522   9.693  1.4153 -0.5948  0.3104
26302SOL     OW80912   7.414   4.976   7.440  0.8781 -0.0184  0.1712
26302SOL    HW180913   7.479   5.047   7.445 -2.5501  3.4591  1.1851
26302SOL    HW280914   7.332   5.021   7.417 -1.5723 -3.7447  0.7676
26303SOL     OW80915   5.083   1.656   5.591  0.4234 -0.2323  0.0261
26303SOL    HW180916   5.043   1.691   5.511 -2.1047  0.5019  1.5301
26303SOL    HW280917   5.167   1.703   5.597  0.6253 -0.1978 -2.0581
26304SOL     OW80918   1.545   8.685  10.258 -0.6081  0.4409 -0.7566
26304SOL    HW180919   1.639   8.668  10.260 -0.2540  2.0547  2.0060
26304SOL    HW280920   1.539   8.776  10.229 -1.2933  0.3903 -0.7726
26305SOL     OW80921   5.518   3.741   8.251  0.2458 -0.2489  0.2181
26305SOL    HW180922   5.517   3.712   8.160 -0.4556  1.7725 -0.4840
26305SOL    HW280923   5.427   3.735   8.280  0.5992 -1.7903  1.1532
26306SOL     OW80924   0.657   1.486  10.882 -0.8029 -0.3668  0.4096
26306SOL    HW180925   0.582   1.443  10.840  0.3275 -2.2497  0.2112
26306SOL    HW280926   0.681   1.427  10.954  1.9653 -1.1164 -0.9970
26307SOL     OW80927   3.783  10.017  10.793  0.1705  0.0654 -0.6334
26307SOL    HW180928   3.825  10.037  10.709 -0.3022  1.6425 -0.5246
26307SOL    HW280929   3.826  10.075  10.856  1.8096 -2.3788  0.6449
26308SOL     OW80930   6.721   0.019   4.867  0.6314  0.3429 -0.2249
26308SOL    HW180931   6.668   0.037   4.945 -1.2596 -0.7570 -1.1849
26308SOL    HW280932   6.728   0.104   4.824  1.5287  0.9230  0.9972
26309SOL     OW80933   1.928   1.301   9.643 -0.3486  0.4940  0.2012
26309SOL    HW180934   1.896   1.295   9.553  0.2408 -0.0063  0.0249
26309SOL    HW280935   2.019   1.329   9.635 -0.2476  0.3021  0.6355
26310SOL     OW80936   3.147   3.425   2.682  0.6601  0.2994 -0.2983
26310SOL    HW180937   3.178   3.515   2.693  0.8886 -0.0405  2.5377
26310SOL    HW280938   3.149   3.388   2.770 -2.7561 -1.4258 -0.7997
26311SOL     OW80939   6.914   2.532  10.703 -0.1595  0.0479  0.8233
26311SOL    HW180940   6.976   2.594  10.663  0.0643 -1.1489 -0.8026
26311SOL    HW280941   6.970   2.468  10.747 -0.3179  0.0565  1.0364
26312SOL     OW80942  10.579  11.145   3.169 -0.4758 -0.0828 -0.0749
26312SOL    HW180943  10.487  11.122   3.179 -2.0352  2.9935 -4.2991
26312SOL    HW280944  10.607  11.097   3.091 -0.4388  3.2455 -2.2805
26313SOL     OW80945   2.579   7.131  10.562  0.1670 -0.8047  0.3555
26313SOL    HW180946   2.499   7.120  10.511  0.2614 -2.1688  0.4544
26313SOL    HW280947   2.647   7.150  10.497 -0.1613 -0.0584  0.2300
26314SOL     OW80948   3.716   8.860   4.348  0.6788  0.1438 -0.0351
26314SOL    HW180949   3.768   8.905   4.282  0.3714 -1.0251 -1.1347
26314SOL    HW280950   3.626   8.887   4.329  0.2502 -2.1633 -1.8940
26315SOL     OW80951  11.266  10.131   1.801  0.0765 -0.6078 -0.1633
26315SOL    HW180952  11.216  10.083   1.735  0.0783 -0.2570 -0.4222
26315SOL    HW280953  11.324  10.188   1.751  0.3244 -0.5894  0.1400
26316SOL     OW80954   5.333   9.678   2.288 -0.9857 -0.0631 -0.7201
26316SOL    HW180955   5.348   9.754   2.233 -0.0982  0.1728 -0.1813
26316SOL    HW280956   5.398   9.614   2.259 -0.9134 -0.1545 -0.3683
26317SOL     OW80957   3.303   3.487   5.280 -0.5662  0.0508 -0.0740
26317SOL    HW180958   3.345   3.413   5.324 -2.1496 -1.0682 -0.3272
26317SOL    HW280959   3.366   3.558   5.286  1.9768 -1.8767 -1.6728
26318SOL     OW80960   3.420   5.877   2.745  0.2543 -0.6712 -0.2454
26318SOL    HW180961   3.426   5.787   2.715  0.5246 -1.1679  1.2077
26318SOL    HW280962   3.454   5.875   2.835 -0.3759  0.7465  0.0610
26319SOL     OW80963  10.318   1.400   8.255 -0.2904  0.5586 -0.3654
26319SOL    HW180964  10.261   1.430   8.325 -0.6718  0.4713 -0.6392
26319SOL    HW280965  10.378   1.338   8.297 -0.6562  0.3434 -0.1570
26320SOL     OW80966   0.436   0.757  10.595  0.0153 -0.1751  0.5520
26320SOL    HW180967   0.414   0.850  10.586  1.6129  0.1093 -0.8562
26320SOL    HW280968   0.373   0.724  10.659 -0.4505  1.9161  1.2525
26321SOL     OW80969   2.449   7.376   4.217  0.2523 -0.4448 -0.1062
26321SOL    HW180970   2.411   7.434   4.284  1.0617  0.6947 -0.6049
26321SOL    HW280971   2.375   7.323   4.188 -0.7110  0.8934 -0.1943
26322SOL     OW80972   0.125  10.252  10.521  0.1033  0.0808  0.0851
26322SOL    HW180973   0.152  10.172  10.475 -0.0274 -0.7612  1.4021
26322SOL    HW280974   0.206  10.289  10.555  0.0297 -0.2057  0.5744
26323SOL     OW80975   3.789   1.075   6.201  0.5474 -0.1392 -0.7372
26323SOL    HW180976   3.699   1.072   6.167 -0.2944  0.6196  1.3093
26323SOL    HW280977   3.838   1.121   6.133 -1.3057  2.3686 -0.5111
26324SOL     OW80978   8.077   0.167   8.350  0.1405  0.0953  0.6622
26324SOL    HW180979   8.132   0.234   8.389  1.4724 -0.8106  0.3926
26324SOL    HW280980   8.026   0.132   8.423  0.3017  0.5710  1.0080
26325SOL     OW80981   0.431   7.485   7.511  0.0701 -0.5239 -0.1707
26325SOL    HW180982   0.345   7.521   7.533  0.4795 -1.0822  2.6821
26325SOL    HW280983   0.490   7.561   7.512  0.0168 -0.4891  0.2727
26326SOL     OW80984   2.983   8.301   3.101 -0.4154  0.3103 -0.2580
26326SOL    HW180985   2.935   8.221   3.123  1.2179 -0.2792  1.4550
26326SOL    HW280986   2.917   8.371   3.105 -1.4925 -0.6994  0.1402
26327SOL     OW80987  10.442  11.258   5.159 -0.6970 -0.2968 -0.2146
26327SOL    HW180988  10.354  11.285   5.185 -0.7448 -2.8640  2.9637
26327SOL    HW280989  10.497  11.334   5.178 -2.1350  1.5425 -2.7480
26328SOL     OW80990   0.481   6.345   0.469  0.0119 -0.1708 -0.3559
26328SOL    HW180991   0.425   6.402   0.416  1.1563 -0.9712 -2.5615
26328SOL    HW280992   0.454   6.362   0.559 -2.7969  0.4990 -1.2120
26329SOL     OW80993   1.070   5.678   9.028 -0.0919 -0.1945 -0.2571
26329SOL    HW180994   1.024   5.754   8.992 -0.3708 -0.6651 -0.9291
26329SOL    HW280995   1.020   5.655   9.107  2.0159  2.4155  2.0227
26330SOL     OW80996   6.292   5.622   1.733 -0.4408 -0.3256  0.1587
26330SOL    HW180997   6.360   5.650   1.672  0.4253  0.2952  1.3504
26330SOL    HW280998   6.323   5.536   1.764 -0.6311 -0.4216  0.0833
26331SOL     OW80999   4.176   3.614   3.992 -0.1701  0.2067  0.4422
26331SOL    HW181000   4.119   3.691   3.985 -1.2038 -0.6312 -0.8625
26331SOL    HW281001   4.197   3.591   3.902  1.2543 -0.2481  0.8665
26332SOL     OW81002   6.263   3.333   0.963  0.2392  0.5548 -0.0375
26332SOL    HW181003   6.307   3.416   0.949  1.5423 -0.0860  0.0668
26332SOL    HW281004   6.201   3.326   0.890  0.3247  1.4658 -0.2104
26333SOL     OW81005   3.332  10.358   3.948  0.7311  0.3691  0.0675
26333SOL    HW181006   3.402  10.408   3.907 -0.5509 -0.6457 -3.7119
26333SOL    HW281007   3.259  10.419   3.956  0.1202 -0.0649 -1.8013
26334SOL     OW81008   8.647   3.084   6.533  0.0958 -0.6675 -0.6681
26334SOL    HW181009   8.622   2.992   6.526 -0.0090 -0.6865 -0.0824
26334SOL    HW281010   8.711   3.086   6.604 -2.6630  0.2133  2.0499
26335SOL     OW81011   1.449  10.759   7.234  0.2229 -0.2238  0.1592
26335SOL    HW181012   1.391  10.767   7.310  0.2228  0.0240  0.1335
26335SOL    HW281013   1.529  10.719   7.270 -0.2334 -1.2564  0.0547
26336SOL     OW81014   8.436   7.401   4.446 -0.5057 -0.3163 -0.2199
26336SOL    HW181015   8.398   7.362   4.526 -1.7387  0.5266 -0.3632
26336SOL    HW281016   8.503   7.462   4.479 -0.1977 -0.8277  0.1123
26337SOL     OW81017   0.436   4.602   6.302 -0.1926 -0.0761  0.4962
26337SOL    HW181018   0.356   4.603   6.354 -0.2079  0.6218  0.4685
26337SOL    HW281019   0.480   4.685   6.322 -1.1709  1.1867 -2.0365
26338SOL     OW81020   3.336   6.549   8.557  0.3117 -0.4767 -0.2448
26338SOL    HW181021   3.287   6.550   8.639  0.0625 -0.5673 -0.3920
26338SOL    HW281022   3.427   6.535   8.583  0.3166  0.1060  0.0542
26339SOL     OW81023   7.529   0.758   8.186 -0.4133 -0.0010 -0.7408
26339SOL    HW181024   7.503   0.697   8.116 -2.4930  0.0610 -0.1011
26339SOL    HW281025   7.524   0.845   8.145  1.3719 -0.1301 -1.3168
26340SOL     OW81026   5.932   0.434   5.276  0.5368  0.1104  0.2689
26340SOL    HW181027   5.978   0.505   5.231 -1.7867  0.8190 -1.1435
26340SOL    HW281028   5.885   0.389   5.206  0.8812 -2.0263  1.3413
26341SOL     OW81029   8.501   4.604   4.811 -0.0275 -0.5762  0.7698
26341SOL    HW181030   8.593   4.603   4.788 -0.3367  0.1091 -0.5639
26341SOL    HW281031   8.454   4.603   4.727 -1.2009  1.4223  1.3172
26342SOL     OW81032   2.005   1.894   0.131 -0.3374 -0.3918  0.3180
26342SOL    HW181033   2.006   1.850   0.046 -0.9837  1.1546 -0.5217
26342SOL    HW281034   1.943   1.843   0.183  0.8017 -1.9362  0.2203
26343SOL     OW81035   6.475   7.940  10.552  0.3210 -0.6597 -0.3780
26343SOL    HW181036   6.477   7.912  10.461  0.6878 -1.9101 -0.0046
26343SOL    HW281037   6.407   8.007  10.555 -0.7654 -1.6775 -1.2927
26344SOL     OW81038   9.393   8.542   2.225  0.4500  0.4393 -0.3467
26344SOL    HW181039   9.450   8.616   2.205  0.9953  0.3828  0.8957
26344SOL    HW281040   9.434   8.500   2.301 -1.7911  1.0090  1.2750
26345SOL     OW81041   9.253  10.158   7.618 -0.2584  0.1271  0.1643
26345SOL    HW181042   9.286  10.069   7.602  1.0759  0.7121 -0.4736
26345SOL    HW281043   9.330  10.214   7.614 -1.3642  1.6746 -2.1797
26346SOL     OW81044   3.321   7.582   9.249  0.4708  0.5602 -0.4506
26346SOL    HW181045   3.403   7.619   9.217 -0.0745 -0.3080 -3.0950
26346SOL    HW281046   3.253   7.637   9.211 -0.2132 -0.6120 -1.0097
26347SOL     OW81047   6.361  10.803   5.039  0.2378  0.1874  0.3072
26347SOL    HW181048   6.342  10.869   4.972  1.1796 -0.1710 -0.3255
26347SOL    HW281049   6.275  10.782   5.075 -0.0714  1.9209  0.7038
26348SOL     OW81050   4.359   8.784  10.343  0.1027 -0.1379  0.9109
26348SOL    HW181051   4.353   8.876  10.370  0.0673  0.5524 -1.3198
26348SOL    HW281052   4.385   8.738  10.423  1.6148  1.9946  1.7440
26349SOL     OW81053   1.144   9.848   3.937  0.6306 -0.5356  0.0544
26349SOL    HW181054   1.091   9.925   3.917 -1.0520 -1.4532  0.7610
26349SOL    HW281055   1.132   9.790   3.861 -1.1679 -1.6285  1.0929
26350SOL     OW81056   1.383   4.927  10.059  0.5226  0.6161 -0.0565
26350SOL    HW181057   1.289   4.909  10.056  0.6341  0.0760 -0.4893
26350SOL    HW281058   1.391   5.021  10.039  0.0010  0.9458  1.1867
26351SOL     OW81059   7.132   9.335   0.291  0.3759 -0.8376 -1.1134
26351SOL    HW181060   7.216   9.292   0.309  0.4752 -0.0815  0.3581
26351SOL    HW281061   7.122   9.329   0.196  2.3168 -0.5476 -1.3796
26352SOL     OW81062   2.217   0.306   4.301  0.5497  0.3458 -0.9060
26352SOL    HW181063   2.151   0.358   4.346  0.7964 -1.2873  1.5214
26352SOL    HW281064   2.300   0.350   4.321  0.5682  0.1400 -0.5190
26353SOL     OW81065  10.984   7.595   8.008 -0.5753 -0.4525  0.3334
26353SOL    HW181066  11.015   7.666   8.064 -1.8913 -0.1212  0.6546
26353SOL    HW281067  10.891   7.613   7.994 -0.1274  0.0436 -2.7595
26354SOL     OW81068   9.585   6.762   5.590 -0.0544  0.5409 -0.2290
26354SOL    HW181069   9.629   6.741   5.508  1.6166  2.2714  0.1770
26354SOL    HW281070   9.584   6.679   5.638 -0.2210 -0.2748 -1.5825
26355SOL     OW81071   4.212   2.819   4.128 -0.6459 -0.6199  0.1926
26355SOL    HW181072   4.156   2.796   4.201 -1.3427  0.9434  0.1799
26355SOL    HW281073   4.210   2.915   4.124 -0.9564 -0.6430 -2.0968
26356SOL     OW81074   6.671   1.661  10.857  0.2675  0.0860  0.4198
26356SOL    HW181075   6.671   1.566  10.863 -0.9241  0.1584  2.8641
26356SOL    HW281076   6.763   1.686  10.854  0.5929 -1.1103 -0.0522
26357SOL     OW81077   4.435  10.489   0.340 -0.1460 -1.0855 -0.0774
26357SOL    HW181078   4.403  10.402   0.315 -0.9450 -1.1067  0.9476
26357SOL    HW281079   4.466  10.479   0.430 -0.0366 -0.3674 -0.0268
26358SOL     OW81080   1.996   3.445   1.510  0.3888  0.2580 -0.4132
26358SOL    HW181081   1.968   3.512   1.573 -2.0935 -1.5668  0.5837
26358SOL    HW281082   1.949   3.467   1.430  0.4538  0.3296 -0.4323
26359SOL     OW81083   5.910   2.054   5.468 -0.0616  0.4205  0.5915
26359SOL    HW181084   5.986   2.112   5.459  0.6088 -0.5130  0.0290
26359SOL    HW281085   5.942   1.982   5.523 -0.3820 -0.2320 -0.0557
26360SOL     OW81086   3.314   4.079   9.337 -0.0430 -0.2703 -0.3528
26360SOL    HW181087   3.281   4.122   9.416  2.5719 -0.1527  0.7677
26360SOL    HW281088   3.332   4.151   9.276  0.3546 -0.1198 -0.0632
26361SOL     OW81089   5.061   3.718   1.050  0.2287  0.7141 -0.3059
26361SOL    HW181090   5.109   3.768   1.115 -1.3204  1.0252  0.6354
26361SOL    HW281091   5.095   3.629   1.059 -2.7868 -0.3046  4.0152
26362SOL     OW81092   0.480   6.584   3.833  0.0742  0.6881  0.2629
26362SOL    HW181093   0.434   6.599   3.750 -0.1076 -0.0005  0.2348
26362SOL    HW281094   0.537   6.660   3.843  0.9726  0.2292 -1.0804
26363SOL     OW81095   9.050   0.537   6.279 -0.3469  0.8315  0.3164
26363SOL    HW181096   9.055   0.588   6.199 -1.2828  0.7661  0.2080
26363SOL    HW281097   9.005   0.593   6.342  0.5577  0.9617  0.8756
26364SOL     OW81098   9.565   2.031   4.603 -0.0737 -0.1172  0.8047
26364SOL    HW181099   9.539   2.053   4.513 -0.7238 -2.0584  0.4712
26364SOL    HW281100   9.483   2.026   4.651  0.0783 -1.2059  0.9767
26365SOL     OW81101   9.592   7.177   0.669 -0.2390 -0.4366 -0.0690
26365SOL    HW181102   9.622   7.166   0.760 -0.2023  0.3960  0.0302
26365SOL    HW281103   9.552   7.264   0.668 -1.5438 -1.0313 -0.5113
26366SOL     OW81104   1.434   0.066  10.950  0.3015  0.1695 -0.6678
26366SOL    HW181105   1.376  -0.009  10.940 -0.3007  0.6942 -1.1551
26366SOL    HW281106   1.469   0.057  11.038  0.5635 -0.9092 -0.8645
26367SOL     OW81107   4.850   5.915   4.009 -0.5532  0.0253 -0.2503
26367SOL    HW181108   4.817   5.841   4.061  0.9453 -0.6634 -0.2050
26367SOL    HW281109   4.852   5.988   4.070 -0.9035 -0.2029  0.0406
26368SOL     OW81110   2.504   1.087   3.389 -0.3719  0.4983 -0.1234
26368SOL    HW181111   2.569   1.148   3.423  1.0295  0.1068 -1.9830
26368SOL    HW281112   2.527   1.003   3.428 -0.1799  0.4931 -0.2479
26369SOL     OW81113   0.599   4.626   8.378  0.4708  0.4261 -1.0470
26369SOL    HW181114   0.637   4.551   8.333  2.9219  0.9553 -0.0466
26369SOL    HW281115   0.529   4.589   8.432  2.0390 -1.3296 -0.0580
26370SOL     OW81116   0.717   4.126   7.974  0.3247 -0.4995  0.0988
26370SOL    HW181117   0.804   4.158   7.999  0.4518 -1.1502  0.4961
26370SOL    HW281118   0.700   4.168   7.889  0.7189  0.1862  0.3506
26371SOL     OW81119   5.497   9.165   0.175  0.0928 -0.7371  0.3040
26371SOL    HW181120   5.579   9.178   0.127  0.2577  0.6570  0.9209
26371SOL    HW281121   5.464   9.253   0.191 -1.4860 -1.2754  0.1644
26372SOL     OW81122   2.255   2.939  10.751  0.0594  0.3700 -0.4600
26372SOL    HW181123   2.175   2.970  10.793 -0.0225 -1.3590  0.7758
26372SOL    HW281124   2.239   2.846  10.736  2.1550 -0.2335  0.6858
26373SOL     OW81125   4.842   5.503   1.965 -0.1865  0.7070  0.0840
26373SOL    HW181126   4.890   5.425   1.937  0.0227  0.6450  0.6116
26373SOL    HW281127   4.836   5.557   1.886  0.4677  0.5717 -0.0653
26374SOL     OW81128   5.184   1.545   5.285  0.2555  0.1240  0.0331
26374SOL    HW181129   5.119   1.483   5.318  2.8404 -2.3437  0.8957
26374SOL    HW281130   5.206   1.599   5.361  1.4128 -1.1152  0.5971
26375SOL     OW81131   1.833   9.170   2.734  0.4123  0.0386  0.0348
26375SOL    HW181132   1.855   9.260   2.708  1.0553  0.3634  1.6299
26375SOL    HW281133   1.807   9.176   2.825 -1.2746 -1.1656 -0.3050
26376SOL     OW81134   9.086   1.992   7.895 -0.4129 -0.1670  0.3640
26376SOL    HW181135   9.172   2.002   7.934  0.3617  1.4814 -1.5840
26376SOL    HW281136   9.094   1.917   7.836 -0.1123  0.3663 -0.2800
26377SOL     OW81137  10.227   0.783   7.484  0.3980 -0.3227  0.1327
26377SOL    HW181138  10.132   0.778   7.500  0.4585  0.0733  0.6635
26377SOL    HW281139  10.266   0.744   7.562  0.6737 -0.8198 -0.2485
26378SOL     OW81140   5.099   6.448   0.510 -0.3726  0.5268  0.6374
26378SOL    HW181141   5.135   6.499   0.582  2.0940  0.5130 -0.4977
26378SOL    HW281142   5.145   6.479   0.433 -2.1344 -0.2544 -0.7995
26379SOL     OW81143   9.434   5.060   2.853  0.0848 -0.3581  0.2708
26379SOL    HW181144   9.490   4.999   2.900  1.5272  0.8660  0.1984
26379SOL    HW281145   9.421   5.020   2.767  0.3230 -0.9450  0.5055
26380SOL     OW81146   3.862   0.070   2.037 -0.3680 -0.7482 -0.5237
26380SOL    HW181147   3.835   0.021   1.959  2.5884  0.2293 -2.3488
26380SOL    HW281148   3.946   0.031   2.062 -0.9681 -0.6617  1.9039
26381SOL     OW81149   5.722   9.848   4.637 -0.3746  0.2033 -0.1726
26381SOL    HW181150   5.769   9.830   4.719  0.8042  0.9160 -0.6663
26381SOL    HW281151   5.635   9.810   4.650  0.1194 -0.5591  1.0320
26382SOL     OW81152   0.659   8.268   6.961  0.2259 -0.1542  0.3634
26382SOL    HW181153   0.600   8.303   7.028 -3.1316 -0.1001 -2.3794
26382SOL    HW281154   0.742   8.313   6.977 -0.6248  0.5067  3.8368
26383SOL     OW81155   5.230   1.961   8.147 -0.0042 -0.2486 -0.1826
26383SOL    HW181156   5.271   1.891   8.199  0.6963 -0.0946 -0.5064
26383SOL    HW281157   5.193   2.020   8.212 -1.1852 -1.2532  0.0770
26384SOL     OW81158   1.574   2.768   3.786 -0.1640  0.1555 -0.3664
26384SOL    HW181159   1.625   2.847   3.768  1.8931 -1.5957 -2.9067
26384SOL    HW281160   1.497   2.776   3.731 -0.4181  0.7697  0.0669
26385SOL     OW81161   5.044   0.319   0.229  0.2026 -0.3294  0.5024
26385SOL    HW181162   5.128   0.315   0.276  1.7056 -0.1040 -1.9971
26385SOL    HW281163   5.018   0.411   0.235  0.4406 -0.2771  0.7850
26386SOL     OW81164  10.138   8.500   3.804 -0.0624  0.0168  0.3585
26386SOL    HW181165  10.185   8.457   3.733 -0.1812  2.1310 -1.0880
26386SOL    HW281166  10.169   8.456   3.883  2.1584 -0.6104 -0.7739
26387SOL     OW81167   0.376   2.165   9.593  0.6550 -0.2310 -0.4842
26387SOL    HW181168   0.335   2.240   9.634 -1.3793 -2.1916  1.3333
26387SOL    HW281169   0.305   2.101   9.583  1.7984 -1.1846 -3.9609
26388SOL     OW81170   9.921   8.909  11.081 -0.1120 -0.8675 -0.0068
26388SOL    HW181171   9.979   8.877  11.012 -1.0337  0.1857 -1.3171
26388SOL    HW281172   9.893   8.829  11.128  0.4604 -1.6055 -0.8927
26389SOL     OW81173   2.118   1.081   3.607 -0.6045  0.3699 -0.9936
26389SOL    HW181174   2.058   1.128   3.550 -0.6382  0.7117 -0.6806
26389SOL    HW281175   2.174   1.032   3.547 -0.5666  0.8106 -1.3291
26390SOL     OW81176   7.758   4.453   9.140  0.1545 -0.1027  0.2048
26390SOL    HW181177   7.718   4.393   9.076 -1.8508  1.0146  0.3493
26390SOL    HW281178   7.788   4.396   9.211 -0.1568 -1.0888 -0.4399
26391SOL     OW81179   0.873   1.304   3.966 -0.0403 -0.4303 -0.3999
26391SOL    HW181180   0.851   1.349   3.885 -1.6394 -0.5935 -0.0890
26391SOL    HW281181   0.901   1.374   4.025 -0.6153 -0.0765 -0.5378
26392SOL     OW81182   9.320   2.564   7.173  0.1744 -0.4321 -0.5424
26392SOL    HW181183   9.351   2.607   7.253 -1.3908  0.9258 -0.6169
26392SOL    HW281184   9.244   2.615   7.146 -2.4230 -3.7379 -0.1627
26393SOL     OW81185   7.683   6.401   1.078 -0.1805  0.4439 -0.1130
26393SOL    HW181186   7.708   6.465   1.144 -0.8120 -0.8443  1.4507
26393SOL    HW281187   7.614   6.444   1.027  1.1905  1.9201 -0.8302
26394SOL     OW81188   7.201  10.310   0.527  0.2296 -1.1118  0.7001
26394SOL    HW181189   7.267  10.261   0.575  3.8158  0.7283 -1.8771
26394SOL    HW281190   7.168  10.248   0.461 -0.3048 -1.8865  1.6688
26395SOL     OW81191   6.564   6.503   1.560  0.0119 -0.0009 -0.4112
26395SOL    HW181192   6.623   6.560   1.510 -0.2572  0.0399 -0.6823
26395SOL    HW281193   6.507   6.464   1.494  0.0917 -0.4649 -0.2109
26396SOL     OW81194   4.070   1.798   1.266  0.2632  0.3825  0.3403
26396SOL    HW181195   3.993   1.795   1.209  0.0104  0.0652  0.6919
26396SOL    HW281196   4.052   1.871   1.325  0.6199  0.8438 -0.1162
26397SOL     OW81197   2.920   2.445   1.513 -0.2501 -0.2165  0.0476
26397SOL    HW181198   2.948   2.536   1.528 -0.1663 -0.3368  0.6531
26397SOL    HW281199   2.966   2.395   1.580  0.5333 -0.8660 -0.9560
26398SOL     OW81200   1.673   8.540   2.017 -0.5161 -0.0009 -0.5744
26398SOL    HW181201   1.700   8.536   1.925 -2.0303  0.4087 -1.0582
26398SOL    HW281202   1.581   8.512   2.016 -1.4911  2.8156  0.3893
26399SOL     OW81203  10.270   8.675   2.964  1.0774  0.3040  0.5168
26399SOL    HW181204  10.227   8.626   3.034 -0.8519  1.4061  0.1701
26399SOL    HW281205  10.350   8.625   2.946 -0.2473 -2.1331  0.8811
26400SOL     OW81206   7.244   5.501   8.803 -0.3997  0.2357  0.1001
26400SOL    HW181207   7.196   5.582   8.816  0.3499  0.7202 -0.0927
26400SOL    HW281208   7.296   5.516   8.724 -0.7570 -0.6755 -0.3227
26401SOL     OW81209   6.581   0.429   0.352  0.0049  0.1543 -0.3468
26401SOL    HW181210   6.672   0.440   0.379 -0.3116  0.8967  0.4664
26401SOL    HW281211   6.552   0.517   0.330 -0.3322 -0.1719 -1.2387
26402SOL     OW81212   1.210   0.715   9.084  0.4745 -0.2836  0.7915
26402SOL    HW181213   1.221   0.782   9.017  0.8064 -0.9550  0.1556
26402SOL    HW281214   1.134   0.664   9.054 -1.0396  0.9590  2.2823
26403SOL     OW81215   8.626  11.116   3.052  0.3845  0.8768  0.1743
26403SOL    HW181216   8.696  11.074   3.002  0.2148 -2.4249  2.3478
26403SOL    HW281217   8.554  11.052   3.050 -0.9644  2.2669  1.5257
26404SOL     OW81218   7.119   4.878   9.780 -0.3088  0.4378 -0.6326
26404SOL    HW181219   7.214   4.872   9.772 -0.1555  1.2713  0.2987
26404SOL    HW281220   7.104   4.895   9.873 -1.4546 -0.9910 -0.5177
26405SOL     OW81221   0.451   5.082  10.108 -0.0802  0.4074  0.0806
26405SOL    HW181222   0.536   5.049  10.080 -0.6899 -0.3253 -1.0009
26405SOL    HW281223   0.463   5.176  10.118  0.8863  0.2907  0.0570
26406SOL     OW81224   3.369   4.242   0.686 -0.7250 -0.1731  0.0225
26406SOL    HW181225   3.366   4.334   0.661 -1.8851 -0.1754  0.0895
26406SOL    HW281226   3.422   4.241   0.766  0.3535  0.2460 -0.6612
26407SOL     OW81227   2.411   3.651   1.417 -0.8009 -0.4426 -0.3731
26407SOL    HW181228   2.414   3.556   1.413 -2.8881 -0.7636  2.1389
26407SOL    HW281229   2.467   3.674   1.492 -1.8846  0.0518  0.3180
26408SOL     OW81230   0.167   4.953   5.394 -0.2112  0.0334  0.0289
26408SOL    HW181231   0.249   4.978   5.352 -0.2839 -0.8572 -0.6826
26408SOL    HW281232   0.099   4.986   5.335 -0.3799  0.8060  0.6372
26409SOL     OW81233   5.148   3.790   3.311 -0.0647  0.0534  0.1612
26409SOL    HW181234   5.098   3.738   3.374  2.7847 -1.1209  1.6565
26409SOL    HW281235   5.197   3.725   3.260  1.5871  1.1518  0.2658
26410SOL     OW81236   6.053   0.525   0.249 -0.1108  1.3692 -0.4033
26410SOL    HW181237   6.108   0.556   0.320 -1.4421  2.8392  0.0476
26410SOL    HW281238   5.998   0.458   0.289  0.9093  0.3072 -0.7193
26411SOL     OW81239   6.030   2.254   0.111 -0.0816  0.4208  0.5569
26411SOL    HW181240   6.040   2.209   0.027 -3.4965  1.0350 -0.3260
26411SOL    HW281241   6.048   2.345   0.091  1.8017  0.2162  1.1795
26412SOL     OW81242   4.763   0.403   6.910  0.3438  0.1659 -0.2659
26412SOL    HW181243   4.790   0.385   6.999 -0.1168  0.5899 -0.0329
26412SOL    HW281244   4.722   0.322   6.880 -0.1485  0.2502  0.1639
26413SOL     OW81245   6.832   8.973   7.165 -0.1274  0.6548  0.3383
26413SOL    HW181246   6.795   8.903   7.111 -0.9015  0.8431  0.6157
26413SOL    HW281247   6.787   9.052   7.137 -1.2658  0.6187  1.8979
26414SOL     OW81248   6.185   4.604   8.882  0.1807  0.4317 -0.3277
26414SOL    HW181249   6.090   4.610   8.886  0.2860  2.4554  0.6107
26414SOL    HW281250   6.204   4.510   8.886 -1.7015  0.0738  1.6196
26415SOL     OW81251   7.736   8.520   3.615  0.2391  0.1900 -1.0294
26415SOL    HW181252   7.797   8.451   3.640 -0.0695  0.0300 -0.7032
26415SOL    HW281253   7.702   8.493   3.530  0.7724  0.3820 -1.3076
26416SOL     OW81254   4.264   7.012   0.461  0.1519 -0.0706 -0.0204
26416SOL    HW181255   4.315   7.083   0.500 -0.9164  0.5498  0.2804
26416SOL    HW281256   4.173   7.030   0.487 -0.1270 -1.6098  0.1799
26417SOL     OW81257   0.712   0.631   9.586 -0.2584 -0.2745 -0.1491
26417SOL    HW181258   0.660   0.556   9.616 -1.3460  0.6310  0.3214
26417SOL    HW281259   0.687   0.642   9.494 -0.4431 -0.2087 -0.0910
26418SOL     OW81260   4.981   5.591   8.249 -0.5343 -0.8625 -0.1879
26418SOL    HW181261   4.950   5.509   8.208 -0.5349 -0.2702 -1.4192
26418SOL    HW281262   4.934   5.595   8.332 -0.8393 -1.9173 -0.2923
26419SOL     OW81263   5.819   5.945   0.132  0.0698  0.3864  0.3818
26419SOL    HW181264   5.884   6.011   0.108 -0.4251  0.5352 -0.5871
26419SOL    HW281265   5.798   5.901   0.049 -0.3271 -0.3273  0.8541
26420SOL     OW81266   7.905   5.667   0.173 -0.1710  0.1864 -0.4167
26420SOL    HW181267   7.920   5.758   0.147  1.4504  0.0700  0.0369
26420SOL    HW281268   7.984   5.642   0.220 -1.6137 -0.6977  1.6604
26421SOL     OW81269   4.573   1.059   5.538  0.1476 -0.2528  0.2324
26421SOL    HW181270   4.486   1.037   5.571  0.0755 -2.5001 -1.2433
26421SOL    HW281271   4.633   1.009   5.593  0.2492 -1.2448 -0.7379
26422SOL     OW81272   1.827   3.878   7.836 -0.1229 -0.6398  0.4238
26422SOL    HW181273   1.920   3.890   7.818  0.0560  0.9476  2.1552
26422SOL    HW281274   1.784   3.899   7.753  0.9700  0.5038  0.1117
26423SOL     OW81275   4.534   0.449   3.608 -0.0373 -0.0767 -0.3113
26423SOL    HW181276   4.524   0.355   3.591 -4.8904 -0.2418  1.6890
26423SOL    HW281277   4.615   0.455   3.659  1.5828 -2.7781 -2.3082
26424SOL     OW81278   4.230   2.290   9.419  0.4100 -0.5230 -0.6207
26424SOL    HW181279   4.178   2.235   9.477 -0.7716  1.2611  0.0869
26424SOL    HW281280   4.321   2.275   9.447 -0.1302  0.5837  2.0454
26425SOL     OW81281   7.626   5.572   9.250  0.2361 -0.0573 -0.3345
26425SOL    HW181282   7.569   5.602   9.321 -0.0808 -0.0447 -0.5886
26425SOL    HW281283   7.565   5.552   9.178  0.7037  1.8227 -1.2914
26426SOL     OW81284   5.610   5.956   0.663  0.4470  0.3373 -0.4331
26426SOL    HW181285   5.518   5.963   0.689  0.7149 -0.6956  0.9089
26426SOL    HW281286   5.643   6.046   0.666  0.1123  0.4382  1.6503
26427SOL     OW81287   7.043   0.078   4.218 -0.1547 -0.5869  0.5585
26427SOL    HW181288   6.974   0.017   4.245 -2.5480 -0.4145 -4.1407
26427SOL    HW281289   7.091   0.032   4.149  0.3915  1.4477 -0.5122
26428SOL     OW81290   2.151   9.968   5.329 -0.0450 -0.1090  0.1837
26428SOL    HW181291   2.158  10.062   5.311 -1.0460 -0.1236 -0.2774
26428SOL    HW281292   2.239   9.944   5.359 -0.0441  1.1929  1.3514
26429SOL     OW81293   6.545   5.064   8.686 -0.0030 -0.5081 -0.2054
26429SOL    HW181294   6.549   5.130   8.617  2.2668  0.7016  0.9475
26429SOL    HW281295   6.464   5.084   8.733 -1.3052 -1.0246 -2.1144
26430SOL     OW81296   6.673   4.382   6.075  0.1052  0.5402 -0.5482
26430SOL    HW181297   6.732   4.314   6.108 -1.3678  0.4704  2.2168
26430SOL    HW281298   6.595   4.334   6.046 -0.5509  0.9046  0.5228
26431SOL     OW81299   6.048   0.038  10.966  0.1837  0.0395  0.6318
26431SOL    HW181300   5.954   0.049  10.952  0.3888  1.2820  0.1159
26431SOL    HW281301   6.054  -0.026  11.038 -1.0237 -0.6023  0.2002
26432SOL     OW81302  10.190   2.071   7.500 -0.1280 -0.4719 -0.1581
26432SOL    HW181303  10.260   2.123   7.541  0.3331 -0.0814 -1.3924
26432SOL    HW281304  10.119   2.072   7.564  0.9712 -0.8394  1.1136
26433SOL     OW81305   9.171  10.211   7.370 -0.1116 -0.8069  0.4353
26433SOL    HW181306   9.223  10.265   7.429  0.2378  0.1818 -0.7436
26433SOL    HW281307   9.234  10.148   7.334  0.1841  0.0407 -0.5766
26434SOL     OW81308   0.614   3.120   7.876 -0.8106 -0.0476  0.0253
26434SOL    HW181309   0.674   3.166   7.934 -2.4327  0.6140  1.2639
26434SOL    HW281310   0.635   3.152   7.788  0.7093  0.0398  0.3953
26435SOL     OW81311   8.553  10.999   0.555  0.6314  0.3557  0.5068
26435SOL    HW181312   8.476  11.054   0.539  0.9820  1.3058  1.8747
26435SOL    HW281313   8.599  10.997   0.471 -0.1011  1.0338  0.0700
26436SOL     OW81314   5.542   3.651  10.672 -0.1170  0.0573 -0.4197
26436SOL    HW181315   5.482   3.578  10.690  0.2636 -0.1644 -0.0401
26436SOL    HW281316   5.538   3.705  10.750  0.5888 -0.2473 -0.1622
26437SOL     OW81317   9.322   6.445   0.184  0.0783  0.4041  0.1544
26437SOL    HW181318   9.288   6.422   0.270  1.4666  0.3617  0.7260
26437SOL    HW281319   9.397   6.386   0.172 -0.0332  0.4849 -1.0371
26438SOL     OW81320   6.262   9.165   7.992 -0.2010 -0.3791 -0.7158
26438SOL    HW181321   6.302   9.212   8.064 -1.5912 -0.5557  0.2266
26438SOL    HW281322   6.251   9.230   7.923 -0.6990  0.3053 -0.0020
26439SOL     OW81323   1.502   2.523   1.906  0.1535 -0.5874  0.3957
26439SOL    HW181324   1.501   2.576   1.826 -1.0700 -1.9368 -0.5523
26439SOL    HW281325   1.575   2.463   1.893  0.2264 -0.5188  0.4913
26440SOL     OW81326   4.498   8.706   6.487  0.6914 -0.0022 -0.0402
26440SOL    HW181327   4.466   8.791   6.519 -0.3034  0.4729 -2.0934
26440SOL    HW281328   4.509   8.653   6.566 -0.1263  1.5531  1.1784
26441SOL     OW81329   8.778   0.823   1.322  0.3630 -0.0538  0.0932
26441SOL    HW181330   8.821   0.741   1.296 -2.8847 -1.2143 -2.2342
26441SOL    HW281331   8.717   0.797   1.391 -1.1724  0.1890 -1.1204
26442SOL     OW81332  10.903   0.290   1.332 -0.3193 -0.2858  0.2058
26442SOL    HW181333  10.891   0.327   1.245 -0.8331 -0.5139  0.1749
26442SOL    HW281334  10.822   0.311   1.379 -0.7942 -1.6808  0.0678
26443SOL     OW81335   9.883   5.988   0.146 -0.7452 -0.0728  0.0239
26443SOL    HW181336   9.822   5.925   0.107  0.5027  0.3883 -2.9041
26443SOL    HW281337   9.839   6.072   0.139 -0.7670 -0.0681  0.2025
26444SOL     OW81338   7.280  11.241   0.823 -0.2619 -0.1498  0.0105
26444SOL    HW181339   7.223  11.194   0.884 -0.8363  1.3653  0.6951
26444SOL    HW281340   7.250  11.332   0.827  1.0627  0.3652 -0.9612
26445SOL     OW81341   8.454   1.883  10.310 -0.1097  0.1230  0.1482
26445SOL    HW181342   8.523   1.950  10.311 -0.5670  0.6129 -0.2787
26445SOL    HW281343   8.493   1.808  10.354  0.6901  0.4049 -0.0531
26446SOL     OW81344  10.849  10.221   7.295 -0.4154 -0.0505  0.1138
26446SOL    HW181345  10.928  10.272   7.313 -0.7166 -0.4526  3.0560
26446SOL    HW281346  10.810  10.207   7.381 -1.5620 -3.3096 -0.7909
26447SOL     OW81347   8.243   9.712   3.290 -0.2736 -0.7867  0.5747
26447SOL    HW181348   8.262   9.740   3.380 -1.2236  0.4883  0.3987
26447SOL    HW281349   8.167   9.654   3.298  1.5134 -3.2544  0.9042
26448SOL     OW81350   2.826   0.546  10.122 -0.1253  0.1600  0.3372
26448SOL    HW181351   2.852   0.629  10.081  0.1123 -0.8162 -1.5998
26448SOL    HW281352   2.777   0.501  10.054 -0.6352 -1.1148  1.5184
26449SOL     OW81353  10.783   5.477   4.425 -0.4973  0.3820 -0.0202
26449SOL    HW181354  10.732   5.535   4.481  1.1657  1.7164  0.1992
26449SOL    HW281355  10.773   5.390   4.465 -0.2515  1.1161  1.7394
26450SOL     OW81356   3.112   1.151  10.277 -0.4935 -0.4382  0.1661
26450SOL    HW181357   3.168   1.218  10.315  1.8453 -1.5611 -1.0568
26450SOL    HW281358   3.036   1.148  10.334 -0.5807  2.9918  0.4514
26451SOL     OW81359   4.579   4.200   1.914  0.0802 -0.3650 -0.2131
26451SOL    HW181360   4.530   4.261   1.858  0.1153 -0.8404 -0.7792
26451SOL    HW281361   4.666   4.238   1.921  1.0766 -1.8036 -3.1119
26452SOL     OW81362   1.131   3.973   0.124 -0.2000 -0.1867 -0.0690
26452SOL    HW181363   1.087   3.931   0.051  1.6319 -0.5624 -1.0041
26452SOL    HW281364   1.223   3.952   0.112  0.1272 -0.7512  2.6625
26453SOL     OW81365   8.365   8.731   9.821 -0.0385 -0.2336 -0.1022
26453SOL    HW181366   8.273   8.702   9.824  0.3941 -1.7000  0.0087
26453SOL    HW281367   8.409   8.664   9.768  1.0038  0.3745 -0.0290
26454SOL     OW81368   1.481  10.712   5.245  0.4701  0.2878  0.2402
26454SOL    HW181369   1.386  10.704   5.256  0.5685 -1.2338  0.1221
26454SOL    HW281370   1.516  10.635   5.289  1.5733  0.0967 -0.9458
26455SOL     OW81371   6.093   9.375   3.880 -0.4074  0.1395 -0.6158
26455SOL    HW181372   6.036   9.422   3.818  1.4123  2.6200 -0.5551
26455SOL    HW281373   6.181   9.403   3.858  0.6171 -1.6660  0.8939
26456SOL     OW81374   2.622   1.319   0.593 -0.0182 -0.3922 -0.7509
26456SOL    HW181375   2.650   1.402   0.555 -2.4251  1.0013  0.3170
26456SOL    HW281376   2.693   1.295   0.654 -0.0812  1.8467  0.2852
26457SOL     OW81377   1.254   1.126   3.183 -0.0170  0.3202 -0.3162
26457SOL    HW181378   1.295   1.193   3.128  1.8992  0.4086  1.1347
26457SOL    HW281379   1.226   1.058   3.121  0.7903  1.0593 -1.5282
26458SOL     OW81380   6.528   7.013   3.429  0.5796 -0.2535 -0.4528
26458SOL    HW181381   6.495   6.926   3.406 -1.1568 -0.3168  1.8640
26458SOL    HW281382   6.593   6.996   3.497 -1.4985  0.2272  1.8184
26459SOL     OW81383   3.607   7.173   8.551  0.6130  0.1769 -0.1959
26459SOL    HW181384   3.643   7.198   8.636 -0.4480  1.8387 -0.1953
26459SOL    HW281385   3.677   7.122   8.510  1.3707 -0.1506  1.4196
26460SOL     OW81386   6.168   9.577   5.005 -0.1443  0.6151  0.0453
26460SOL    HW181387   6.202   9.491   5.027 -0.5278 -0.2227 -2.2854
26460SOL    HW281388   6.246   9.632   4.992  0.1613  0.1036 -0.2940
26461SOL     OW81389  10.938   6.970   0.344  0.3286  0.0665 -0.9414
26461SOL    HW181390  10.858   6.993   0.297 -0.5707  0.8832  0.8761
26461SOL    HW281391  10.945   7.036   0.413  0.9726 -1.6690  0.7478
26462SOL     OW81392   3.208  10.616   2.272  0.2487  0.1752  0.3068
26462SOL    HW181393   3.125  10.588   2.234 -0.9454  1.3984  1.8564
26462SOL    HW281394   3.273  10.601   2.204 -1.4964  0.6294 -1.5285
26463SOL     OW81395   7.791   8.857   1.510 -0.2073  0.6792 -0.8492
26463SOL    HW181396   7.857   8.923   1.530  0.4398  0.2315 -1.4622
26463SOL    HW281397   7.709   8.894   1.543  0.2464  1.5191 -0.6462
26464SOL     OW81398   4.104   5.280   4.162  0.1135 -0.1204  0.1100
26464SOL    HW181399   4.190   5.242   4.177  0.1774  0.2900  0.8404
26464SOL    HW281400   4.058   5.269   4.245  0.5913  2.5328  0.8390
26465SOL     OW81401   3.300   4.932   8.551 -0.0237  0.0145 -0.2894
26465SOL    HW181402   3.342   4.880   8.619  0.4006  0.2638 -0.3567
26465SOL    HW281403   3.357   5.008   8.540 -1.0804  0.9633  0.4354
26466SOL     OW81404   1.922   2.465   3.739 -0.5789  0.2118  0.1986
26466SOL    HW181405   1.995   2.464   3.801 -2.0768  0.3384  2.0542
26466SOL    HW281406   1.928   2.380   3.694  1.6595  0.8908 -0.9474
26467SOL     OW81407  10.793   9.871   1.055  0.4585  0.0097  0.6738
26467SOL    HW181408  10.758   9.946   1.102 -1.0580 -2.0076  2.9731
26467SOL    HW281409  10.807   9.903   0.966 -1.9064  2.4945  1.0769
26468SOL     OW81410  10.008   1.281   6.233  0.1552 -0.4615  0.6135
26468SOL    HW181411  10.017   1.245   6.144  0.8396 -0.9923  0.8840
26468SOL    HW281412  10.082   1.341   6.242 -0.9693  1.0573  0.1748
26469SOL     OW81413   7.972   0.945   2.043 -0.1388  0.6359  0.3879
26469SOL    HW181414   7.946   0.910   2.128  0.8347  1.5498  1.0949
26469SOL    HW281415   7.946   0.877   1.980 -0.1887 -0.4015  1.4826
26470SOL     OW81416   2.439   3.502   2.160  0.7357 -1.0124 -0.2485
26470SOL    HW181417   2.370   3.537   2.103  1.7686  2.1775  0.2724
26470SOL    HW281418   2.508   3.476   2.099  0.5390 -0.6897 -0.6200
26471SOL     OW81419   8.135   9.171   3.208 -0.3263 -0.3469  0.3409
26471SOL    HW181420   8.052   9.217   3.216 -0.8696 -1.4157  0.9835
26471SOL    HW281421   8.114   9.079   3.222  0.4909 -1.0423 -2.3580
26472SOL     OW81422   2.868   0.939   3.377 -0.6963  0.1539 -0.3737
26472SOL    HW181423   2.861   0.922   3.471 -2.3336  0.0677 -0.4765
26472SOL    HW281424   2.817   1.019   3.364  1.0070  1.1945 -0.9526
26473SOL     OW81425   1.755   7.460   9.889  0.6950  0.0084  0.2817
26473SOL    HW181426   1.834   7.407   9.888  0.8354  0.2268 -0.1429
26473SOL    HW281427   1.782   7.541   9.932  0.4908 -0.2392  0.8930
26474SOL     OW81428   9.576  11.285   8.233 -0.0486  0.3481 -0.1147
26474SOL    HW181429   9.589  11.336   8.153 -2.6796  0.5634 -0.4944
26474SOL    HW281430   9.593  11.195   8.207  0.0786  0.5221 -0.6522
26475SOL     OW81431   0.061   2.189  10.527  0.1609  0.2491 -0.3614
26475SOL    HW181432   0.098   2.151  10.448 -0.1845 -1.5561  0.3007
26475SOL    HW281433  -0.000   2.122  10.559 -0.4089  1.3404  0.9131
26476SOL     OW81434   3.605  10.271   9.001 -1.2193  0.0674 -0.2121
26476SOL    HW181435   3.612  10.250   8.908 -1.3354 -0.2654 -0.1437
26476SOL    HW281436   3.512  10.271   9.020 -1.2915  1.5451 -0.4207
26477SOL     OW81437   9.673   0.896   7.853 -0.4076 -0.1386  0.2941
26477SOL    HW181438   9.631   0.907   7.767  0.3344 -0.4441 -0.1255
26477SOL    HW281439   9.683   0.801   7.862 -0.0631 -0.0825  0.5040
26478SOL     OW81440   9.048  10.136   5.569  0.4258 -0.0373 -0.0977
26478SOL    HW181441   9.067  10.141   5.663  0.5408 -0.2890 -0.1085
26478SOL    HW281442   9.053  10.043   5.548  0.9395  0.0711 -0.4656
26479SOL     OW81443   5.860   7.681  10.153  0.2615  0.2151 -0.1710
26479SOL    HW181444   5.950   7.685  10.121 -0.2048 -1.8223 -2.0213
26479SOL    HW281445   5.866   7.641  10.240  1.1944  1.1345  0.2043
26480SOL     OW81446   0.124  10.984   0.946  0.5830  0.7723  0.2559
26480SOL    HW181447   0.100  10.963   1.036 -0.8945 -0.0332 -0.2981
26480SOL    HW281448   0.218  10.966   0.942  0.5865  0.3952  1.5062
26481SOL     OW81449   6.257   9.665   7.973  0.2634 -0.1670 -0.0651
26481SOL    HW181450   6.278   9.572   7.963  0.5549  0.0277 -1.4347
26481SOL    HW281451   6.227   9.673   8.064 -0.1189 -1.6583 -0.0365
26482SOL     OW81452  11.029   5.892   9.828  0.5627 -0.0815  0.2825
26482SOL    HW181453  11.043   5.824   9.761 -0.0923 -0.3052  0.3727
26482SOL    HW281454  10.961   5.948   9.791  1.5654  0.9321 -0.0894
26483SOL     OW81455   7.606   9.065  10.989 -0.0674 -0.0699 -1.0868
26483SOL    HW181456   7.585   9.027  11.074  1.3614  0.1590 -0.6047
26483SOL    HW281457   7.697   9.041  10.973  0.3592  1.6656 -1.5603
26484SOL     OW81458   8.051   9.836   4.422  0.3287  0.0989 -0.9012
26484SOL    HW181459   8.079   9.887   4.346  2.5452  1.1775  0.5105
26484SOL    HW281460   8.039   9.902   4.491 -2.0132 -0.8018 -0.3688
26485SOL     OW81461   4.007   2.189  10.530  0.5066 -0.7025 -0.3437
26485SOL    HW181462   4.084   2.222  10.484 -0.0949 -0.3408 -1.1149
26485SOL    HW281463   4.008   2.234  10.614  0.0054  0.8797 -1.1614
26486SOL     OW81464   6.826   9.546   0.205  0.0872 -0.1357 -0.1254
26486SOL    HW181465   6.864   9.515   0.288 -0.6827 -0.3361  0.1707
26486SOL    HW281466   6.785   9.468   0.168 -3.7360  0.7645  1.6437
26487SOL     OW81467   0.279   1.067   1.876 -0.2036  0.0963  0.1768
26487SOL    HW181468   0.251   1.020   1.797  1.3576 -0.9937  0.2124
26487SOL    HW281469   0.373   1.081   1.863  0.4366 -1.5246  2.4943
26488SOL     OW81470   3.754   6.878   4.607  0.5077 -0.5266  0.3846
26488SOL    HW181471   3.797   6.942   4.664  0.8731 -1.7356  1.5238
26488SOL    HW281472   3.772   6.908   4.518  1.5776  0.3716  0.8812
26489SOL     OW81473   6.217   4.920   8.200 -0.2586 -0.5814 -0.7709
26489SOL    HW181474   6.273   4.844   8.182 -0.3223 -1.0727  0.9653
26489SOL    HW281475   6.275   4.982   8.244 -0.5537 -0.1869 -0.9336
26490SOL     OW81476   3.424   5.071   4.279  0.6410 -0.4358 -0.0497
26490SOL    HW181477   3.480   5.126   4.334  1.0421 -1.3056  0.4411
26490SOL    HW281478   3.447   4.981   4.304 -1.8525 -0.8561  1.0838
26491SOL     OW81479   3.246   8.745   8.882  0.1800  0.3573 -0.0227
26491SOL    HW181480   3.163   8.712   8.847  1.2531 -2.8681  0.0827
26491SOL    HW281481   3.223   8.778   8.969 -1.0400 -0.3838 -0.0292
26492SOL     OW81482   7.202  10.433   5.044  0.0781  0.0317 -0.1569
26492SOL    HW181483   7.231  10.409   5.132 -0.5568 -0.3711 -0.0481
26492SOL    HW281484   7.139  10.504   5.057  2.3734  2.2825 -0.5164
26493SOL     OW81485   7.273   7.200  10.540 -0.6316  0.3352  0.5300
26493SOL    HW181486   7.251   7.117  10.497 -0.0015  0.3893  0.0958
26493SOL    HW281487   7.193   7.253  10.532  0.0572  1.0931 -2.3441
26494SOL     OW81488   0.044   0.525   5.492  0.1426  0.0091 -0.1273
26494SOL    HW181489   0.069   0.617   5.488 -0.2366  0.0660 -2.4567
26494SOL    HW281490  -0.048   0.527   5.518 -0.6536  0.5194 -2.7124
26495SOL     OW81491   8.680   0.595   7.182 -0.2295 -0.7327  0.1967
26495SOL    HW181492   8.667   0.578   7.276  1.2445 -1.9949  0.2106
26495SOL    HW281493   8.775   0.604   7.172 -0.5017  3.4732 -0.5822
26496SOL     OW81494   3.872   4.365   9.283 -0.1031 -0.0125  0.6944
26496SOL    HW181495   3.963   4.366   9.253 -0.2061 -1.6357  0.2333
26496SOL    HW281496   3.878   4.374   9.378  0.6440 -1.3569  0.8023
26497SOL     OW81497  10.768   2.290   2.762  0.1079  0.1485 -0.1051
26497SOL    HW181498  10.681   2.305   2.726  0.7733 -0.3515 -2.0036
26497SOL    HW281499  10.826   2.289   2.686  1.4564 -1.8726  0.8574
26498SOL     OW81500   9.945   7.435   9.737 -0.0491  0.5266 -0.6086
26498SOL    HW181501   9.900   7.406   9.817 -0.4796  3.1609  0.1817
26498SOL    HW281502   9.875   7.443   9.672  0.1063 -0.3390 -0.8992
26499SOL     OW81503   1.536   2.847  10.306 -0.2272 -0.0793 -0.0030
26499SOL    HW181504   1.609   2.796  10.270 -1.8689 -1.8453 -1.0400
26499SOL    HW281505   1.496   2.889  10.230  0.5763  2.1992  0.7404
26500SOL     OW81506   9.037   4.712   4.615 -0.0327  0.0749  0.4767
26500SOL    HW181507   9.054   4.753   4.531  2.0840 -2.2145 -0.3146
26500SOL    HW281508   9.111   4.738   4.670 -0.5106  0.1472  1.0959
26501SOL     OW81509   5.029   5.471   3.503 -0.3596  0.2515  0.3426
26501SOL    HW181510   4.997   5.478   3.593 -1.8871 -2.0321  0.0589
26501SOL    HW281511   5.108   5.416   3.510 -1.2442 -1.0833  0.1941
26502SOL     OW81512   7.579   3.832   1.139 -0.6901 -0.4407  0.1914
26502SOL    HW181513   7.666   3.859   1.110 -0.8827 -3.0618 -3.5615
26502SOL    HW281514   7.595   3.765   1.205 -0.0569  1.3798  1.9917
26503SOL     OW81515   2.283   1.842   5.608 -0.4970 -0.7594 -0.1496
26503SOL    HW181516   2.248   1.868   5.693 -0.6423 -2.8250  0.4943
26503SOL    HW281517   2.239   1.899   5.545 -5.0145 -2.9793  0.6049
26504SOL     OW81518   8.617   2.793   4.352  0.2838 -0.0061 -0.1181
26504SOL    HW181519   8.615   2.876   4.398 -1.6043  1.7775 -3.0861
26504SOL    HW281520   8.526   2.778   4.325  1.0510 -1.5526 -2.0950
26505SOL     OW81521   0.458  10.831   0.392  0.4562  0.2556  0.2519
26505SOL    HW181522   0.409  10.829   0.311  0.3970 -0.5049  0.3005
26505SOL    HW281523   0.469  10.924   0.411 -0.4053  0.4356 -0.0875
26506SOL     OW81524  10.356   5.727   0.761 -0.0705  0.0499 -0.0621
26506SOL    HW181525  10.273   5.704   0.719 -0.7014 -0.5147  1.4216
26506SOL    HW281526  10.352   5.685   0.847 -0.0218  3.3315  1.6888
26507SOL     OW81527   3.246   1.353  11.061  0.8171  0.2322 -0.0111
26507SOL    HW181528   3.221   1.263  11.084  1.1536  0.6277  2.1769
26507SOL    HW281529   3.332   1.364  11.102  0.3959  1.8236  0.5133
26508SOL     OW81530   0.564  11.017   8.798  0.4690  0.0173 -0.1772
26508SOL    HW181531   0.567  10.986   8.708 -0.1027 -0.5132 -0.0194
26508SOL    HW281532   0.486  11.072   8.802 -0.2485 -1.0059  0.3091
26509SOL     OW81533   4.777   1.628   8.919 -0.2175 -0.0955 -0.2547
26509SOL    HW181534   4.761   1.699   8.981  0.0566 -1.0190  0.9204
26509SOL    HW281535   4.836   1.569   8.965 -1.5483 -1.8148 -0.6243
26510SOL     OW81536   9.831   6.304   9.900 -0.2369 -0.1292  0.4417
26510SOL    HW181537   9.861   6.359   9.829  2.4682  0.0939  1.6477
26510SOL    HW281538   9.827   6.216   9.863  1.7125 -0.1126  0.1202
26511SOL     OW81539  10.263   0.079   6.119  0.0481  0.3852 -0.3444
26511SOL    HW181540  10.358   0.097   6.118  0.2259 -0.3543  1.1061
26511SOL    HW281541  10.250   0.018   6.046  0.5765  0.9617 -0.9405
26512SOL     OW81542   0.488   9.613   5.415 -0.1750 -0.3646  0.5436
26512SOL    HW181543   0.416   9.644   5.359  0.1944 -1.6936 -0.7278
26512SOL    HW281544   0.444   9.579   5.493 -0.7375  1.0310  0.8792
26513SOL     OW81545   5.918  10.421   3.881  0.5586 -0.1312 -0.0215
26513SOL    HW181546   6.009  10.451   3.876  0.9590 -1.2398  0.1995
26513SOL    HW281547   5.878  10.450   3.800  0.4196  2.4694  0.8815
26514SOL     OW81548   4.501   5.625   8.309 -0.3784 -0.2431  0.0594
26514SOL    HW181549   4.545   5.674   8.240  1.7214 -0.7318  0.9671
26514SOL    HW281550   4.459   5.692   8.363  0.7392  0.4215  0.1358
26515SOL     OW81551   5.556   8.569   5.285  0.2127  0.2692 -0.4114
26515SOL    HW181552   5.525   8.480   5.301 -1.4967  0.9174  0.0747
26515SOL    HW281553   5.526   8.590   5.197  0.5797  0.3814 -0.5120
26516SOL     OW81554   4.248   6.391   0.224 -0.3485 -0.1389  0.7346
26516SOL    HW181555   4.289   6.456   0.168  2.0754 -0.5034  1.9743
26516SOL    HW281556   4.267   6.420   0.313  0.5227 -2.3240  1.3159
26517SOL     OW81557   0.182   8.056   6.800  0.3357  0.3077 -0.0692
26517SOL    HW181558   0.275   8.069   6.820  0.3923  3.6507 -1.7857
26517SOL    HW281559   0.166   8.111   6.723 -3.0923 -0.1283  0.1790
26518SOL     OW81560   9.826   3.637   6.287 -0.2519 -0.2985 -0.5937
26518SOL    HW181561   9.883   3.706   6.252  0.7887  0.4312  2.2331
26518SOL    HW281562   9.773   3.682   6.353 -1.1738 -1.7953 -0.2777
26519SOL     OW81563   5.955   2.991   4.297  0.3299 -0.0342 -0.6593
26519SOL    HW181564   5.975   2.902   4.269 -0.8338  0.1300 -2.1251
26519SOL    HW281565   5.962   3.044   4.218  0.9217  1.1789  0.1778
26520SOL     OW81566   7.674   4.681   6.859 -0.1253 -0.3979  0.1871
26520SOL    HW181567   7.610   4.712   6.923  3.0065  2.2569  2.3798
26520SOL    HW281568   7.656   4.733   6.780  0.3880  1.7519  1.4054
26521SOL     OW81569   0.624   7.377   2.557  0.5250  0.0424  0.3935
26521SOL    HW181570   0.663   7.462   2.576  2.6737 -0.6992 -0.3021
26521SOL    HW281571   0.686   7.313   2.593 -0.1927 -1.2330 -0.5194
26522SOL     OW81572   5.367   0.628   8.249 -0.4875  0.1735 -0.3933
26522SOL    HW181573   5.417   0.590   8.322 -1.3087  0.8591  0.5500
26522SOL    HW281574   5.430   0.634   8.178  0.2349 -0.8842  0.1271
26523SOL     OW81575   7.809   5.308   1.059  0.3436  0.0400  0.4920
26523SOL    HW181576   7.870   5.250   1.104 -1.5843  0.4615  3.9711
26523SOL    HW281577   7.765   5.251   0.996  1.5641 -1.1779  0.6794
26524SOL     OW81578   7.017   2.342   6.880 -0.0473  0.0460  0.5670
26524SOL    HW181579   7.008   2.436   6.896 -1.1209 -0.0590  0.6476
26524SOL    HW281580   7.049   2.336   6.790  2.6605  0.5432  1.3878
26525SOL     OW81581   0.814   2.860   3.609  0.3058 -1.1047 -0.4035
26525SOL    HW181582   0.875   2.859   3.683  1.1314 -1.4316 -1.0621
26525SOL    HW281583   0.765   2.942   3.619 -0.2924 -1.6137  1.0373
26526SOL     OW81584  10.355  11.041   6.243  0.9021 -0.1737  0.1462
26526SOL    HW181585  10.274  11.088   6.260 -0.3250 -1.6539 -1.2472
26526SOL    HW281586  10.367  10.984   6.319 -2.1236 -3.5029 -1.5596
26527SOL     OW81587   7.162   3.101  11.077 -0.0096 -0.2541  0.1429
26527SOL    HW181588   7.136   3.193  11.083  2.9378  0.6331  1.0066
26527SOL    HW281589   7.209   3.083  11.159  0.3080 -2.2504 -0.4044
26528SOL     OW81590   2.484   6.454   5.589 -0.1048 -0.6880 -0.0625
26528SOL    HW181591   2.532   6.521   5.542  0.8816 -0.0860  1.6964
26528SOL    HW281592   2.392   6.477   5.577  0.0914 -0.6838 -1.7998
26529SOL     OW81593   6.969   0.048   0.808 -0.4088 -0.1461  0.1952
26529SOL    HW181594   7.028   0.111   0.851 -0.0500 -0.8201  0.7011
26529SOL    HW281595   6.921   0.101   0.744 -0.4574  0.7428  0.9394
26530SOL     OW81596   3.748   1.940   0.051  0.3893 -0.0983  0.0978
26530SOL    HW181597   3.811   2.004   0.019  0.7016 -0.4041  0.0891
26530SOL    HW281598   3.705   1.906  -0.028 -1.1341  1.4415  0.1972
26531SOL     OW81599   5.286   7.094   4.296  0.2015  0.2117  0.2213
26531SOL    HW181600   5.354   7.044   4.251  0.7151  1.6988 -0.7255
26531SOL    HW281601   5.251   7.153   4.229 -1.0603  0.4566  1.0556
26532SOL     OW81602   3.428   5.824   7.447  0.0209  0.2168  0.5789
26532SOL    HW181603   3.523   5.824   7.441 -0.0413 -0.8720 -1.3981
26532SOL    HW281604   3.403   5.917   7.448  1.0136  0.6588 -2.8054
26533SOL     OW81605   9.572   9.605   1.411 -0.1040 -0.1593  0.2029
26533SOL    HW181606   9.508   9.578   1.346 -0.3707  1.4232 -0.2550
26533SOL    HW281607   9.526   9.600   1.495 -0.1499 -1.0127  0.1352
26534SOL     OW81608   4.261   6.825   3.604 -0.5561 -1.1274 -0.1971
26534SOL    HW181609   4.355   6.845   3.600 -0.5843 -0.8497  0.4833
26534SOL    HW281610   4.222   6.901   3.647 -1.2632 -0.7032 -1.5399
26535SOL     OW81611   6.166   2.630   6.874  0.3714 -0.4172  0.4070
26535SOL    HW181612   6.073   2.655   6.879  0.7799  0.9802  1.6596
26535SOL    HW281613   6.164   2.538   6.848 -1.3595 -0.3362  0.1076
26536SOL     OW81614   6.504   8.837   0.772  0.2774 -0.2164  0.1865
26536SOL    HW181615   6.584   8.808   0.729  0.4514  0.5650 -0.0396
26536SOL    HW281616   6.440   8.843   0.702  0.0080 -0.8537  0.3699
26537SOL     OW81617  11.195  10.997   3.668  0.4083 -0.3252  0.4271
26537SOL    HW181618  11.107  10.980   3.634 -0.5537 -0.2747  2.7609
26537SOL    HW281619  11.254  10.958   3.603 -1.1603  1.8020 -2.5204
26538SOL     OW81620   4.807   6.948  10.767  0.7137 -0.0293  0.1846
26538SOL    HW181621   4.873   6.989  10.823  0.3514  1.1856 -0.2355
26538SOL    HW281622   4.857   6.911  10.694  0.9427  1.1043 -0.2639
26539SOL     OW81623   5.248   4.284   0.708 -0.3361  0.5177 -0.9485
26539SOL    HW181624   5.155   4.286   0.684 -0.8028  1.4526  0.7428
26539SOL    HW281625   5.248   4.294   0.803  1.5222  0.8901 -0.9564
26540SOL     OW81626   2.157   1.367   9.192 -0.8870  0.0979 -0.1258
26540SOL    HW181627   2.170   1.453   9.153  1.6844 -0.2866 -0.3514
26540SOL    HW281628   2.131   1.311   9.118  1.2515 -0.0473 -0.8548
26541SOL     OW81629   6.533   3.288   6.195  0.1449  0.7013 -0.3411
26541SOL    HW181630   6.549   3.378   6.168 -0.3193  0.6713 -0.7443
26541SOL    HW281631   6.619   3.251   6.213  0.3278  1.2475 -0.1087
26542SOL     OW81632   0.494   4.870   8.405 -0.0243 -0.1591 -0.1590
26542SOL    HW181633   0.494   4.931   8.331 -0.5687 -0.4526 -0.4050
26542SOL    HW281634   0.550   4.798   8.376  0.0948 -0.0817 -0.1223
26543SOL     OW81635   5.698   3.683  10.250 -0.7718 -0.9169  0.1287
26543SOL    HW181636   5.713   3.664  10.157 -1.5655  0.8496 -0.4082
26543SOL    HW281637   5.604   3.668  10.262 -0.7392 -0.7734  0.5548
26544SOL     OW81638   9.613   1.986   5.565  0.5798 -0.1577 -0.7502
26544SOL    HW181639   9.645   1.896   5.557 -1.3216 -0.7220 -4.3966
26544SOL    HW281640   9.635   2.026   5.481 -1.4799  1.7116 -0.4789
26545SOL     OW81641   5.903   0.040   7.003 -0.6273  0.0287 -0.4277
26545SOL    HW181642   5.860   0.125   7.011 -1.9510 -0.7519  1.4471
26545SOL    HW281643   5.993   0.056   7.029 -1.1415  0.6947  1.0755
26546SOL     OW81644   4.265   5.952  10.536  0.0125  0.2623  0.4193
26546SOL    HW181645   4.301   6.014  10.598 -0.8745 -0.1461  1.3758
26546SOL    HW281646   4.196   6.001  10.490  0.2917  0.4027  0.1498
26547SOL     OW81647   5.977   1.769   1.509  0.4480  0.0478  0.1221
26547SOL    HW181648   6.025   1.821   1.573  2.0719 -0.0959 -0.9211
26547SOL    HW281649   6.020   1.683   1.511 -1.8504 -1.1785  1.4492
26548SOL     OW81650   7.070   5.820   2.582 -0.2522  0.3636 -0.1568
26548SOL    HW181651   6.992   5.797   2.633 -0.4827  0.4107 -0.4883
26548SOL    HW281652   7.101   5.737   2.546  0.1667  0.2644  0.4161
26549SOL     OW81653   6.598   3.616   8.568  1.3611  0.1783  0.4819
26549SOL    HW181654   6.621   3.653   8.654  2.2624  1.3502 -0.2196
26549SOL    HW281655   6.682   3.595   8.528  0.8783 -2.4840  0.7305
26550SOL     OW81656   5.365   0.635   4.228  0.3571 -0.2185 -0.1302
26550SOL    HW181657   5.331   0.721   4.203  0.4932 -0.0904  0.1160
26550SOL    HW281658   5.361   0.583   4.147 -0.1847 -0.1339 -0.1622
26551SOL     OW81659   4.611   8.594   8.622  0.5224 -0.6080 -0.0635
26551SOL    HW181660   4.553   8.643   8.563 -0.0679 -0.9212  0.2461
26551SOL    HW281661   4.696   8.638   8.614  0.4562 -0.6419 -1.1496
26552SOL     OW81662   6.704   1.646   1.469 -0.3262 -0.1337 -0.4293
26552SOL    HW181663   6.682   1.709   1.400 -0.7510 -1.2473 -1.3414
26552SOL    HW281664   6.648   1.571   1.451 -0.3467 -0.5057  1.0691
26553SOL     OW81665   6.503   9.336   6.661 -0.3617 -0.4354  0.0699
26553SOL    HW181666   6.483   9.340   6.568  0.8294 -3.0641 -0.3862
26553SOL    HW281667   6.453   9.261   6.693 -1.1510  0.7110  1.7223
26554SOL     OW81668   2.358   3.397   5.531 -0.7683 -0.0345  0.4157
26554SOL    HW181669   2.390   3.316   5.490 -1.0190  1.3491 -2.8000
26554SOL    HW281670   2.436   3.452   5.539 -1.0613  0.4541 -0.0786
26555SOL     OW81671   6.831   2.910   2.487  0.1357 -0.5240  0.4496
26555SOL    HW181672   6.871   2.943   2.407  2.7742 -2.6324  0.7440
26555SOL    HW281673   6.841   2.982   2.550  2.6718 -0.5644  0.2019
26556SOL     OW81674  10.515   4.068   3.338 -0.4921 -0.2497 -0.0304
26556SOL    HW181675  10.536   4.019   3.418 -1.8718  0.3760  0.7715
26556SOL    HW281676  10.575   4.035   3.272  2.9261  1.3929  2.0076
26557SOL     OW81677   5.640   7.548  10.059 -0.5578 -0.4152  0.2977
26557SOL    HW181678   5.685   7.554   9.974 -0.9056  0.4299  0.1619
26557SOL    HW281679   5.693   7.601  10.118 -0.3680 -0.9291  0.5866
26558SOL     OW81680   9.386   5.990   8.790  0.0520  0.1502 -0.6778
26558SOL    HW181681   9.440   5.946   8.724  0.5162 -0.2282 -0.0477
26558SOL    HW281682   9.449   6.024   8.854 -0.4667 -0.5082  0.1979
26559SOL     OW81683   8.238   0.380   2.652 -1.0236  0.1144  0.5321
26559SOL    HW181684   8.242   0.446   2.720  1.6381  1.3463 -0.6863
26559SOL    HW281685   8.329   0.365   2.626 -1.7955 -1.5130 -1.6124
26560SOL     OW81686   5.697   6.243   2.961 -0.3667 -0.5917 -0.5823
26560SOL    HW181687   5.761   6.188   3.006 -1.6438 -0.2081  1.8751
26560SOL    HW281688   5.737   6.262   2.876  2.0358 -1.6814  0.2215
26561SOL     OW81689   0.269   5.944   0.301  0.0268 -0.8559 -0.3508
26561SOL    HW181690   0.278   5.890   0.222  1.3074 -1.4479  0.1872
26561SOL    HW281691   0.244   6.031   0.268  0.1195 -1.2059 -1.3694
26562SOL     OW81692  10.584   4.701   9.712 -0.2656  0.7841  0.2083
26562SOL    HW181693  10.546   4.722   9.627 -1.9135 -3.2746 -0.2890
26562SOL    HW281694  10.675   4.681   9.693 -0.6673 -0.2893 -0.7350
26563SOL     OW81695   1.220   5.131  10.906  0.3779 -0.3482  0.7106
26563SOL    HW181696   1.214   5.105  10.998  1.0575 -1.6419  0.4303
26563SOL    HW281697   1.286   5.071  10.870  0.3439  0.3501 -0.5432
26564SOL     OW81698   6.446   3.727   6.753  0.0718 -0.1506 -0.0232
26564SOL    HW181699   6.415   3.648   6.709 -0.9384 -0.0719  0.5064
26564SOL    HW281700   6.445   3.795   6.686 -0.8928 -0.1649 -0.0416
26565SOL     OW81701   5.263   1.147   9.787  0.6307 -0.9505 -0.5239
26565SOL    HW181702   5.170   1.126   9.793  0.1858  0.9036 -0.2803
26565SOL    HW281703   5.265   1.238   9.759  2.3902 -1.0288 -0.7441
26566SOL     OW81704   7.444   9.931   4.531 -0.2758  0.0693  0.0100
26566SOL    HW181705   7.534   9.959   4.549  0.5689 -1.8067 -1.0888
26566SOL    HW281706   7.412   9.898   4.615  0.5021 -0.4001  0.1297
26567SOL     OW81707   0.350   8.486  11.028 -0.2092  0.3848 -0.0059
26567SOL    HW181708   0.364   8.556  10.965  4.0085 -0.0744  0.1509
26567SOL    HW281709   0.438   8.463  11.058 -1.6232 -3.1000  2.0195
26568SOL     OW81710   4.831   4.659   2.125  0.6620 -0.1955  0.4639
26568SOL    HW181711   4.759   4.710   2.163  0.8931  0.6830 -0.2335
26568SOL    HW281712   4.888   4.725   2.085 -0.0962 -1.0787 -2.3156
26569SOL     OW81713   8.062   5.134   1.057 -0.0948 -0.3837  0.0564
26569SOL    HW181714   8.010   5.168   1.129 -0.5738  0.5997 -0.7228
26569SOL    HW281715   8.123   5.073   1.098  0.1782  0.7324  1.3938
26570SOL     OW81716   2.293   0.206   7.125  0.5892 -0.2345 -0.2120
26570SOL    HW181717   2.331   0.293   7.115 -1.0189  0.5673  0.4027
26570SOL    HW281718   2.326   0.157   7.049  1.1491  1.0359 -0.8231
26571SOL     OW81719   5.298  11.264   1.208 -0.3666  0.4858 -0.0910
26571SOL    HW181720   5.288  11.312   1.290 -0.5991  0.2584  0.0150
26571SOL    HW281721   5.309  11.332   1.142 -0.7164  0.6850  0.0538
26572SOL     OW81722   4.263   0.214   1.955  0.4919  0.0906 -0.7338
26572SOL    HW181723   4.217   0.298   1.950  0.2067 -0.1020 -1.4944
26572SOL    HW281724   4.334   0.229   2.017 -2.4366 -0.5137  3.1048
26573SOL     OW81725   7.300   7.261   8.725 -0.5863 -0.1795 -0.2656
26573SOL    HW181726   7.344   7.344   8.741 -0.0615 -0.7893  1.8503
26573SOL    HW281727   7.211   7.274   8.757 -1.1459  0.1869 -1.9067
26574SOL     OW81728   0.857   1.787   3.160 -0.2504  1.0241 -0.0528
26574SOL    HW181729   0.849   1.823   3.071  0.8518  1.5118  0.0326
26574SOL    HW281730   0.933   1.728   3.155  0.9643  2.4541  0.9972
26575SOL     OW81731   8.797   8.477   1.540  0.2645  0.7253 -0.0290
26575SOL    HW181732   8.727   8.538   1.562  1.6439  2.3506  0.0122
26575SOL    HW281733   8.837   8.513   1.460  0.0051 -1.1010 -1.0422
26576SOL     OW81734   7.127   9.211  10.697  0.3598 -0.0839 -0.1607
26576SOL    HW181735   7.149   9.288  10.645  0.7816  0.1573  0.3730
26576SOL    HW281736   7.210   9.180  10.732  0.2854 -1.1568 -0.8773
26577SOL     OW81737   4.620   1.864   0.100 -0.2725 -0.0635 -0.3669
26577SOL    HW181738   4.688   1.891   0.162 -0.0637  0.1459 -0.6814
26577SOL    HW281739   4.585   1.947   0.067 -2.3436 -0.0806  1.5437
26578SOL     OW81740   2.038  10.419   6.861 -0.4027 -0.4275 -0.2037
26578SOL    HW181741   1.950  10.445   6.888 -1.0145 -0.9986 -1.5774
26578SOL    HW281742   2.091  10.431   6.940 -1.7663 -0.4033  0.7488
26579SOL     OW81743   2.032   3.056   1.920  0.0060  0.2837 -0.1366
26579SOL    HW181744   2.082   3.117   1.866  1.3809 -1.0645 -0.4527
26579SOL    HW281745   2.004   2.987   1.859 -0.3311 -0.1115  0.4533
26580SOL     OW81746   6.887   6.544   4.490  0.5153 -0.5655 -0.2968
26580SOL    HW181747   6.981   6.527   4.486  0.5634 -0.1115 -1.2900
26580SOL    HW281748   6.879   6.639   4.481  0.0243 -0.4289  1.2037
26581SOL     OW81749   4.352   4.643   9.070 -0.4822  0.0999  0.0963
26581SOL    HW181750   4.435   4.687   9.086 -0.8534  0.9421 -0.2276
26581SOL    HW281751   4.366   4.553   9.099  0.6212  0.1612 -0.2119
26582SOL     OW81752   6.564   6.087   6.102 -0.2936 -0.3415 -0.1333
26582SOL    HW181753   6.654   6.086   6.134  0.3883  1.2266 -1.8590
26582SOL    HW281754   6.551   6.175   6.067 -2.1379 -0.8584 -0.8997
26583SOL     OW81755   2.222   4.587   8.240  0.0160 -0.5799 -0.4132
26583SOL    HW181756   2.274   4.532   8.181  0.7292 -0.2013 -0.1530
26583SOL    HW281757   2.152   4.621   8.185  1.0299  0.2675 -1.2300
26584SOL     OW81758   9.135  10.330   0.910  0.2425 -0.4710 -0.2801
26584SOL    HW181759   9.041  10.339   0.923  0.3002  0.7426 -0.5773
26584SOL    HW281760   9.144  10.297   0.821  0.1157  1.2212 -0.9664
26585SOL     OW81761   1.231   5.961   7.451  0.0359  0.0884 -0.3664
26585SOL    HW181762   1.181   6.024   7.503  0.3771  1.0164 -1.1337
26585SOL    HW281763   1.169   5.891   7.430 -0.3201  0.0992  0.5880
26586SOL     OW81764   4.332   5.699   4.648 -0.5523 -0.1833  0.2945
26586SOL    HW181765   4.358   5.607   4.652  0.8876  0.0562 -1.9430
26586SOL    HW281766   4.236   5.697   4.646 -0.5341 -1.7097 -0.8022
26587SOL     OW81767   8.794   0.239   1.811  0.3518 -0.0060 -0.0982
26587SOL    HW181768   8.698   0.246   1.809  0.3405  0.2843  0.6834
26587SOL    HW281769   8.824   0.329   1.798  0.5212 -0.1045 -0.3850
26588SOL     OW81770   0.886  10.142   3.644 -0.3098  0.1124 -0.0380
26588SOL    HW181771   0.837  10.097   3.574  0.4164 -0.1018 -0.4221
26588SOL    HW281772   0.859  10.234   3.637  0.1693  0.1961 -0.9836
26589SOL     OW81773   4.390  11.185   6.322  0.2483 -0.7168 -0.7303
26589SOL    HW181774   4.310  11.171   6.271 -0.0992 -0.9307 -0.1328
26589SOL    HW281775   4.361  11.193   6.412  0.7329  0.9538 -0.6878
26590SOL     OW81776   2.587  10.896   7.578  0.3200  0.4010 -0.5795
26590SOL    HW181777   2.591  10.879   7.672  0.2673 -0.9913 -0.7972
26590SOL    HW281778   2.495  10.912   7.560 -0.0972 -1.8490 -0.7397
26591SOL     OW81779   7.912   3.022   4.839  0.3990  0.2037  0.1532
26591SOL    HW181780   7.861   3.029   4.920  0.9667 -0.3358  0.5766
26591SOL    HW281781   7.958   3.105   4.832 -2.3970  1.7613 -1.5869
26592SOL     OW81782   2.029   4.411   7.373 -0.2403  0.2908 -0.1100
26592SOL    HW181783   2.122   4.403   7.390 -0.1253  1.1618 -0.2675
26592SOL    HW281784   1.989   4.336   7.417  0.5230 -0.0451  0.0156
26593SOL     OW81785   0.655  11.176  11.048  0.2133  0.8896 -0.2883
26593SOL    HW181786   0.643  11.083  11.064 -0.0793  0.8837 -0.5274
26593SOL    HW281787   0.711  11.206  11.120 -0.4815  0.7150  0.3424
26594SOL     OW81788   1.640  10.056   0.726 -0.3491  0.5958 -0.0525
26594SOL    HW181789   1.636   9.978   0.781  0.1505 -0.3971 -1.3843
26594SOL    HW281790   1.713  10.040   0.666 -2.0287  0.7932 -2.2772
26595SOL     OW81791   1.591   5.901   8.655  0.1330 -0.0900 -0.0129
26595SOL    HW181792   1.521   5.868   8.712 -0.1555 -0.4479 -0.5643
26595SOL    HW281793   1.558   5.985   8.623  0.4025  0.2317  0.5342
26596SOL     OW81794   6.829   2.903   7.081 -0.2748  0.0999 -0.2973
26596SOL    HW181795   6.905   2.856   7.115 -1.7449 -1.1195  1.4802
26596SOL    HW281796   6.843   2.994   7.108  1.2494  0.2302 -1.3651
26597SOL     OW81797   8.939   3.863   7.047 -0.1027  0.3148  0.2379
26597SOL    HW181798   8.980   3.865   6.960  1.1949  0.7585  0.8312
26597SOL    HW281799   8.851   3.829   7.031 -0.1524  1.1008 -1.3534
26598SOL     OW81800   8.830   3.115   5.945 -0.4235 -0.0885  0.3230
26598SOL    HW181801   8.739   3.130   5.917 -0.3256  0.2404  0.1715
26598SOL    HW281802   8.865   3.203   5.961  0.4247 -0.0555 -1.4186
26599SOL     OW81803   4.443  10.636   2.426  0.5329  0.2361 -1.0553
26599SOL    HW181804   4.431  10.676   2.511 -0.0533  0.7694 -1.3781
26599SOL    HW281805   4.528  10.592   2.431  0.7382  0.7007 -0.3786
26600SOL     OW81806   0.695   1.980   9.338 -0.2831 -0.3185  0.4518
26600SOL    HW181807   0.657   2.067   9.338  1.5166  0.5513 -0.8359
26600SOL    HW281808   0.664   1.940   9.257  1.5832  0.4970 -0.7452
26601SOL     OW81809   1.250   7.102   9.118  0.1079 -0.3426  0.3855
26601SOL    HW181810   1.295   7.051   9.050  1.6511 -0.4478  1.4396
26601SOL    HW281811   1.305   7.180   9.129  0.8339 -1.0930  2.6282
26602SOL     OW81812   6.220   9.599   9.006  0.0772 -0.3235  0.2904
26602SOL    HW181813   6.185   9.686   8.986 -2.2816 -0.4605  3.1961
26602SOL    HW281814   6.164   9.538   8.958 -0.5064 -0.3316  0.9607
26603SOL     OW81815   3.431   4.784   8.733  0.0696  0.2117 -0.6340
26603SOL    HW181816   3.515   4.744   8.712  0.9642  1.4990  0.3124
26603SOL    HW281817   3.396   4.731   8.805  0.0194 -0.3823 -1.0915
26604SOL     OW81818   8.601  10.452   9.025 -0.2465 -0.8977 -0.7868
26604SOL    HW181819   8.516  10.477   8.989 -1.0253 -2.9822 -0.5289
26604SOL    HW281820   8.622  10.521   9.088 -2.2733 -0.8965 -0.0722
26605SOL     OW81821   0.496   1.321   6.862  0.1482  0.3034  0.0329
26605SOL    HW181822   0.472   1.401   6.907 -0.1296  0.5310 -0.5051
26605SOL    HW281823   0.586   1.302   6.890  0.3098  0.9493 -0.0455
26606SOL     OW81824   6.664   7.470   3.638 -0.2738  0.4025 -0.3362
26606SOL    HW181825   6.592   7.432   3.689 -0.6570  0.1322 -1.0681
26606SOL    HW281826   6.645   7.445   3.548  1.5867 -1.0628 -0.3766
26607SOL     OW81827   5.812   1.513   0.323  0.1637  0.3093 -0.4660
26607SOL    HW181828   5.874   1.571   0.368  0.8662  0.1444 -1.1926
26607SOL    HW281829   5.743   1.497   0.388 -0.7055  2.9407 -0.6384
26608SOL     OW81830   1.215   2.536   1.106  0.0464 -0.0168 -0.4069
26608SOL    HW181831   1.260   2.594   1.044 -0.3306  0.3298 -0.3606
26608SOL    HW281832   1.139   2.504   1.059  0.2288 -0.4411 -0.4140
26609SOL     OW81833   1.255   9.008   6.900 -0.2634 -0.5026  0.7071
26609SOL    HW181834   1.170   9.028   6.939  0.2408 -1.5251  2.4716
26609SOL    HW281835   1.298   8.951   6.964  2.3592  1.1581  0.6078
26610SOL     OW81836   7.652   1.129   2.546  0.2612 -0.4052  0.8960
26610SOL    HW181837   7.745   1.108   2.553  1.0911  2.6621  0.5322
26610SOL    HW281838   7.642   1.210   2.598 -2.3374 -0.9420  1.3842
26611SOL     OW81839   4.618   6.049   7.260 -0.3650 -0.4905 -0.0014
26611SOL    HW181840   4.643   6.116   7.195 -0.7416 -1.1910 -0.8953
26611SOL    HW281841   4.625   5.966   7.213 -4.3794 -0.8018 -0.4575
26612SOL     OW81842   4.081   1.073   0.301  0.1813  0.3229 -0.3285
26612SOL    HW181843   4.014   1.060   0.234  1.6061 -2.7170 -1.3561
26612SOL    HW281844   4.129   1.151   0.273 -0.0373 -0.1724 -2.2104
26613SOL     OW81845   9.043   6.519   7.665 -0.0454 -0.6050  0.2492
26613SOL    HW181846   9.074   6.601   7.705 -2.0846 -0.1115  0.9280
26613SOL    HW281847   8.949   6.518   7.683 -0.3350 -2.3350 -1.1457
26614SOL     OW81848   4.190   2.755   1.426 -0.1270 -0.0977 -0.1644
26614SOL    HW181849   4.258   2.698   1.390 -0.0237  1.1883 -2.1510
26614SOL    HW281850   4.131   2.696   1.473  2.3622 -1.2451  1.7437
26615SOL     OW81851   8.424   4.337   5.686 -0.2368 -0.7613  0.3616
26615SOL    HW181852   8.448   4.351   5.595 -0.7847  2.8889  0.6057
26615SOL    HW281853   8.330   4.358   5.689 -0.5816 -2.2940  1.5517
26616SOL     OW81854  10.321   5.942   0.936  0.7060  0.8375 -0.2309
26616SOL    HW181855  10.379   6.018   0.928 -0.3418  1.4943 -2.3366
26616SOL    HW281856  10.348   5.884   0.864  1.3049 -0.7255  1.1745
26617SOL     OW81857   6.143   6.878   9.882 -0.8861  0.3961  0.2664
26617SOL    HW181858   6.171   6.792   9.851 -1.0628  0.7974 -1.1007
26617SOL    HW281859   6.048   6.874   9.881 -0.9162  0.0056  2.0423
26618SOL     OW81860   5.030   3.963   3.136  0.6123  0.1722 -0.0505
26618SOL    HW181861   5.087   3.891   3.163  0.8399 -0.3555 -1.7629
26618SOL    HW281862   4.942   3.933   3.159  0.6600 -0.8921 -1.0975
26619SOL     OW81863   0.995   6.721  11.032  0.2695 -0.9034  0.6541
26619SOL    HW181864   1.087   6.722  11.005  0.1406 -1.4096  0.1926
26619SOL    HW281865   0.947   6.689  10.956 -0.5782  1.4764  0.0743
26620SOL     OW81866   3.327   4.644   5.609 -0.0350  0.1196 -0.0329
26620SOL    HW181867   3.359   4.734   5.619  2.1470 -0.5293 -0.6245
26620SOL    HW281868   3.357   4.599   5.688  1.1732 -0.6583 -0.8889
26621SOL     OW81869   4.088   6.678   8.728  0.0787  0.3857 -0.5090
26621SOL    HW181870   4.167   6.636   8.762 -0.7396 -0.7905  0.0492
26621SOL    HW281871   4.108   6.771   8.727  1.9262  0.0158 -1.6649
26622SOL     OW81872   3.804   9.345   3.978  0.5120  0.4064  0.2983
26622SOL    HW181873   3.825   9.252   3.967  1.0912  0.6665 -0.9277
26622SOL    HW281874   3.710   9.350   3.966  0.6352  0.1337 -0.8961
26623SOL     OW81875   3.583   5.187   7.400 -0.2163  0.5243 -0.1098
26623SOL    HW181876   3.670   5.170   7.365 -1.3645 -0.6044 -2.6634
26623SOL    HW281877   3.552   5.264   7.352 -0.6475  0.9202  0.7732
26624SOL     OW81878   9.764   7.961   7.688 -0.1779 -0.4242  0.5129
26624SOL    HW181879   9.674   7.935   7.670  0.3511 -0.7503 -1.9815
26624SOL    HW281880   9.816   7.883   7.668  0.9226  0.7421 -1.4582
26625SOL     OW81881   8.908   2.054   6.454 -0.4566  0.0119  0.2475
26625SOL    HW181882   8.897   2.011   6.369  1.0947 -0.4359  0.2290
26625SOL    HW281883   8.821   2.052   6.494 -1.2257  0.2741 -1.3411
26626SOL     OW81884   0.542   5.019   7.282 -0.4686 -0.0798  0.1718
26626SOL    HW181885   0.633   5.004   7.306 -0.2416  0.9205 -0.0414
26626SOL    HW281886   0.515   5.094   7.335 -0.7517  0.4961 -0.7659
26627SOL     OW81887   4.634   8.673   8.967  0.3318 -0.1155 -0.1355
26627SOL    HW181888   4.614   8.627   9.049 -0.8098  0.5252 -0.0404
26627SOL    HW281889   4.561   8.733   8.954 -0.1519 -1.0510 -2.2539
26628SOL     OW81890   2.184   5.603  11.238 -0.0588  0.1396  0.1122
26628SOL    HW181891   2.213   5.511  11.235 -2.6978 -0.8367  1.3486
26628SOL    HW281892   2.212   5.633  11.324 -0.5003 -0.0060  0.3099
26629SOL     OW81893   5.382   6.166   4.029 -0.3059 -0.0206 -0.4718
26629SOL    HW181894   5.287   6.176   4.035 -0.4830 -1.7096  0.0655
26629SOL    HW281895   5.401   6.087   4.079  1.5348  0.9104  0.3850
26630SOL     OW81896   6.998   5.008  10.675 -0.7734  0.1646 -0.0941
26630SOL    HW181897   7.005   4.913  10.678 -0.3364  0.2144  0.7729
26630SOL    HW281898   6.978   5.033  10.765  2.7529  1.1605  0.5523
26631SOL     OW81899   8.107   0.097   5.987 -0.8541  0.4385  0.5563
26631SOL    HW181900   8.146   0.182   5.969 -0.5361  0.3643  0.8900
26631SOL    HW281901   8.171   0.051   6.042 -0.9052 -0.1149  0.1692
26632SOL     OW81902   4.090   5.704   5.779 -0.0688 -0.0026 -0.2615
26632SOL    HW181903   4.152   5.742   5.841 -1.0020  0.7969  0.2054
26632SOL    HW281904   4.064   5.621   5.819  0.0321  0.0743 -0.0346
26633SOL     OW81905   3.869   4.598   7.659  0.3661  0.3175 -0.4268
26633SOL    HW181906   3.868   4.502   7.663  0.1927  0.2721 -1.3476
26633SOL    HW281907   3.877   4.618   7.566  1.9338  1.2055 -0.1416
26634SOL     OW81908   9.378   0.295   8.666  0.2049 -0.8996  0.1633
26634SOL    HW181909   9.393   0.295   8.571  0.9110 -2.0745  0.2604
26634SOL    HW281910   9.445   0.353   8.701  0.8186 -1.5419  0.0618
26635SOL     OW81911   5.764   0.583   6.201  0.0820  0.4976  0.1606
26635SOL    HW181912   5.829   0.575   6.131 -1.6311  0.4501 -1.5084
26635SOL    HW281913   5.720   0.665   6.184  0.3105  1.0123  1.8602
26636SOL     OW81914   7.051   4.165   0.085  0.3814  0.5323  0.1926
26636SOL    HW181915   7.133   4.189   0.127  1.1957 -0.2212 -0.9110
26636SOL    HW281916   7.071   4.085   0.036 -0.6062  1.1882 -1.3478
26637SOL     OW81917   4.875   3.011   3.967 -0.0376 -0.5564 -0.0871
26637SOL    HW181918   4.810   3.024   4.035 -0.4741 -0.2358 -0.5539
26637SOL    HW281919   4.884   2.916   3.959 -1.2758 -0.6320 -0.7823
26638SOL     OW81920  11.167   4.805   6.962 -0.9680 -0.0172 -0.7767
26638SOL    HW181921  11.110   4.730   6.981 -1.4575  0.8178  1.3556
26638SOL    HW281922  11.107   4.878   6.950 -0.4065  0.9233  1.7171
26639SOL     OW81923   6.567   2.480   9.776 -0.4204 -0.4529 -0.1238
26639SOL    HW181924   6.555   2.475   9.681 -0.4517 -2.1150 -0.0607
26639SOL    HW281925   6.478   2.475   9.811 -0.2866 -2.8017  0.0406
26640SOL     OW81926   9.773   8.890   6.729  0.0898  0.1799 -0.4209
26640SOL    HW181927   9.718   8.840   6.669  0.1054 -1.3761  0.8115
26640SOL    HW281928   9.769   8.843   6.812  1.2969  1.4157  0.3984
26641SOL     OW81929   8.544   9.197   2.699 -0.1505 -0.2290 -0.4980
26641SOL    HW181930   8.596   9.224   2.775  1.4505 -2.4108 -0.6888
26641SOL    HW281931   8.470   9.150   2.737  1.0440 -1.9812 -0.2056
26642SOL     OW81932   5.560   9.397   3.474 -0.2748 -0.3476 -0.8571
26642SOL    HW181933   5.571   9.488   3.500 -3.7517  0.0622 -0.3256
26642SOL    HW281934   5.578   9.347   3.554 -0.5047  0.0471 -0.5569
26643SOL     OW81935   2.243   6.418   1.236  0.0906  0.1000 -0.6906
26643SOL    HW181936   2.310   6.401   1.301  1.0670  0.0641 -1.6708
26643SOL    HW281937   2.239   6.513   1.230  0.5438  0.0995 -1.0997
26644SOL     OW81938   7.558   8.894   8.679 -0.2737  0.3990  0.2404
26644SOL    HW181939   7.527   8.899   8.589  1.5003  1.1324 -0.3671
26644SOL    HW281940   7.633   8.953   8.682  1.0568 -1.2727  1.6315
26645SOL     OW81941   6.736   4.644   6.360  1.1536 -0.0375  0.2694
26645SOL    HW181942   6.745   4.619   6.268  0.6964  1.5909 -0.2573
26645SOL    HW281943   6.644   4.667   6.370  1.1044 -0.6050  1.2666
26646SOL     OW81944  10.611   8.477   4.922  0.0891  0.5579  0.3727
26646SOL    HW181945  10.542   8.417   4.950 -0.8889  0.6929 -1.5799
26646SOL    HW281946  10.682   8.463   4.985 -1.1504 -0.6411  1.5760
26647SOL     OW81947   3.556   6.127  10.917 -0.8581  0.1394  0.1789
26647SOL    HW181948   3.642   6.092  10.892 -1.7081 -1.6807 -0.4144
26647SOL    HW281949   3.565   6.149  11.010  0.0175 -0.8046  0.3403
26648SOL     OW81950   6.510   9.617   7.539  0.4782 -0.6742  0.5411
26648SOL    HW181951   6.517   9.712   7.528  0.9914 -0.8810 -1.2518
26648SOL    HW281952   6.465   9.606   7.623 -2.1713  1.2046 -0.5004
26649SOL     OW81953   7.948   3.057   3.653 -0.0350 -0.5042 -0.4434
26649SOL    HW181954   7.917   3.121   3.717  1.2755 -1.1119  0.8441
26649SOL    HW281955   8.032   3.093   3.623 -0.7763 -0.0618 -2.1125
26650SOL     OW81956   7.522   0.810   9.896 -0.1081 -0.2930  0.3475
26650SOL    HW181957   7.490   0.860   9.821 -2.0049 -0.8673  0.7159
26650SOL    HW281958   7.463   0.835   9.968  1.9330  0.5995  1.8147
26651SOL     OW81959   8.908   0.674   5.661  0.1924 -0.0820 -0.0742
26651SOL    HW181960   8.925   0.766   5.643  0.1377 -0.1320 -0.3972
26651SOL    HW281961   8.981   0.628   5.619  1.4678 -0.0586  2.0249
26652SOL     OW81962   9.241   4.723   3.316  0.8402 -0.1781  0.2605
26652SOL    HW181963   9.314   4.676   3.277  0.4017  0.3284 -1.2414
26652SOL    HW281964   9.171   4.658   3.325  0.3885  0.0486 -1.3824
26653SOL     OW81965  10.004   7.779   3.307 -0.5869  0.1174 -0.0271
26653SOL    HW181966   9.937   7.827   3.259 -0.1032  0.7246 -0.1084
26653SOL    HW281967   9.982   7.687   3.294 -0.5283  0.2756 -1.3283
26654SOL     OW81968   4.091  10.329   7.974  0.0750  0.5636 -0.3350
26654SOL    HW181969   4.151  10.393   7.936 -1.8245  1.7704 -1.4306
26654SOL    HW281970   4.050  10.287   7.899 -0.0079 -0.7211  0.3968
26655SOL     OW81971   3.436   9.583   4.803  0.1905 -0.0948 -0.0611
26655SOL    HW181972   3.530   9.591   4.821  0.8551  0.0891 -3.0598
26655SOL    HW281973   3.413   9.496   4.834  0.6799  0.7931  3.0548
26656SOL     OW81974   9.587   8.644   5.518  0.2260  0.0598  0.5372
26656SOL    HW181975   9.609   8.723   5.567 -3.2490  0.8779  1.0074
26656SOL    HW281976   9.595   8.573   5.581 -0.0653  0.5338  1.1163
26657SOL     OW81977   6.101   7.239   4.874  0.7711  0.6269 -0.0153
26657SOL    HW181978   6.071   7.152   4.900  0.3563  0.5016 -0.8887
26657SOL    HW281979   6.138   7.276   4.955  1.3893 -0.5259  0.2567
26658SOL     OW81980   0.754   3.524  10.744 -0.3263 -0.0237 -0.2265
26658SOL    HW181981   0.834   3.563  10.708 -0.9707  1.1411 -0.4345
26658SOL    HW281982   0.702   3.501  10.667 -0.5349 -0.0461 -0.0797
26659SOL     OW81983   5.235   0.931   8.965  0.2556  0.2374  0.5471
26659SOL    HW181984   5.260   0.840   8.949  0.2966 -0.1840  2.7320
26659SOL    HW281985   5.142   0.934   8.943  0.6198  0.1533 -1.2093
26660SOL     OW81986   8.560   0.423  10.542 -0.0740  0.0545 -0.5009
26660SOL    HW181987   8.497   0.392  10.608  0.0340 -1.0974 -0.9312
26660SOL    HW281988   8.516   0.499  10.503 -0.0223  0.9442  1.0696
26661SOL     OW81989   8.848   8.415   3.625 -0.1903 -0.1816  0.0120
26661SOL    HW181990   8.869   8.373   3.708 -2.2264  1.5228  1.5054
26661SOL    HW281991   8.932   8.447   3.593  0.5006  0.3423  2.1603
26662SOL     OW81992  11.217   4.104   8.043 -0.2753  0.2041 -0.3264
26662SOL    HW181993  11.219   4.134   7.952 -0.8548 -2.6676 -1.3968
26662SOL    HW281994  11.153   4.033   8.043 -1.0834  0.8197  2.6116
26663SOL     OW81995   6.023   6.105   8.891 -0.0868 -0.1528 -0.4143
26663SOL    HW181996   6.095   6.061   8.846  0.8104  1.1001 -0.2506
26663SOL    HW281997   5.997   6.176   8.832  1.5188  1.9085  1.1898
26664SOL     OW81998   7.513   0.392   7.764  0.0718  0.5009  0.2908
26664SOL    HW181999   7.452   0.397   7.691  0.2375  0.2659  0.1352
26664SOL    HW282000   7.485   0.315   7.813  1.5677 -0.9349 -0.9968
26665SOL     OW82001   8.490  10.183   0.009  0.3516 -0.2828  0.7024
26665SOL    HW182002   8.399  10.153   0.003  1.1979 -2.6708 -1.6549
26665SOL    HW282003   8.485  10.276  -0.015 -1.4598 -0.3149  0.7768
26666SOL     OW82004   1.987   7.321  10.585  0.4440 -0.5194 -0.5018
26666SOL    HW182005   2.007   7.347  10.675 -0.9392 -3.6255  0.8403
26666SOL    HW282006   1.934   7.393  10.550  0.0536  0.2663  1.5671
26667SOL     OW82007  10.973   3.795   4.744 -0.0415 -0.2283 -0.0356
26667SOL    HW182008  10.882   3.794   4.713 -0.1429  1.0639  0.1785
26667SOL    HW282009  11.025   3.796   4.664 -0.0579 -3.6561 -0.2704
26668SOL     OW82010   8.882   0.105   4.922  0.6224 -0.2803  0.2936
26668SOL    HW182011   8.918   0.194   4.932  0.0850 -0.2382  2.0361
26668SOL    HW282012   8.931   0.069   4.848  1.5692  1.1139  0.1886
26669SOL     OW82013  10.128   5.194   7.584  0.0896 -0.5199  0.0107
26669SOL    HW182014  10.067   5.120   7.581  0.6219 -0.9858  0.3326
26669SOL    HW282015  10.208   5.156   7.619  0.8818 -0.1461 -1.3224
26670SOL     OW82016   7.845   5.747   7.630 -0.0988 -0.2031 -0.0112
26670SOL    HW182017   7.877   5.831   7.663 -0.9105  0.5614 -1.1058
26670SOL    HW282018   7.804   5.768   7.546  1.4245 -1.9780 -1.2895
26671SOL     OW82019   2.121   6.716   3.478 -0.2537 -0.7466  0.0273
26671SOL    HW182020   2.057   6.644   3.485 -0.6293 -0.3823  0.4104
26671SOL    HW282021   2.112   6.764   3.561  1.7436 -1.6775  0.8528
26672SOL     OW82022   3.916   1.182   3.670 -0.8867 -0.4239  0.2384
26672SOL    HW182023   3.967   1.101   3.680  1.6196  0.9543 -0.4917
26672SOL    HW282024   3.943   1.236   3.744 -3.1017 -0.4448  1.1448
26673SOL     OW82025   2.356   8.705   3.339 -0.5023  0.7520 -0.0969
26673SOL    HW182026   2.330   8.788   3.381 -0.6747  2.1026 -2.6921
26673SOL    HW282027   2.280   8.679   3.287  0.1674 -0.1339 -0.6546
26674SOL     OW82028   4.990  10.784   8.491  0.0993 -0.5512 -0.2142
26674SOL    HW182029   5.047  10.711   8.514  0.2807 -0.2346  0.3362
26674SOL    HW282030   5.047  10.860   8.491 -0.3994 -0.1637  0.7547
26675SOL     OW82031   2.615   6.275   1.629 -0.1069  0.3730  0.2147
26675SOL    HW182032   2.584   6.331   1.701  0.0494 -0.5936  1.0549
26675SOL    HW282033   2.617   6.187   1.666  0.4551 -0.0750 -0.8372
26676SOL     OW82034   6.635   6.181   4.672 -0.0940 -0.2994  0.0996
26676SOL    HW182035   6.569   6.118   4.645 -0.7404 -0.6327  2.2430
26676SOL    HW282036   6.609   6.206   4.761  1.6815  0.9198  0.3282
26677SOL     OW82037  10.438   8.121   5.128 -0.4718 -0.0766  0.3595
26677SOL    HW182038  10.349   8.134   5.096  0.3321  0.6180 -1.8156
26677SOL    HW282039  10.439   8.160   5.215 -2.3890 -0.5077  0.6076
26678SOL     OW82040   4.547   1.430   1.879 -0.0688 -0.1210 -0.0140
26678SOL    HW182041   4.573   1.338   1.888 -0.8687 -0.2931  0.6381
26678SOL    HW282042   4.453   1.430   1.896 -0.3782  0.6028 -1.5235
26679SOL     OW82043   2.582   3.134   4.458 -0.0696  0.1604  0.1270
26679SOL    HW182044   2.560   3.227   4.447  1.3955  0.4948 -0.2649
26679SOL    HW282045   2.677   3.132   4.449 -0.1376 -1.4717 -0.3915
26680SOL     OW82046   1.315   9.555   1.294  0.4004 -0.0642  0.0394
26680SOL    HW182047   1.299   9.559   1.388 -0.4645 -0.5042 -0.0728
26680SOL    HW282048   1.362   9.473   1.281 -0.6868 -0.6966 -0.0488
26681SOL     OW82049  11.193   9.029   0.165  0.1205  0.3296 -0.1530
26681SOL    HW182050  11.127   9.064   0.106  0.6720 -0.1706 -1.0851
26681SOL    HW282051  11.186   8.934   0.156  0.0332  0.2287  0.7976
26682SOL     OW82052   0.403   0.373   4.820 -0.0236  0.3190  0.0965
26682SOL    HW182053   0.333   0.358   4.884 -1.5545 -0.5842 -1.6655
26682SOL    HW282054   0.421   0.466   4.825  1.3763  0.0129  3.2010
26683SOL     OW82055   4.196   9.326   2.703  0.2430 -0.5040 -0.4526
26683SOL    HW182056   4.266   9.360   2.760  2.1623 -3.0530 -1.0752
26683SOL    HW282057   4.236   9.323   2.616 -1.5001  0.1405 -1.3197
26684SOL     OW82058   3.700   7.217   0.888  0.0430 -0.0476 -0.0381
26684SOL    HW182059   3.698   7.225   0.983 -0.2006 -2.0897  0.1827
26684SOL    HW282060   3.680   7.305   0.856 -0.1156  0.6312  1.7843
26685SOL     OW82061  10.062   0.329  10.398  0.5032 -0.4857  0.5101
26685SOL    HW182062  10.042   0.299  10.487  1.1089 -1.1181  0.4373
26685SOL    HW282063  10.136   0.388  10.409  0.2904 -0.2106  0.4746
26686SOL     OW82064   5.984   7.301  10.456 -0.4511 -0.6167  0.4318
26686SOL    HW182065   5.991   7.222  10.402 -2.4047  0.9814 -2.4681
26686SOL    HW282066   5.907   7.286  10.511 -0.0307 -1.2267  0.8578
26687SOL     OW82067   1.069   8.868  10.968  0.2786 -0.3410  0.0586
26687SOL    HW182068   0.981   8.842  10.939 -0.2367 -1.2038  2.1821
26687SOL    HW282069   1.062   8.962  10.984  0.0758 -0.1922 -0.8389
26688SOL     OW82070   7.376   8.579  10.831 -0.1320  0.3662  0.1134
26688SOL    HW182071   7.307   8.604  10.893 -1.0587  1.4562 -1.2867
26688SOL    HW282072   7.337   8.508  10.780  0.7970 -0.8496  1.0270
26689SOL     OW82073  10.519   4.917   8.560 -0.7784 -0.6036 -0.1265
26689SOL    HW182074  10.602   4.959   8.579  0.0667 -1.1318 -2.3245
26689SOL    HW282075  10.453   4.985   8.574  0.2750  0.5989 -0.8033
26690SOL     OW82076   0.858  10.963   7.019  0.2469 -0.0815 -0.7664
26690SOL    HW182077   0.921  11.035   7.015  2.1096 -1.6786 -2.2667
26690SOL    HW282078   0.807  10.971   6.939  0.5246 -0.4757 -0.9852
26691SOL     OW82079   1.984   0.814   4.763  0.5091  0.3780 -0.1118
26691SOL    HW182080   1.999   0.723   4.736 -1.0016 -0.3532  1.3281
26691SOL    HW282081   1.945   0.855   4.686 -1.7654 -1.0987  0.1479
26692SOL     OW82082   2.449  11.181  10.894  0.8170 -0.3678 -0.0670
26692SOL    HW182083   2.515  11.247  10.914 -0.0960  0.6614 -0.3064
26692SOL    HW282084   2.374  11.232  10.862 -0.9854 -1.2783  2.4047
26693SOL     OW82085   5.299   6.886   1.384 -0.5357  0.6667 -0.0487
26693SOL    HW182086   5.370   6.888   1.450 -0.4217  2.4329 -0.1841
26693SOL    HW282087   5.343   6.864   1.302 -0.7648 -2.1881  0.4805
26694SOL     OW82088   7.947   3.243   2.413 -0.2072  0.2335  0.0346
26694SOL    HW182089   7.905   3.323   2.444  0.4212  0.6951 -0.2879
26694SOL    HW282090   7.998   3.212   2.488 -3.6798 -2.2320  1.6733
26695SOL     OW82091   8.257   6.070   9.985 -0.9400 -0.1467 -0.3431
26695SOL    HW182092   8.267   6.126   9.907 -1.3680  0.6683  0.1729
26695SOL    HW282093   8.193   6.116  10.039  0.7548  0.2982  1.3748
26696SOL     OW82094   5.902   0.771   6.381 -0.0908 -0.1544 -0.0338
26696SOL    HW182095   5.941   0.830   6.317 -1.9976  1.2418  0.0050
26696SOL    HW282096   5.864   0.700   6.329 -1.1912  0.7091 -0.4215
26697SOL     OW82097   5.860   8.860   2.640  0.4783  0.5450  0.3400
26697SOL    HW182098   5.930   8.925   2.627  0.3723  0.7065  0.5840
26697SOL    HW282099   5.905   8.776   2.637  1.1250  0.7106  3.2444
26698SOL     OW82100   9.740   8.710   3.463 -0.6707  0.5670 -0.5113
26698SOL    HW182101   9.763   8.620   3.439 -0.8971  0.6528 -1.0715
26698SOL    HW282102   9.777   8.722   3.550 -0.2726  0.0703 -0.6070
26699SOL     OW82103   8.174  10.096   2.898  0.2071 -0.0715 -0.5422
26699SOL    HW182104   8.197  10.025   2.958  1.3603  0.0552 -0.8228
26699SOL    HW282105   8.134  10.162   2.955 -1.4998 -1.1892 -0.3792
26700SOL     OW82106   4.496   8.819   9.731  0.1408  0.3179  0.5410
26700SOL    HW182107   4.498   8.750   9.664  1.5298  1.4304 -0.6245
26700SOL    HW282108   4.409   8.857   9.724 -0.8795 -1.6896  1.6347
26701SOL     OW82109   5.215   8.681  10.791  0.5177 -0.1330  0.2024
26701SOL    HW182110   5.125   8.654  10.769  0.4846 -0.5881  0.8826
26701SOL    HW282111   5.270   8.614  10.751  0.5983  0.4336 -0.6791
26702SOL     OW82112   6.864   0.822  10.834  0.9224  0.1324 -0.1676
26702SOL    HW182113   6.889   0.897  10.780  2.7650 -0.0344  0.3836
26702SOL    HW282114   6.890   0.746  10.782  3.6852 -0.0314  1.2551
26703SOL     OW82115  10.356   1.396   8.635 -0.2083 -0.6648  0.1458
26703SOL    HW182116  10.403   1.480   8.642  0.4804 -1.0874  0.6391
26703SOL    HW282117  10.384   1.361   8.550  0.4669 -0.9726  0.4929
26704SOL     OW82118  10.612   1.630   0.273 -0.1106  0.2629 -0.5404
26704SOL    HW182119  10.685   1.582   0.313 -1.1388 -0.8604  0.0394
26704SOL    HW282120  10.566   1.670   0.346  1.0693  2.7418 -1.0536
26705SOL     OW82121  11.242  11.037   5.076  0.1566 -0.2191 -0.0216
26705SOL    HW182122  11.204  10.951   5.094  0.6224 -0.5647 -0.6377
26705SOL    HW282123  11.311  11.047   5.142 -1.8169  0.9990  1.9814
26706SOL     OW82124  10.671   3.200   5.831  0.0607  0.0140  0.1661
26706SOL    HW182125  10.683   3.123   5.774  1.0084  1.0089 -1.0603
26706SOL    HW282126  10.699   3.170   5.918  1.2887 -0.8097 -0.4704
26707SOL     OW82127  10.704   0.535   6.576 -0.1836 -0.0835  0.9099
26707SOL    HW182128  10.643   0.608   6.561  0.1810  0.3288  1.3997
26707SOL    HW282129  10.662   0.483   6.645  1.3330  1.8146  3.4457
26708SOL     OW82130   4.186   3.442   8.484 -0.3644 -0.6222  0.0965
26708SOL    HW182131   4.177   3.466   8.576 -0.7856  0.3818 -0.1979
26708SOL    HW282132   4.096   3.423   8.455 -0.3235 -0.2395 -0.2916
26709SOL     OW82133   9.993  10.755   0.282 -0.0178  0.5920  0.1433
26709SOL    HW182134   9.905  10.741   0.249 -0.9260  5.4971 -0.1710
26709SOL    HW282135  10.049  10.706   0.221 -2.3436 -1.5488 -0.4414
26710SOL     OW82136   9.434   0.343   5.350  0.7811  0.0035 -0.4040
26710SOL    HW182137   9.421   0.389   5.433 -0.9104  0.9925 -1.1646
26710SOL    HW282138   9.467   0.411   5.291 -1.5392  0.2884 -1.4849
26711SOL     OW82139   9.108   4.885   1.915 -0.0321 -0.8088  0.5229
26711SOL    HW182140   9.059   4.869   1.995 -0.7172  0.6675  0.4224
26711SOL    HW282141   9.052   4.853   1.845 -1.2194  1.4399  0.3557
26712SOL     OW82142   5.278   2.190   7.067  0.3295 -0.4998  0.1353
26712SOL    HW182143   5.362   2.146   7.075  1.2459  1.3244  1.0385
26712SOL    HW282144   5.300   2.282   7.051 -1.4798  0.1034  0.8740
26713SOL     OW82145   7.785   5.745   5.581 -0.6906 -0.7783 -0.5712
26713SOL    HW182146   7.798   5.705   5.495 -1.5192  2.9980 -2.7145
26713SOL    HW282147   7.873   5.766   5.612 -0.3386 -2.8074 -0.0287
26714SOL     OW82148  11.011   9.165   1.557  0.7859  0.0046  1.1578
26714SOL    HW182149  11.098   9.155   1.597  0.6487  1.2280  1.7818
26714SOL    HW282150  10.952   9.181   1.630  0.3604  1.2357  0.5727
26715SOL     OW82151   3.534   9.784   5.422 -0.4870 -0.0080 -0.1979
26715SOL    HW182152   3.595   9.753   5.489  0.4146 -0.9366 -1.3995
26715SOL    HW282153   3.450   9.744   5.445 -1.1045  2.4205  2.2987
26716SOL     OW82154   4.373   8.574   2.884 -0.5696  0.0804 -0.0780
26716SOL    HW182155   4.335   8.656   2.916 -2.2495 -0.6657 -0.0447
26716SOL    HW282156   4.343   8.507   2.946  0.4690 -0.6265 -0.3074
26717SOL     OW82157   7.122   5.083   7.462  0.1163  0.1284 -0.2268
26717SOL    HW182158   7.137   5.150   7.529  1.3815 -1.9347  1.7162
26717SOL    HW282159   7.089   5.007   7.511  2.1594 -1.8393 -1.6897
26718SOL     OW82160   9.332   6.095   7.300  0.3718 -0.2956 -0.0166
26718SOL    HW182161   9.368   6.159   7.361  1.6274 -0.2760 -0.7232
26718SOL    HW282162   9.383   6.108   7.219  2.8292 -4.0741  0.6513
26719SOL     OW82163   2.455   9.310   7.592  0.6538  0.4508  0.1731
26719SOL    HW182164   2.451   9.243   7.525  2.0553 -0.1405  0.6555
26719SOL    HW282165   2.543   9.346   7.585  0.0757  1.9514  0.2171
26720SOL     OW82166   0.510   4.795   2.982 -0.1324 -0.1593  0.7491
26720SOL    HW182167   0.539   4.759   2.898  3.4859  2.5356  0.6112
26720SOL    HW282168   0.415   4.802   2.973  0.1149  0.6387 -3.4780
26721SOL     OW82169  10.245   7.359   3.625 -0.4416  0.2951 -0.7402
26721SOL    HW182170  10.304   7.302   3.674 -0.4953 -0.1597 -1.1948
26721SOL    HW282171  10.215   7.424   3.689 -1.4875 -1.0210  0.1490
26722SOL     OW82172   0.298   5.452   5.929  0.5100  0.3938 -0.2561
26722SOL    HW182173   0.313   5.361   5.902 -0.0599  0.2653 -0.1389
26722SOL    HW282174   0.380   5.478   5.972  1.5045  0.6319 -2.1728
26723SOL     OW82175   8.723   4.037   5.865 -0.7443  0.6506  0.2274
26723SOL    HW182176   8.663   3.969   5.834  1.2798 -0.0673 -2.4860
26723SOL    HW282177   8.804   3.991   5.886 -0.6052  1.7733  2.4020
26724SOL     OW82178   4.713   5.043   5.647 -0.3213 -0.1881 -0.2691
26724SOL    HW182179   4.628   5.069   5.613  0.0822  3.7292  1.1998
26724SOL    HW282180   4.774   5.059   5.574 -0.7137 -2.9142 -1.2922
26725SOL     OW82181   8.324  10.158   3.653  0.3597 -0.2621 -0.1770
26725SOL    HW182182   8.378  10.159   3.574  0.8493  0.7277  0.1530
26725SOL    HW282183   8.261  10.229   3.640 -1.4463 -1.9222 -0.9190
26726SOL     OW82184   5.723   5.063   7.395  0.1430  0.2611 -0.2203
26726SOL    HW182185   5.790   5.103   7.450  1.0180 -1.0626 -0.2647
26726SOL    HW282186   5.688   4.991   7.448  0.2816 -0.3982 -0.9988
26727SOL     OW82187   4.290   1.627   3.772  0.0089  1.0111 -0.2363
26727SOL    HW182188   4.236   1.687   3.823 -1.2195  0.3088 -0.6453
26727SOL    HW282189   4.234   1.602   3.698  0.3137 -0.9178  0.1323
26728SOL     OW82190   5.523   7.189  10.898 -0.5345  0.4375 -0.4722
26728SOL    HW182191   5.525   7.094  10.886  1.0646  0.3190  0.5248
26728SOL    HW282192   5.450   7.204  10.958  0.4364 -0.3988  0.9864
26729SOL     OW82193   5.618   0.481  11.107  0.3083 -0.1081 -0.1117
26729SOL    HW182194   5.668   0.543  11.160 -0.9398 -0.1884  1.2199
26729SOL    HW282195   5.619   0.519  11.019 -0.1801  1.6723  0.6034
26730SOL     OW82196   4.535   6.062   3.228  0.5296 -0.3422 -0.5029
26730SOL    HW182197   4.606   6.126   3.229 -1.2919  1.8665  1.4596
26730SOL    HW282198   4.535   6.025   3.316  0.5737 -1.9716 -1.1516
26731SOL     OW82199   1.774   9.844   4.055 -0.1430  0.4590 -0.3975
26731SOL    HW182200   1.827   9.785   4.002 -0.0594  1.2927 -1.2788
26731SOL    HW282201   1.792   9.931   4.019 -0.0748  1.0619  1.0161
26732SOL     OW82202   2.986   3.353   9.288 -0.1714  0.1492  0.3089
26732SOL    HW182203   3.013   3.272   9.333 -2.1624  0.1043  1.5453
26732SOL    HW282204   3.010   3.338   9.196 -1.7525 -2.5131  0.2148
26733SOL     OW82205   5.257   5.302   0.897 -0.7464 -0.5791  0.7023
26733SOL    HW182206   5.198   5.243   0.945  1.3140 -1.1692  2.7069
26733SOL    HW282207   5.342   5.290   0.940 -0.0601  3.3442  0.7504
26734SOL     OW82208  10.284   3.211   8.067 -0.7074 -0.8687  0.0039
26734SOL    HW182209  10.331   3.184   8.147 -0.6419 -0.0543  0.2515
26734SOL    HW282210  10.282   3.132   8.013 -1.1833 -1.5740  1.0176
26735SOL     OW82211   0.999   2.145   2.330  0.1661  0.3034  0.0109
26735SOL    HW182212   1.043   2.144   2.415  0.3655 -1.3357 -0.0720
26735SOL    HW282213   1.042   2.076   2.280 -0.3206  0.8750 -1.2428
26736SOL     OW82214  11.181   2.354   3.387  0.1801  1.2003 -0.6327
26736SOL    HW182215  11.271   2.385   3.374  0.4407  1.6838  1.8278
26736SOL    HW282216  11.127   2.413   3.335  1.2483  0.9860 -2.0412
26737SOL     OW82217  10.637   0.075   0.246 -0.4044 -0.0196  0.7291
26737SOL    HW182218  10.630   0.024   0.166  1.3199  0.0935  0.4796
26737SOL    HW282219  10.674   0.159   0.218  2.6130 -0.8232  1.8802
26738SOL     OW82220   9.613   3.695   7.578 -1.1280  0.2417  0.1227
26738SOL    HW182221   9.667   3.651   7.512 -0.1327  1.9916 -0.3031
26738SOL    HW282222   9.603   3.784   7.544 -1.1364  1.0090  2.0263
26739SOL     OW82223  10.601   6.668   5.579 -0.2496 -0.3687  0.3258
26739SOL    HW182224  10.616   6.587   5.530 -0.2278 -0.8022  1.0377
26739SOL    HW282225  10.546   6.721   5.521  0.8647 -0.3082 -0.7365
26740SOL     OW82226   3.744   5.914   4.113 -0.1104 -0.0315 -0.0651
26740SOL    HW182227   3.661   5.962   4.112 -0.2580 -0.2755  0.2356
26740SOL    HW282228   3.810   5.979   4.136 -0.1675  0.2413 -0.6644
26741SOL     OW82229   9.998   1.957   4.008 -0.3656  0.3404 -0.2328
26741SOL    HW182230  10.036   1.878   3.970  0.9490  0.8529 -0.0422
26741SOL    HW282231  10.016   1.950   4.101 -2.6335 -0.3929  0.2101
26742SOL     OW82232   7.158   0.268   4.941 -0.0117  0.4389 -0.4359
26742SOL    HW182233   7.163   0.299   5.032  1.5393  1.2735 -0.7648
26742SOL    HW282234   7.079   0.215   4.938  0.1459  0.0161  1.5272
26743SOL     OW82235   7.758   2.099   5.382 -0.4121  0.1747  0.1065
26743SOL    HW182236   7.833   2.152   5.360  1.1031 -0.1379  3.7685
26743SOL    HW282237   7.697   2.159   5.426  0.4334 -0.5688  2.4640
26744SOL     OW82238   0.903   7.848   2.887 -0.0061  0.2780 -0.3138
26744SOL    HW182239   0.904   7.935   2.847  3.6009  0.7190  0.4328
26744SOL    HW282240   0.939   7.790   2.819 -0.4451 -0.2667 -0.0916
26745SOL     OW82241  10.639   8.344   4.427  0.1900 -0.3035  0.1882
26745SOL    HW182242  10.602   8.429   4.448 -0.8602 -0.8705  0.7276
26745SOL    HW282243  10.562   8.286   4.420  0.9886 -1.7298  2.2373
26746SOL     OW82244   5.304   8.845   8.951  0.3418 -0.6535 -0.0937
26746SOL    HW182245   5.215   8.821   8.977  0.2623  0.3727  0.6267
26746SOL    HW282246   5.340   8.890   9.027  0.7768  0.7506 -1.0986
26747SOL     OW82247   0.049  11.059   2.250 -0.3499 -0.0263  0.1543
26747SOL    HW182248  -0.041  11.057   2.281  0.1642 -3.6470  1.9760
26747SOL    HW282249   0.068  11.152   2.236 -3.0956  1.2768  3.6564
26748SOL     OW82250   1.052   8.709   4.874  0.1707 -0.1636 -1.0280
26748SOL    HW182251   1.012   8.790   4.906  0.6904 -0.3451  0.1531
26748SOL    HW282252   0.998   8.684   4.799 -1.2789  0.1739 -0.1427
26749SOL     OW82253   3.501   8.959   7.756  0.3399  0.3603  0.1187
26749SOL    HW182254   3.594   8.967   7.736  0.4179 -1.0752 -0.2283
26749SOL    HW282255   3.498   8.946   7.851  0.2891  2.7582  0.5019
26750SOL     OW82256   6.369   9.682   2.482  0.0829 -0.5622  0.3147
26750SOL    HW182257   6.402   9.742   2.549 -1.0104 -0.2314  0.5710
26750SOL    HW282258   6.408   9.713   2.400 -0.1681  0.2566  0.5032
26751SOL     OW82259   8.895   5.250   7.959 -0.1334  0.8727  0.9115
26751SOL    HW182260   8.884   5.269   7.866  1.4799  0.1467  0.5592
26751SOL    HW282261   8.827   5.186   7.978 -0.6527  1.2263  0.3105
26752SOL     OW82262   9.564  10.283   0.067 -0.1335 -0.2409  0.1944
26752SOL    HW182263   9.626  10.355   0.053  1.8391 -1.2498  3.0912
26752SOL    HW282264   9.494  10.322   0.120  0.5318 -0.2466  1.0882
26753SOL     OW82265  10.272  10.489   2.642 -0.1530  0.0270 -0.0335
26753SOL    HW182266  10.270  10.584   2.647 -2.4670  0.0292  5.0128
26753SOL    HW282267  10.334  10.462   2.709 -0.5707 -2.0325 -0.3904
26754SOL     OW82268   4.879   0.272   0.050 -0.0460  0.0787 -0.1089
26754SOL    HW182269   4.888   0.190   0.002  2.6259  0.4135 -0.3288
26754SOL    HW282270   4.950   0.270   0.115 -0.2102  1.9914  0.1922
26755SOL     OW82271   4.181   8.530   3.647 -0.6423 -0.0285 -0.0832
26755SOL    HW182272   4.099   8.566   3.681  0.3670  3.2236 -0.7071
26755SOL    HW282273   4.157   8.492   3.562 -1.9887 -2.2163  1.1769
26756SOL     OW82274   7.425   2.755   8.053  0.1291 -0.4270 -0.0725
26756SOL    HW182275   7.360   2.791   7.992  2.2468  2.1467 -0.9729
26756SOL    HW282276   7.392   2.780   8.140 -0.1879  0.7173 -0.5002
26757SOL     OW82277   1.160   4.491   8.831  0.1911  0.4966 -0.2430
26757SOL    HW182278   1.216   4.515   8.758  2.0585  1.6380  1.4782
26757SOL    HW282279   1.116   4.573   8.855  1.0996  0.6106  1.1173
26758SOL     OW82280   6.942   5.491   7.444  0.5051  0.1058 -0.1631
26758SOL    HW182281   6.856   5.460   7.472  0.5140  0.8581  0.7718
26758SOL    HW282282   6.960   5.565   7.503  0.4010  1.9862 -2.3486
26759SOL     OW82283   7.538   6.675   4.929  0.1424  0.1135  0.7466
26759SOL    HW182284   7.552   6.631   5.013 -3.0669 -1.8987  0.4236
26759SOL    HW282285   7.547   6.605   4.863 -1.1573  0.7535 -0.1740
26760SOL     OW82286   8.058   7.876   8.736 -0.0579 -1.1479  0.0603
26760SOL    HW182287   8.106   7.840   8.810  0.0567 -0.4872  0.3136
26760SOL    HW282288   7.967   7.850   8.751 -0.1905 -0.2490  0.9230
26761SOL     OW82289   7.829   5.069   2.752 -0.0962 -0.6775  0.6543
26761SOL    HW182290   7.811   4.993   2.807 -0.2698 -0.2307  1.2265
26761SOL    HW282291   7.763   5.134   2.777 -1.3536 -1.0836 -1.3681
26762SOL     OW82292   6.998   7.729   5.017  0.3126 -0.4194  0.4358
26762SOL    HW182293   7.054   7.651   5.021  0.4625 -0.3811 -0.6310
26762SOL    HW282294   6.918   7.698   4.974  0.1788 -0.0901  0.4480
26763SOL     OW82295   4.662   4.308   4.157 -0.1517 -0.3346 -0.2842
26763SOL    HW182296   4.722   4.375   4.191 -0.5492 -0.3397  0.4519
26763SOL    HW282297   4.581   4.355   4.141 -0.3355 -0.5752 -0.0684
26764SOL     OW82298   0.697  10.017   8.349 -0.2667 -0.1647  0.3258
26764SOL    HW182299   0.712  10.030   8.442 -2.3134  0.4186  0.6220
26764SOL    HW282300   0.687  10.106   8.314  2.0832 -0.2786 -0.7960
26765SOL     OW82301   6.585   0.309   6.327  0.3988  0.3239 -0.4452
26765SOL    HW182302   6.618   0.344   6.244 -0.2608  0.5754 -0.6033
26765SOL    HW282303   6.494   0.285   6.310  0.7990 -1.3968 -0.3113
26766SOL     OW82304   9.880   1.774   1.863  0.0796 -0.6059 -0.8220
26766SOL    HW182305   9.844   1.860   1.844  0.8892 -0.2926 -0.9497
26766SOL    HW282306   9.856   1.721   1.787 -0.3398 -0.4818 -0.7836
26767SOL     OW82307   7.962   3.940   7.252  0.0690  0.1738  0.6917
26767SOL    HW182308   7.908   3.864   7.273  0.2284  0.4129  2.0568
26767SOL    HW282309   8.031   3.940   7.319  0.9042  0.7214 -0.1353
26768SOL     OW82310   4.672   8.978   1.101 -0.1377  0.2418  0.6564
26768SOL    HW182311   4.687   9.071   1.083 -0.0810  0.2060  0.5191
26768SOL    HW282312   4.744   8.933   1.057 -1.2755 -0.0278 -1.0231
26769SOL     OW82313   8.353   7.205   4.685 -0.1762  0.3894 -0.2801
26769SOL    HW182314   8.349   7.179   4.776 -1.4945  2.5756  0.3679
26769SOL    HW282315   8.274   7.168   4.645 -0.0161  0.1043 -0.3307
26770SOL     OW82316   3.729   2.615  11.178 -0.4772  0.4315 -0.3060
26770SOL    HW182317   3.724   2.709  11.190 -0.3283  0.7614 -2.4932
26770SOL    HW282318   3.767   2.582  11.260  1.4016  2.4980 -0.2538
26771SOL     OW82319  10.631   0.531   1.166  0.0102  0.8461 -0.2387
26771SOL    HW182320  10.593   0.579   1.239 -0.6343  0.1263 -0.0914
26771SOL    HW282321  10.719   0.568   1.156  0.0663  1.0237  0.8283
26772SOL     OW82322  11.198   2.197   8.652  0.3611  0.5479 -0.2897
26772SOL    HW182323  11.258   2.237   8.715 -1.0662 -2.1729  3.1475
26772SOL    HW282324  11.111   2.218   8.685 -0.4419 -1.3928 -1.0175
26773SOL     OW82325   0.955   1.808   3.458 -0.0368  0.4212  1.1658
26773SOL    HW182326   0.939   1.716   3.477 -1.4032  0.3118 -0.2715
26773SOL    HW282327   0.918   1.821   3.370  1.8149  1.8904  0.5237
26774SOL     OW82328   4.088  10.115   3.437  0.4837  0.2218  0.2103
26774SOL    HW182329   3.994  10.131   3.426  0.6249  0.6814 -0.3979
26774SOL    HW282330   4.103  10.030   3.395  0.9127  1.6899 -2.9004
26775SOL     OW82331   9.537   0.998  10.621  0.3398 -0.2716 -0.0796
26775SOL    HW182332   9.567   1.083  10.654  0.1485 -0.5663  0.8913
26775SOL    HW282333   9.500   0.954  10.697 -0.2550 -0.9330 -0.7316
26776SOL     OW82334   0.656   6.769  10.511  0.3419  0.2067 -0.0392
26776SOL    HW182335   0.727   6.720  10.470  0.9063  1.2211 -0.3182
26776SOL    HW282336   0.616   6.707  10.572  2.0677 -0.1302  0.8225
26777SOL     OW82337   1.169   5.309   1.134  0.7010 -0.2789  0.3818
26777SOL    HW182338   1.159   5.335   1.042 -0.3799  0.6386  0.7248
26777SOL    HW282339   1.200   5.388   1.178 -0.0267 -0.3232  1.0024
26778SOL     OW82340   0.015  10.705  11.276  0.1160 -0.4571  0.1001
26778SOL    HW182341   0.051  10.685  11.362  2.3071 -0.9435 -0.8583
26778SOL    HW282342   0.052  10.791  11.254  1.3523 -1.2859 -1.2194
26779SOL     OW82343   7.084   6.248   5.598  0.0850  0.2347 -0.7381
26779SOL    HW182344   7.037   6.332   5.607  1.4083  0.7748  4.3683
26779SOL    HW282345   7.175   6.270   5.617  0.4400 -2.2753  0.9804
26780SOL     OW82346   9.845   0.930   8.922 -0.1180  0.0505  0.2252
26780SOL    HW182347   9.882   1.018   8.918  2.9429 -1.0710  0.8016
26780SOL    HW282348   9.883   0.885   8.846  0.4049 -1.4339  1.3224
26781SOL     OW82349   8.126   8.439   7.546 -0.1924  0.3753  0.0557
26781SOL    HW182350   8.156   8.350   7.566  1.7504  1.5414  3.0301
26781SOL    HW282351   8.069   8.428   7.470 -0.9864 -3.5411  0.9689
26782SOL     OW82352   5.861   0.357   2.577 -0.5214  0.3980  0.1196
26782SOL    HW182353   5.780   0.383   2.621 -0.3907  0.0727  0.5625
26782SOL    HW282354   5.835   0.338   2.487 -1.0670 -0.3759  0.4321
26783SOL     OW82355   1.622   5.141   0.020 -0.3976  0.1189  0.5087
26783SOL    HW182356   1.539   5.186   0.007 -0.0710  0.7948  0.7100
26783SOL    HW282357   1.670   5.197   0.081  0.8618  0.6244 -0.8862
26784SOL     OW82358  11.251   0.415   4.980 -0.1943  0.6656 -0.1384
26784SOL    HW182359  11.167   0.461   4.981 -0.9506 -0.4723 -2.4820
26784SOL    HW282360  11.297   0.451   4.903  1.1632  0.7526  0.6830
26785SOL     OW82361   8.385  11.197   4.096 -0.1666  0.4108  0.2604
26785SOL    HW182362   8.369  11.103   4.098 -0.1397  0.3210 -1.6462
26785SOL    HW282363   8.311  11.236   4.141 -0.1051 -0.5245  1.1797
26786SOL     OW82364   5.984  10.986  10.186 -0.1932 -0.3876  0.0035
26786SOL    HW182365   5.898  11.003  10.225  0.9778  2.6038  1.6869
26786SOL    HW282366   6.044  10.985  10.260  1.3233 -2.0229 -1.1632
26787SOL     OW82367   1.087   0.854   0.302 -0.3667 -0.2818 -0.5500
26787SOL    HW182368   1.013   0.835   0.245 -1.0240  1.1412 -0.2098
26787SOL    HW282369   1.160   0.868   0.242 -0.9508  0.7700 -1.0390
26788SOL     OW82370  10.957   5.262   8.503  0.5074 -0.1726  0.0609
26788SOL    HW182371  11.029   5.243   8.562  0.1485  0.0471  0.5747
26788SOL    HW282372  10.910   5.334   8.544 -0.1574 -0.4841 -0.1353
26789SOL     OW82373   6.341   1.601   4.300  0.4653  0.1864 -0.2012
26789SOL    HW182374   6.380   1.523   4.261  1.5471  0.4722  0.2792
26789SOL    HW282375   6.247   1.591   4.283  0.5860 -1.1803 -0.2115
26790SOL     OW82376   9.007   7.590  10.261  0.9736 -0.4734  0.4558
26790SOL    HW182377   8.983   7.665  10.207  1.6484  1.4623  2.6811
26790SOL    HW282378   9.080   7.549  10.214  1.8272  1.3986  0.0483
26791SOL     OW82379   7.025   4.304   5.949  0.1517 -0.2230 -0.2306
26791SOL    HW182380   6.993   4.357   5.876 -0.9420 -1.2503 -0.5388
26791SOL    HW282381   6.980   4.220   5.939  0.2647 -0.5139  1.4070
26792SOL     OW82382   9.071   8.578   2.039  0.3212 -0.1659 -0.8711
26792SOL    HW182383   9.098   8.499   2.086  0.1825 -0.4309 -1.2350
26792SOL    HW282384   9.002   8.615   2.094  1.0578  0.2388 -0.2033
26793SOL     OW82385  10.854   4.776   6.034 -0.2386 -0.0904  0.5777
26793SOL    HW182386  10.877   4.684   6.044 -1.2011 -0.6735 -1.9507
26793SOL    HW282387  10.928   4.814   5.987 -0.8843 -0.1533 -0.5124
26794SOL     OW82388  10.778   7.160   1.653  0.0467  0.0488  0.5968
26794SOL    HW182389  10.830   7.167   1.733 -0.9466 -0.6113  1.3282
26794SOL    HW282390  10.743   7.248   1.638  1.4171  0.5213  0.0434
26795SOL     OW82391   6.660   6.546   5.580 -0.3142 -0.0573 -1.0090
26795SOL    HW182392   6.636   6.632   5.614 -1.2547 -0.6117 -0.2126
26795SOL    HW282393   6.608   6.537   5.499  1.1693  0.8492 -2.1133
26796SOL     OW82394   9.864   8.293   0.237 -0.3902  0.0653  0.5203
26796SOL    HW182395   9.864   8.323   0.328  0.2344  0.2402  0.4677
26796SOL    HW282396   9.921   8.216   0.237 -1.1075 -0.4719  0.4437
26797SOL     OW82397   5.280   3.491   2.438 -0.3615  0.3287 -0.3249
26797SOL    HW182398   5.264   3.536   2.521  1.0018  1.3972 -0.5997
26797SOL    HW282399   5.364   3.447   2.450 -0.1148  0.5548 -1.1438
26798SOL     OW82400   7.568   5.935   5.577  0.0902  0.0019  0.4349
26798SOL    HW182401   7.621   5.857   5.560  1.1238  0.3498  1.8720
26798SOL    HW282402   7.566   5.942   5.673 -0.0481  1.6768  0.3378
26799SOL     OW82403   2.926   7.432   2.658  0.1103 -0.7197  0.0568
26799SOL    HW182404   2.979   7.371   2.606 -1.0506 -1.9704  0.2988
26799SOL    HW282405   2.858   7.378   2.697 -2.9827  1.1545 -2.2838
26800SOL     OW82406   1.759   3.013  10.955 -0.4864  0.7097 -0.0744
26800SOL    HW182407   1.734   2.978  10.869 -0.8856  0.4634  0.1368
26800SOL    HW282408   1.798   2.938  11.001  2.4592  1.5090 -1.0657
26801SOL     OW82409   4.525   4.702   8.509  0.3307 -0.3802  0.3322
26801SOL    HW182410   4.500   4.617   8.473  1.4011 -0.4484 -0.2703
26801SOL    HW282411   4.560   4.750   8.435 -0.7953  0.8230  0.5413
26802SOL     OW82412   2.612   2.372   0.531 -0.6368 -0.0611  0.1032
26802SOL    HW182413   2.567   2.324   0.461  0.7339 -1.7426  0.2837
26802SOL    HW282414   2.705   2.360   0.512 -0.2408  0.8150  1.3392
26803SOL     OW82415   5.141   1.519   9.214  0.3081  0.6392  0.3913
26803SOL    HW182416   5.164   1.444   9.158  0.0982  2.0716 -1.7376
26803SOL    HW282417   5.185   1.501   9.297 -0.9113 -2.5479  0.5233
26804SOL     OW82418   8.324  10.824   6.303  0.0480 -0.4410  0.4519
26804SOL    HW182419   8.359  10.872   6.378 -2.4551 -0.2335  1.5761
26804SOL    HW282420   8.279  10.890   6.251 -0.3647 -0.9747  0.1167
26805SOL     OW82421   2.775   9.066   6.583  0.3238 -0.5936 -0.8752
26805SOL    HW182422   2.729   9.144   6.555  1.1663  1.3173  2.4757
26805SOL    HW282423   2.864   9.077   6.549  0.6716  0.4310  0.2787
26806SOL     OW82424   6.891  10.697   2.256 -0.1807  0.4026 -0.1285
26806SOL    HW182425   6.820  10.657   2.306 -1.0659  1.8885 -0.1170
26806SOL    HW282426   6.873  10.674   2.165 -0.4242  0.3871 -0.0766
26807SOL     OW82427   1.173   2.822   9.922  0.2503  0.1562 -1.1178
26807SOL    HW182428   1.219   2.905   9.908 -0.3209  0.7109  0.1712
26807SOL    HW282429   1.167   2.813  10.017 -2.4602  0.1981 -1.2092
26808SOL     OW82430   4.910   0.468   7.768  0.3586 -0.3098  0.9102
26808SOL    HW182431   4.931   0.375   7.770  1.1633 -0.1306  1.9342
26808SOL    HW282432   4.973   0.506   7.706 -1.6999 -0.7941 -1.6201
26809SOL     OW82433   4.421   3.264   6.857  0.0558  0.3135  0.1520
26809SOL    HW182434   4.343   3.209   6.851 -1.3442  2.2391 -0.1528
26809SOL    HW282435   4.483   3.225   6.795 -1.6469  0.2585 -1.5889
26810SOL     OW82436   6.122   3.942   5.280 -0.4582 -0.4840  0.0023
26810SOL    HW182437   6.054   3.986   5.229  0.1037  0.1422 -0.2181
26810SOL    HW282438   6.197   4.002   5.278  0.7068 -1.9082 -1.2156
26811SOL     OW82439   2.705  10.132   5.559  0.0805  0.1121 -0.0234
26811SOL    HW182440   2.691  10.042   5.589  2.2214  0.4247  2.2186
26811SOL    HW282441   2.733  10.179   5.637 -2.4863  3.1944 -0.7588
26812SOL     OW82442  10.070   1.932   9.530  0.2628  0.4170 -0.1299
26812SOL    HW182443  10.111   1.905   9.612  1.0627  2.3961  0.1717
26812SOL    HW282444  10.014   1.858   9.506  1.1354 -0.8107  1.4148
26813SOL     OW82445   2.543   8.348   4.896 -0.3419  0.6674 -0.4168
26813SOL    HW182446   2.606   8.419   4.912  1.2874 -0.6428 -0.7390
26813SOL    HW282447   2.595   8.268   4.906 -2.2125 -0.5028  0.2966
26814SOL     OW82448   4.539   0.256  11.178 -0.9816 -0.4626 -0.1587
26814SOL    HW182449   4.561   0.205  11.256  0.2630  0.5307  0.1875
26814SOL    HW282450   4.613   0.316  11.168 -0.4754 -1.4037 -2.8543
26815SOL     OW82451   1.303  10.170   3.613  0.1475  0.3918  0.6970
26815SOL    HW182452   1.338  10.180   3.525  0.6981  2.1493  1.0611
26815SOL    HW282453   1.287  10.260   3.642 -1.6890 -0.2238  1.7478
26816SOL     OW82454   4.777   8.350   2.470 -0.3051  0.1339  0.0537
26816SOL    HW182455   4.772   8.433   2.518 -0.7250  0.2764 -0.2352
26816SOL    HW282456   4.728   8.366   2.389 -0.6114 -0.4790  0.1137
26817SOL     OW82457   2.732   2.749   2.997  0.3742 -0.1452  0.1074
26817SOL    HW182458   2.789   2.720   2.926 -0.1190  0.8886 -0.7246
26817SOL    HW282459   2.786   2.739   3.076  1.7594  0.8728 -0.6673
26818SOL     OW82460   1.653   2.309   2.479 -0.5697 -0.3345 -0.1480
26818SOL    HW182461   1.679   2.387   2.429 -1.3288 -0.7172 -1.1849
26818SOL    HW282462   1.558   2.318   2.489 -0.9527 -1.9442 -1.8025
26819SOL     OW82463   5.621   0.625   4.923 -0.1510 -0.4550  0.5054
26819SOL    HW182464   5.705   0.672   4.917 -0.0194 -0.6366  0.8911
26819SOL    HW282465   5.555   0.694   4.922 -0.2562 -0.3990 -3.5614
26820SOL     OW82466   3.250  10.074   7.871  0.3358  0.0189  0.6355
26820SOL    HW182467   3.301  10.143   7.912  0.0768 -0.1879  1.3174
26820SOL    HW282468   3.195  10.119   7.807  2.1155  0.1370 -0.8767
26821SOL     OW82469   9.607   4.079   4.836 -0.6436 -0.0865 -0.0504
26821SOL    HW182470   9.554   4.159   4.839 -0.7194 -0.1565  0.4434
26821SOL    HW282471   9.686   4.101   4.885  0.3767  0.4417 -1.8166
26822SOL     OW82472   0.735   9.751   0.135  0.2541  0.1160 -0.5334
26822SOL    HW182473   0.662   9.694   0.107  0.4621  0.4888 -1.9156
26822SOL    HW282474   0.695   9.813   0.195 -0.1951 -0.8258  0.1601
26823SOL     OW82475   0.010   9.285   5.758  0.4213  0.3739 -1.2583
26823SOL    HW182476  -0.008   9.209   5.703 -0.5919  0.4265 -1.0346
26823SOL    HW282477  -0.021   9.360   5.707 -0.2974  0.4455 -0.7489
26824SOL     OW82478  10.530   1.289   8.394  1.1345  0.0446  0.9940
26824SOL    HW182479  10.595   1.260   8.330  1.5099  1.2772  0.7902
26824SOL    HW282480  10.507   1.210   8.442  2.0589 -0.5983  0.4163
26825SOL     OW82481   2.775   0.774   0.694 -0.0527  0.1354  0.0319
26825SOL    HW182482   2.746   0.749   0.782 -0.2580 -1.4031 -0.4311
26825SOL    HW282483   2.695   0.776   0.642 -0.1352  2.5618  0.1733
26826SOL     OW82484   0.093   0.741   8.964 -0.2181  0.1402 -0.6530
26826SOL    HW182485   0.171   0.797   8.957 -0.4525  0.5105 -0.3375
26826SOL    HW282486   0.127   0.658   8.999  0.0342  0.3076 -0.4893
26827SOL     OW82487   4.344   0.672   3.539 -0.1519  0.3189 -0.6655
26827SOL    HW182488   4.391   0.589   3.539 -0.3520  0.1519  1.8654
26827SOL    HW282489   4.316   0.683   3.448  0.7246 -1.8700 -1.2630
26828SOL     OW82490   9.720   0.759   6.592 -0.1537 -0.3443 -0.0115
26828SOL    HW182491   9.724   0.664   6.597  2.3961 -0.2982  0.1583
26828SOL    HW282492   9.699   0.787   6.681 -1.7272 -0.7269 -0.2336
26829SOL     OW82493   7.861  11.036   5.489 -0.6579 -0.0740 -0.3642
26829SOL    HW182494   7.775  11.039   5.447 -0.6557  1.6738 -0.3356
26829SOL    HW282495   7.855  11.099   5.561  0.3747 -0.6009  0.2169
26830SOL     OW82496   7.045   9.778   0.149 -0.6956 -0.5035 -0.8447
26830SOL    HW182497   6.991   9.700   0.138  0.2983 -1.3487  0.1600
26830SOL    HW282498   7.108   9.755   0.217 -1.6802  1.8538  1.0083
26831SOL     OW82499   1.082   2.005   2.080 -0.3209 -0.0105 -0.3323
26831SOL    HW182500   1.034   2.088   2.080  2.5987  1.8797  1.5116
26831SOL    HW282501   1.133   2.007   2.000  0.3236  0.3714  0.0821
26832SOL     OW82502   0.136   9.151   4.964  0.4016 -0.0187  0.4844
26832SOL    HW182503   0.042   9.135   4.954  0.4787 -0.4886  0.4629
26832SOL    HW282504   0.173   9.128   4.878  0.7064 -1.2118  0.9186
26833SOL     OW82505   7.242   1.563   9.286  0.3041  0.0372  0.1484
26833SOL    HW182506   7.317   1.608   9.325  2.2028 -1.0540 -1.9890
26833SOL    HW282507   7.249   1.473   9.318 -0.5228  0.0813  0.4686
26834SOL     OW82508   8.104  10.606   6.759 -0.1467 -0.2211  0.8855
26834SOL    HW182509   8.104  10.643   6.670 -1.5848  0.0146  0.9467
26834SOL    HW282510   8.081  10.514   6.746 -2.5803  0.2825  1.1088
26835SOL     OW82511   5.222   7.751   0.146  0.1113 -0.2180  0.4416
26835SOL    HW182512   5.314   7.772   0.131 -0.1680  0.6269 -0.2512
26835SOL    HW282513   5.212   7.755   0.241  0.1732  2.7428  0.4375
26836SOL     OW82514   9.975   9.497   5.592 -0.4710  0.3604 -0.0016
26836SOL    HW182515  10.037   9.498   5.666  0.9941  0.8026 -1.1854
26836SOL    HW282516  10.009   9.430   5.534 -1.9857 -0.4310 -0.0065
26837SOL     OW82517   9.568   4.670   7.402  0.0310 -0.2617  0.5087
26837SOL    HW182518   9.625   4.714   7.338 -0.2904 -0.9365 -0.2599
26837SOL    HW282519   9.547   4.738   7.466  1.7429 -0.0088  0.8464
26838SOL     OW82520  10.545  10.383   0.321 -0.1524  0.1609  0.2944
26838SOL    HW182521  10.450  10.390   0.328  0.1001  2.0416  3.2860
26838SOL    HW282522  10.575  10.473   0.307  1.2888 -0.1214  1.3981
26839SOL     OW82523   4.544   6.946   5.821  0.3689 -0.1590  0.1811
26839SOL    HW182524   4.624   6.897   5.805  0.3798 -0.8066  1.9935
26839SOL    HW282525   4.531   6.941   5.916 -1.2648  0.8008  0.0486
26840SOL     OW82526   1.149   4.008   2.264 -0.2455 -0.3091  0.5723
26840SOL    HW182527   1.063   4.048   2.280  0.5523  1.4999  0.5500
26840SOL    HW282528   1.200   4.076   2.221  1.0451 -1.5468  0.0473
26841SOL     OW82529   3.223   6.684   1.044 -0.1895  0.4693  0.6674
26841SOL    HW182530   3.260   6.762   1.002  0.1909 -0.3578 -0.5607
26841SOL    HW282531   3.144   6.665   0.993  0.4113 -0.6940  0.1337
26842SOL     OW82532   9.009   4.437   6.768  0.1224 -0.1057 -0.5272
26842SOL    HW182533   9.089   4.412   6.722  0.1016 -0.0974 -0.5693
26842SOL    HW282534   8.939   4.421   6.705  0.1511  0.4890 -0.7155
26843SOL     OW82535   2.920   8.816  11.065 -0.1887  0.4902  0.3330
26843SOL    HW182536   2.922   8.753  10.992 -2.1904  0.8288 -0.0815
26843SOL    HW282537   2.958   8.768  11.139  1.3136 -0.0768 -0.7535
26844SOL     OW82538   2.817  10.440   2.836 -0.6752  0.0032  0.2021
26844SOL    HW182539   2.873  10.368   2.806  2.4651  1.2757  2.4995
26844SOL    HW282540   2.874  10.517   2.833 -3.3646  2.0813 -0.4198
26845SOL     OW82541   7.507   9.609   4.592 -0.4698 -0.7978 -0.2438
26845SOL    HW182542   7.500   9.622   4.498 -0.7635 -0.2793 -0.1549
26845SOL    HW282543   7.557   9.528   4.602 -1.2585 -1.3603 -0.8485
26846SOL     OW82544   0.334   1.528  10.191  0.0178 -0.5777 -0.0713
26846SOL    HW182545   0.297   1.543  10.104 -1.8409 -1.3007  0.5245
26846SOL    HW282546   0.399   1.597  10.202 -1.2555  0.8757 -1.1819
26847SOL     OW82547  10.169   9.431   6.052  0.1070  0.1465  0.4018
26847SOL    HW182548  10.184   9.482   6.132 -2.6098  1.0414  0.4328
26847SOL    HW282549  10.133   9.348   6.083  2.6644 -1.1549  0.2197
26848SOL     OW82550   0.641   0.797   4.726 -0.0495 -0.2512 -0.0335
26848SOL    HW182551   0.733   0.823   4.716  0.5488 -2.3307 -0.6489
26848SOL    HW282552   0.591   0.874   4.699  1.4669  1.2426  1.1636
26849SOL     OW82553  11.073   7.831   7.353  0.4302  0.0234  0.6825
26849SOL    HW182554  10.996   7.833   7.296 -1.0035 -2.1970  2.3669
26849SOL    HW282555  11.147   7.824   7.293 -1.0195 -2.5700 -0.9816
26850SOL     OW82556   5.987  10.491  11.106  0.3715  0.1189  0.5326
26850SOL    HW182557   5.985  10.395  11.113  1.3683 -0.0483 -0.8884
26850SOL    HW282558   6.019  10.507  11.017  1.0333  1.7817  1.0403
26851SOL     OW82559   6.549   2.185   7.859  0.1399  0.3324  0.3779
26851SOL    HW182560   6.600   2.111   7.892  0.7624  1.4612  2.0862
26851SOL    HW282561   6.610   2.259   7.864 -0.7689  1.1542 -0.3767
26852SOL     OW82562   9.039   4.171   9.232  0.0376 -0.2564 -0.4462
26852SOL    HW182563   9.016   4.239   9.169  0.2597  0.9412  0.7290
26852SOL    HW282564   8.961   4.116   9.237 -0.0771 -0.2190 -1.5515
26853SOL     OW82565   1.237  11.056   5.638  0.2366 -0.6563 -0.4526
26853SOL    HW182566   1.201  11.143   5.626  1.4106 -0.1497 -0.3935
26853SOL    HW282567   1.220  11.035   5.730 -1.5822 -1.2338 -0.8720
26854SOL     OW82568   9.114   5.635   8.264  0.0447 -0.0189  0.2151
26854SOL    HW182569   9.026   5.671   8.259  0.1823  0.7190  2.1132
26854SOL    HW282570   9.158   5.669   8.187 -1.4871 -0.9526 -1.1335
26855SOL     OW82571   5.401   9.204   4.835 -0.6176  0.2291 -0.1960
26855SOL    HW182572   5.360   9.202   4.922 -0.6285  0.3709 -0.1974
26855SOL    HW282573   5.361   9.131   4.788 -1.2361  0.6541 -0.3571
26856SOL     OW82574   4.906   3.176   4.419  0.8438 -0.0514 -0.2147
26856SOL    HW182575   4.899   3.116   4.493 -0.0338 -2.0513 -1.8255
26856SOL    HW282576   4.819   3.215   4.411  0.7010 -0.4677 -0.6951
26857SOL     OW82577   1.324  11.093   5.956  0.2963  0.2413  0.3159
26857SOL    HW182578   1.255  11.047   6.004  0.9621 -0.6809  0.4108
26857SOL    HW282579   1.405  11.061   5.995  0.7936  2.6423  1.4650
26858SOL     OW82580   8.426   8.415   1.723 -0.1334  0.6960 -0.5713
26858SOL    HW182581   8.353   8.366   1.760  2.5100 -0.7088  3.4119
26858SOL    HW282582   8.403   8.507   1.739 -0.9480  0.2628  0.9819
26859SOL     OW82583   5.206   1.107   9.199 -0.1363  0.5545 -0.0145
26859SOL    HW182584   5.169   1.056   9.127  1.6742  1.0525 -1.3596
26859SOL    HW282585   5.248   1.182   9.156  1.8890  0.3303  1.4610
26860SOL     OW82586   1.118   3.653   0.769  0.2380 -0.2801  0.9287
26860SOL    HW182587   1.158   3.666   0.683 -0.5365  0.4021  0.6556
26860SOL    HW282588   1.189   3.621   0.824  0.5173 -1.7556 -0.2136
26861SOL     OW82589   0.367   4.455   1.401 -0.8599 -0.1961 -0.4219
26861SOL    HW182590   0.375   4.550   1.409  1.0001 -0.2873 -0.5937
26861SOL    HW282591   0.400   4.421   1.484 -1.5841 -0.7012 -0.3308
26862SOL     OW82592   2.378   4.010   3.871 -0.1381 -0.0307 -0.0849
26862SOL    HW182593   2.364   3.924   3.911 -0.9640  0.0114 -0.2610
26862SOL    HW282594   2.371   3.993   3.777 -0.4366  0.2499 -0.1149
26863SOL     OW82595   7.048   1.759   3.985  0.4310  0.0538  0.0817
26863SOL    HW182596   6.985   1.751   3.914  0.0149 -1.5940  0.5909
26863SOL    HW282597   7.110   1.825   3.954 -0.5075  0.3782 -1.2082
26864SOL     OW82598   5.224   1.041   6.902 -0.1020 -0.4889 -0.0096
26864SOL    HW182599   5.215   1.132   6.874  3.7134  0.2558  0.6386
26864SOL    HW282600   5.240   1.047   6.997 -0.6650 -1.9364  0.2055
26865SOL     OW82601   3.672   0.049   2.227 -0.0137  0.2724 -0.3650
26865SOL    HW182602   3.720   0.082   2.150 -0.4246  0.5304 -0.5130
26865SOL    HW282603   3.740   0.033   2.292  0.0318  3.5189  0.5160
26866SOL     OW82604   8.052  10.099   5.365  0.0405  0.2112 -0.0050
26866SOL    HW182605   8.016  10.010   5.366  0.1988  0.1475  0.3644
26866SOL    HW282606   8.107  10.102   5.287  0.7975 -0.3283  0.4888
26867SOL     OW82607   2.773   0.423  11.138  0.0136 -0.1671  0.7727
26867SOL    HW182608   2.753   0.370  11.061 -2.3363 -0.3307  1.4041
26867SOL    HW282609   2.752   0.513  11.111  0.8044  0.0071  0.7206
26868SOL     OW82610   7.085   5.562   6.073  0.8003 -0.0700 -0.0560
26868SOL    HW182611   7.010   5.555   6.132  0.7793 -1.2188 -0.1958
26868SOL    HW282612   7.159   5.583   6.130  0.7880 -1.2086  0.4033
26869SOL     OW82613   0.291   9.011   5.989 -0.1126 -0.2214 -0.2779
26869SOL    HW182614   0.207   9.010   6.034 -0.4193 -0.3355 -0.8510
26869SOL    HW282615   0.287   8.938   5.927  0.3103 -0.0756 -0.4826
26870SOL     OW82616   9.146   2.841   8.162  0.2739 -0.1275 -0.2242
26870SOL    HW182617   9.095   2.855   8.242  0.3914 -0.1078 -0.1527
26870SOL    HW282618   9.170   2.748   8.164 -1.5437 -0.6736 -1.3150
26871SOL     OW82619  11.034   6.139  11.098  1.1863 -0.9947 -0.3356
26871SOL    HW182620  11.117   6.102  11.067  1.0454 -0.2674 -1.6513
26871SOL    HW282621  10.968   6.076  11.069  1.1497 -0.8503 -0.5652
26872SOL     OW82622  11.181   8.244   4.361  0.5556  0.0949 -0.3948
26872SOL    HW182623  11.216   8.157   4.343  1.9109  0.2454  1.2942
26872SOL    HW282624  11.164   8.244   4.455  2.0532  2.1222 -0.0608
26873SOL     OW82625   1.113   9.814   9.881  0.2821 -0.1110 -0.3267
26873SOL    HW182626   1.095   9.872   9.955 -0.3481 -1.8858  0.9771
26873SOL    HW282627   1.138   9.731   9.921  0.4155 -0.9698 -2.1146
26874SOL     OW82628   2.867   4.832   5.977 -0.4057  0.6370 -0.2782
26874SOL    HW182629   2.932   4.878   6.029  0.4530 -1.9223  1.0787
26874SOL    HW282630   2.917   4.788   5.908 -0.1857 -3.1055  2.0211
26875SOL     OW82631   8.634   4.300   0.995 -0.6185 -0.0471  0.0662
26875SOL    HW182632   8.618   4.286   1.088  0.3632 -0.1130  0.2316
26875SOL    HW282633   8.630   4.213   0.956  4.7399 -1.0451  0.9822
26876SOL     OW82634   8.636   5.608   6.455 -0.5172 -0.6542 -0.3514
26876SOL    HW182635   8.579   5.531   6.462 -0.2517 -0.8397 -0.2060
26876SOL    HW282636   8.647   5.638   6.545  1.9733 -2.3661  0.0175
26877SOL     OW82637   4.098   2.944   8.242 -0.0241 -0.5329  0.7558
26877SOL    HW182638   4.029   2.933   8.177  0.7886  0.2372 -0.2899
26877SOL    HW282639   4.052   2.963   8.323 -1.0487  0.3174  0.0101
26878SOL     OW82640   1.417   1.634   2.589  0.2066 -0.1976 -0.9346
26878SOL    HW182641   1.410   1.557   2.647  0.1966  0.7773  0.4109
26878SOL    HW282642   1.342   1.688   2.613  0.8165  0.7332 -1.0880
26879SOL     OW82643   6.176   5.329  10.574 -0.5040 -0.3650 -0.0660
26879SOL    HW182644   6.125   5.257  10.611  0.2354 -0.3354  1.0647
26879SOL    HW282645   6.256   5.331  10.627 -0.9265  1.8863  0.5920
26880SOL     OW82646   5.525   4.071   7.039  0.2654 -1.1223 -0.2809
26880SOL    HW182647   5.474   4.089   7.118 -0.7239  1.4381 -1.3953
26880SOL    HW282648   5.494   3.985   7.009 -2.7838 -0.1037 -0.3750
26881SOL     OW82649   1.602   6.328   3.618  0.2342  0.2513 -0.2219
26881SOL    HW182650   1.673   6.383   3.651 -0.4245  0.8883  0.1680
26881SOL    HW282651   1.588   6.358   3.528  2.0815 -1.5371 -1.1588
26882SOL     OW82652   0.145   0.527   4.765  0.1518  0.2638  0.2398
26882SOL    HW182653   0.222   0.562   4.811  0.1429  0.5137  0.0643
26882SOL    HW282654   0.099   0.604   4.732  0.5757  0.0599 -0.8641
26883SOL     OW82655   1.287   5.313   7.978 -0.4097 -0.6427  0.1890
26883SOL    HW182656   1.335   5.307   8.061 -1.6634  0.6365  1.0518
26883SOL    HW282657   1.351   5.347   7.916  0.3748 -0.9930  0.7829
26884SOL     OW82658   1.765   6.495   3.409  0.1931  0.1541 -0.1532
26884SOL    HW182659   1.800   6.518   3.324 -0.2297  0.4027 -0.2639
26884SOL    HW282660   1.838   6.507   3.470 -0.0179  1.9155 -0.1815
26885SOL     OW82661   7.972  10.725   8.386 -1.1271 -0.1226 -0.7697
26885SOL    HW182662   8.001  10.720   8.295 -1.7950  1.9925 -1.1479
26885SOL    HW282663   8.051  10.712   8.438 -0.6662 -0.9015 -1.6321
26886SOL     OW82664   9.710   7.446   2.990 -0.0653  0.4080  0.5588
26886SOL    HW182665   9.732   7.464   2.899  0.9722  0.4276  0.8061
26886SOL    HW282666   9.738   7.356   3.006 -0.6816  0.2363  0.7359
26887SOL     OW82667   5.908   0.052   8.849  0.1087  0.2582 -0.6739
26887SOL    HW182668   5.896   0.135   8.802 -1.1862  0.1384 -0.5762
26887SOL    HW282669   5.861   0.064   8.931 -1.9674 -1.2906 -1.5264
26888SOL     OW82670   2.853   0.379  10.336 -0.5097  0.2511 -0.9288
26888SOL    HW182671   2.828   0.415  10.251 -0.5238 -0.2167 -1.1233
26888SOL    HW282672   2.904   0.301  10.315 -0.6110  0.0706 -0.5036
26889SOL     OW82673   0.170   4.391   6.270 -0.0073 -0.2059 -0.2711
26889SOL    HW182674   0.164   4.305   6.312 -1.7957  0.8907  1.9578
26889SOL    HW282675   0.188   4.452   6.341  3.4800  1.1523 -2.0786
26890SOL     OW82676   5.856   6.337  10.152  0.1046  0.1141 -0.3561
26890SOL    HW182677   5.935   6.384  10.124 -0.3290  1.4404  0.5506
26890SOL    HW282678   5.844   6.269  10.085  0.8324  1.2157 -1.6716
26891SOL     OW82679   9.178   4.717   7.644 -0.4205  0.0209 -0.4866
26891SOL    HW182680   9.155   4.624   7.649 -0.5900  0.1268  1.2883
26891SOL    HW282681   9.231   4.733   7.722  1.4234  0.9660 -1.8262
26892SOL     OW82682   7.231   7.213   2.451  0.4108 -0.1595  0.1678
26892SOL    HW182683   7.254   7.123   2.473 -0.2993 -0.4099 -0.0984
26892SOL    HW282684   7.274   7.266   2.518  2.3516 -0.5481 -0.7114
26893SOL     OW82685   4.301   5.770   6.756  0.4164  0.1891 -0.4979
26893SOL    HW182686   4.367   5.838   6.769 -0.6644  1.6153 -2.0959
26893SOL    HW282687   4.289   5.732   6.843  2.8769  0.2878 -0.0512
26894SOL     OW82688   8.007   6.484   3.944  0.0335  0.0967 -0.3224
26894SOL    HW182689   7.948   6.508   4.016 -1.3282 -0.3137 -1.2772
26894SOL    HW282690   8.068   6.422   3.984 -0.5403  0.0564  0.5333
26895SOL     OW82691   6.421  11.034   0.020  0.1387 -0.0371  0.0902
26895SOL    HW182692   6.383  11.015   0.106 -1.9145  1.1854 -0.4836
26895SOL    HW282693   6.356  11.003  -0.042  1.4534 -0.6124 -1.0517
26896SOL     OW82694   6.063   1.406  11.015  0.3135 -0.5256  0.0319
26896SOL    HW182695   6.054   1.323  11.062  2.1843 -0.7277  0.1236
26896SOL    HW282696   6.103   1.381  10.932  1.5806  0.3357  0.3582
26897SOL     OW82697   8.457   6.873   6.331 -0.5284 -0.2002 -0.1422
26897SOL    HW182698   8.444   6.948   6.273  0.7580  1.6936  1.8296
26897SOL    HW282699   8.459   6.911   6.419  1.1795 -2.4122  0.8857
26898SOL     OW82700   4.439   4.757   6.658  0.2873  1.1339  0.6038
26898SOL    HW182701   4.498   4.813   6.608  0.6659 -0.2131 -0.5261
26898SOL    HW282702   4.400   4.699   6.593  0.5081 -0.4329  1.8176
26899SOL     OW82703  11.256   7.352   8.575  0.0244  0.1207  0.0014
26899SOL    HW182704  11.290   7.397   8.498 -1.3953  1.7333  0.2712
26899SOL    HW282705  11.169   7.390   8.589  1.0560  1.5799  3.6990
26900SOL     OW82706   3.383   1.688   3.518 -0.2739  0.4956 -0.2560
26900SOL    HW182707   3.334   1.637   3.583 -1.7470  1.9885 -0.1313
26900SOL    HW282708   3.371   1.779   3.545  2.2091  0.9921 -0.5211
26901SOL     OW82709   9.005   6.453  11.060 -0.1223  0.5646  0.4994
26901SOL    HW182710   8.931   6.474  11.118 -0.3367 -0.0689  0.4677
26901SOL    HW282711   8.965   6.438  10.975 -0.2168 -1.5424  0.8529
26902SOL     OW82712   3.332   4.232   4.722  0.2849 -0.3553  0.8590
26902SOL    HW182713   3.262   4.251   4.660  0.0937  0.0406  1.1963
26902SOL    HW282714   3.406   4.207   4.666 -0.0582 -0.5820  0.4944
26903SOL     OW82715   3.501   8.905  10.681  0.0306 -0.2552 -0.3868
26903SOL    HW182716   3.531   8.994  10.698  0.6627  0.0455 -2.6414
26903SOL    HW282717   3.411   8.916  10.650  0.1604 -0.3681 -0.8119
26904SOL     OW82718   0.810   8.684   3.400 -0.1899 -0.2957  0.1476
26904SOL    HW182719   0.728   8.636   3.414  0.0953 -0.5334  1.0763
26904SOL    HW282720   0.839   8.707   3.488  1.7019 -1.8376  0.0061
26905SOL     OW82721  10.867   1.711   9.681 -0.6681 -0.1479  0.4356
26905SOL    HW182722  10.808   1.698   9.755 -0.2155 -0.7049  0.7112
26905SOL    HW282723  10.876   1.806   9.674  0.3898 -0.0907  2.0095
26906SOL     OW82724   4.308   9.862   9.557 -0.2874 -0.0732  0.4301
26906SOL    HW182725   4.277   9.862   9.467 -0.9791 -2.3115  0.6231
26906SOL    HW282726   4.228   9.855   9.610  0.0431  1.8954  1.3017
26907SOL     OW82727   1.421   9.416   4.085 -0.2746 -0.0890  0.4681
26907SOL    HW182728   1.430   9.509   4.104  1.8185 -0.7356  3.2274
26907SOL    HW282729   1.511   9.384   4.079 -0.9423 -2.0148 -0.1232
26908SOL     OW82730   0.837   5.890   8.587 -0.3621 -0.5785  0.0829
26908SOL    HW182731   0.779   5.949   8.539  0.3689 -0.2862 -0.4718
26908SOL    HW282732   0.857   5.937   8.668 -0.3706 -0.3832 -0.0263
26909SOL     OW82733   2.723   6.055  10.742 -0.4511  0.4634  0.1674
26909SOL    HW182734   2.674   5.991  10.793  0.5624  0.0747  0.6870
26909SOL    HW282735   2.701   6.035  10.651  1.6048 -2.1893  0.1567
26910SOL     OW82736   6.835   2.268   6.413  0.8198 -0.0668 -0.7088
26910SOL    HW182737   6.756   2.314   6.384  1.5860  1.0009 -1.2153
26910SOL    HW282738   6.820   2.177   6.390 -2.0250 -0.7597  2.9690
26911SOL     OW82739   7.297   4.296   1.518 -0.0018  0.0062 -0.3326
26911SOL    HW182740   7.266   4.288   1.608  0.3363  1.2247 -0.0909
26911SOL    HW282741   7.382   4.252   1.517 -0.3548 -0.6959 -0.2627
26912SOL     OW82742  11.109   6.037   8.955 -0.1782 -0.3167 -0.0889
26912SOL    HW182743  11.092   6.117   9.004  2.4628 -0.4113  1.1585
26912SOL    HW282744  11.095   6.062   8.863 -2.4354  0.6377  0.4461
26913SOL     OW82745   2.065   5.882   7.192  0.3932  0.2503 -0.0748
26913SOL    HW182746   2.139   5.915   7.140 -1.9811  4.3559 -1.3406
26913SOL    HW282747   2.040   5.801   7.149  1.9530  0.6329 -1.8875
26914SOL     OW82748   3.952   4.673   7.393  0.0592  0.5022  0.1172
26914SOL    HW182749   3.968   4.645   7.302  0.0964  0.0311  0.2627
26914SOL    HW282750   4.010   4.747   7.406  1.6175 -0.7126  0.4082
26915SOL     OW82751  10.466   6.473  10.005 -1.0380  0.5520 -0.5976
26915SOL    HW182752  10.532   6.541   9.990 -0.4308 -0.2070 -1.5132
26915SOL    HW282753  10.390   6.520  10.040 -0.8287  1.7733 -1.6986
26916SOL     OW82754   0.356   6.865  10.772  0.2608 -0.7700  0.6346
26916SOL    HW182755   0.369   6.772  10.753 -0.2752 -0.8870  0.8193
26916SOL    HW282756   0.367   6.872  10.866  0.9565 -0.5263  0.5404
26917SOL     OW82757   3.413   7.942  10.886  0.9243  0.2986 -0.1804
26917SOL    HW182758   3.415   7.997  10.808 -1.0287  1.6853  0.6533
26917SOL    HW282759   3.487   7.972  10.939  0.4799  1.4591 -0.1887
26918SOL     OW82760   0.275   3.674   1.309 -0.1101 -0.1891 -0.0407
26918SOL    HW182761   0.269   3.580   1.324 -0.2988 -0.0835  0.5640
26918SOL    HW282762   0.280   3.683   1.214 -1.5545 -0.7267 -0.1796
26919SOL     OW82763   5.559   9.910   4.936 -0.9992 -0.2969 -0.1432
26919SOL    HW182764   5.483   9.867   4.975  0.7802 -1.2808  2.5555
26919SOL    HW282765   5.602   9.955   5.009  0.3343  1.3340 -1.8115
26920SOL     OW82766   8.413   2.184   6.200  0.3527  0.3977  0.3213
26920SOL    HW182767   8.439   2.117   6.137 -1.0939 -0.9850  1.1340
26920SOL    HW282768   8.318   2.189   6.192  0.3879  2.0288  0.6372
26921SOL     OW82769   5.526  11.080   1.578  0.0925  0.0571  0.4301
26921SOL    HW182770   5.459  11.118   1.634  0.3482  0.6868  0.3154
26921SOL    HW282771   5.606  11.085   1.630  0.8871  2.9725 -0.8384
26922SOL     OW82772   3.716   5.816   1.720 -0.3535  0.0402 -0.5189
26922SOL    HW182773   3.664   5.867   1.658  1.9937  1.1991 -1.6591
26922SOL    HW282774   3.796   5.793   1.672  0.9093 -0.3057  1.5965
26923SOL     OW82775   5.476   0.276   5.856 -0.0010 -0.0241 -0.1865
26923SOL    HW182776   5.437   0.260   5.942 -0.1105  0.7906 -0.0700
26923SOL    HW282777   5.466   0.371   5.843  0.7986 -0.0073 -0.7149
26924SOL     OW82778   5.936   6.975   6.396 -0.2148 -0.0660  0.3131
26924SOL    HW182779   6.001   7.044   6.381 -2.7368  2.3653 -0.4307
26924SOL    HW282780   5.953   6.910   6.329  0.2963  1.4751 -1.1362
26925SOL     OW82781   7.386   0.127   3.390 -0.3719  0.3296  0.7712
26925SOL    HW182782   7.420   0.044   3.357  0.1691 -0.0939  2.2966
26925SOL    HW282783   7.291   0.117   3.387 -0.3284  0.1168 -0.1455
26926SOL     OW82784   0.940   4.906   2.381  0.2825 -0.2880 -0.8123
26926SOL    HW182785   0.923   4.870   2.468  0.5264 -0.4580 -0.8354
26926SOL    HW282786   1.003   4.977   2.396 -0.3832  0.2910 -0.7364
26927SOL     OW82787   1.053   2.891   8.083 -0.2609 -0.1355 -0.0417
26927SOL    HW182788   0.985   2.824   8.071  0.7045 -0.9503 -1.2691
26927SOL    HW282789   1.095   2.898   7.997  1.8929 -0.4229  0.9091
26928SOL     OW82790   4.446  11.262  10.034  0.4236 -0.5619  0.0097
26928SOL    HW182791   4.490  11.328   9.980  0.2483 -1.4411 -1.2461
26928SOL    HW282792   4.382  11.311  10.085 -0.1042  0.1692 -1.3246
26929SOL     OW82793   7.805   9.883   0.139  0.5700 -0.6172 -0.5093
26929SOL    HW182794   7.800   9.919   0.228 -2.2171  2.1434 -1.6173
26929SOL    HW282795   7.738   9.814   0.137  0.4222 -0.4710 -0.5677
26930SOL     OW82796   0.063   1.170  10.746  0.3089  0.1758 -0.1625
26930SOL    HW182797   0.105   1.256  10.748  0.0965  0.2869  1.5067
26930SOL    HW282798   0.103   1.123  10.820 -0.3989 -0.7569 -0.3620
26931SOL     OW82799   8.169   1.522   0.380  0.0637  0.2471 -0.0102
26931SOL    HW182800   8.217   1.479   0.310 -2.0455  0.1277 -1.4725
26931SOL    HW282801   8.158   1.455   0.447  0.9837 -0.0259 -0.1270
26932SOL     OW82802   2.539   3.926   1.658 -0.1572  0.4624 -0.2696
26932SOL    HW182803   2.583   4.010   1.670 -1.2098  1.0526 -0.4200
26932SOL    HW282804   2.494   3.910   1.742 -0.9202  0.6429 -0.6311
26933SOL     OW82805   1.997   3.121   5.841  0.7979  0.4803 -0.4994
26933SOL    HW182806   2.014   3.204   5.885  2.4121 -0.2895  0.4088
26933SOL    HW282807   2.084   3.081   5.831 -0.1636 -2.9188  2.7662
26934SOL     OW82808   1.431   6.728  10.343  0.1075 -0.0684  0.2117
26934SOL    HW182809   1.497   6.767  10.285  0.0743 -0.2063  0.0821
26934SOL    HW282810   1.405   6.647  10.299  0.7210 -0.6147  0.8544
26935SOL     OW82811   7.290   7.143   9.299  0.1419  0.0591 -0.3881
26935SOL    HW182812   7.363   7.174   9.245 -1.0421  2.1928 -0.9042
26935SOL    HW282813   7.250   7.223   9.332 -0.8839 -1.1206  1.3827
26936SOL     OW82814   6.862   4.935   6.018 -0.0154  0.2926 -0.3480
26936SOL    HW182815   6.859   4.841   5.997 -0.3952  0.5257 -1.3936
26936SOL    HW282816   6.955   4.957   6.018  0.0176  0.1690 -1.3106
26937SOL     OW82817   8.419  10.957   6.556  0.9241  0.0408  0.3733
26937SOL    HW182818   8.441  10.864   6.555 -1.0381 -0.4807  1.3396
26937SOL    HW282819   8.461  10.992   6.634  1.6928  0.0013 -0.0102
26938SOL     OW82820  10.093   8.633   6.420  0.5109  0.3759 -0.0514
26938SOL    HW182821  10.061   8.553   6.379 -2.7653  1.2911  0.4141
26938SOL    HW282822  10.134   8.604   6.502 -0.0175 -0.8464 -0.2062
26939SOL     OW82823   8.359   2.812  10.948  0.2028  0.8691  0.0161
26939SOL    HW182824   8.362   2.870  11.024  4.6705 -0.6405  1.2970
26939SOL    HW282825   8.349   2.724  10.985 -0.8857  0.3184 -1.4757
26940SOL     OW82826   6.946   3.966   9.350 -0.5871  0.5082  0.2256
26940SOL    HW182827   6.967   4.057   9.368  2.7223  0.3520 -1.9136
26940SOL    HW282828   6.932   3.927   9.437  1.4936  2.3456  1.5039
26941SOL     OW82829  10.117   0.906  10.809  0.2368  0.0289  0.1849
26941SOL    HW182830  10.089   0.855  10.885 -1.0955 -0.9641 -0.9071
26941SOL    HW282831  10.207   0.930  10.828  0.1078 -0.6469  1.8317
26942SOL     OW82832   2.854   8.606   6.028  0.1661 -0.2910  0.2083
26942SOL    HW182833   2.775   8.608   6.083 -0.6434  0.7918 -0.9327
26942SOL    HW282834   2.826   8.645   5.945  1.7443 -0.5069 -0.4541
26943SOL     OW82835   7.427  10.716   8.761  0.2986  0.5973  0.5973
26943SOL    HW182836   7.351  10.706   8.817 -0.1499  2.2081  0.3130
26943SOL    HW282837   7.471  10.795   8.792  1.2066  0.3464  0.0133
26944SOL     OW82838   4.606   7.956   1.050 -0.0564 -0.7639 -0.5893
26944SOL    HW182839   4.568   8.014   0.983  0.3597  0.3490  0.1073
26944SOL    HW282840   4.620   7.873   1.005  1.4054  0.3206 -2.2559
26945SOL     OW82841  10.990   9.733   6.589  0.0099  0.0077  0.5687
26945SOL    HW182842  10.922   9.748   6.654 -0.8100  1.1534 -0.5039
26945SOL    HW282843  10.941   9.710   6.509  0.7938  1.6643 -0.4416
26946SOL     OW82844   8.225   7.003  10.298  0.6765  0.0679 -0.4214
26946SOL    HW182845   8.308   6.977  10.339  0.0534 -2.3850 -0.6146
26946SOL    HW282846   8.179   7.050  10.368  0.1136 -3.0387  1.5117
26947SOL     OW82847  10.125   6.026   2.368 -0.5482 -0.7494  0.8186
26947SOL    HW182848  10.121   6.113   2.328 -1.2873 -1.2680 -0.2851
26947SOL    HW282849  10.176   6.039   2.448  0.7680  0.3842 -0.1401
26948SOL     OW82850   0.166   5.892   7.285 -0.4483  0.4320 -0.0660
26948SOL    HW182851   0.158   5.986   7.297 -1.6617  0.5813 -1.7024
26948SOL    HW282852   0.230   5.882   7.215 -1.3357  0.1389 -0.8630
26949SOL     OW82853   6.447   8.209   1.353 -0.3334  0.2357  0.2372
26949SOL    HW182854   6.389   8.282   1.373 -0.5635 -0.2347  1.3680
26949SOL    HW282855   6.398   8.131   1.380  0.5307 -0.2217  0.5234
26950SOL     OW82856   1.003   7.526   7.216 -0.3129  0.0711  0.1393
26950SOL    HW182857   1.028   7.609   7.175  0.1113 -0.2385 -0.2371
26950SOL    HW282858   1.072   7.509   7.279  0.7329 -1.0258 -1.2367
26951SOL     OW82859   1.356   1.596   1.538 -0.2007  0.2580 -0.5618
26951SOL    HW182860   1.271   1.638   1.549 -0.2945  0.4769 -1.8961
26951SOL    HW282861   1.347   1.511   1.581 -1.3096  0.0294 -1.2052
26952SOL     OW82862   6.235   1.328  10.424 -0.2920 -0.5367  0.2140
26952SOL    HW182863   6.172   1.271  10.380 -2.8117  1.0115  1.5807
26952SOL    HW282864   6.209   1.326  10.516  0.6127  1.4506  0.5674
26953SOL     OW82865   8.084   1.048   7.410 -0.1452  0.4647  0.7035
26953SOL    HW182866   8.083   1.021   7.501 -1.0115  2.4348  1.3460
26953SOL    HW282867   7.992   1.048   7.384  0.1429 -0.7085 -0.3997
26954SOL     OW82868   7.780   0.804   0.079 -0.0835 -0.0533 -1.0755
26954SOL    HW182869   7.707   0.863   0.062 -0.1273 -0.3125 -1.8430
26954SOL    HW282870   7.744   0.739   0.140  0.2537  1.2509  0.5856
26955SOL     OW82871   8.754  11.066   0.727  0.1545  0.0722 -0.0537
26955SOL    HW182872   8.728  11.005   0.796  1.2931  0.6969  0.9611
26955SOL    HW282873   8.694  11.047   0.655 -0.8195 -0.8563  0.9604
26956SOL     OW82874   5.911   2.346   5.069 -0.3439 -1.0310 -0.2047
26956SOL    HW182875   5.871   2.431   5.053 -0.5267 -1.2970 -1.2487
26956SOL    HW282876   5.840   2.283   5.056  0.0112 -1.4040 -0.3780
26957SOL     OW82877   0.040   1.242  10.319  0.2848  0.8970  0.1737
26957SOL    HW182878   0.005   1.331  10.309 -2.5832 -0.0735  0.5799
26957SOL    HW282879   0.087   1.245  10.402 -0.1218  1.9622  0.3888
26958SOL     OW82880   7.711   3.309   4.069 -0.3547  0.8092  0.2802
26958SOL    HW182881   7.666   3.279   4.148 -1.4036  1.2064 -0.1471
26958SOL    HW282882   7.688   3.402   4.061 -2.4907  0.1875 -1.9052
26959SOL     OW82883   5.926  11.095   6.245  0.3365 -0.3027 -0.3989
26959SOL    HW182884   5.873  11.162   6.203 -2.3599 -1.7564  0.4110
26959SOL    HW282885   5.995  11.075   6.182  0.5183  2.3254 -1.1332
26960SOL     OW82886   9.232   8.889  11.130  0.4890 -0.6250 -0.0143
26960SOL    HW182887   9.273   8.933  11.055 -0.5724 -0.4010 -0.4819
26960SOL    HW282888   9.267   8.935  11.206 -0.3890  0.8787 -0.4777
26961SOL     OW82889   4.215   2.967   1.051 -0.5847 -0.9867 -0.3683
26961SOL    HW182890   4.148   2.976   1.119 -1.0692  0.1265 -0.9480
26961SOL    HW282891   4.298   2.975   1.098 -0.9184  0.5444  0.0410
26962SOL     OW82892   7.565   6.749   6.808  0.2319  0.7045  0.2388
26962SOL    HW182893   7.586   6.748   6.902 -1.7814  0.3270  0.7232
26962SOL    HW282894   7.488   6.806   6.802 -0.8618 -0.8400 -0.8970
26963SOL     OW82895  10.235   0.030   5.570 -0.4355  0.3724  0.0757
26963SOL    HW182896  10.263   0.120   5.552  0.8488 -0.3216 -1.6380
26963SOL    HW282897  10.313  -0.023   5.558 -1.1916 -1.0191  0.9535
26964SOL     OW82898   5.084   2.049   1.824 -0.4095 -0.2426  0.0226
26964SOL    HW182899   5.051   1.981   1.765  2.0398 -0.5380 -1.1168
26964SOL    HW282900   5.055   2.131   1.785  1.0847 -0.4385 -1.6094
26965SOL     OW82901   7.870   8.170  10.628  0.4349 -0.9783  0.5731
26965SOL    HW182902   7.934   8.240  10.616  0.6877 -1.1454  0.9078
26965SOL    HW282903   7.800   8.191  10.567  0.0820  0.0721  1.3066
26966SOL     OW82904   3.552   9.195  10.744  0.1127 -0.1632 -0.0364
26966SOL    HW182905   3.586   9.176  10.831  1.6746  0.4030 -0.4902
26966SOL    HW282906   3.574   9.286  10.728 -1.6504  0.2427 -0.3999
26967SOL     OW82907   4.925   3.639   7.436  0.0933  0.3469 -0.3352
26967SOL    HW182908   4.944   3.592   7.517  2.9250  1.9565  0.0624
26967SOL    HW282909   4.869   3.579   7.387  1.9508 -2.6729  0.8895
26968SOL     OW82910   5.452   3.657   9.755 -0.5910 -0.2865 -0.3801
26968SOL    HW182911   5.517   3.680   9.689 -0.9626 -0.5224 -0.8333
26968SOL    HW282912   5.399   3.589   9.714 -1.5728  0.3993 -0.2984
26969SOL     OW82913   6.842   4.054   5.285 -0.0094 -0.1381  0.3674
26969SOL    HW182914   6.770   4.048   5.348  0.5286 -3.7413  0.8931
26969SOL    HW282915   6.806   4.015   5.205  0.4333  1.0569 -0.4432
26970SOL     OW82916   5.893   1.262   6.464  0.1175 -0.8000  0.0445
26970SOL    HW182917   5.871   1.243   6.373 -1.0855 -1.4136  0.4374
26970SOL    HW282918   5.966   1.203   6.483  0.6044 -0.4259 -0.6029
26971SOL     OW82919   0.005   5.676   3.397 -0.2992  0.2440 -0.3349
26971SOL    HW182920   0.094   5.697   3.368 -0.2513  1.1795  0.4418
26971SOL    HW282921   0.016   5.635   3.482 -0.5054 -1.5419 -1.1270
26972SOL     OW82922   4.962   8.438   5.130 -0.1769 -0.9197 -0.0447
26972SOL    HW182923   5.051   8.434   5.166 -0.3970 -0.0343  0.6348
26972SOL    HW282924   4.951   8.529   5.104 -0.6930 -1.1484 -0.6444
26973SOL     OW82925   0.320   0.363   9.229 -0.3672 -0.0678 -0.1795
26973SOL    HW182926   0.392   0.357   9.291 -0.8546  0.5715  0.4556
26973SOL    HW282927   0.348   0.430   9.166  0.2033 -0.8439 -0.7723
26974SOL     OW82928   4.132   8.148   9.504 -0.3588  0.4108  0.1964
26974SOL    HW182929   4.178   8.232   9.499 -0.6842  0.6403  0.8783
26974SOL    HW282930   4.107   8.141   9.596 -1.4311  0.1517 -0.1043
26975SOL     OW82931   5.437   6.100   7.837 -0.2005  0.1352 -0.3041
26975SOL    HW182932   5.376   6.163   7.798 -1.0292 -0.2067  0.4025
26975SOL    HW282933   5.486   6.150   7.901  0.5007  0.4833 -1.0909
26976SOL     OW82934   3.830   0.641   8.289  0.0808  0.1227 -0.5367
26976SOL    HW182935   3.899   0.591   8.333 -0.2277 -0.8772 -1.1481
26976SOL    HW282936   3.766   0.574   8.262 -0.0271  0.7614 -1.9582
26977SOL     OW82937   6.372   5.925   6.199 -0.7363  0.2372  0.3657
26977SOL    HW182938   6.296   5.976   6.228  0.2110  0.8529  1.8944
26977SOL    HW282939   6.443   5.989   6.193  0.0495 -0.5941  0.5843
26978SOL     OW82940   5.876  11.100   1.478 -0.2478  0.1309  0.3900
26978SOL    HW182941   5.964  11.064   1.481  0.4177  1.6944  0.5649
26978SOL    HW282942   5.854  11.117   1.570 -0.3310  0.6503  0.2798
26979SOL     OW82943   7.345   0.568   4.439  0.3551 -0.0479  0.3556
26979SOL    HW182944   7.353   0.532   4.527 -0.2727 -3.0833 -0.7053
26979SOL    HW282945   7.433   0.562   4.402  0.9014  2.3994  1.1014
26980SOL     OW82946   5.737   2.289   8.448  0.5936 -0.2310 -0.2764
26980SOL    HW182947   5.754   2.355   8.516  1.0592  0.9853 -1.5296
26980SOL    HW282948   5.822   2.250   8.430  0.3653 -1.0064  0.2564
26981SOL     OW82949   8.658   5.329   8.408 -0.9232 -0.5116 -0.4224
26981SOL    HW182950   8.568   5.347   8.378 -1.1162 -1.4755 -0.4462
26981SOL    HW282951   8.648   5.266   8.479 -0.3002 -0.0866  0.0530
26982SOL     OW82952   4.982   4.893   2.203  0.0284 -0.1194  0.1642
26982SOL    HW182953   5.014   4.932   2.121 -1.7416 -0.9634 -0.9954
26982SOL    HW282954   5.048   4.916   2.268  0.3403  2.6286 -0.9891
26983SOL     OW82955   7.065   8.817   5.556 -0.1751  0.8737  0.8464
26983SOL    HW182956   7.090   8.868   5.633  2.0197  0.1310  0.6866
26983SOL    HW282957   7.034   8.882   5.493 -0.6851  1.6253  1.8495
26984SOL     OW82958   1.627   7.722   3.653  0.3867  0.1406  0.0393
26984SOL    HW182959   1.591   7.772   3.580  0.2114 -2.3141 -1.6689
26984SOL    HW282960   1.569   7.741   3.727 -0.7682  0.9534 -1.0487
26985SOL     OW82961   4.986   3.991   4.782  0.0071 -0.0825 -0.0064
26985SOL    HW182962   4.930   3.929   4.736  1.8667 -0.5416 -1.8173
26985SOL    HW282963   5.035   4.035   4.713  0.0246  2.1732  1.3407
26986SOL     OW82964   3.120   7.487   4.418  0.6923  0.0351 -0.6120
26986SOL    HW182965   3.156   7.535   4.343  3.5339 -1.2461 -0.1642
26986SOL    HW282966   3.171   7.517   4.493 -1.4459  0.5554  0.7229
26987SOL     OW82967   4.422   2.866   3.078 -0.0003  0.0531 -0.2848
26987SOL    HW182968   4.501   2.831   3.038  1.7148 -0.0943  2.8766
26987SOL    HW282969   4.449   2.949   3.118 -1.4022  0.0163  0.8581
26988SOL     OW82970   7.780   2.804   8.263  0.2322 -0.6163  0.3420
26988SOL    HW182971   7.751   2.773   8.349  0.2592  1.0605  0.9864
26988SOL    HW282972   7.857   2.857   8.281  0.8428 -1.0606 -0.8482
26989SOL     OW82973   7.639   9.073   9.872  0.0834  0.5210  0.2333
26989SOL    HW182974   7.689   9.085   9.953 -0.4905 -0.2414  0.7118
26989SOL    HW282975   7.548   9.078   9.899 -0.1369 -0.9299 -0.1682
26990SOL     OW82976   1.878   7.820   2.481 -0.0566  0.5862 -0.1433
26990SOL    HW182977   1.801   7.779   2.520  1.8984 -2.6966  0.6045
26990SOL    HW282978   1.909   7.881   2.549 -0.6641  0.1811  0.5132
26991SOL     OW82979   5.801   7.253  10.778  1.1058  0.6228  0.0178
26991SOL    HW182980   5.713   7.221  10.800  0.8959  0.5736 -0.8745
26991SOL    HW282981   5.857   7.176  10.788  0.7046  0.1066 -1.4795
26992SOL     OW82982   0.723   5.799   9.461 -0.1154  0.6358 -0.3951
26992SOL    HW182983   0.648   5.782   9.517  0.0015  0.5103 -0.2728
26992SOL    HW282984   0.794   5.748   9.500  0.3288  1.6348  0.1524
26993SOL     OW82985  11.123   2.915   3.208 -0.7123 -0.3982 -0.4508
26993SOL    HW182986  11.207   2.872   3.226 -1.3441 -1.1127  0.9622
26993SOL    HW282987  11.130   3.000   3.251 -1.2811 -1.0983  1.0811
26994SOL     OW82988   7.197  10.811   2.589 -0.6827  0.1336  0.0324
26994SOL    HW182989   7.258  10.746   2.553 -0.8424  0.4181 -0.7739
26994SOL    HW282990   7.111  10.768   2.585 -0.9376  0.7413 -1.4299
26995SOL     OW82991  10.873   7.270   6.245 -0.2562  0.3867 -0.1127
26995SOL    HW182992  10.894   7.220   6.166 -4.2413 -1.1895 -0.4233
26995SOL    HW282993  10.846   7.204   6.309  0.1048  1.8240  1.6017
26996SOL     OW82994   9.193  10.295   8.774  0.5690  0.2604 -0.5959
26996SOL    HW182995   9.221  10.331   8.690  2.0304 -0.1377 -0.3047
26996SOL    HW282996   9.157  10.209   8.753  0.9942  0.1340 -0.8060
26997SOL     OW82997  10.444   2.133  10.822 -0.4285 -0.0520 -0.8263
26997SOL    HW182998  10.360   2.088  10.819 -0.7897  0.6279 -1.2720
26997SOL    HW282999  10.505   2.073  10.780 -0.5464 -0.8236  0.0585
26998SOL     OW83000   0.439   3.516   6.053  0.2930 -0.7078  0.6025
26998SOL    HW183001   0.432   3.510   5.958 -0.6630 -0.6644  0.6638
26998SOL    HW283002   0.503   3.449   6.077  0.5676 -0.6931 -0.0730
26999SOL     OW83003   4.213   0.629   3.222  0.2996 -0.3613  0.1589
26999SOL    HW183004   4.227   0.645   3.129 -2.6368  2.0005 -0.0277
26999SOL    HW283005   4.131   0.673   3.242  1.6843  0.7976  4.3059
27000SOL     OW83006  10.158   1.284   7.788 -0.2992  0.2637 -0.5484
27000SOL    HW183007  10.241   1.283   7.836 -1.1515 -0.9427  1.0138
27000SOL    HW283008  10.105   1.350   7.832  0.1389  1.7853 -2.1972
27001SOL     OW83009   5.196   4.620   1.543 -0.4703  0.3369 -0.6333
27001SOL    HW183010   5.263   4.606   1.475  0.8643  1.9076  0.2836
27001SOL    HW283011   5.175   4.533   1.574 -0.7922 -0.3906 -2.7553
27002SOL     OW83012   5.362   2.489   7.464 -0.4162  0.8591 -0.5672
27002SOL    HW183013   5.441   2.474   7.516 -1.0167  0.3239  0.2185
27002SOL    HW283014   5.370   2.428   7.390  1.2468  2.7880 -2.0895
27003SOL     OW83015   4.745   3.058   3.015 -0.5035  0.2072 -0.3244
27003SOL    HW183016   4.748   3.117   2.939 -0.3665 -0.7810 -1.1009
27003SOL    HW283017   4.749   3.117   3.090 -1.7241  1.2979 -1.0555
27004SOL     OW83018   8.341   9.827   4.927 -0.4984  0.2705 -0.4871
27004SOL    HW183019   8.424   9.780   4.919 -0.3738  0.4268 -0.1317
27004SOL    HW283020   8.275   9.763   4.899 -0.4691 -0.6342  1.3393
27005SOL     OW83021  10.022   1.718   7.016  0.4149 -0.3979 -0.2084
27005SOL    HW183022  10.009   1.680   7.103  1.5318 -1.1890 -0.3578
27005SOL    HW283023   9.941   1.700   6.969  0.4523 -1.5149  0.1284
27006SOL     OW83024   8.415   9.781   0.271 -0.1815  0.6220  0.1851
27006SOL    HW183025   8.496   9.808   0.314 -0.4869 -0.3052  1.4143
27006SOL    HW283026   8.429   9.689   0.249 -1.8976 -0.4646  3.1076
27007SOL     OW83027   2.023   5.139  10.814  0.9492  0.6494 -0.5741
27007SOL    HW183028   2.072   5.083  10.754  2.5512  0.4786  0.8020
27007SOL    HW283029   2.091   5.180  10.869 -0.4297 -0.9154  2.5963
27008SOL     OW83030   8.907   0.640  11.244 -0.2882  0.0362 -0.3674
27008SOL    HW183031   8.878   0.652  11.335  1.6229  1.1079  0.1477
27008SOL    HW283032   8.998   0.669  11.244  0.0186 -0.7924 -2.4567
27009SOL     OW83033   1.376   0.392   3.720 -0.3460 -0.3203  0.1570
27009SOL    HW183034   1.302   0.452   3.730  0.7639  0.9021  1.7659
27009SOL    HW283035   1.353   0.336   3.646 -2.4859  0.5525  0.1018
27010SOL     OW83036  10.003   5.132   4.778  0.1643  1.0200  0.6021
27010SOL    HW183037   9.934   5.077   4.741 -0.4559  3.5679 -2.3788
27010SOL    HW283038  10.025   5.089   4.861 -1.1249 -2.9344 -0.8559
27011SOL     OW83039   6.046   4.239   1.153 -0.1276  0.2483 -0.8503
27011SOL    HW183040   6.040   4.233   1.057 -0.8792 -0.2908 -0.7722
27011SOL    HW283041   6.133   4.203   1.173  0.2048  0.7462 -1.3547
27012SOL     OW83042  10.691   2.404  10.568 -0.0370 -0.3368 -0.6306
27012SOL    HW183043  10.687   2.484  10.621 -1.1805 -0.3189 -0.7020
27012SOL    HW283044  10.781   2.399  10.538  0.7347 -0.5104  1.5639
27013SOL     OW83045   6.756   0.759   0.643 -0.5518  0.1375  0.5730
27013SOL    HW183046   6.729   0.714   0.723  0.9224  0.4123  1.2611
27013SOL    HW283047   6.773   0.849   0.671  1.2671 -0.0672  0.2778
27014SOL     OW83048   4.377  10.210   0.317  0.1701  0.0405 -0.4816
27014SOL    HW183049   4.328  10.128   0.317  0.1187  0.0692 -0.9891
27014SOL    HW283050   4.444  10.198   0.249 -0.4559  0.7848 -1.2498
27015SOL     OW83051  11.080  10.890   7.471 -0.1938 -0.6396 -0.2344
27015SOL    HW183052  11.139  10.959   7.443  0.4604 -1.3856 -0.7287
27015SOL    HW283053  11.009  10.936   7.517  1.3381  0.1757  1.4148
27016SOL     OW83054   1.756   3.602   2.726  0.4145  0.0112  0.2615
27016SOL    HW183055   1.814   3.677   2.739  0.9327 -0.2373 -0.4962
27016SOL    HW283056   1.677   3.638   2.688  0.6164  0.1946  0.0126
27017SOL     OW83057   5.096   8.808   2.308 -0.5152 -0.1063  0.1813
27017SOL    HW183058   5.038   8.806   2.231 -0.0147  0.2228 -0.2107
27017SOL    HW283059   5.178   8.770   2.276 -0.4078 -0.2584  0.6404
27018SOL     OW83060   2.718   8.496   6.567 -0.2226 -0.9339  0.2338
27018SOL    HW183061   2.643   8.555   6.562  1.3660  1.1172 -2.4203
27018SOL    HW283062   2.732   8.483   6.661 -1.4443  1.9613  0.9336
27019SOL     OW83063  11.080   8.915   3.709 -0.2376 -0.2083  0.4494
27019SOL    HW183064  11.161   8.906   3.759  0.0468  2.1803  0.5538
27019SOL    HW283065  11.011   8.895   3.773  0.1757  1.5655  1.5381
27020SOL     OW83066   8.866  10.518   9.761  0.1825 -0.3636 -0.0299
27020SOL    HW183067   8.790  10.521   9.820  0.1598 -1.0344 -0.0224
27020SOL    HW283068   8.881  10.425   9.746  0.2702 -0.1962 -0.9893
27021SOL     OW83069   5.879   3.352   0.696 -0.3806  0.6989 -0.1578
27021SOL    HW183070   5.797   3.304   0.709  0.7721 -1.2401  0.4323
27021SOL    HW283071   5.893   3.401   0.777  0.2728 -1.0071  0.8161
27022SOL     OW83072   4.924   3.936   0.300  0.1565  0.6078 -0.0488
27022SOL    HW183073   4.838   3.904   0.326  0.0953  0.3072 -0.5973
27022SOL    HW283074   4.970   3.858   0.269  0.4396  0.8540 -0.2573
27023SOL     OW83075   0.463   4.240   5.733  0.4609 -0.2734 -0.0909
27023SOL    HW183076   0.376   4.199   5.729  0.3683 -0.1892  0.8703
27023SOL    HW283077   0.471   4.285   5.649 -0.3621 -0.4072 -0.2565
27024SOL     OW83078  10.843   5.047   6.483  1.2399 -0.8887  1.0088
27024SOL    HW183079  10.800   5.108   6.424  1.0319  0.0400  2.0802
27024SOL    HW283080  10.825   4.961   6.446  0.9383 -0.3533 -0.1450
27025SOL     OW83081   7.955   7.833   5.629 -0.3936 -0.5339  0.6135
27025SOL    HW183082   8.021   7.844   5.698 -0.2849  0.5195  0.3623
27025SOL    HW283083   7.993   7.769   5.569  0.0702 -0.5085  0.8748
27026SOL     OW83084   6.436   8.878   1.942  0.4053  0.0434  0.5403
27026SOL    HW183085   6.449   8.829   2.023  0.6363 -1.7916 -0.5520
27026SOL    HW283086   6.366   8.830   1.896 -1.6247  2.5493  0.7571
27027SOL     OW83087   4.936   5.104   0.231 -0.5898  0.5885 -0.0377
27027SOL    HW183088   4.849   5.087   0.266 -1.1325  1.3459 -0.9950
27027SOL    HW283089   4.973   5.171   0.289 -0.1989 -0.4918  1.0151
27028SOL     OW83090  11.051   5.529   2.471  0.4004 -0.8398 -0.0026
27028SOL    HW183091  11.029   5.601   2.412 -0.5470 -1.0441  0.0727
27028SOL    HW283092  10.971   5.476   2.473  0.4592 -0.9125  1.3339
27029SOL     OW83093   8.756   6.425   3.326  0.0951 -0.0188 -0.2903
27029SOL    HW183094   8.785   6.427   3.418 -1.6748  0.3682  0.2938
27029SOL    HW283095   8.721   6.336   3.315 -1.0736  0.4028 -0.1142
27030SOL     OW83096   2.292   4.163   4.571  0.3015 -0.7364  0.6999
27030SOL    HW183097   2.230   4.158   4.498  0.1740  1.4482  0.5883
27030SOL    HW283098   2.321   4.073   4.584  0.3224 -1.2178 -2.0450
27031SOL     OW83099   8.580   9.710   3.898 -0.0366  0.8483  0.1535
27031SOL    HW183100   8.632   9.788   3.917  2.9342 -1.3688  2.0568
27031SOL    HW283101   8.632   9.662   3.833 -0.0274 -1.0482  1.4737
27032SOL     OW83102   7.385   0.028   3.904  0.1782 -0.5071  0.0744
27032SOL    HW183103   7.291   0.008   3.906  0.0802 -0.4068 -1.7427
27032SOL    HW283104   7.427  -0.055   3.882  0.3567 -0.1855 -0.8182
27033SOL     OW83105   7.115   3.588   8.589 -0.3460 -1.0067  1.0024
27033SOL    HW183106   7.042   3.650   8.591  1.3814  1.4076 -1.7515
27033SOL    HW283107   7.084   3.516   8.534 -1.1187 -0.6447  0.9565
27034SOL     OW83108   9.920   0.311   0.680 -0.4507 -0.2734  0.1773
27034SOL    HW183109   9.941   0.404   0.685  0.5143 -0.4789  0.3165
27034SOL    HW283110   9.954   0.283   0.595 -3.2091  0.0491 -1.1098
27035SOL     OW83111   8.253   4.434   5.452 -0.0979  0.2862 -0.1062
27035SOL    HW183112   8.333   4.409   5.407  0.0258 -0.3901  0.4647
27035SOL    HW283113   8.270   4.523   5.484  0.0999  0.4670 -0.7140
27036SOL     OW83114   6.263   4.475   2.078  0.7561 -0.0573  0.6271
27036SOL    HW183115   6.267   4.474   2.174  2.2419 -0.8887  0.5815
27036SOL    HW283116   6.175   4.445   2.058 -0.2798  2.0049  1.7280
27037SOL     OW83117   0.884   6.631  10.167 -0.1850 -0.1051 -0.3558
27037SOL    HW183118   0.883   6.693  10.240  0.3061 -0.3426 -0.1445
27037SOL    HW283119   0.912   6.684  10.092  0.3450 -0.0896 -0.1533
27038SOL     OW83120   3.488   7.671   8.400 -0.1535  0.1170  0.8184
27038SOL    HW183121   3.453   7.720   8.325 -0.2089 -0.4387  0.4760
27038SOL    HW283122   3.410   7.644   8.449 -0.1154  0.5199  1.1088
27039SOL     OW83123   0.608   2.222   1.304 -0.1726 -0.2463 -0.6486
27039SOL    HW183124   0.683   2.179   1.344  0.8559 -0.5633 -2.7951
27039SOL    HW283125   0.645   2.298   1.259 -1.3150  0.2058 -0.8730
27040SOL     OW83126   0.270   7.003   9.939 -0.5136 -0.2707  0.4839
27040SOL    HW183127   0.176   7.022   9.933  0.2139  4.5764  0.5245
27040SOL    HW283128   0.307   7.042   9.860  1.6448 -0.2719  1.4354
27041SOL     OW83129   6.909   8.833   2.790  0.2751 -0.4405  0.0321
27041SOL    HW183130   6.973   8.904   2.783 -0.6924  0.2601 -2.8903
27041SOL    HW283131   6.828   8.876   2.817 -0.0174 -0.6286 -0.5399
27042SOL     OW83132  11.284   3.242   0.237 -0.1007  0.2810  0.4804
27042SOL    HW183133  11.206   3.189   0.259  0.6803 -1.3638 -0.5165
27042SOL    HW283134  11.325   3.195   0.165  2.4623  0.4404  1.7255
27043SOL     OW83135   9.779  11.110   5.226 -0.4142  0.4232  0.0582
27043SOL    HW183136   9.788  11.016   5.237  0.5155  0.4731 -0.2488
27043SOL    HW283137   9.749  11.141   5.312 -1.3849 -0.2196 -0.0285
27044SOL     OW83138   7.796   8.995   2.601  0.0506  0.1419  0.6131
27044SOL    HW183139   7.822   8.920   2.547  1.7536  1.4864 -0.5995
27044SOL    HW283140   7.833   8.977   2.687  1.3063 -0.0079  0.0696
27045SOL     OW83141   6.186   6.776   1.929  0.0633  0.7286  0.4811
27045SOL    HW183142   6.258   6.723   1.963 -0.3918 -0.7006 -0.6773
27045SOL    HW283143   6.202   6.780   1.835 -1.8952 -0.5185  0.0305
27046SOL     OW83144   7.898   5.682   2.279 -0.1014  0.4739  0.6387
27046SOL    HW183145   7.979   5.681   2.229 -0.3263  1.2858  0.2254
27046SOL    HW283146   7.858   5.597   2.264  1.3777 -0.5230  2.0605
27047SOL     OW83147   0.370   2.466  10.511  0.8566  0.0377 -0.0424
27047SOL    HW183148   0.396   2.376  10.489 -1.3129 -0.5226 -0.5213
27047SOL    HW283149   0.452   2.515  10.508  2.1676 -1.9822  0.6352
27048SOL     OW83150   7.883   3.314   9.133  0.0334 -0.2811  0.1334
27048SOL    HW183151   7.854   3.404   9.118 -0.6885 -0.6660 -0.9397
27048SOL    HW283152   7.973   3.322   9.164 -0.7186  0.9033  2.2410
27049SOL     OW83153   5.463   2.854   7.426 -0.2297 -0.2487 -0.0242
27049SOL    HW183154   5.447   2.879   7.335  0.4090  0.4342  0.0460
27049SOL    HW283155   5.543   2.802   7.423 -0.7160 -1.0248  0.0366
27050SOL     OW83156   7.925   2.850   3.446 -0.8390 -0.3731 -0.0684
27050SOL    HW183157   7.973   2.774   3.476 -0.5992  0.0533  0.6568
27050SOL    HW283158   7.947   2.919   3.509  0.9739  1.0375 -2.1182
27051SOL     OW83159   6.751   0.921   7.134 -0.7132  0.1191 -0.3102
27051SOL    HW183160   6.800   0.994   7.096  2.2981 -2.0830 -1.0530
27051SOL    HW283161   6.743   0.857   7.063 -2.4683 -0.6852  0.5370
27052SOL     OW83162   9.845   4.658   5.946 -0.2112  0.3285  0.0089
27052SOL    HW183163   9.883   4.631   5.862  0.0958 -0.3622  0.3669
27052SOL    HW283164   9.750   4.646   5.933 -0.1908  0.5090 -0.3351
27053SOL     OW83165   4.350   0.525   2.076 -0.3520  0.0154  0.4796
27053SOL    HW183166   4.270   0.571   2.101 -1.6643 -1.7687 -0.1537
27053SOL    HW283167   4.359   0.541   1.983  1.1668  1.7944  0.8980
27054SOL     OW83168   6.846   1.014  10.159  0.3579  0.4405  0.4572
27054SOL    HW183169   6.770   1.002  10.216 -1.1610 -0.4158 -1.6537
27054SOL    HW283170   6.827   1.094  10.110  1.1442  0.5897  0.3792
27055SOL     OW83171  10.215   8.119   2.807  0.8807 -0.6168  0.3908
27055SOL    HW183172  10.154   8.103   2.879  1.1950 -0.3677  0.7179
27055SOL    HW283173  10.277   8.046   2.811  0.0427 -1.4093 -0.5559
27056SOL     OW83174   5.012   6.006   4.431  0.1787 -0.2530  0.5233
27056SOL    HW183175   5.093   6.041   4.467 -0.9563  1.4843  1.6104
27056SOL    HW283176   4.969   6.082   4.392 -0.1806 -1.4642 -1.5611
27057SOL     OW83177   3.202   4.280   4.478 -0.9156 -0.3924 -0.0952
27057SOL    HW183178   3.245   4.359   4.446 -1.5817  0.2867  0.6443
27057SOL    HW283179   3.111   4.307   4.493 -1.0537 -1.1874  0.5396
27058SOL     OW83180   8.085   8.997   8.748  0.9691 -0.1655 -0.7241
27058SOL    HW183181   8.014   9.007   8.685  0.1099  1.1843  0.3935
27058SOL    HW283182   8.164   9.022   8.700  0.7761 -1.8985 -2.0473
27059SOL     OW83183   2.722   9.109   4.966  0.0933  0.3703  0.6352
27059SOL    HW183184   2.721   9.018   4.937  3.6420  0.1888  0.5801
27059SOL    HW283185   2.704   9.105   5.060  0.3903 -0.4420  0.6653
27060SOL     OW83186   0.386   5.213   6.583  0.0725  0.7632 -0.4704
27060SOL    HW183187   0.430   5.276   6.640 -1.5942  2.4533 -0.9606
27060SOL    HW283188   0.451   5.191   6.516  1.1334  0.8774  0.4963
27061SOL     OW83189   0.582   4.970   3.193  0.2753 -0.2656 -0.1132
27061SOL    HW183190   0.557   4.921   3.114  1.2691 -0.0569 -0.5739
27061SOL    HW283191   0.612   5.055   3.160  0.8884 -0.2477  0.4774
27062SOL     OW83192   5.614   1.690  10.534  0.0680  0.1598 -0.6650
27062SOL    HW183193   5.675   1.676  10.606  0.5337 -0.6707 -1.2069
27062SOL    HW283194   5.559   1.763  10.563  0.7707  0.3686  0.1794
27063SOL     OW83195   3.905   4.129  11.202  0.5019  0.4206 -0.3888
27063SOL    HW183196   3.890   4.082  11.120 -1.9875  1.4027 -0.5882
27063SOL    HW283197   3.852   4.082  11.266 -0.6211  1.8541 -0.2207
27064SOL     OW83198   6.725   5.160   9.200 -0.2808  0.0247  0.2785
27064SOL    HW183199   6.670   5.169   9.122  0.0009 -0.8766 -0.0338
27064SOL    HW283200   6.729   5.249   9.236 -2.4884  0.0024  0.7076
27065SOL     OW83201   4.683   1.285   9.376 -0.2564 -0.2527 -0.3347
27065SOL    HW183202   4.753   1.289   9.441  0.1575  2.0311 -0.8074
27065SOL    HW283203   4.603   1.298   9.425 -0.0310  0.4358 -0.1314
27066SOL     OW83204   5.546  11.134   6.025 -1.6090 -0.6424 -0.5546
27066SOL    HW183205   5.453  11.136   6.002 -1.2918 -0.8983 -1.9112
27066SOL    HW283206   5.583  11.213   5.986 -1.7028  0.9125  2.2150
27067SOL     OW83207   7.599   2.163   9.908 -0.2240 -0.2494 -0.4042
27067SOL    HW183208   7.557   2.235   9.954  1.1609 -0.6476  1.6483
27067SOL    HW283209   7.553   2.156   9.825 -1.2406  2.1267 -0.0975
27068SOL     OW83210   5.711   6.380   1.317  0.2500 -0.0485 -0.7142
27068SOL    HW183211   5.805   6.395   1.326  0.4764 -1.5987 -0.2133
27068SOL    HW283212   5.704   6.297   1.270 -0.9081  1.2343 -2.9920
27069SOL     OW83213   9.862   3.230   2.417  0.7249  0.0723 -0.3185
27069SOL    HW183214   9.913   3.171   2.471  1.2036  1.6104  0.9901
27069SOL    HW283215   9.869   3.315   2.460 -0.0835  1.0662 -2.0163
27070SOL     OW83216   3.408   4.390   1.116  0.0647 -0.5604 -0.2325
27070SOL    HW183217   3.428   4.347   1.199 -3.0226 -0.7044  0.5683
27070SOL    HW283218   3.418   4.484   1.134  0.6847 -0.6466 -0.1103
27071SOL     OW83219   1.232   0.152   1.381  0.3118  0.0026 -0.1437
27071SOL    HW183220   1.155   0.095   1.370 -0.0821  0.2471  1.1490
27071SOL    HW283221   1.203   0.219   1.442  1.3099  0.5972 -0.3101
27072SOL     OW83222   6.776   1.948   2.000 -0.1681  0.4530  0.4098
27072SOL    HW183223   6.748   1.879   2.060 -0.2989  0.9896  0.9783
27072SOL    HW283224   6.814   1.902   1.925  0.7076 -0.2213  1.2532
27073SOL     OW83225   2.621   0.658   6.864 -0.4197  0.1157  0.3143
27073SOL    HW183226   2.556   0.603   6.819  1.6368 -2.3033  0.0688
27073SOL    HW283227   2.644   0.725   6.800  0.1429 -1.3667 -1.1043
27074SOL     OW83228   4.723   4.749   7.656  0.5430 -0.1377 -0.5756
27074SOL    HW183229   4.690   4.796   7.579  2.5898 -1.2077 -2.1861
27074SOL    HW283230   4.705   4.657   7.637  0.2360 -0.3561  0.6852
27075SOL     OW83231   3.695   1.436   9.153 -0.3692  0.2222  0.3305
27075SOL    HW183232   3.704   1.483   9.236 -0.9060  0.7086  0.1164
27075SOL    HW283233   3.643   1.359   9.175 -1.1908  0.7526  0.3072
27076SOL     OW83234   5.633   8.915   1.050  0.0345  0.2219 -0.1114
27076SOL    HW183235   5.562   8.866   1.010  3.2528 -1.6324 -4.4145
27076SOL    HW283236   5.629   9.002   1.008  0.3665  0.0322 -0.5520
27077SOL     OW83237   1.312   4.725   8.734 -0.7445 -0.5068  0.2062
27077SOL    HW183238   1.276   4.800   8.781 -0.7947  0.2468 -0.9818
27077SOL    HW283239   1.283   4.738   8.644  1.6241 -0.4148 -0.6037
27078SOL     OW83240   5.265   7.927   3.178 -0.2551 -0.3001 -0.9295
27078SOL    HW183241   5.256   7.964   3.265 -0.5559 -0.5226 -0.8672
27078SOL    HW283242   5.352   7.887   3.178 -1.3687 -2.9321  0.2715
27079SOL     OW83243   0.199   9.979   2.455 -0.3032 -0.1279  0.4752
27079SOL    HW183244   0.118   9.973   2.404  0.1042  0.3567 -0.2449
27079SOL    HW283245   0.216   9.888   2.481  0.0524 -0.5935 -1.2000
27080SOL     OW83246  10.171   7.586   1.530  0.1169  0.3832 -0.3888
27080SOL    HW183247  10.220   7.584   1.612 -2.0093  0.4146  0.9432
27080SOL    HW283248  10.211   7.657   1.480  0.7332  1.0909  1.0718
27081SOL     OW83249   4.217   0.359   0.164  0.0320  0.3441  0.6445
27081SOL    HW183250   4.194   0.277   0.121  0.7140  1.2624 -1.5848
27081SOL    HW283251   4.139   0.382   0.215 -1.1227 -0.3859 -0.7358
27082SOL     OW83252   7.373   3.749  10.549 -0.0277 -0.3146  0.3460
27082SOL    HW183253   7.415   3.718  10.629 -1.0456 -0.5686  0.7970
27082SOL    HW283254   7.408   3.691  10.480 -1.6767 -2.4166  1.1332
27083SOL     OW83255   1.620   7.032  10.226 -0.5608 -0.1545 -0.5192
27083SOL    HW183256   1.665   7.108  10.190  0.6066 -1.1062 -1.1414
27083SOL    HW283257   1.527   7.053  10.218 -0.2575  1.5973  0.2346
27084SOL     OW83258   2.407   8.706   4.200  0.7256  0.0256 -0.7476
27084SOL    HW183259   2.366   8.717   4.286  1.3493  0.2724 -0.4726
27084SOL    HW283260   2.463   8.783   4.190 -0.5707  0.8271 -2.0953
27085SOL     OW83261   2.957   4.057   7.269  0.4859 -0.3506  0.2167
27085SOL    HW183262   3.016   3.999   7.219 -0.1706  0.8712 -2.1572
27085SOL    HW283263   2.989   4.145   7.250 -1.5583  0.2972 -0.4695
27086SOL     OW83264   9.117   1.741  10.746 -0.3782 -0.0649  0.1360
27086SOL    HW183265   9.030   1.723  10.710 -1.2149  1.0250  1.5116
27086SOL    HW283266   9.136   1.666  10.802 -0.3730 -0.3714 -0.2770
27087SOL     OW83267   7.862  10.324   6.400 -0.3949 -0.1565 -0.2229
27087SOL    HW183268   7.854  10.229   6.391 -1.6272 -0.1210  0.3153
27087SOL    HW283269   7.932  10.347   6.339  0.2045 -1.4513 -0.0703
27088SOL     OW83270   9.779   6.239   5.941  0.4619 -0.2085 -0.3748
27088SOL    HW183271   9.745   6.300   6.006 -0.0982 -3.0715  2.2113
27088SOL    HW283272   9.864   6.212   5.976  1.2033 -0.1710 -2.0308
27089SOL     OW83273   4.554   0.491   6.758 -0.4331  0.5236  0.3031
27089SOL    HW183274   4.559   0.464   6.666  2.6415  1.2429  0.1476
27089SOL    HW283275   4.639   0.466   6.795 -2.0805 -1.1496  3.4422
27090SOL     OW83276   7.056   9.581   2.136 -0.0782 -0.3085 -0.0578
27090SOL    HW183277   7.009   9.642   2.192 -1.3661 -2.7641  1.7189
27090SOL    HW283278   7.123   9.543   2.192  0.4582 -0.7959 -1.0057
27091SOL     OW83279   8.962   6.202   9.919 -0.0760 -0.6825  0.9018
27091SOL    HW183280   8.946   6.290   9.884  3.0603 -0.1337  0.4928
27091SOL    HW283281   8.982   6.149   9.841 -1.0061 -1.5431  1.2281
27092SOL     OW83282   6.880   7.341   0.259  0.0178 -0.2338 -0.8156
27092SOL    HW183283   6.964   7.294   0.255  1.5176  2.1041  0.6955
27092SOL    HW283284   6.814   7.272   0.258  1.9484 -2.1928 -1.6649
27093SOL     OW83285   6.031   2.478   2.655  0.4174 -0.3275  0.4486
27093SOL    HW183286   6.089   2.512   2.723 -0.0750 -0.7341  1.0701
27093SOL    HW283287   6.069   2.393   2.631  0.4241 -0.3157  0.4166
27094SOL     OW83288   1.427   0.486  11.152  0.1719 -0.2637 -0.0017
27094SOL    HW183289   1.511   0.483  11.106  0.0768  1.3215 -0.3701
27094SOL    HW283290   1.408   0.395  11.174  2.7672 -0.5536  1.5579
27095SOL     OW83291   7.816   8.970   7.818 -0.1636 -0.3268  0.2392
27095SOL    HW183292   7.841   8.890   7.771 -1.1644  0.0197 -0.9346
27095SOL    HW283293   7.721   8.968   7.820 -0.1557 -0.7511  3.0827
27096SOL     OW83294   6.206  10.409   8.992  0.0108 -1.0102 -0.3699
27096SOL    HW183295   6.117  10.439   9.012  0.3777 -1.1607  1.7418
27096SOL    HW283296   6.248  10.484   8.950 -0.5988 -0.3337  0.2099
27097SOL     OW83297  10.233   9.637  10.184  0.0673  0.1348 -0.2880
27097SOL    HW183298  10.173   9.616  10.112  0.9462 -0.3969 -0.8903
27097SOL    HW283299  10.226   9.562  10.243 -1.3680  0.9996  0.7044
27098SOL     OW83300   1.501   0.821   6.060  0.4031 -0.3335 -0.2291
27098SOL    HW183301   1.591   0.817   6.092 -0.1924 -1.0378  1.4952
27098SOL    HW283302   1.463   0.737   6.086 -0.6786 -0.1515 -1.1602
27099SOL     OW83303  10.586   4.500  10.024 -0.6221 -0.2171  0.1192
27099SOL    HW183304  10.529   4.570  10.055 -2.1512 -0.8329 -1.1603
27099SOL    HW283305  10.533   4.421  10.034  0.9305 -1.1671  1.1764
27100SOL     OW83306   9.482   4.172   1.146 -0.0795  0.8430 -0.1396
27100SOL    HW183307   9.406   4.120   1.121  0.1823  0.4052 -0.0403
27100SOL    HW283308   9.523   4.198   1.063  1.4498 -1.5749 -0.2433
27101SOL     OW83309  10.882   4.153   9.770 -0.3815 -0.1128  0.4403
27101SOL    HW183310  10.882   4.230   9.827 -0.7848  2.5551 -2.8212
27101SOL    HW283311  10.793   4.149   9.735 -0.8140 -3.1059  1.6784
27102SOL     OW83312   7.422   4.694   3.678  0.2785  0.1134  0.3132
27102SOL    HW183313   7.436   4.727   3.589 -1.5144  1.2117  0.4057
27102SOL    HW283314   7.381   4.608   3.665 -1.2415  0.8571  0.0545
27103SOL     OW83315   1.730   4.846   4.563  0.1245  0.0822 -0.2491
27103SOL    HW183316   1.726   4.916   4.628 -2.5777 -1.2386  1.1991
27103SOL    HW283317   1.755   4.889   4.482 -1.0363  2.6831  0.6784
27104SOL     OW83318   8.446   9.448   0.504  0.1880 -0.1714 -0.5059
27104SOL    HW183319   8.512   9.420   0.441  1.6877 -0.7858  1.2475
27104SOL    HW283320   8.496   9.470   0.583 -1.7306 -1.1900  1.0892
27105SOL     OW83321   0.991   6.815   3.672  0.4181 -0.0090 -0.3040
27105SOL    HW183322   0.917   6.855   3.719 -0.3512 -1.5210 -0.1594
27105SOL    HW283323   0.983   6.849   3.582 -1.9768 -1.9798 -0.9439
27106SOL     OW83324   5.180   0.240   3.355  0.0337 -0.0793  0.3504
27106SOL    HW183325   5.259   0.216   3.306  0.1105  1.0361 -0.1045
27106SOL    HW283326   5.181   0.183   3.432  0.2227 -1.4599 -0.6354
27107SOL     OW83327   1.369   9.392   5.293  0.2061 -0.1587  0.1192
27107SOL    HW183328   1.394   9.445   5.217 -0.2383  0.3564  0.3230
27107SOL    HW283329   1.277   9.415   5.309  0.4999  0.2771  1.2569
27108SOL     OW83330  10.683   2.367   6.269  0.0101  0.7776 -0.2280
27108SOL    HW183331  10.724   2.311   6.335 -0.1889  0.7273 -0.1472
27108SOL    HW283332  10.677   2.311   6.191  0.5024  0.9240 -0.3788
27109SOL     OW83333   2.205   2.414  10.837  0.4302 -0.1112  0.2579
27109SOL    HW183334   2.242   2.330  10.866  2.6065  0.5852 -0.3008
27109SOL    HW283335   2.111   2.399  10.834  0.5965 -1.9463  2.0445
27110SOL     OW83336   8.193   2.096   9.176 -0.7393  0.6815  0.5468
27110SOL    HW183337   8.258   2.056   9.233  1.6943 -0.5680 -2.7742
27110SOL    HW283338   8.123   2.031   9.168 -0.5456  0.3923  1.1813
27111SOL     OW83339   0.404   4.630   8.898  0.2330 -0.5893  0.5992
27111SOL    HW183340   0.452   4.644   8.816  2.3954  0.2551  1.9139
27111SOL    HW283341   0.407   4.536   8.912  0.9010 -0.6192  0.2924
27112SOL     OW83342   8.544  10.726   2.412 -0.4166 -0.0121  0.2241
27112SOL    HW183343   8.586  10.701   2.330 -1.4039 -0.3268 -0.1979
27112SOL    HW283344   8.597  10.683   2.480 -0.2215 -0.6301 -0.3059
27113SOL     OW83345   5.059   3.614   5.003 -0.2106  0.0458  0.1569
27113SOL    HW183346   5.115   3.537   5.013 -0.7569 -0.7527 -2.3522
27113SOL    HW283347   4.985   3.598   5.061 -0.4940 -1.5394 -0.5929
27114SOL     OW83348   2.174   5.622   6.868  0.2837 -0.0811 -0.7737
27114SOL    HW183349   2.266   5.620   6.896  0.0942 -1.6851 -0.2115
27114SOL    HW283350   2.125   5.643   6.947 -0.1557 -3.4762 -0.0321
27115SOL     OW83351   3.076   5.123  10.732  0.0161  0.1179  0.3388
27115SOL    HW183352   3.014   5.136  10.661  0.9807 -0.7597 -0.7108
27115SOL    HW283353   3.114   5.037  10.715 -0.7513 -0.7772  2.7399
27116SOL     OW83354   5.846  11.236   7.514 -0.1815  0.6420 -0.0877
27116SOL    HW183355   5.781  11.229   7.444  1.1094  2.1999 -1.5306
27116SOL    HW283356   5.903  11.161   7.502 -1.7175 -0.8331  1.2943
27117SOL     OW83357   2.787   3.451   5.240 -0.0342 -0.0561  0.1729
27117SOL    HW183358   2.820   3.522   5.186 -0.1383  0.3971  0.7026
27117SOL    HW283359   2.842   3.376   5.217  0.9278  0.5183  0.5650
27118SOL     OW83360   2.980   0.746   5.180 -0.5211 -0.3449 -0.4052
27118SOL    HW183361   3.052   0.699   5.222 -0.0394  2.0723  1.6521
27118SOL    HW283362   3.021   0.824   5.142 -1.8793  0.5408 -0.1115
27119SOL     OW83363   2.415   0.005   8.118  0.2730  0.1354  0.2064
27119SOL    HW183364   2.467  -0.055   8.171 -0.0668 -1.1953 -0.9023
27119SOL    HW283365   2.329  -0.037   8.111  0.0105  0.7725 -0.5525
27120SOL     OW83366   7.115   5.104   5.744 -0.1263 -0.0668  0.1116
27120SOL    HW183367   7.132   5.135   5.833  2.0374 -1.3282  0.2066
27120SOL    HW283368   7.067   5.176   5.702 -0.4147  0.9005  2.0206
27121SOL     OW83369   3.148  10.700  10.491  0.0927  0.3073 -0.2463
27121SOL    HW183370   3.112  10.689  10.579 -0.0467  0.2172 -0.3140
27121SOL    HW283371   3.243  10.706  10.504  0.0701  0.3117 -0.0880
27122SOL     OW83372   8.190   9.977   0.287  0.5829 -0.4385  0.2084
27122SOL    HW183373   8.259   9.913   0.305  0.8073  0.2925  2.2418
27122SOL    HW283374   8.110   9.924   0.284  0.9942 -1.0533 -0.1415
27123SOL     OW83375  11.146   4.670  10.994  0.5175  1.1433  0.4093
27123SOL    HW183376  11.139   4.675  11.089  0.3319  0.3119  0.4432
27123SOL    HW283377  11.076   4.728  10.962 -1.3715 -0.7769  0.7873
27124SOL     OW83378   1.331   0.481   5.801 -0.2157 -1.1550  0.3496
27124SOL    HW183379   1.262   0.416   5.815 -0.1330 -1.0027  1.5089
27124SOL    HW283380   1.395   0.463   5.870  0.5985 -0.8764 -0.3186
27125SOL     OW83381   9.701   9.331   2.873 -0.4776  0.2553  0.6437
27125SOL    HW183382   9.663   9.289   2.950 -0.5891  0.5644  0.7548
27125SOL    HW283383   9.692   9.425   2.889 -1.6187  0.3262 -0.2867
27126SOL     OW83384   3.431  10.608   4.980  0.2416 -0.2243  0.1310
27126SOL    HW183385   3.396  10.669   4.915  0.6980 -1.1400 -1.0005
27126SOL    HW283386   3.475  10.665   5.044  1.9745  0.5917 -1.6886
27127SOL     OW83387   0.322   5.928   9.914 -0.2737 -0.1882 -0.6297
27127SOL    HW183388   0.236   5.886   9.917 -0.6109  0.4887  1.9463
27127SOL    HW283389   0.303   6.022   9.918  0.5691  0.1039 -2.4711
27128SOL     OW83390  10.012   4.189   0.884  0.7673 -0.2121 -0.0839
27128SOL    HW183391   9.957   4.222   0.813 -2.3054  1.9517  3.0086
27128SOL    HW283392   9.987   4.097   0.892 -0.4172  0.0615 -0.4742
27129SOL     OW83393   6.753   4.262   1.049  0.1840  0.4499 -0.0283
27129SOL    HW183394   6.681   4.244   0.989 -1.0813  3.9677  0.1995
27129SOL    HW283395   6.740   4.202   1.121 -0.8094 -0.9256 -1.2959
27130SOL     OW83396   9.102   6.595   8.388  0.8026 -0.0116  0.0387
27130SOL    HW183397   9.171   6.616   8.452  1.6628 -0.8413 -0.5927
27130SOL    HW283398   9.040   6.542   8.437  0.6415  0.6811  0.5981
27131SOL     OW83399   5.684   2.182   5.121  0.4830 -0.0185  0.0072
27131SOL    HW183400   5.597   2.206   5.089 -0.1178 -2.6564 -0.6029
27131SOL    HW283401   5.671   2.169   5.215  0.0507 -0.9825 -0.1768
27132SOL     OW83402   6.138   5.094   6.779 -0.1104  0.4604  0.4310
27132SOL    HW183403   6.165   5.008   6.745  0.0632  0.0355  1.6037
27132SOL    HW283404   6.211   5.121   6.834  0.2055  1.7713 -0.5910
27133SOL     OW83405   9.048   9.190   9.561  1.0405 -0.0184  0.1498
27133SOL    HW183406   9.065   9.232   9.476 -0.5126 -0.8501 -0.6250
27133SOL    HW283407   8.969   9.234   9.594 -0.9951 -2.5668 -0.9671
27134SOL     OW83408   6.087   0.468   4.460 -0.4838  0.3271 -0.2110
27134SOL    HW183409   6.029   0.478   4.536 -0.2189  0.9365 -0.0824
27134SOL    HW283410   6.035   0.417   4.397 -1.0556  0.6151  0.0174
27135SOL     OW83411   5.398   8.652   6.558  0.8068  0.4695  0.1935
27135SOL    HW183412   5.346   8.659   6.478 -0.3842  0.4490  0.9513
27135SOL    HW283413   5.461   8.582   6.539  2.4821  2.3755 -1.7422
27136SOL     OW83414   6.037   2.565   3.070 -0.5901 -0.1717 -0.2187
27136SOL    HW183415   5.972   2.566   3.139  1.1241 -0.0308  1.4823
27136SOL    HW283416   6.119   2.588   3.114  1.2495 -3.5302 -1.5192
27137SOL     OW83417   2.401   4.463   7.616 -0.4204  0.2698  0.1789
27137SOL    HW183418   2.412   4.392   7.554  2.0209 -1.3962  2.2848
27137SOL    HW283419   2.455   4.535   7.582 -1.2374  0.3809 -0.9107
27138SOL     OW83420   8.430   3.118   9.732  0.1396 -0.0850 -0.4571
27138SOL    HW183421   8.418   3.197   9.680  1.7625  0.3947 -0.1627
27138SOL    HW283422   8.451   3.050   9.668  1.0001  0.2458 -0.5357
27139SOL     OW83423   8.388   2.227   9.952  0.5765 -0.3466  0.0870
27139SOL    HW183424   8.333   2.187  10.019 -0.2382  0.4958 -0.0576
27139SOL    HW283425   8.391   2.320   9.975  1.9636 -0.3739  0.0941
27140SOL     OW83426   0.114   4.747   3.978  0.0839 -0.9083 -0.1144
27140SOL    HW183427   0.190   4.704   4.017  0.3565 -0.5834 -0.2890
27140SOL    HW283428   0.113   4.834   4.018 -2.0571 -1.9297  2.3910
27141SOL     OW83429   6.602   4.541   7.113  0.0132 -0.3602 -0.2768
27141SOL    HW183430   6.622   4.625   7.071 -0.9193 -0.0617 -0.1492
27141SOL    HW283431   6.522   4.558   7.162 -0.2555 -1.3679 -0.3579
27142SOL     OW83432   4.942   6.171   8.052  0.0322  0.0732 -1.0646
27142SOL    HW183433   4.985   6.243   8.005  1.6782  0.0943  0.3708
27142SOL    HW283434   5.003   6.148   8.121 -1.4178 -1.3103 -0.1795
27143SOL     OW83435   5.088   3.922  11.034  0.2059 -0.0572  0.1398
27143SOL    HW183436   5.111   3.898  10.944 -0.1569 -1.7398  0.4512
27143SOL    HW283437   5.126   4.009  11.046 -1.0902  0.9305 -2.1343
27144SOL     OW83438   7.901   4.582   2.813 -0.6294 -0.1601 -0.6976
27144SOL    HW183439   7.990   4.551   2.830 -0.9913 -0.0987  1.6436
27144SOL    HW283440   7.865   4.518   2.752  1.6948  1.0854 -3.6503
27145SOL     OW83441  10.880   0.868   2.713 -0.5342  0.3898  0.3305
27145SOL    HW183442  10.927   0.825   2.785  0.5851 -0.9953 -1.1606
27145SOL    HW283443  10.806   0.811   2.695  0.1942 -0.2522 -0.7583
27146SOL     OW83444   5.482   4.736   5.227  0.1438 -0.2468 -0.0157
27146SOL    HW183445   5.399   4.716   5.271  0.4668  0.0711  0.7415
27146SOL    HW283446   5.477   4.686   5.145 -0.5837 -0.6193  0.2404
27147SOL     OW83447   7.483   3.507   7.005 -0.3066 -0.0197  0.1767
27147SOL    HW183448   7.493   3.437   6.940 -2.6804  1.8059 -2.3847
27147SOL    HW283449   7.416   3.565   6.968  1.8021  3.9005  1.8900
27148SOL     OW83450   3.107   6.531   4.149  0.0435  0.6560  0.0161
27148SOL    HW183451   3.187   6.542   4.201  0.0637 -1.2939  0.4684
27148SOL    HW283452   3.136   6.542   4.058  0.4648  1.7285  0.2685
27149SOL     OW83453   6.695   1.562   5.571 -0.1502 -0.3783  0.0936
27149SOL    HW183454   6.755   1.490   5.591 -0.3545 -0.6363 -0.2005
27149SOL    HW283455   6.723   1.634   5.626  0.0334 -0.7020  0.4211
27150SOL     OW83456   7.386   0.586   6.818 -0.8289 -0.3978 -0.3239
27150SOL    HW183457   7.434   0.669   6.823  0.1648 -1.0010  0.2880
27150SOL    HW283458   7.343   0.589   6.732 -1.4643  1.0940  0.0133
27151SOL     OW83459   9.810   6.915   8.989  0.4326  0.0438 -0.1053
27151SOL    HW183460   9.757   6.980   8.942  0.6638  0.4616  0.1997
27151SOL    HW283461   9.756   6.837   8.992  1.0280 -0.5732 -2.5648
27152SOL     OW83462   7.865   9.120   6.674 -0.0014  0.2050  0.2381
27152SOL    HW183463   7.827   9.085   6.754 -0.4133 -1.2751 -0.5724
27152SOL    HW283464   7.911   9.046   6.634 -0.2294  0.7679 -1.1386
27153SOL     OW83465   1.999   6.542   5.037  0.0806  0.3308 -1.2257
27153SOL    HW183466   2.052   6.514   4.962  1.3344  0.4835 -0.4401
27153SOL    HW283467   2.059   6.536   5.111 -1.7285 -2.0228  0.1903
27154SOL     OW83468   6.912  11.018   3.696 -0.5978  0.2006 -0.1893
27154SOL    HW183469   6.940  10.979   3.778 -0.0557  1.0644  0.0507
27154SOL    HW283470   6.882  10.944   3.643  0.5324 -0.5461  0.1847
27155SOL     OW83471   4.313  10.834   4.762 -0.1806 -0.3697 -0.5064
27155SOL    HW183472   4.298  10.896   4.690 -3.1224  0.4265  0.6498
27155SOL    HW283473   4.229  10.792   4.775  1.0035 -2.5067  0.7238
27156SOL     OW83474   4.113   7.868   8.947 -0.4723  0.3186 -0.3796
27156SOL    HW183475   4.177   7.912   9.004 -0.3446 -3.1024  2.4525
27156SOL    HW283476   4.035   7.859   9.001 -1.0764 -1.2958 -1.4520
27157SOL     OW83477   2.063   6.134   4.289  0.0750  0.5439  0.8024
27157SOL    HW183478   2.029   6.164   4.373 -0.0662 -0.5300  1.1446
27157SOL    HW283479   2.097   6.047   4.306 -1.0354 -0.1850 -0.4929
27158SOL     OW83480  10.758   3.062   0.740  0.0462  0.7046  0.6053
27158SOL    HW183481  10.683   3.083   0.684  1.3085 -0.3561 -1.6038
27158SOL    HW283482  10.718   3.032   0.822 -1.9078  1.4864  0.0120
27159SOL     OW83483   5.238   0.117   5.197 -0.3813  0.0141 -0.5670
27159SOL    HW183484   5.190   0.119   5.280 -0.3606  2.4342 -0.5301
27159SOL    HW283485   5.198   0.046   5.147 -0.6999 -1.1907  1.3226
27160SOL     OW83486   9.744   4.157   7.047 -0.5001  0.6954  0.2951
27160SOL    HW183487   9.686   4.126   6.977 -1.1081 -1.4036  1.6578
27160SOL    HW283488   9.685   4.195   7.112 -0.4440 -1.4443  1.6855
27161SOL     OW83489   8.513   3.619   2.757  0.0857 -0.4032  0.2458
27161SOL    HW183490   8.521   3.622   2.662 -1.0622  0.4833  0.1519
27161SOL    HW283491   8.590   3.667   2.789 -1.4525  2.7758 -0.3964
27162SOL     OW83492   1.994   1.213   4.078 -0.2378  0.3292 -0.0298
27162SOL    HW183493   2.043   1.259   4.011  1.7235  0.3420  1.3328
27162SOL    HW283494   1.972   1.280   4.143  0.0109 -0.0931  0.5025
27163SOL     OW83495   4.651   3.346   5.011 -0.1635 -0.2900  0.4487
27163SOL    HW183496   4.667   3.366   5.103  1.4852 -2.3369  0.6966
27163SOL    HW283497   4.732   3.304   4.982  0.1643  2.0915 -2.5479
27164SOL     OW83498   5.174   9.920   8.344 -0.0057 -0.5477 -0.7082
27164SOL    HW183499   5.178   9.961   8.257  0.2269 -0.1542 -0.5173
27164SOL    HW283500   5.230   9.843   8.336  0.5199 -0.1691 -0.7318
27165SOL     OW83501   1.373   9.913   3.631  0.3839  0.1506  0.1363
27165SOL    HW183502   1.338  10.002   3.626  0.6784  0.3228  1.0001
27165SOL    HW283503   1.461   9.924   3.666  0.6454 -0.4335 -0.3268
27166SOL     OW83504   4.738   5.928   2.231  0.0628  0.3606 -0.1127
27166SOL    HW183505   4.670   5.869   2.201 -1.4032  1.3364  1.1524
27166SOL    HW283506   4.718   6.012   2.189  0.3648  0.6978  0.4024
27167SOL     OW83507   7.633   5.170   4.962 -0.3116 -0.4116  0.2594
27167SOL    HW183508   7.714   5.134   4.996  1.0316 -0.7163 -2.9169
27167SOL    HW283509   7.635   5.263   4.988 -0.4225 -1.0018  2.5898
27168SOL     OW83510   8.343   0.843   4.450 -0.5042 -0.4530 -0.0555
27168SOL    HW183511   8.358   0.902   4.524 -3.0905 -2.2151  2.0836
27168SOL    HW283512   8.406   0.772   4.462  0.8969  0.5481 -1.1794
27169SOL     OW83513   8.647   8.877   5.715  0.3210  0.1917 -0.3181
27169SOL    HW183514   8.728   8.928   5.709  0.8590 -0.2431  2.2647
27169SOL    HW283515   8.579   8.942   5.726  0.6447  0.4686  0.0748
27170SOL     OW83516   7.093   6.977   1.722 -0.1498 -0.0397 -0.1495
27170SOL    HW183517   7.162   7.023   1.769  1.7642 -0.9243 -1.8823
27170SOL    HW283518   7.098   7.011   1.633 -3.3199  1.2440  0.0223
27171SOL     OW83519   0.870  10.808   0.888  0.4307  0.1669 -0.2288
27171SOL    HW183520   0.928  10.772   0.956  0.2755  1.4074  0.6006
27171SOL    HW283521   0.901  10.768   0.807  0.4657 -1.5514  0.5735
27172SOL     OW83522   0.177   5.700   7.497 -0.1049 -0.1853  0.3754
27172SOL    HW183523   0.133   5.784   7.482 -1.3573 -0.5709  1.6482
27172SOL    HW283524   0.146   5.644   7.427 -0.8518 -0.1583  0.6812
27173SOL     OW83525   2.230   7.583   2.162 -0.6015  0.0511 -0.8589
27173SOL    HW183526   2.289   7.604   2.089  1.7006 -2.9394 -0.0839
27173SOL    HW283527   2.245   7.651   2.227 -0.1952  0.9187 -1.8395
27174SOL     OW83528   0.774   5.175   4.589 -0.0432  0.1456 -0.3093
27174SOL    HW183529   0.814   5.234   4.525 -1.3799 -0.9601 -2.2829
27174SOL    HW283530   0.691   5.149   4.548 -1.8508  0.7491  2.6797
27175SOL     OW83531   2.902   9.030   9.333 -0.5980 -1.0786 -0.2983
27175SOL    HW183532   2.810   9.004   9.337 -0.5094 -1.3651 -0.0776
27175SOL    HW283533   2.905   9.096   9.264 -1.5110  1.2358  1.7444
27176SOL     OW83534   2.387   6.434   5.977 -0.1547  0.2208  0.4756
27176SOL    HW183535   2.317   6.373   5.954 -1.1628  1.4835  0.0757
27176SOL    HW283536   2.342   6.506   6.021  1.1248  0.2595  1.7797
27177SOL     OW83537   2.323  10.332   5.026 -0.0381  0.2925  0.3255
27177SOL    HW183538   2.339  10.426   5.028 -0.3878  0.5641 -3.1936
27177SOL    HW283539   2.407  10.294   5.001 -0.7864  0.1611 -2.2747
27178SOL     OW83540   5.747   5.639   8.137 -0.1054  0.2694 -0.1772
27178SOL    HW183541   5.779   5.550   8.123 -1.2998 -0.2922  0.4790
27178SOL    HW283542   5.663   5.642   8.091 -0.4693  0.7761  0.4930
27179SOL     OW83543   4.280   7.542   1.139  0.7852  0.0646  0.5462
27179SOL    HW183544   4.348   7.594   1.181  0.9654  0.6979 -0.5006
27179SOL    HW283545   4.290   7.454   1.176  0.9037  0.6086  1.8315
27180SOL     OW83546  10.688   9.610   3.103  0.3562 -0.7135 -0.6231
27180SOL    HW183547  10.617   9.642   3.159 -0.4084 -1.2194 -1.2844
27180SOL    HW283548  10.665   9.519   3.084  2.6230 -1.8538  1.4472
27181SOL     OW83549   5.908   9.028   5.079 -0.2139 -0.3012  0.0410
27181SOL    HW183550   5.892   8.940   5.045 -1.6359  0.4185 -1.2437
27181SOL    HW283551   5.951   9.013   5.163 -1.2150 -2.2458  0.2632
27182SOL     OW83552   8.008  10.714   0.416  0.2906 -0.2698  0.0775
27182SOL    HW183553   8.002  10.720   0.511  0.0946  0.1638  0.0400
27182SOL    HW283554   7.923  10.745   0.384  0.4553 -0.1493 -0.2497
27183SOL     OW83555   0.815   1.116   4.413 -0.5183  0.4816 -0.0895
27183SOL    HW183556   0.826   1.021   4.417  0.0224  0.5423 -0.0529
27183SOL    HW283557   0.723   1.129   4.393 -0.4838 -0.0577 -0.5976
27184SOL     OW83558   2.636   3.141   1.379 -0.8082  0.0910  0.0520
27184SOL    HW183559   2.608   3.064   1.429  0.3071 -2.0510 -2.3513
27184SOL    HW283560   2.556   3.173   1.338 -1.1568 -0.3369  0.3840
27185SOL     OW83561   5.686   7.442  10.997 -0.0013 -0.1081 -0.4991
27185SOL    HW183562   5.776   7.450  11.026 -0.5384  0.0722  1.2107
27185SOL    HW283563   5.683   7.358  10.950  0.7780 -0.7228  0.5131
27186SOL     OW83564   8.507   8.545   7.985 -0.6732  0.0854  0.5603
27186SOL    HW183565   8.549   8.477   7.933 -0.3180 -0.3340  1.3740
27186SOL    HW283566   8.458   8.597   7.922 -0.5998 -0.6678 -0.1301
27187SOL     OW83567   9.887   1.638  10.009  0.5759  0.2545  0.2219
27187SOL    HW183568   9.838   1.666  10.086  3.2885  2.8871  1.1745
27187SOL    HW283569   9.957   1.582  10.044  1.2945  0.7217 -0.4291
27188SOL     OW83570   8.506   0.356   9.919  0.4249  0.3943  0.3608
27188SOL    HW183571   8.535   0.266   9.910 -1.9003 -0.7544  2.8183
27188SOL    HW283572   8.489   0.385   9.830 -1.8520 -2.7967 -0.4215
27189SOL     OW83573   7.530   0.986   2.317 -0.7182 -0.0429  0.0003
27189SOL    HW183574   7.538   0.951   2.228  0.5280 -0.7415  0.3594
27189SOL    HW283575   7.609   0.956   2.362 -1.8352 -0.6348  1.6743
27190SOL     OW83576   6.740   3.428  10.956 -0.5247 -0.3054 -0.7231
27190SOL    HW183577   6.729   3.333  10.955 -0.2692 -0.3342 -1.5314
27190SOL    HW283578   6.819   3.443  10.904 -1.8543  0.5003 -2.6088
27191SOL     OW83579   4.279   2.450   6.895  0.6336  0.7128  0.6822
27191SOL    HW183580   4.310   2.532   6.857  0.2534 -0.0286 -1.3534
27191SOL    HW283581   4.257   2.395   6.819  0.7230 -1.2151  1.9808
27192SOL     OW83582   1.926  10.449   0.214 -0.8817 -0.5650  0.0664
27192SOL    HW183583   1.965  10.508   0.278 -2.4405 -0.9732  1.4618
27192SOL    HW283584   1.955  10.362   0.241 -0.8298 -0.6654 -0.3075
27193SOL     OW83585  10.049  10.382  10.200 -0.5971  0.1974 -0.1351
27193SOL    HW183586  10.143  10.369  10.207 -0.9051 -1.6161  1.0864
27193SOL    HW283587  10.028  10.444  10.271 -0.8910 -2.9771  2.8079
27194SOL     OW83588   4.935   1.789  10.587  0.1567  1.0546  0.0284
27194SOL    HW183589   5.028   1.779  10.570  0.2321  0.6833  0.6083
27194SOL    HW283590   4.893   1.722  10.533  0.1230  1.9687 -1.1061
27195SOL     OW83591   2.490   1.957   1.974 -0.0542 -0.3877 -0.1710
27195SOL    HW183592   2.422   1.994   2.030 -1.7239 -1.3279 -1.4952
27195SOL    HW283593   2.447   1.942   1.890  2.1084  0.0667 -1.4447
27196SOL     OW83594  10.597   5.648   3.569  0.0223 -0.3489 -0.5911
27196SOL    HW183595  10.667   5.707   3.540 -1.8765  1.6189 -1.4440
27196SOL    HW283596  10.548   5.627   3.489 -2.9274  1.8979  0.4435
27197SOL     OW83597   0.942   8.448   8.905  0.1899  0.6576  0.1017
27197SOL    HW183598   0.985   8.382   8.960  2.1904  0.1239 -1.9599
27197SOL    HW283599   0.852   8.452   8.938  0.3493 -2.1738  1.1062
27198SOL     OW83600   1.801   0.792   0.810  0.2822  0.4380 -0.1019
27198SOL    HW183601   1.729   0.855   0.815 -0.1041 -0.0729  1.0702
27198SOL    HW283602   1.872   0.841   0.767 -0.6090  1.0705 -0.9063
27199SOL     OW83603   8.820   8.235   2.029 -0.3310 -0.2480 -0.1401
27199SOL    HW183604   8.805   8.144   2.053 -0.0925 -0.1826  0.2618
27199SOL    HW283605   8.850   8.277   2.110  2.1630 -0.4013 -0.8890
27200SOL     OW83606   0.234  10.006   0.302  0.6271  0.5495  0.0632
27200SOL    HW183607   0.311  10.038   0.254  0.8812 -0.4543 -0.2092
27200SOL    HW283608   0.262  10.005   0.394 -0.2247  3.5872  0.4907
27201SOL     OW83609   0.452   2.865   1.962 -0.5844  0.2078 -0.3015
27201SOL    HW183610   0.519   2.800   1.942 -0.5394  0.7551 -2.1380
27201SOL    HW283611   0.461   2.882   2.056 -0.2127 -1.9712  0.1011
27202SOL     OW83612  10.534   3.877   9.666  0.6035  0.2219 -0.5339
27202SOL    HW183613  10.594   3.861   9.593 -0.2359 -1.0934 -0.9572
27202SOL    HW283614  10.503   3.790   9.692 -0.0121  0.7625  0.6330
27203SOL     OW83615   6.231   8.148   3.119  0.5900 -0.7335 -0.3382
27203SOL    HW183616   6.241   8.205   3.194 -1.0442  1.5628 -1.7270
27203SOL    HW283617   6.316   8.152   3.074  0.0631  1.9961 -1.2517
27204SOL     OW83618   0.100   6.351   8.895  0.1500 -0.6752 -0.7491
27204SOL    HW183619   0.096   6.316   8.806  0.2494 -1.7278 -0.3543
27204SOL    HW283620   0.112   6.273   8.951 -1.5271 -0.2140  0.3256
27205SOL     OW83621  10.556   3.078   9.808  0.1673  0.7024  0.4283
27205SOL    HW183622  10.485   3.143   9.812  0.3684  0.9427  0.1556
27205SOL    HW283623  10.633   3.125   9.839  0.0130  0.1472  1.7107
27206SOL     OW83624   9.332   4.865   7.465  0.2601  0.2090 -0.3987
27206SOL    HW183625   9.273   4.797   7.497  2.8726 -1.3760  1.4824
27206SOL    HW283626   9.275   4.933   7.430 -2.5557 -1.9868 -0.3906
27207SOL     OW83627   5.470   0.271   8.318 -0.0305  0.3157 -0.0941
27207SOL    HW183628   5.485   0.267   8.223 -1.0480 -0.2942 -0.2371
27207SOL    HW283629   5.464   0.179   8.344 -0.4492  0.5012  0.4546
27208SOL     OW83630   4.756   5.937   9.986 -0.5720 -0.2990 -1.2537
27208SOL    HW183631   4.798   5.852   9.991 -1.4711 -0.7310 -0.8832
27208SOL    HW283632   4.694   5.939  10.059  0.1556  1.0811 -0.6240
27209SOL     OW83633   2.566  10.462   3.518 -0.1659  0.2479  0.3111
27209SOL    HW183634   2.632  10.530   3.509  0.7125 -0.6851 -0.6485
27209SOL    HW283635   2.615  10.385   3.546 -1.2811  0.2255  2.3679
27210SOL     OW83636   5.158   6.782   2.694  0.0632  1.0213  0.1578
27210SOL    HW183637   5.151   6.742   2.781  1.1846 -0.8079 -0.5387
27210SOL    HW283638   5.184   6.872   2.711 -0.9630  1.0667  1.7407
27211SOL     OW83639   1.780   4.685  10.684  0.1211  0.5697  0.3313
27211SOL    HW183640   1.702   4.640  10.651  1.2362 -1.6419  0.4959
27211SOL    HW283641   1.831   4.703  10.605  0.1372  0.6165  0.3530
27212SOL     OW83642   8.229   2.151   2.677 -0.1176 -0.6436  0.1160
27212SOL    HW183643   8.266   2.142   2.590 -0.3846 -0.6172 -0.0004
27212SOL    HW283644   8.136   2.132   2.666 -0.3203  0.2528  0.2321
27213SOL     OW83645   3.911   4.874   3.074 -0.3776 -0.8487  0.2375
27213SOL    HW183646   3.941   4.892   3.163  0.8664 -0.8126 -0.1685
27213SOL    HW283647   3.926   4.781   3.061  0.9199 -0.5703 -0.4432
27214SOL     OW83648   9.433   5.911   3.446 -0.2862  0.6501  0.9258
27214SOL    HW183649   9.441   5.834   3.501  1.5135 -0.2710 -0.5030
27214SOL    HW283650   9.341   5.914   3.421 -0.2571 -1.5411  0.3675
27215SOL     OW83651   3.972   3.276  10.499  0.1276 -0.3010 -0.0308
27215SOL    HW183652   3.988   3.370  10.491 -0.5292 -0.3661 -3.5260
27215SOL    HW283653   4.059   3.236  10.495  0.4270  0.0907  1.6931
27216SOL     OW83654   0.052   4.895   6.444  0.0778 -0.6325  0.1027
27216SOL    HW183655   0.005   4.867   6.366 -1.2717  2.6713 -0.4276
27216SOL    HW283656   0.132   4.937   6.411 -1.0681  1.8666  0.2685
27217SOL     OW83657   3.232   1.739   8.069  0.1339  0.2803 -0.1564
27217SOL    HW183658   3.254   1.826   8.101 -0.3880  0.2077  0.4203
27217SOL    HW283659   3.147   1.719   8.109  0.3208 -0.5619 -0.1504
27218SOL     OW83660   6.504   9.423  10.676 -0.1544  0.3140  0.5023
27218SOL    HW183661   6.421   9.448  10.717 -0.3967 -0.1128  0.2723
27218SOL    HW283662   6.538   9.354  10.733 -1.1957 -1.3283 -0.7778
27219SOL     OW83663   4.316   4.856   8.897 -1.4742  0.2492 -0.8303
27219SOL    HW183664   4.226   4.888   8.898 -1.1983  1.0349  0.0539
27219SOL    HW283665   4.320   4.795   8.971 -1.0718  0.8437 -0.3529
27220SOL     OW83666   7.859   4.916   7.219  0.7078 -0.7026 -0.3856
27220SOL    HW183667   7.886   4.828   7.192  1.3017 -0.3316 -1.0669
27220SOL    HW283668   7.880   4.920   7.312  1.2363 -1.0910 -0.4774
27221SOL     OW83669   9.855   6.404   9.340 -0.3206  1.0332 -0.0758
27221SOL    HW183670   9.783   6.467   9.340 -2.0642 -0.7949 -2.3781
27221SOL    HW283671   9.825   6.334   9.399 -0.9607 -0.1855 -1.7639
27222SOL     OW83672   6.595   1.808   6.253 -0.1413  0.4540  0.0631
27222SOL    HW183673   6.550   1.772   6.329  0.9107 -2.1141 -0.4282
27222SOL    HW283674   6.545   1.886   6.230 -3.4807 -1.3807  0.4396
27223SOL     OW83675   3.810  10.537   0.705 -0.3130  0.0263  0.4194
27223SOL    HW183676   3.828  10.492   0.622 -0.1335  1.0671 -0.1233
27223SOL    HW283677   3.833  10.629   0.688 -2.3749  0.6939  0.9335
27224SOL     OW83678   2.259  10.214   6.666  0.1108  0.0545  0.3755
27224SOL    HW183679   2.185  10.234   6.723  0.9231  0.6174  1.2725
27224SOL    HW283680   2.222  10.211   6.578 -0.9311  0.5555  0.7815
27225SOL     OW83681   6.927  10.563   3.035 -0.0550  0.1702 -0.8290
27225SOL    HW183682   6.886  10.478   3.051 -1.8530  0.2465 -4.1094
27225SOL    HW283683   6.996  10.544   2.971  0.5207  1.0114 -0.4777
27226SOL     OW83684   4.502  10.917   6.772  0.0011  0.6780 -0.0260
27226SOL    HW183685   4.578  10.940   6.825  0.4918  2.2152 -1.3368
27226SOL    HW283686   4.526  10.836   6.728  0.3663  0.4655  0.5558
27227SOL     OW83687  10.322   0.494   8.021 -0.0898  0.1247  0.0504
27227SOL    HW183688  10.344   0.437   8.095 -0.9309 -1.8937 -1.1759
27227SOL    HW283689  10.406   0.516   7.981  0.3223  0.6962  1.1764
27228SOL     OW83690   7.550   9.171   3.204 -0.1414 -0.1839 -1.0284
27228SOL    HW183691   7.484   9.219   3.256 -1.1190 -1.4344 -1.0655
27228SOL    HW283692   7.564   9.226   3.127  2.0689  2.2176  0.8958
27229SOL     OW83693   2.031   7.208   2.268 -0.2201  0.3140 -0.2647
27229SOL    HW183694   2.001   7.217   2.358 -0.3596  3.9033 -0.5108
27229SOL    HW283695   2.001   7.288   2.224 -1.4266 -1.8841 -3.9476
27230SOL     OW83696  10.113   3.046   0.034 -0.0251 -0.1033 -0.6761
27230SOL    HW183697  10.089   2.954   0.020  1.5265 -0.4622 -1.1121
27230SOL    HW283698  10.061   3.094  -0.030 -1.8546 -0.4947  0.4289
27231SOL     OW83699   8.885   1.593   3.901  0.3311  0.1163 -0.5797
27231SOL    HW183700   8.906   1.650   3.827 -1.4021  0.7266 -0.6449
27231SOL    HW283701   8.898   1.504   3.868 -1.6984  0.3174 -2.1149
27232SOL     OW83702   5.265   3.877   5.713  0.3044 -0.2929 -0.7006
27232SOL    HW183703   5.328   3.944   5.739 -2.1907  1.8432  0.2512
27232SOL    HW283704   5.259   3.819   5.789 -0.3833  0.7189  0.0361
27233SOL     OW83705   0.071   1.890   2.373  0.0386 -0.4013 -0.2253
27233SOL    HW183706   0.003   1.910   2.309 -0.3039 -1.6588 -0.2876
27233SOL    HW283707   0.087   1.973   2.418 -1.6719 -0.1035 -0.0845
27234SOL     OW83708   8.511   4.979   5.769  0.2988  0.7341  0.2446
27234SOL    HW183709   8.533   4.935   5.688  0.3230  0.6834  0.2788
27234SOL    HW283710   8.454   4.919   5.816 -1.1658  1.4878 -0.5141
27235SOL     OW83711   8.088   1.469   3.768 -0.1566 -0.1066 -0.2368
27235SOL    HW183712   8.133   1.386   3.754 -1.5036 -1.0090  0.5017
27235SOL    HW283713   8.006   1.459   3.719 -0.2499  0.8583 -0.2868
27236SOL     OW83714  11.093   8.393   4.730 -0.8936  0.6425  0.9409
27236SOL    HW183715  11.032   8.441   4.674 -0.7557 -0.8082 -0.5306
27236SOL    HW283716  11.039   8.325   4.771 -0.2507 -1.0849 -0.8923
27237SOL     OW83717  10.830   0.684   1.672  0.7336  0.7063 -0.0906
27237SOL    HW183718  10.777   0.720   1.744 -0.2601  0.4825 -0.6794
27237SOL    HW283719  10.824   0.750   1.603 -3.2098 -1.3961 -2.1674
27238SOL     OW83720   4.637   5.726   4.645  0.1854 -0.0402 -0.6354
27238SOL    HW183721   4.568   5.786   4.617 -0.0579  0.4843  0.9933
27238SOL    HW283722   4.591   5.645   4.668  0.1259  0.2411  0.2551
27239SOL     OW83723   7.038   5.946   8.620 -0.0976 -1.3732 -0.1717
27239SOL    HW183724   6.970   5.983   8.564  0.3145 -0.5817 -0.1736
27239SOL    HW283725   7.118   5.954   8.569  0.5985  0.9696  1.1091
27240SOL     OW83726   8.888   6.989   3.666 -0.0744  0.6143  0.2699
27240SOL    HW183727   8.951   6.919   3.650 -1.5608 -0.7478  0.1862
27240SOL    HW283728   8.890   7.040   3.585 -0.6561 -0.7167 -0.6212
27241SOL     OW83729  10.058   9.001   6.898  0.2649  0.0463  0.0287
27241SOL    HW183730  10.023   8.917   6.929  0.8917  0.6967  2.8281
27241SOL    HW283731  10.076   9.050   6.979  0.7891  2.5273 -1.4953
27242SOL     OW83732   4.209   8.883   6.218 -0.5994  0.9626 -0.7004
27242SOL    HW183733   4.121   8.848   6.205 -0.1115 -0.4628 -0.3392
27242SOL    HW283734   4.267   8.818   6.179  0.3376  1.5281 -0.2920
27243SOL     OW83735   9.789   0.413   4.249 -0.4814  0.9062  0.5134
27243SOL    HW183736   9.750   0.438   4.332  2.7436  1.3736  2.0365
27243SOL    HW283737   9.863   0.358   4.272  0.8169  1.4219 -1.9924
27244SOL     OW83738   6.280   4.791   9.428  0.0384  0.4418  0.0909
27244SOL    HW183739   6.191   4.799   9.394 -0.0814 -1.4972 -0.1359
27244SOL    HW283740   6.335   4.819   9.355 -0.3652  1.3719  0.1326
27245SOL     OW83741   0.084   4.839   0.914 -0.4555 -0.0397  0.3872
27245SOL    HW183742   0.158   4.783   0.933 -0.1753  0.7214  1.6941
27245SOL    HW283743   0.113   4.894   0.842  0.7545  1.0780  1.6619
27246SOL     OW83744   0.749   5.832  10.723  0.0830  0.6982 -0.2968
27246SOL    HW183745   0.746   5.781  10.642 -3.4369  2.3020 -1.3307
27246SOL    HW283746   0.713   5.773  10.790 -1.3400  0.8627 -0.8975
27247SOL     OW83747   2.887   9.991   9.141 -0.3357  0.5207  0.8668
27247SOL    HW183748   2.861   9.964   9.229  2.6176 -1.0189  1.3892
27247SOL    HW283749   2.919   9.911   9.099 -2.3742  1.0502 -1.9805
27248SOL     OW83750   9.736   0.279   5.059  0.5348 -0.6797  0.3708
27248SOL    HW183751   9.734   0.217   4.986  0.3758 -1.2455  0.8512
27248SOL    HW283752   9.796   0.240   5.122 -0.1089 -0.6950  0.9829
27249SOL     OW83753   9.567   4.178   1.602  0.4516 -0.1072  0.1953
27249SOL    HW183754   9.611   4.237   1.663 -1.2001  1.7436 -0.2779
27249SOL    HW283755   9.601   4.202   1.516  0.0584 -0.1241  0.0342
27250SOL     OW83756   1.243   7.736  11.146 -0.1220 -0.0812  0.9954
27250SOL    HW183757   1.208   7.798  11.083 -0.5845 -1.6429 -0.3742
27250SOL    HW283758   1.276   7.790  11.218 -1.9231  1.6379  0.6215
27251SOL     OW83759   3.668   8.781   9.433  0.4493  0.3311 -0.2915
27251SOL    HW183760   3.746   8.725   9.438  0.0321 -0.2363 -0.0688
27251SOL    HW283761   3.701   8.869   9.451  0.7604 -0.1677  1.8755
27252SOL     OW83762   3.346   5.482   9.642 -0.2642 -0.3185 -0.3279
27252SOL    HW183763   3.281   5.437   9.588 -1.3568 -0.4523  1.0301
27252SOL    HW283764   3.306   5.566   9.662  1.3435  0.9139 -2.0275
27253SOL     OW83765  11.153   7.194   0.897  0.0945  0.0801 -0.2776
27253SOL    HW183766  11.165   7.117   0.953  2.3537  1.2597  1.0076
27253SOL    HW283767  11.225   7.190   0.834 -0.4371  0.5712 -0.9404
27254SOL     OW83768  10.130   2.355   2.377 -0.2632 -0.2979 -0.8317
27254SOL    HW183769  10.073   2.386   2.446  0.7876 -2.8585  1.3663
27254SOL    HW283770  10.086   2.381   2.296 -2.4832  1.2134  0.7354
27255SOL     OW83771   3.981   0.727   3.341  0.0973  0.8611  0.6540
27255SOL    HW183772   3.944   0.644   3.370  1.5357 -0.4757 -1.0958
27255SOL    HW283773   4.029   0.760   3.417 -0.4701  0.0979  1.3581
27256SOL     OW83774   8.187   5.304   5.862  0.1883 -0.0478 -0.5532
27256SOL    HW183775   8.177   5.379   5.921  0.6922  0.8074 -1.5388
27256SOL    HW283776   8.276   5.312   5.828 -0.5198  0.1946 -2.4154
27257SOL     OW83777   3.987   2.778   9.916 -0.2541  0.2101  0.4524
27257SOL    HW183778   3.979   2.722   9.839  0.9450  0.3956  0.1849
27257SOL    HW283779   3.934   2.855   9.896 -1.7245 -0.6862  0.7229
27258SOL     OW83780   0.938   9.453  10.058 -0.1645  0.8645  0.7704
27258SOL    HW183781   0.846   9.450  10.085 -0.2984 -1.0806  0.2741
27258SOL    HW283782   0.936   9.487   9.969 -0.6847 -1.1874 -0.0599
27259SOL     OW83783  11.152  10.012  10.634 -0.0532  0.3747 -0.3670
27259SOL    HW183784  11.154   9.957  10.712  0.6938  1.0097  0.0768
27259SOL    HW283785  11.218   9.972  10.576  2.7955  2.4878  1.1777
27260SOL     OW83786   2.155  10.546   7.786  0.6187  0.5256  0.0965
27260SOL    HW183787   2.169  10.463   7.832  1.0441  1.0945  1.0243
27260SOL    HW283788   2.240  10.566   7.747  0.6263  0.7219  0.2124
27261SOL     OW83789   8.848   0.232   7.269  0.3578  0.2349 -0.9308
27261SOL    HW183790   8.763   0.214   7.229  1.0574  1.5208 -3.1409
27261SOL    HW283791   8.912   0.197   7.207  1.5050 -2.0011  1.3534
27262SOL     OW83792  10.179   7.655  11.106 -0.1430 -0.1843  0.0940
27262SOL    HW183793  10.244   7.718  11.076 -0.2935 -1.2245 -2.7970
27262SOL    HW283794  10.197   7.644  11.199  0.2129  3.6359  0.6471
27263SOL     OW83795   1.803  11.122   6.784 -0.6259 -0.5594 -0.3996
27263SOL    HW183796   1.851  11.115   6.701  0.9523 -0.8053  0.4863
27263SOL    HW283797   1.815  11.212   6.812  1.2565 -1.1451  0.8863
27264SOL     OW83798   4.272   0.942  10.819  0.1207 -0.6961  0.2203
27264SOL    HW183799   4.209   1.004  10.783  0.5470 -1.1013 -1.2758
27264SOL    HW283800   4.358   0.981  10.801  0.3464 -0.8472  0.9355
27265SOL     OW83801   6.485   9.283   4.254  0.2835 -0.1142 -0.3495
27265SOL    HW183802   6.566   9.268   4.204  0.6713 -1.4501  0.6439
27265SOL    HW283803   6.514   9.328   4.333 -0.2690  1.5300 -1.0356
27266SOL     OW83804   1.571   9.394   5.477 -0.4510 -0.1991  0.1712
27266SOL    HW183805   1.536   9.420   5.562 -1.3931  0.7056 -0.4619
27266SOL    HW283806   1.494   9.368   5.426  0.1017 -0.7698 -0.4025
27267SOL     OW83807   0.549   6.801   1.133  0.1284 -0.0584  0.4023
27267SOL    HW183808   0.511   6.733   1.188  2.2784 -0.0319  2.0528
27267SOL    HW283809   0.578   6.868   1.195  1.0045  0.8190 -0.9113
27268SOL     OW83810   4.763   7.508   3.174 -0.3714  0.4938  0.2258
27268SOL    HW183811   4.840   7.459   3.146  0.1425  0.9063  0.8891
27268SOL    HW283812   4.724   7.540   3.093  0.2492  0.4214 -0.1077
27269SOL     OW83813   8.850   8.699   3.284 -0.2343 -0.3246  0.0857
27269SOL    HW183814   8.830   8.745   3.365 -0.6251 -2.4808  1.2791
27269SOL    HW283815   8.765   8.682   3.244 -0.1427 -0.6452  0.0240
27270SOL     OW83816   2.187   1.839   9.321 -0.2795  0.1464  0.5151
27270SOL    HW183817   2.148   1.799   9.243  0.3044 -0.5389  0.5750
27270SOL    HW283818   2.197   1.767   9.383  0.6248  0.4062  0.6856
27271SOL     OW83819   5.235   2.472   1.565  0.4761 -0.0169 -0.4345
27271SOL    HW183820   5.311   2.481   1.623  0.9372 -0.2231 -0.9943
27271SOL    HW283821   5.207   2.381   1.576 -1.2684  0.6720  1.6605
27272SOL     OW83822   8.036   3.269   5.214  0.5956  0.4914 -0.7086
27272SOL    HW183823   8.091   3.330   5.263  1.2080 -1.4043  1.1095
27272SOL    HW283824   8.087   3.189   5.210 -1.3362 -0.8121 -0.4790
27273SOL     OW83825   8.937   1.871  10.074  0.2506  0.0113 -0.0573
27273SOL    HW183826   8.851   1.912  10.085  0.2164 -0.3083  0.9844
27273SOL    HW283827   8.995   1.922  10.131  0.5707 -0.3088 -0.0908
27274SOL     OW83828  10.864   6.591   8.839  0.5971  0.4766 -0.0727
27274SOL    HW183829  10.827   6.624   8.757  1.8909  1.1121 -0.4262
27274SOL    HW283830  10.946   6.548   8.813  0.1417 -0.9159  0.6839
27275SOL     OW83831   5.593   9.223   8.941  0.3247  0.5163  0.4779
27275SOL    HW183832   5.531   9.150   8.939 -0.9100  1.5523 -1.6773
27275SOL    HW283833   5.593   9.251   9.033  1.1991 -2.4165  1.4866
27276SOL     OW83834   9.281  10.919   8.743 -0.3623  0.4597  0.4409
27276SOL    HW183835   9.234  10.992   8.783  0.0530  1.6449 -1.1441
27276SOL    HW283836   9.275  10.849   8.808 -4.4664  0.4517  0.3297
27277SOL     OW83837  10.815   3.972   0.898  0.8592 -0.1240  0.4813
27277SOL    HW183838  10.795   3.895   0.846 -0.0420  0.2661  0.2231
27277SOL    HW283839  10.832   4.041   0.833 -2.9753  1.0905  0.5318
27278SOL     OW83840   7.857   0.917   2.937 -0.4819  0.2473 -0.3452
27278SOL    HW183841   7.793   0.980   2.970 -0.3605  0.6617 -0.8965
27278SOL    HW283842   7.807   0.837   2.923 -1.0371  0.7600 -1.4159
27279SOL     OW83843   5.783  10.597   2.945 -0.4379 -0.4111 -0.6124
27279SOL    HW183844   5.754  10.584   3.035  1.4296 -3.4553 -0.3029
27279SOL    HW283845   5.831  10.680   2.948 -0.8544 -0.1803  1.0530
27280SOL     OW83846   0.406   6.296   3.344  0.6151 -0.0163 -0.0344
27280SOL    HW183847   0.418   6.348   3.265  1.6204  0.3290  0.3270
27280SOL    HW283848   0.311   6.290   3.355  0.4689 -0.1387 -1.2979
27281SOL     OW83849   2.656   7.170   3.672  0.4933  0.3606 -0.1363
27281SOL    HW183850   2.752   7.175   3.673  0.4328  2.7034 -0.4764
27281SOL    HW283851   2.635   7.153   3.580  0.5798  1.2765 -0.3397
27282SOL     OW83852   0.405   1.146   2.781 -0.3566  0.0614 -0.0961
27282SOL    HW183853   0.453   1.152   2.864 -1.8578  1.0377  0.7595
27282SOL    HW283854   0.404   1.235   2.748 -1.5278  0.0677 -0.0919
27283SOL     OW83855   4.931   5.296   3.758  0.8467 -0.1730 -0.5072
27283SOL    HW183856   4.951   5.218   3.706  0.5137  0.2973 -1.3395
27283SOL    HW283857   4.888   5.260   3.837 -1.9376 -0.7110 -2.1340
27284SOL     OW83858  11.120  11.175   7.337 -0.2849 -0.0075 -0.3063
27284SOL    HW183859  11.187  11.215   7.281 -0.4663 -1.1420 -1.3819
27284SOL    HW283860  11.056  11.140   7.275 -0.8223 -0.7299  0.6481
27285SOL     OW83861   3.453   6.250   6.486  0.7461  0.0668  0.0547
27285SOL    HW183862   3.461   6.162   6.524 -0.1087  0.5125  1.3497
27285SOL    HW283863   3.542   6.274   6.462  1.1456 -0.7320  0.7019
27286SOL     OW83864   2.439   1.530   2.415 -0.1152  0.3468 -0.5489
27286SOL    HW183865   2.494   1.521   2.493 -1.8390 -0.1824  0.6879
27286SOL    HW283866   2.392   1.612   2.429 -1.2179 -0.2753 -0.4800
27287SOL     OW83867   5.281   5.348   6.640 -0.3338  0.0006  0.2882
27287SOL    HW183868   5.211   5.410   6.660 -0.1689 -0.0987  1.2068
27287SOL    HW283869   5.301   5.364   6.548 -4.8870 -3.2652 -1.6234
27288SOL     OW83870   6.722  11.135   9.237  0.3630 -0.4486  0.2915
27288SOL    HW183871   6.721  11.040   9.231 -1.1740 -0.5387  1.2778
27288SOL    HW283872   6.630  11.159   9.251  0.7862  1.1396  0.5730
27289SOL     OW83873   4.494   9.047   3.599  0.9833 -0.3058  0.3575
27289SOL    HW183874   4.451   9.057   3.684  0.4534 -0.6446  0.1356
27289SOL    HW283875   4.422   9.029   3.539  1.0824  1.9582 -0.5436
27290SOL     OW83876   9.636   9.084   6.379  0.4345  0.5218 -0.9014
27290SOL    HW183877   9.673   9.159   6.425  1.3072  0.4128 -1.4024
27290SOL    HW283878   9.710   9.024   6.366 -0.6258 -1.4857  1.4687
27291SOL     OW83879   3.269  10.180   5.165  0.0962 -0.1393  0.5701
27291SOL    HW183880   3.177  10.205   5.174  0.3037  0.9666 -0.2059
27291SOL    HW283881   3.314  10.229   5.233  0.1978 -0.1822  0.5347
27292SOL     OW83882   5.830   6.700   1.197  0.6159 -0.0007 -0.0080
27292SOL    HW183883   5.820   6.760   1.123 -0.9223  0.0384  0.2030
27292SOL    HW283884   5.867   6.754   1.267 -2.0154  1.1301  0.6225
27293SOL     OW83885   0.297   1.373   5.592  0.1481  0.2227 -0.5947
27293SOL    HW183886   0.343   1.405   5.515  0.6430 -0.2514 -0.5041
27293SOL    HW283887   0.366   1.347   5.653 -0.2124 -1.2647 -0.7731
27294SOL     OW83888   0.879   2.677   8.197 -0.5161 -0.2108  0.3113
27294SOL    HW183889   0.885   2.611   8.127 -1.0515 -0.7011  0.7213
27294SOL    HW283890   0.968   2.684   8.230 -0.4750 -0.8489  0.3627
27295SOL     OW83891   3.513   7.046   0.065  0.0938  0.5444 -0.5536
27295SOL    HW183892   3.421   7.051   0.039 -0.4087  1.3013  1.2601
27295SOL    HW283893   3.546   7.135   0.057 -0.1986  0.8969  1.7153
27296SOL     OW83894   8.369   2.395   8.648  0.2672 -0.0797 -0.1457
27296SOL    HW183895   8.353   2.489   8.654  0.5862 -0.0685  0.6493
27296SOL    HW283896   8.307   2.356   8.709  0.9197 -0.2886  0.4042
27297SOL     OW83897   8.305   2.586   8.967  0.2987  0.0771 -0.2099
27297SOL    HW183898   8.220   2.629   8.973  0.8341  1.5233 -2.1343
27297SOL    HW283899   8.290   2.499   9.002 -1.4174  1.0186  1.5726
27298SOL     OW83900   5.070   1.923   7.865  0.0993  0.0280  0.2548
27298SOL    HW183901   5.142   1.928   7.929  4.4159  0.5452 -4.0979
27298SOL    HW283902   5.047   2.015   7.848  0.6501  0.0243 -0.5538
27299SOL     OW83903   1.138   3.547  10.638 -0.4228 -0.4172 -0.0688
27299SOL    HW183904   1.077   3.561  10.566  1.2437 -2.1436 -1.9484
27299SOL    HW283905   1.223   3.538  10.595  1.2605  1.9860  2.4250
27300SOL     OW83906   9.720   5.851   9.926 -0.2600  0.5204  0.1852
27300SOL    HW183907   9.719   5.818   9.836 -2.3627  1.0415 -0.0242
27300SOL    HW283908   9.766   5.783   9.975 -0.5002 -0.5530 -1.0076
27301SOL     OW83909  10.710   9.459   5.756 -0.2768  0.2584 -0.4206
27301SOL    HW183910  10.708   9.451   5.661  0.3940 -2.2006 -0.3114
27301SOL    HW283911  10.693   9.551   5.774  2.9548  1.5825 -3.0578
27302SOL     OW83912   2.372  10.402  11.073 -0.0392 -0.0918  0.8041
27302SOL    HW183913   2.430  10.450  11.133  0.8174  1.3454 -1.0471
27302SOL    HW283914   2.428  10.383  10.997 -1.3003 -1.0748  0.0931
27303SOL     OW83915   1.411   5.853   8.335 -0.0137 -0.2318 -0.2712
27303SOL    HW183916   1.327   5.867   8.378  0.5897  1.0122  0.5375
27303SOL    HW283917   1.453   5.783   8.385  0.1570  0.3430  0.3953
27304SOL     OW83918   0.635   3.815   4.936  0.2480  0.2252 -0.8554
27304SOL    HW183919   0.592   3.885   4.984 -1.1830 -1.9886  1.3207
27304SOL    HW283920   0.569   3.785   4.873  0.2169 -0.3029 -0.5749
27305SOL     OW83921   8.874   6.163   8.466 -0.0355  0.0577 -0.1983
27305SOL    HW183922   8.832   6.176   8.381 -1.8776 -1.0612  0.4701
27305SOL    HW283923   8.952   6.112   8.446 -0.0277  0.4733 -1.2963
27306SOL     OW83924   4.392  10.049   1.584 -0.3538  0.5009  0.0991
27306SOL    HW183925   4.320  10.006   1.632  1.0067 -3.3425 -0.9489
27306SOL    HW283926   4.462  10.057   1.648 -0.1825 -0.1279  0.0021
27307SOL     OW83927   8.498   3.599   7.180  0.0897 -0.2578  0.2295
27307SOL    HW183928   8.546   3.521   7.208  1.2154 -0.1925 -1.4361
27307SOL    HW283929   8.531   3.668   7.237  1.3527 -0.4001 -0.2971
27308SOL     OW83930   1.580   9.181   7.003  0.5109  0.2009 -0.0135
27308SOL    HW183931   1.552   9.272   7.004  1.9639  0.6696  0.5378
27308SOL    HW283932   1.498   9.131   7.000 -0.3494  1.5001  0.6058
27309SOL     OW83933   6.580   0.118   4.426 -0.4016 -0.0054  0.2591
27309SOL    HW183934   6.561   0.094   4.335  1.0615 -2.3620  0.4961
27309SOL    HW283935   6.663   0.166   4.421 -0.6572  0.4501  0.3091
27310SOL     OW83936   7.757   8.919   4.566 -0.8179  0.2366  0.3757
27310SOL    HW183937   7.753   8.900   4.472  0.3411  1.4961  0.0468
27310SOL    HW283938   7.708   8.847   4.606 -2.6550  0.4723 -1.2706
27311SOL     OW83939   7.594   0.804   8.545  0.3263 -0.4110 -0.4385
27311SOL    HW183940   7.658   0.733   8.537  1.4367  0.6177 -1.1571
27311SOL    HW283941   7.611   0.841   8.632  0.1301 -0.6913 -0.2842
27312SOL     OW83942   5.271   9.577   0.588 -0.4663 -0.6948 -0.9268
27312SOL    HW183943   5.233   9.503   0.542  1.2210 -0.8536 -2.1581
27312SOL    HW283944   5.203   9.604   0.650 -2.0035 -1.8039 -2.0417
27313SOL     OW83945   9.665   5.819   4.468 -0.4014  0.3283 -0.3673
27313SOL    HW183946   9.693   5.766   4.393  0.5735 -1.2025  1.0298
27313SOL    HW283947   9.670   5.760   4.543 -0.9586  1.9387  1.0004
27314SOL     OW83948   5.271   9.013   9.598  0.0907 -0.1956 -0.3966
27314SOL    HW183949   5.319   8.943   9.553 -0.4448 -0.7554 -0.1269
27314SOL    HW283950   5.308   9.094   9.564  1.4142 -0.6078  0.0114
27315SOL     OW83951   5.864   9.209   8.900  0.4255  0.0576 -0.4473
27315SOL    HW183952   5.886   9.149   8.971 -0.9704 -1.4442 -1.2085
27315SOL    HW283953   5.770   9.224   8.910  0.5643  1.3194 -0.8885
27316SOL     OW83954   8.542  10.401   3.678 -0.1346  0.2814  0.3235
27316SOL    HW183955   8.529  10.387   3.584 -1.4137  0.5012  0.4439
27316SOL    HW283956   8.458  10.437   3.708 -0.1197 -0.7950  1.7474
27317SOL     OW83957   6.293   9.928   0.942  0.0063 -0.5068  0.1112
27317SOL    HW183958   6.214   9.936   0.889  0.8018  3.5367 -0.7499
27317SOL    HW283959   6.366   9.937   0.880  0.9977  5.8939  1.4771
27318SOL     OW83960   7.649   4.476   0.464  0.3812 -0.0767  0.1230
27318SOL    HW183961   7.735   4.462   0.504 -0.1128 -0.0191  1.2420
27318SOL    HW283962   7.614   4.554   0.507 -1.0537 -1.2404  1.1685
27319SOL     OW83963   7.199   8.891   0.109 -0.0837  0.3799 -0.7407
27319SOL    HW183964   7.179   8.934   0.192 -0.1341  1.9336 -1.5282
27319SOL    HW283965   7.155   8.806   0.115 -1.0380  0.9303  0.3666
27320SOL     OW83966   5.721   8.655   6.067  0.0923 -0.0719  0.3159
27320SOL    HW183967   5.697   8.617   6.151 -1.0952  1.0966  0.5323
27320SOL    HW283968   5.775   8.731   6.089  0.8243 -0.4678 -0.0472
27321SOL     OW83969   8.387   3.293  10.543  0.4282 -0.0219  0.2363
27321SOL    HW183970   8.451   3.223  10.529 -0.0920 -1.0907  2.6883
27321SOL    HW283971   8.383   3.339  10.459 -0.1825 -3.7076 -1.9655
27322SOL     OW83972   7.280   4.879   0.628  0.1003  0.6826 -0.2042
27322SOL    HW183973   7.246   4.791   0.644 -0.7625  1.1716  0.7978
27322SOL    HW283974   7.277   4.889   0.533 -1.1228  0.1439 -0.2386
27323SOL     OW83975   5.192   1.748   7.287  0.0896 -1.1678  0.0496
27323SOL    HW183976   5.239   1.690   7.228 -0.2549 -0.0153 -1.4092
27323SOL    HW283977   5.110   1.767   7.242  0.7997  1.5964 -0.2239
27324SOL     OW83978  10.598   9.148   1.576 -0.5156  0.0017 -0.0791
27324SOL    HW183979  10.638   9.159   1.489 -1.9355  1.6868 -0.5896
27324SOL    HW283980  10.664   9.101   1.627  0.8890  0.1016 -1.6953
27325SOL     OW83981   8.148   2.894   1.850 -0.3995 -0.6498 -0.2798
27325SOL    HW183982   8.233   2.914   1.812  0.0657 -1.2869  0.3831
27325SOL    HW283983   8.118   2.817   1.803 -0.8684 -0.1108 -0.8804
27326SOL     OW83984   0.428  10.646   5.192  0.4555 -0.3165 -0.0582
27326SOL    HW183985   0.481  10.567   5.200  0.2198 -0.3234  2.0458
27326SOL    HW283986   0.339  10.614   5.174  0.3392 -0.5783  0.8980
27327SOL     OW83987   5.379   9.378   1.409  0.6185  0.3425 -0.4581
27327SOL    HW183988   5.430   9.398   1.331  1.3296 -1.0859 -0.4070
27327SOL    HW283989   5.430   9.310   1.453 -0.7788 -0.3295  0.1838
27328SOL     OW83990   1.084   0.368   2.355  0.6670  0.1093 -0.2280
27328SOL    HW183991   1.122   0.317   2.426  1.3127  0.3679 -0.3801
27328SOL    HW283992   1.003   0.404   2.391  0.2931 -0.8717 -0.0645
27329SOL     OW83993  10.472  10.654   0.771 -0.1633  0.6035 -0.3813
27329SOL    HW183994  10.389  10.700   0.782 -0.5579 -0.1611 -0.1345
27329SOL    HW283995  10.529  10.689   0.840 -0.9134 -0.2823  0.7213
27330SOL     OW83996   6.272   5.011   1.539 -0.4964  0.4079 -0.5570
27330SOL    HW183997   6.349   5.063   1.516  0.6228 -1.0405 -0.2389
27330SOL    HW283998   6.278   4.934   1.482 -0.8890 -0.4199  0.4939
27331SOL     OW83999   0.748   1.265   1.952 -0.5042  0.5672  0.3847
27331SOL    HW184000   0.791   1.179   1.943 -1.9532 -0.0072 -1.9744
27331SOL    HW284001   0.816   1.328   1.930  0.7109  0.1191  2.5812
27332SOL     OW84002   7.819   0.371   1.365 -0.5934  0.2079 -0.5103
27332SOL    HW184003   7.900   0.418   1.386  0.4774 -2.0159  0.6878
27332SOL    HW284004   7.794   0.405   1.279  2.5444 -0.1835 -1.7191
27333SOL     OW84005   2.860  10.127   8.582  0.3841  0.6251 -0.3988
27333SOL    HW184006   2.879  10.109   8.674 -2.3660 -1.2367 -0.0808
27333SOL    HW284007   2.912  10.063   8.534  1.1663  1.0340 -0.1213
27334SOL     OW84008   8.322   1.213  10.625  0.0074 -0.3638  0.3668
27334SOL    HW184009   8.274   1.138  10.590  1.6257 -0.5740 -1.5554
27334SOL    HW284010   8.381   1.176  10.690  0.3283 -0.6814 -0.1002
27335SOL     OW84011   1.650  10.519   3.340  0.2958 -0.1882  0.6508
27335SOL    HW184012   1.660  10.501   3.246  0.6994 -2.3194  1.0448
27335SOL    HW284013   1.733  10.561   3.365 -0.1856  1.2729 -0.0941
27336SOL     OW84014   7.201   2.886   4.671 -0.1182 -0.2335 -0.4128
27336SOL    HW184015   7.280   2.923   4.709  2.4508 -2.7357 -2.8337
27336SOL    HW284016   7.204   2.793   4.695 -4.9986  0.1224  3.4044
27337SOL     OW84017  10.556   0.049   7.153 -0.2278  0.4202 -0.3234
27337SOL    HW184018  10.557  -0.006   7.231 -2.0174  2.1393  1.0142
27337SOL    HW284019  10.642   0.091   7.153  0.0109 -0.0547  0.3694
27338SOL     OW84020  10.871  11.200   1.390  0.0438 -0.4946  0.1462
27338SOL    HW184021  10.812  11.171   1.321  0.2054  1.3612 -0.8615
27338SOL    HW284022  10.831  11.282   1.422  4.0659  3.6484 -3.8271
27339SOL     OW84023   9.679   9.532   6.755  0.1300  0.4660  0.3491
27339SOL    HW184024   9.596   9.566   6.720 -0.1748 -1.4818 -0.9963
27339SOL    HW284025   9.659   9.443   6.781  1.4902  0.4374  1.3645
27340SOL     OW84026   5.353   7.229   8.507 -0.3167  0.3917  0.1559
27340SOL    HW184027   5.447   7.215   8.500 -0.0985  0.9823  1.5724
27340SOL    HW284028   5.314   7.144   8.485  0.4135  0.6590 -2.4074
27341SOL     OW84029   8.184  10.760   7.561  0.4639 -0.4831 -0.1239
27341SOL    HW184030   8.147  10.801   7.483 -0.6158 -1.1752  0.0065
27341SOL    HW284031   8.278  10.779   7.556 -0.0061  2.4395  0.1796
27342SOL     OW84032   9.753   9.373  11.153 -0.0230  0.1815  0.0322
27342SOL    HW184033   9.706   9.328  11.223 -2.2559  2.1163 -0.0561
27342SOL    HW284034   9.755   9.311  11.081  1.3461 -1.4525  1.4115
27343SOL     OW84035   7.218   1.377   8.671 -0.0025 -0.2914 -0.6579
27343SOL    HW184036   7.217   1.392   8.577  1.6840 -2.0165 -1.0028
27343SOL    HW284037   7.267   1.450   8.708 -2.9562  1.9126 -0.6940
27344SOL     OW84038   9.548   1.542   9.790 -0.0807 -0.2649  0.3397
27344SOL    HW184039   9.531   1.465   9.735  0.9906 -0.3375  0.0749
27344SOL    HW284040   9.550   1.508   9.880 -2.7701  0.0038  0.5918
27345SOL     OW84041   3.006   2.062  10.694  0.4434 -0.1487  0.3159
27345SOL    HW184042   3.066   2.053  10.620  0.4096 -0.6838  0.3486
27345SOL    HW284043   2.922   2.086  10.654  0.9189  1.7115  0.3492
27346SOL     OW84044   1.485   5.555   6.658 -0.0489  0.5630 -0.4943
27346SOL    HW184045   1.486   5.516   6.570 -0.4754 -1.3412  0.3026
27346SOL    HW284046   1.577   5.554   6.685 -0.1920 -1.5120  0.1342
27347SOL     OW84047   6.968   9.338  10.344  0.0325  0.0012  0.4233
27347SOL    HW184048   6.928   9.417  10.307  1.0763  0.3859  0.0773
27347SOL    HW284049   7.026   9.370  10.413 -0.2684 -0.5477  0.9421
27348SOL     OW84050   9.330   2.842  10.147  0.1438  0.6677 -0.4912
27348SOL    HW184051   9.319   2.777  10.078  0.7521 -0.2594  0.2595
27348SOL    HW284052   9.337   2.925  10.101  0.3510  0.0882 -1.5308
27349SOL     OW84053   4.092   0.001   7.840  0.2700 -0.1819  0.0059
27349SOL    HW184054   4.055   0.088   7.856 -1.1751 -0.5977 -0.8781
27349SOL    HW284055   4.131   0.007   7.753 -0.8220 -0.6933 -0.5432
27350SOL     OW84056   3.723   2.279   9.591 -0.2763 -0.4438 -0.4508
27350SOL    HW184057   3.781   2.296   9.517  1.7147 -0.3101  1.0547
27350SOL    HW284058   3.684   2.364   9.610  0.8155 -0.0014 -0.0820
27351SOL     OW84059   4.454   0.103   9.545 -0.1855  0.1577 -0.2396
27351SOL    HW184060   4.403   0.180   9.521 -3.2275 -2.2689 -2.3247
27351SOL    HW284061   4.515   0.092   9.472  1.2985  1.2974  0.7636
27352SOL     OW84062  10.382   5.131   9.676 -0.3051  0.4338 -0.1882
27352SOL    HW184063  10.400   5.109   9.584  0.8196  0.5249 -0.0131
27352SOL    HW284064  10.395   5.226   9.680  0.6665  0.2933  0.2668
27353SOL     OW84065   4.457   5.788   4.336 -0.7368 -0.6868  0.2202
27353SOL    HW184066   4.446   5.756   4.246  0.9578 -2.8573  0.7059
27353SOL    HW284067   4.375   5.766   4.380 -0.8309 -1.4273 -0.3085
27354SOL     OW84068   5.867   4.616   8.391  0.7537  0.3430  0.5784
27354SOL    HW184069   5.921   4.694   8.378  0.3264  1.1543  3.0348
27354SOL    HW284070   5.836   4.624   8.482 -1.3161 -1.4404  0.1052
27355SOL     OW84071   9.330  11.158   3.072 -0.2879  0.2867  0.1414
27355SOL    HW184072   9.389  11.133   3.001 -1.1509 -1.5927  0.0140
27355SOL    HW284073   9.296  11.244   3.046  0.3360  0.1765 -1.1213
27356SOL     OW84074  10.369  10.068   4.644 -0.5341 -0.2852 -0.4607
27356SOL    HW184075  10.464  10.068   4.639 -0.4374  1.0701  0.6423
27356SOL    HW284076  10.347   9.989   4.694 -0.0994 -1.2257 -1.7018
27357SOL     OW84077   3.565   9.844   8.190  0.2097 -0.3447 -0.2632
27357SOL    HW184078   3.632   9.782   8.164 -0.3498 -0.8449 -0.5307
27357SOL    HW284079   3.589   9.869   8.279  0.9940 -0.1765 -0.5177
27358SOL     OW84080   0.509  11.102   0.399 -0.3510  0.1941 -0.2111
27358SOL    HW184081   0.519  11.189   0.362 -0.6219  0.4854  0.3906
27358SOL    HW284082   0.485  11.117   0.490 -0.7187 -0.5056 -0.1833
27359SOL     OW84083   9.177   9.601   5.132  0.1714 -0.3873  0.3992
27359SOL    HW184084   9.176   9.695   5.151 -2.0940 -0.2320 -0.1450
27359SOL    HW284085   9.175   9.595   5.037 -1.7393 -0.8931  0.4185
27360SOL     OW84086   9.821   2.989   7.607 -0.2605  0.2509 -0.4935
27360SOL    HW184087   9.842   3.070   7.655  0.1827  0.0543 -0.3479
27360SOL    HW284088   9.864   3.001   7.522  2.0991 -0.9339  0.4503
27361SOL     OW84089   4.934  10.025   2.233 -0.2132 -0.1050 -0.5845
27361SOL    HW184090   4.887  10.105   2.259  2.5366  0.6792  2.7874
27361SOL    HW284091   4.887   9.954   2.276 -0.5164  0.1758 -0.4526
27362SOL     OW84092   3.993   5.931   7.333  0.0255 -0.0874 -0.0105
27362SOL    HW184093   3.977   6.024   7.318 -0.1714  0.2136  1.8382
27362SOL    HW284094   4.010   5.895   7.246  0.9343  1.8264 -0.6785
27363SOL     OW84095   2.058   9.915   0.604 -0.1819 -0.1850  0.6952
27363SOL    HW184096   2.091   9.935   0.517  0.3483  0.8464  1.1087
27363SOL    HW284097   1.963   9.907   0.593  0.1386 -3.5211 -0.5742
27364SOL     OW84098  10.793   3.310  10.937  0.1506 -0.0643 -0.0453
27364SOL    HW184099  10.709   3.301  10.893 -0.4990 -1.1048  1.3307
27364SOL    HW284100  10.785   3.389  10.989  0.2715  0.1906 -0.4088
27365SOL     OW84101   3.006   2.175   4.330 -0.2905 -0.1339  0.0442
27365SOL    HW184102   2.928   2.120   4.329 -0.6233  0.3264  0.5125
27365SOL    HW284103   2.976   2.260   4.362  0.3104  0.1865 -0.2210
27366SOL     OW84104   4.053   0.989   2.036  0.0583 -0.8689 -0.2539
27366SOL    HW184105   4.056   1.051   1.963  2.4461 -0.6103 -0.0106
27366SOL    HW284106   4.070   1.042   2.113 -1.1335 -1.3630  0.3824
27367SOL     OW84107   7.907  11.010   7.932 -0.1357  0.2754 -0.2390
27367SOL    HW184108   7.882  10.928   7.975  0.7110 -0.7075 -1.5564
27367SOL    HW284109   8.000  10.999   7.911 -0.4047  0.8913 -1.9023
27368SOL     OW84110   8.810   8.759   1.874  0.4816  0.2380  0.3502
27368SOL    HW184111   8.723   8.795   1.889  0.6934  0.3360  1.4060
27368SOL    HW284112   8.794   8.670   1.841 -0.0771 -0.9786  3.5685
27369SOL     OW84113   9.662  10.117   4.182 -0.4253  0.0498 -0.0099
27369SOL    HW184114   9.701  10.096   4.097 -0.6435 -1.1805  0.1815
27369SOL    HW284115   9.571  10.090   4.174 -0.1801 -1.1585  0.9789
27370SOL     OW84116   8.515   2.391   1.331  0.2533 -0.2211 -0.1316
27370SOL    HW184117   8.484   2.391   1.241 -1.2457 -0.7740  0.3557
27370SOL    HW284118   8.609   2.409   1.324  0.1967 -0.4201 -1.7974
27371SOL     OW84119   9.088   2.037   6.181 -0.2561  0.3364  0.1250
27371SOL    HW184120   9.060   1.953   6.218 -0.8324 -0.1652 -1.3705
27371SOL    HW284121   9.159   2.015   6.121  1.2648  1.2417  1.5192
27372SOL     OW84122  10.645   7.405   1.722 -0.1343 -0.5791 -0.3050
27372SOL    HW184123  10.645   7.499   1.700 -0.7761 -0.4131  0.3635
27372SOL    HW284124  10.558   7.389   1.758  0.5129 -1.0788  1.1059
27373SOL     OW84125   5.020   3.157   6.122 -0.1905 -0.5938 -0.3620
27373SOL    HW184126   5.105   3.156   6.165 -0.2184 -2.7231 -0.2479
27373SOL    HW284127   4.957   3.149   6.194 -0.2467 -3.8756 -0.6002
27374SOL     OW84128   9.843   4.324   5.875  0.0123 -0.1794 -0.3937
27374SOL    HW184129   9.884   4.245   5.912 -0.7624 -0.5717 -0.3498
27374SOL    HW284130   9.754   4.323   5.911 -0.8144 -0.6325 -2.3261
27375SOL     OW84131   8.241   8.920  10.927  0.4060 -0.1316  0.3107
27375SOL    HW184132   8.146   8.927  10.923  0.3308 -0.5502  1.1350
27375SOL    HW284133   8.270   9.000  10.971  0.4711  0.1654 -0.2630
27376SOL     OW84134   2.075   9.346  10.536  0.4580  0.2485 -0.1053
27376SOL    HW184135   2.077   9.294  10.617  0.8127  0.4802  0.0370
27376SOL    HW284136   2.015   9.418  10.556  1.9931  1.3782  0.6248
27377SOL     OW84137  10.693  10.498   9.163 -0.4341  0.0112 -0.2666
27377SOL    HW184138  10.620  10.438   9.150 -0.8998  0.4340  0.3443
27377SOL    HW284139  10.729  10.475   9.249 -0.4029  0.3793 -0.1780
27378SOL     OW84140   6.968   0.628  10.642 -0.8334 -0.1888  0.4093
27378SOL    HW184141   7.055   0.669  10.637 -0.2674 -1.4208 -0.7116
27378SOL    HW284142   6.963   0.575  10.562 -1.6476 -2.0143  1.6167
27379SOL     OW84143   7.527   8.091   3.553 -0.0473  0.1408  0.0901
27379SOL    HW184144   7.530   8.012   3.606  1.0486 -0.4417 -0.7950
27379SOL    HW284145   7.589   8.151   3.594 -0.9842  0.6216  0.8450
27380SOL     OW84146   9.608   5.787   1.569  1.0254  0.6223  0.3986
27380SOL    HW184147   9.614   5.717   1.504 -0.3973 -0.9306  1.8410
27380SOL    HW284148   9.528   5.833   1.546 -0.0942 -0.6234  1.6194
27381SOL     OW84149   8.796   1.561   6.252 -0.7659  0.0798  0.1794
27381SOL    HW184150   8.715   1.586   6.295  1.0847 -0.3675  4.4373
27381SOL    HW284151   8.797   1.465   6.256 -0.5379  0.0160 -0.9809
27382SOL     OW84152   3.622  10.707   0.312 -0.1684  0.3703 -0.3244
27382SOL    HW184153   3.581  10.629   0.275 -0.1344  0.1295  0.1397
27382SOL    HW284154   3.710  10.708   0.275  0.8262 -1.3490  1.7334
27383SOL     OW84155   7.261  10.439  10.752  0.2697 -0.3882  0.1260
27383SOL    HW184156   7.267  10.361  10.697  0.9910 -1.6606  1.8950
27383SOL    HW284157   7.270  10.406  10.841  1.5087  1.8177  0.8986
27384SOL     OW84158  10.067   5.603   5.496  0.1491  1.0652  0.6877
27384SOL    HW184159  10.058   5.690   5.535 -1.3903  0.8640  0.8408
27384SOL    HW284160  10.021   5.609   5.413 -1.0781  0.0692  1.2588
27385SOL     OW84161   0.987   4.962   7.001  0.7501  0.1104  0.3201
27385SOL    HW184162   0.952   5.033   7.056 -4.6013 -1.6372 -0.1910
27385SOL    HW284163   0.966   4.882   7.049  1.4160 -1.2843 -1.5714
27386SOL     OW84164  10.957   8.949   4.711  0.1801  0.0306  1.1222
27386SOL    HW184165  10.884   8.992   4.667  1.5325  1.1662 -0.1222
27386SOL    HW284166  10.924   8.862   4.734 -1.8104  0.7987  1.3824
27387SOL     OW84167   6.976   7.440  11.015  0.1975  0.2129  0.1294
27387SOL    HW184168   6.894   7.393  11.002  1.7370 -2.6582  0.0530
27387SOL    HW284169   7.023   7.430  10.933  2.1238 -1.5286  1.3420
27388SOL     OW84170   1.599   2.528  11.003  0.4773 -0.1922  0.7153
27388SOL    HW184171   1.635   2.474  10.932  0.7131 -1.3975  1.7226
27388SOL    HW284172   1.554   2.466  11.060 -0.7033  0.9191  1.0299
27389SOL     OW84173   3.542   3.951   8.711 -0.4884 -0.3614  0.0441
27389SOL    HW184174   3.623   3.933   8.759 -0.0855  2.5793  0.6084
27389SOL    HW284175   3.568   3.951   8.619 -0.7449 -3.3342 -0.1533
27390SOL     OW84176   8.960   9.466   6.362  0.0466 -0.2189  0.1575
27390SOL    HW184177   9.031   9.526   6.338 -1.5629  0.5084 -3.3860
27390SOL    HW284178   8.970   9.392   6.302 -0.8698 -1.2175  1.1891
27391SOL     OW84179   7.411   2.114   1.020 -0.0935  0.1299  0.1932
27391SOL    HW184180   7.444   2.101   1.109 -0.3274 -0.6413  0.1675
27391SOL    HW284181   7.353   2.040   1.004  0.9527 -0.4493 -1.0776
27392SOL     OW84182   0.283   3.455   1.701 -0.3661  0.3961  0.0972
27392SOL    HW184183   0.286   3.359   1.706  1.2887  0.1109 -3.2152
27392SOL    HW284184   0.195   3.475   1.671 -0.8211 -0.0289  1.1041
27393SOL     OW84185   7.197   1.903   9.306 -0.3296 -0.2409 -0.1319
27393SOL    HW184186   7.162   1.991   9.317 -1.3141 -0.5228 -0.9168
27393SOL    HW284187   7.223   1.876   9.394 -0.2168  0.7425  0.1442
27394SOL     OW84188   4.204   3.916   9.448  0.0219 -0.3040  0.1120
27394SOL    HW184189   4.250   3.832   9.455 -0.5834 -0.6437  0.1587
27394SOL    HW284190   4.188   3.942   9.539  3.1944  1.5970  0.2536
27395SOL     OW84191   2.656   9.804   4.720 -0.2201  0.2173  0.1063
27395SOL    HW184192   2.696   9.890   4.732  2.2870 -0.8544  0.0295
27395SOL    HW284193   2.629   9.802   4.628 -1.8320  1.4646  0.5070
27396SOL     OW84194   5.512   7.724   9.705 -0.1311 -0.1533 -0.0642
27396SOL    HW184195   5.422   7.756   9.702  0.8749  2.8745 -1.3866
27396SOL    HW284196   5.550   7.766   9.783  0.8422  0.8353 -1.0338
27397SOL     OW84197   4.460  11.239   3.522  0.1624 -0.2950 -0.6809
27397SOL    HW184198   4.511  11.227   3.442  2.1455 -1.0572  0.6356
27397SOL    HW284199   4.496  11.317   3.562 -1.3390  0.5293 -0.8504
27398SOL     OW84200   3.101   2.560   3.814  0.2920  0.3936 -0.2847
27398SOL    HW184201   3.068   2.495   3.752 -2.3804  0.3967  0.9708
27398SOL    HW284202   3.137   2.508   3.886  1.7217  0.3751 -0.9939
27399SOL     OW84203  10.450   4.789   4.507  0.0815  0.6632 -0.0455
27399SOL    HW184204  10.527   4.846   4.510 -1.0076  2.1313  1.2601
27399SOL    HW284205  10.422   4.792   4.415  0.8165  1.1364 -0.2688
27400SOL     OW84206   0.765   6.937   0.836  0.2713  0.5219 -0.2738
27400SOL    HW184207   0.688   6.929   0.892  0.4972 -0.4659 -0.0914
27400SOL    HW284208   0.772   6.853   0.791  2.0698  0.0287  0.7958
27401SOL     OW84209   3.380   8.592   7.801  0.2060  0.1567 -0.2010
27401SOL    HW184210   3.352   8.585   7.710 -1.6119  1.7625  0.1718
27401SOL    HW284211   3.301   8.616   7.850  1.4845  1.2049  1.5026
27402SOL     OW84212   1.516   0.722   8.222 -0.0594 -0.3893  0.0854
27402SOL    HW184213   1.512   0.741   8.128  0.9103  0.7895  0.2661
27402SOL    HW284214   1.538   0.629   8.226  0.0585 -0.4126 -0.8520
27403SOL     OW84215   9.685   7.470   8.789  0.2280  0.5138  0.3151
27403SOL    HW184216   9.617   7.530   8.760 -0.5102 -1.0837 -1.4551
27403SOL    HW284217   9.694   7.407   8.718  2.6363 -0.1180  1.0754
27404SOL     OW84218   7.557   1.357   8.368 -0.4169  0.4934  0.1296
27404SOL    HW184219   7.542   1.410   8.447 -1.4430  0.9759 -0.3680
27404SOL    HW284220   7.607   1.415   8.311  1.1190 -0.1685  0.7373
27405SOL     OW84221  10.466  10.737  11.272  0.0150 -0.0878  0.0402
27405SOL    HW184222  10.419  10.665  11.230 -1.0951  0.7761 -0.2632
27405SOL    HW284223  10.465  10.716  11.365 -1.3428  0.0908  0.0843
27406SOL     OW84224   2.836   1.414   7.781 -0.0118  0.2236 -0.5292
27406SOL    HW184225   2.882   1.367   7.711 -1.7429  1.5289 -2.6838
27406SOL    HW284226   2.888   1.492   7.796  0.7464 -0.4079  0.1727
27407SOL     OW84227   3.282   7.353   8.105 -0.6204  0.3766  0.1722
27407SOL    HW184228   3.336   7.418   8.060  2.6797 -2.1977  0.0838
27407SOL    HW284229   3.310   7.357   8.196 -1.3105 -0.0818  0.4158
27408SOL     OW84230   8.895  11.038   3.210  0.1602 -0.1258 -0.0908
27408SOL    HW184231   8.854  10.963   3.167  1.0141 -0.8806  0.3735
27408SOL    HW284232   8.943  11.082   3.140  0.5105 -0.6225 -0.1698
27409SOL     OW84233  11.186   1.759   1.268  0.3713  0.4478  0.6441
27409SOL    HW184234  11.097   1.793   1.281  0.2001  0.0820  0.4690
27409SOL    HW284235  11.200   1.763   1.174  0.2731 -0.1326  0.5982
27410SOL     OW84236   8.619   9.491   5.363  0.2461  0.2057 -0.2118
27410SOL    HW184237   8.528   9.509   5.386  0.3672  1.0662 -0.3794
27410SOL    HW284238   8.659   9.577   5.355  0.5909 -0.0783 -2.0649
27411SOL     OW84239   0.095   6.530   3.769  0.4622 -0.0435  0.4124
27411SOL    HW184240   0.121   6.438   3.759 -2.0346 -0.7171 -0.8844
27411SOL    HW284241   0.067   6.538   3.860 -0.2207 -0.8752  0.2909
27412SOL     OW84242   0.563   9.301   3.281  0.1084 -0.7796 -0.0978
27412SOL    HW184243   0.535   9.253   3.204  0.5715 -1.2138 -0.0032
27412SOL    HW284244   0.485   9.347   3.311  0.3479  0.9571 -1.9365
27413SOL     OW84245  10.253   0.784  11.106 -0.6966  0.3171 -0.1009
27413SOL    HW184246  10.312   0.760  11.178 -1.0604 -0.5524 -0.0814
27413SOL    HW284247  10.264   0.879  11.097  2.0188 -0.0103 -1.2709
27414SOL     OW84248   1.115   7.707   4.830 -0.0237 -0.6599 -0.3094
27414SOL    HW184249   1.146   7.725   4.919 -3.2573 -1.8009  1.2053
27414SOL    HW284250   1.151   7.621   4.809  1.5130  0.0086 -0.5483
27415SOL     OW84251   9.166   1.054   9.395 -0.4858 -0.1085 -0.2954
27415SOL    HW184252   9.246   1.051   9.343 -0.8975  0.9967 -1.0155
27415SOL    HW284253   9.132   1.142   9.383 -1.4854 -0.3585  0.5139
27416SOL     OW84254   5.543   1.247  10.606  0.4924  0.5164  0.0923
27416SOL    HW184255   5.556   1.173  10.664  1.5975  0.4392 -0.2289
27416SOL    HW284256   5.625   1.254  10.557 -0.2590  0.8361 -1.1622
27417SOL     OW84257   9.350   4.534   2.552 -0.2910  0.1401  0.1194
27417SOL    HW184258   9.350   4.572   2.465  1.1090  0.5334  0.2708
27417SOL    HW284259   9.334   4.608   2.611 -0.5518 -0.0049  0.2302
27418SOL     OW84260   5.175   2.848  10.952  0.0308  0.0262  0.0194
27418SOL    HW184261   5.241   2.887  11.009 -1.2778  0.5716  1.2130
27418SOL    HW284262   5.117   2.801  11.012 -1.2754  0.4479 -0.8756
27419SOL     OW84263   8.828   6.765   8.426  0.2679  0.3382  0.0683
27419SOL    HW184264   8.885   6.704   8.472 -1.0724 -1.2061 -0.2088
27419SOL    HW284265   8.825   6.732   8.336 -0.9070  0.4660  0.0399
27420SOL     OW84266   5.139   1.220   4.740  0.5655  0.5130 -0.2547
27420SOL    HW184267   5.094   1.279   4.679 -0.1344  2.0492  1.6236
27420SOL    HW284268   5.202   1.276   4.785 -1.0455  0.2184  2.5418
27421SOL     OW84269  10.098   5.201   4.510 -0.1880 -0.3344 -0.5114
27421SOL    HW184270  10.166   5.266   4.527  0.7356 -1.1626 -0.9146
27421SOL    HW284271  10.078   5.164   4.596 -0.8000  0.5348 -0.2636
27422SOL     OW84272   8.095   6.641   2.673  0.2818  0.2030  0.2027
27422SOL    HW184273   8.172   6.599   2.636 -0.1210  0.2041 -0.6837
27422SOL    HW284274   8.031   6.640   2.601  0.1633  2.0679  0.2288
27423SOL     OW84275   8.077   8.593  10.201  0.3250 -0.4709  0.6031
27423SOL    HW184276   8.125   8.583  10.118 -1.2804  0.2343 -0.4521
27423SOL    HW284277   7.985   8.584  10.177 -0.2914  1.4714  2.0137
27424SOL     OW84278   0.583   3.732   1.312  0.4212 -0.4417  0.8240
27424SOL    HW184279   0.596   3.638   1.300 -0.4795 -0.3800 -0.9004
27424SOL    HW284280   0.491   3.741   1.337  0.7509 -0.0702  1.9761
27425SOL     OW84281   0.199   7.405   6.421  0.5076 -0.5315  0.2969
27425SOL    HW184282   0.269   7.347   6.393 -2.1421 -3.1268 -1.6108
27425SOL    HW284283   0.168   7.447   6.341 -1.6120 -1.3698  0.5946
27426SOL     OW84284   1.163   4.221   5.416 -0.2941  0.4629 -0.3791
27426SOL    HW184285   1.212   4.253   5.491  0.1993 -0.8928 -0.0945
27426SOL    HW284286   1.158   4.296   5.357  1.3174  0.9115 -0.0044
27427SOL     OW84287   3.162   9.677   3.277 -0.4588 -0.5252  0.1967
27427SOL    HW184288   3.216   9.693   3.355 -0.2006  0.1499 -0.1107
27427SOL    HW284289   3.220   9.634   3.215  0.1552  1.3917 -0.6360
27428SOL     OW84290   3.238   5.533   4.174  0.4447 -0.4832 -0.2157
27428SOL    HW184291   3.232   5.535   4.270 -1.8767 -2.8358 -0.2026
27428SOL    HW284292   3.265   5.444   4.154 -0.9944 -0.6032 -1.7779
27429SOL     OW84293   8.257   8.027   7.293 -0.2611 -0.7830 -0.0630
27429SOL    HW184294   8.194   8.091   7.260  1.9498  0.7265 -1.6582
27429SOL    HW284295   8.286   8.064   7.377 -0.3617 -0.6671 -0.0782
27430SOL     OW84296  10.042  10.842   7.255  0.3898 -0.0138 -0.8751
27430SOL    HW184297  10.049  10.842   7.159 -0.7249 -1.5989 -0.9943
27430SOL    HW284298  10.068  10.754   7.281  0.4516  0.3272  0.2729
27431SOL     OW84299   0.648   9.630   9.879 -0.2792 -0.2236 -0.5022
27431SOL    HW184300   0.592   9.647   9.804  2.2912  0.5393 -2.3961
27431SOL    HW284301   0.728   9.593   9.842  0.6555 -0.9218  1.9909
27432SOL     OW84302   8.758   1.383   4.715 -0.5912  0.5445 -0.0633
27432SOL    HW184303   8.787   1.464   4.673  1.1584  1.2580  2.3512
27432SOL    HW284304   8.793   1.313   4.660  1.1136  1.4448 -0.1833
27433SOL     OW84305  10.561   7.261   0.215  0.0258 -0.6246 -0.2506
27433SOL    HW184306  10.593   7.282   0.128 -0.2385  0.8899 -0.0135
27433SOL    HW284307  10.478   7.308   0.222  0.3470 -0.1933  1.0351
27434SOL     OW84308   3.752   9.232   7.758  0.0911  0.5548 -0.2362
27434SOL    HW184309   3.680   9.257   7.700  0.5511 -0.0474 -1.0904
27434SOL    HW284310   3.772   9.142   7.734 -0.2307  0.0248  1.4203
27435SOL     OW84311  10.104   8.844   3.540  0.3483  0.1922 -0.0151
27435SOL    HW184312  10.028   8.816   3.591 -1.0519  1.4498 -1.3304
27435SOL    HW284313  10.139   8.918   3.589  0.1605  0.2031  0.1059
27436SOL     OW84314   7.308   2.869   8.828  0.8704  0.1440 -0.3942
27436SOL    HW184315   7.399   2.897   8.822  0.6416  1.0738  0.3068
27436SOL    HW284316   7.284   2.882   8.920 -0.3528  1.1526 -0.8236
27437SOL     OW84317   2.274   7.967   9.665 -0.3872  0.0866  0.2577
27437SOL    HW184318   2.312   8.029   9.603 -2.9818  0.9286 -0.6397
27437SOL    HW284319   2.305   7.996   9.750  1.5673  0.1958 -0.4512
27438SOL     OW84320   4.916   9.596   6.184 -0.3786 -0.7130  0.4053
27438SOL    HW184321   4.996   9.627   6.225 -2.2176  4.3496  0.8367
27438SOL    HW284322   4.940   9.585   6.092  0.3354  4.4831 -0.3433
27439SOL     OW84323   4.202   5.703   5.066 -0.0910 -0.1423 -0.3077
27439SOL    HW184324   4.195   5.712   4.971  3.5612  0.2746 -0.6744
27439SOL    HW284325   4.251   5.780   5.094  2.4420 -2.1452  1.2816
27440SOL     OW84326   1.741   2.738   0.270 -0.6375  0.1911  1.1228
27440SOL    HW184327   1.801   2.709   0.339  0.4207  2.4716  1.2259
27440SOL    HW284328   1.722   2.829   0.292 -0.4653  0.9161 -1.4766
27441SOL     OW84329   5.436   1.206   6.247 -1.1126  0.1925  0.1035
27441SOL    HW184330   5.385   1.127   6.265 -0.6524 -0.6248 -1.9255
27441SOL    HW284331   5.388   1.251   6.178 -1.1902  1.5439  1.0063
27442SOL     OW84332   9.364   6.237   0.493 -0.3438  0.3409 -0.1906
27442SOL    HW184333   9.436   6.260   0.434 -1.1566  0.7794 -1.0460
27442SOL    HW284334   9.386   6.279   0.575 -0.1920  1.4753 -0.7929
27443SOL     OW84335   6.466   8.191   1.839 -0.5879 -0.6688  0.0593
27443SOL    HW184336   6.519   8.263   1.874 -1.6026  0.1295  0.0345
27443SOL    HW284337   6.438   8.143   1.917 -0.6923 -0.4480  0.1623
27444SOL     OW84338   3.990   7.388   5.650 -0.4552 -0.0422  0.0453
27444SOL    HW184339   4.040   7.374   5.570  0.0074 -1.1392  0.5020
27444SOL    HW284340   3.903   7.351   5.632 -1.6038  2.9948 -1.1915
27445SOL     OW84341   4.902  10.955  10.714  0.0486 -0.1224 -0.2021
27445SOL    HW184342   4.923  10.870  10.676  0.3676  0.0791 -0.4717
27445SOL    HW284343   4.982  10.982  10.759  0.6782  1.0333 -1.9342
27446SOL     OW84344   4.172   0.216   2.561  0.0337 -0.2187  0.5504
27446SOL    HW184345   4.214   0.132   2.542 -2.3533 -1.0779 -1.7015
27446SOL    HW284346   4.081   0.192   2.582 -0.2601  1.7181  1.6650
27447SOL     OW84347   5.518   4.324   1.280 -0.7304  0.4312  0.3524
27447SOL    HW184348   5.601   4.299   1.321 -0.6472  1.0339  0.5636
27447SOL    HW284349   5.477   4.383   1.344 -1.6800 -0.4564  0.6056
27448SOL     OW84350   5.319   4.962  11.194  0.0756  0.4412  0.0366
27448SOL    HW184351   5.322   5.046  11.240  1.6761 -0.5752  1.9816
27448SOL    HW284352   5.410   4.931  11.195 -0.6499 -1.9075  0.6048
27449SOL     OW84353   2.755   7.458   3.308  0.0785  0.4040  0.1591
27449SOL    HW184354   2.827   7.472   3.246  0.3133 -1.1689  0.0248
27449SOL    HW284355   2.799   7.433   3.390 -0.2312  2.3738  0.9866
27450SOL     OW84356   7.771   3.388   6.598  0.1919 -0.1042 -0.2259
27450SOL    HW184357   7.752   3.306   6.643 -1.1148  1.3697  2.1144
27450SOL    HW284358   7.857   3.415   6.630 -0.1000  0.2187  0.3108
27451SOL     OW84359   7.942   1.526   8.953  0.0367 -0.1243  0.1381
27451SOL    HW184360   7.892   1.492   9.027  0.1450 -1.1063 -0.2323
27451SOL    HW284361   8.000   1.454   8.927 -1.6723 -0.7256 -2.4174
27452SOL     OW84362   9.890   1.120   9.312 -0.3656  0.0490  0.3500
27452SOL    HW184363   9.938   1.179   9.370  1.7123 -0.0520 -1.1500
27452SOL    HW284364   9.876   1.171   9.232 -0.8787 -0.6397 -0.0108
27453SOL     OW84365   8.921   3.760  10.671  0.1450 -0.2168  0.2166
27453SOL    HW184366   8.889   3.712  10.748  0.8583 -1.2838 -0.1338
27453SOL    HW284367   8.964   3.694  10.618 -1.9160  0.1019 -2.0265
27454SOL     OW84368   6.910   9.392   6.921  0.3256 -0.5527  0.5029
27454SOL    HW184369   6.899   9.487   6.929 -0.0563 -0.5348 -0.0952
27454SOL    HW284370   6.989   9.372   6.971  0.6854  0.1501  0.2329
27455SOL     OW84371   0.880   0.304   9.190 -0.3196  0.0438 -0.3983
27455SOL    HW184372   0.878   0.208   9.194  1.8318 -0.0193  1.7190
27455SOL    HW284373   0.876   0.331   9.282  1.1832  1.8609 -0.8271
27456SOL     OW84374   5.585   2.666   4.367  0.2755  0.3076 -0.0589
27456SOL    HW184375   5.594   2.713   4.450 -2.8444 -0.3871  0.8079
27456SOL    HW284376   5.595   2.574   4.390  1.6243  0.2093 -0.9176
27457SOL     OW84377   3.584   1.719   0.920  0.0494 -0.0762  0.0092
27457SOL    HW184378   3.602   1.729   0.827 -0.4401  1.1566  0.0317
27457SOL    HW284379   3.529   1.793   0.943 -1.6461 -1.5173  0.8420
27458SOL     OW84380   3.679   0.777   5.326 -0.1205 -0.0464 -0.8725
27458SOL    HW184381   3.627   0.791   5.405 -0.2611 -1.3432 -0.7096
27458SOL    HW284382   3.630   0.712   5.276  1.6508 -1.8914 -0.3665
27459SOL     OW84383   1.763   4.754   6.889 -0.1453 -0.3014 -0.0651
27459SOL    HW184384   1.753   4.774   6.796  2.2161 -0.4289 -0.4212
27459SOL    HW284385   1.770   4.659   6.893  1.9324 -0.2109 -0.1114
27460SOL     OW84386   7.771   3.840   0.226  0.2064 -0.0338  0.5103
27460SOL    HW184387   7.828   3.816   0.154  0.7197  1.1058  0.5161
27460SOL    HW284388   7.720   3.761   0.244 -0.6175 -0.0820 -1.7116
27461SOL     OW84389   9.620   9.172  10.102  0.2865 -0.1018  0.1570
27461SOL    HW184390   9.685   9.238  10.128  1.1430 -0.8270 -0.1016
27461SOL    HW284391   9.553   9.222  10.054  1.4817  0.4427 -1.0011
27462SOL     OW84392   5.823   9.715   8.019  0.3823  0.0703  0.2982
27462SOL    HW184393   5.748   9.766   7.989  1.8408  1.0636 -1.9723
27462SOL    HW284394   5.812   9.629   7.978  0.3390  0.1390  0.1658
27463SOL     OW84395  10.232   8.018  10.014 -0.1289  0.0081  0.4941
27463SOL    HW184396  10.261   7.933   9.980  0.6977 -0.6323  2.6805
27463SOL    HW284397  10.137   8.014  10.011 -0.1525  0.3721 -2.5319
27464SOL     OW84398   1.598   1.298   6.060  0.8129  0.0702 -0.3110
27464SOL    HW184399   1.573   1.235   5.992  1.4890 -0.4092 -0.1250
27464SOL    HW284400   1.615   1.244   6.138  1.7151  0.4503 -0.2366
27465SOL     OW84401   3.474   4.645   2.374 -0.5250  0.4274 -0.0428
27465SOL    HW184402   3.535   4.598   2.319 -0.0264  1.7723 -0.6785
27465SOL    HW284403   3.410   4.683   2.313 -0.5167  1.1384  0.3783
27466SOL     OW84404  10.637   9.193   7.328 -0.1893 -0.1049 -0.2532
27466SOL    HW184405  10.684   9.251   7.267  1.2390 -2.0453 -1.0852
27466SOL    HW284406  10.546   9.223   7.323  0.2811  1.2452 -1.6182
27467SOL     OW84407   8.591   2.513   4.141 -0.3990 -0.0171  0.2442
27467SOL    HW184408   8.519   2.564   4.176  0.4882  0.5241  1.3677
27467SOL    HW284409   8.670   2.553   4.178  0.3544 -2.0426  1.0381
27468SOL     OW84410   5.434   2.720   1.309  0.1884 -0.4989  0.1256
27468SOL    HW184411   5.511   2.694   1.258  1.1712  2.2355  0.0875
27468SOL    HW284412   5.379   2.768   1.247  0.4550  1.1376  1.1006
27469SOL     OW84413   6.564   4.356   3.310  0.4884 -0.2612 -0.0384
27469SOL    HW184414   6.640   4.404   3.342  0.0611  0.9670 -0.7634
27469SOL    HW284415   6.600   4.284   3.259  1.1607 -1.4841  2.0657
27470SOL     OW84416   4.637  10.729   1.549 -0.0650  0.1393  0.5394
27470SOL    HW184417   4.641  10.793   1.478 -0.6489  0.8825  1.1596
27470SOL    HW284418   4.721  10.738   1.594  0.7001 -1.0033 -0.6019
27471SOL     OW84419   6.765   8.109   0.841 -0.2787 -0.1951  0.3078
27471SOL    HW184420   6.762   8.099   0.936 -1.7448 -0.2821  0.2645
27471SOL    HW284421   6.788   8.022   0.808 -2.9134 -1.0022  0.4448
27472SOL     OW84422   9.108   5.164   1.464 -0.1804 -0.7249 -0.6914
27472SOL    HW184423   9.096   5.223   1.389 -0.0415 -1.1773 -1.0735
27472SOL    HW284424   9.128   5.222   1.537 -1.5371 -0.1807 -0.7211
27473SOL     OW84425   1.811   6.092   7.718  0.0816  0.0968  0.4319
27473SOL    HW184426   1.824   6.097   7.813 -1.6393  0.7927  0.6802
27473SOL    HW284427   1.754   6.167   7.698 -0.8697 -0.9327 -0.8835
27474SOL     OW84428   3.778   5.620   7.158 -0.1804 -0.2821  0.0255
27474SOL    HW184429   3.777   5.525   7.149 -0.6712 -0.2643 -0.1179
27474SOL    HW284430   3.688   5.647   7.142 -0.0459  0.2083  0.0721
27475SOL     OW84431   4.217   3.182   0.067  1.0819  0.1567 -0.1477
27475SOL    HW184432   4.206   3.239  -0.009  0.5497  1.0224  0.5596
27475SOL    HW284433   4.232   3.242   0.140  3.0381 -0.7007  0.2200
27476SOL     OW84434   0.187   8.063  10.780 -0.3894  0.0225  0.0721
27476SOL    HW184435   0.215   8.110  10.858  1.2654 -0.0432 -0.4422
27476SOL    HW284436   0.224   7.975  10.791 -1.0134 -0.2964 -0.3141
27477SOL     OW84437   5.250   5.829   0.177  0.2719  0.4171  0.1118
27477SOL    HW184438   5.317   5.791   0.234 -0.3899 -1.2491 -0.1816
27477SOL    HW284439   5.168   5.813   0.223 -0.1583  0.0784 -0.7588
27478SOL     OW84440   9.459   9.425   1.139  0.1479  0.0134  0.5803
27478SOL    HW184441   9.543   9.383   1.121 -1.4853 -2.9910 -0.9013
27478SOL    HW284442   9.436   9.468   1.056 -1.2003 -2.1047 -0.2344
27479SOL     OW84443   7.311   7.314   5.234 -0.2147  0.1398 -1.3686
27479SOL    HW184444   7.339   7.403   5.254  0.7403 -0.4228 -0.0829
27479SOL    HW284445   7.385   7.276   5.185 -0.5559  0.0033 -1.7845
27480SOL     OW84446   0.460   6.692  10.980  0.1722 -0.5003  0.4740
27480SOL    HW184447   0.406   6.736  11.046  0.1519 -0.1254  0.2055
27480SOL    HW284448   0.443   6.599  10.995 -0.8246 -0.3760  0.1627
27481SOL     OW84449   1.642   6.757   6.737 -0.0633  0.0719 -0.1101
27481SOL    HW184450   1.706   6.704   6.785  0.5997  0.9642  0.0251
27481SOL    HW284451   1.557   6.720   6.761  0.4252 -2.1492 -1.4972
27482SOL     OW84452  10.695   4.474   8.597  0.1283  0.1582 -0.0045
27482SOL    HW184453  10.755   4.488   8.524 -0.4280  0.4027 -0.4290
27482SOL    HW284454  10.722   4.391   8.635 -1.1661 -1.3650 -2.1281
27483SOL     OW84455   1.682   7.311   7.183 -0.2058  0.2536 -0.3352
27483SOL    HW184456   1.707   7.332   7.093 -0.5774 -1.9363 -0.9988
27483SOL    HW284457   1.741   7.241   7.209 -2.1994 -1.4675 -0.1346
27484SOL     OW84458   3.745  10.168   5.245  0.4298  0.4059 -0.1600
27484SOL    HW184459   3.665  10.133   5.283  1.4981 -2.1438 -0.0764
27484SOL    HW284460   3.737  10.263   5.255 -2.6585  0.2691 -0.4034
27485SOL     OW84461   7.633   3.391  10.155  0.2667  0.8320 -0.0663
27485SOL    HW184462   7.647   3.298  10.135  0.5600  1.1527 -1.4552
27485SOL    HW284463   7.651   3.398  10.249  3.0501 -0.0328 -0.4327
27486SOL     OW84464   0.337   3.225   0.698  0.2518  0.2737 -0.0849
27486SOL    HW184465   0.308   3.295   0.756  1.3454  0.0989  0.7023
27486SOL    HW284466   0.276   3.153   0.715 -1.9077  1.4780 -2.0660
27487SOL     OW84467   7.137   4.891   5.903 -0.0378 -0.5410 -0.0724
27487SOL    HW184468   7.111   4.953   5.834 -1.2585 -0.4994  0.4077
27487SOL    HW284469   7.212   4.932   5.945 -0.7576  0.5819  0.1608
27488SOL     OW84470   1.540   3.773   8.922  0.4508 -0.1378  0.1413
27488SOL    HW184471   1.483   3.822   8.980 -0.8571  1.5655 -2.4097
27488SOL    HW284472   1.623   3.765   8.971 -0.3824  1.6333  1.9761
27489SOL     OW84473   9.563   9.881   3.371  0.2742 -0.0001 -0.4508
27489SOL    HW184474   9.517   9.914   3.294  0.9274  1.0651 -0.4056
27489SOL    HW284475   9.650   9.921   3.367  1.0062 -1.4876 -0.2114
27490SOL     OW84476   0.840   7.226   0.903  0.0540  0.3768  0.5814
27490SOL    HW184477   0.854   7.267   0.818  0.7970  0.1320  0.5756
27490SOL    HW284478   0.798   7.142   0.883  0.7184  0.0794  0.4084
27491SOL     OW84479   3.925  10.693   9.590  0.0039  0.2883 -0.7229
27491SOL    HW184480   3.884  10.658   9.669  1.1840  0.1652 -0.1452
27491SOL    HW284481   3.958  10.779   9.616 -0.3582  0.6185 -1.3315
27492SOL     OW84482  10.510   8.759   3.467  0.0852 -0.0657  0.1789
27492SOL    HW184483  10.443   8.826   3.482  0.0433 -0.5186  2.2900
27492SOL    HW284484  10.465   8.676   3.482  0.5746 -0.5044 -0.6971
27493SOL     OW84485  10.255   0.106   7.082  0.3226 -0.1851 -0.0325
27493SOL    HW184486  10.244   0.118   6.988  0.3856  0.9219  0.0813
27493SOL    HW284487  10.345   0.075   7.092  0.8861  1.2757 -0.2543
27494SOL     OW84488   0.149   3.822   7.169 -0.6086 -0.1559  0.7167
27494SOL    HW184489   0.128   3.894   7.228  0.5285  0.8444 -0.0678
27494SOL    HW284490   0.221   3.776   7.213 -0.8321 -0.3840  0.8529
27495SOL     OW84491   1.997   7.681   0.832 -0.0444 -0.1347 -0.6577
27495SOL    HW184492   2.015   7.607   0.775  3.7635 -0.3941  0.6606
27495SOL    HW284493   2.003   7.757   0.775 -2.2403 -0.6241 -1.6583
27496SOL     OW84494   4.311   5.096   6.332  0.3928 -0.5074  0.7893
27496SOL    HW184495   4.251   5.061   6.398 -1.0813  0.5059  0.0470
27496SOL    HW284496   4.380   5.138   6.383 -0.2011 -0.5743  1.6766
27497SOL     OW84497   0.737   6.433   5.483  0.7111  0.0563  0.0714
27497SOL    HW184498   0.702   6.509   5.530 -0.0790  1.0825 -2.0333
27497SOL    HW284499   0.660   6.384   5.455  1.0467  0.4082 -1.5733
27498SOL     OW84500   2.430  10.454  10.350 -0.0917 -0.0603 -0.6769
27498SOL    HW184501   2.367  10.470  10.280  0.1080  1.0538 -0.6174
27498SOL    HW284502   2.435  10.537  10.398 -0.1651 -0.7688  0.6126
27499SOL     OW84503   4.668   7.130  10.366  0.2945 -0.3483 -0.4126
27499SOL    HW184504   4.713   7.046  10.374 -0.1506 -0.5918 -0.4569
27499SOL    HW284505   4.635   7.150  10.453 -0.9249 -0.9703 -0.7134
27500SOL     OW84506   9.384   8.207   9.969  0.4812  0.2530  0.1618
27500SOL    HW184507   9.468   8.252   9.967  0.7558 -0.2506  0.0130
27500SOL    HW284508   9.371   8.177   9.879  0.6221 -0.5307  0.3935
27501SOL     OW84509   0.580   5.726   1.694 -0.3749  0.2053  0.0630
27501SOL    HW184510   0.507   5.777   1.660 -1.9609 -2.2049 -0.3578
27501SOL    HW284511   0.629   5.698   1.617 -0.8683 -0.8206  0.1126
27502SOL     OW84512   5.126   3.576   9.621 -0.2432 -0.1430  0.0725
27502SOL    HW184513   5.200   3.516   9.624  1.1409  1.5199  0.5062
27502SOL    HW284514   5.146   3.636   9.550 -1.3914  0.0712 -0.0852
27503SOL     OW84515   5.957   8.934   0.706  0.4902  0.0889 -0.0316
27503SOL    HW184516   5.986   8.987   0.632  1.3476  0.0922  0.3029
27503SOL    HW284517   5.873   8.973   0.731 -0.1569 -0.3280 -1.4140
27504SOL     OW84518   3.776   0.249  10.700 -0.4268 -0.6863 -0.3828
27504SOL    HW184519   3.813   0.198  10.772  0.8828  0.6537 -0.0505
27504SOL    HW284520   3.684   0.222  10.696 -0.2789 -1.5352  1.1186
27505SOL     OW84521   6.544  10.805   9.990 -0.3328 -0.3184 -0.2108
27505SOL    HW184522   6.534  10.898   9.973 -0.3113 -0.5075 -1.3143
27505SOL    HW284523   6.596  10.801  10.071 -0.4161  0.6154 -0.1016
27506SOL     OW84524  10.663   0.719   2.107  0.3900  0.5843 -0.2731
27506SOL    HW184525  10.679   0.638   2.156 -0.6013  0.3589 -0.2941
27506SOL    HW284526  10.651   0.786   2.174  1.8358  0.8628 -0.2604
27507SOL     OW84527  10.829   5.666   0.704 -0.2333  0.7717 -0.0036
27507SOL    HW184528  10.767   5.704   0.642 -1.3431  0.6501  0.9916
27507SOL    HW284529  10.876   5.742   0.740 -0.8946  1.0325  0.3489
27508SOL     OW84530   2.580   8.561   1.691 -0.9296  0.9822  0.5346
27508SOL    HW184531   2.593   8.501   1.764  1.4030  0.4117 -0.2684
27508SOL    HW284532   2.499   8.607   1.713 -2.0441 -1.4038  1.8839
27509SOL     OW84533  10.595   6.230   8.572 -0.2089  0.7288  0.7715
27509SOL    HW184534  10.652   6.193   8.640 -1.1415 -0.4333  0.9609
27509SOL    HW284535  10.646   6.301   8.534  0.0260  2.0379  3.2863
27510SOL     OW84536   7.334   3.952  10.042 -0.6280  0.3411 -0.0439
27510SOL    HW184537   7.359   3.941  10.134 -1.1399  0.2132  0.0850
27510SOL    HW284538   7.365   4.039  10.019 -0.0604  0.1821  0.1059
27511SOL     OW84539   7.462   9.791   6.912 -0.0405  0.0394 -0.1827
27511SOL    HW184540   7.411   9.734   6.969  0.8118 -0.6437 -0.0761
27511SOL    HW284541   7.521   9.838   6.971 -0.2602  0.5201 -0.3424
27512SOL     OW84542   4.548   7.297   6.884  0.5354  0.0111 -0.1503
27512SOL    HW184543   4.621   7.244   6.853 -1.1210 -1.5006 -1.7500
27512SOL    HW284544   4.501   7.322   6.805 -0.0352  1.9706  0.7449
27513SOL     OW84545   0.841   7.124   1.731 -0.3247 -0.0037  0.3452
27513SOL    HW184546   0.753   7.095   1.753 -0.8205  0.2262 -1.2213
27513SOL    HW284547   0.840   7.218   1.747  0.3687 -0.3146  2.5245
27514SOL     OW84548   5.692  10.498   0.526 -0.0585 -0.4702  0.5667
27514SOL    HW184549   5.656  10.587   0.518 -0.3682 -0.7589 -1.7828
27514SOL    HW284550   5.692  10.482   0.620 -1.6496  1.3498  0.9572
27515SOL     OW84551   5.555   6.880  10.923 -0.5545  0.1034  0.1617
27515SOL    HW184552   5.588   6.843  10.841  0.1528 -0.3911  0.6561
27515SOL    HW284553   5.539   6.804  10.979 -3.1708  0.2467 -0.2311
27516SOL     OW84554   6.351   8.903   0.049  0.6240  0.1954 -0.1431
27516SOL    HW184555   6.291   8.832   0.026 -1.0115  0.7818  1.9346
27516SOL    HW284556   6.299   8.960   0.106  2.5528  1.8918  0.0294
27517SOL     OW84557   8.375   2.088   6.695  0.2341 -0.1221  0.1435
27517SOL    HW184558   8.402   2.147   6.624 -0.1411 -0.7702 -0.5474
27517SOL    HW284559   8.415   2.126   6.774  1.1812  0.2576 -0.4988
27518SOL     OW84560   6.320   6.091   2.035  0.0968  0.3014 -0.4076
27518SOL    HW184561   6.261   6.143   1.981  0.5937  1.0811 -0.2281
27518SOL    HW284562   6.373   6.041   1.972 -0.9347 -0.6330 -0.5594
27519SOL     OW84563   2.478  10.746   6.956 -0.0916 -0.0313 -0.5032
27519SOL    HW184564   2.387  10.771   6.943 -0.5999 -2.0833 -1.3865
27519SOL    HW284565   2.527  10.795   6.890 -0.9658 -0.9340 -1.8772
27520SOL     OW84566  10.459   0.607   1.609  0.3122 -0.0940  0.0999
27520SOL    HW184567  10.408   0.557   1.673  2.1744 -1.0563  0.9107
27520SOL    HW284568  10.549   0.599   1.639  1.2621 -0.5022 -2.6155
27521SOL     OW84569   2.096  10.144  10.788  0.4067  0.0500 -0.5032
27521SOL    HW184570   2.010  10.179  10.810  1.3056  1.3434  1.2663
27521SOL    HW284571   2.100  10.148  10.693 -0.5556  2.4563 -0.5224
27522SOL     OW84572   3.444   9.285   8.823 -0.1718  0.4027 -0.2685
27522SOL    HW184573   3.414   9.376   8.815  0.2731  0.7171  1.3270
27522SOL    HW284574   3.424   9.246   8.738 -1.0017  1.8052 -0.7550
27523SOL     OW84575   6.995  10.444   7.425 -0.9750 -0.0975 -0.4338
27523SOL    HW184576   6.932  10.498   7.473 -0.6537 -1.0054  1.0939
27523SOL    HW284577   7.046  10.506   7.374 -2.4898  0.7433 -1.0076
27524SOL     OW84578   4.590   8.577   4.323  0.4577  0.0308 -0.1595
27524SOL    HW184579   4.635   8.500   4.289  0.5461 -0.5034  1.1185
27524SOL    HW284580   4.611   8.579   4.416 -1.7172  0.0575  0.3958
27525SOL     OW84581  11.205   4.619   9.560  0.4872 -0.0621  0.4361
27525SOL    HW184582  11.173   4.532   9.538 -2.2159  0.8995  0.2100
27525SOL    HW284583  11.238   4.610   9.650  1.8770 -1.6408 -0.1707
27526SOL     OW84584   3.311   1.920   9.903 -0.0941 -0.2266  0.4689
27526SOL    HW184585   3.309   1.915   9.998  0.1030  1.0194  0.5510
27526SOL    HW284586   3.356   2.002   9.884  0.1616 -0.6193 -0.7030
27527SOL     OW84587  10.287   5.496   2.191  0.0103 -0.6038  0.0888
27527SOL    HW184588  10.349   5.568   2.202  0.4922 -1.0465  0.3295
27527SOL    HW284589  10.226   5.506   2.264  0.6552 -1.0027  0.6958
27528SOL     OW84590   2.494   5.264   0.159 -0.8793  0.3956 -0.2224
27528SOL    HW184591   2.420   5.324   0.155 -0.0572  1.3594 -3.1302
27528SOL    HW284592   2.569   5.320   0.177 -0.5124 -0.2532  0.3102
27529SOL     OW84593   7.944   9.330   3.550 -0.0965  0.8364  0.3513
27529SOL    HW184594   7.987   9.290   3.625  1.7021 -1.2283 -1.6345
27529SOL    HW284595   7.900   9.257   3.505 -0.4994  1.8599 -1.0036
27530SOL     OW84596   0.026   1.184   2.314  0.6270  0.2282 -0.5652
27530SOL    HW184597   0.070   1.227   2.387 -0.2249  1.5606 -0.8131
27530SOL    HW284598   0.089   1.119   2.283  0.6119 -1.1663  2.0190
27531SOL     OW84599   1.820   6.805  10.796  0.6316  0.1999 -0.5022
27531SOL    HW184600   1.849   6.758  10.717  0.0250 -0.8341 -0.1300
27531SOL    HW284601   1.804   6.736  10.860 -2.4566  0.6936 -0.6208
27532SOL     OW84602   6.205   1.781   4.444  0.5584 -0.3829 -0.5603
27532SOL    HW184603   6.237   1.871   4.449  2.0561 -0.9121  0.0689
27532SOL    HW284604   6.278   1.731   4.407  0.7086 -1.7062  1.3155
27533SOL     OW84605   3.823   7.432  10.769  0.1665 -0.0367  0.2553
27533SOL    HW184606   3.756   7.392  10.823  0.0143  1.5246  1.2919
27533SOL    HW284607   3.784   7.438  10.682 -0.0073 -1.5481  0.2064
27534SOL     OW84608   8.771  10.173   0.852  0.5638 -0.4300  0.2805
27534SOL    HW184609   8.744  10.253   0.806  1.4665 -0.0822  0.3217
27534SOL    HW284610   8.848  10.142   0.803 -0.2744 -1.7563 -0.2377
27535SOL     OW84611   0.028   1.441   3.834 -0.0752  0.0694  0.1506
27535SOL    HW184612  -0.007   1.524   3.802  3.0351  0.9244 -1.4281
27535SOL    HW284613   0.064   1.463   3.920  1.6984  0.7098 -0.7119
27536SOL     OW84614   4.604   1.517   4.161 -0.2347  0.3467  0.3132
27536SOL    HW184615   4.642   1.547   4.078 -1.0686 -1.7173 -0.8989
27536SOL    HW284616   4.515   1.490   4.138 -0.2599 -0.8839  1.7472
27537SOL     OW84617   2.888   9.634   0.201 -0.5761  0.0875 -0.2567
27537SOL    HW184618   2.914   9.655   0.291 -0.2538 -0.0853 -0.3088
27537SOL    HW284619   2.792   9.624   0.205 -0.4121 -1.5040  0.3932
27538SOL     OW84620  11.135   7.743   9.033 -0.0737  0.2294  0.5033
27538SOL    HW184621  11.098   7.713   8.950  3.3930 -0.7827 -0.8648
27538SOL    HW284622  11.172   7.829   9.013  0.1111  0.3255  1.2239
27539SOL     OW84623   0.283   1.345   1.467  0.3536  0.0687 -0.3913
27539SOL    HW184624   0.341   1.389   1.530  1.5575  0.5430 -1.7772
27539SOL    HW284625   0.326   1.262   1.449 -0.6144 -0.6059  0.2891
27540SOL     OW84626   1.689   7.913   4.307  0.0416 -0.5779 -0.5730
27540SOL    HW184627   1.714   7.982   4.368  0.0840 -0.2724 -0.9344
27540SOL    HW284628   1.728   7.833   4.344 -2.0338 -0.8698  1.1608
27541SOL     OW84629   7.593   0.114   4.762  0.8330  0.5873 -0.5176
27541SOL    HW184630   7.681   0.143   4.786  0.0343  1.1326  2.0531
27541SOL    HW284631   7.542   0.121   4.843 -1.0162 -1.9958 -1.3307
27542SOL     OW84632   5.348   8.700   6.288  0.7239 -0.1726  0.4309
27542SOL    HW184633   5.333   8.794   6.272  0.3541  0.5961  4.2508
27542SOL    HW284634   5.440   8.687   6.268  0.9981  1.2440  0.6153
27543SOL     OW84635   2.391   0.266   9.776  0.1004  0.2764  0.3415
27543SOL    HW184636   2.307   0.257   9.732 -0.1304  0.6384  0.6965
27543SOL    HW284637   2.370   0.309   9.859  0.6118  0.2083  0.5108
27544SOL     OW84638   2.023  10.234   0.364  0.5875  0.1627 -0.4528
27544SOL    HW184639   2.081  10.299   0.403  0.3585 -1.2168  2.4422
27544SOL    HW284640   2.079  10.185   0.304  1.4904  1.1062 -0.4060
27545SOL     OW84641   8.349   2.851   3.216 -0.1754 -0.3026 -0.0031
27545SOL    HW184642   8.282   2.807   3.164 -1.1620 -1.2546  1.9555
27545SOL    HW284643   8.359   2.795   3.294  1.3336  0.9631  0.7690
27546SOL     OW84644   3.558   0.418   8.991  0.3670 -0.5829 -0.2472
27546SOL    HW184645   3.642   0.375   8.973  0.3257 -0.9672  0.4478
27546SOL    HW284646   3.516   0.361   9.056  0.0907  0.2502  0.3112
27547SOL     OW84647   3.982   7.505   1.078  0.0709 -0.2510 -0.2904
27547SOL    HW184648   4.065   7.545   1.103  0.1700  0.3805 -1.5103
27547SOL    HW284649   4.007   7.424   1.033  0.1387  0.6065 -1.8735
27548SOL     OW84650   3.901   9.154   6.405  0.1894  0.3967  0.5440
27548SOL    HW184651   3.834   9.094   6.371  1.3449 -0.3387 -0.5471
27548SOL    HW284652   3.923   9.118   6.491 -0.3653  0.2647  0.6326
27549SOL     OW84653   1.225   8.415   6.161 -0.1461 -0.3803  0.3212
27549SOL    HW184654   1.172   8.480   6.115 -0.1036  0.1837  1.0495
27549SOL    HW284655   1.193   8.418   6.251  1.7836  0.6940  1.0090
27550SOL     OW84656   2.701   5.846   3.514  0.1167 -0.1597 -0.1875
27550SOL    HW184657   2.638   5.807   3.574 -1.7598  0.3945 -1.6825
27550SOL    HW284658   2.750   5.909   3.567 -0.7465 -0.4362  0.9697
27551SOL     OW84659   9.707   0.815   6.099 -0.4336  0.1482  0.1632
27551SOL    HW184660   9.803   0.819   6.091 -0.5025 -0.0008 -0.8303
27551SOL    HW284661   9.675   0.822   6.010 -1.2951 -1.7439  0.2758
27552SOL     OW84662   6.251   4.763   2.050  0.7542 -0.0991  0.0940
27552SOL    HW184663   6.263   4.671   2.074 -1.0830 -0.0476  1.4426
27552SOL    HW284664   6.318   4.810   2.099 -0.0125 -0.4804  1.5604
27553SOL     OW84665   5.183   3.494   3.495  1.0050 -0.0812 -0.9411
27553SOL    HW184666   5.132   3.439   3.435  1.0678 -0.2541 -0.8376
27553SOL    HW284667   5.261   3.518   3.445  0.8185  0.1919 -1.1031
27554SOL     OW84668  10.237   8.476   3.311 -0.5035  0.3089 -0.2465
27554SOL    HW184669  10.179   8.410   3.275  0.6950 -1.8171  1.4465
27554SOL    HW284670  10.292   8.502   3.237 -1.6681  0.1859 -1.1823
27555SOL     OW84671   2.697   1.530   5.330  0.2365 -0.0793 -0.3630
27555SOL    HW184672   2.623   1.526   5.269 -0.6006 -0.3377  0.6341
27555SOL    HW284673   2.691   1.617   5.369 -0.6558 -0.7382  1.0366
27556SOL     OW84674   3.150   6.137   6.242 -0.1137  0.0110  0.0137
27556SOL    HW184675   3.238   6.104   6.223  0.7533  2.7163 -1.2376
27556SOL    HW284676   3.153   6.162   6.334  0.2006 -0.5360  0.1538
27557SOL     OW84677   4.314   0.724   2.421  0.3007  0.2338 -0.2984
27557SOL    HW184678   4.303   0.632   2.398  0.9565 -0.1538  0.8626
27557SOL    HW284679   4.284   0.772   2.344 -1.1547 -0.9173 -0.4801
27558SOL     OW84680   3.302   8.039   1.003 -0.1147  0.3606 -0.0194
27558SOL    HW184681   3.383   7.996   0.978 -0.7167 -1.6014  1.2173
27558SOL    HW284682   3.314   8.059   1.096  0.3235  3.4120 -0.6228
27559SOL     OW84683   6.044  10.979   5.097  0.2033 -0.5404 -0.0140
27559SOL    HW184684   5.995  11.050   5.055  0.5379 -1.0088 -1.2455
27559SOL    HW284685   6.122  10.968   5.043  1.9123  0.4069  2.1021
27560SOL     OW84686   4.816   6.105   0.712 -0.0121  0.3306  0.5750
27560SOL    HW184687   4.777   6.142   0.633 -0.3527 -0.5858  0.2984
27560SOL    HW284688   4.909   6.126   0.705 -0.1766  1.0172  0.3747
27561SOL     OW84689   8.239   9.202   7.382 -0.4850 -0.1841  0.6210
27561SOL    HW184690   8.327   9.238   7.396 -0.4572 -0.0623  0.1637
27561SOL    HW284691   8.252   9.134   7.316 -0.8149  0.2066  0.1457
27562SOL     OW84692   9.787  10.410   4.283 -0.4306  0.3208 -0.3535
27562SOL    HW184693   9.797  10.375   4.371 -0.9345 -0.1974 -0.4915
27562SOL    HW284694   9.872  10.447   4.261 -0.6196  1.4967  0.7955
27563SOL     OW84695   3.244   0.694   1.887 -0.2106 -0.5615  0.2346
27563SOL    HW184696   3.171   0.748   1.858  0.1923  1.2777  2.3450
27563SOL    HW284697   3.238   0.614   1.834 -2.4666  0.3988 -1.0965
27564SOL     OW84698   0.489   3.081   0.853  0.1839  0.3224 -0.1258
27564SOL    HW184699   0.488   2.991   0.821 -3.8330 -0.3479  1.2749
27564SOL    HW284700   0.433   3.129   0.792 -2.6714  0.3412  2.2363
27565SOL     OW84701   7.625   4.857   6.671 -0.0787  0.3165  0.4792
27565SOL    HW184702   7.544   4.888   6.629 -0.6297 -0.1183  1.2018
27565SOL    HW284703   7.659   4.934   6.716 -0.2335  0.4389  0.3898
27566SOL     OW84704   9.573  10.788   5.186 -0.1769  0.9510 -0.4084
27566SOL    HW184705   9.630  10.853   5.227  0.3011 -1.0190  2.3424
27566SOL    HW284706   9.632  10.735   5.132  0.6137 -0.5568  1.7678
27567SOL     OW84707   7.498   5.365   7.949 -0.0236 -0.8098 -0.0366
27567SOL    HW184708   7.485   5.365   7.854  2.2078 -1.0189 -0.3981
27567SOL    HW284709   7.506   5.458   7.971 -2.8074 -0.5913  0.3740
27568SOL     OW84710   7.268   1.591  10.215  0.5811 -0.2887  0.2987
27568SOL    HW184711   7.234   1.597  10.125 -1.2821 -2.3228  0.7787
27568SOL    HW284712   7.193   1.559  10.266  0.7486  3.3434  3.1532
27569SOL     OW84713   7.980   4.322   2.900  0.4014 -0.0218  0.2511
27569SOL    HW184714   7.900   4.271   2.888  1.1892 -1.2542  0.0926
27569SOL    HW284715   8.048   4.272   2.856  1.5817  0.1613  1.7626
27570SOL     OW84716   1.014   1.913  10.881 -0.1500 -0.2599  0.2069
27570SOL    HW184717   1.073   1.873  10.818 -1.1291 -0.2826 -0.7292
27570SOL    HW284718   0.945   1.848  10.895  1.3211 -1.3452  3.2998
27571SOL     OW84719   7.296   9.464   1.801 -0.2541 -0.3811 -0.2233
27571SOL    HW184720   7.226   9.425   1.854  0.3297 -0.6895  0.3287
27571SOL    HW284721   7.314   9.548   1.844 -0.8547  0.0871 -0.8577
27572SOL     OW84722  10.697   7.457   9.675 -0.3339  0.3589  0.2945
27572SOL    HW184723  10.635   7.411   9.732  0.5787 -0.0740  0.9759
27572SOL    HW284724  10.767   7.485   9.735 -1.3253  3.5949  0.1219
27573SOL     OW84725   6.479   2.052   8.413  0.7289  0.1676 -0.3931
27573SOL    HW184726   6.416   2.115   8.375 -0.2058 -0.6295 -0.2126
27573SOL    HW284727   6.448   2.039   8.502  2.9646  2.0897  0.7694
27574SOL     OW84728   2.401   6.062   9.338  0.2772 -0.2501  0.4487
27574SOL    HW184729   2.474   6.112   9.375  0.0496  0.1218  0.4058
27574SOL    HW284730   2.430   6.037   9.251 -0.5849  2.0967 -0.6040
27575SOL     OW84731   2.236   8.661   6.070 -0.0817 -0.0559  0.2345
27575SOL    HW184732   2.169   8.703   6.123 -0.1157  1.6831 -1.0987
27575SOL    HW284733   2.187   8.605   6.009 -0.0786 -1.5073  1.5152
27576SOL     OW84734   6.770   1.894   8.538  0.0005  0.2157  0.1448
27576SOL    HW184735   6.683   1.857   8.525  0.2151 -0.3774  0.3484
27576SOL    HW284736   6.795   1.866   8.626 -0.0829  1.3825  0.5579
27577SOL     OW84737   6.590   3.648  10.725 -0.0118 -0.2229 -0.6229
27577SOL    HW184738   6.612   3.590  10.799 -1.4954 -0.3437 -0.2410
27577SOL    HW284739   6.632   3.731  10.747 -1.3953  0.1079  0.9972
27578SOL     OW84740   3.219   9.149   9.362 -0.1729 -0.0551  0.0669
27578SOL    HW184741   3.144   9.152   9.302 -0.9707  1.3926  1.0643
27578SOL    HW284742   3.263   9.066   9.342 -2.0458 -0.9587 -0.5355
27579SOL     OW84743   6.743   5.227   5.579  0.3396 -0.0785  0.0444
27579SOL    HW184744   6.791   5.146   5.561 -0.4881 -0.5051 -0.2825
27579SOL    HW284745   6.810   5.295   5.580  0.7805 -0.4405 -1.9253
27580SOL     OW84746   8.322   0.967   8.870 -0.2858  0.1889  0.0744
27580SOL    HW184747   8.403   0.949   8.918 -0.1451  1.5334  0.3639
27580SOL    HW284748   8.352   1.001   8.786 -0.5494 -1.3201 -0.6733
27581SOL     OW84749  10.790   4.141   8.477 -0.2819 -0.2469 -0.5824
27581SOL    HW184750  10.862   4.188   8.436 -0.0562  0.0343  0.1127
27581SOL    HW284751  10.759   4.081   8.410  2.3040 -2.2933 -0.1151
27582SOL     OW84752   1.476   2.797   3.193 -0.0528  0.6993 -0.5083
27582SOL    HW184753   1.460   2.731   3.126 -3.6312 -0.8935  1.5901
27582SOL    HW284754   1.537   2.755   3.254  1.1492  1.1190 -1.4065
27583SOL     OW84755   5.892   4.976   7.173 -0.2620 -0.0912 -0.6224
27583SOL    HW184756   5.963   5.032   7.204  3.5409 -3.9464 -1.3060
27583SOL    HW284757   5.841   4.956   7.251 -0.3724  2.3869  0.0151
27584SOL     OW84758   0.350   5.525   2.630  0.6623 -0.0061 -0.3033
27584SOL    HW184759   0.264   5.492   2.603  0.4593 -0.3770  0.7488
27584SOL    HW284760   0.404   5.520   2.551  0.0412 -0.8986 -0.6805
27585SOL     OW84761   6.298   2.647   0.745 -0.0897  0.4294 -0.5109
27585SOL    HW184762   6.337   2.662   0.658 -1.9058  1.3762 -1.2100
27585SOL    HW284763   6.361   2.684   0.806  1.4028 -0.5683 -1.3642
27586SOL     OW84764   8.712   0.676   7.504  0.0278 -0.5830 -0.0788
27586SOL    HW184765   8.781   0.741   7.515  1.6325 -2.2679  0.2450
27586SOL    HW284766   8.750   0.594   7.535 -2.4509 -1.4169  1.0505
27587SOL     OW84767  10.300   2.513   7.485 -0.8431 -0.5499  0.0035
27587SOL    HW184768  10.292   2.429   7.530 -5.0353 -0.8023 -0.7403
27587SOL    HW284769  10.282   2.492   7.393  0.1078  0.9344 -0.5523
27588SOL     OW84770   2.988   3.828   9.870  0.3301 -0.0456 -0.0882
27588SOL    HW184771   3.050   3.756   9.883  0.5239 -0.1589 -1.4697
27588SOL    HW284772   2.910   3.786   9.835  0.6970  0.4628 -1.6005
27589SOL     OW84773   1.382   4.053   0.445  0.7981 -0.0416  0.1566
27589SOL    HW184774   1.337   4.136   0.461  2.3505  1.2018 -1.4671
27589SOL    HW284775   1.467   4.063   0.489  0.7073 -1.1024  0.6085
27590SOL     OW84776   3.001   0.361   2.394 -0.1396  0.1211  0.1651
27590SOL    HW184777   2.907   0.357   2.377 -0.4583  0.3315  1.7068
27590SOL    HW284778   3.014   0.445   2.437  0.5328 -0.4614  1.1346
27591SOL     OW84779   9.864   1.938   4.908  0.0636  0.3012  0.2639
27591SOL    HW184780   9.809   1.860   4.915  0.5181 -0.3341 -2.3035
27591SOL    HW284781   9.950   1.904   4.882  1.1258  1.4615  2.0427
27592SOL     OW84782   0.392   4.258   3.625 -0.6061 -0.1666 -0.0720
27592SOL    HW184783   0.456   4.311   3.578  0.1743 -0.4077  0.7044
27592SOL    HW284784   0.321   4.245   3.561 -0.6506  1.4663 -0.4046
27593SOL     OW84785  10.447   7.458   8.866  0.3160  0.1713  0.6380
27593SOL    HW184786  10.413   7.429   8.951  1.0073  0.1236  0.9015
27593SOL    HW284787  10.398   7.407   8.802  2.1904 -2.3575  1.0972
27594SOL     OW84788   3.654  10.491   8.011  0.0154  0.0889  0.6242
27594SOL    HW184789   3.626  10.525   8.096  1.0639 -0.0325  1.0237
27594SOL    HW284790   3.694  10.407   8.031 -2.0461 -1.1952 -0.2857
27595SOL     OW84791   2.494   8.526   9.969 -0.3187  0.0884 -0.1129
27595SOL    HW184792   2.441   8.599  10.000  0.3007  0.7852 -0.6413
27595SOL    HW284793   2.564   8.519  10.034 -0.1817  0.2014 -0.2467
27596SOL     OW84794   6.988   7.768   9.288 -0.1284 -0.4081 -1.0026
27596SOL    HW184795   6.917   7.754   9.350  0.0321 -0.7621 -0.8921
27596SOL    HW284796   7.068   7.767   9.342 -0.1513  2.1948 -0.7957
27597SOL     OW84797   6.188   1.256   0.715  0.0157  0.4610 -0.4439
27597SOL    HW184798   6.157   1.166   0.700  2.1846 -0.8996  2.4033
27597SOL    HW284799   6.180   1.298   0.629 -1.0763 -2.4167 -1.8974
27598SOL     OW84800   3.391   8.953  10.292  0.3204 -0.2221  0.2599
27598SOL    HW184801   3.441   8.913  10.221  3.0764 -0.3907  2.1207
27598SOL    HW284802   3.312   8.899  10.299  0.5285 -0.8955 -1.8707
27599SOL     OW84803   1.542   5.789   3.456  0.7273  0.2094  0.3991
27599SOL    HW184804   1.563   5.868   3.506  2.0194  0.7268 -0.8719
27599SOL    HW284805   1.472   5.817   3.397  1.0302  0.3536  0.1040
27600SOL     OW84806   8.185   3.493  10.875  0.0579 -0.1865  0.4253
27600SOL    HW184807   8.110   3.467  10.929 -0.8481  1.2174 -0.1041
27600SOL    HW284808   8.211   3.413  10.830  0.7779 -1.3985  2.7895
27601SOL     OW84809   8.550   9.913  10.529 -0.1836 -0.5433 -0.4203
27601SOL    HW184810   8.608   9.926  10.604 -0.0281  0.0360 -0.6313
27601SOL    HW284811   8.594   9.847  10.475 -0.6533 -1.5011  0.3493
27602SOL     OW84812   2.727   1.558   0.474  0.5291  0.6175  0.2227
27602SOL    HW184813   2.753   1.631   0.419  1.5933  1.2209  1.4894
27602SOL    HW284814   2.752   1.583   0.562 -0.8823 -0.4462  0.9743
27603SOL     OW84815   0.499   8.920   9.851  0.3077  0.1692 -0.7939
27603SOL    HW184816   0.559   8.941   9.922  0.8942 -2.0136 -0.5617
27603SOL    HW284817   0.433   8.864   9.891  0.0469 -0.2270 -1.7396
27604SOL     OW84818   8.037  10.702   7.009  0.6220  0.8634  0.3183
27604SOL    HW184819   7.987  10.784   7.008 -1.3436 -0.2870 -0.4317
27604SOL    HW284820   8.056  10.685   6.917  0.0755 -0.0498  0.3680
27605SOL     OW84821   9.910  10.966   4.805 -0.7682  0.0545 -0.2992
27605SOL    HW184822   9.988  10.955   4.750  0.2240  0.0715  1.0419
27605SOL    HW284823   9.856  10.890   4.785 -0.1273 -0.2826 -0.8220
27606SOL     OW84824   7.069   2.766   0.190  0.2057  0.1103 -0.4842
27606SOL    HW184825   7.117   2.816   0.124  1.3415  2.4116  1.9015
27606SOL    HW284826   7.002   2.827   0.222 -0.1896 -0.8669  0.6012
27607SOL     OW84827   9.900  11.215   4.181 -0.0158  0.3365 -0.6043
27607SOL    HW184828   9.931  11.249   4.265 -1.8341  1.9181 -0.4970
27607SOL    HW284829   9.924  11.123   4.181 -0.5757  0.1281  1.9814
27608SOL     OW84830   2.870   9.505   5.034 -1.0238 -0.0311  0.3200
27608SOL    HW184831   2.874   9.484   5.127  1.7778  0.5717  0.4122
27608SOL    HW284832   2.923   9.584   5.025  0.9641 -1.4865 -2.1153
27609SOL     OW84833   6.236   5.868   4.911  0.4381 -0.4560 -0.2342
27609SOL    HW184834   6.311   5.829   4.957  1.6119 -0.1179 -1.7713
27609SOL    HW284835   6.275   5.913   4.836 -1.3368 -0.3834 -1.1582
27610SOL     OW84836   2.275   6.568   9.965 -0.1705  0.1177  0.5654
27610SOL    HW184837   2.290   6.566  10.060  0.9485  0.6599  0.4135
27610SOL    HW284838   2.265   6.661   9.945 -0.5243 -0.0043  0.1639
27611SOL     OW84839   3.871   9.907   3.879 -0.4988  0.0218  0.2136
27611SOL    HW184840   3.815   9.836   3.909  0.5778 -0.8597  0.1943
27611SOL    HW284841   3.868   9.901   3.783  0.6527 -0.8943  0.2078
27612SOL     OW84842   4.199   8.692   7.155 -0.4301  0.1694 -0.6206
27612SOL    HW184843   4.127   8.638   7.124  0.5696 -1.6535  0.0656
27612SOL    HW284844   4.227   8.740   7.078 -2.4450  1.0476 -0.8595
27613SOL     OW84845   0.112   8.114  11.107 -0.0776  0.4796 -0.3282
27613SOL    HW184846   0.029   8.152  11.137 -0.2730 -0.1663 -0.0380
27613SOL    HW284847   0.088   8.029  11.071  0.2566  0.9461 -1.6893
27614SOL     OW84848   7.867   2.062   7.142  0.4198 -0.3376 -0.3698
27614SOL    HW184849   7.890   2.101   7.227  2.1840  0.3628 -1.1298
27614SOL    HW284850   7.935   1.997   7.126  0.2151 -0.3277 -1.3433
27615SOL     OW84851   9.642   5.581   9.273  0.0012 -0.0134  0.8047
27615SOL    HW184852   9.564   5.539   9.310  0.2770  0.0007  1.4283
27615SOL    HW284853   9.714   5.549   9.328  0.0030  2.8112  2.7053
27616SOL     OW84854   8.884   1.897   2.256 -0.5367  0.3953 -0.8164
27616SOL    HW184855   8.847   1.931   2.174  0.2294  0.8325 -0.9899
27616SOL    HW284856   8.966   1.856   2.230  0.2987  1.5492 -0.1373
27617SOL     OW84857   2.500   0.204   6.621  0.4263 -0.3625  0.2122
27617SOL    HW184858   2.576   0.156   6.654 -0.6636 -1.2336  1.5924
27617SOL    HW284859   2.462   0.146   6.555  2.4353  1.2501 -2.5324
27618SOL     OW84860   2.924   2.175   9.122 -0.4308  0.0492  0.5297
27618SOL    HW184861   2.932   2.108   9.189  2.2437  0.1538  0.4466
27618SOL    HW284862   2.830   2.194   9.117 -0.8481 -0.8345  3.3337
27619SOL     OW84863   9.604   7.973   3.972  0.2577  0.1077  0.3873
27619SOL    HW184864   9.517   7.933   3.963 -0.4317  1.8477 -1.6079
27619SOL    HW284865   9.585   8.065   3.994  1.3897  1.1539 -2.5127
27620SOL     OW84866   7.308   3.895  10.780  0.5006 -0.0578 -0.9459
27620SOL    HW184867   7.310   3.836  10.705  1.9330 -0.6921 -0.4356
27620SOL    HW284868   7.245   3.855  10.841 -2.7896  1.8341 -2.8098
27621SOL     OW84869   8.385  11.138   8.840  0.6462 -0.3561  0.5136
27621SOL    HW184870   8.304  11.157   8.792  0.7739 -1.0881 -0.0041
27621SOL    HW284871   8.369  11.053   8.880  1.3096 -0.7095  0.0505
27622SOL     OW84872   5.621   5.398   6.612 -0.0005 -0.7118  0.5339
27622SOL    HW184873   5.599   5.366   6.699 -1.2177 -1.9615 -0.1805
27622SOL    HW284874   5.716   5.402   6.610  0.1702 -2.9684  1.1828
27623SOL     OW84875  10.716  11.249  10.805  0.3672 -0.0340 -0.2416
27623SOL    HW184876  10.744  11.217  10.891  2.4437 -0.0579 -0.8729
27623SOL    HW284877  10.796  11.283  10.764 -0.6696  0.5052 -1.9478
27624SOL     OW84878   4.969   4.731   6.965 -0.3804  0.5783 -0.2221
27624SOL    HW184879   4.952   4.766   6.878  1.4812  2.3953  0.0644
27624SOL    HW284880   5.027   4.656   6.950 -0.7645  0.3477 -0.5823
27625SOL     OW84881   3.445   6.095   0.317 -0.0596 -0.0777 -0.4197
27625SOL    HW184882   3.443   6.177   0.366 -0.5713  0.0180 -0.5939
27625SOL    HW284883   3.413   6.118   0.230 -1.9921 -0.7981  0.0558
27626SOL     OW84884   4.218   3.620   0.699  0.0281  0.1044  0.0169
27626SOL    HW184885   4.264   3.690   0.652  0.9603 -0.5794 -0.1146
27626SOL    HW284886   4.146   3.596   0.641  0.2384  0.3401 -0.3457
27627SOL     OW84887   7.210  10.986   8.138  0.7784  0.7019 -0.2271
27627SOL    HW184888   7.199  11.042   8.215  0.9569 -0.7315  0.8821
27627SOL    HW284889   7.136  11.009   8.081 -1.4184 -0.5801  1.9028
27628SOL     OW84890   4.419   5.564   8.989  0.3491  0.7800  0.0341
27628SOL    HW184891   4.391   5.498   9.052  1.1467  1.2464  0.9116
27628SOL    HW284892   4.478   5.621   9.039  0.6749  1.4081 -1.0316
27629SOL     OW84893  10.903   2.596   2.791 -0.5448  0.7225 -0.0468
27629SOL    HW184894  10.815   2.581   2.759 -0.2920 -1.3984  0.1432
27629SOL    HW284895  10.929   2.681   2.753 -1.8168  0.3213 -1.9060
27630SOL     OW84896  10.351   9.924   9.072 -0.1380 -0.3585  0.0549
27630SOL    HW184897  10.292   9.861   9.113  0.0629 -0.4569  0.1963
27630SOL    HW284898  10.317  10.010   9.100 -0.9750 -0.3578 -0.9021
27631SOL     OW84899  10.771  10.174   0.062  0.7373 -0.0447 -0.0305
27631SOL    HW184900  10.861  10.198   0.043  0.5183  1.6011  0.7897
27631SOL    HW284901  10.763  10.182   0.157 -0.2347 -0.3259 -0.0726
27632SOL     OW84902   8.914   5.958  11.043  0.1820  0.1888  0.2310
27632SOL    HW184903   8.921   5.965  10.948  0.0537  0.9284  0.2738
27632SOL    HW284904   8.884   5.869  11.058 -0.8609  0.4032 -0.4792
27633SOL     OW84905   0.813   9.692   6.553 -0.1008 -0.3626 -0.0031
27633SOL    HW184906   0.733   9.639   6.549 -0.1667 -0.4464  1.6360
27633SOL    HW284907   0.793   9.769   6.499 -1.2219 -0.4793  0.2107
27634SOL     OW84908   8.595   7.641   4.413 -0.6612 -0.4386  0.0657
27634SOL    HW184909   8.553   7.634   4.327 -0.8112  1.1876 -0.0247
27634SOL    HW284910   8.618   7.733   4.421 -1.8580 -0.2690  2.3277
27635SOL     OW84911   8.947   5.313   4.396  1.0865 -0.0039 -0.2009
27635SOL    HW184912   8.981   5.227   4.421 -1.3852 -0.6870  1.1658
27635SOL    HW284913   8.884   5.296   4.326  1.1365  0.7974 -0.4601
27636SOL     OW84914   5.221   0.062   8.385  0.5197 -0.2466 -0.6879
27636SOL    HW184915   5.247   0.114   8.461  1.0192 -0.2386 -0.8643
27636SOL    HW284916   5.302   0.023   8.353  0.1647 -1.0280 -0.6439
27637SOL     OW84917   1.810   5.486   3.086 -0.3896 -0.3762  0.4317
27637SOL    HW184918   1.828   5.549   3.155 -0.9411 -0.5610  0.7527
27637SOL    HW284919   1.715   5.470   3.092  0.0597 -3.1154  2.0079
27638SOL     OW84920  10.968  10.262   5.420 -0.3417  0.1492  0.7154
27638SOL    HW184921  11.003  10.173   5.423 -3.5401 -1.2145  2.4071
27638SOL    HW284922  10.935  10.278   5.508 -2.2149  1.9512 -0.2259
27639SOL     OW84923   4.044   3.634   6.693 -0.9917 -0.1627 -0.5788
27639SOL    HW184924   3.953   3.649   6.721 -1.1347  0.1388 -1.1795
27639SOL    HW284925   4.070   3.553   6.738 -0.9758  0.6470  0.9356
27640SOL     OW84926   0.435   6.696   6.694 -0.3820  0.3811  0.5993
27640SOL    HW184927   0.420   6.785   6.726  0.2179  0.6149  0.2487
27640SOL    HW284928   0.472   6.649   6.769 -0.9913  0.3325  0.8783
27641SOL     OW84929   3.104   9.034   8.590 -0.0634 -0.2601  0.1566
27641SOL    HW184930   3.033   9.020   8.527  0.3488  0.3691 -0.4554
27641SOL    HW284931   3.160   8.957   8.581 -0.8789 -0.9652  0.9418
27642SOL     OW84932   2.739   7.560   2.522 -0.0836 -0.7922 -0.0839
27642SOL    HW184933   2.675   7.489   2.526  1.1253 -2.1017 -2.2773
27642SOL    HW284934   2.800   7.541   2.593 -2.1364  0.6347  2.2293
27643SOL     OW84935   5.776   0.946   7.102 -0.1385  0.3625 -0.0716
27643SOL    HW184936   5.834   1.004   7.151 -1.4476  0.9385  0.8178
27643SOL    HW284937   5.836   0.887   7.055  1.1699  1.2952  0.3819
27644SOL     OW84938   9.144   6.245   3.884 -1.0923  0.2983  0.6372
27644SOL    HW184939   9.137   6.169   3.827 -0.3595  1.0476 -0.4914
27644SOL    HW284940   9.218   6.225   3.941 -1.1853 -0.0222  0.6480
27645SOL     OW84941   0.161   2.225   6.949 -0.4755  0.2489  0.3334
27645SOL    HW184942   0.099   2.259   7.012 -1.0361 -1.4842  0.7828
27645SOL    HW284943   0.148   2.130   6.951  2.6783 -0.2979  1.0102
27646SOL     OW84944   1.981   2.420   8.407 -0.2501 -0.0820  0.2190
27646SOL    HW184945   2.067   2.394   8.441  1.6405 -0.7228 -4.3389
27646SOL    HW284946   2.000   2.463   8.324 -4.3071  2.0457  0.1591
27647SOL     OW84947   3.303   3.961   6.700 -0.2257  0.3348 -0.3041
27647SOL    HW184948   3.315   3.900   6.627  0.3366  0.7450 -0.5630
27647SOL    HW284949   3.318   4.047   6.661 -0.9644  0.6403  0.0661
27648SOL     OW84950   4.500   6.754   0.699  0.2045 -0.4316  0.0992
27648SOL    HW184951   4.434   6.802   0.648  1.2525 -1.3944 -2.2985
27648SOL    HW284952   4.452   6.680   0.736 -0.0825 -1.2558 -1.8157
27649SOL     OW84953   2.604   0.367   9.212 -0.6100  0.6711 -0.4541
27649SOL    HW184954   2.638   0.404   9.130 -1.1180 -1.8059 -1.8885
27649SOL    HW284955   2.679   0.365   9.271  0.2981  0.6605 -1.5803
27650SOL     OW84956   5.056   8.742   9.010  0.1086 -0.4587  0.1884
27650SOL    HW184957   4.989   8.709   8.950  0.4430 -1.3233  0.2719
27650SOL    HW284958   5.014   8.740   9.096 -0.2056  0.3097  0.0630
27651SOL     OW84959   7.054   7.765   2.489  0.7104 -0.2246 -0.4147
27651SOL    HW184960   7.109   7.709   2.543  0.2617 -1.0973 -0.8353
27651SOL    HW284961   7.015   7.828   2.550  0.2583 -1.1531  0.2616
27652SOL     OW84962   8.038   4.566   0.186 -0.2270  0.0824 -0.0686
27652SOL    HW184963   8.056   4.525   0.271 -0.4757 -0.5162 -0.3034
27652SOL    HW284964   8.124   4.574   0.145  0.1910  2.3783  1.1218
27653SOL     OW84965   5.616   9.659   3.586  0.7599 -0.1383  0.3587
27653SOL    HW184966   5.691   9.711   3.614  1.4553 -0.9444  0.0439
27653SOL    HW284967   5.562   9.650   3.664 -0.6074  2.9961 -0.0825
27654SOL     OW84968   7.994   1.018  11.046  0.5886 -0.5040 -0.0150
27654SOL    HW184969   8.056   1.085  11.074  0.0962 -0.7265  1.7364
27654SOL    HW284970   7.941   1.061  10.979  0.5224  0.7599  0.8083
27655SOL     OW84971   9.676   8.513   7.363 -0.1320  0.9700  0.0956
27655SOL    HW184972   9.676   8.604   7.331 -3.1355  1.3324  0.7896
27655SOL    HW284973   9.587   8.500   7.396  0.6456 -1.7967  1.3571
27656SOL     OW84974   4.812   0.376   8.736 -0.5929  0.0005  0.6286
27656SOL    HW184975   4.876   0.364   8.666  0.2975  0.8075  1.2805
27656SOL    HW284976   4.742   0.313   8.716  0.2940 -0.7478 -0.2140
27657SOL     OW84977   5.998  10.220  10.082  0.1875 -0.1270  0.6006
27657SOL    HW184978   5.903  10.219  10.078  0.2110 -1.7009 -0.4049
27657SOL    HW284979   6.020  10.152  10.147  0.6259  0.6269  1.2636
27658SOL     OW84980   8.312   3.609   4.559 -0.3695  0.3159 -0.0476
27658SOL    HW184981   8.323   3.515   4.573 -0.5225 -0.0836 -2.1934
27658SOL    HW284982   8.260   3.639   4.634 -2.2356 -1.7463 -0.4086
27659SOL     OW84983   5.702   5.869   8.935 -0.0764  0.0716 -0.3589
27659SOL    HW184984   5.690   5.793   8.991 -0.8838 -0.6466 -1.4727
27659SOL    HW284985   5.788   5.856   8.895  0.4936  0.5748  0.6309
27660SOL     OW84986   0.788   4.510  10.482  0.5053 -0.0065  0.3398
27660SOL    HW184987   0.859   4.574  10.481 -0.5394  1.1838  0.0215
27660SOL    HW284988   0.735   4.534  10.559 -0.2346 -0.0909 -0.1316
27661SOL     OW84989   4.432   2.733   2.024 -0.6558 -0.1219 -0.0659
27661SOL    HW184990   4.477   2.674   1.963 -1.0764  0.5479 -1.0570
27661SOL    HW284991   4.503   2.782   2.066 -0.3676 -0.4601 -0.1521
27662SOL     OW84992   6.994   6.666   9.051  0.2868  0.3030 -0.0111
27662SOL    HW184993   6.944   6.586   9.037 -0.1695  0.8590 -1.9713
27662SOL    HW284994   6.928   6.733   9.067  0.6134  0.4734  0.6618
27663SOL     OW84995   9.918   7.135   2.920 -0.0054  0.5559  0.7168
27663SOL    HW184996   9.844   7.176   2.963 -0.9670  0.2917 -0.6125
27663SOL    HW284997   9.924   7.048   2.959  0.0611  0.8254  1.3203
27664SOL     OW84998   1.078   1.528   4.475  0.5844 -0.2148  0.7025
27664SOL    HW184999   1.150   1.465   4.477 -0.2915 -1.2637  2.9945
27664SOL    HW285000   1.000   1.475   4.459  0.3503  1.1595 -4.5031
27665SOL     OW85001  10.285   7.424   0.239 -0.8864  0.0414 -0.0955
27665SOL    HW185002  10.220   7.381   0.183 -1.8417 -1.3509  1.9597
27665SOL    HW285003  10.260   7.398   0.328  0.6602  2.0318  0.9805
27666SOL     OW85004   8.090   3.523   3.354  0.3126 -0.0236 -0.5088
27666SOL    HW185005   8.009   3.519   3.305 -1.6951  0.0044  2.5290
27666SOL    HW285006   8.109   3.616   3.364 -1.4085  0.1726  1.7771
27667SOL     OW85007   9.805   8.330   8.919 -0.2909  0.1126  0.2705
27667SOL    HW185008   9.895   8.327   8.952  0.0301  0.3270 -0.5601
27667SOL    HW285009   9.773   8.240   8.926  0.8604 -0.5191 -1.7508
27668SOL     OW85010   6.126   5.925   4.204 -0.0695  0.8541 -0.2580
27668SOL    HW185011   6.061   5.977   4.251 -0.6448  0.0139 -0.0950
27668SOL    HW285012   6.156   5.982   4.134 -2.4947  0.5868 -1.6211
27669SOL     OW85013   6.508   4.482  10.906  0.2583  0.1379 -0.6169
27669SOL    HW185014   6.529   4.570  10.937  0.4504 -0.5050  1.2119
27669SOL    HW285015   6.425   4.492  10.860 -1.0638  0.9159  1.7512
27670SOL     OW85016   2.710   9.682   8.065 -0.1748  0.5870  0.5656
27670SOL    HW185017   2.734   9.774   8.058 -0.9247  0.9067  1.8676
27670SOL    HW285018   2.791   9.634   8.052  0.2423  1.4338 -0.0165
27671SOL     OW85019   0.973   2.863   2.450 -0.2863 -0.2677 -0.2757
27671SOL    HW185020   0.963   2.827   2.538  2.2578  0.9633  0.6188
27671SOL    HW285021   1.057   2.829   2.420  1.5937  3.5735  0.0744
27672SOL     OW85022   7.308   6.907   8.425  0.4684  0.6809 -0.5456
27672SOL    HW185023   7.241   6.912   8.493  0.0193 -1.2539 -0.7907
27672SOL    HW285024   7.299   6.819   8.389  1.7592  1.1188 -2.0300
27673SOL     OW85025   9.336   9.200   9.024  0.0657  0.0852 -0.2892
27673SOL    HW185026   9.334   9.288   9.062  1.0864 -0.5499  1.3407
27673SOL    HW285027   9.415   9.160   9.059 -0.9538 -1.8811 -0.0506
27674SOL     OW85028   2.189   1.931  10.395  0.1763  0.6063 -0.1566
27674SOL    HW185029   2.131   2.003  10.374 -1.6764  0.0539  2.5243
27674SOL    HW285030   2.271   1.972  10.420 -0.6179  1.7700  0.6213
27675SOL     OW85031   8.229   8.063   1.037 -0.1561 -0.5173  0.4612
27675SOL    HW185032   8.215   8.043   0.944 -3.1137 -0.1646  0.7356
27675SOL    HW285033   8.285   8.140   1.036 -0.5186 -0.2405 -1.0834
27676SOL     OW85034   8.355   9.358   1.382  0.7326  0.1561 -0.5278
27676SOL    HW185035   8.392   9.335   1.296  0.6436 -1.0204 -0.2635
27676SOL    HW285036   8.261   9.342   1.372  0.6648  0.4284 -0.3333
27677SOL     OW85037   2.322   2.755   3.722 -0.1515 -0.0574  0.3487
27677SOL    HW185038   2.259   2.728   3.656 -0.8968  0.2694  0.9176
27677SOL    HW285039   2.378   2.679   3.736  1.0705  0.3633 -1.8468
27678SOL     OW85040   6.089   5.212  10.201 -0.1827  0.1236 -0.3314
27678SOL    HW185041   6.033   5.193  10.125  2.0789  1.3759 -2.4913
27678SOL    HW285042   6.065   5.146  10.266 -3.6133  0.2026 -1.3341
27679SOL     OW85043   4.209   8.193  11.117  0.1984 -0.2961 -0.2948
27679SOL    HW185044   4.135   8.205  11.057 -0.3560 -2.9617 -0.2844
27679SOL    HW285045   4.286   8.218  11.065 -0.5779  1.6525 -0.5990
27680SOL     OW85046   2.926   7.401   8.415 -0.3515  0.0753  0.2891
27680SOL    HW185047   2.970   7.485   8.429  1.3953 -0.8700  0.8361
27680SOL    HW285048   2.920   7.363   8.503  0.8217 -1.2550 -0.1618
27681SOL     OW85049   4.420   9.811   1.118  0.2192 -0.2440 -0.1803
27681SOL    HW185050   4.389   9.880   1.177  0.0898 -0.9046  0.5493
27681SOL    HW285051   4.340   9.769   1.087  0.3135 -0.4558 -0.1390
27682SOL     OW85052  10.398   3.935   6.658 -0.1051 -0.0703  0.1962
27682SOL    HW185053  10.392   3.999   6.729  0.8218 -0.5152  0.7065
27682SOL    HW285054  10.465   3.874   6.688 -0.6862 -1.0482 -0.4646
27683SOL     OW85055   6.614   8.113   7.982  0.3478  0.5150  0.0642
27683SOL    HW185056   6.680   8.056   8.022  0.6743  1.1349  0.4182
27683SOL    HW285057   6.640   8.201   8.007  0.4085  0.9012 -1.3122
27684SOL     OW85058   0.771  10.834  10.258  0.3296 -0.3325  0.0568
27684SOL    HW185059   0.774  10.921  10.217 -0.4063 -0.3111  0.0336
27684SOL    HW285060   0.859  10.799  10.246  0.5835  0.3359 -0.1009
27685SOL     OW85061   9.255   5.548   3.142  0.1016  0.5642 -0.7422
27685SOL    HW185062   9.314   5.619   3.114  0.6182  0.3606 -0.1781
27685SOL    HW285063   9.307   5.497   3.204 -0.7048  0.4278 -0.1773
27686SOL     OW85064   2.961   3.723   7.464 -0.4695  0.9841  0.5641
27686SOL    HW185065   2.916   3.795   7.421  0.2245  0.1980 -1.6078
27686SOL    HW285066   3.052   3.754   7.473 -0.4168  0.8037  0.6597
27687SOL     OW85067   7.210   3.360  10.352 -0.3596 -0.7920 -0.0321
27687SOL    HW185068   7.189   3.371  10.260  0.9085 -2.4181 -0.5616
27687SOL    HW285069   7.298   3.398  10.362 -1.2442  1.1202  0.9672
27688SOL     OW85070   8.626   2.683   5.323 -0.3923  0.3734 -0.1377
27688SOL    HW185071   8.575   2.631   5.385  0.1743 -1.8175 -1.4105
27688SOL    HW285072   8.708   2.701   5.369 -0.1178 -0.9364 -0.0571
27689SOL     OW85073   0.828   8.454   1.845 -0.1209 -0.4912 -0.2790
27689SOL    HW185074   0.854   8.532   1.895 -0.1911 -1.5056  1.4137
27689SOL    HW285075   0.791   8.395   1.910  1.6038 -2.7207 -1.1984
27690SOL     OW85076   8.338   9.472   3.594 -0.0546 -0.0999 -0.4686
27690SOL    HW185077   8.397   9.398   3.610  0.6999  0.9045  1.7306
27690SOL    HW285078   8.298   9.490   3.679 -0.1700  2.0415 -0.9212
27691SOL     OW85079   2.555   6.251  10.520  0.2589 -0.2634  0.3958
27691SOL    HW185080   2.616   6.298  10.462 -1.3135  0.7961 -0.4988
27691SOL    HW285081   2.516   6.320  10.574 -1.0485 -0.7110  0.0625
27692SOL     OW85082   1.259   3.445   2.969  0.4163 -0.1951  0.2238
27692SOL    HW185083   1.223   3.420   2.884  1.4386  0.7737 -0.5204
27692SOL    HW285084   1.317   3.518   2.950  1.1224 -0.3406  1.6874
27693SOL     OW85085  10.723   4.581   0.330  0.1816  0.2274 -0.0932
27693SOL    HW185086  10.683   4.648   0.274 -1.1499 -0.6984 -0.2758
27693SOL    HW285087  10.807   4.563   0.288 -2.1159 -2.9873 -4.0504
27694SOL     OW85088   8.530  10.291   2.157  0.0957  0.2725 -0.2027
27694SOL    HW185089   8.466  10.252   2.098 -0.2660 -0.6584  0.7753
27694SOL    HW285090   8.602  10.318   2.100  0.0413 -1.1962 -1.0127
27695SOL     OW85091  10.141   0.043   4.918 -1.0984  0.0230 -0.6803
27695SOL    HW185092  10.151   0.040   5.013 -0.1648 -0.1463 -0.7696
27695SOL    HW285093  10.134   0.136   4.897 -0.8471  0.0884 -0.4834
27696SOL     OW85094  11.022   8.946   5.880  0.0839  0.8216  0.0985
27696SOL    HW185095  11.049   8.919   5.793  0.2885  2.9364 -0.5519
27696SOL    HW285096  10.982   9.032   5.868 -0.3533  0.9480  2.0230
27697SOL     OW85097   7.008   4.501  11.001  0.6230 -0.0505  0.1747
27697SOL    HW185098   7.081   4.559  11.019  0.9638  0.1326 -1.6179
27697SOL    HW285099   7.000   4.446  11.079  3.0189 -0.4292  0.2198
27698SOL     OW85100   5.115   7.736   8.121 -0.0985  0.2362 -0.4100
27698SOL    HW185101   5.147   7.817   8.081 -1.5659  0.2037 -1.7531
27698SOL    HW285102   5.069   7.690   8.050 -0.9584 -0.8486  0.7913
27699SOL     OW85103   2.310  11.255   2.133  0.1068 -0.6053  0.2747
27699SOL    HW185104   2.260  11.205   2.069  0.0289 -1.6794  1.1331
27699SOL    HW285105   2.321  11.342   2.094 -3.3949  0.0737  0.4671
27700SOL     OW85106   8.729   7.644   1.944  0.2458 -0.0683  0.7293
27700SOL    HW185107   8.650   7.669   1.897 -1.2447 -0.4050  2.8825
27700SOL    HW285108   8.769   7.576   1.890 -1.0579 -0.0428 -0.3146
27701SOL     OW85109   4.472   2.505   9.527 -0.0311 -0.5544 -0.3972
27701SOL    HW185110   4.384   2.469   9.517  0.1814 -1.9524  2.1488
27701SOL    HW285111   4.508   2.462   9.604  1.0930  3.4884  1.6407
27702SOL     OW85112   6.023   0.018   5.262 -0.5080 -0.0820 -0.1379
27702SOL    HW185113   5.995  -0.061   5.309 -0.4601  0.0490  0.1162
27702SOL    HW285114   5.975   0.089   5.305  0.1825  0.1411  0.2817
27703SOL     OW85115   6.975   2.089   4.644 -0.6189  0.2012  0.2160
27703SOL    HW185116   6.892   2.044   4.659 -0.0625 -0.9023  0.0860
27703SOL    HW285117   6.984   2.148   4.719 -0.7670 -0.8104  1.0498
27704SOL     OW85118   8.977   9.651   5.644 -0.1734  0.2383  0.7158
27704SOL    HW185119   8.952   9.743   5.650  1.1321  0.6211  0.5485
27704SOL    HW285120   9.019   9.631   5.728  0.9420  0.2522  0.1864
27705SOL     OW85121   9.778   4.520   6.676  0.0188 -0.3651 -0.1122
27705SOL    HW185122   9.868   4.538   6.701  0.4956 -2.1698 -0.3963
27705SOL    HW285123   9.747   4.457   6.741 -0.7105 -0.5345 -0.6054
27706SOL     OW85124   9.841   0.571   9.858  0.8800  0.3455  0.1290
27706SOL    HW185125   9.787   0.635   9.812  0.0778 -1.0930 -0.9877
27706SOL    HW285126   9.930   0.609   9.856  0.9636  0.1928 -2.9496
27707SOL     OW85127  10.058   9.617   7.974  0.0540 -0.6779 -0.3603
27707SOL    HW185128  10.072   9.549   7.908 -2.4931 -1.5310 -0.1450
27707SOL    HW285129  10.105   9.586   8.051  3.2293  0.4175 -1.6690
27708SOL     OW85130   5.092   3.744   5.319  0.0377 -0.5341  0.2022
27708SOL    HW185131   5.092   3.781   5.407  0.7748  1.4672 -0.5828
27708SOL    HW285132   5.133   3.811   5.265 -1.9293 -0.9692 -1.9845
27709SOL     OW85133   3.429   1.969   8.059  1.0353  0.0308  0.4432
27709SOL    HW185134   3.430   2.023   8.139 -3.0181 -2.0639  2.2189
27709SOL    HW285135   3.467   1.886   8.087  0.5114 -0.3880 -0.0793
27710SOL     OW85136   3.949   2.218   1.602 -0.3550 -0.2517  0.5160
27710SOL    HW185137   3.925   2.259   1.685  1.5967  2.0661  0.0278
27710SOL    HW285138   3.912   2.276   1.535  1.3787  0.0741 -0.2039
27711SOL     OW85139   6.825   9.381   9.339 -0.0460  0.3196 -0.2879
27711SOL    HW185140   6.824   9.308   9.401  1.0975  0.4544 -0.0867
27711SOL    HW285141   6.912   9.418   9.348  0.5771 -0.3595 -2.8056
27712SOL     OW85142   5.111   9.222   7.025  0.5561  0.1612 -0.5395
27712SOL    HW185143   5.169   9.291   7.059 -1.1579  0.9748  0.9435
27712SOL    HW285144   5.146   9.141   7.062  0.0422  0.7921  1.4725
27713SOL     OW85145   2.339   0.182   8.804  0.0000 -0.3040 -0.8761
27713SOL    HW185146   2.404   0.216   8.742  1.8670 -0.0429  1.1065
27713SOL    HW285147   2.300   0.259   8.844 -0.1960 -0.4692 -0.7449
27714SOL     OW85148   3.278   4.213   5.721 -0.0493 -0.0867  0.7268
27714SOL    HW185149   3.208   4.199   5.786 -0.8808 -0.9654 -0.3214
27714SOL    HW285150   3.250   4.163   5.645  1.0271  0.7518 -0.2459
27715SOL     OW85151   0.302   1.174   6.720 -0.5188  0.1889 -0.2601
27715SOL    HW185152   0.347   1.133   6.646 -1.5386 -0.3243 -0.6206
27715SOL    HW285153   0.370   1.225   6.764  1.1765 -2.8712  0.9557
27716SOL     OW85154  11.039   3.268   9.990  0.3795 -0.4272 -0.1731
27716SOL    HW185155  11.101   3.198  10.008  0.5034 -0.0519  0.9212
27716SOL    HW285156  11.087   3.349  10.006 -0.9879 -0.1165  3.1422
27717SOL     OW85157   0.724   8.070   3.981  0.1711  1.2373 -0.4044
27717SOL    HW185158   0.799   8.026   3.942  1.1724  0.9211  1.7422
27717SOL    HW285159   0.648   8.035   3.934  1.1014 -1.1592 -0.2749
27718SOL     OW85160   3.864   3.875   3.176 -0.1374  0.3442  0.2870
27718SOL    HW185161   3.799   3.945   3.177 -3.1380 -2.1557 -1.3818
27718SOL    HW285162   3.836   3.815   3.246 -0.5471 -1.4347 -1.3198
27719SOL     OW85163   0.603   6.836   1.459 -0.0696 -0.3412  0.4021
27719SOL    HW185164   0.659   6.806   1.530  1.1057  0.9593  0.0678
27719SOL    HW285165   0.521   6.861   1.502  0.7381  0.7421  1.3744
27720SOL     OW85166   3.195   0.309   6.422  0.3795 -0.3119 -0.7985
27720SOL    HW185167   3.273   0.363   6.407  0.1947  0.0383 -0.5241
27720SOL    HW285168   3.230   0.223   6.447  0.7107  0.2408  0.7903
27721SOL     OW85169   6.737   4.250   7.901 -0.0737 -0.3954  0.1199
27721SOL    HW185170   6.755   4.255   7.994 -0.3568 -2.6404  0.3621
27721SOL    HW285171   6.661   4.306   7.887  1.2494  1.6789  0.7867
27722SOL     OW85172   3.844   3.120   6.110 -0.4551 -0.1964  0.0331
27722SOL    HW185173   3.852   3.212   6.137 -0.7996 -0.5168  1.2978
27722SOL    HW285174   3.870   3.120   6.018 -1.6561  1.3809 -0.3599
27723SOL     OW85175   4.894   5.079   2.855 -0.1170 -0.3864 -0.0167
27723SOL    HW185176   4.803   5.065   2.879 -0.7839  0.7089 -1.7249
27723SOL    HW285177   4.895   5.076   2.760  1.2825  1.3778 -0.1238
27724SOL     OW85178  10.881   4.288   5.836 -0.5479  0.5982  0.7051
27724SOL    HW185179  10.943   4.293   5.909  0.5481  1.7665 -0.2649
27724SOL    HW285180  10.841   4.375   5.832  1.2309  1.4239 -1.5698
27725SOL     OW85181   3.537  10.492   7.111  0.0209  0.0943 -0.1579
27725SOL    HW185182   3.546  10.587   7.117  0.8487  0.3773 -3.5736
27725SOL    HW285183   3.607  10.457   7.165  1.5205  1.5576 -1.0588
27726SOL     OW85184   2.825   4.456   6.758 -0.3283  0.6401  0.1499
27726SOL    HW185185   2.870   4.509   6.691  1.6891  1.0467  1.7131
27726SOL    HW285186   2.874   4.374   6.760 -0.5540  0.5190  0.9188
27727SOL     OW85187   2.616  10.314  10.205  0.5118  0.5470 -0.1531
27727SOL    HW185188   2.528  10.311  10.167 -0.1426 -3.0717  1.2374
27727SOL    HW285189   2.617  10.395  10.257 -2.8292 -0.2751  1.4445
27728SOL     OW85190   9.128   6.799  10.908 -0.1361  0.2040  0.1670
27728SOL    HW185191   9.082   6.846  10.837  4.4372  2.9147 -1.4429
27728SOL    HW285192   9.118   6.856  10.984 -1.3366 -0.4593  0.5328
27729SOL     OW85193   9.530  10.906   0.878 -0.1449  0.5072 -0.3028
27729SOL    HW185194   9.499  10.974   0.938  1.7751 -1.2024  2.9074
27729SOL    HW285195   9.618  10.935   0.852 -0.1583  0.2509 -0.6378
27730SOL     OW85196   4.174   4.093   2.704  1.1234  0.1765  0.5927
27730SOL    HW185197   4.110   4.041   2.752  1.1726 -1.4119 -0.9734
27730SOL    HW285198   4.166   4.063   2.613  2.3647  1.7088 -0.0678
27731SOL     OW85199   2.525   9.787  11.235  0.2766 -0.0654  0.0830
27731SOL    HW185200   2.440   9.831  11.245  1.1146  1.3121  1.5527
27731SOL    HW285201   2.571   9.839  11.170  1.5836  1.8505  2.4203
27732SOL     OW85202   1.171   8.522   5.725  0.7043 -0.0381  0.0617
27732SOL    HW185203   1.124   8.524   5.809  0.3248 -1.0804 -0.1041
27732SOL    HW285204   1.251   8.474   5.744  0.9850  0.3990 -0.0053
27733SOL     OW85205  11.182   6.761   4.656 -0.5826  0.1993  0.9296
27733SOL    HW185206  11.175   6.756   4.560  0.2842  0.4086  0.8539
27733SOL    HW285207  11.091   6.751   4.686 -0.9041  0.4171  0.0775
27734SOL     OW85208   0.678   2.530  10.697 -0.2940  0.0851  0.0024
27734SOL    HW185209   0.748   2.469  10.674  0.3991  0.7009  0.4308
27734SOL    HW285210   0.677   2.593  10.626  0.6394  0.9536  0.7192
27735SOL     OW85211   6.319   2.173  11.152 -0.2712  0.6130  0.2701
27735SOL    HW185212   6.356   2.181  11.240 -1.3149 -1.6971  1.0130
27735SOL    HW285213   6.322   2.079  11.133 -0.2039  1.0321 -2.1372
27736SOL     OW85214   4.887   9.269   7.825  0.4244 -0.2390 -0.1915
27736SOL    HW185215   4.926   9.221   7.898  2.3389  0.4130 -0.7202
27736SOL    HW285216   4.828   9.332   7.867 -0.7854 -1.8301  0.5921
27737SOL     OW85217   4.229   5.075   1.565  0.3661  1.0407 -0.1024
27737SOL    HW185218   4.171   5.041   1.497 -0.5284  0.9471  0.6921
27737SOL    HW285219   4.296   5.008   1.575 -1.6314 -0.8319  1.7929
27738SOL     OW85220   4.931   6.745   0.849  0.0446 -0.0508 -0.6761
27738SOL    HW185221   4.862   6.780   0.904  1.1485  2.1674 -0.6225
27738SOL    HW285222   4.993   6.704   0.910 -0.1559 -0.1458 -0.5375
27739SOL     OW85223   8.091   3.205  11.005  0.0672  0.2240 -0.9083
27739SOL    HW185224   8.076   3.161  11.089 -2.7007 -0.5554 -1.6832
27739SOL    HW285225   8.018   3.267  10.998  0.4680  0.5336 -2.5537
27740SOL     OW85226   9.879   9.373   8.708  0.5147 -0.0931  0.4423
27740SOL    HW185227   9.824   9.364   8.786 -1.3971  0.8321 -0.7187
27740SOL    HW285228   9.886   9.285   8.673 -2.4040  0.0272 -0.7289
27741SOL     OW85229   1.124   0.148   3.397 -0.3299 -0.1435  0.2863
27741SOL    HW185230   1.041   0.100   3.406 -0.0843 -0.6643 -0.0994
27741SOL    HW285231   1.178   0.090   3.343  0.3872  0.0636  0.7707
27742SOL     OW85232  10.723  10.836   2.131  0.2331  0.0240 -0.4157
27742SOL    HW185233  10.669  10.808   2.057  0.7715 -1.5928 -0.2441
27742SOL    HW285234  10.796  10.774   2.133  0.9383  0.8285  0.6846
27743SOL     OW85235   4.385   4.609  10.758 -0.3035  0.0381 -0.0158
27743SOL    HW185236   4.380   4.649  10.671 -2.3127  0.1185  0.0873
27743SOL    HW285237   4.294   4.600  10.786  0.1939 -1.9381  1.2056
27744SOL     OW85238   3.894  10.883   3.608  0.0955 -0.2926  0.0977
27744SOL    HW185239   3.806  10.917   3.589  0.0913 -0.3435  0.0247
27744SOL    HW285240   3.943  10.959   3.639  0.2114 -0.1240 -0.4782
27745SOL     OW85241   4.320   5.458   5.419  0.7140  0.6258  0.3169
27745SOL    HW185242   4.329   5.548   5.451 -2.1229  2.3171 -2.9992
27745SOL    HW285243   4.231   5.433   5.444  1.3362 -1.1959  0.8583
27746SOL     OW85244   9.364   6.675   7.500  0.2275 -0.2148 -0.3337
27746SOL    HW185245   9.384   6.640   7.587  0.2627  0.4950 -0.0501
27746SOL    HW285246   9.411   6.758   7.496 -2.0382  1.1554  0.0821
27747SOL     OW85247   1.377   6.666   7.457  0.2439 -1.1107  0.3075
27747SOL    HW185248   1.467   6.684   7.433  0.2362 -0.2894  0.8694
27747SOL    HW285249   1.373   6.682   7.551 -0.9309  0.8233 -0.0187
27748SOL     OW85250   4.964   5.262   1.901 -0.4705  0.2687 -0.4171
27748SOL    HW185251   4.896   5.199   1.876 -0.5044  0.4471 -0.7831
27748SOL    HW285252   5.033   5.209   1.939 -0.6194  0.0362 -0.4668
27749SOL     OW85253   9.608   2.525   9.348  0.5840  0.7961 -0.2676
27749SOL    HW185254   9.594   2.508   9.255  1.7834 -0.1575 -0.2942
27749SOL    HW285255   9.549   2.464   9.393 -0.3209  1.5637 -0.3813
27750SOL     OW85256   8.707  11.121   6.431  0.3322  0.1426  0.4509
27750SOL    HW185257   8.779  11.144   6.372 -0.0093  0.6572  0.2202
27750SOL    HW285258   8.643  11.191   6.417 -0.4433 -0.5949  0.2471
27751SOL     OW85259   1.177   2.472   5.572  0.3592  0.0224 -0.1285
27751SOL    HW185260   1.173   2.394   5.517 -0.1464 -0.4128  0.5258
27751SOL    HW285261   1.133   2.540   5.520  0.6580 -0.1587 -0.6262
27752SOL     OW85262   8.590   0.450   4.952  0.2318 -0.3075  0.8380
27752SOL    HW185263   8.665   0.507   4.971 -0.7670  1.6145 -0.6025
27752SOL    HW285264   8.518   0.510   4.934 -1.3088 -2.0815  0.7488
27753SOL     OW85265  11.153   8.367   3.157  0.9183  0.3236  0.4925
27753SOL    HW185266  11.219   8.433   3.178  0.7266  1.3981 -2.0034
27753SOL    HW285267  11.086   8.414   3.107 -0.0496 -1.4469  0.0192
27754SOL     OW85268   6.686   5.857   2.038  0.0935 -0.5022  0.3966
27754SOL    HW185269   6.754   5.839   1.973  0.1183 -3.4967  1.1006
27754SOL    HW285270   6.692   5.783   2.099 -1.3965  1.0529  2.5564
27755SOL     OW85271   1.627  11.215   6.471  0.6421  0.1613  0.3553
27755SOL    HW185272   1.585  11.263   6.399 -0.8094 -0.5920  0.6441
27755SOL    HW285273   1.631  11.278   6.543  1.9331  0.8648 -0.3092
27756SOL     OW85274   9.924   1.757   5.858 -0.2383  0.3238  0.0629
27756SOL    HW185275   9.970   1.674   5.874  1.4460  1.3745  0.9235
27756SOL    HW285276   9.886   1.746   5.771  0.6611 -1.0633 -0.1914
27757SOL     OW85277   7.041  11.038   0.478  0.2915  0.0996 -0.9540
27757SOL    HW185278   6.951  11.055   0.452 -0.1683  0.4523  0.7637
27757SOL    HW285279   7.049  10.942   0.475 -0.4381  0.0081 -0.2184
27758SOL     OW85280   1.868   5.861   2.951  0.1790 -0.3926  0.4796
27758SOL    HW185281   1.940   5.924   2.961 -0.3051  0.7821 -2.3273
27758SOL    HW285282   1.910   5.776   2.950  1.3910  0.1903  0.2337
27759SOL     OW85283   4.547   5.326  10.914  0.1290  0.4108 -0.1764
27759SOL    HW185284   4.456   5.355  10.908  0.3333  1.2834  0.6305
27759SOL    HW285285   4.571   5.304  10.824 -0.5933  1.0769 -0.5451
27760SOL     OW85286  10.658   5.525   0.073  0.2075 -0.0066  0.4242
27760SOL    HW185287  10.717   5.587   0.030 -0.0147  0.2208  0.4501
27760SOL    HW285288  10.666   5.445   0.022 -0.2372  0.3356 -0.1896
27761SOL     OW85289   3.075   7.697   4.159 -0.6976 -0.3510  0.4375
27761SOL    HW185290   3.045   7.722   4.072  0.9822  0.7163  0.1215
27761SOL    HW285291   3.042   7.766   4.217  0.6936  0.5918  0.1539
27762SOL     OW85292   3.859   4.822  10.931  0.1877  0.2334 -0.1657
27762SOL    HW185293   3.815   4.900  10.965 -0.0914 -0.2344  0.5791
27762SOL    HW285294   3.889   4.847  10.844  0.1468  1.1886  0.0829
27763SOL     OW85295   0.451   2.362   7.863 -0.1773  0.0344 -0.3487
27763SOL    HW185296   0.433   2.334   7.774 -0.4832  0.6693 -0.4909
27763SOL    HW285297   0.427   2.287   7.917 -0.1715 -0.2829 -0.7854
27764SOL     OW85298   3.476   3.954   3.720  0.3567 -0.5638  0.3364
27764SOL    HW185299   3.456   4.029   3.664  1.0490  0.0154  0.8490
27764SOL    HW285300   3.392   3.931   3.759 -0.0874 -0.8145 -0.7229
27765SOL     OW85301   6.446   6.441   3.700 -0.3534 -0.4950 -0.0925
27765SOL    HW185302   6.491   6.520   3.728 -2.1521  0.3448  0.5359
27765SOL    HW285303   6.451   6.382   3.776 -3.6601  1.1059  1.5596
27766SOL     OW85304   0.703   5.313   8.543  0.1399  0.3236 -0.5317
27766SOL    HW185305   0.712   5.326   8.449  0.5740 -1.5430 -0.7902
27766SOL    HW285306   0.621   5.266   8.553  0.2308  0.2733  0.0069
27767SOL     OW85307   5.984   7.301   4.105  0.1495  0.1129 -0.5453
27767SOL    HW185308   5.986   7.265   4.194 -0.6714  0.3759 -0.4086
27767SOL    HW285309   5.948   7.389   4.116 -0.0551  0.1070 -1.1487
27768SOL     OW85310   9.830   4.520   9.740  0.3815  0.5030  0.2878
27768SOL    HW185311   9.765   4.589   9.748  0.5722  0.6102  0.9706
27768SOL    HW285312   9.798   4.465   9.668 -1.3626 -0.4137  1.6774
27769SOL     OW85313   9.423   9.120   5.937 -0.4643 -0.3699 -0.0823
27769SOL    HW185314   9.372   9.200   5.941  0.1898  0.0097  1.3700
27769SOL    HW285315   9.493   9.132   6.002  2.8905  0.0810 -3.4310
27770SOL     OW85316   9.284  10.311   0.225  0.2216  0.2525 -0.2004
27770SOL    HW185317   9.310  10.219   0.215  0.3756  0.2000  0.6053
27770SOL    HW285318   9.263  10.340   0.136 -1.0342 -0.9066 -0.3144
27771SOL     OW85319   5.165   7.242   4.088 -0.0412  0.2362 -0.3141
27771SOL    HW185320   5.103   7.215   4.020  0.1181 -0.8684 -0.0425
27771SOL    HW285321   5.123   7.316   4.132 -0.3324  0.6895 -1.3321
27772SOL     OW85322   4.189   0.022   1.788 -0.6918 -1.0489  0.7008
27772SOL    HW185323   4.222  -0.056   1.831 -1.9746 -1.4345  1.0112
27772SOL    HW285324   4.231   0.095   1.834 -0.5303 -1.5119  1.2948
27773SOL     OW85325   3.902   7.227   0.364 -0.2586 -0.3082  0.8655
27773SOL    HW185326   3.912   7.151   0.422 -0.3266 -0.3120  0.8734
27773SOL    HW285327   3.899   7.302   0.423  3.0542  0.0712  0.7294
27774SOL     OW85328  10.996   1.792  11.133 -0.4698 -0.0822  0.2539
27774SOL    HW185329  11.041   1.757  11.210 -2.4255 -0.4904  1.2777
27774SOL    HW285330  10.933   1.723  11.109 -0.3756  0.3334 -1.3046
27775SOL     OW85331   3.493   1.613  11.172  0.6118  0.8993  1.1106
27775SOL    HW185332   3.493   1.523  11.140 -3.2075  1.0959  0.0236
27775SOL    HW285333   3.506   1.666  11.094  1.5162  1.3319  1.5452
27776SOL     OW85334   7.607   4.892   7.089  1.0852 -0.3807 -0.7455
27776SOL    HW185335   7.605   4.815   7.145  3.2247 -1.5010 -2.0523
27776SOL    HW285336   7.693   4.932   7.106  0.2861  1.3515 -0.5842
27777SOL     OW85337   0.641   8.263   5.002 -0.1286  0.1152 -0.0768
27777SOL    HW185338   0.631   8.354   5.028  0.4310 -0.0179  0.6376
27777SOL    HW285339   0.598   8.257   4.917 -2.3160  0.4917  0.9341
27778SOL     OW85340   0.480   4.071   2.812  0.7720  0.1458 -0.2290
27778SOL    HW185341   0.389   4.054   2.790  0.6184 -0.5849  0.9212
27778SOL    HW285342   0.530   4.028   2.742  0.2704 -1.4303  0.3365
27779SOL     OW85343   5.538   5.096   0.076  0.0450 -0.2454 -0.3942
27779SOL    HW185344   5.498   5.183   0.066  1.3286  0.2526 -1.5406
27779SOL    HW285345   5.544   5.083   0.170  2.2725  2.1416 -0.0885
27780SOL     OW85346   5.085  10.798   8.994  0.2982 -0.2029 -0.2672
27780SOL    HW185347   5.101  10.704   8.988  0.4182 -0.1527 -0.7701
27780SOL    HW285348   5.006  10.805   9.048 -0.2267 -0.6411 -0.9540
27781SOL     OW85349   9.688   6.275   6.997  0.2248  0.1433 -0.9808
27781SOL    HW185350   9.764   6.333   7.006  1.1090 -0.9521 -1.1657
27781SOL    HW285351   9.641   6.310   6.921 -0.5875  2.0323  0.2980
27782SOL     OW85352   2.894   4.082   0.364  0.4791 -0.0942 -0.4381
27782SOL    HW185353   2.864   4.048   0.449  1.5819 -2.5180 -0.9310
27782SOL    HW285354   2.949   4.013   0.329  2.3178  1.9808 -1.9373
27783SOL     OW85355   0.794   5.988   7.514 -0.7366 -0.0362  0.4328
27783SOL    HW185356   0.878   5.941   7.517 -0.1992  0.9618  1.9524
27783SOL    HW285357   0.817   6.077   7.487 -1.7656 -0.5512 -2.5945
27784SOL     OW85358   0.889   9.504   9.746 -0.0710  0.1315  0.0748
27784SOL    HW185359   0.920   9.570   9.684  1.0304  0.0510  0.5184
27784SOL    HW285360   0.884   9.423   9.694  0.3312  0.1788 -0.0365
27785SOL     OW85361   0.493   4.945  10.802  0.1588 -0.2529 -0.6985
27785SOL    HW185362   0.496   4.859  10.760 -1.0026 -1.5477  1.6521
27785SOL    HW285363   0.554   4.939  10.875 -2.0824 -0.2662  1.3312
27786SOL     OW85364   4.524   6.166   2.222  0.3465  0.6154  0.4566
27786SOL    HW185365   4.496   6.214   2.299 -4.4476 -0.1117 -0.5270
27786SOL    HW285366   4.506   6.225   2.148  1.0526 -0.1587 -0.3698
27787SOL     OW85367   5.054   1.701   0.504 -0.2245 -0.1728  0.4454
27787SOL    HW185368   4.969   1.743   0.517 -1.2611 -1.8190 -0.5324
27787SOL    HW285369   5.114   1.772   0.483 -1.0764  1.1591  2.2470
27788SOL     OW85370   3.333  10.526  11.005  0.1559  0.3463  0.1915
27788SOL    HW185371   3.364  10.544  11.093 -0.1635  1.2149  0.1365
27788SOL    HW285372   3.238  10.541  11.009  0.2379  1.1519 -0.4641
27789SOL     OW85373   0.064   2.202   5.992  0.2130  0.6153 -0.5822
27789SOL    HW185374   0.032   2.167   6.075  0.3341  0.0309 -0.7751
27789SOL    HW285375   0.018   2.150   5.925 -0.1320  1.2980 -0.8910
27790SOL     OW85376   5.997   4.484   2.662 -0.0220  0.2896  0.1118
27790SOL    HW185377   6.081   4.500   2.706 -0.0703 -1.1453  0.7622
27790SOL    HW285378   5.989   4.557   2.600  0.4474  1.9199  1.8631
27791SOL     OW85379  10.681  11.198   1.004 -0.3049  0.1630  0.1111
27791SOL    HW185380  10.625  11.141   0.951  2.0052 -1.3748 -0.8098
27791SOL    HW285381  10.694  11.276   0.950 -0.7026  0.0959 -0.0849
27792SOL     OW85382   3.354  10.158   3.460 -0.1349 -0.3191 -0.5085
27792SOL    HW185383   3.426  10.222   3.467  0.4061 -1.0224  0.9169
27792SOL    HW285384   3.395  10.075   3.482 -0.9467 -1.0975 -1.8315
27793SOL     OW85385   7.371   6.954   2.594  0.1960  0.3268  0.4722
27793SOL    HW185386   7.458   6.972   2.558 -1.1328  4.8242 -1.1972
27793SOL    HW285387   7.375   6.986   2.684  0.5804 -0.8669  0.9046
27794SOL     OW85388   1.755   8.587   6.620  0.2588  0.5460  0.2995
27794SOL    HW185389   1.744   8.537   6.538  1.7449 -0.3103  0.5975
27794SOL    HW285390   1.828   8.646   6.602  2.2124 -1.3049  1.7191
27795SOL     OW85391   6.770   2.668   0.255  0.4934 -0.7066  0.0123
27795SOL    HW185392   6.806   2.580   0.242 -0.2523 -1.1897  1.0919
27795SOL    HW285393   6.680   2.661   0.222  0.4920 -0.2945 -0.0713
27796SOL     OW85394   2.533   3.327   4.948  0.2556  0.6334 -0.3029
27796SOL    HW185395   2.438   3.331   4.940  0.2188  1.7130  0.4131
27796SOL    HW285396   2.549   3.338   5.042  1.0344 -1.0735 -0.2102
27797SOL     OW85397   3.455   9.716   2.610 -0.0696  1.0476 -0.6003
27797SOL    HW185398   3.467   9.808   2.588 -0.0152  0.7851 -1.7545
27797SOL    HW285399   3.370   9.713   2.655 -0.0943  1.6497 -0.5964
27798SOL     OW85400   2.734   4.042   8.994  1.1243 -0.0398  0.5472
27798SOL    HW185401   2.725   3.948   8.982  2.0198 -0.1270  0.4591
27798SOL    HW285402   2.649   4.078   8.970  0.8811 -0.7953  0.2446
27799SOL     OW85403   9.909  10.758   6.184  0.3122  0.3023  0.4598
27799SOL    HW185404   9.923  10.818   6.111 -0.3565 -0.0920 -0.0071
27799SOL    HW285405   9.851  10.690   6.148 -1.5786  1.0945  1.8730
27800SOL     OW85406   4.817   5.653   1.696  0.4058  0.8336 -0.3486
27800SOL    HW185407   4.784   5.733   1.736  0.2464  1.8354 -2.3835
27800SOL    HW285408   4.835   5.676   1.605 -3.5758 -2.3572 -2.2749
27801SOL     OW85409   5.857   7.904   8.425 -0.6771  0.3154 -0.7606
27801SOL    HW185410   5.813   7.975   8.378  0.2318  0.0533 -2.0625
27801SOL    HW285411   5.932   7.883   8.371  0.7880  0.4004  1.1273
27802SOL     OW85412   4.208   5.194   6.771  0.2036  0.4873 -0.7412
27802SOL    HW185413   4.235   5.286   6.779  0.4044  0.3544  0.1980
27802SOL    HW285414   4.219   5.158   6.859 -0.7592 -0.2018 -0.8888
27803SOL     OW85415  10.358   3.910   7.788  0.4049 -0.0879 -0.6905
27803SOL    HW185416  10.292   3.844   7.812 -0.1862  0.7097 -0.0791
27803SOL    HW285417  10.412   3.919   7.866 -0.3139  1.0818 -0.3031
27804SOL     OW85418   9.077  10.084   4.809 -0.0514 -0.1701 -0.1440
27804SOL    HW185419   9.139  10.145   4.848  1.7187 -0.1180 -2.8182
27804SOL    HW285420   9.004  10.082   4.871  0.4286  3.5083  0.7466
27805SOL     OW85421   2.097   5.937   7.453 -0.2542  0.5254 -0.0615
27805SOL    HW185422   2.069   5.983   7.374 -2.4643 -1.8101 -0.7701
27805SOL    HW285423   2.027   5.875   7.471  2.4008 -2.5061  0.8647
27806SOL     OW85424   9.466   3.950   1.825 -0.0168 -0.0409 -0.5608
27806SOL    HW185425   9.480   3.986   1.737  0.3990  0.9021 -0.1180
27806SOL    HW285426   9.524   4.001   1.881 -0.2800 -0.6416  0.2628
27807SOL     OW85427   4.647   5.787   5.580 -0.1885 -0.5813 -0.0004
27807SOL    HW185428   4.571   5.775   5.522 -0.1243 -0.0955 -0.1915
27807SOL    HW285429   4.660   5.882   5.582  1.9783 -0.7708 -2.0079
27808SOL     OW85430  10.330   2.521   1.989  0.2457 -0.0786 -0.0709
27808SOL    HW185431  10.393   2.461   1.949  0.4645  0.4418 -0.5295
27808SOL    HW285432  10.377   2.605   1.995 -0.2802  0.2243 -0.0913
27809SOL     OW85433   0.493   7.201   8.392 -0.3826  0.2438 -0.3519
27809SOL    HW185434   0.502   7.171   8.483  0.3644  1.0365 -0.1504
27809SOL    HW285435   0.476   7.121   8.342  2.9025 -0.8134 -0.0400
27810SOL     OW85436   1.256   7.134   8.124  0.2102 -0.3169  0.3476
27810SOL    HW185437   1.288   7.072   8.190  1.0120 -0.2233  0.0595
27810SOL    HW285438   1.176   7.171   8.163 -0.0525 -1.2204  0.6959
27811SOL     OW85439   7.772   7.574   1.922 -0.3860  0.3155  0.2417
27811SOL    HW185440   7.707   7.586   1.853  0.8639 -1.1016 -1.2768
27811SOL    HW285441   7.855   7.562   1.875  0.3328 -1.9370  1.9047
27812SOL     OW85442   4.981   7.881   6.858  0.1229  0.1652 -0.3833
27812SOL    HW185443   5.045   7.855   6.923  0.5620 -2.0101 -1.5880
27812SOL    HW285444   5.032   7.894   6.778 -0.5228  1.8254 -0.5551
27813SOL     OW85445   8.788   5.371   0.775 -0.6167  0.4327  0.1953
27813SOL    HW185446   8.716   5.321   0.736  1.6461 -2.0706 -1.1213
27813SOL    HW285447   8.817   5.317   0.849  0.9018  0.5598 -0.2839
27814SOL     OW85448   7.563   3.712   3.899  0.4174 -0.3594  0.0256
27814SOL    HW185449   7.544   3.740   3.810  0.8526 -0.7416 -0.1961
27814SOL    HW285450   7.480   3.679   3.932 -0.3734  2.0768  0.6603
27815SOL     OW85451  11.012   6.839   7.150 -0.0394  0.7407  0.0251
27815SOL    HW185452  11.070   6.900   7.196 -1.2440  1.4109  0.7407
27815SOL    HW285453  11.051   6.753   7.163  0.0535  1.0086  1.6952
27816SOL     OW85454   9.692   4.145   9.396 -0.2447 -0.1342 -0.2955
27816SOL    HW185455   9.620   4.110   9.342  0.3839 -1.1665 -0.4801
27816SOL    HW285456   9.771   4.123   9.347  0.2909 -0.3346  0.6493
27817SOL     OW85457   1.830   8.390   6.806 -0.2772 -0.0256  0.2296
27817SOL    HW185458   1.791   8.448   6.741  0.2136  1.8532  1.5309
27817SOL    HW285459   1.924   8.411   6.804 -0.2447  0.0249  1.4809
27818SOL     OW85460   9.946  10.655   2.545  0.3666 -0.2781  0.8230
27818SOL    HW185461   9.916  10.625   2.459  1.5533 -1.2554  0.7077
27818SOL    HW285462  10.012  10.722   2.525  0.6804 -0.5432  0.9588
27819SOL     OW85463   0.666   4.202   5.283 -0.7031 -0.0650 -0.1168
27819SOL    HW185464   0.660   4.175   5.191 -2.4268 -0.4111  0.0557
27819SOL    HW285465   0.732   4.143   5.321 -1.2201 -1.0936 -0.7571
27820SOL     OW85466   5.811   5.843   5.337  0.2537  0.4860  0.1074
27820SOL    HW185467   5.902   5.818   5.350  0.6384  0.0058 -2.7507
27820SOL    HW285468   5.800   5.925   5.386  1.7087 -0.2949  1.8190
27821SOL     OW85469   4.330   0.631   2.730 -0.1674 -0.3933 -0.3749
27821SOL    HW185470   4.359   0.689   2.660  0.1238 -1.4663 -1.1873
27821SOL    HW285471   4.321   0.545   2.687 -0.3399 -1.0005  0.8299
27822SOL     OW85472   9.407   5.138   3.876  0.7391 -0.2363 -0.2140
27822SOL    HW185473   9.326   5.093   3.903 -0.5288  1.3779 -1.1241
27822SOL    HW285474   9.468   5.067   3.856 -0.8082 -1.5363 -0.5718
27823SOL     OW85475  10.698   7.482   9.397 -0.7472  1.1089 -0.1688
27823SOL    HW185476  10.702   7.459   9.490  0.5091  1.4389 -0.1231
27823SOL    HW285477  10.674   7.401   9.353 -0.0354  0.6113  0.3322
27824SOL     OW85478   7.721   5.051   0.739 -0.3715  0.3982 -0.6910
27824SOL    HW185479   7.626   5.040   0.733 -0.7517 -0.4578  3.7085
27824SOL    HW285480   7.733   5.142   0.764  0.2729  1.1002 -3.2038
27825SOL     OW85481  10.019   6.917   8.123  0.3007 -0.1298  0.2679
27825SOL    HW185482  10.001   6.883   8.035  0.4181  0.9564 -0.1874
27825SOL    HW285483   9.943   6.891   8.175 -0.9857  1.3845 -0.7741
27826SOL     OW85484   2.455   1.712   1.690 -0.0370  0.0480  0.4022
27826SOL    HW185485   2.371   1.680   1.722 -0.3984  0.0557 -0.5181
27826SOL    HW285486   2.516   1.640   1.706 -0.2815 -0.0693  0.8057
27827SOL     OW85487   9.562   1.429   0.730 -0.2776 -0.5312  0.3225
27827SOL    HW185488   9.548   1.502   0.791 -0.3538  1.1065 -1.5612
27827SOL    HW285489   9.608   1.363   0.782 -0.1036  0.8967  2.0700
27828SOL     OW85490   6.346   8.342   4.426  0.2198  0.3739 -0.3128
27828SOL    HW185491   6.294   8.290   4.487  0.2277 -0.2834 -0.8458
27828SOL    HW285492   6.305   8.429   4.427  1.2375  0.8912  1.8552
27829SOL     OW85493   2.646   2.737   7.374 -1.0425 -0.8971  0.0116
27829SOL    HW185494   2.580   2.735   7.443  0.6820  0.5669  1.8374
27829SOL    HW285495   2.719   2.685   7.408  0.0518  0.2909 -0.3857
27830SOL     OW85496   9.626   5.036   6.902 -0.4014  0.2559 -0.3227
27830SOL    HW185497   9.596   4.956   6.946 -1.8753  0.1401 -1.4527
27830SOL    HW285498   9.643   5.010   6.812 -0.1692  1.0624 -0.5226
27831SOL     OW85499   0.500   2.493   4.440  0.1190 -0.8025  0.8421
27831SOL    HW185500   0.485   2.526   4.529 -0.7507  1.6777 -0.1492
27831SOL    HW285501   0.429   2.431   4.425 -1.8035  1.3011  0.7508
27832SOL     OW85502  11.024   5.318   1.360 -1.2011  0.5361  0.2465
27832SOL    HW185503  10.969   5.370   1.419 -0.7840  0.9294  0.2941
27832SOL    HW285504  11.065   5.383   1.302 -0.3641  0.3068  0.5621
27833SOL     OW85505   6.954   2.794   5.141 -0.5770  0.3337 -0.3711
27833SOL    HW185506   6.940   2.872   5.087 -0.6877  1.0183  0.6085
27833SOL    HW285507   6.879   2.792   5.201  1.3145  1.7908  2.2933
27834SOL     OW85508   2.501   6.477   5.251  1.2074 -0.0274 -0.9428
27834SOL    HW185509   2.544   6.562   5.257  0.6456  0.2357 -0.5405
27834SOL    HW285510   2.481   6.466   5.158  2.0783 -0.1278 -1.1222
27835SOL     OW85511   2.092   8.775   3.646 -0.0177 -0.1652  0.3315
27835SOL    HW185512   2.052   8.862   3.646  0.2326 -0.0197 -1.1606
27835SOL    HW285513   2.082   8.744   3.736 -2.1323  0.4728  0.3695
27836SOL     OW85514   3.184   6.429   1.804  0.3103 -0.4166 -1.0712
27836SOL    HW185515   3.188   6.361   1.871  0.9269  0.5068 -0.1311
27836SOL    HW285516   3.091   6.442   1.787  0.1533 -0.6452 -0.3796
27837SOL     OW85517   3.711   0.597   6.693  0.6549 -0.1657 -0.4610
27837SOL    HW185518   3.753   0.577   6.777 -1.1759  0.1934  0.6112
27837SOL    HW285519   3.783   0.618   6.634  1.9531  1.1199  1.4493
27838SOL     OW85520   0.616   3.400   2.418 -0.7104 -0.1192 -0.3906
27838SOL    HW185521   0.686   3.391   2.353 -0.6969 -2.7923 -0.1267
27838SOL    HW285522   0.628   3.323   2.475 -2.2400  0.8203  1.2706
27839SOL     OW85523   9.928   3.640   4.466  0.0744  0.0870 -1.2276
27839SOL    HW185524   9.894   3.601   4.385 -3.7926  1.3525 -0.4061
27839SOL    HW285525   9.930   3.734   4.448 -0.4485  0.3447 -0.0085
27840SOL     OW85526   4.670   0.635   3.315  0.4657  0.4619  0.3778
27840SOL    HW185527   4.763   0.654   3.330  1.0932 -1.8391 -0.1259
27840SOL    HW285528   4.637   0.712   3.269  1.6772  2.0558  2.0155
27841SOL     OW85529   1.392   7.444   5.967 -0.2341  0.3067  0.5916
27841SOL    HW185530   1.396   7.535   5.938 -0.3974  0.2442  0.3639
27841SOL    HW285531   1.442   7.395   5.901  0.5665  0.3335  1.1682
27842SOL     OW85532   7.416   5.674   9.912 -0.5970  0.3963  0.6655
27842SOL    HW185533   7.436   5.634   9.827 -1.6698  0.3480  0.4209
27842SOL    HW285534   7.459   5.618   9.976 -0.4151  0.0018  0.2054
27843SOL     OW85535   1.070   4.921   7.399 -0.1452  0.1464 -1.1536
27843SOL    HW185536   1.049   5.012   7.379 -1.3025 -0.0604 -0.9536
27843SOL    HW285537   0.999   4.893   7.457  1.1812 -0.3311  0.3173
27844SOL     OW85538   0.410   9.889   5.087  0.1269 -0.0739  0.3818
27844SOL    HW185539   0.467   9.952   5.132 -0.9050  0.3343  1.1575
27844SOL    HW285540   0.363   9.845   5.158 -1.0688  0.1325 -0.2765
27845SOL     OW85541   3.135   6.740   8.828  0.0970 -0.1108 -0.7597
27845SOL    HW185542   3.051   6.767   8.791 -1.0106  0.5507  1.9749
27845SOL    HW285543   3.183   6.822   8.841 -0.7595  0.0353  1.8928
27846SOL     OW85544   6.819   2.260   1.626 -0.2731 -0.4879  0.2587
27846SOL    HW185545   6.821   2.270   1.721 -0.2472  0.6360  0.1581
27846SOL    HW285546   6.891   2.200   1.607  0.6336  0.3677  0.8500
27847SOL     OW85547   1.942   6.859   4.305 -0.6691 -0.3701 -0.0433
27847SOL    HW185548   1.942   6.765   4.289  2.3538 -0.1596 -2.0916
27847SOL    HW285549   1.899   6.897   4.228 -2.3512 -0.0053  1.0099
27848SOL     OW85550  11.251   7.786   2.567 -0.7321  0.3822  0.8131
27848SOL    HW185551  11.204   7.866   2.545  0.0090  0.3648 -0.9873
27848SOL    HW285552  11.204   7.717   2.518  0.7108  0.2706 -0.4904
27849SOL     OW85553   1.076   0.546   2.709  0.0752 -0.0404 -0.1643
27849SOL    HW185554   1.103   0.505   2.791 -2.8120  0.9766  1.4623
27849SOL    HW285555   1.064   0.638   2.732 -0.4292  0.3320 -1.8218
27850SOL     OW85556   6.348   2.029   5.813  0.6005 -0.3861  0.4439
27850SOL    HW185557   6.262   2.069   5.830  1.3467  0.7676  1.6334
27850SOL    HW285558   6.344   2.004   5.720 -0.0968  1.9894 -0.2377
27851SOL     OW85559  10.472   9.062   5.689 -0.3668 -0.5731  0.2014
27851SOL    HW185560  10.387   9.098   5.665 -0.3602 -1.3336 -1.0163
27851SOL    HW285561  10.535   9.110   5.635  0.0498  0.2963  1.4128
27852SOL     OW85562   8.232   9.127   7.683  0.3944 -0.1561 -0.2817
27852SOL    HW185563   8.189   9.205   7.649  0.8746  0.5207  0.6305
27852SOL    HW285564   8.322   9.154   7.701  0.2034 -0.5144  1.3733
27853SOL     OW85565   0.413   0.651   1.806  0.2573 -0.3048 -0.2535
27853SOL    HW185566   0.360   0.572   1.790 -1.8712  1.0695 -0.3986
27853SOL    HW285567   0.444   0.677   1.719  0.9483 -0.9449 -0.2083
27854SOL     OW85568  10.903   7.130   2.594  0.2950  0.3755  0.3262
27854SOL    HW185569  10.819   7.138   2.549  1.1655 -0.7582 -1.6512
27854SOL    HW285570  10.917   7.035   2.602  0.4369  0.5332  2.5790
27855SOL     OW85571   7.733   6.562   6.689  0.3857 -0.2070  0.4797
27855SOL    HW185572   7.684   6.615   6.752  0.2624  0.6175 -0.2762
27855SOL    HW285573   7.766   6.626   6.625 -0.7787 -1.1630 -1.1336
27856SOL     OW85574   8.584  10.095   7.119  0.0632 -0.0938  0.0215
27856SOL    HW185575   8.498  10.083   7.159 -0.4470  0.9138 -0.7438
27856SOL    HW285576   8.628  10.158   7.175 -1.2428  2.5880 -1.7355
27857SOL     OW85577   2.098   7.389   9.478 -0.1100  0.1200 -0.1887
27857SOL    HW185578   2.121   7.472   9.518  2.0199 -0.4568 -0.1002
27857SOL    HW285579   2.053   7.340   9.547 -2.2042  1.4522 -0.5034
27858SOL     OW85580   4.070   4.580   1.636  0.6187  0.2366  0.5292
27858SOL    HW185581   4.019   4.523   1.579 -0.1684  2.3429 -1.0049
27858SOL    HW285582   4.123   4.633   1.576  3.7061 -0.9276  2.0094
27859SOL     OW85583   7.324   5.709   1.309  0.4020 -0.2394 -0.3805
27859SOL    HW185584   7.411   5.695   1.344  0.3251 -2.1091 -0.8352
27859SOL    HW285585   7.329   5.680   1.218 -0.6975 -0.3745 -0.4159
27860SOL     OW85586   1.437   6.312   4.398  0.2394 -0.5844  0.4250
27860SOL    HW185587   1.359   6.294   4.344 -0.2217  1.1449  0.4557
27860SOL    HW285588   1.419   6.268   4.481  1.2134 -3.8078 -0.8746
27861SOL     OW85589  10.085   3.482   2.442  0.0504 -0.0023 -0.3783
27861SOL    HW185590  10.007   3.502   2.391 -0.1394 -0.4242 -0.2613
27861SOL    HW285591  10.150   3.456   2.377 -0.1925 -0.5442 -0.4133
27862SOL     OW85592   7.549   4.546   0.003  1.0031 -0.1497 -0.3220
27862SOL    HW185593   7.500   4.629   0.001  1.0594 -0.0390  1.2326
27862SOL    HW285594   7.621   4.562   0.064  0.5785 -1.5529  0.6033
27863SOL     OW85595   8.912   3.108   7.696  0.4229  0.1543  0.0427
27863SOL    HW185596   8.865   3.162   7.758 -3.7291 -2.3080 -0.5439
27863SOL    HW285597   8.932   3.166   7.623  0.3678  1.8266  1.3077
27864SOL     OW85598   1.117  10.634   6.478 -0.5515 -0.1364  0.0142
27864SOL    HW185599   1.072  10.683   6.409 -0.0409 -1.6058 -1.4559
27864SOL    HW285600   1.187  10.692   6.507 -2.1066  1.3893  0.9272
27865SOL     OW85601   6.090   1.579   4.213  0.2688  0.1050  0.0543
27865SOL    HW185602   6.040   1.626   4.147  1.8156  2.8113  0.6622
27865SOL    HW285603   6.136   1.510   4.164  0.1667  1.0420 -1.4317
27866SOL     OW85604   8.620   0.214   1.049 -0.4104  0.0470  0.5716
27866SOL    HW185605   8.640   0.298   1.008 -0.5963 -0.8792 -1.6086
27866SOL    HW285606   8.706   0.174   1.065 -0.2787  1.0935  2.7397
27867SOL     OW85607   5.366   9.319   5.480  0.1129  0.3931 -0.1780
27867SOL    HW185608   5.439   9.284   5.430 -1.9683 -2.9294 -1.2429
27867SOL    HW285609   5.303   9.348   5.414 -1.7915 -2.0977  0.3920
27868SOL     OW85610   0.476   2.244   6.020  0.0002 -0.5611 -0.6849
27868SOL    HW185611   0.567   2.226   6.042 -0.4165 -1.9885 -0.0192
27868SOL    HW285612   0.428   2.224   6.100 -0.5935  3.6407  0.2203
27869SOL     OW85613   9.658   7.851   6.797  0.0597 -0.0077 -0.6269
27869SOL    HW185614   9.606   7.931   6.801  1.2365  0.8680 -1.7337
27869SOL    HW285615   9.605   7.785   6.841 -0.0891  1.8140  2.1758
27870SOL     OW85616   3.959   4.490   0.600 -0.2733  0.3307 -0.0744
27870SOL    HW185617   3.943   4.541   0.521  1.6566 -1.3073 -1.6666
27870SOL    HW285618   4.029   4.537   0.645 -1.4209  1.3024  0.7326
27871SOL     OW85619   5.755   0.795   4.436 -0.0319  0.2580 -0.1425
27871SOL    HW185620   5.757   0.875   4.383  2.5262  0.7746  0.6108
27871SOL    HW285621   5.826   0.742   4.401  0.1555 -0.4239  1.2225
27872SOL     OW85622   9.702   3.482   3.154 -0.7040 -0.0444 -0.4792
27872SOL    HW185623   9.616   3.514   3.181 -0.6594  0.4743 -0.9510
27872SOL    HW285624   9.734   3.547   3.092  0.7495  0.6632  0.9266
27873SOL     OW85625   6.416   5.012   6.948 -0.2069 -0.2337 -0.3699
27873SOL    HW185626   6.435   4.982   7.037  1.4786 -1.5520 -1.1102
27873SOL    HW285627   6.398   5.106   6.957  3.4893  0.5083  1.0211
27874SOL     OW85628   6.558   1.742   8.485 -0.2328  0.8723 -0.9604
27874SOL    HW185629   6.501   1.739   8.562  2.3518  0.5025  1.0776
27874SOL    HW285630   6.596   1.654   8.480 -0.0215  1.0246 -2.4469
27875SOL     OW85631   6.434   8.705   1.649  0.0977  0.0458 -0.2750
27875SOL    HW185632   6.506   8.753   1.690 -0.2771  0.3269  0.0586
27875SOL    HW285633   6.455   8.706   1.556  0.9940 -0.6635 -0.0938
27876SOL     OW85634  11.000   6.436   3.750 -0.0958  0.7511 -0.0665
27876SOL    HW185635  11.012   6.529   3.729 -0.3433  1.0768  1.1742
27876SOL    HW285636  11.004   6.432   3.845 -1.3250 -0.3443 -0.0429
27877SOL     OW85637   0.494   4.766   7.341  0.8830 -0.0882  0.1920
27877SOL    HW185638   0.507   4.861   7.343 -0.7664  0.2344  3.2880
27877SOL    HW285639   0.532   4.737   7.258  0.0418  3.4734 -1.6313
27878SOL     OW85640   7.315   3.044  10.093 -0.5918  0.2686  0.0122
27878SOL    HW185641   7.397   2.998  10.075  0.0479  1.4617 -0.1787
27878SOL    HW285642   7.327   3.081  10.181 -0.9827  0.3556  0.0308
27879SOL     OW85643   8.944   3.585   4.607  0.0165  0.0300 -0.1314
27879SOL    HW185644   8.865   3.554   4.563  0.7654 -2.3138  0.0622
27879SOL    HW285645   8.949   3.532   4.687  0.6744  1.6180  0.9363
27880SOL     OW85646   1.964  10.262   4.955 -0.5715 -0.0228  0.9001
27880SOL    HW185647   1.882  10.230   4.916  0.4080 -0.3252 -1.0599
27880SOL    HW285648   2.010  10.304   4.882  1.3465 -0.5197  1.7575
27881SOL     OW85649   8.183   3.432   3.630  0.0015  0.4480  0.0695
27881SOL    HW185650   8.185   3.393   3.543  0.3911  0.4685  0.0693
27881SOL    HW285651   8.261   3.487   3.634  0.0535  0.3501  0.4757
27882SOL     OW85652   2.074   9.033   7.832 -0.5277 -0.3070 -0.1518
27882SOL    HW185653   2.035   8.945   7.830 -0.1443 -0.5506  1.4859
27882SOL    HW285654   2.169   9.017   7.830 -0.4287 -0.0115  1.0525
27883SOL     OW85655   1.892   2.717   2.766  0.3577  0.1347  0.4803
27883SOL    HW185656   1.826   2.780   2.793 -0.2720  0.6456 -2.0362
27883SOL    HW285657   1.970   2.741   2.816 -0.9859  0.1909  2.7045
27884SOL     OW85658   5.236   9.322   3.028  0.2331  0.1576 -0.5097
27884SOL    HW185659   5.162   9.268   3.056  1.7643 -1.4609  0.6521
27884SOL    HW285660   5.287   9.335   3.108  1.1652  1.3044 -1.2679
27885SOL     OW85661  10.389  10.077   1.066  0.0773  0.0872  0.3006
27885SOL    HW185662  10.300  10.104   1.088  0.1788 -0.1526  1.0227
27885SOL    HW285663  10.389  10.071   0.970 -0.8982 -0.6590  0.3355
27886SOL     OW85664   5.012   4.654   9.014 -0.1426 -0.8355 -0.9538
27886SOL    HW185665   4.969   4.577   8.978 -2.3661 -0.7091  1.1479
27886SOL    HW285666   5.095   4.622   9.047 -0.8347 -2.2580 -0.5049
27887SOL     OW85667   1.564  10.457   9.606 -0.4037  0.1072  0.2357
27887SOL    HW185668   1.591  10.423   9.521 -4.8016  1.6101 -2.1028
27887SOL    HW285669   1.590  10.549   9.605  0.0979 -0.0211  0.8406
27888SOL     OW85670   2.316   0.466   4.683  0.1923  0.0618  0.7341
27888SOL    HW185671   2.349   0.539   4.735  0.2096  0.8104 -0.2973
27888SOL    HW285672   2.221   0.478   4.680  0.3435  1.1754 -1.0251
27889SOL     OW85673  11.024   0.825   0.493 -0.0648  0.2011 -0.5936
27889SOL    HW185674  11.106   0.836   0.445  0.4992 -1.6691 -0.1411
27889SOL    HW285675  10.959   0.871   0.440  1.2591  1.7841 -0.9273
27890SOL     OW85676   7.954  10.986   8.787 -0.2225  0.3840  0.1642
27890SOL    HW185677   7.859  11.003   8.781 -0.0042  1.4317 -0.6114
27890SOL    HW285678   7.963  10.893   8.766 -0.9386  0.6356 -1.4253
27891SOL     OW85679  10.167   7.999   3.218 -0.1604  0.6046 -0.2020
27891SOL    HW185680  10.257   7.966   3.209  0.4822  2.5911 -1.8608
27891SOL    HW285681  10.132   7.952   3.294  2.0683 -0.6572  0.1440
27892SOL     OW85682   2.675   9.398   6.925  0.4554 -0.8151  0.4109
27892SOL    HW185683   2.619   9.475   6.936  0.1457 -0.6790 -1.6157
27892SOL    HW285684   2.635   9.350   6.853  1.3739 -2.2172  0.7986
27893SOL     OW85685   2.210   9.415   4.236  0.4060  0.0791  0.3324
27893SOL    HW185686   2.237   9.423   4.328  0.8695 -3.6263  0.7002
27893SOL    HW285687   2.287   9.442   4.186  0.2250  1.9348  0.9971
27894SOL     OW85688   3.919   4.494   4.094 -0.3086  0.3870  0.6950
27894SOL    HW185689   3.836   4.497   4.047  0.6043  2.2879 -0.9365
27894SOL    HW285690   3.935   4.585   4.118  2.3479  0.4599 -1.0132
27895SOL     OW85691   2.841   1.976   0.089  0.3778  0.3758  0.7313
27895SOL    HW185692   2.773   1.940   0.032 -0.0679  1.0161  0.8581
27895SOL    HW285693   2.827   2.071   0.087 -0.1810  0.3563  2.5926
27896SOL     OW85694   1.589   9.735   7.067 -0.4245 -0.1227  0.1249
27896SOL    HW185695   1.538   9.654   7.068  1.0159 -1.0629 -0.4118
27896SOL    HW285696   1.586   9.767   7.157 -3.7126  1.0314 -0.2521
27897SOL     OW85697   7.762   9.302   7.325 -0.0553 -0.2140  0.3250
27897SOL    HW185698   7.709   9.225   7.303  0.6448 -0.9341  1.0958
27897SOL    HW285699   7.841   9.292   7.272 -0.4589  0.6171 -0.4731
27898SOL     OW85700   3.609   7.235   5.095  0.3354 -0.2425  0.3287
27898SOL    HW185701   3.641   7.252   5.006 -0.4508 -0.9523 -0.1041
27898SOL    HW285702   3.645   7.306   5.147  1.3283 -0.1602 -0.4359
27899SOL     OW85703   7.141   0.406   7.218  0.0836 -0.4115  0.7844
27899SOL    HW185704   7.232   0.425   7.240  0.0382 -1.9285  2.5557
27899SOL    HW285705   7.123   0.459   7.140  2.2540  0.4381  0.7991
27900SOL     OW85706   4.700   1.233   2.136  0.6554  0.5975 -0.1480
27900SOL    HW185707   4.616   1.274   2.161 -0.8858 -2.4889  0.1955
27900SOL    HW285708   4.685   1.202   2.047  0.8284 -1.3158  0.4550
27901SOL     OW85709   9.726   5.185   8.083 -0.5952 -0.2730 -0.1247
27901SOL    HW185710   9.673   5.106   8.087 -0.9161 -0.0508  0.0117
27901SOL    HW285711   9.709   5.230   8.166 -0.8703  0.2313 -0.4500
27902SOL     OW85712   5.164   9.056  11.100  0.4944 -0.1962 -0.0004
27902SOL    HW185713   5.209   8.976  11.073 -0.0753 -0.4206 -0.2937
27902SOL    HW285714   5.203   9.078  11.185  0.0312 -1.2850  0.5036
27903SOL     OW85715   6.818   0.401   2.044 -0.4259 -0.0660  0.0555
27903SOL    HW185716   6.908   0.417   2.072  0.0867 -1.1029 -0.9304
27903SOL    HW285717   6.769   0.393   2.126  0.7406 -1.4117  0.6540
27904SOL     OW85718   7.913   6.059   9.695 -0.0850 -0.1409  0.2809
27904SOL    HW185719   7.985   6.118   9.672  0.9179 -1.0886  0.9004
27904SOL    HW285720   7.869   6.042   9.612  2.2835 -1.9476 -0.7173
27905SOL     OW85721   8.795   5.963   6.529  0.2229  0.9092 -0.3586
27905SOL    HW185722   8.834   5.901   6.591 -1.5629  0.5278  0.4327
27905SOL    HW285723   8.775   6.040   6.582 -2.6730  0.0393 -0.0444
27906SOL     OW85724   4.706   5.631  10.450  0.0805  0.3273 -0.1302
27906SOL    HW185725   4.684   5.682  10.528  1.3865  0.3540  0.2335
27906SOL    HW285726   4.677   5.542  10.471  1.5695  0.0566  0.9254
27907SOL     OW85727   9.886   9.972   0.896 -0.2132  0.3176 -0.8294
27907SOL    HW185728   9.861   9.891   0.941 -0.4773 -0.9497 -3.1037
27907SOL    HW285729   9.835  10.040   0.939  1.4740 -0.2872  2.5049
27908SOL     OW85730   2.009   8.222  10.802 -0.2582 -0.4475 -0.1632
27908SOL    HW185731   2.047   8.289  10.859 -1.5541 -1.2829  1.7507
27908SOL    HW285732   1.986   8.270  10.722 -1.8903  1.6328  1.4323
27909SOL     OW85733   2.881   3.411   3.638  0.1263 -0.4325  0.1008
27909SOL    HW185734   2.798   3.446   3.604  1.3709  3.6736  0.7806
27909SOL    HW285735   2.930   3.387   3.559 -0.2440  0.8831 -0.5640
27910SOL     OW85736   4.305   6.879   8.745 -0.4261 -0.0100  0.2387
27910SOL    HW185737   4.298   6.919   8.658 -0.6735  0.9059  0.6713
27910SOL    HW285738   4.389   6.909   8.778 -1.1144  1.1537  1.0333
27911SOL     OW85739   2.314   2.870   1.786 -0.5292  0.2124 -0.0359
27911SOL    HW185740   2.226   2.831   1.787 -0.4957  0.1486  0.3255
27911SOL    HW285741   2.373   2.796   1.794 -0.4758  0.3676  1.1899
27912SOL     OW85742   1.598   8.472  10.655 -0.4203 -0.0456  0.0307
27912SOL    HW185743   1.653   8.427  10.591 -1.5895  2.1489 -2.7608
27912SOL    HW285744   1.651   8.474  10.735  2.3461 -0.5281 -1.6506
27913SOL     OW85745   4.432   6.110  10.234  0.2390  0.1071 -0.2063
27913SOL    HW185746   4.425   6.021  10.268 -1.2539  0.2290 -0.1440
27913SOL    HW285747   4.450   6.164  10.311  1.1149 -0.1222 -0.2408
27914SOL     OW85748   5.459   9.152   7.623 -0.2138  0.2333  0.1466
27914SOL    HW185749   5.384   9.200   7.657 -0.5403  0.8505 -1.3401
27914SOL    HW285750   5.442   9.061   7.646 -2.5211  0.0466 -1.9377
27915SOL     OW85751   4.349   9.870   4.071  0.0094 -0.6135 -0.4441
27915SOL    HW185752   4.297   9.886   4.150  0.4626 -0.0517 -0.2514
27915SOL    HW285753   4.291   9.894   3.999  0.1984  0.6388 -0.2098
27916SOL     OW85754   7.373   3.480   9.247 -0.2580  0.1004  0.0636
27916SOL    HW185755   7.412   3.492   9.160 -1.4144  0.3992 -0.4489
27916SOL    HW285756   7.310   3.552   9.254 -0.0477  0.1791  1.2339
27917SOL     OW85757   2.570   0.821   3.488 -0.1211  0.6153  0.5214
27917SOL    HW185758   2.520   0.742   3.508  0.7720  0.4379  2.1577
27917SOL    HW285759   2.656   0.806   3.525  0.3494  2.0047  0.0581
27918SOL     OW85760   6.435   5.658  10.406  0.3991 -1.0545  0.1252
27918SOL    HW185761   6.520   5.682  10.442  0.7440  1.6361 -2.1024
27918SOL    HW285762   6.453   5.580  10.353  1.6317 -0.2969 -0.6276
27919SOL     OW85763  10.623   8.172   7.027 -0.1067  0.6079 -0.1637
27919SOL    HW185764  10.696   8.143   6.971 -0.2825  0.7386 -0.4634
27919SOL    HW285765  10.625   8.267   7.021 -0.4561  0.6041 -0.3749
27920SOL     OW85766   5.083   4.314   6.643  0.4566 -0.1643  0.0653
27920SOL    HW185767   5.059   4.354   6.726  0.4556  0.2513 -0.1340
27920SOL    HW285768   4.999   4.291   6.603  0.4802 -1.5428  0.7407
27921SOL     OW85769   4.270   0.567   9.904 -0.5189  0.4630 -0.3994
27921SOL    HW185770   4.319   0.488   9.879  1.7404  1.1216  1.5910
27921SOL    HW285771   4.261   0.616   9.822 -0.4094 -1.0035 -1.3361
27922SOL     OW85772   1.950   4.371   1.085 -0.8487 -0.8965 -0.4363
27922SOL    HW185773   1.969   4.297   1.027  0.1850 -0.3292 -0.8445
27922SOL    HW285774   2.033   4.389   1.129 -1.0378  0.1274 -0.4813
27923SOL     OW85775   2.283   7.660   7.994  0.5706  0.0761  0.2026
27923SOL    HW185776   2.203   7.622   7.958  0.5882  0.1709  0.0610
27923SOL    HW285777   2.270   7.658   8.089 -0.3623  1.6891  0.1444
27924SOL     OW85778   6.735   6.742   2.164  0.7433 -0.1253  0.2275
27924SOL    HW185779   6.664   6.801   2.191  0.9676  2.2613 -3.5995
27924SOL    HW285780   6.814   6.795   2.170  1.2976 -0.7290 -1.1671
27925SOL     OW85781   1.477   9.609   6.227 -0.2756 -0.1447  1.3267
27925SOL    HW185782   1.393   9.587   6.186 -0.2015 -0.9157  1.5635
27925SOL    HW285783   1.459   9.606   6.321 -0.1885  0.5508  1.3698
27926SOL     OW85784   9.464   0.430   5.628 -1.0797 -0.3222  0.3017
27926SOL    HW185785   9.394   0.370   5.656 -0.5278 -0.6296  1.0879
27926SOL    HW285786   9.481   0.484   5.705  0.2783 -0.9753  0.4913
27927SOL     OW85787   4.475   7.723   4.170 -0.3574  0.7336  0.0122
27927SOL    HW185788   4.475   7.782   4.245  0.9420  1.3851 -0.4606
27927SOL    HW285789   4.441   7.775   4.098 -1.2940  0.2104  0.0612
27928SOL     OW85790  10.966   3.926   1.361  0.1082 -0.5596 -0.1491
27928SOL    HW185791  10.899   3.975   1.408  0.0052 -1.5343  0.7449
27928SOL    HW285792  11.047   3.975   1.377 -0.3217  0.5133 -1.0749
27929SOL     OW85793   1.404   3.264   4.961 -0.1127  0.2393 -0.0871
27929SOL    HW185794   1.376   3.233   4.875 -0.3900 -1.0316  0.4427
27929SOL    HW285795   1.491   3.302   4.946  0.3172 -0.9547 -0.7472
27930SOL     OW85796   9.438   8.719   0.340  0.7142  0.1196  0.1480
27930SOL    HW185797   9.356   8.735   0.386  0.3260 -0.7430 -0.2168
27930SOL    HW285798   9.505   8.764   0.392 -0.0625  1.4031  0.0872
27931SOL     OW85799   1.273   6.388   2.224 -0.2239 -0.5925 -0.1004
27931SOL    HW185800   1.310   6.303   2.248 -0.6007 -0.5753  0.5831
27931SOL    HW285801   1.275   6.438   2.306  1.2922  0.5497 -0.8047
27932SOL     OW85802   6.475   7.255   2.452 -0.5259 -0.6272  0.1050
27932SOL    HW185803   6.550   7.205   2.418  0.6310  0.5236  0.8718
27932SOL    HW285804   6.512   7.310   2.521 -2.0857  0.0223  0.4689
27933SOL     OW85805   3.318   4.284   3.129  0.2593  0.3756 -0.2099
27933SOL    HW185806   3.268   4.203   3.134  0.9270  0.0068  0.7074
27933SOL    HW285807   3.311   4.311   3.037  0.0915 -0.7482 -0.5374
27934SOL     OW85808   1.005   1.465   3.303  0.0913 -0.0290  0.0011
27934SOL    HW185809   1.079   1.495   3.356  3.1224 -0.0117 -3.7299
27934SOL    HW285810   0.953   1.411   3.362  2.5447  0.7391  3.1594
27935SOL     OW85811   7.351   3.509   7.972  0.0247  0.0243  0.4627
27935SOL    HW185812   7.417   3.519   7.904 -0.6821  0.2940 -0.2019
27935SOL    HW285813   7.294   3.585   7.962 -0.0819  0.0788  1.3730
27936SOL     OW85814   2.309   4.745   1.603  0.4908  0.4043 -0.3788
27936SOL    HW185815   2.360   4.667   1.577 -0.7413 -1.4326  2.2913
27936SOL    HW285816   2.229   4.739   1.552 -0.2465 -0.9947  0.8741
27937SOL     OW85817   7.735   1.073   8.181 -0.7625  0.1077 -0.0093
27937SOL    HW185818   7.725   1.083   8.275  0.6269  0.8316  0.0914
27937SOL    HW285819   7.647   1.083   8.145 -1.0458  1.7031  1.0596
27938SOL     OW85820  10.350   9.135   2.935  0.2763  0.2427  0.4702
27938SOL    HW185821  10.312   9.127   2.847  1.3032 -1.8079  0.1613
27938SOL    HW285822  10.288   9.090   2.992 -1.1932  2.8973  1.1455
27939SOL     OW85823   2.822   0.255   1.590  0.1943 -0.0401  0.3324
27939SOL    HW185824   2.851   0.197   1.520  0.9389  0.7287 -0.0211
27939SOL    HW285825   2.752   0.307   1.550  0.8753  0.6620  0.0135
27940SOL     OW85826   0.647   4.430   1.322 -0.3806 -0.5234 -0.2507
27940SOL    HW185827   0.625   4.339   1.304 -0.2811 -0.5817 -0.0802
27940SOL    HW285828   0.564   4.477   1.319 -0.5435 -0.7533  0.4701
27941SOL     OW85829   2.239   2.435   6.667  0.3854  0.5153 -0.3389
27941SOL    HW185830   2.161   2.451   6.614 -0.0727 -2.1694 -0.5820
27941SOL    HW285831   2.312   2.448   6.607  0.0560  1.1187 -0.6245
27942SOL     OW85832   2.114   2.055   0.978  0.0538 -0.0740 -0.3844
27942SOL    HW185833   2.146   1.969   1.003  0.4581  0.0469 -0.4766
27942SOL    HW285834   2.057   2.082   1.051 -1.2322 -1.0196 -0.9994
27943SOL     OW85835   6.891   6.220   4.513  0.1251 -0.3132 -0.3336
27943SOL    HW185836   6.815   6.206   4.569 -1.1834  0.8519 -1.7157
27943SOL    HW285837   6.957   6.259   4.571  0.0091 -2.1105  1.0775
27944SOL     OW85838   1.526   3.686   5.209 -0.2886 -0.2616  0.3034
27944SOL    HW185839   1.585   3.630   5.259  0.0772  0.9540  1.3015
27944SOL    HW285840   1.578   3.764   5.188 -1.2437  0.4216  0.3656
27945SOL     OW85841   0.606  10.805   6.009 -0.3164 -0.3654  0.4156
27945SOL    HW185842   0.601  10.720   6.053 -2.7392  0.4346  1.8922
27945SOL    HW285843   0.559  10.792   5.926 -1.0584 -0.3894  0.8314
27946SOL     OW85844   4.395   8.594   2.527  0.6811  0.1314  0.6558
27946SOL    HW185845   4.316   8.606   2.579  1.1782 -0.8380  1.6724
27946SOL    HW285846   4.452   8.539   2.581  2.4441  1.5530  0.3403
27947SOL     OW85847   5.409   6.048   5.645  0.0882 -0.1581 -0.6540
27947SOL    HW185848   5.452   6.027   5.728  0.8037  0.1260 -0.9388
27947SOL    HW285849   5.445   5.983   5.584  0.9192  0.7153 -1.1286
27948SOL     OW85850  11.063   2.395   2.699  0.4104 -0.5500  0.6112
27948SOL    HW185851  11.012   2.459   2.749 -0.3835  0.1561 -1.0165
27948SOL    HW285852  11.022   2.311   2.719  0.0546 -0.2775  1.0656
27949SOL     OW85853   9.689   6.635   9.411  0.1695  0.2642  0.4347
27949SOL    HW185854   9.707   6.643   9.505  0.2641  1.3315  0.3354
27949SOL    HW285855   9.724   6.715   9.373 -0.2764  0.0456 -0.4543
27950SOL     OW85856   8.316   2.613   5.308  0.3062 -0.0085 -0.4689
27950SOL    HW185857   8.295   2.520   5.299  0.2604  0.0841 -1.3580
27950SOL    HW285858   8.256   2.658   5.249  0.8224  0.5253 -0.6030
27951SOL     OW85859   5.543   3.520   7.216  0.7779  0.0548 -0.1951
27951SOL    HW185860   5.513   3.445   7.268  1.1818 -0.3276 -0.5001
27951SOL    HW285861   5.469   3.540   7.159  2.0482 -2.9229 -3.2380
27952SOL     OW85862   6.981  10.121   0.467  0.0948  0.3301 -0.3657
27952SOL    HW185863   6.908  10.076   0.427  0.7265  0.9471 -2.3500
27952SOL    HW285864   6.942  10.196   0.511 -0.4833  0.7410 -1.5389
27953SOL     OW85865   4.513   9.563   8.440 -0.2441  0.3999  0.1868
27953SOL    HW185866   4.532   9.512   8.519 -1.6130  0.3931  0.5422
27953SOL    HW285867   4.580   9.537   8.377  1.4788  1.1222  1.6377
27954SOL     OW85868  10.233   0.598   2.340 -0.0872  0.0406  0.3185
27954SOL    HW185869  10.208   0.511   2.312  0.3729 -0.9285  2.7124
27954SOL    HW285870  10.209   0.655   2.266 -1.2115 -1.9486 -0.9313
27955SOL     OW85871   1.900   2.987   8.078  0.4214 -0.5253 -0.6523
27955SOL    HW185872   1.950   3.066   8.099 -0.2069 -0.3898  0.4045
27955SOL    HW285873   1.861   2.960   8.161 -0.2614 -1.3271 -1.2104
27956SOL     OW85874   8.110   2.655   3.541 -0.0295 -0.4042 -0.0672
27956SOL    HW185875   8.174   2.697   3.599 -1.3769  1.2400  0.2967
27956SOL    HW285876   8.089   2.573   3.586 -0.3284  0.3923  1.3170
27957SOL     OW85877   1.116   1.971   1.819 -0.1010 -0.4116  0.1207
27957SOL    HW185878   1.197   2.013   1.790 -0.1414  0.0470  0.6420
27957SOL    HW285879   1.064   1.959   1.740  0.1133  0.0951 -0.0959
27958SOL     OW85880   9.089   8.235   1.926 -0.8590  0.3487  0.4645
27958SOL    HW185881   9.001   8.219   1.961 -1.6185  2.4434 -0.3347
27958SOL    HW285882   9.077   8.303   1.860  0.9509 -1.3308 -1.7855
27959SOL     OW85883   9.394   7.992   9.173  0.4874  0.5558 -0.1551
27959SOL    HW185884   9.407   8.066   9.113  0.9075  0.3094 -0.3739
27959SOL    HW285885   9.331   7.936   9.128 -1.9905  2.0682  1.1876
27960SOL     OW85886   5.547   8.010   0.464 -0.2923 -1.0208  0.7760
27960SOL    HW185887   5.618   8.040   0.521  0.0210  1.3782 -0.7187
27960SOL    HW285888   5.469   8.018   0.518  0.3109 -1.5725  1.7641
27961SOL     OW85889   1.300   7.356   4.722  0.6439  0.5611  0.5963
27961SOL    HW185890   1.292   7.311   4.806  0.4218  0.4813  0.5330
27961SOL    HW285891   1.220   7.408   4.715  0.3047 -0.0200  0.0887
27962SOL     OW85892   1.214   6.266   7.138  0.6417 -0.0990  0.6272
27962SOL    HW185893   1.258   6.323   7.201 -0.0549  1.6433 -0.4109
27962SOL    HW285894   1.121   6.271   7.161  0.5727 -0.9180  0.5752
27963SOL     OW85895   0.282   6.191   1.838  0.0560 -0.6127  0.0507
27963SOL    HW185896   0.242   6.218   1.921 -0.2802 -0.6408 -0.1010
27963SOL    HW285897   0.238   6.244   1.772  0.8899  0.0034 -0.0398
27964SOL     OW85898   5.063   4.325   8.198 -0.3247  0.5457 -0.3791
27964SOL    HW185899   5.083   4.404   8.249  0.3041  1.6267 -2.2026
27964SOL    HW285900   5.148   4.286   8.180 -0.3698  1.1845 -2.0987
27965SOL     OW85901   9.380   7.208   5.795  0.3228  0.5217  0.6032
27965SOL    HW185902   9.384   7.217   5.890  0.2049 -0.2882  0.6893
27965SOL    HW285903   9.428   7.128   5.776 -0.9621 -0.1577  0.1229
27966SOL     OW85904   6.564  10.095   2.642  0.0226  0.5062  0.1802
27966SOL    HW185905   6.605  10.164   2.591  1.1988 -1.0903 -1.1284
27966SOL    HW285906   6.598  10.108   2.731  2.0093  0.3128 -0.5007
27967SOL     OW85907   9.934   2.898   8.146 -0.4470 -0.3265 -0.0198
27967SOL    HW185908   9.841   2.902   8.124 -0.5448 -0.4130  0.3674
27967SOL    HW285909   9.968   2.825   8.094 -0.4365  0.1652 -0.7217
27968SOL     OW85910   3.485   1.917   2.591 -0.6942 -0.3044 -0.5064
27968SOL    HW185911   3.553   1.870   2.641 -2.0766 -1.3339  0.4720
27968SOL    HW285912   3.476   1.866   2.510 -0.1993 -0.0713 -0.7127
27969SOL     OW85913   5.531   1.174   2.021 -0.7248 -0.1590 -0.6251
27969SOL    HW185914   5.577   1.137   2.097 -1.3975  0.6536  0.1943
27969SOL    HW285915   5.594   1.167   1.950  0.4228  0.2990  0.3143
27970SOL     OW85916   6.298  10.319   3.523 -0.3239  0.9278 -0.2397
27970SOL    HW185917   6.267  10.232   3.549  2.2201 -0.2345 -0.7764
27970SOL    HW285918   6.384  10.327   3.566  0.2804  2.3965 -1.6359
27971SOL     OW85919   5.315  10.247   4.022 -0.3509  0.1079  0.6887
27971SOL    HW185920   5.347  10.270   3.934 -1.5462  0.3419  0.2905
27971SOL    HW285921   5.375  10.292   4.082  0.1630  0.3794 -0.0133
27972SOL     OW85922   4.707   4.489   9.763  0.2097  0.0634 -0.2561
27972SOL    HW185923   4.780   4.461   9.708  0.1995  1.7272 -1.1769
27972SOL    HW285924   4.632   4.491   9.703 -0.4842 -1.0096  0.5349
27973SOL     OW85925  10.406   8.573   6.328  0.8689  0.1258 -1.0080
27973SOL    HW185926  10.480   8.627   6.357  1.2897 -0.4134 -1.0739
27973SOL    HW285927  10.376   8.529   6.406  0.7950  0.1247 -1.0365
27974SOL     OW85928   6.918   5.041   4.469  0.9194  0.2254  0.1723
27974SOL    HW185929   6.920   4.961   4.417 -0.6708  0.3583 -0.1609
27974SOL    HW285930   6.858   5.021   4.541  1.3201  0.7915  0.6733
27975SOL     OW85931  11.192   8.753   2.412  0.4675 -0.2096 -0.3126
27975SOL    HW185932  11.153   8.782   2.329 -0.1484 -0.2969 -0.0576
27975SOL    HW285933  11.286   8.749   2.394  0.6924  2.5949 -0.1883
27976SOL     OW85934  11.258   2.444   0.855 -0.4522 -0.2089  0.5293
27976SOL    HW185935  11.237   2.396   0.774 -1.5873  1.9809 -0.5534
27976SOL    HW285936  11.177   2.488   0.878  0.8169  2.1666  0.7465
27977SOL     OW85937   2.221   3.147   5.603  0.3036  0.2654  0.4007
27977SOL    HW185938   2.254   3.236   5.614 -0.7693  0.5524  1.4073
27977SOL    HW285939   2.128   3.158   5.584  0.3059 -0.6249 -0.1932
27978SOL     OW85940   2.276   1.571   0.493  0.1526 -0.0361 -0.1697
27978SOL    HW185941   2.317   1.496   0.450  0.3113  0.3989 -0.7760
27978SOL    HW285942   2.314   1.572   0.581  1.0447  0.0513 -0.5557
27979SOL     OW85943   5.308   4.957   9.487  0.3891 -0.6835  0.4150
27979SOL    HW185944   5.264   4.883   9.445  0.5612  0.2582 -1.5413
27979SOL    HW285945   5.257   4.972   9.567  0.2960 -2.8157  0.8243
27980SOL     OW85946   7.846   5.111   8.357 -0.0441  0.1162  0.3321
27980SOL    HW185947   7.801   5.196   8.356 -0.0050  0.1368  0.0267
27980SOL    HW285948   7.914   5.119   8.290 -0.5814 -0.4356 -0.2975
27981SOL     OW85949   2.126   0.201   6.159  0.7170  0.7079 -0.4313
27981SOL    HW185950   2.183   0.175   6.086  0.7339  0.7834 -0.4449
27981SOL    HW285951   2.146   0.293   6.173  0.9466  0.6137 -0.1229
27982SOL     OW85952   1.851   3.737   4.290 -0.6833 -0.5941  0.5011
27982SOL    HW185953   1.757   3.727   4.274 -0.9384  1.6930  0.2150
27982SOL    HW285954   1.891   3.737   4.203 -1.1058  3.4794  0.1056
27983SOL     OW85955   0.724   3.344  10.519 -0.4516 -0.1648 -0.4838
27983SOL    HW185956   0.813   3.375  10.505 -1.1653  1.6670 -1.2410
27983SOL    HW285957   0.700   3.301  10.436 -0.2305 -0.8099 -0.2195
27984SOL     OW85958   2.822   9.488   2.853 -0.2502 -0.5649 -0.2226
27984SOL    HW185959   2.811   9.552   2.782  0.8478 -1.3428 -1.1369
27984SOL    HW285960   2.786   9.406   2.817 -1.8939 -0.4396  1.0369
27985SOL     OW85961   2.953   3.048   7.325 -0.5263 -0.4730 -0.6927
27985SOL    HW185962   2.997   3.133   7.315 -0.9281 -0.1112  0.4780
27985SOL    HW285963   2.952   3.012   7.236 -2.0171  1.5704 -1.6089
27986SOL     OW85964   6.016   2.736   6.300  0.2319  0.6199 -0.2240
27986SOL    HW185965   6.036   2.811   6.355  0.4528  0.9604 -0.7597
27986SOL    HW285966   5.950   2.768   6.239 -2.6657 -0.6663  1.9845
27987SOL     OW85967   1.051   1.413   7.173  0.4649 -0.1052 -0.0443
27987SOL    HW185968   1.013   1.479   7.114 -1.7343 -0.8618  0.4219
27987SOL    HW285969   0.976   1.379   7.222  1.5815 -2.6925  0.0085
27988SOL     OW85970   1.803  10.922   2.954  0.5287  0.0323  0.3241
27988SOL    HW185971   1.735  10.979   2.918  1.3997  0.7784 -0.2172
27988SOL    HW285972   1.781  10.914   3.046  1.2224  2.6065  0.8033
27989SOL     OW85973   2.557   4.426  10.940  0.0239 -0.0059 -0.3262
27989SOL    HW185974   2.638   4.432  10.991 -0.5155  4.3448  0.4433
27989SOL    HW285975   2.489   4.413  11.006 -0.1837 -0.5576 -0.6451
27990SOL     OW85976   7.270  10.522   9.348 -0.3994 -0.3048 -0.0365
27990SOL    HW185977   7.197  10.463   9.369 -2.4415  1.5674 -1.4190
27990SOL    HW285978   7.333  10.466   9.303 -1.1922 -1.8945  0.7510
27991SOL     OW85979  10.674   4.326   5.149 -0.0269  0.3507 -0.3729
27991SOL    HW185980  10.606   4.270   5.112  0.6411  0.0616 -1.2053
27991SOL    HW285981  10.695   4.287   5.234 -0.0513 -0.2600 -0.6452
27992SOL     OW85982  10.978   5.496   0.997  0.0563  0.1876 -0.0332
27992SOL    HW185983  11.067   5.471   0.970  0.1041 -0.0077  0.2973
27992SOL    HW285984  10.940   5.415   1.032  0.8542  0.9244  2.7789
27993SOL     OW85985   2.277   3.838   7.838  0.2262  0.1835  0.4188
27993SOL    HW185986   2.193   3.812   7.875  0.1269 -0.5576 -0.3102
27993SOL    HW285987   2.318   3.890   7.908  0.0434 -1.1552  1.5692
27994SOL     OW85988   9.395   4.421   7.480 -0.6118 -0.0957  0.4160
27994SOL    HW185989   9.446   4.499   7.501  0.3593 -1.2458  2.5170
27994SOL    HW285990   9.335   4.451   7.411  0.7695  2.0855  0.0546
27995SOL     OW85991   7.611  10.709   6.724  0.6532  0.2310  0.1756
27995SOL    HW185992   7.633  10.792   6.767 -0.4622  1.4932 -1.5325
27995SOL    HW285993   7.592  10.649   6.796  1.5964  1.3995  1.4677
27996SOL     OW85994   4.401   1.810   3.421 -0.2123  0.4701 -0.0365
27996SOL    HW185995   4.382   1.878   3.357  2.8683  0.5595 -1.0354
27996SOL    HW285996   4.419   1.732   3.369  2.6248  0.6121  0.5569
27997SOL     OW85997   5.240   3.751  10.665 -0.2465 -0.4079  0.3836
27997SOL    HW185998   5.307   3.810  10.631  0.1902 -1.1766 -0.1287
27997SOL    HW285999   5.289   3.674  10.695 -0.9066 -1.0951 -0.2506
27998SOL     OW86000   5.987   3.934  10.505 -0.3733  0.4625  0.5547
27998SOL    HW186001   5.896   3.942  10.475  0.3194  1.0653 -1.6177
27998SOL    HW286002   5.987   3.859  10.564 -2.1231 -0.1338 -0.1330
27999SOL     OW86003   7.346   9.994   3.903  0.3675 -0.0180  0.4544
27999SOL    HW186004   7.273  10.041   3.863  2.1152  0.1046 -3.0295
27999SOL    HW286005   7.330   9.903   3.881  2.2677  0.2193 -2.6253
28000SOL     OW86006   3.383   1.274   5.866  0.1203 -0.4543 -0.0265
28000SOL    HW186007   3.364   1.323   5.946  3.2921 -0.3258  0.7553
28000SOL    HW286008   3.296   1.256   5.829 -1.4638  0.0669  3.0426
28001SOL     OW86009   9.602   1.797   7.642  0.1233 -0.3847 -0.1892
28001SOL    HW186010   9.527   1.823   7.589 -0.5286 -1.9248 -0.0710
28001SOL    HW286011   9.591   1.703   7.655  1.9070 -0.5854  0.1165
28002SOL     OW86012   7.529   5.656   5.275 -0.3007  0.1615  0.6554
28002SOL    HW186013   7.447   5.680   5.232 -0.3223  0.4857  0.8718
28002SOL    HW286014   7.503   5.594   5.343 -0.0973 -1.5236 -0.7303
28003SOL     OW86015   4.050   3.905   7.564 -0.0240 -0.3462 -0.5483
28003SOL    HW186016   4.046   3.868   7.475 -0.8379  0.7310 -0.9765
28003SOL    HW286017   3.962   3.891   7.599  0.0682 -0.0504 -0.2003
28004SOL     OW86018   5.355   7.624  10.172  0.0950  0.4233 -0.4474
28004SOL    HW186019   5.280   7.570  10.146  0.6513 -0.3092 -0.5804
28004SOL    HW286020   5.417   7.614  10.099 -0.0160  1.7082 -0.7402
28005SOL     OW86021  10.325   3.619   0.787 -0.2753  0.3768  1.0144
28005SOL    HW186022  10.393   3.675   0.750 -0.6538  0.3691  0.2709
28005SOL    HW286023  10.372   3.549   0.831  0.2244 -0.2962 -0.5181
28006SOL     OW86024   1.621   5.978   6.386 -0.1940 -0.1816  0.0515
28006SOL    HW186025   1.622   5.882   6.387 -3.3234 -0.3043 -0.4611
28006SOL    HW286026   1.641   6.002   6.477  1.4230 -1.2269  0.0217
28007SOL     OW86027   1.534   6.906   5.269  0.0684  0.3573 -0.1146
28007SOL    HW186028   1.518   6.962   5.194 -3.0172 -0.4808 -0.2275
28007SOL    HW286029   1.567   6.824   5.232 -2.5743 -0.4961 -0.8465
28008SOL     OW86030   8.949   2.297   4.551 -0.4709 -0.0054 -0.2884
28008SOL    HW186031   8.894   2.281   4.474  1.1700 -1.8318 -1.1791
28008SOL    HW286032   8.907   2.246   4.620 -0.8152 -0.0529 -0.5288
28009SOL     OW86033   9.938  10.787   3.267  0.0554 -0.3618 -0.5240
28009SOL    HW186034   9.897  10.792   3.180 -0.6491 -0.0443 -0.1791
28009SOL    HW286035   9.865  10.774   3.327  0.2956  1.5870  0.2514
28010SOL     OW86036   5.271   6.619   8.644  0.3873 -0.2451  0.5308
28010SOL    HW186037   5.215   6.573   8.582  0.3686  1.2548 -0.6238
28010SOL    HW286038   5.355   6.627   8.598 -0.1085  2.3480 -0.0661
28011SOL     OW86039   5.865  11.282   0.082 -0.3361 -0.1444 -0.7491
28011SOL    HW186040   5.813  11.300   0.160 -1.2744 -0.3960 -1.2965
28011SOL    HW286041   5.852  11.359   0.026 -1.2621 -0.8132 -1.4754
28012SOL     OW86042   9.595   8.876   8.026 -0.5711  0.3311  0.2495
28012SOL    HW186043   9.564   8.788   8.008 -0.8565  0.2570  1.0393
28012SOL    HW286044   9.656   8.866   8.099 -1.0541  0.8473  0.7366
28013SOL     OW86045   1.690   2.569   2.371  0.2035  0.4836 -0.9458
28013SOL    HW186046   1.769   2.622   2.365 -0.0958  1.0329 -0.1963
28013SOL    HW286047   1.618   2.630   2.354 -0.2122  0.5833  0.9880
28014SOL     OW86048   6.389   1.157   4.435  0.6325 -0.1241  0.1327
28014SOL    HW186049   6.482   1.147   4.414  1.1485  0.3733  2.0077
28014SOL    HW286050   6.377   1.252   4.446  0.2105 -0.2766  1.1022
28015SOL     OW86051   9.406   8.234   5.980 -0.2978 -0.2337  0.4396
28015SOL    HW186052   9.401   8.204   5.889 -0.3530  1.3657 -0.1194
28015SOL    HW286053   9.318   8.224   6.014 -0.1536 -1.3639  0.5034
28016SOL     OW86054   0.185   4.619  10.414 -0.1267 -0.2547  0.1080
28016SOL    HW186055   0.202   4.530  10.382 -3.0126 -0.7966 -0.1118
28016SOL    HW286056   0.092   4.620  10.434  0.1160  2.3524  1.4115
28017SOL     OW86057   1.031   5.324   5.212 -0.7516 -0.1907 -0.1868
28017SOL    HW186058   0.949   5.348   5.255 -0.6917 -1.1643  0.5288
28017SOL    HW286059   1.006   5.260   5.145 -0.5198 -1.1034  0.5681
28018SOL     OW86060   8.375   2.734   6.152  0.1874 -0.2169 -0.1133
28018SOL    HW186061   8.283   2.736   6.127  0.6042 -1.1310 -1.9024
28018SOL    HW286062   8.379   2.677   6.228 -0.7914  0.4086  0.4314
28019SOL     OW86063   9.122   5.984   8.933 -0.0559  0.1475  0.2354
28019SOL    HW186064   9.200   5.956   8.886  0.3937  1.6774  0.0171
28019SOL    HW286065   9.125   5.934   9.015 -0.8901 -2.6088 -1.2745
28020SOL     OW86066   9.200   2.499   6.249  0.3896  0.2385 -0.6042
28020SOL    HW186067   9.182   2.502   6.155 -1.2478  3.4602 -0.3285
28020SOL    HW286068   9.277   2.556   6.260 -0.0459  0.7070  0.0867
28021SOL     OW86069   9.204   1.759   3.246  0.6241 -0.4055  0.5789
28021SOL    HW186070   9.218   1.665   3.241 -0.2300 -0.5586  0.9326
28021SOL    HW286071   9.231   1.783   3.335 -1.0445 -0.6598  1.1759
28022SOL     OW86072   6.961   1.517   8.470  0.5084  0.6644 -0.2636
28022SOL    HW186073   7.009   1.441   8.438 -0.3559 -0.1676  0.3495
28022SOL    HW286074   6.881   1.481   8.508  0.9064  1.7224  1.6883
28023SOL     OW86075   9.384   9.593   8.938 -0.7299 -0.0396 -0.0292
28023SOL    HW186076   9.322   9.665   8.950 -0.2047  0.6259 -1.1697
28023SOL    HW286077   9.376   9.570   8.845  0.4575 -0.1934 -0.1046
28024SOL     OW86078   8.555   4.711   5.933  0.1295 -0.2584 -0.0676
28024SOL    HW186079   8.570   4.634   5.879  1.2235  0.8810 -1.4677
28024SOL    HW286080   8.461   4.729   5.924  0.5021  0.8417 -3.0376
28025SOL     OW86081   2.681   0.845   6.675 -0.2304  0.3767  0.4432
28025SOL    HW186082   2.742   0.897   6.726 -0.2559  0.5123  0.3359
28025SOL    HW286083   2.610   0.906   6.653  0.0836  0.4909 -0.2867
28026SOL     OW86084   0.458   9.561   7.365 -0.5745  0.5064 -0.2531
28026SOL    HW186085   0.553   9.552   7.354 -0.5258  0.3367  0.2574
28026SOL    HW286086   0.420   9.509   7.295 -0.2899  0.3718 -0.3079
28027SOL     OW86087   3.534   9.407   2.761  0.7131 -0.3588 -0.6791
28027SOL    HW186088   3.518   9.498   2.786  2.9297 -0.2495  0.6380
28027SOL    HW286089   3.476   9.391   2.686  0.1061  2.0334 -0.7839
28028SOL     OW86090   9.991   8.148  10.710 -0.0905 -0.2710 -0.1085
28028SOL    HW186091   9.922   8.143  10.643  0.6637  1.4107 -1.0706
28028SOL    HW286092  10.072   8.136  10.662  0.4942  1.3560  0.4098
28029SOL     OW86093   6.015  10.399   5.142  0.3167 -0.5825 -0.2733
28029SOL    HW186094   6.028  10.360   5.229  3.2440  0.6536 -0.0313
28029SOL    HW286095   6.089  10.458   5.132 -0.5142  0.0894 -3.2318
28030SOL     OW86096   0.753   7.495   5.877 -0.0114  0.0861 -0.0108
28030SOL    HW186097   0.837   7.456   5.854 -0.5860 -1.1002 -0.1628
28030SOL    HW286098   0.775   7.584   5.905  1.1307  0.3015 -1.4502
28031SOL     OW86099   8.113   7.363   4.252 -0.0959  0.0141  0.3010
28031SOL    HW186100   8.086   7.330   4.337 -0.2542  1.5967  0.8838
28031SOL    HW286101   8.168   7.293   4.216 -1.4375 -1.4127  0.9261
28032SOL     OW86102   6.028   6.032   3.430 -0.1714 -0.3041 -0.1270
28032SOL    HW186103   5.950   5.991   3.392  0.3629 -0.3289 -1.2045
28032SOL    HW286104   6.080   5.959   3.463  0.9864 -0.5851 -2.4289
28033SOL     OW86105   6.199   1.282   7.897  0.0403 -0.0802  0.0932
28033SOL    HW186106   6.247   1.250   7.821  0.8066 -0.0092  0.5371
28033SOL    HW286107   6.263   1.279   7.969 -0.9192 -1.0297  0.9436
28034SOL     OW86108   9.468   6.052   9.625 -0.4675 -0.1054  0.4592
28034SOL    HW186109   9.471   6.055   9.720  0.0263  1.5409  0.4262
28034SOL    HW286110   9.430   6.136   9.599 -1.1146 -0.7525 -0.7860
28035SOL     OW86111   8.378   3.212   5.752  0.5663  0.5007 -0.3261
28035SOL    HW186112   8.379   3.116   5.754 -1.3754  0.4648  0.6064
28035SOL    HW286113   8.465   3.236   5.720  1.9251 -1.5069  1.5858
28036SOL     OW86114   7.966   0.796   6.389 -0.0618 -0.1074  1.0849
28036SOL    HW186115   7.970   0.882   6.430  0.0916  0.0008  0.8413
28036SOL    HW286116   7.903   0.747   6.443 -1.2799  0.6170  0.3738
28037SOL     OW86117   1.494   1.004   2.474 -0.0579 -0.3049 -0.0556
28037SOL    HW186118   1.479   0.910   2.482 -0.2706 -0.3972 -1.3928
28037SOL    HW286119   1.531   1.016   2.387 -1.4385  1.0104 -0.5221
28038SOL     OW86120  10.831   8.424   2.906  0.2849  0.7374  0.1057
28038SOL    HW186121  10.832   8.362   2.833 -0.6104 -1.6363  1.9865
28038SOL    HW286122  10.826   8.510   2.864 -1.5541 -0.5462 -2.6071
28039SOL     OW86123  10.438   9.030  10.716  0.0626  0.3101 -0.8836
28039SOL    HW186124  10.482   9.015  10.632 -0.7574 -2.8620 -0.8700
28039SOL    HW286125  10.353   8.987  10.706 -0.1939  0.1595  1.4510
28040SOL     OW86126   5.024   9.716   4.589 -0.1361  0.1950 -0.2499
28040SOL    HW186127   5.019   9.761   4.505  2.5945  0.3020 -0.4411
28040SOL    HW286128   4.969   9.638   4.578 -0.6621  0.7526 -1.7373
28041SOL     OW86129  10.595   6.986   0.016  0.2829  0.3649  0.0085
28041SOL    HW186130  10.518   7.043   0.006  0.0349 -0.0136 -0.2526
28041SOL    HW286131  10.609   6.949  -0.071 -0.0432 -0.5958  0.3580
28042SOL     OW86132   2.760   4.092   8.070  0.0095  0.1874 -0.3580
28042SOL    HW186133   2.769   4.042   7.990 -0.3493 -0.1910 -0.1611
28042SOL    HW286134   2.713   4.171   8.044  0.2160  0.2352 -0.5885
28043SOL     OW86135   5.586   4.880   2.405 -0.0204 -0.0870  0.3434
28043SOL    HW186136   5.547   4.794   2.390 -0.8011  0.5184 -1.5354
28043SOL    HW286137   5.656   4.886   2.339  0.3476  0.5188  0.7861
28044SOL     OW86138   5.363   1.432   6.579  0.7546  0.3737  0.3755
28044SOL    HW186139   5.428   1.489   6.619 -0.3304  0.8750  1.4623
28044SOL    HW286140   5.389   1.427   6.487  1.8052  1.2745  0.6105
28045SOL     OW86141   7.840   4.201   9.757  0.5394 -0.5968  0.0872
28045SOL    HW186142   7.928   4.179   9.787  1.1995  0.8515 -0.6951
28045SOL    HW286143   7.850   4.285   9.711 -1.1008 -0.7993 -0.7292
28046SOL     OW86144   7.941   9.052   5.053  0.0101  0.6555  0.8010
28046SOL    HW186145   7.901   9.138   5.065 -0.2551  0.5163  0.9338
28046SOL    HW286146   7.973   9.028   5.140 -2.3707 -0.5804  1.4334
28047SOL     OW86147   3.322   3.951   3.210  0.0822  0.9097 -0.2010
28047SOL    HW186148   3.295   3.925   3.297 -0.1161  0.8501 -0.2807
28047SOL    HW286149   3.341   3.868   3.165 -2.5630  0.7347 -1.1327
28048SOL     OW86150   6.927   8.714   7.338  0.2807 -0.2728  0.1078
28048SOL    HW186151   6.921   8.787   7.277  2.1782 -0.6630 -0.6041
28048SOL    HW286152   6.916   8.636   7.284  1.4646 -0.6082  0.3361
28049SOL     OW86153   7.184   4.279   4.755 -0.0973  0.7399  0.4885
28049SOL    HW186154   7.094   4.257   4.778 -0.1774  1.5177  0.9269
28049SOL    HW286155   7.235   4.203   4.783 -0.8095 -0.5167 -1.3829
28050SOL     OW86156   3.105   5.971   4.191 -0.0310 -0.2453  0.4491
28050SOL    HW186157   3.111   6.009   4.278 -0.0105  0.2011  0.2584
28050SOL    HW286158   3.184   5.918   4.182 -0.0392 -0.2987  0.7081
28051SOL     OW86159   2.539   0.263   7.738 -0.0402 -0.4313 -0.7498
28051SOL    HW186160   2.451   0.232   7.758 -0.4840  1.0200 -0.3075
28051SOL    HW286161   2.534   0.358   7.747  0.9466 -0.0826 -3.1747
28052SOL     OW86162   2.104   7.080   9.232  0.1561  0.3086  0.9003
28052SOL    HW186163   2.012   7.103   9.242 -0.1104 -0.9479  1.4651
28052SOL    HW286164   2.126   7.031   9.311  0.3499 -2.3697 -0.6877
28053SOL     OW86165   4.257   0.937   8.677 -0.3267 -0.3011  0.3436
28053SOL    HW186166   4.334   0.979   8.716 -0.2682  2.5276 -2.4843
28053SOL    HW286167   4.183   0.987   8.711 -0.6000 -0.4720  0.0000
28054SOL     OW86168   4.002   3.356   6.456  0.7212  0.0890 -0.4782
28054SOL    HW186169   4.028   3.342   6.547 -2.8627 -1.3172  0.5113
28054SOL    HW286170   3.928   3.416   6.461 -0.9416 -1.6693 -2.1837
28055SOL     OW86171   7.628   1.306   9.566  0.1524 -0.2729 -0.2246
28055SOL    HW186172   7.550   1.328   9.514  0.0116 -0.4399 -0.0888
28055SOL    HW286173   7.701   1.320   9.507  0.0975  0.9010 -0.0330
28056SOL     OW86174   9.348  10.778   4.624  0.3295  0.3763  0.1529
28056SOL    HW186175   9.302  10.697   4.643  0.8020 -0.2065 -1.0985
28056SOL    HW286176   9.397  10.797   4.704 -0.0389 -0.3887  0.5677
28057SOL     OW86177  10.613   0.751   7.741  0.4561  0.4687  0.0470
28057SOL    HW186178  10.702   0.781   7.759  0.6552 -1.5694  3.2597
28057SOL    HW286179  10.565   0.767   7.823 -1.6723 -0.1128 -1.0026
28058SOL     OW86180   7.738   6.697   5.190  0.1973 -0.1409  0.1796
28058SOL    HW186181   7.757   6.769   5.129 -1.7374  0.6404  0.4119
28058SOL    HW286182   7.715   6.741   5.272  1.1534 -1.1287  1.0019
28059SOL     OW86183   5.118   9.963   2.025 -0.5520  0.2229  0.0442
28059SOL    HW186184   5.083   9.982   1.938 -1.7253 -1.5147  0.0838
28059SOL    HW286185   5.042   9.962   2.082 -0.0025 -0.2341  0.7954
28060SOL     OW86186   2.952   9.917   1.991 -0.4355 -0.8396 -0.4809
28060SOL    HW186187   2.868   9.884   2.022 -0.8121  0.7241  0.2508
28060SOL    HW286188   2.940   9.925   1.896 -1.9587  1.4911 -0.1698
28061SOL     OW86189   6.592   9.036   0.393 -0.3307  0.6124  0.4889
28061SOL    HW186190   6.557   9.117   0.430  1.3728  1.1662  1.0207
28061SOL    HW286191   6.686   9.039   0.414  0.2453 -0.2838 -1.6553
28062SOL     OW86192   4.571   7.137   8.463 -0.8008  0.0158 -0.8440
28062SOL    HW186193   4.574   7.058   8.408 -1.0798 -0.0084 -0.8227
28062SOL    HW286194   4.644   7.190   8.431 -0.1853 -0.5511 -0.4022
28063SOL     OW86195   1.489   1.318   9.079 -0.4288  0.3215  0.3762
28063SOL    HW186196   1.526   1.341   9.165  0.5574 -1.2976  0.4268
28063SOL    HW286197   1.453   1.400   9.046  0.0639  1.1994  1.9067
28064SOL     OW86198   5.621   6.948   4.809 -0.4075  0.0442 -0.5228
28064SOL    HW186199   5.551   6.980   4.865  0.6717  0.0405  0.8978
28064SOL    HW286200   5.614   6.853   4.811 -0.6746  0.0558 -0.8196
28065SOL     OW86201   3.657   7.711   7.984 -0.2484 -0.0461  0.1461
28065SOL    HW186202   3.711   7.733   8.060  0.6873 -4.6880  1.1171
28065SOL    HW286203   3.707   7.741   7.909  1.1297  0.4622  1.2203
28066SOL     OW86204   1.136   7.406   7.454 -0.5989  0.0436 -0.4414
28066SOL    HW186205   1.215   7.438   7.496 -0.4805 -2.2534  1.2577
28066SOL    HW286206   1.067   7.465   7.486  0.0860  0.7838 -0.2733
28067SOL     OW86207   7.362   8.888   7.971  0.4673  0.0644  0.1508
28067SOL    HW186208   7.394   8.882   7.881  1.3052 -1.3521  0.5091
28067SOL    HW286209   7.375   8.801   8.007 -2.2504 -0.1172  0.8842
28068SOL     OW86210  10.494   1.276   3.313  0.1261  0.2850 -0.1603
28068SOL    HW186211  10.422   1.233   3.359 -0.1941 -0.1312 -1.0347
28068SOL    HW286212  10.476   1.370   3.323  2.2473  0.5064  4.1108
28069SOL     OW86213   7.193   1.755   5.194 -0.2403 -0.5956  0.2103
28069SOL    HW186214   7.253   1.682   5.213 -1.4282 -1.9690 -1.0483
28069SOL    HW286215   7.136   1.760   5.270 -1.2778 -2.2134 -0.4106
28070SOL     OW86216   6.653   6.782   8.999 -0.1340  0.5407 -0.0470
28070SOL    HW186217   6.736   6.829   8.989  0.7230 -0.6174  1.3016
28070SOL    HW286218   6.677   6.690   9.009 -1.5447  0.2147  0.7556
28071SOL     OW86219  10.091   6.807  11.033 -0.2216  0.7424  0.1471
28071SOL    HW186220  10.118   6.898  11.025  0.6613  0.3715 -2.0099
28071SOL    HW286221  10.173   6.757  11.026 -0.5742 -0.2261  2.2624
28072SOL     OW86222   9.141   2.367   2.654 -0.0599 -0.0940 -0.6469
28072SOL    HW186223   9.126   2.407   2.740  0.8039  0.5748 -0.7939
28072SOL    HW286224   9.119   2.274   2.666  0.3297 -0.0596  0.3639
28073SOL     OW86225   0.107   1.612   7.297  0.2932  0.2834  0.0286
28073SOL    HW186226   0.051   1.543   7.262  0.6617 -0.6893  1.2593
28073SOL    HW286227   0.055   1.653   7.366 -0.1575  1.6928 -1.0997
28074SOL     OW86228   7.601   9.216   8.548 -0.3458  0.0376 -0.3113
28074SOL    HW186229   7.541   9.178   8.484 -2.8527 -0.7080  2.2578
28074SOL    HW286230   7.572   9.307   8.557  2.1810  1.1740 -2.5452
28075SOL     OW86231   1.062   7.793   7.102  0.3143 -0.1182 -0.3488
28075SOL    HW186232   1.127   7.799   7.172  0.4974  1.3346 -0.6179
28075SOL    HW286233   1.109   7.823   7.024 -0.2702 -0.4438 -0.8352
28076SOL     OW86234   7.866   9.239   2.237  0.3206 -1.0035 -0.2336
28076SOL    HW186235   7.822   9.154   2.233 -1.0441 -0.3773  0.6146
28076SOL    HW286236   7.908   9.239   2.323  0.7326 -1.0039 -0.4335
28077SOL     OW86237   9.135   7.909   5.668 -0.0018  0.4075  0.0682
28077SOL    HW186238   9.086   7.828   5.675  0.6414  0.0699  0.8691
28077SOL    HW286239   9.125   7.936   5.577  1.9067 -1.9435 -0.9547
28078SOL     OW86240   7.095   9.342   6.119 -0.1985 -0.2187  0.0902
28078SOL    HW186241   7.004   9.330   6.145 -1.4929 -0.0061 -3.7320
28078SOL    HW286242   7.091   9.397   6.041  3.0703 -1.4434 -1.1274
28079SOL     OW86243   3.994   6.137   7.952  0.2886 -0.0029  0.0973
28079SOL    HW186244   4.015   6.128   7.859  0.7618  2.0397 -0.0373
28079SOL    HW286245   4.079   6.143   7.995  0.0496  0.3174  0.5220
28080SOL     OW86246   5.677   6.540   2.882  0.8778  0.1553  0.8952
28080SOL    HW186247   5.694   6.447   2.894  3.7438  0.5532  0.6665
28080SOL    HW286248   5.582   6.547   2.879  0.5867 -2.8613  0.0165
28081SOL     OW86249  10.413   8.431   5.386  0.3313  0.0235 -0.0258
28081SOL    HW186250  10.485   8.373   5.362  0.8303  0.5159  0.2702
28081SOL    HW286251  10.353   8.374   5.435  0.6970 -0.3067  0.0496
28082SOL     OW86252   2.883   3.729   1.804 -0.1249  0.1358  0.2890
28082SOL    HW186253   2.905   3.639   1.828 -0.9799  0.1767  1.3020
28082SOL    HW286254   2.955   3.781   1.838 -0.3006 -0.0346  0.9349
28083SOL     OW86255   7.541  11.088   5.743  0.5241 -0.1377  0.9540
28083SOL    HW186256   7.518  11.008   5.695 -1.4472  0.6804  0.4116
28083SOL    HW286257   7.528  11.066   5.835  1.5972 -0.9021  0.9378
28084SOL     OW86258   5.693   2.190   9.316 -0.1944  0.5462  0.3272
28084SOL    HW186259   5.700   2.171   9.410  0.0429 -2.4105 -0.2007
28084SOL    HW286260   5.648   2.274   9.312 -0.3507  0.6841  3.0877
28085SOL     OW86261   6.385   1.022   6.075 -0.4929  0.1413 -0.5365
28085SOL    HW186262   6.328   0.978   6.139 -1.1502 -0.4112 -1.4744
28085SOL    HW286263   6.397   1.110   6.111  2.9876 -1.3926  2.7921
28086SOL     OW86264   4.852   8.701   8.534 -0.5944  0.4829 -0.0204
28086SOL    HW186265   4.909   8.776   8.552 -1.9664  2.0689 -1.9749
28086SOL    HW286266   4.892   8.658   8.459 -0.7013  0.1943  0.0864
28087SOL     OW86267   1.610   7.861   8.927 -0.6145 -0.2109  0.2500
28087SOL    HW186268   1.610   7.952   8.897 -0.6630 -0.3925 -0.3228
28087SOL    HW286269   1.682   7.820   8.879  0.7004 -0.0303  1.9597
28088SOL     OW86270   0.857   7.708   8.430 -0.4134 -0.3777 -0.2871
28088SOL    HW186271   0.853   7.804   8.434  0.2168 -0.2918 -1.2871
28088SOL    HW286272   0.937   7.685   8.478  0.7368 -0.2005 -2.0148
28089SOL     OW86273   4.055   4.904   8.898  0.7467  0.1416 -0.1749
28089SOL    HW186274   4.035   4.997   8.901 -0.3771 -0.0956  0.5719
28089SOL    HW286275   3.993   4.864   8.960  0.7752 -1.1633 -0.9390
28090SOL     OW86276   4.328   4.064   3.005 -0.1014  0.1530  0.3649
28090SOL    HW186277   4.412   4.095   3.040  0.7914 -1.7930  0.0395
28090SOL    HW286278   4.301   4.133   2.943  2.1711 -0.0072 -0.9028
28091SOL     OW86279   9.072   6.388   7.060 -0.6798 -0.4762  0.2046
28091SOL    HW186280   9.041   6.321   7.122  0.6022  1.4491  3.1433
28091SOL    HW286281   9.164   6.367   7.047  0.5913  2.1570  3.5541
28092SOL     OW86282   9.457   7.227   4.565 -1.2876  0.1127  0.3250
28092SOL    HW186283   9.511   7.189   4.634  1.4671  1.3423 -0.9874
28092SOL    HW286284   9.440   7.154   4.505  0.4202 -0.0109 -0.0693
28093SOL     OW86285   5.738   7.294   9.227 -0.3145  0.7892  0.5246
28093SOL    HW186286   5.823   7.294   9.272  0.8318 -0.1115 -1.4852
28093SOL    HW286287   5.737   7.212   9.178 -1.0918  2.0346 -1.7009
28094SOL     OW86288   8.789   6.244   8.194  0.1140  0.1435  0.3333
28094SOL    HW186289   8.880   6.251   8.166  0.3070 -1.1581  0.5876
28094SOL    HW286290   8.758   6.335   8.198  0.6944  0.5176 -2.0041
28095SOL     OW86291   9.919   0.261   1.215 -0.1630  0.5475  0.2952
28095SOL    HW186292   9.988   0.306   1.264  0.3887  0.4363 -0.3754
28095SOL    HW286293   9.863   0.331   1.182 -0.4692  0.6311  0.9729
28096SOL     OW86294   6.569   9.011   7.673 -0.3042  0.4835 -0.0463
28096SOL    HW186295   6.637   8.977   7.614 -0.9212 -0.1163 -0.4313
28096SOL    HW286296   6.600   8.988   7.761  0.2682  0.7231 -0.1807
28097SOL     OW86297   0.838   8.267   1.509 -0.4410  0.4478  0.1070
28097SOL    HW186298   0.930   8.252   1.488 -0.1344  0.5888  1.3109
28097SOL    HW286299   0.791   8.227   1.435  0.5944  2.3767 -1.7234
28098SOL     OW86300   9.216   7.917   5.117 -0.2944  0.2210  0.0327
28098SOL    HW186301   9.228   7.964   5.200  1.8530  0.8283 -0.5628
28098SOL    HW286302   9.174   7.981   5.059 -1.3663 -0.0546  0.4738
28099SOL     OW86303   2.124   1.350  10.046  0.1431 -0.1721 -0.4597
28099SOL    HW186304   2.030   1.339  10.038 -0.1147  1.3022  0.1966
28099SOL    HW286305   2.135   1.412  10.118  1.5995 -0.1231 -0.6897
28100SOL     OW86306   6.404   9.451   5.315 -0.4815  0.4205  0.5008
28100SOL    HW186307   6.319   9.407   5.317  0.3071 -1.1899  0.5046
28100SOL    HW286308   6.468   9.380   5.320  0.9120  1.3779 -1.7696
28101SOL     OW86309   5.068   7.843   3.610 -0.4842 -0.0731 -0.7992
28101SOL    HW186310   5.116   7.840   3.693 -2.4089 -2.7557  0.3598
28101SOL    HW286311   5.132   7.877   3.547  1.7814 -0.1135  1.3075
28102SOL     OW86312   3.032  11.153   1.699  0.0204 -0.2419 -0.5038
28102SOL    HW186313   3.089  11.098   1.753 -0.0370 -1.8199 -1.9664
28102SOL    HW286314   2.975  11.197   1.762 -1.1069 -3.2244  0.7361
28103SOL     OW86315   2.961   1.639   3.106  0.9432 -0.4932 -0.5498
28103SOL    HW186316   2.896   1.569   3.115  0.2659  0.2729  0.7789
28103SOL    HW286317   3.001   1.645   3.193  0.6994  1.0366 -0.5278
28104SOL     OW86318   3.592  10.294   8.318  0.2240  0.5701  0.5366
28104SOL    HW186319   3.559  10.246   8.395  0.1038 -0.9828 -0.4265
28104SOL    HW286320   3.679  10.324   8.344  1.0335 -1.6796  0.6630
28105SOL     OW86321   7.770   0.494   3.915  0.2950 -0.5979 -0.1931
28105SOL    HW186322   7.721   0.443   3.980 -1.2088  0.7255 -0.2260
28105SOL    HW286323   7.825   0.553   3.967 -0.6940  0.2617 -0.1018
28106SOL     OW86324   5.478   0.241   0.162 -0.2926 -0.5643  0.6931
28106SOL    HW186325   5.535   0.317   0.173  4.5215 -3.3570 -1.6289
28106SOL    HW286326   5.446   0.247   0.072 -0.8517 -0.7495  0.8714
28107SOL     OW86327   2.952   1.755   1.382  0.2537  1.3130 -0.1741
28107SOL    HW186328   2.997   1.805   1.450 -0.9846  2.6365 -0.2869
28107SOL    HW286329   2.898   1.819   1.336  0.5548  0.3501 -2.0101
28108SOL     OW86330   4.149   6.811   9.015  0.5147  1.0078 -0.6110
28108SOL    HW186331   4.113   6.874   9.077 -0.6598 -1.1015  1.0123
28108SOL    HW286332   4.236   6.845   8.994  0.6902  2.1833  1.6736
28109SOL     OW86333  10.782   5.539   3.264  0.1072 -0.5789  0.1288
28109SOL    HW186334  10.848   5.564   3.329  0.9669 -1.6332 -0.2956
28109SOL    HW286335  10.716   5.608   3.269  1.8731  1.2362 -0.3217
28110SOL     OW86336   5.620  10.818   6.823 -0.3618  0.1467  0.6944
28110SOL    HW186337   5.620  10.861   6.738 -0.5297 -1.3135 -0.0828
28110SOL    HW286338   5.712  10.793   6.836  0.1143  2.3759  2.0512
28111SOL     OW86339   5.907   3.165   5.981  0.2028  0.1379 -0.1663
28111SOL    HW186340   5.920   3.140   5.890  0.3450  2.6501 -0.8937
28111SOL    HW286341   5.817   3.199   5.984  0.4295  0.6919  0.4821
28112SOL     OW86342  10.455   9.773   9.555  0.1205 -0.4376  0.1303
28112SOL    HW186343  10.368   9.812   9.558  1.0968  1.8640  3.0533
28112SOL    HW286344  10.440   9.679   9.566 -2.0110 -0.2587 -0.8081
28113SOL     OW86345   9.114   9.259   6.710 -0.6506 -0.3393 -0.0536
28113SOL    HW186346   9.071   9.299   6.785 -0.8963  0.4513 -0.6073
28113SOL    HW286347   9.044   9.217   6.661 -0.6931  0.2825 -0.5401
28114SOL     OW86348   0.472   9.822   2.695  0.0285  0.3673 -0.0225
28114SOL    HW186349   0.552   9.874   2.685  0.0268  0.9812  2.5141
28114SOL    HW286350   0.498   9.749   2.751 -1.1118  0.4041  0.5809
28115SOL     OW86351   9.003   1.507   2.397 -0.2068  0.3551  0.3639
28115SOL    HW186352   9.003   1.557   2.478 -0.2900  0.5212  0.2632
28115SOL    HW286353   9.080   1.450   2.403 -0.5302 -0.0407  0.8048
28116SOL     OW86354   7.571   5.915   5.862 -1.1172 -0.9649  0.1245
28116SOL    HW186355   7.656   5.941   5.897 -1.1557 -0.4355 -0.1755
28116SOL    HW286356   7.512   5.919   5.938 -0.7827 -1.8210  0.4457
28117SOL     OW86357   0.652   7.118   7.919  1.0367 -0.4418 -0.0181
28117SOL    HW186358   0.638   7.035   7.965 -2.6023 -0.8011 -1.4499
28117SOL    HW286359   0.565   7.159   7.917  1.9588  1.6659 -2.5619
28118SOL     OW86360   5.796  10.018   7.338  0.2674  0.5162 -0.2673
28118SOL    HW186361   5.792   9.938   7.286 -2.1347  1.1192 -1.1592
28118SOL    HW286362   5.853  10.076   7.288 -0.7836  0.5459 -1.4933
28119SOL     OW86363   1.357   2.393   3.237 -0.8938  0.2789  0.7639
28119SOL    HW186364   1.350   2.344   3.319  1.0817  0.2245  0.9656
28119SOL    HW286365   1.412   2.468   3.260 -3.4896  2.4389  0.3658
28120SOL     OW86366  10.870   3.895   7.488  0.7575  0.3543 -0.4176
28120SOL    HW186367  10.921   3.814   7.486 -1.0556 -1.0502  2.8318
28120SOL    HW286368  10.779   3.866   7.478  0.0384  1.8808  1.1293
28121SOL     OW86369   4.299   3.199   8.425  0.3643 -0.4995 -0.3718
28121SOL    HW186370   4.273   3.287   8.399  1.0750 -0.9157 -2.7670
28121SOL    HW286371   4.239   3.176   8.496 -0.4336  1.5422 -0.3169
28122SOL     OW86372  10.168  11.052   4.033 -0.0575 -0.5010 -0.0329
28122SOL    HW186373  10.197  10.964   4.058  1.9671 -0.0653 -0.6822
28122SOL    HW286374  10.207  11.110   4.098  2.5022  0.3145 -2.1596
28123SOL     OW86375   0.227   5.321   8.806 -0.3145  0.7918  0.1015
28123SOL    HW186376   0.133   5.318   8.818 -0.3517  2.0663  0.3415
28123SOL    HW286377   0.260   5.240   8.844 -1.2140  0.8280  0.9831
28124SOL     OW86378  10.735   6.223  10.964  0.8521  0.0958  0.2946
28124SOL    HW186379  10.792   6.146  10.956  0.8423  0.1625 -0.5012
28124SOL    HW286380  10.648   6.191  10.942  1.0143  0.5370 -1.1094
28125SOL     OW86381   8.914   6.931   6.563  0.1071  0.2955 -0.1405
28125SOL    HW186382   8.852   6.996   6.595 -1.0355 -0.5306 -0.5678
28125SOL    HW286383   8.871   6.847   6.581 -0.0929 -0.2506 -2.7243
28126SOL     OW86384   8.175   3.955   6.657 -0.2897 -0.8049  0.4913
28126SOL    HW186385   8.262   3.916   6.648 -0.0948 -0.0784 -1.0441
28126SOL    HW286386   8.159   3.956   6.751 -1.0434 -6.1206  0.7488
28127SOL     OW86387   0.382   5.235   5.800  0.0178  0.4142  0.3419
28127SOL    HW186388   0.312   5.209   5.740 -0.4377  1.8152  0.2297
28127SOL    HW286389   0.462   5.204   5.759 -0.5198 -1.3757  0.5583
28128SOL     OW86390   9.097  11.128   7.958  0.3458 -0.5187 -0.1467
28128SOL    HW186391   9.032  11.191   7.925  3.6139  2.9592 -0.6812
28128SOL    HW286392   9.066  11.107   8.047 -1.4902  0.9672 -0.3585
28129SOL     OW86393   7.314   4.439   3.659  0.2251  0.6175 -0.2465
28129SOL    HW186394   7.229   4.423   3.701  0.0793  0.7547 -0.4871
28129SOL    HW286395   7.316   4.378   3.586 -1.1130  2.8127 -2.2783
28130SOL     OW86396   6.582   9.455   0.000  0.5536 -0.3016  0.5927
28130SOL    HW186397   6.554   9.366   0.022  0.9689 -0.4411  0.5508
28130SOL    HW286398   6.620   9.448  -0.087  1.3097 -0.2317  0.9122
28131SOL     OW86399   0.948   8.539   8.038 -0.2430  1.0417  0.0384
28131SOL    HW186400   0.910   8.592   8.107  0.3168 -1.3541  2.3536
28131SOL    HW286401   1.031   8.508   8.073 -0.3607 -1.0222 -1.3038
28132SOL     OW86402   8.651   3.378   7.320  0.0763 -0.1325  0.2908
28132SOL    HW186403   8.738   3.348   7.292 -0.7876 -1.0212 -1.6484
28132SOL    HW286404   8.612   3.302   7.363 -0.2067 -0.1349  0.0323
28133SOL     OW86405   8.940   6.921   5.245 -0.3715  0.4510  0.1672
28133SOL    HW186406   9.029   6.954   5.257 -0.0995  0.3323 -1.2970
28133SOL    HW286407   8.948   6.856   5.175 -1.6752  0.7563 -0.2983
28134SOL     OW86408   8.838   8.184   9.324 -0.2894  0.1825  0.1534
28134SOL    HW186409   8.889   8.156   9.399  3.2491  1.7141 -1.4414
28134SOL    HW286410   8.801   8.103   9.289  1.6006 -1.1792  1.1004
28135SOL     OW86411   6.932   3.020   0.159  0.6515 -0.0018 -0.3589
28135SOL    HW186412   7.014   3.059   0.129  0.7715  1.2134  1.3823
28135SOL    HW286413   6.924   3.048   0.250 -1.3718 -0.6559 -0.2804
28136SOL     OW86414   4.251   8.954   5.741  0.3454  0.3623  0.5313
28136SOL    HW186415   4.236   9.023   5.806 -1.2923 -1.3305  2.0822
28136SOL    HW286416   4.289   8.882   5.792 -0.9929 -1.0170 -0.3274
28137SOL     OW86417   4.825   1.227   0.265 -0.7896 -0.0123 -0.6508
28137SOL    HW186418   4.742   1.219   0.312 -2.0547  1.1818 -2.5724
28137SOL    HW286419   4.866   1.305   0.302 -1.3730  0.4335 -0.9342
28138SOL     OW86420  10.312   2.622   2.427 -0.6221 -0.1629 -0.7640
28138SOL    HW186421  10.322   2.564   2.503 -0.9521  1.3181  0.4540
28138SOL    HW286422  10.258   2.694   2.459 -0.4725  0.6715 -2.3198
28139SOL     OW86423   7.224   1.735   4.868 -0.0888  0.4762 -0.2688
28139SOL    HW186424   7.304   1.728   4.920 -0.6560  0.6509  0.6448
28139SOL    HW286425   7.172   1.659   4.893 -0.1658  0.2904 -0.9583
28140SOL     OW86426   1.912   0.968   4.558  0.0586  0.2478  0.1833
28140SOL    HW186427   1.931   1.044   4.504  3.1377 -0.8959 -0.5373
28140SOL    HW286428   1.830   0.933   4.522  0.2208  1.4826 -1.4801
28141SOL     OW86429   9.211   5.442   1.864  0.0838 -0.1009 -0.3340
28141SOL    HW186430   9.176   5.362   1.904 -1.3885  1.1389  0.9875
28141SOL    HW286431   9.301   5.447   1.894  0.9338 -2.3766 -2.2398
28142SOL     OW86432   2.365  10.774   5.925 -0.1986 -0.4073  0.2054
28142SOL    HW186433   2.383  10.687   5.959 -1.7426 -1.1150 -0.6541
28142SOL    HW286434   2.439  10.827   5.953  0.6987 -1.9518  0.8809
28143SOL     OW86435   9.724   3.029  10.059  0.1247 -0.7397  0.3662
28143SOL    HW186436   9.679   2.947  10.077 -0.8476 -0.7618 -1.7919
28143SOL    HW286437   9.681   3.094  10.114  0.7044 -1.5886  1.8663
28144SOL     OW86438   5.243   6.060   4.558  0.0343 -0.0422  0.2026
28144SOL    HW186439   5.270   6.019   4.641  0.5247  0.0765  0.1082
28144SOL    HW286440   5.250   6.154   4.575  0.6034 -0.0215 -0.1190
28145SOL     OW86441  10.529   6.431  10.879  0.5874 -0.4633 -0.0719
28145SOL    HW186442  10.511   6.432  10.973 -0.2508 -1.7455 -0.1823
28145SOL    HW286443  10.532   6.338  10.857 -0.7449 -0.1927 -1.5718
28146SOL     OW86444   8.098   6.880   6.582  0.4414 -0.2209  0.1427
28146SOL    HW186445   8.173   6.859   6.637  0.4912  1.2839  0.7148
28146SOL    HW286446   8.102   6.817   6.511  0.0290 -2.6195  2.1256
28147SOL     OW86447   6.892   4.108  10.904  0.1915  0.6978  1.1301
28147SOL    HW186448   6.815   4.165  10.897  0.6807  1.1913 -0.8972
28147SOL    HW286449   6.964   4.162  10.871  1.2495 -0.0685  2.1255
28148SOL     OW86450   5.559   1.304  11.083 -0.5019 -0.2251  0.8619
28148SOL    HW186451   5.570   1.359  11.161 -1.6563 -1.4909  1.9722
28148SOL    HW286452   5.647   1.271  11.064  0.3265  2.4029 -0.1982
28149SOL     OW86453   4.662   9.018   9.752 -0.2145  1.0424 -0.5758
28149SOL    HW186454   4.602   9.077   9.798  0.9884  1.9605 -0.1285
28149SOL    HW286455   4.617   8.934   9.751 -2.2614  2.0649 -1.7554
28150SOL     OW86456   4.778   6.712   3.332 -0.2860  0.1414 -0.4163
28150SOL    HW186457   4.722   6.634   3.334  1.6277 -1.2830  1.1380
28150SOL    HW286458   4.744   6.767   3.402  0.6859 -1.1206  1.1328
28151SOL     OW86459   3.493   7.377   1.713  0.0723  0.3000  0.0487
28151SOL    HW186460   3.504   7.439   1.785  2.8560  0.3942 -0.3437
28151SOL    HW286461   3.408   7.336   1.729 -0.8195  2.5474  1.5873
28152SOL     OW86462   2.194   9.071   3.769  0.0757  0.0702  0.6071
28152SOL    HW186463   2.171   9.159   3.738 -0.1067 -0.3566 -0.5058
28152SOL    HW286464   2.212   9.083   3.862  0.3439  1.3485  0.4179
28153SOL     OW86465   2.570   4.906   8.938  0.0773 -0.2571 -0.3083
28153SOL    HW186466   2.651   4.857   8.937 -0.2208 -0.7501 -0.4667
28153SOL    HW286467   2.501   4.840   8.944 -0.2702  0.2248  1.7352
28154SOL     OW86468   5.234   9.748   1.870 -0.0637 -0.0014 -0.1657
28154SOL    HW186469   5.198   9.816   1.928 -0.2186  0.7208 -1.0783
28154SOL    HW286470   5.157   9.700   1.840 -0.0481  0.0672 -0.3148
28155SOL     OW86471   8.474  10.873   3.917  0.1079 -0.9789 -0.7845
28155SOL    HW186472   8.402  10.832   3.869 -0.5108  0.3846 -1.0501
28155SOL    HW286473   8.519  10.926   3.851  1.0520 -1.3912 -0.5006
28156SOL     OW86474   9.679  10.216   3.687 -0.2629  0.2600 -0.3200
28156SOL    HW186475   9.655  10.124   3.687 -1.0731  0.4640 -0.9148
28156SOL    HW286476   9.601  10.261   3.721  0.6396  0.6107  1.4235
28157SOL     OW86477   0.989   7.165  10.958 -0.1821  0.5647 -0.7411
28157SOL    HW186478   0.983   7.250  10.915  1.6694  0.3842 -1.4338
28157SOL    HW286479   1.021   7.105  10.890  0.7322 -0.1836  0.3055
28158SOL     OW86480   4.816   6.417   1.306  0.4748 -0.0430  0.0330
28158SOL    HW186481   4.908   6.439   1.320  0.4580 -0.8990  1.8605
28158SOL    HW286482   4.788   6.474   1.235  1.7293  2.1191  1.1602
28159SOL     OW86483   6.240   2.924   9.172 -0.0316  0.1651 -0.2869
28159SOL    HW186484   6.288   2.944   9.253 -1.7269 -0.5584  0.9726
28159SOL    HW286485   6.308   2.913   9.106  1.5017 -0.2603  1.2739
28160SOL     OW86486   2.827   4.459   2.300  0.2968 -0.2405 -0.0879
28160SOL    HW186487   2.744   4.416   2.280  0.0955 -0.2068  0.6361
28160SOL    HW286488   2.854   4.420   2.384  1.9075 -1.5583 -1.1702
28161SOL     OW86489  10.350   1.747   3.380 -0.0726  0.1805  0.5134
28161SOL    HW186490  10.255   1.753   3.371 -0.5542 -5.3087 -1.1589
28161SOL    HW286491  10.383   1.752   3.290  1.0151 -0.0117  0.8916
28162SOL     OW86492   3.183   2.784   8.654 -0.1915 -0.5154 -0.4746
28162SOL    HW186493   3.226   2.738   8.726  0.2448  2.6368  1.4656
28162SOL    HW286494   3.104   2.732   8.636  1.2859 -3.1239  0.0125
28163SOL     OW86495   0.888   0.934   9.958  0.8865  0.1384  0.2252
28163SOL    HW186496   0.944   0.863   9.928  1.1905 -0.4092  2.0227
28163SOL    HW286497   0.835   0.956   9.881  0.5672 -2.2269 -0.3114
28164SOL     OW86498   9.091   9.537   9.740  0.3067  0.4080  0.1695
28164SOL    HW186499   8.999   9.544   9.713  0.0678 -1.3956  0.3795
28164SOL    HW286500   9.088   9.497   9.827  1.3142 -1.9711 -0.8038
28165SOL     OW86501  10.148  10.152   7.758  0.0688  0.0048  0.3396
28165SOL    HW186502  10.120  10.137   7.848 -0.3730  0.4573  0.2824
28165SOL    HW286503  10.210  10.225   7.764  0.4431 -0.3116  0.3402
28166SOL     OW86504   0.662   2.072   3.591 -0.7876  0.2386 -0.8287
28166SOL    HW186505   0.576   2.058   3.551 -0.4171 -0.1897 -1.5017
28166SOL    HW286506   0.724   2.055   3.520 -0.1368  0.1953 -0.2572
28167SOL     OW86507   8.290   5.005   8.398  0.0464 -1.1102 -0.0498
28167SOL    HW186508   8.273   5.034   8.488  0.1514  0.1909 -0.4237
28167SOL    HW286509   8.337   4.922   8.408  0.1711 -0.9228  1.1019
28168SOL     OW86510   7.276   8.130  10.936 -0.1350  0.1759  0.5395
28168SOL    HW186511   7.314   8.112  10.851 -1.7745  1.3289 -0.4994
28168SOL    HW286512   7.190   8.088  10.934  0.1085 -0.4723  1.9526
28169SOL     OW86513   2.529   4.397   6.393  0.1134 -0.0662  0.0592
28169SOL    HW186514   2.620   4.426   6.394  0.1203 -0.0870  0.0049
28169SOL    HW286515   2.500   4.410   6.303 -0.0798  0.3839  0.1790
28170SOL     OW86516   4.792  10.203  10.132  0.2778 -0.0036 -0.0985
28170SOL    HW186517   4.728  10.175  10.066  0.3148 -0.5333  0.0837
28170SOL    HW286518   4.744  10.265  10.186  0.0909  0.0449 -0.3132
28171SOL     OW86519   2.344   2.933   3.005  0.4507  0.3275  0.5913
28171SOL    HW186520   2.331   2.908   2.913 -1.9242  0.5572  0.8092
28171SOL    HW286521   2.385   2.856   3.045  1.6821  0.2809 -0.6565
28172SOL     OW86522   5.135   9.658   8.048  0.1114 -0.4258 -0.1194
28172SOL    HW186523   5.091   9.645   7.963  0.5097  0.4567 -0.4723
28172SOL    HW286524   5.182   9.741   8.038 -1.5694  0.8256  1.7123
28173SOL     OW86525   7.542   6.187   4.171 -0.0060 -0.0621  0.2080
28173SOL    HW186526   7.496   6.151   4.096 -1.5410  1.9566  0.0745
28173SOL    HW286527   7.497   6.270   4.188  0.4710 -0.3055  3.1648
28174SOL     OW86528  10.052   8.993   0.532 -0.3360 -0.4100 -0.6622
28174SOL    HW186529  10.137   8.990   0.576 -0.1378  0.3481 -0.9649
28174SOL    HW286530  10.069   9.044   0.452 -0.9537 -0.7351 -1.0083
28175SOL     OW86531   1.690   7.141   4.620 -0.4702  0.5001  0.2197
28175SOL    HW186532   1.615   7.094   4.584  0.5847 -1.4144  0.3915
28175SOL    HW286533   1.763   7.116   4.564  0.9687 -1.5690  2.7644
28176SOL     OW86534   3.922   7.157   6.352  0.6047  0.3326  0.3015
28176SOL    HW186535   3.980   7.172   6.426  0.0700 -1.1851  1.0603
28176SOL    HW286536   3.944   7.069   6.321 -0.5069  0.1869 -0.1249
28177SOL     OW86537   0.686   6.619   9.388  0.8827 -0.7133  0.5579
28177SOL    HW186538   0.625   6.658   9.452  3.1760  2.6346  0.9554
28177SOL    HW286539   0.648   6.640   9.303  1.3405  1.2314  0.7994
28178SOL     OW86540   4.023   3.690  11.028  0.2734  0.7502  0.1565
28178SOL    HW186541   4.033   3.768  10.974 -1.0619  1.2565  0.5796
28178SOL    HW286542   4.112   3.658  11.042  0.8063  1.9191 -0.4250
28179SOL     OW86543  10.022   2.467  10.497 -0.3225  0.2536  0.1078
28179SOL    HW186544  10.012   2.396  10.560 -0.5329 -0.0609 -0.2751
28179SOL    HW286545  10.097   2.442  10.444 -0.6001  0.1521 -0.2398
28180SOL     OW86546   5.120   6.478   2.074 -0.4929 -0.2064  0.0497
28180SOL    HW186547   5.138   6.491   2.167  1.1378  1.0509 -0.3930
28180SOL    HW286548   5.080   6.560   2.046  2.8666  1.2153 -1.1588
28181SOL     OW86549   1.279   5.130   8.402  0.5404  0.5120  0.4521
28181SOL    HW186550   1.275   5.067   8.330 -1.3969  2.0080 -0.8882
28181SOL    HW286551   1.369   5.163   8.400  0.6819  0.1086 -0.9639
28182SOL     OW86552   8.765   8.305   6.221  0.0947  0.0588  0.0639
28182SOL    HW186553   8.739   8.353   6.300  0.2929  1.1859 -0.5408
28182SOL    HW286554   8.832   8.244   6.251  1.0629  1.3387  0.5529
28183SOL     OW86555   7.752   8.523  11.234  0.3346 -0.3708  0.0559
28183SOL    HW186556   7.833   8.477  11.257 -0.4692 -1.4000  0.8744
28183SOL    HW286557   7.682   8.467  11.265 -0.7067  0.7553 -0.1728
28184SOL     OW86558  10.033   4.655   3.620 -0.2675  0.6586 -0.2084
28184SOL    HW186559  10.104   4.599   3.653 -0.5095 -1.4433 -2.8483
28184SOL    HW286560   9.961   4.641   3.681  0.6403  0.5115  0.8787
28185SOL     OW86561   7.989   6.305   8.385 -0.3051 -0.3034  0.6463
28185SOL    HW186562   7.958   6.392   8.362 -2.2423 -0.7405  1.4246
28185SOL    HW286563   8.078   6.301   8.350 -1.7582  0.2982 -3.6105
28186SOL     OW86564   9.585   6.328  10.790  1.0634 -0.2576 -0.9310
28186SOL    HW186565   9.496   6.336  10.756  1.4200 -2.0132 -2.4220
28186SOL    HW286566   9.600   6.411  10.837 -0.6476  0.8919 -2.2834
28187SOL     OW86567   4.822   0.713   7.933 -0.3316 -0.5764 -0.2635
28187SOL    HW186568   4.864   0.630   7.909  2.8197  0.7498  0.1997
28187SOL    HW286569   4.832   0.718   8.029 -0.4221  0.3520 -0.2934
28188SOL     OW86570   1.192   2.028   8.830 -0.4902  0.0471  0.0616
28188SOL    HW186571   1.219   1.943   8.865 -1.1813  0.8622  2.8018
28188SOL    HW286572   1.273   2.067   8.797  0.1443 -0.9654  0.3739
28189SOL     OW86573   6.511   6.183   2.647 -0.1674  0.2835  0.6017
28189SOL    HW186574   6.440   6.132   2.607 -0.9685  0.8521  1.2725
28189SOL    HW286575   6.582   6.178   2.583 -0.7233 -0.4968  0.0203
28190SOL     OW86576   0.150   7.629   3.321 -0.7366  0.3580 -0.3540
28190SOL    HW186577   0.129   7.719   3.296 -0.2808  0.5865  0.0540
28190SOL    HW286578   0.119   7.576   3.248 -0.7877  0.8707 -0.7114
28191SOL     OW86579   3.694   0.713   9.568 -0.7812  0.0520  0.4238
28191SOL    HW186580   3.686   0.693   9.661 -0.6804 -2.6911 -0.0571
28191SOL    HW286581   3.643   0.644   9.524  1.8773 -0.8026 -1.6308
28192SOL     OW86582   3.152   0.963   8.729 -0.1885  0.8001  0.1920
28192SOL    HW186583   3.226   0.905   8.740 -1.0439 -0.5891 -1.0069
28192SOL    HW286584   3.160   1.027   8.799  0.9129 -0.6205  1.4055
28193SOL     OW86585   8.258   6.179   8.383  0.3169 -0.0064  0.3109
28193SOL    HW186586   8.295   6.216   8.463  1.2017 -0.3692  0.0871
28193SOL    HW286587   8.322   6.202   8.315  1.4363 -2.7031  0.3092
28194SOL     OW86588  10.737   9.081   4.636  0.8560 -0.7143 -0.1195
28194SOL    HW186589  10.651   9.103   4.670  1.3031 -1.0813  1.3331
28194SOL    HW286590  10.721   9.045   4.549 -0.2415  1.3541 -0.8350
28195SOL     OW86591   6.577   8.458   7.611 -0.0632 -0.5796  0.5133
28195SOL    HW186592   6.529   8.465   7.528  1.0854 -0.8103 -0.1961
28195SOL    HW286593   6.534   8.387   7.658 -1.7942  0.6317  0.8848
28196SOL     OW86594   5.107   9.381   1.350  0.0568 -0.4167 -0.0211
28196SOL    HW186595   5.198   9.364   1.374 -0.0048 -0.4204  0.2057
28196SOL    HW286596   5.062   9.298   1.364  0.1004 -0.5291 -0.5284
28197SOL     OW86597   5.761   5.032  10.110  0.3799 -1.1609 -0.1962
28197SOL    HW186598   5.843   5.048  10.063 -0.8339  1.0344 -1.7851
28197SOL    HW286599   5.716   4.966  10.058 -0.4952  0.4974 -1.6699
28198SOL     OW86600   1.204   7.496   1.926 -0.0571 -0.2024  0.2852
28198SOL    HW186601   1.289   7.503   1.969 -1.9056  0.6098  4.2395
28198SOL    HW286602   1.178   7.587   1.909 -1.6310 -0.1181  2.6730
28199SOL     OW86603   9.384   0.203   0.100  0.3446  0.6624 -0.4006
28199SOL    HW186604   9.472   0.167   0.090 -0.6920 -2.0488 -0.5504
28199SOL    HW286605   9.356   0.223   0.010 -0.3523 -1.6537 -0.7703
28200SOL     OW86606   3.925   8.505   0.574 -0.4364 -0.3441 -0.2599
28200SOL    HW186607   3.906   8.447   0.648  1.5519 -0.2667  0.3697
28200SOL    HW286608   3.904   8.592   0.606  2.1232 -0.0908  0.9385
28201SOL     OW86609   4.770  10.206   8.048 -0.9897  0.3676 -0.4878
28201SOL    HW186610   4.862  10.216   8.073 -1.1628 -0.6652  0.6012
28201SOL    HW286611   4.723  10.272   8.099 -1.0395 -0.1273  0.1106
28202SOL     OW86612   5.418   2.026   7.832 -0.0197  0.1441 -0.3932
28202SOL    HW186613   5.403   1.946   7.783  0.5668 -0.9366  1.1129
28202SOL    HW286614   5.382   2.095   7.777 -1.6318 -1.2694 -1.2200
28203SOL     OW86615   6.363   9.064   0.847  0.1296 -0.3664 -0.0758
28203SOL    HW186616   6.408   8.990   0.807 -0.8282 -0.1307 -1.6718
28203SOL    HW286617   6.428   9.102   0.906  1.1452 -1.5451 -0.3833
28204SOL     OW86618   1.576   5.479   6.402  0.5505  0.0642 -1.0996
28204SOL    HW186619   1.669   5.489   6.423  0.8305  0.4257 -2.4568
28204SOL    HW286620   1.574   5.464   6.308 -0.6977 -1.1869 -0.9045
28205SOL     OW86621  10.200   7.679   5.992 -0.5847  0.2096  0.0900
28205SOL    HW186622  10.253   7.618   6.044  0.3251  1.5612  0.8309
28205SOL    HW286623  10.264   7.729   5.941 -1.1449  1.5941  0.6861
28206SOL     OW86624  10.470   7.291   1.995 -0.3338  0.3041  0.1099
28206SOL    HW186625  10.421   7.371   2.013 -0.0386  0.8946 -1.5438
28206SOL    HW286626  10.557   7.308   2.030 -0.6027  0.2438  0.8096
28207SOL     OW86627   9.368   5.453   7.990  0.6398  0.0438  0.3137
28207SOL    HW186628   9.357   5.405   7.908  1.1399 -0.2264  0.4048
28207SOL    HW286629   9.462   5.450   8.009  0.7510  1.3937  0.1239
28208SOL     OW86630   5.748   7.837   2.184  0.2350  0.0347 -0.1168
28208SOL    HW186631   5.795   7.919   2.199 -0.8318  0.2150  2.7726
28208SOL    HW286632   5.685   7.859   2.115  0.0781  1.6483  0.4798
28209SOL     OW86633   1.045   0.774   7.222  0.7825  0.3537  0.1737
28209SOL    HW186634   1.064   0.680   7.223  0.0977  0.2057  0.2824
28209SOL    HW286635   1.046   0.800   7.315 -0.3670  0.1488  0.2681
28210SOL     OW86636   5.125   4.306   9.210 -0.2508  0.4155 -0.9261
28210SOL    HW186637   5.048   4.307   9.154  1.0897 -1.4601 -3.0075
28210SOL    HW286638   5.153   4.214   9.210  1.3785  0.8565  0.6043
28211SOL     OW86639   6.290   2.233   7.993 -0.6287 -0.4416 -0.4636
28211SOL    HW186640   6.376   2.217   7.954 -0.4470  0.7583 -0.6045
28211SOL    HW286641   6.246   2.149   7.989  0.2200 -0.8732 -1.1917
28212SOL     OW86642   9.349   2.691   9.334  0.5035  0.3090 -0.3444
28212SOL    HW186643   9.321   2.748   9.262 -0.6165 -1.1032 -1.0799
28212SOL    HW286644   9.375   2.610   9.291  2.2493  0.2910  0.6642
28213SOL     OW86645  10.830   7.188   5.385 -0.3004  0.6379 -0.5276
28213SOL    HW186646  10.819   7.229   5.471 -0.2080 -0.8968  0.2503
28213SOL    HW286647  10.915   7.220   5.354  0.7243 -0.4522  0.9685
28214SOL     OW86648  10.494   7.062   3.409 -0.5416  0.5461 -0.3446
28214SOL    HW186649  10.437   7.013   3.468  0.6521 -1.2146 -0.5762
28214SOL    HW286650  10.497   7.150   3.445 -0.7397 -0.1938  1.5743
28215SOL     OW86651   6.203   8.352  10.267  0.3687  0.1384  0.7098
28215SOL    HW186652   6.229   8.440  10.294 -0.3986  0.4143  0.5621
28215SOL    HW286653   6.240   8.342  10.179 -0.9637  0.9742  0.0183
28216SOL     OW86654   5.978   3.618   8.878 -0.2575  0.3859 -0.5345
28216SOL    HW186655   6.028   3.698   8.895 -1.5259  1.3577 -1.2334
28216SOL    HW286656   6.041   3.559   8.838  0.6924  1.0435 -0.0656
28217SOL     OW86657   7.780   7.995   5.325 -0.0136 -0.3609 -0.0644
28217SOL    HW186658   7.770   8.025   5.415 -2.6376  0.1421 -0.4409
28217SOL    HW286659   7.691   7.971   5.298  0.9065 -1.7033 -2.1176
28218SOL     OW86660   6.728   2.784   4.495  0.1837  0.2805  1.0026
28218SOL    HW186661   6.803   2.822   4.541  1.8654  0.8255 -1.9383
28218SOL    HW286662   6.748   2.690   4.489 -0.1512  0.1691  1.5052
28219SOL     OW86663   6.491   3.994  10.667  0.3879 -1.1344 -0.6255
28219SOL    HW186664   6.561   3.953  10.717  1.0945 -0.9012 -1.4120
28219SOL    HW286665   6.413   3.982  10.721  0.7023 -2.8872 -0.5026
28220SOL     OW86666   2.918   1.030   7.712 -0.1363  0.2651 -0.9720
28220SOL    HW186667   2.983   1.037   7.781  0.2064  0.2050 -1.2859
28220SOL    HW286668   2.924   1.113   7.665 -0.9376  0.6426 -0.4387
28221SOL     OW86669   6.885   1.062   5.863  0.6381 -0.6242  0.2454
28221SOL    HW186670   6.791   1.047   5.870  0.3569  0.1371 -1.4187
28221SOL    HW286671   6.895   1.157   5.867  1.5437 -0.7459  2.1196
28222SOL     OW86672   4.856   0.185   2.319 -0.0294 -0.0187 -0.3373
28222SOL    HW186673   4.787   0.251   2.316 -0.4194 -0.3934 -4.3193
28222SOL    HW286674   4.813   0.106   2.353 -0.9598  0.3777 -0.5787
28223SOL     OW86675  11.278  10.165   8.104 -0.0303 -0.1306 -0.3291
28223SOL    HW186676  11.287  10.128   8.016 -0.2035 -1.1523  0.0741
28223SOL    HW286677  11.212  10.110   8.146  1.9538 -1.3675  1.3426
28224SOL     OW86678   7.230   0.059   9.750  0.3794  0.3698  0.5410
28224SOL    HW186679   7.197  -0.031   9.750  1.8372 -0.1906  0.7906
28224SOL    HW286680   7.171   0.106   9.692 -0.2900 -0.8007  0.2394
28225SOL     OW86681   3.693   0.535   7.675 -0.4705 -0.6816 -0.0135
28225SOL    HW186682   3.781   0.517   7.641  2.1431  3.8628  3.1723
28225SOL    HW286683   3.641   0.556   7.598  2.4316  0.3000 -1.8601
28226SOL     OW86684   4.372   5.437   1.387 -0.0034  0.5141 -0.0659
28226SOL    HW186685   4.421   5.488   1.451 -1.2737  1.5592  0.1098
28226SOL    HW286686   4.405   5.466   1.302  1.1697 -0.3486  0.0689
28227SOL     OW86687   3.110   3.617  11.166 -0.4660 -0.5709 -0.1536
28227SOL    HW186688   3.111   3.562  11.245  1.8012 -3.7283 -2.1238
28227SOL    HW286689   3.017   3.623  11.143 -1.1506  0.0754  2.4229
28228SOL     OW86690   9.983   0.902   6.202  0.0284  0.1625 -0.3448
28228SOL    HW186691  10.033   0.979   6.229 -0.1961  0.5184 -0.9209
28228SOL    HW286692  10.049   0.836   6.183  0.1780 -0.3302  1.7102
28229SOL     OW86693   3.791   8.477   5.146  1.1348  0.3460  0.6753
28229SOL    HW186694   3.823   8.396   5.106 -1.2072  0.7546 -2.4453
28229SOL    HW286695   3.800   8.543   5.077 -1.6989  1.5135  1.2671
28230SOL     OW86696   7.478   1.796   8.759 -0.0680  0.6272 -0.0873
28230SOL    HW186697   7.514   1.813   8.672  0.0973 -2.2705 -0.6851
28230SOL    HW286698   7.548   1.750   8.806 -1.3054 -0.8860  0.3625
28231SOL     OW86699   9.869   0.528   2.289 -0.2857  0.2851 -0.0432
28231SOL    HW186700   9.936   0.584   2.250 -0.3372  0.3264 -0.0709
28231SOL    HW286701   9.787   0.556   2.250 -0.4861  1.0607  0.8970
28232SOL     OW86702   1.421   4.708   5.202 -0.5527  0.0247 -0.4068
28232SOL    HW186703   1.419   4.636   5.265 -0.0242 -2.2019 -2.7061
28232SOL    HW286704   1.370   4.778   5.242  0.6060 -0.8243  2.8634
28233SOL     OW86705   2.689   2.155   2.469  0.2833  0.1487 -0.2609
28233SOL    HW186706   2.629   2.080   2.469 -1.0691  1.1737  0.9126
28233SOL    HW286707   2.672   2.200   2.551  0.8289  1.9311 -1.0594
28234SOL     OW86708   2.342   5.544   5.609 -0.0709  0.2692  0.3598
28234SOL    HW186709   2.416   5.556   5.549 -0.1614  0.0711  0.2060
28234SOL    HW286710   2.265   5.544   5.552 -0.2014  0.6115  0.5341
28235SOL     OW86711   1.302  10.080  11.014 -0.1898  0.1050  0.6730
28235SOL    HW186712   1.336  10.155  10.965  2.6119 -0.0723  2.1631
28235SOL    HW286713   1.264  10.117  11.093 -0.9662  0.0722  0.3323
28236SOL     OW86714   1.269   8.081   3.374 -0.7003 -0.0923 -0.8132
28236SOL    HW186715   1.224   8.100   3.292 -0.8414  2.3155 -0.2445
28236SOL    HW286716   1.334   8.150   3.382  0.7317 -1.4632  0.1403
28237SOL     OW86717   4.460   1.338   2.170 -0.2458  0.2671  0.1232
28237SOL    HW186718   4.393   1.361   2.106  0.6474 -0.5321 -1.1502
28237SOL    HW286719   4.414   1.284   2.234 -1.0092  0.4888 -0.2235
28238SOL     OW86720  10.362   4.371   0.310  0.1114 -0.3679  0.9376
28238SOL    HW186721  10.290   4.318   0.343  0.3894  0.3877  2.9328
28238SOL    HW286722  10.428   4.368   0.380  0.9507  0.9623  0.2450
28239SOL     OW86723   0.254   8.851   0.304  0.0249 -0.8913 -0.3220
28239SOL    HW186724   0.252   8.940   0.270  2.2325  0.6739  3.1389
28239SOL    HW286725   0.329   8.810   0.260 -2.0796 -1.9312 -3.3549
28240SOL     OW86726   5.772   5.417  10.180 -0.2286  0.2891 -0.5050
28240SOL    HW186727   5.770   5.328  10.213 -1.2985  0.7178  0.6447
28240SOL    HW286728   5.827   5.465  10.243 -1.3533  0.8650  0.0756
28241SOL     OW86729   6.863   6.636   3.233 -0.1260 -0.2850  0.0456
28241SOL    HW186730   6.882   6.567   3.296 -1.7295  0.3851  1.3484
28241SOL    HW286731   6.774   6.664   3.255 -0.5360  0.3694 -2.1794
28242SOL     OW86732   6.285   7.057   0.036 -0.3514 -0.4418 -0.2234
28242SOL    HW186733   6.321   6.984   0.086  0.1701 -0.0314  0.0244
28242SOL    HW286734   6.219   7.095   0.092  0.4596  0.2170  0.3136
28243SOL     OW86735   9.042   9.368   5.614 -0.7275  0.3791 -0.4194
28243SOL    HW186736   9.049   9.464   5.615 -0.7131  0.3833 -0.8783
28243SOL    HW286737   9.024   9.345   5.706 -1.2039  0.8511 -0.3880
28244SOL     OW86738   9.293   9.752   7.984  0.6226 -0.1536  0.8763
28244SOL    HW186739   9.242   9.671   7.983  2.5403 -1.4224  1.1867
28244SOL    HW286740   9.380   9.727   7.954  1.2762  1.8053  0.9650
28245SOL     OW86741  10.268   4.362   7.161  0.4056  0.1877 -0.8191
28245SOL    HW186742  10.195   4.406   7.205  0.1678  1.9226 -2.8124
28245SOL    HW286743  10.242   4.270   7.159 -1.9067  0.7855 -1.7146
28246SOL     OW86744   8.788  10.205   7.434  0.4256 -0.1671  0.1903
28246SOL    HW186745   8.835  10.142   7.488 -0.2945 -0.7052  0.2049
28246SOL    HW286746   8.798  10.288   7.481 -0.6887 -0.7282  1.5169
28247SOL     OW86747   9.010   9.414  11.174  0.1178  0.1028  0.6035
28247SOL    HW186748   9.068   9.338  11.169  1.1119  0.7387  1.8858
28247SOL    HW286749   9.005   9.447  11.084  1.1602 -0.3940  0.3538
28248SOL     OW86750   7.258   2.031   6.164  0.4081 -0.4145 -0.6839
28248SOL    HW186751   7.292   2.118   6.185 -0.8175  0.1870 -1.0725
28248SOL    HW286752   7.330   1.987   6.120  0.9219  0.5644 -0.8489
28249SOL     OW86753   0.289   5.313   4.062  0.5729 -0.0569 -0.1990
28249SOL    HW186754   0.302   5.407   4.074 -2.3956  0.4775 -0.3416
28249SOL    HW286755   0.231   5.306   3.986  2.2026 -2.1653 -1.3628
28250SOL     OW86756   2.082  10.341   8.221  0.6511  0.5037 -0.0202
28250SOL    HW186757   2.021  10.359   8.150 -1.2411  0.9809  1.6320
28250SOL    HW286758   2.127  10.261   8.195  0.2460  0.8361 -1.8598
28251SOL     OW86759   8.113   1.973   6.307 -0.4132 -0.4176  0.7948
28251SOL    HW186760   8.112   2.058   6.352 -1.3174 -1.0033  1.9232
28251SOL    HW286761   8.067   1.914   6.366 -1.7868 -1.1958 -0.9616
28252SOL     OW86762   1.508   0.235   8.636 -0.2413  0.2482 -0.0080
28252SOL    HW186763   1.430   0.192   8.670 -0.4758  0.1671 -0.6256
28252SOL    HW286764   1.537   0.293   8.706 -0.5099 -0.1714  0.4510
28253SOL     OW86765   9.292   5.996   6.653  0.4614  0.3042 -0.0649
28253SOL    HW186766   9.339   6.062   6.602 -1.4270  2.9973  1.4631
28253SOL    HW286767   9.339   5.992   6.736 -0.2832  0.9066  0.4039
28254SOL     OW86768   7.708   7.559   6.686  0.1424 -0.0980 -0.2755
28254SOL    HW186769   7.764   7.492   6.647 -0.5348 -1.6289  1.2483
28254SOL    HW286770   7.665   7.601   6.612  1.6600 -0.3509 -1.3478
28255SOL     OW86771   3.030   2.574   1.754 -0.2913 -0.3689 -0.3766
28255SOL    HW186772   2.989   2.659   1.738 -0.5803 -0.2136  1.0504
28255SOL    HW286773   3.109   2.594   1.803  0.0681 -0.8713 -0.7402
28256SOL     OW86774   4.739  10.095   1.205 -0.0696  0.4309 -0.0801
28256SOL    HW186775   4.648  10.126   1.209 -0.2804 -0.2928  0.9712
28256SOL    HW286776   4.739  10.012   1.252  0.4197 -1.4403 -3.1032
28257SOL     OW86777   7.380   6.232   0.182  0.0172 -0.3673 -0.0167
28257SOL    HW186778   7.285   6.224   0.195 -0.1462  0.6142 -0.5402
28257SOL    HW286779   7.390   6.280   0.100  0.9969 -2.0357 -0.9129
28258SOL     OW86780   9.663   2.914   3.694  0.0687  0.2097  0.4232
28258SOL    HW186781   9.622   2.926   3.780 -2.5058  0.4204 -0.7393
28258SOL    HW286782   9.686   3.002   3.665  1.8097  0.0616  1.2274
28259SOL     OW86783   7.695   6.799   4.706 -0.4659  0.2182  0.4758
28259SOL    HW186784   7.610   6.755   4.706 -0.6970  0.6570  0.9253
28259SOL    HW286785   7.687   6.866   4.773 -0.2719  1.2529 -0.5024
28260SOL     OW86786   4.743   6.226   3.210 -0.2920  0.2931  0.1417
28260SOL    HW186787   4.826   6.181   3.196 -0.1885  0.2611  0.8024
28260SOL    HW286788   4.767   6.317   3.226 -0.3834  0.2902  0.3006
28261SOL     OW86789   0.957   0.560   9.139  0.4245 -0.7594 -0.1492
28261SOL    HW186790   0.872   0.595   9.112  1.1497  0.3459 -1.1041
28261SOL    HW286791   0.939   0.470   9.165 -1.4342  0.0715  1.7954
28262SOL     OW86792   4.261  11.000  10.962  0.1638 -0.2971  0.3050
28262SOL    HW186793   4.214  10.933  10.913 -0.5028  0.8958 -0.7645
28262SOL    HW286794   4.302  11.055  10.895  0.4732  0.5202  1.1307
28263SOL     OW86795   9.543   7.373   4.304 -0.7726 -0.1205  0.1069
28263SOL    HW186796   9.638   7.374   4.319 -0.8333 -1.1928  0.6246
28263SOL    HW286797   9.514   7.460   4.333  0.1396  0.5023 -0.7729
28264SOL     OW86798   7.359   4.031   9.724 -0.2211 -0.3541  0.0201
28264SOL    HW186799   7.362   3.959   9.787 -2.1589 -0.4138  0.1266
28264SOL    HW286800   7.443   4.028   9.679  0.7229 -1.1040  1.7199
28265SOL     OW86801   2.824   2.569   7.552 -0.4596  0.2942 -0.2013
28265SOL    HW186802   2.898   2.601   7.603 -0.3729 -0.7487  0.3527
28265SOL    HW286803   2.792   2.493   7.601 -0.6119 -0.5111 -1.5079
28266SOL     OW86804   2.636   4.521   5.326  0.2131 -0.4717 -0.3069
28266SOL    HW186805   2.634   4.575   5.247  0.3014  0.3238  0.2243
28266SOL    HW286806   2.690   4.570   5.388 -0.4293 -0.7369  0.4878
28267SOL     OW86807   7.485   3.166   3.676  0.0074 -0.1394  0.8220
28267SOL    HW186808   7.542   3.142   3.749 -0.2765 -1.8528  0.5278
28267SOL    HW286809   7.396   3.152   3.709 -0.2473  1.7562  1.0241
28268SOL     OW86810   5.373   1.265   0.039 -0.1777 -0.2172  0.6674
28268SOL    HW186811   5.436   1.337   0.029 -1.9810  1.2855 -0.7322
28268SOL    HW286812   5.377   1.218  -0.044  0.5145 -1.3839  1.3331
28269SOL     OW86813   0.037   3.569   8.729 -0.7433  0.4799  0.2583
28269SOL    HW186814   0.095   3.599   8.800  1.6437 -1.2155 -0.8315
28269SOL    HW286815   0.013   3.649   8.683  1.3910  1.2397  0.3302
28270SOL     OW86816   9.829   7.966   4.957 -0.0659 -0.1604  0.1518
28270SOL    HW186817   9.738   7.986   4.978  0.0234  1.0570 -0.5276
28270SOL    HW286818   9.844   7.879   4.995 -1.1002  0.2005  1.4496
28271SOL     OW86819   1.052   0.092   0.348 -0.5662 -0.5861 -0.3212
28271SOL    HW186820   1.127   0.148   0.370 -0.1972 -1.7716  1.6895
28271SOL    HW286821   0.985   0.153   0.318 -0.2133  1.0051  1.8463
28272SOL     OW86822   4.528   6.086   9.791  0.0119  0.1983 -0.2206
28272SOL    HW186823   4.494   6.078   9.701  0.2078 -0.2196 -0.2595
28272SOL    HW286824   4.497   6.007   9.835  0.1124  0.2905  0.0124
28273SOL     OW86825   6.906   0.517   8.023  0.1965  0.5435 -0.3030
28273SOL    HW186826   6.894   0.606   8.056  3.7952  0.1729  2.7173
28273SOL    HW286827   6.817   0.482   8.017 -1.2033  3.3509  1.4709
28274SOL     OW86828  10.625   3.710   1.174  0.3987  0.6069 -0.0448
28274SOL    HW186829  10.533   3.735   1.163  0.2725  0.5593  0.8346
28274SOL    HW286830  10.639   3.713   1.269  0.7457 -1.3308  0.0158
28275SOL     OW86831   3.844   1.415   2.013 -0.3786  0.8173 -0.4592
28275SOL    HW186832   3.876   1.399   2.102 -4.1204  0.1479  0.9252
28275SOL    HW286833   3.827   1.509   2.011  0.4233  0.9703 -0.8074
28276SOL     OW86834   4.113   3.077   9.297 -0.0125  0.2659  0.5512
28276SOL    HW186835   4.063   3.159   9.305  2.4639  1.8310  1.0883
28276SOL    HW286836   4.172   3.078   9.372  0.5072 -1.7378  0.2067
28277SOL     OW86837   9.736   6.858   4.829 -0.4845 -0.0758  0.3075
28277SOL    HW186838   9.670   6.806   4.782 -0.7162 -0.4217  1.0065
28277SOL    HW286839   9.796   6.887   4.761  0.0775 -1.8857 -0.0165
28278SOL     OW86840   8.445  10.323   2.954  0.8714  0.1406  0.0046
28278SOL    HW186841   8.356  10.350   2.934  0.9791  1.1463  0.7409
28278SOL    HW286842   8.437  10.233   2.984  0.4646 -0.6958 -2.3964
28279SOL     OW86843  10.174   7.774   7.341 -0.0107 -0.7951  0.7391
28279SOL    HW186844  10.146   7.865   7.333 -0.2533 -0.8689  0.7567
28279SOL    HW286845  10.145   7.747   7.428 -1.1285 -1.3027  0.2280
28280SOL     OW86846   8.376   3.086   0.420 -0.0635  0.0432  0.4803
28280SOL    HW186847   8.299   3.078   0.364  0.3733  2.1943 -0.5332
28280SOL    HW286848   8.349   3.143   0.491  0.6864  1.2672 -0.1736
28281SOL     OW86849   0.536  10.573   3.726  0.0503  0.1762 -0.5499
28281SOL    HW186850   0.458  10.604   3.772  0.6930  1.0060 -0.0057
28281SOL    HW286851   0.502  10.529   3.648 -1.0082 -0.3244  0.1690
28282SOL     OW86852   2.889   1.346   9.785  0.2337 -0.4598 -0.3832
28282SOL    HW186853   2.849   1.432   9.795 -0.1147 -0.6432 -0.1634
28282SOL    HW286854   2.977   1.356   9.821  0.0873 -0.2764 -0.0745
28283SOL     OW86855   0.910   5.277   3.475  0.4821 -0.7629 -0.0738
28283SOL    HW186856   0.855   5.224   3.533  0.6111 -0.6163  0.1830
28283SOL    HW286857   0.897   5.367   3.505  0.7993 -0.7182 -0.0692
28284SOL     OW86858   9.650   9.584   9.886  0.6757  0.3581 -0.1789
28284SOL    HW186859   9.698   9.597   9.968  0.4073  0.2156  0.0035
28284SOL    HW286860   9.677   9.497   9.857  3.0865  1.5361 -1.8124
28285SOL     OW86861   1.876   0.155   0.951  0.3852 -0.1981 -0.1005
28285SOL    HW186862   1.828   0.202   1.019 -0.0799  0.0935 -0.6226
28285SOL    HW286863   1.967   0.156   0.982  0.1192 -0.4486  0.7260
28286SOL     OW86864   8.083   5.555   6.527  0.2028  0.7813 -0.3176
28286SOL    HW186865   8.140   5.482   6.550 -0.5853  0.4334  0.6017
28286SOL    HW286866   8.017   5.557   6.596 -2.0353 -0.0255 -2.2649
28287SOL     OW86867   3.807   7.443   6.108 -0.3211  0.5212 -0.0249
28287SOL    HW186868   3.761   7.475   6.030 -0.8681  1.3544  0.6274
28287SOL    HW286869   3.853   7.519   6.142 -0.8800  0.4151  1.0191
28288SOL     OW86870   2.418  10.412   9.825  0.7253  0.2114 -0.1766
28288SOL    HW186871   2.471  10.492   9.814 -0.2005  0.9996  0.8485
28288SOL    HW286872   2.346  10.423   9.763 -0.2187  0.9164  1.0052
28289SOL     OW86873   9.918   3.528   7.458 -0.0657  0.5783  0.9042
28289SOL    HW186874   9.880   3.454   7.410 -0.6352  0.7600  1.0606
28289SOL    HW286875   9.979   3.568   7.396 -1.9229  1.7476 -0.2609
28290SOL     OW86876  10.219  11.152   4.734  0.0500  0.2640 -0.3051
28290SOL    HW186877  10.161  11.222   4.765  0.2218 -0.3531  1.5408
28290SOL    HW286878  10.304  11.171   4.775 -0.3286 -1.9217  1.6969
28291SOL     OW86879  10.814   0.222   1.749 -0.7642 -0.2876  0.2073
28291SOL    HW186880  10.746   0.168   1.709  0.5827 -2.8635  1.1598
28291SOL    HW286881  10.883   0.160   1.772  0.6458  1.7962  1.9577
28292SOL     OW86882   0.577   3.094   2.453 -1.3238 -0.4084  0.3221
28292SOL    HW186883   0.520   3.106   2.376 -1.3608 -2.0519  0.0442
28292SOL    HW286884   0.632   3.020   2.430 -2.2903 -1.8732  2.3951
28293SOL     OW86885   3.243   8.635  10.211 -0.2796  0.0831  0.3072
28293SOL    HW186886   3.225   8.675  10.296  0.7609  0.2539  0.4645
28293SOL    HW286887   3.285   8.552  10.232 -1.0789 -0.4194 -0.0391
28294SOL     OW86888   9.575   3.180   3.226  0.3345 -0.2753  0.6353
28294SOL    HW186889   9.601   3.271   3.231  1.4878 -0.3309 -2.3245
28294SOL    HW286890   9.504   3.171   3.290 -0.2063  2.8086  0.5906
28295SOL     OW86891   0.098   0.013   0.648  0.0172 -0.4005  0.2024
28295SOL    HW186892   0.095   0.003   0.553 -0.5633 -0.4815  0.2221
28295SOL    HW286893   0.191   0.008   0.670  0.0662 -1.8423 -0.2035
28296SOL     OW86894  10.307   7.416   9.122 -0.0930  0.1365  0.5505
28296SOL    HW186895  10.230   7.361   9.135 -0.2419 -0.1439 -1.2593
28296SOL    HW286896  10.341   7.431   9.210 -1.1466 -1.2663  1.2352
28297SOL     OW86897   4.500   9.187   4.449  0.2138 -0.3638  0.1842
28297SOL    HW186898   4.449   9.184   4.368 -1.4452 -0.2066  1.1813
28297SOL    HW286899   4.549   9.269   4.443  0.2045 -0.4068 -0.6914
28298SOL     OW86900   8.569   5.058   3.976 -0.4535 -0.3958 -0.2582
28298SOL    HW186901   8.483   5.098   3.961  0.3088  1.6828  0.4864
28298SOL    HW286902   8.621   5.129   4.015  1.1190 -2.0752  0.8278
28299SOL     OW86903   3.585   4.857   3.173 -0.6042 -0.1831 -0.0167
28299SOL    HW186904   3.650   4.898   3.229  1.8936 -1.0309 -2.1048
28299SOL    HW286905   3.518   4.824   3.234  1.9993 -1.2502  2.4917
28300SOL     OW86906   2.384   2.681   4.206 -0.0437  0.1553  0.3308
28300SOL    HW186907   2.413   2.693   4.297  2.5516  1.8944 -0.6239
28300SOL    HW286908   2.416   2.593   4.183 -0.0995 -0.0189  0.8896
28301SOL     OW86909   5.808   9.033   5.814 -1.1298  0.1512 -0.1182
28301SOL    HW186910   5.754   9.012   5.738  0.9231  1.5072 -2.0624
28301SOL    HW286911   5.892   9.059   5.777 -0.3847  1.9433  2.5736
28302SOL     OW86912   7.116   3.964   8.908  0.3807  0.3273 -0.4845
28302SOL    HW186913   7.070   4.018   8.973 -0.4985 -1.6310  0.6020
28302SOL    HW286914   7.073   3.984   8.825  0.8434  2.1140 -0.3418
28303SOL     OW86915   3.324   8.272   1.960 -0.7189  0.2233  0.3362
28303SOL    HW186916   3.361   8.189   1.929 -0.1222  0.8433 -0.6505
28303SOL    HW286917   3.400   8.327   1.977 -1.0695  2.0598 -3.1788
28304SOL     OW86918   7.874   0.967   4.073 -0.0645  1.4119  0.3717
28304SOL    HW186919   7.961   0.927   4.077 -0.4444  0.4545 -0.6049
28304SOL    HW286920   7.858   0.982   3.980 -1.9158 -0.6927  0.2641
28305SOL     OW86921   5.012   0.497  10.602  0.3824  0.3447  0.4923
28305SOL    HW186922   4.954   0.486  10.527 -1.6145  1.8149  1.7253
28305SOL    HW286923   5.028   0.408  10.632  2.4759 -0.4332 -2.4491
28306SOL     OW86924   4.318   0.738   9.686  0.2467 -0.0778  0.0419
28306SOL    HW186925   4.294   0.665   9.628  1.5169 -0.3648 -0.1471
28306SOL    HW286926   4.268   0.812   9.653  0.3123 -0.4442 -0.9051
28307SOL     OW86927  10.308   6.402   6.519  0.0522  0.3747 -0.2752
28307SOL    HW186928  10.395   6.361   6.522  0.1780  0.6515  1.4658
28307SOL    HW286929  10.247   6.329   6.527  0.2030  0.3263  0.5280
28308SOL     OW86930   1.522   0.544   1.223 -0.4701  0.8606  0.1576
28308SOL    HW186931   1.488   0.597   1.151 -0.3997 -1.1013 -1.3981
28308SOL    HW286932   1.450   0.483   1.243  0.5570 -0.5562 -0.3121
28309SOL     OW86933   6.204   0.267   9.835  0.0146 -0.2386  0.1541
28309SOL    HW186934   6.224   0.283   9.928  2.0056 -1.6142  0.0373
28309SOL    HW286935   6.189   0.354   9.798 -1.0159  0.3201  1.7898
28310SOL     OW86936   4.530   7.205  10.883 -0.4527 -0.4731 -0.6599
28310SOL    HW186937   4.469   7.188  10.812 -2.0595  0.6508  0.3698
28310SOL    HW286938   4.608   7.241  10.841 -1.4794  0.4478 -1.8148
28311SOL     OW86939   2.522   8.686   8.945 -0.5411  0.2526 -0.2008
28311SOL    HW186940   2.598   8.653   8.993  0.5196  1.9461 -0.5998
28311SOL    HW286941   2.449   8.679   9.006  0.5076  1.1173  1.2122
28312SOL     OW86942   9.677   8.490   7.826  0.5448 -0.0829 -0.0884
28312SOL    HW186943   9.705   8.413   7.875  0.2864  1.1103  2.0306
28312SOL    HW286944   9.752   8.550   7.831 -0.3639  0.9997  0.9598
28313SOL     OW86945   3.055   7.554   5.670 -0.5772 -0.2293 -0.4002
28313SOL    HW186946   2.980   7.522   5.620 -1.7478  2.1383 -0.2837
28313SOL    HW286947   3.097   7.619   5.613  1.7125 -1.7978 -0.6357
28314SOL     OW86948   0.501   6.222   5.443 -0.4458 -0.2647  0.7064
28314SOL    HW186949   0.411   6.254   5.447 -0.3092  0.2589 -0.2731
28314SOL    HW286950   0.492   6.127   5.433 -0.8914 -0.1870  0.3307
28315SOL     OW86951   2.943   7.605   3.055  1.1454 -0.7254 -0.3568
28315SOL    HW186952   2.879   7.646   2.996  0.7895 -1.7566 -0.7200
28315SOL    HW286953   3.028   7.620   3.013  1.0964  0.2644 -0.1057
28316SOL     OW86954   4.906   4.814   5.137  0.2711  0.5314  0.1156
28316SOL    HW186955   4.887   4.769   5.055 -2.1840  1.6959 -0.0361
28316SOL    HW286956   4.899   4.907   5.116  3.4030  1.0590  0.8397
28317SOL     OW86957   4.378   2.985   5.070  0.1148  0.4530  0.6433
28317SOL    HW186958   4.387   3.008   5.163 -1.9048 -1.2625  1.3651
28317SOL    HW286959   4.287   2.958   5.062 -0.0165  1.4787 -2.1107
28318SOL     OW86960   5.902   8.097   7.962 -0.2666 -0.2602  0.0193
28318SOL    HW186961   5.928   8.045   7.886  0.0386 -0.9411  0.5780
28318SOL    HW286962   5.831   8.153   7.930 -0.6181 -1.0374 -0.5859
28319SOL     OW86963   0.221   9.742   2.541 -0.1721  0.5446 -0.0196
28319SOL    HW186964   0.133   9.720   2.570  0.2970 -2.1535 -0.3975
28319SOL    HW286965   0.279   9.697   2.604  0.9952  2.6182  0.4902
28320SOL     OW86966   6.706   2.221   9.006  0.6676 -0.2673 -0.2270
28320SOL    HW186967   6.649   2.254   9.076  0.2093 -0.9035 -0.2909
28320SOL    HW286968   6.656   2.234   8.926  1.1500  0.3632 -0.4361
28321SOL     OW86969   1.494   9.298   5.914  0.0573 -0.1178 -0.9194
28321SOL    HW186970   1.431   9.258   5.854  0.3402  0.3376 -1.5226
28321SOL    HW286971   1.451   9.378   5.944 -1.2431 -1.6057  1.6057
28322SOL     OW86972   0.971   1.571   8.684  0.1723  0.1744 -0.4430
28322SOL    HW186973   0.951   1.637   8.750  0.1369 -1.3527  1.1567
28322SOL    HW286974   0.915   1.593   8.610  1.8031  3.2660 -0.9193
28323SOL     OW86975   6.081   9.884   5.029 -0.2872 -0.1425  0.2203
28323SOL    HW186976   6.079   9.928   4.944 -1.1520 -0.8002 -0.1100
28323SOL    HW286977   5.992   9.851   5.042  0.3523 -1.9316  0.3766
28324SOL     OW86978   5.095   2.162   0.248  0.0434 -0.0336 -0.6256
28324SOL    HW186979   5.177   2.128   0.283  0.1695  0.1215 -0.7654
28324SOL    HW286980   5.070   2.098   0.181 -1.1983 -1.3587  1.0370
28325SOL     OW86981   1.017   1.902   8.460  0.5772  0.2482 -0.1341
28325SOL    HW186982   0.935   1.948   8.444  0.6170  0.7863  1.0652
28325SOL    HW286983   0.989   1.816   8.494  0.5010 -0.7326 -2.5303
28326SOL     OW86984  10.970  11.076   0.494 -0.4804  0.4416 -0.0174
28326SOL    HW186985  11.005  11.165   0.498  2.2853 -0.5935  0.5753
28326SOL    HW286986  11.046  11.019   0.502 -2.2749 -2.0240  0.7375
28327SOL     OW86987   9.995   0.999   7.156 -0.1510 -0.2232 -0.1385
28327SOL    HW186988   9.978   0.926   7.097 -1.2314 -0.4608  0.4429
28327SOL    HW286989   9.943   0.980   7.234  0.0787  0.8318  0.2902
28328SOL     OW86990  10.533  10.238   1.218 -0.1035 -0.1770 -0.4929
28328SOL    HW186991  10.512  10.159   1.169 -1.8458  0.1056 -0.2504
28328SOL    HW286992  10.513  10.310   1.158 -1.5374  0.1519  0.3384
28329SOL     OW86993   1.740   6.136   6.848 -0.2897 -0.5339  0.1115
28329SOL    HW186994   1.809   6.135   6.914 -2.2032  1.1981  2.3357
28329SOL    HW286995   1.773   6.192   6.779  0.5864  0.2496  1.1304
28330SOL     OW86996   9.671   6.321   8.988 -0.4345  0.0240 -0.3978
28330SOL    HW186997   9.757   6.280   9.000  0.0968  1.3968  0.7949
28330SOL    HW286998   9.620   6.292   9.064 -1.3327 -1.4228 -1.4999
28331SOL     OW86999   4.535   7.009   1.058 -0.2117 -0.4924  0.7607
28331SOL    HW187000   4.553   7.097   1.023 -0.3746 -0.7592 -0.0074
28331SOL    HW287001   4.487   7.026   1.139 -0.1169  0.1358  0.6969
28332SOL     OW87002   9.987   9.448   4.392  0.5318  0.4339 -0.4972
28332SOL    HW187003   9.918   9.395   4.353 -0.5944  0.5057  1.2772
28332SOL    HW287004  10.048   9.385   4.430  0.9562  0.3854 -1.2437
28333SOL     OW87005   2.363   3.176   1.395 -0.5847 -0.0252 -0.0205
28333SOL    HW187006   2.333   3.142   1.479 -0.0886 -1.1251 -0.2692
28333SOL    HW287007   2.284   3.212   1.354 -1.0280 -0.3884  0.4970
28334SOL     OW87008   7.900   8.630   4.171  0.2932 -0.2831  0.6031
28334SOL    HW187009   7.897   8.684   4.092  1.0083 -1.2462 -0.1153
28334SOL    HW287010   7.941   8.548   4.142  1.4169 -0.3207  2.1631
28335SOL     OW87011   8.149   3.053   9.968 -0.4166 -0.5780  0.2131
28335SOL    HW187012   8.244   3.068   9.965 -0.3559 -0.8986  0.4698
28335SOL    HW287013   8.116   3.115  10.032 -0.6280  0.7652 -1.1465
28336SOL     OW87014   6.653   4.211   8.162  0.1296 -0.6189  0.5918
28336SOL    HW187015   6.663   4.299   8.200  0.8078 -0.6551  0.5018
28336SOL    HW287016   6.736   4.167   8.180  1.3193  0.0302 -2.6485
28337SOL     OW87017   7.578   1.545   3.608  0.7128 -0.4075  0.4591
28337SOL    HW187018   7.499   1.591   3.582  0.3724 -0.6098  1.1171
28337SOL    HW287019   7.624   1.607   3.666  0.6495 -0.5862  0.7023
28338SOL     OW87020   9.317   3.852   3.975  0.0048 -0.5774  0.9148
28338SOL    HW187021   9.256   3.891   4.038 -0.2402  0.2530  0.1862
28338SOL    HW287022   9.341   3.925   3.918 -0.0794 -1.3978 -0.1844
28339SOL     OW87023  10.825   2.874   3.206  1.0211 -0.2459 -0.2252
28339SOL    HW187024  10.888   2.803   3.214  0.3804 -0.7912  0.0876
28339SOL    HW287025  10.852   2.922   3.128  1.8061 -0.4789 -0.1041
28340SOL     OW87026   8.617   4.586   7.242  0.0108 -0.3228  0.0026
28340SOL    HW187027   8.600   4.492   7.251 -1.4294  0.1100  3.9968
28340SOL    HW287028   8.531   4.624   7.226  0.4468  0.3936 -0.6537
28341SOL     OW87029   7.011   4.174  10.178  0.1973 -0.0502 -0.1343
28341SOL    HW187030   6.917   4.166  10.196  0.3760 -1.3071  0.3084
28341SOL    HW287031   7.037   4.087  10.148  1.6627 -0.3653  1.9100
28342SOL     OW87032   9.005  10.804   2.775 -0.1744  0.3405  0.5170
28342SOL    HW187033   8.980  10.749   2.849 -2.0257 -1.0426 -1.0275
28342SOL    HW287034   9.100  10.812   2.782 -0.3252  0.6662  3.2675
28343SOL     OW87035   9.921   6.904   5.640  0.2998 -0.4629  0.1439
28343SOL    HW187036   9.893   6.928   5.728  0.7132  0.2406  0.0882
28343SOL    HW287037   9.977   6.977   5.612  0.1513 -0.6680 -0.7042
28344SOL     OW87038   2.205   1.485   1.574 -0.0798  0.4583 -0.4949
28344SOL    HW187039   2.262   1.411   1.555 -0.2446  0.2974 -0.3598
28344SOL    HW287040   2.116   1.451   1.561 -0.1599  0.5938 -0.2972
28345SOL     OW87041   6.488   6.265   0.453  1.0255 -0.9999  0.4670
28345SOL    HW187042   6.411   6.291   0.402  1.3556  1.4833  1.0936
28345SOL    HW287043   6.554   6.241   0.387  0.8517  0.3803 -0.2440
28346SOL     OW87044   2.531   5.182   5.545 -0.0377 -0.1150  0.1762
28346SOL    HW187045   2.477   5.220   5.614  1.1566 -0.9491  1.6146
28346SOL    HW287046   2.514   5.237   5.468  0.1902  2.1534  1.6572
28347SOL     OW87047   3.641   8.859  10.944  0.2524  0.0644  0.0702
28347SOL    HW187048   3.568   8.877  10.885 -0.6336 -2.0062  0.4468
28347SOL    HW287049   3.701   8.932  10.930 -0.4578  0.2641 -2.5243
28348SOL     OW87050   4.928   6.628   4.377 -0.2827 -0.0532  0.1787
28348SOL    HW187051   4.933   6.658   4.286 -2.1513  0.0289  0.0507
28348SOL    HW287052   4.942   6.707   4.429 -0.5277  0.1635 -0.0768
28349SOL     OW87053   1.446   2.146   4.710 -0.3917  0.9759  0.0870
28349SOL    HW187054   1.367   2.178   4.667 -1.8337 -0.6666  1.3796
28349SOL    HW287055   1.440   2.180   4.799 -0.8793 -1.0450  0.8707
28350SOL     OW87056   0.046   0.476   9.952  0.2769 -0.2229  0.4803
28350SOL    HW187057   0.120   0.536   9.950 -0.6092  0.8792 -1.7216
28350SOL    HW287058   0.069   0.406   9.891 -0.2419 -0.1918  0.2409
28351SOL     OW87059   8.266   8.976   7.203  0.0924  0.4145  0.0345
28351SOL    HW187060   8.330   8.905   7.199  1.2756  1.3864  0.9400
28351SOL    HW287061   8.252   9.002   7.112 -1.8963 -2.2442 -0.5362
28352SOL     OW87062   5.052   9.218   0.840 -0.1622 -0.5997  0.5394
28352SOL    HW187063   5.087   9.129   0.842 -0.8368 -0.8665  1.6768
28352SOL    HW287064   5.030   9.237   0.931 -1.0638  0.3071  0.1559
28353SOL     OW87065   8.149  10.380   6.415  0.1834  0.8206  0.3491
28353SOL    HW187066   8.221  10.317   6.412 -1.7381 -1.5516 -2.9671
28353SOL    HW287067   8.103  10.360   6.497 -0.9215 -3.0618 -1.0037
28354SOL     OW87068  10.926   8.318   7.185  0.1008 -0.4790  0.0350
28354SOL    HW187069  10.960   8.234   7.155  3.1141  0.8592 -0.6776
28354SOL    HW287070  10.916   8.370   7.105 -0.5310  0.2313  0.5584
28355SOL     OW87071   8.470   4.928   1.729 -0.0619 -0.5847 -0.0650
28355SOL    HW187072   8.494   5.018   1.708 -1.8755 -0.1478 -0.4591
28355SOL    HW287073   8.413   4.935   1.806  2.5840 -1.7492  2.1474
28356SOL     OW87074   8.238   4.031  10.860 -0.2638 -0.1728  0.0078
28356SOL    HW187075   8.173   4.091  10.824  0.2253  0.2649 -0.1451
28356SOL    HW287076   8.192   3.947  10.866 -0.3997 -0.2245 -1.4834
28357SOL     OW87077   1.265   4.205   9.550 -0.8687 -0.0332 -0.1760
28357SOL    HW187078   1.334   4.269   9.570 -0.8002 -0.2107  0.1756
28357SOL    HW287079   1.214   4.245   9.480 -0.1214 -0.1093 -0.7792
28358SOL     OW87080   7.739   7.716   6.972 -0.2286 -0.2740  0.0626
28358SOL    HW187081   7.752   7.686   6.882  0.4282  1.1501 -0.3460
28358SOL    HW287082   7.663   7.666   7.003  0.3896 -1.8184 -0.7765
28359SOL     OW87083  10.802  11.053   9.968  0.5861  0.2145 -0.4402
28359SOL    HW187084  10.855  11.033  10.045  0.8249 -0.6005 -0.7971
28359SOL    HW287085  10.740  10.980   9.961 -1.6073  1.8579  0.7882
28360SOL     OW87086   3.988  10.336   2.729 -0.9460  0.5768 -0.4093
28360SOL    HW187087   3.972  10.285   2.649  0.1845 -1.4528  0.5897
28360SOL    HW287088   3.907  10.326   2.780  0.2674 -2.9326  1.1070
28361SOL     OW87089   9.977   3.661   9.956  0.1202  0.1196  0.1205
28361SOL    HW187090  10.004   3.609   9.881 -0.2302  0.1070 -0.0016
28361SOL    HW287091   9.917   3.604  10.005  0.1015  0.2383  0.2390
28362SOL     OW87092   3.879   6.708   0.927 -0.1291  0.2635 -0.1168
28362SOL    HW187093   3.915   6.711   1.015  2.1206 -1.4683 -0.8769
28362SOL    HW287094   3.936   6.767   0.877  0.8660 -1.4031 -1.0493
28363SOL     OW87095   5.263   7.085   8.264 -0.1442  0.9596  0.2892
28363SOL    HW187096   5.354   7.112   8.278 -0.1536  1.4753 -0.5559
28363SOL    HW287097   5.267   7.025   8.189 -0.4829  0.8463  0.3580
28364SOL     OW87098   7.610   1.451   7.603  0.0294  0.1290  0.2664
28364SOL    HW187099   7.639   1.359   7.604  0.7362  0.2883 -1.7510
28364SOL    HW287100   7.680   1.498   7.649 -0.7528 -0.3955  2.0996
28365SOL     OW87101   8.886   7.350   4.204 -0.3671 -0.2336  0.0033
28365SOL    HW187102   8.953   7.283   4.217 -0.0651 -0.0209 -0.4428
28365SOL    HW287103   8.832   7.345   4.282 -0.2658 -0.9075  0.0383
28366SOL     OW87104   1.651  11.206   7.118  0.1896  0.5854  0.1861
28366SOL    HW187105   1.638  11.178   7.028 -1.9990  1.9616 -0.0069
28366SOL    HW287106   1.589  11.154   7.169  0.7179  0.5040  0.7620
28367SOL     OW87107   1.426   8.563   8.502  1.1867 -0.1049 -0.4605
28367SOL    HW187108   1.480   8.505   8.447  0.6458  1.1987 -2.4607
28367SOL    HW287109   1.479   8.642   8.512  0.9089  0.0026  0.1848
28368SOL     OW87110   9.121   6.464   1.251  0.5510 -0.1369 -0.2647
28368SOL    HW187111   9.083   6.393   1.197  0.8744 -0.7172  0.2595
28368SOL    HW287112   9.214   6.445   1.253  0.4611 -0.5031  1.0497
28369SOL     OW87113   9.565   0.830   4.347 -0.6381 -0.9585  0.0940
28369SOL    HW187114   9.623   0.884   4.400 -0.5393 -2.5395  1.7416
28369SOL    HW287115   9.477   0.864   4.366 -0.6349 -1.6879  1.6087
28370SOL     OW87116   8.081   5.189  10.036  0.2773  0.0666 -0.1918
28370SOL    HW187117   8.065   5.229   9.950 -3.3411  0.8734  0.6996
28370SOL    HW287118   8.011   5.125  10.046  2.4523 -2.2987  0.9583
28371SOL     OW87119   0.072   4.950   9.703  0.3401 -0.3224 -0.0378
28371SOL    HW187120   0.038   4.963   9.615  1.4679 -0.0369 -0.4464
28371SOL    HW287121   0.167   4.956   9.694  0.5052 -0.8085  1.1120
28372SOL     OW87122   4.269   6.312   6.157  0.1312 -0.7181 -0.1260
28372SOL    HW187123   4.209   6.340   6.087  0.9971  0.1892 -0.5373
28372SOL    HW287124   4.218   6.323   6.238 -0.0885  0.6302 -0.4175
28373SOL     OW87125   8.791   1.667   8.451  0.0382 -0.1035 -0.7124
28373SOL    HW187126   8.805   1.692   8.542 -0.1406  2.5254 -1.3311
28373SOL    HW287127   8.712   1.612   8.454  1.5363 -2.4023  0.9417
28374SOL     OW87128   8.495   1.248   8.068  0.5630  0.3467 -0.0141
28374SOL    HW187129   8.444   1.174   8.102  2.9965 -1.2063  0.5728
28374SOL    HW287130   8.488   1.315   8.136  0.2148 -0.2626  0.5723
28375SOL     OW87131   9.584   4.613   3.483  0.0928 -0.9347  0.3827
28375SOL    HW187132   9.540   4.572   3.557  0.5335 -1.2395  0.4761
28375SOL    HW287133   9.521   4.606   3.411  0.5554 -2.6891  0.1217
28376SOL     OW87134   5.672   6.110   9.296  0.5304 -0.2585  0.4022
28376SOL    HW187135   5.595   6.055   9.311 -0.8727  0.5871 -2.9605
28376SOL    HW287136   5.746   6.050   9.308 -0.7233 -1.7011  1.3493
28377SOL     OW87137  10.482   3.486   2.933 -0.0695  0.0968 -0.1762
28377SOL    HW187138  10.529   3.517   3.011 -0.6771  2.3023 -0.6293
28377SOL    HW287139  10.439   3.406   2.961  2.6946 -1.2052  0.6874
28378SOL     OW87140   2.219   6.458   5.544  0.3597 -0.1671  0.0582
28378SOL    HW187141   2.144   6.399   5.532  1.8832 -1.7834 -2.3679
28378SOL    HW287142   2.181   6.546   5.541 -1.5996 -0.9310  0.5237
28379SOL     OW87143   7.301   2.958   1.356  0.3693  0.2636  0.3834
28379SOL    HW187144   7.337   2.942   1.269  0.2163  0.3854  0.2978
28379SOL    HW287145   7.242   2.884   1.372 -0.4172  0.7832 -0.0555
28380SOL     OW87146   2.998   0.765   0.488 -0.4872 -0.0144 -0.0774
28380SOL    HW187147   2.954   0.695   0.536 -0.7635  1.4613  1.9056
28380SOL    HW287148   2.994   0.841   0.545  0.6146  1.4183 -1.7802
28381SOL     OW87149   2.919   8.325   4.951 -0.7839 -0.4844  0.0236
28381SOL    HW187150   3.012   8.303   4.951 -1.2555 -2.7294 -0.5891
28381SOL    HW287151   2.916   8.418   4.974  1.5143 -0.6577  1.2988
28382SOL     OW87152  11.223   4.241   5.821  0.1146 -0.5242  0.2379
28382SOL    HW187153  11.248   4.161   5.867 -3.4720 -1.2311  1.2544
28382SOL    HW287154  11.135   4.223   5.788 -0.1414  2.4219 -1.0089
28383SOL     OW87155   5.274   4.991   3.713  0.5754  0.4848 -0.4587
28383SOL    HW187156   5.285   5.066   3.770  0.7426 -0.6726  1.1086
28383SOL    HW287157   5.181   4.972   3.714  0.4521  0.9730 -1.3011
28384SOL     OW87158  10.987   1.643  10.268 -0.9685  0.4531 -0.6165
28384SOL    HW187159  10.967   1.722  10.317  2.6997  0.4919  1.1559
28384SOL    HW287160  11.024   1.674  10.186 -0.2438  0.5926 -0.2443
28385SOL     OW87161   6.009   7.240   1.041  0.1596 -1.2137 -0.2313
28385SOL    HW187162   6.092   7.256   1.086 -0.1973 -0.5093  0.1851
28385SOL    HW287163   6.018   7.285   0.957 -0.9534  1.6316  1.0484
28386SOL     OW87164   7.994   7.205   8.082  0.4142 -0.8688 -0.3233
28386SOL    HW187165   8.056   7.164   8.023  2.6989  1.4005  0.3051
28386SOL    HW287166   8.034   7.195   8.169  0.9502  2.2182 -0.1121
28387SOL     OW87167   4.843   2.254   8.256  0.7334 -0.3808  0.2960
28387SOL    HW187168   4.852   2.234   8.163  0.7706  1.4446 -0.1343
28387SOL    HW287169   4.770   2.200   8.286  0.8362 -1.1143 -0.7517
28388SOL     OW87170   7.918   5.136   6.565 -0.1737  0.1281  0.4686
28388SOL    HW187171   8.005   5.125   6.526 -0.6580 -0.8756 -0.4009
28388SOL    HW287172   7.867   5.178   6.496 -0.8314 -0.9207  0.2957
28389SOL     OW87173   4.621   1.654   1.725  0.1309  0.2448 -0.2796
28389SOL    HW187174   4.654   1.736   1.760 -0.9447  0.3287  0.5976
28389SOL    HW287175   4.603   1.600   1.803  2.3197 -1.4620 -0.8485
28390SOL     OW87176  10.326   4.242   3.509  0.3188  0.1761  0.4386
28390SOL    HW187177  10.366   4.158   3.531  0.2763 -0.2036 -0.8577
28390SOL    HW287178  10.393   4.307   3.531  1.6561 -0.4300 -1.5873
28391SOL     OW87179  10.519   2.726   2.197 -0.0897 -0.0617 -0.0951
28391SOL    HW187180  10.613   2.712   2.210  0.1234  0.0854 -1.3448
28391SOL    HW287181  10.485   2.739   2.286  0.9365 -0.8551  0.4514
28392SOL     OW87182   1.559   2.759   4.499  0.2854 -0.0799  0.7033
28392SOL    HW187183   1.650   2.746   4.525  0.3407  1.7298  1.5567
28392SOL    HW287184   1.559   2.842   4.451 -1.3914  1.8511  3.7404
28393SOL     OW87185   1.032   9.273   4.960  0.1323 -0.0290 -0.5753
28393SOL    HW187186   1.126   9.258   4.972  0.2914 -0.4767 -2.1625
28393SOL    HW287187   0.999   9.286   5.049  1.6250 -0.2365  0.0515
28394SOL     OW87188  10.663   3.003   6.348 -1.0937 -0.4259  0.0644
28394SOL    HW187189  10.657   3.064   6.421 -1.5207 -1.8156  1.2115
28394SOL    HW287190  10.620   2.924   6.378  1.0191 -1.9656 -0.6835
28395SOL     OW87191   1.475   4.788   4.948  0.3097 -0.0031  0.1455
28395SOL    HW187192   1.454   4.741   5.028  0.1450 -0.5183 -0.1930
28395SOL    HW287193   1.555   4.746   4.916 -1.5895 -2.3500 -1.9118
28396SOL     OW87194   6.502   9.117   2.689 -0.1346  0.0630  0.6273
28396SOL    HW187195   6.507   9.060   2.766  0.3807  1.7515  1.8984
28396SOL    HW287196   6.589   9.110   2.650 -0.3141 -0.5923  0.3190
28397SOL     OW87197   0.707   7.655   2.460  0.1051  0.0296 -0.6393
28397SOL    HW187198   0.704   7.638   2.366  0.4507 -0.7441 -0.5216
28397SOL    HW287199   0.787   7.705   2.473  0.4865 -0.5648 -0.6611
28398SOL     OW87200   5.849  10.011   8.403 -0.1764  0.1800 -0.0901
28398SOL    HW187201   5.787  10.079   8.429  0.8378  1.4397 -0.8182
28398SOL    HW287202   5.841   9.944   8.470 -0.8077  1.2851  0.9771
28399SOL     OW87203   4.234   4.919   4.144 -0.2761  0.0689 -0.2672
28399SOL    HW187204   4.155   4.957   4.106  0.3682 -0.3093 -2.1123
28399SOL    HW287205   4.265   4.857   4.078  2.1683  1.0112 -0.1380
28400SOL     OW87206   1.969   8.027   4.977  0.1331  0.2104  0.1134
28400SOL    HW187207   2.043   8.079   5.007 -0.7114  2.4171 -1.3778
28400SOL    HW287208   1.899   8.047   5.038  0.8890 -2.6797  2.1609
28401SOL     OW87209   6.811   1.523  11.151 -0.2023  0.1688 -0.0615
28401SOL    HW187210   6.831   1.563  11.066  0.1446  0.4854  0.1659
28401SOL    HW287211   6.750   1.452  11.130 -0.4190  0.4853 -0.5304
28402SOL     OW87212   6.125   3.517   4.823 -0.6763 -0.3497  0.0394
28402SOL    HW187213   6.031   3.503   4.828 -1.5563  3.5319 -1.5404
28402SOL    HW287214   6.150   3.540   4.913 -1.3609 -0.8498  0.3651
28403SOL     OW87215   9.561   4.180   7.896  0.1362  0.3339 -0.1540
28403SOL    HW187216   9.502   4.119   7.851 -0.1277  1.8896 -2.0645
28403SOL    HW287217   9.531   4.267   7.868  0.6846  1.3596  2.2334
28404SOL     OW87218   5.747   9.522   4.668 -0.1338  0.0522  0.3728
28404SOL    HW187219   5.827   9.540   4.716  0.0267 -0.9211  0.5002
28404SOL    HW287220   5.699   9.460   4.723 -1.1431  0.8977  0.4638
28405SOL     OW87221   6.942   2.324   0.587  0.1274  0.8896  0.1749
28405SOL    HW187222   6.989   2.388   0.640 -0.8881  0.6317  1.4504
28405SOL    HW287223   6.852   2.328   0.619 -0.3395  0.0898 -0.9497
28406SOL     OW87224   9.618   5.515   7.635  0.2558  0.0182  1.0139
28406SOL    HW187225   9.660   5.515   7.549  0.0167 -0.9575  0.8772
28406SOL    HW287226   9.666   5.581   7.685 -0.1712  1.2265 -0.1171
28407SOL     OW87227   4.674  10.170   0.465  0.5542 -0.2476  0.1238
28407SOL    HW187228   4.722  10.231   0.521  1.1074  0.9846 -1.6161
28407SOL    HW287229   4.593  10.217   0.443  0.1501 -0.8886  0.2051
28408SOL     OW87230   2.357   9.002   3.331 -0.2610 -0.5305  0.7374
28408SOL    HW187231   2.368   9.097   3.341  0.1274 -0.3980 -0.6582
28408SOL    HW287232   2.438   8.973   3.289 -1.7279 -0.8753 -2.1368
28409SOL     OW87233   3.058   0.773   5.604 -0.0568  0.8497  0.3763
28409SOL    HW187234   3.015   0.699   5.647  2.2417  1.5328  4.3325
28409SOL    HW287235   2.990   0.810   5.548 -2.0687 -2.6457  0.1775
28410SOL     OW87236   6.728   2.917   0.918  0.2524  0.3619 -0.3399
28410SOL    HW187237   6.668   2.989   0.899  0.2024  0.1451 -1.0297
28410SOL    HW287238   6.672   2.841   0.934  0.3425 -0.0745 -1.9593
28411SOL     OW87239  10.627   3.698   5.371 -0.4940 -0.2413 -0.1298
28411SOL    HW187240  10.583   3.648   5.440 -0.5249  1.8147  1.4432
28411SOL    HW287241  10.589   3.665   5.290 -2.1985 -1.1235  0.9592
28412SOL     OW87242   3.293   1.546   0.477  0.0817 -0.1681  0.4985
28412SOL    HW187243   3.322   1.537   0.386  1.4478 -0.2402  0.9184
28412SOL    HW287244   3.197   1.541   0.472  0.0919  0.4349 -0.9995
28413SOL     OW87245  10.474   6.921   3.973  0.9006  0.6969  0.0309
28413SOL    HW187246  10.410   6.851   3.960  0.4510  1.1032  0.0049
28413SOL    HW287247  10.556   6.885   3.941  0.5655  0.3712 -0.4768
28414SOL     OW87248   6.150   0.890   2.265 -0.0834 -0.5083 -0.3243
28414SOL    HW187249   6.218   0.841   2.311  1.7108 -0.5207 -2.7834
28414SOL    HW287250   6.088   0.823   2.236 -0.4799 -0.6515  0.7938
28415SOL     OW87251   4.443   4.521   8.770  0.0424 -0.3634 -0.5017
28415SOL    HW187252   4.507   4.552   8.706 -0.6218 -0.3179 -1.1547
28415SOL    HW287253   4.359   4.532   8.726 -0.5747  1.1650  0.9539
28416SOL     OW87254   2.658   2.912   9.833  0.0959  0.6897  0.2312
28416SOL    HW187255   2.585   2.875   9.882 -0.1907 -0.0120 -0.6920
28416SOL    HW287256   2.636   3.004   9.821 -0.2848  0.6443  0.5889
28417SOL     OW87257   5.824   0.151   0.435 -0.0743  0.0171  0.3058
28417SOL    HW187258   5.911   0.190   0.433  0.0707 -0.2278  1.1579
28417SOL    HW287259   5.823   0.099   0.516 -0.6657 -0.7914 -0.2015
28418SOL     OW87260   6.497   5.601   7.908  0.7511 -0.5793  0.8054
28418SOL    HW187261   6.418   5.582   7.958  1.0268  0.0334  1.4903
28418SOL    HW287262   6.570   5.575   7.965  1.1959  3.0493  2.1690
28419SOL     OW87263   7.188   8.275   5.011  0.4194  0.1547  0.0575
28419SOL    HW187264   7.177   8.360   4.970  0.4738 -0.2782 -0.8745
28419SOL    HW287265   7.099   8.239   5.016  0.6199 -0.6757 -1.6546
28420SOL     OW87266   7.647   4.308   8.950  0.3844  0.2585 -1.1233
28420SOL    HW187267   7.667   4.342   8.862  0.0439  0.1912 -1.2277
28420SOL    HW287268   7.630   4.215   8.936  1.7261 -0.0602 -0.7792
28421SOL     OW87269   7.867   3.949   4.188 -1.4306 -0.6039 -0.0431
28421SOL    HW187270   7.935   3.995   4.140 -1.9592  1.8806  1.4291
28421SOL    HW287271   7.803   3.924   4.121 -0.0027 -1.3743 -1.1840
28422SOL     OW87272   5.830   7.374   6.720  0.5110  0.2814  0.1628
28422SOL    HW187273   5.772   7.323   6.777  0.0964 -0.3950 -0.8445
28422SOL    HW287274   5.793   7.462   6.721  0.1497  0.1264  0.4608
28423SOL     OW87275   6.167   6.515   8.905 -0.3040 -0.0461 -0.3708
28423SOL    HW187276   6.154   6.603   8.940  1.2986 -0.2576  0.8661
28423SOL    HW287277   6.258   6.515   8.873 -0.4090 -1.1357 -0.7100
28424SOL     OW87278   7.748   5.012   8.837 -0.0140 -0.3519 -0.5203
28424SOL    HW187279   7.690   5.080   8.872  0.7497  1.5053 -2.5997
28424SOL    HW287280   7.791   5.054   8.763  0.5540 -3.1353 -1.8903
28425SOL     OW87281   9.096   7.698   5.398 -0.1216 -0.0945  0.7558
28425SOL    HW187282   9.049   7.765   5.349 -2.0533 -2.1912 -0.4493
28425SOL    HW287283   9.046   7.686   5.478 -0.5100 -0.9221  0.4008
28426SOL     OW87284   0.509   1.223   0.727  0.2934 -0.1685  0.1308
28426SOL    HW187285   0.482   1.192   0.640 -0.4435 -1.4776  0.7926
28426SOL    HW287286   0.487   1.316   0.726 -0.1708 -0.2636 -0.9210
28427SOL     OW87287   4.626   8.048  11.193  0.1449 -0.6328  0.4323
28427SOL    HW187288   4.696   8.110  11.213 -1.7761  2.2583 -0.9708
28427SOL    HW287289   4.627   8.040  11.098 -1.1783 -0.7867  0.4103
28428SOL     OW87290   8.284   9.199   8.249 -0.4370 -0.4067 -0.0514
28428SOL    HW187291   8.356   9.213   8.311 -0.3020 -1.3752  0.0246
28428SOL    HW287292   8.318   9.136   8.186 -1.1447 -0.7093 -0.1390
28429SOL     OW87293   1.188   2.383   9.559  0.3207  0.3817 -1.0139
28429SOL    HW187294   1.172   2.428   9.642 -0.0494 -1.9909  0.3048
28429SOL    HW287295   1.233   2.302   9.584 -2.1797 -1.7190 -2.7479
28430SOL     OW87296   3.599   0.619   9.921  0.5621  0.6867 -0.8486
28430SOL    HW187297   3.551   0.639  10.002  2.0521 -2.1735  0.9023
28430SOL    HW287298   3.533   0.586   9.861 -0.0432 -1.6518  0.9469
28431SOL     OW87299   2.884   4.649  10.964  0.1069  0.6987  0.0841
28431SOL    HW187300   2.798   4.680  10.991 -0.3714  0.8811 -1.5144
28431SOL    HW287301   2.943   4.676  11.034 -1.3455 -0.8019  1.9919
28432SOL     OW87302  11.253   0.656   7.793 -0.0887 -0.4064 -0.3758
28432SOL    HW187303  11.164   0.645   7.826 -0.1496  0.9341 -0.0382
28432SOL    HW287304  11.275   0.571   7.755 -1.4881 -0.7674 -0.4323
28433SOL     OW87305   9.643   6.901   3.942  0.5579 -0.3001  0.3814
28433SOL    HW187306   9.565   6.922   3.993  1.1067 -1.1341  1.6115
28433SOL    HW287307   9.708   6.965   3.972  0.6525 -0.2817  0.1365
28434SOL     OW87308   2.350   9.166   7.874 -0.0288 -0.0218 -0.1969
28434SOL    HW187309   2.374   9.201   7.788 -0.9499  0.3977 -0.2938
28434SOL    HW287310   2.325   9.243   7.924 -1.0009 -0.4179 -0.0522
28435SOL     OW87311   3.308   7.994   5.073 -0.5999 -0.0098 -0.4469
28435SOL    HW187312   3.371   7.926   5.051 -0.7337 -0.1970 -0.2572
28435SOL    HW287313   3.349   8.075   5.043 -1.7386 -0.4254 -3.4714
28436SOL     OW87314   1.304   6.334   8.362 -0.2666 -0.1975  0.4886
28436SOL    HW187315   1.211   6.319   8.375 -0.9165  0.0819 -2.8340
28436SOL    HW287316   1.342   6.246   8.356 -0.3289 -0.3102  1.5605
28437SOL     OW87317   1.101  11.262   2.317  0.1823  0.1216  0.1109
28437SOL    HW187318   1.043  11.303   2.382  1.5211  0.5791  1.0667
28437SOL    HW287319   1.046  11.250   2.240 -1.0070  1.1359  0.7655
28438SOL     OW87320   5.130   7.848  11.039 -0.5178  0.5387 -0.8880
28438SOL    HW187321   5.053   7.882  10.994 -0.6091  0.1318 -1.0389
28438SOL    HW287322   5.097   7.774  11.090 -0.9109  2.3954  1.7452
28439SOL     OW87323   7.591   9.211  10.270  0.0338  0.0924  0.5773
28439SOL    HW187324   7.642   9.193  10.191 -1.2518  2.6523 -0.9606
28439SOL    HW287325   7.517   9.150  10.267  0.5384 -0.5176  0.3890
28440SOL     OW87326   5.981  10.192   4.791  0.2381 -0.4330 -0.2036
28440SOL    HW187327   6.006  10.273   4.746 -0.1375 -0.9224 -1.3277
28440SOL    HW287328   6.064  10.153   4.819  0.5213 -0.3536 -0.9053
28441SOL     OW87329   5.448   4.048   5.378  0.5201 -0.5677 -0.6186
28441SOL    HW187330   5.454   4.028   5.284  2.2888  1.8085 -1.0935
28441SOL    HW287331   5.522   4.106   5.395 -0.2852 -0.2192  2.0763
28442SOL     OW87332   8.088  11.006   6.286 -0.1671 -0.3463 -0.5283
28442SOL    HW187333   7.995  10.989   6.273 -0.6330  0.0939  1.7628
28442SOL    HW287334   8.091  11.070   6.357  1.8815  0.1434 -0.9874
28443SOL     OW87335   5.959   8.698   9.641 -0.2543 -0.0859  0.1598
28443SOL    HW187336   5.913   8.635   9.696  1.1045 -0.7203  0.6270
28443SOL    HW287337   5.969   8.654   9.557 -0.5553  0.0824  0.0339
28444SOL     OW87338   3.906   6.031  10.050 -0.1187  0.4783  0.2668
28444SOL    HW187339   3.939   5.952  10.093  0.9486  0.7709  0.0266
28444SOL    HW287340   3.845   6.069  10.114  0.7763  0.4425  1.1795
28445SOL     OW87341   9.561   1.748   4.871 -0.5433 -0.5264  0.2351
28445SOL    HW187342   9.472   1.718   4.857 -1.2109  1.3126  0.2190
28445SOL    HW287343   9.612   1.669   4.888 -1.7910 -1.8000 -1.6636
28446SOL     OW87344  10.595   5.429   7.354  0.2044  0.6531  0.1435
28446SOL    HW187345  10.542   5.367   7.406  0.0631  1.4218  0.9465
28446SOL    HW287346  10.551   5.433   7.269 -0.9735  1.1659  0.7499
28447SOL     OW87347  10.068   9.234   3.221  0.7922 -0.0366 -0.0635
28447SOL    HW187348  10.060   9.167   3.288 -0.6925 -0.9375 -1.0838
28447SOL    HW287349   9.982   9.274   3.216  0.9969  0.3103 -1.1245
28448SOL     OW87350   1.527   9.755   4.792  0.2301 -0.6849  0.3306
28448SOL    HW187351   1.583   9.783   4.864  1.0226 -1.6298  0.0982
28448SOL    HW287352   1.553   9.809   4.718  0.3578 -0.6484  0.4016
28449SOL     OW87353   4.450   7.929   3.992 -1.1787  0.3824 -0.1081
28449SOL    HW187354   4.361   7.930   3.957 -2.3414  1.6836  2.5301
28449SOL    HW287355   4.474   8.022   3.998  0.6531  0.0370 -1.3190
28450SOL     OW87356  10.830   8.090   6.897  0.0027  0.0658  0.1513
28450SOL    HW187357  10.868   8.078   6.810 -2.9284  0.6307 -1.3648
28450SOL    HW287358  10.897   8.060   6.958  3.0830  1.7356 -2.1311
28451SOL     OW87359   8.403   4.472  11.147  0.0651 -0.1243 -0.0645
28451SOL    HW187360   8.439   4.533  11.082 -1.7756  1.1384  0.0165
28451SOL    HW287361   8.414   4.516  11.231  0.1166 -0.5978  0.1825
28452SOL     OW87362   2.796   6.539   8.034  0.5490 -0.2832 -0.2573
28452SOL    HW187363   2.734   6.492   7.979  0.3892 -1.1507  0.6312
28452SOL    HW287364   2.866   6.476   8.050  0.1704 -0.3641  1.2390
28453SOL     OW87365   2.306   3.833   9.880  0.2290 -0.1626 -0.6294
28453SOL    HW187366   2.358   3.883   9.817 -0.6462  2.6742  0.7481
28453SOL    HW287367   2.228   3.806   9.831  0.7140 -0.2285 -1.3921
28454SOL     OW87368   8.664   2.862  10.561  0.2668  0.0102  0.3028
28454SOL    HW187369   8.634   2.913  10.486  1.6077  1.8591  0.9746
28454SOL    HW287370   8.697   2.780  10.522 -0.8526  0.0989 -0.9019
28455SOL     OW87371   9.826   6.917   9.676  1.0001 -0.3435 -0.3660
28455SOL    HW187372   9.781   6.843   9.635  1.7961  0.1020 -2.1227
28455SOL    HW287373   9.902   6.878   9.719  0.5405 -0.7297  0.1117
28456SOL     OW87374   3.784   5.608   8.509 -0.0922 -0.3181  0.1609
28456SOL    HW187375   3.843   5.555   8.455  0.0906 -0.9185  0.9457
28456SOL    HW287376   3.725   5.545   8.550 -2.8067  0.3739 -2.3072
28457SOL     OW87377   5.368   6.135   0.984  0.1033 -0.4445  0.0171
28457SOL    HW187378   5.383   6.040   0.977  0.3629 -0.7633  3.3040
28457SOL    HW287379   5.300   6.143   1.050  0.8506  1.7127  0.5903
28458SOL     OW87380   6.794   5.390   4.871 -0.0303 -0.1899 -0.3146
28458SOL    HW187381   6.865   5.447   4.900  2.9488 -3.5593 -0.2860
28458SOL    HW287382   6.783   5.411   4.778  1.5723 -0.1130 -0.5092
28459SOL     OW87383   7.029  10.166   4.949  0.6922  0.3806  0.0842
28459SOL    HW187384   7.075  10.223   5.011  0.3444  2.5140 -1.5166
28459SOL    HW287385   7.051  10.201   4.863 -0.3526 -1.3209 -0.9334
28460SOL     OW87386   2.957   4.464   2.056 -0.5299  0.7696 -0.7352
28460SOL    HW187387   2.995   4.377   2.044  0.3474  1.1696 -0.9730
28460SOL    HW287388   2.905   4.457   2.136 -1.5303 -0.3106 -1.4402
28461SOL     OW87389   9.618   5.990   6.644  0.1198  0.2980  0.1952
28461SOL    HW187390   9.623   5.942   6.727  1.0164 -0.4543 -0.2823
28461SOL    HW287391   9.635   6.081   6.668 -0.6680  0.2492  0.9795
28462SOL     OW87392  11.111   5.351   3.019  0.1471 -0.5305  0.1599
28462SOL    HW187393  11.190   5.389   2.979 -0.9540  0.1055 -1.5294
28462SOL    HW287394  11.122   5.256   3.008  1.2088 -0.5211  1.0272
28463SOL     OW87395   5.709   1.975  10.072 -0.2266 -0.4312 -0.4393
28463SOL    HW187396   5.692   2.054  10.123  2.8462 -0.6189  1.1232
28463SOL    HW287397   5.695   2.001   9.981  1.3394  2.1745 -0.0203
28464SOL     OW87398   5.709   0.776  10.529 -0.6093 -0.3214  0.2030
28464SOL    HW187399   5.649   0.704  10.547 -0.5802 -0.1704  0.9357
28464SOL    HW287400   5.793   0.733  10.510 -0.0725 -0.4723  2.5889
28465SOL     OW87401   3.466   0.065   3.600 -0.7354  0.2799 -0.4417
28465SOL    HW187402   3.422   0.108   3.526 -1.3567 -1.1376 -0.9402
28465SOL    HW287403   3.420  -0.019   3.609  1.4615 -1.0231 -0.5781
28466SOL     OW87404   2.204   3.333   4.098 -0.4222  0.8500 -0.0319
28466SOL    HW187405   2.299   3.343   4.102 -0.4867  2.6115 -1.4563
28466SOL    HW287406   2.172   3.377   4.177 -0.0402 -1.4870  1.5290
28467SOL     OW87407   1.237   8.070   8.947 -0.2238  0.1076  0.0632
28467SOL    HW187408   1.297   8.001   8.973 -0.7895 -1.1379 -1.7974
28467SOL    HW287409   1.253   8.140   9.010  0.2039 -1.7701  2.1746
28468SOL     OW87410   4.423   1.553   6.898 -0.3604  0.0182 -0.5323
28468SOL    HW187411   4.378   1.519   6.821  1.2528 -1.8288 -0.7351
28468SOL    HW287412   4.513   1.522   6.889  2.1964  6.3085 -1.9918
28469SOL     OW87413   2.357   4.765   5.548  0.5430  0.3947 -0.2848
28469SOL    HW187414   2.326   4.751   5.638  1.5509  1.1358  0.1967
28469SOL    HW287415   2.429   4.827   5.557  1.9503 -0.9888 -1.3868
28470SOL     OW87416  11.106   3.106  11.058 -0.2962 -0.3842  0.3320
28470SOL    HW187417  11.050   3.172  11.019  0.5134  1.2345  1.7811
28470SOL    HW287418  11.195   3.130  11.031  0.2588  0.5941  2.7738
28471SOL     OW87419   3.765   9.496  10.304 -0.0581 -0.5260 -0.6290
28471SOL    HW187420   3.688   9.534  10.262 -1.0786  0.0977  1.6774
28471SOL    HW287421   3.779   9.549  10.382  1.8162 -1.5575 -0.1979
28472SOL     OW87422   9.454   1.094   9.801  0.5221 -0.0148 -0.4658
28472SOL    HW187423   9.542   1.097   9.764  0.7215 -0.2894 -0.0192
28472SOL    HW287424   9.399   1.135   9.735  1.1020  0.8751 -0.4107
28473SOL     OW87425   8.472   9.255   7.739  0.6784 -0.6186  0.6987
28473SOL    HW187426   8.518   9.291   7.815  2.3757 -0.6204 -0.2758
28473SOL    HW287427   8.542   9.229   7.679 -0.6156 -0.3627 -0.9910
28474SOL     OW87428   8.379  10.850   2.875  0.3590  0.2543  0.2457
28474SOL    HW187429   8.370  10.823   2.966  2.3233 -0.7538  0.1942
28474SOL    HW287430   8.303  10.812   2.831 -0.2272  0.1435  1.3261
28475SOL     OW87431   4.871   5.950   4.757  0.4650 -0.1856  0.3558
28475SOL    HW187432   4.842   5.984   4.672 -0.6075 -1.0528  0.3576
28475SOL    HW287433   4.889   6.029   4.809 -1.2997  0.3880  0.1441
28476SOL     OW87434   9.255   8.506   9.830 -0.0267 -0.6063 -0.2877
28476SOL    HW187435   9.214   8.491   9.915  0.1775  2.2171  0.3972
28476SOL    HW287436   9.349   8.514   9.850  0.1546 -0.9584 -0.9594
28477SOL     OW87437   8.628   2.613   0.703  0.5231 -0.1491  0.7133
28477SOL    HW187438   8.675   2.696   0.700 -0.8889  0.6625  0.4175
28477SOL    HW287439   8.598   2.606   0.794  1.8851 -1.0860  1.1290
28478SOL     OW87440   7.193   7.224   1.131 -0.1646 -0.0786 -1.1203
28478SOL    HW187441   7.283   7.232   1.163 -0.0879  0.9048 -1.5740
28478SOL    HW287442   7.157   7.312   1.136 -0.7081 -0.2308 -2.1267
28479SOL     OW87443   8.105   6.125   6.290  0.2421  0.3046 -0.7993
28479SOL    HW187444   8.022   6.171   6.300  0.3529  0.6269 -1.3154
28479SOL    HW287445   8.082   6.044   6.244  0.0095 -0.2932  0.3295
28480SOL     OW87446   5.686   3.151   4.976 -0.1843  0.6067  0.0022
28480SOL    HW187447   5.650   3.194   4.898  0.1424  0.2363 -0.3533
28480SOL    HW287448   5.632   3.183   5.047 -0.3150  1.1636 -0.3401
28481SOL     OW87449  10.887   4.288   1.271  0.2950 -0.0743  0.1229
28481SOL    HW187450  10.827   4.219   1.243  1.1937 -0.8557  0.0630
28481SOL    HW287451  10.848   4.323   1.351  0.0866 -1.0254  0.4561
28482SOL     OW87452   3.653   9.128   0.570  0.0820 -0.4417 -0.6965
28482SOL    HW187453   3.733   9.117   0.520  1.1003  1.5978  0.3474
28482SOL    HW287454   3.617   9.212   0.539  0.5328  0.6808  1.5963
28483SOL     OW87455   3.723   4.719   4.584  0.6999  0.6044  0.0105
28483SOL    HW187456   3.788   4.662   4.544 -1.9827 -2.2864 -0.6769
28483SOL    HW287457   3.677   4.759   4.510  2.3112  3.6204  0.4817
28484SOL     OW87458   1.425   9.510   7.041 -0.1146  0.0885  0.3966
28484SOL    HW187459   1.399   9.449   7.109 -0.7749 -1.9553 -1.5919
28484SOL    HW287460   1.343   9.545   7.006 -0.1926 -2.5992 -2.5246
28485SOL     OW87461   8.457   4.859   6.418 -0.2103  0.1013  0.9327
28485SOL    HW187462   8.532   4.917   6.429  0.0422 -0.3650  1.7528
28485SOL    HW287463   8.463   4.829   6.327 -0.7803  1.9230  0.2502
28486SOL     OW87464   0.067   5.862   5.787  0.6286 -0.1104 -0.8878
28486SOL    HW187465   0.055   5.918   5.710  0.3595 -0.1357 -0.8638
28486SOL    HW287466  -0.010   5.879   5.841  0.1842 -1.0330 -1.2070
28487SOL     OW87467   6.546   3.835  10.989 -0.6357  0.0593  0.3512
28487SOL    HW187468   6.541   3.920  11.034  4.0222  0.6344  0.2571
28487SOL    HW287469   6.617   3.846  10.926 -0.2586 -3.7926 -0.0888
28488SOL     OW87470  10.729   7.162   2.315 -0.2861  0.6532 -0.1851
28488SOL    HW187471  10.695   7.123   2.234 -0.1891  2.1050 -0.9427
28488SOL    HW287472  10.651   7.197   2.359 -0.0949  1.6164 -0.6148
28489SOL     OW87473   2.938  10.799   3.377  0.1531  0.3758  0.9437
28489SOL    HW187474   2.910  10.753   3.299 -0.3577  1.7798  0.2801
28489SOL    HW287475   3.021  10.840   3.352 -0.3097  1.3173  0.9483
28490SOL     OW87476   0.478   6.003   2.019 -0.1906 -0.5142 -0.4245
28490SOL    HW187477   0.388   5.978   2.000 -0.1267 -0.7767 -0.3857
28490SOL    HW287478   0.521   5.921   2.044 -0.4367 -0.0883  1.5412
28491SOL     OW87479   3.926   3.722   1.259 -0.7252 -0.3157 -0.0431
28491SOL    HW187480   3.854   3.780   1.234  0.0278 -0.1673 -2.0855
28491SOL    HW287481   4.004   3.763   1.221 -0.0329 -2.1545 -0.7480
28492SOL     OW87482   5.189   6.152   9.319  0.7961  0.4959 -0.1366
28492SOL    HW187483   5.211   6.174   9.229  0.8171  0.8506 -0.0442
28492SOL    HW287484   5.107   6.198   9.337  0.5718  0.0931 -0.1065
28493SOL     OW87485   2.695  10.300   5.096  0.1068 -0.9243  0.2692
28493SOL    HW187486   2.655  10.293   5.183 -2.6236  1.0540 -0.6740
28493SOL    HW287487   2.772  10.244   5.101 -0.9056 -2.3054  3.3868
28494SOL     OW87488   4.700   9.766   6.246  0.4138  0.2404  0.5465
28494SOL    HW187489   4.757   9.701   6.204  1.2703  0.7689  0.8614
28494SOL    HW287490   4.761   9.830   6.283 -0.3940  2.9962 -2.4596
28495SOL     OW87491   6.991   4.677   1.368  0.1737  0.6242  0.0748
28495SOL    HW187492   7.002   4.617   1.295 -2.6006 -0.2027  0.2217
28495SOL    HW287493   7.033   4.634   1.442 -1.4627 -1.0544  0.0925
28496SOL     OW87494  10.061   2.260   4.894  0.1895 -0.5285  0.0623
28496SOL    HW187495  10.067   2.273   4.989 -0.2630  3.5046 -0.3048
28496SOL    HW287496   9.972   2.285   4.871 -0.7180 -4.3028 -1.2338
28497SOL     OW87497   1.217   0.830   6.969  0.0426  0.0738 -0.4544
28497SOL    HW187498   1.150   0.811   7.034  1.1438 -1.5410  0.2764
28497SOL    HW287499   1.283   0.882   7.017 -0.5606  1.5218 -1.1255
28498SOL     OW87500   6.912   2.927  11.012 -0.3315 -0.1670 -0.1117
28498SOL    HW187501   6.893   2.871  11.087  1.2837 -1.2904 -0.4998
28498SOL    HW287502   6.997   2.967  11.032 -1.3209  2.0189  0.0443
28499SOL     OW87503   7.593  10.924   5.359  0.5264 -0.2035 -0.0551
28499SOL    HW187504   7.632  10.879   5.284  0.6354 -0.5554  0.2085
28499SOL    HW287505   7.547  10.855   5.406  0.1208  0.0941 -0.0162
28500SOL     OW87506   0.667  11.030   5.051  0.3759  0.7830  0.2710
28500SOL    HW187507   0.758  11.013   5.026  0.7917  0.4691  1.8781
28500SOL    HW287508   0.616  11.008   4.973  1.4077 -2.3028  0.3197
28501SOL     OW87509   6.205   8.611   2.790 -0.3618 -0.1294 -0.2579
28501SOL    HW187510   6.293   8.620   2.753  0.1918 -1.8415  0.5300
28501SOL    HW287511   6.201   8.520   2.820 -1.1693  0.7905  2.8102
28502SOL     OW87512   9.099   9.892   5.140 -0.5178 -0.0794 -0.6687
28502SOL    HW187513   9.028   9.955   5.124 -1.5061 -1.1837 -0.7727
28502SOL    HW287514   9.171   9.922   5.085 -1.8171 -0.4281 -2.6619
28503SOL     OW87515   2.686   2.570   5.986  0.0534  0.8655 -0.6369
28503SOL    HW187516   2.731   2.653   5.997  1.0062  0.0592  2.9222
28503SOL    HW287517   2.615   2.572   6.050  2.4164 -2.3425  2.5210
28504SOL     OW87518   8.951   1.882   2.876  0.5673  0.1324 -0.3968
28504SOL    HW187519   8.859   1.904   2.890  0.7242  1.1413 -0.8561
28504SOL    HW287520   8.949   1.814   2.809  0.1237 -0.3854  0.1321
28505SOL     OW87521   9.359   9.748  11.265  0.7649  0.0921  0.4974
28505SOL    HW187522   9.287   9.717  11.321  0.4481 -0.1589 -0.0435
28505SOL    HW287523   9.411   9.805  11.323  0.9145 -0.8126  1.2847
28506SOL     OW87524   9.445  10.803  11.145 -0.8131 -0.1963  0.7432
28506SOL    HW187525   9.531  10.773  11.113 -0.5304  0.1577  1.1570
28506SOL    HW287526   9.382  10.751  11.096 -0.3473 -1.1103  1.0778
28507SOL     OW87527  11.153   3.396   1.809 -0.3095 -0.6683  0.0301
28507SOL    HW187528  11.111   3.312   1.788 -2.1746  0.2486 -0.0988
28507SOL    HW287529  11.219   3.373   1.874  0.0696 -2.3988 -0.8901
28508SOL     OW87530   0.772  10.862   0.423 -0.0974 -0.1161  0.0821
28508SOL    HW187531   0.755  10.879   0.330 -0.3827 -0.1572  0.1258
28508SOL    HW287532   0.686  10.866   0.464  0.2790  2.4020  0.7764
28509SOL     OW87533   1.531   3.691   8.400  0.2785 -0.1157 -0.3900
28509SOL    HW187534   1.568   3.605   8.415  0.9795  0.4409  1.3528
28509SOL    HW287535   1.489   3.714   8.483 -0.6202  0.8761 -1.0882
28510SOL     OW87536   6.863   1.290   7.154 -0.2620 -0.3529 -0.4867
28510SOL    HW187537   6.799   1.357   7.180  1.3416  1.0970 -0.0637
28510SOL    HW287538   6.877   1.238   7.233  2.1379  1.9822  0.7855
28511SOL     OW87539  10.865   3.230   4.637  0.5832 -0.3507 -0.2017
28511SOL    HW187540  10.939   3.290   4.628  0.5800 -0.2873  0.1772
28511SOL    HW287541  10.834   3.217   4.548 -0.6093  1.6918 -0.1262
28512SOL     OW87542   0.826   5.743   3.933  0.0353  0.3438  0.1511
28512SOL    HW187543   0.859   5.721   3.846 -0.5303 -1.5410  0.3750
28512SOL    HW287544   0.854   5.671   3.989 -1.5411  0.3616  1.0401
28513SOL     OW87545   0.812   4.368   3.921 -0.3808  0.4343 -0.0397
28513SOL    HW187546   0.878   4.406   3.863  0.3049 -0.8672 -0.1427
28513SOL    HW287547   0.856   4.364   4.007  0.2803 -1.8348 -0.4187
28514SOL     OW87548   2.220   0.809   2.246  0.3535  0.6451 -0.1741
28514SOL    HW187549   2.310   0.839   2.262  0.5081  0.0514  0.0897
28514SOL    HW287550   2.207   0.736   2.307  0.3584 -0.5092 -1.4871
28515SOL     OW87551   8.677   0.811  10.345  0.6090  0.1381  0.3013
28515SOL    HW187552   8.719   0.839  10.264  2.3597 -1.7935  0.4766
28515SOL    HW287553   8.615   0.743  10.318  2.2870 -1.6085  0.6635
28516SOL     OW87554   3.283   1.806   1.240  0.6503 -0.2827 -0.3235
28516SOL    HW187555   3.263   1.887   1.286 -0.7383 -0.6595 -0.2383
28516SOL    HW287556   3.198   1.767   1.221  1.2878 -1.5557 -0.6725
28517SOL     OW87557   2.254   9.347   4.911  0.1866 -0.7765 -0.4482
28517SOL    HW187558   2.349   9.357   4.925  0.5093 -3.2407 -0.3324
28517SOL    HW287559   2.219   9.330   4.998 -0.1713 -1.0623 -0.6477
28518SOL     OW87560   3.038   5.902   6.607  0.2161  0.5906 -0.0937
28518SOL    HW187561   2.962   5.954   6.633 -0.2202  0.5316 -1.2164
28518SOL    HW287562   3.100   5.966   6.571 -0.7619  0.2612 -2.4998
28519SOL     OW87563   5.439   4.178   7.545  0.0607  0.2874 -0.4879
28519SOL    HW187564   5.456   4.164   7.638 -1.4660 -2.0300 -0.4851
28519SOL    HW287565   5.467   4.269   7.529  1.8972  0.2111  1.8123
28520SOL     OW87566   4.874   5.419   2.677  0.3175  0.4080  0.1900
28520SOL    HW187567   4.834   5.506   2.668 -0.5660  0.3065  2.4649
28520SOL    HW287568   4.813   5.370   2.731  1.7250 -1.0039  0.5790
28521SOL     OW87569   9.090   3.599  10.563  0.6303 -0.5555 -0.1199
28521SOL    HW187570   9.135   3.534  10.509 -0.3362 -0.7515 -0.6929
28521SOL    HW287571   9.144   3.604  10.642  1.2647 -1.3197 -0.4838
28522SOL     OW87572   4.911   5.365   9.159 -0.0642  0.0857 -0.2743
28522SOL    HW187573   4.919   5.406   9.073  1.0171  1.6759  0.5460
28522SOL    HW287574   4.950   5.278   9.148  1.8051  0.9590 -0.9435
28523SOL     OW87575   4.564  11.030   4.666 -0.1085  0.0839 -0.7856
28523SOL    HW187576   4.541  11.000   4.754  0.7949  0.0380 -0.5577
28523SOL    HW287577   4.582  11.123   4.676 -0.2267  0.1276 -0.9656
28524SOL     OW87578   4.114   2.235   0.745  0.1062  0.7895  0.2202
28524SOL    HW187579   4.023   2.226   0.719  0.2635 -1.9219  0.3350
28524SOL    HW287580   4.123   2.327   0.769 -2.9884  0.8149  1.7193
28525SOL     OW87581   7.153   8.283   0.161  0.5785 -0.2080  0.9057
28525SOL    HW187582   7.108   8.279   0.245 -1.7739  3.1958  0.0152
28525SOL    HW287583   7.103   8.224   0.105 -0.5778  0.7384  0.8882
28526SOL     OW87584   0.533   1.717   3.518  0.9193  0.0605  0.1637
28526SOL    HW187585   0.592   1.726   3.592  2.0864 -2.7712 -0.3200
28526SOL    HW287586   0.565   1.781   3.454  1.4952  0.7174  1.0835
28527SOL     OW87587   0.717   3.496   1.866 -0.1510 -0.0304  0.6240
28527SOL    HW187588   0.802   3.487   1.908  0.1863  2.1814  0.5359
28527SOL    HW287589   0.714   3.424   1.802  0.0344 -2.4042  3.1049
28528SOL     OW87590   0.047   8.575   7.625 -0.7488 -0.1645  0.0120
28528SOL    HW187591   0.037   8.606   7.715  0.5927  1.9686 -0.5157
28528SOL    HW287592   0.093   8.492   7.633 -1.5242 -0.5007  1.3239
28529SOL     OW87593   0.040   3.188  11.228  0.1751 -0.1861  0.1554
28529SOL    HW187594   0.080   3.191  11.141  1.3354  0.3675  0.6829
28529SOL    HW287595  -0.047   3.152  11.213  1.0739 -2.0577 -0.9763
28530SOL     OW87596   2.844   8.482   5.243 -0.2082  0.2627 -0.3540
28530SOL    HW187597   2.887   8.551   5.293  1.0693 -0.8522  0.1173
28530SOL    HW287598   2.784   8.441   5.305  0.0850  0.0262 -0.2241
28531SOL     OW87599   9.865   7.986   8.071  0.2154  0.9830  0.0744
28531SOL    HW187600   9.865   8.037   8.152 -0.2455 -1.0323  1.4007
28531SOL    HW287601   9.805   8.034   8.013 -2.3316  0.6294  2.2064
28532SOL     OW87602   1.348   5.694   5.273 -0.2743  0.1653 -0.3917
28532SOL    HW187603   1.441   5.676   5.263 -0.1756  0.4184  0.0259
28532SOL    HW287604   1.341   5.734   5.360 -0.6101  1.2315 -0.8920
28533SOL     OW87605  10.816   7.185   4.976  0.0764 -0.2017  0.8905
28533SOL    HW187606  10.812   7.199   4.881  2.1734  0.6233  0.8668
28533SOL    HW287607  10.861   7.101   4.986  0.4548  0.0259  1.1379
28534SOL     OW87608   8.693   6.750   7.857 -0.0482 -0.6486 -0.4366
28534SOL    HW187609   8.774   6.795   7.881  0.0422 -0.6956 -0.6489
28534SOL    HW287610   8.629   6.820   7.847  0.0763 -0.5717 -0.6998
28535SOL     OW87611   6.973   2.109   2.143 -0.0222  0.5213 -0.5641
28535SOL    HW187612   7.018   2.159   2.075  1.9091 -1.2037 -0.6565
28535SOL    HW287613   6.896   2.074   2.100  1.9152 -1.7717 -2.4359
28536SOL     OW87614  10.802   2.352   9.186 -0.9566 -0.2201  0.0012
28536SOL    HW187615  10.749   2.351   9.265 -1.2768 -0.8014 -0.2132
28536SOL    HW287616  10.864   2.424   9.199 -0.9032 -0.4130  0.8383
28537SOL     OW87617   7.041   0.867   5.016  0.2741 -0.0247  0.2727
28537SOL    HW187618   6.953   0.872   4.978  0.6078  0.8335 -0.4254
28537SOL    HW287619   7.076   0.784   4.985  0.2328  0.2886 -0.6313
28538SOL     OW87620   0.272   7.034   5.994 -0.6855 -0.1692 -0.9006
28538SOL    HW187621   0.329   7.036   5.916  0.2680 -0.2850 -0.2182
28538SOL    HW287622   0.242   7.124   6.003 -1.3375 -0.2743 -1.7671
28539SOL     OW87623   1.287   4.855   4.165  0.1851 -0.0942  0.6287
28539SOL    HW187624   1.251   4.828   4.080  0.4947  0.5825  0.2658
28539SOL    HW287625   1.379   4.874   4.146  0.7644 -1.8437  1.5507
28540SOL     OW87626   9.746   7.287  11.066  0.0118 -0.0843 -0.4278
28540SOL    HW187627   9.785   7.369  11.036 -0.6582  0.2583 -0.3773
28540SOL    HW287628   9.797   7.263  11.143  0.8263 -0.2213 -0.9988
28541SOL     OW87629   9.438   4.636   6.357  0.1236 -0.1275 -0.1161
28541SOL    HW187630   9.447   4.643   6.262  3.5780 -0.1766  0.0647
28541SOL    HW287631   9.360   4.687   6.378 -2.4335 -2.4039 -3.1613
28542SOL     OW87632   0.304   3.453   5.234 -0.6345 -0.6926  0.1232
28542SOL    HW187633   0.220   3.438   5.278 -0.1480 -1.2534  0.8806
28542SOL    HW287634   0.368   3.454   5.305 -0.1634  1.3765 -0.2554
28543SOL     OW87635   7.031   2.904   2.246  1.3079 -0.1599  0.3187
28543SOL    HW187636   7.118   2.939   2.227  1.1352  0.6096  0.8644
28543SOL    HW287637   6.974   2.981   2.247  0.8768 -0.4731  1.3882
28544SOL     OW87638  11.018   4.527   4.220 -0.3572 -0.2507 -0.2725
28544SOL    HW187639  11.072   4.528   4.299 -1.1848 -0.2664  0.2971
28544SOL    HW287640  10.929   4.517   4.251 -0.9863  2.1737 -1.0370
28545SOL     OW87641   4.217   1.656   1.905 -1.0589  0.1316 -0.1003
28545SOL    HW187642   4.293   1.701   1.866  0.0977 -1.6482 -0.0360
28545SOL    HW287643   4.141   1.695   1.861 -0.0195  0.8927 -1.3144
28546SOL     OW87644   6.087  10.056   9.871  0.4452  0.3465 -0.3292
28546SOL    HW187645   6.040  10.088   9.948  1.4967  0.1949  0.4092
28546SOL    HW287646   6.178  10.083   9.886  0.7641 -0.1780 -1.2443
28547SOL     OW87647   0.625   0.159   5.276 -0.1375  0.8997 -0.2144
28547SOL    HW187648   0.702   0.210   5.303  0.4820  0.8484 -1.7892
28547SOL    HW287649   0.586   0.210   5.205  0.6267 -0.8574 -1.9792
28548SOL     OW87650   3.615   2.428   5.848 -0.5588  0.0061 -0.1497
28548SOL    HW187651   3.687   2.402   5.791 -1.6683 -1.6729 -0.8795
28548SOL    HW287652   3.657   2.466   5.925  1.0943 -0.9308 -0.5509
28549SOL     OW87653   1.259   7.541   3.098  0.7293  0.0429 -0.1566
28549SOL    HW187654   1.233   7.631   3.115 -0.1498 -0.3066  0.3936
28549SOL    HW287655   1.190   7.488   3.138  0.9776 -0.8673 -0.9095
28550SOL     OW87656   1.559   7.531   2.581  0.0587 -0.4833 -0.5850
28550SOL    HW187657   1.552   7.616   2.624 -1.7180 -1.9305  2.2605
28550SOL    HW287658   1.651   7.506   2.592 -0.3076 -0.7925  2.6232
28551SOL     OW87659   7.354   4.777   4.960 -0.8679  0.1495 -0.9419
28551SOL    HW187660   7.360   4.871   4.975 -0.9615 -0.1196  0.9715
28551SOL    HW287661   7.442   4.751   4.932  0.2354  0.2579  2.1322
28552SOL     OW87662   4.152   1.777   3.950 -0.3034 -0.2150 -0.4086
28552SOL    HW187663   4.084   1.776   4.018  1.1673  2.1580  1.2371
28552SOL    HW287664   4.128   1.850   3.893  1.5825  1.7381  1.1309
28553SOL     OW87665   2.059  10.701   9.439 -0.3709  0.2035 -0.6214
28553SOL    HW187666   2.052  10.673   9.347 -0.9326 -1.1134 -0.2069
28553SOL    HW287667   2.086  10.792   9.434 -1.4049  0.4803 -2.1240
28554SOL     OW87668   7.959  11.079   0.669 -0.2569 -0.2570  0.0214
28554SOL    HW187669   7.991  11.078   0.579  0.6480 -1.1991  0.3359
28554SOL    HW287670   7.996  11.159   0.706  0.0632 -0.2986 -0.2046
28555SOL     OW87671   9.247   3.267   5.605  0.3485  0.3640 -0.2753
28555SOL    HW187672   9.286   3.179   5.605 -0.1934  0.0971  1.1365
28555SOL    HW287673   9.183   3.265   5.675  0.5322  1.9904 -0.0146
28556SOL     OW87674   8.695   6.855   0.576  0.4329 -0.0179  0.1565
28556SOL    HW187675   8.731   6.893   0.496 -1.6073  1.1977 -0.2785
28556SOL    HW287676   8.759   6.790   0.603  1.4115 -0.1510 -2.2182
28557SOL     OW87677   3.353   3.917   1.704  0.1248 -0.0211 -0.1549
28557SOL    HW187678   3.350   3.990   1.766 -0.9950  0.4358 -0.7234
28557SOL    HW287679   3.313   3.951   1.624  0.6472 -0.9055 -0.8178
28558SOL     OW87680   0.325   9.204   9.151  0.3992 -0.3232 -0.3130
28558SOL    HW187681   0.400   9.211   9.092  0.5727  0.2289 -0.0348
28558SOL    HW287682   0.356   9.242   9.234 -0.3630  0.4621 -0.3731
28559SOL     OW87683   3.109   7.334  11.244 -0.4645 -0.0432 -0.7093
28559SOL    HW187684   3.093   7.426  11.222  2.1044  0.4949 -0.6695
28559SOL    HW287685   3.054   7.285  11.182 -0.2021  1.5079 -2.2660
28560SOL     OW87686   4.644   2.437   7.751 -0.0376 -0.2934  0.1634
28560SOL    HW187687   4.713   2.377   7.722 -0.1705 -0.5537  0.3830
28560SOL    HW287688   4.568   2.414   7.697 -0.2368 -0.6674  0.5922
28561SOL     OW87689   6.698   2.767   1.447  0.4146 -0.5765 -0.0981
28561SOL    HW187690   6.623   2.779   1.505 -0.1157 -4.0893  0.1304
28561SOL    HW287691   6.669   2.802   1.363 -0.2810  0.8906  0.7051
28562SOL     OW87692   1.792   4.556   8.404  0.5503 -0.9119  0.1463
28562SOL    HW187693   1.704   4.594   8.401  1.5190  1.4763 -1.9179
28562SOL    HW287694   1.792   4.502   8.483 -2.3226  0.0982  0.9733
28563SOL     OW87695   6.116   9.924   1.521  0.4340 -0.0077  0.0508
28563SOL    HW187696   6.121  10.008   1.474 -0.9395 -0.8905 -1.8037
28563SOL    HW287697   6.084   9.862   1.456  2.6354 -2.3167  1.0062
28564SOL     OW87698   9.164   2.017   6.637 -0.0883  0.2026 -0.3969
28564SOL    HW187699   9.091   2.006   6.575 -1.6494 -0.0768  1.4155
28564SOL    HW287700   9.225   2.075   6.591 -1.3304  0.2736 -2.0623
28565SOL     OW87701   2.169   7.949   5.484 -0.4367  0.2343  0.1174
28565SOL    HW187702   2.227   7.877   5.458 -0.9491 -0.0314 -0.2996
28565SOL    HW287703   2.096   7.907   5.528  1.0527  0.7406  3.3791
28566SOL     OW87704  10.098   7.363   0.002  0.1973  0.2793 -0.0424
28566SOL    HW187705  10.091   7.277  -0.040  0.0863  0.0589  0.4270
28566SOL    HW287706  10.128   7.420  -0.068 -2.1221  0.3955 -1.0628
28567SOL     OW87707   9.507   3.045  10.975 -0.1203  0.3220  0.0873
28567SOL    HW187708   9.438   3.034  11.041  2.4263 -1.3866  2.7032
28567SOL    HW287709   9.483   2.986  10.904 -1.5157  0.0347  0.7749
28568SOL     OW87710   5.414   0.467   0.903  0.0186  0.6285  0.4175
28568SOL    HW187711   5.498   0.492   0.943 -0.2226  1.1800  0.5900
28568SOL    HW287712   5.410   0.518   0.822  0.2675 -0.0950 -0.0575
28569SOL     OW87713  10.066   3.224   5.316 -0.2243  0.0256  0.6675
28569SOL    HW187714  10.093   3.316   5.303 -1.4319  0.0946 -1.8652
28569SOL    HW287715   9.981   3.230   5.359 -1.3890  0.2633 -1.5220
28570SOL     OW87716   8.680   9.213   6.525  0.3099 -0.1547 -0.0630
28570SOL    HW187717   8.694   9.301   6.561  1.3501 -0.3393  0.0121
28570SOL    HW287718   8.666   9.227   6.432 -1.0276  0.2067  0.1684
28571SOL     OW87719   0.283   9.944  10.578  0.1285 -0.3508  0.1010
28571SOL    HW187720   0.365   9.973  10.538  0.5510 -1.2828  0.2657
28571SOL    HW287721   0.253  10.021  10.628  1.5266 -0.3555  1.0151
28572SOL     OW87722   9.273   9.593   9.525 -0.2393 -0.1637 -0.3683
28572SOL    HW187723   9.232   9.649   9.460 -1.0535  0.7000  0.8558
28572SOL    HW287724   9.199   9.553   9.572  0.3294 -0.5958  0.1734
28573SOL     OW87725   8.718   1.742  11.174  0.0974 -0.0957  0.5861
28573SOL    HW187726   8.783   1.775  11.235 -0.1303 -0.6278  1.1308
28573SOL    HW287727   8.742   1.650  11.161 -0.9099 -0.4886  1.3214
28574SOL     OW87728   0.506   1.997   4.605  0.5171  0.2356 -0.6296
28574SOL    HW187729   0.590   2.037   4.586  1.6110 -1.3898  0.5313
28574SOL    HW287730   0.523   1.903   4.604 -0.6346 -0.0943  2.1789
28575SOL     OW87731   7.350   4.900   8.756 -0.1539 -0.2861 -0.0264
28575SOL    HW187732   7.373   4.935   8.670  2.0283 -1.0548  0.1795
28575SOL    HW287733   7.374   4.970   8.817 -0.4218 -0.2583  0.0474
28576SOL     OW87734  10.292   4.736   9.492 -0.2703 -0.0496 -0.6958
28576SOL    HW187735  10.260   4.822   9.467  1.1369 -0.0796 -2.9251
28576SOL    HW287736  10.216   4.679   9.486 -1.2224  1.0160  0.8380
28577SOL     OW87737  10.894   5.740  10.825  0.0738  0.0070  0.0845
28577SOL    HW187738  10.952   5.725  10.751  0.2846  1.4089 -0.0577
28577SOL    HW287739  10.848   5.657  10.836  0.9851 -0.6415 -0.7738
28578SOL     OW87740  10.987   2.579   7.462 -0.2329  0.3550  0.3511
28578SOL    HW187741  10.940   2.495   7.463 -0.2295  0.3027 -1.3939
28578SOL    HW287742  10.943   2.631   7.529 -3.2651  0.5159 -1.5777
28579SOL     OW87743   3.989   6.311  10.223  0.1968 -0.1872 -0.1804
28579SOL    HW187744   4.032   6.253  10.159  0.0942 -0.0217 -0.3977
28579SOL    HW287745   4.033   6.395  10.213  0.7500 -0.3725  0.5454
28580SOL     OW87746   4.644   3.272   8.536 -0.1359 -0.0435 -0.0637
28580SOL    HW187747   4.593   3.345   8.503 -0.4243  0.4640  1.4423
28580SOL    HW287748   4.617   3.197   8.482 -0.3257  0.8071 -1.1724
28581SOL     OW87749   4.264   6.133   7.228 -1.1423 -0.4553 -0.5336
28581SOL    HW187750   4.212   6.181   7.163  0.4139 -1.2988 -2.4810
28581SOL    HW287751   4.351   6.172   7.222 -1.0008 -0.4020  1.2751
28582SOL     OW87752   9.842   7.673  10.459  0.4586 -0.6201  0.4813
28582SOL    HW187753   9.901   7.699  10.530 -0.2245  0.0591  0.8155
28582SOL    HW287754   9.844   7.577  10.461  2.5255 -0.6381 -0.3527
28583SOL     OW87755   0.035   1.740   4.778 -0.6134  0.4639 -0.5607
28583SOL    HW187756   0.123   1.715   4.749 -0.0222  2.3142 -0.4986
28583SOL    HW287757   0.005   1.666   4.830  1.5513  0.4186  0.7455
28584SOL     OW87758   8.988   3.353  10.941 -0.1800 -0.3779  0.2207
28584SOL    HW187759   8.931   3.370  11.016 -2.0455 -2.0827 -0.7073
28584SOL    HW287760   9.038   3.275  10.965  3.1268  1.9480  1.6540
28585SOL     OW87761   2.566   6.746   5.535  0.2486  0.1232 -0.1170
28585SOL    HW187762   2.493   6.804   5.558 -0.0870  0.6234 -2.2535
28585SOL    HW287763   2.565   6.743   5.440  2.3580 -0.7397 -0.1630
28586SOL     OW87764   9.438   3.532   5.459 -0.5201 -0.4980 -0.6836
28586SOL    HW187765   9.505   3.523   5.526 -0.2799 -0.4717 -0.9219
28586SOL    HW287766   9.422   3.442   5.429  2.8856 -0.2550 -4.0665
28587SOL     OW87767   5.571   9.165   7.953  0.1472  0.3719 -0.5278
28587SOL    HW187768   5.593   9.224   8.024 -0.5553 -0.8518  0.7534
28587SOL    HW287769   5.504   9.107   7.989 -0.3710 -0.1672 -2.2520
28588SOL     OW87770   0.203   0.088   5.650  0.2406  0.5058  0.1777
28588SOL    HW187771   0.250   0.096   5.733 -0.9523 -0.7629  1.0198
28588SOL    HW287772   0.252   0.023   5.600 -1.9233 -3.0172  2.1777
28589SOL     OW87773   7.666   6.443   5.096  0.0635 -0.1063 -0.3091
28589SOL    HW187774   7.637   6.404   5.178 -1.5462 -0.5689 -1.0503
28589SOL    HW287775   7.699   6.530   5.121  1.7073 -1.0838  1.0782
28590SOL     OW87776   9.214   1.708   9.027 -0.3297 -0.0712 -0.2073
28590SOL    HW187777   9.266   1.751   8.959  0.7233  1.1078  1.2799
28590SOL    HW287778   9.125   1.742   9.014  0.3459  2.1390  0.5228
28591SOL     OW87779   6.397  10.428   0.284  0.9198 -0.3132  0.3359
28591SOL    HW187780   6.304  10.408   0.298  0.9579 -1.4080 -0.8180
28591SOL    HW287781   6.420  10.485   0.358 -1.3226  2.2100 -0.7375
28592SOL     OW87782   9.459   9.905   8.977 -0.0475  0.4992  0.2753
28592SOL    HW187783   9.403   9.944   8.910  0.0603 -0.4479 -0.4009
28592SOL    HW287784   9.548   9.909   8.940  0.2001  1.1258  0.9223
28593SOL     OW87785   1.365  10.958   3.022 -0.4652  0.5342 -0.2339
28593SOL    HW187786   1.339  10.871   2.992  1.9129 -0.2911 -0.1435
28593SOL    HW287787   1.396  10.944   3.112 -0.9455  1.6596  0.1197
28594SOL     OW87788   7.289   7.846   0.314  0.0861  0.3731 -0.3914
28594SOL    HW187789   7.210   7.838   0.368  2.0617 -0.2864  2.6410
28594SOL    HW287790   7.265   7.805   0.231 -2.3278 -1.1407  0.9413
28595SOL     OW87791   2.692   2.359   4.729 -0.0665 -0.2735  0.2407
28595SOL    HW187792   2.699   2.335   4.637  0.2661 -0.6346  0.3568
28595SOL    HW287793   2.611   2.410   4.735  1.7249  3.0904 -0.9978
28596SOL     OW87794   2.627   1.798   4.974 -0.4390 -0.2921 -0.1825
28596SOL    HW187795   2.551   1.845   5.008 -0.2789  0.4021 -0.7575
28596SOL    HW287796   2.590   1.726   4.923 -0.6844 -0.9475  0.8997
28597SOL     OW87797   9.950   2.691   2.773 -0.1648 -0.9728 -0.6977
28597SOL    HW187798  10.040   2.712   2.798 -0.0582 -0.7198 -1.2782
28597SOL    HW287799   9.947   2.707   2.679 -1.2887  0.7176 -0.3984
28598SOL     OW87800   1.636   7.351   9.559 -0.3883  0.2062  0.4872
28598SOL    HW187801   1.643   7.440   9.593 -0.2051  1.1057 -1.7379
28598SOL    HW287802   1.654   7.360   9.466  0.7822 -2.3553  0.4035
28599SOL     OW87803   2.553  10.763   7.858 -0.0237  0.0429 -0.0838
28599SOL    HW187804   2.575  10.671   7.844  2.1117  0.5527 -0.4260
28599SOL    HW287805   2.637  10.805   7.880 -0.7115  2.1337 -1.1831
28600SOL     OW87806   0.681   6.881   0.508 -0.2050  0.0247  0.0303
28600SOL    HW187807   0.613   6.840   0.561 -0.3104 -2.0350 -1.5773
28600SOL    HW287808   0.633   6.942   0.451 -0.7721 -1.3745 -1.0554
28601SOL     OW87809   1.709   2.022   1.892  0.2288 -0.6194  0.2536
28601SOL    HW187810   1.676   2.085   1.828  2.3607 -0.0954 -0.4313
28601SOL    HW287811   1.752   1.955   1.839 -0.2256 -1.5748  1.0688
28602SOL     OW87812   2.337   5.437   7.097 -0.0184 -0.0072  0.0494
28602SOL    HW187813   2.351   5.402   7.185 -2.0548 -1.5208 -0.1633
28602SOL    HW287814   2.396   5.512   7.092 -0.5085  0.7229  3.0626
28603SOL     OW87815   2.819  10.214   5.796  0.2964  0.4248 -0.0108
28603SOL    HW187816   2.911  10.221   5.818  0.9157 -1.3753 -1.6952
28603SOL    HW287817   2.790  10.132   5.836  0.0108 -0.0612 -1.1425
28604SOL     OW87818   2.870   3.256   3.889  0.3847 -0.4093  0.3696
28604SOL    HW187819   2.848   3.308   3.812 -0.2512  1.7996  1.9366
28604SOL    HW287820   2.959   3.225   3.872 -0.0062 -0.6115 -1.5336
28605SOL     OW87821   2.262   0.330   2.424  0.4503 -0.0128 -0.4054
28605SOL    HW187822   2.177   0.310   2.386  0.3880  1.5801 -1.1875
28605SOL    HW287823   2.256   0.297   2.514 -0.8604 -0.2246 -0.5509
28606SOL     OW87824   6.797   4.095   7.294  0.0645  0.2669 -0.3489
28606SOL    HW187825   6.815   4.184   7.265  0.2098 -0.1373 -1.5528
28606SOL    HW287826   6.743   4.106   7.372  2.1922  1.4465  1.0542
28607SOL     OW87827   9.072   4.167   7.866 -0.0525  0.3306 -0.1357
28607SOL    HW187828   9.058   4.135   7.955  1.2931 -0.1740 -0.0844
28607SOL    HW287829   9.015   4.113   7.812 -0.2330  0.0506  0.3285
28608SOL     OW87830   1.865   0.524   7.878 -0.1626 -0.7511  0.0063
28608SOL    HW187831   1.778   0.545   7.843  0.8347  1.7283 -1.2279
28608SOL    HW287832   1.862   0.553   7.969 -0.4455 -0.0899 -0.2095
28609SOL     OW87833   3.734   2.000   4.402 -0.1243 -0.3568  0.4646
28609SOL    HW187834   3.828   2.014   4.409 -0.1767  0.7156 -0.6199
28609SOL    HW287835   3.696   2.087   4.413 -0.9323 -0.6532  0.0919
28610SOL     OW87836   9.691   4.552   0.329  0.1640  1.1414  0.0225
28610SOL    HW187837   9.742   4.595   0.260 -0.8873  1.8186 -0.3485
28610SOL    HW287838   9.638   4.622   0.366 -0.7941  0.3666  0.1313
28611SOL     OW87839   2.950   9.295  10.598  0.5578 -0.0986 -0.0714
28611SOL    HW187840   2.910   9.262  10.679 -0.5971  1.7726  0.1813
28611SOL    HW287841   2.876   9.313  10.540  1.1679  1.2212 -0.4885
28612SOL     OW87842   6.748   5.415   4.567 -0.9905  0.0863 -0.2757
28612SOL    HW187843   6.733   5.509   4.552 -0.5332  0.3518  0.7885
28612SOL    HW287844   6.666   5.373   4.542 -1.8949  0.9908  1.0310
28613SOL     OW87845   6.214  10.243   6.864 -0.1394 -0.5383  0.2679
28613SOL    HW187846   6.131  10.287   6.850  0.7340  1.6185  1.3744
28613SOL    HW287847   6.273  10.282   6.800  0.5975 -0.2041  1.1144
28614SOL     OW87848   2.256   3.134   3.846 -0.3782 -0.3691  0.2032
28614SOL    HW187849   2.265   3.086   3.763 -1.3972 -1.2755  0.5958
28614SOL    HW287850   2.346   3.154   3.872 -0.0012  2.7193 -2.6610
28615SOL     OW87851  10.655   4.620   3.770  0.4206  0.0188  0.4042
28615SOL    HW187852  10.661   4.631   3.865 -0.3057  1.2704  0.3219
28615SOL    HW287853  10.610   4.699   3.740  0.6264 -0.3802 -0.9810
28616SOL     OW87854   2.465   9.982   0.211 -0.6819 -0.1958 -0.1544
28616SOL    HW187855   2.494   9.891   0.211  1.0195  0.3131  0.4653
28616SOL    HW287856   2.372   9.977   0.187 -0.9394 -2.1766  0.9877
28617SOL     OW87857   7.760   9.023   6.931  1.0192 -0.2957 -0.1414
28617SOL    HW187858   7.685   8.964   6.935  1.5324 -0.9123  1.7292
28617SOL    HW287859   7.740   9.091   6.996  2.1678 -0.6326  0.5927
28618SOL     OW87860   1.456   2.771  10.997 -1.1365  0.3609 -0.0038
28618SOL    HW187861   1.439   2.686  11.036 -2.6249  0.1196 -1.0955
28618SOL    HW287862   1.500   2.821  11.066 -1.1535 -0.9496  0.9908
28619SOL     OW87863   9.164  10.964   1.855  0.0390  0.1783  0.0040
28619SOL    HW187864   9.214  11.017   1.792 -1.0684  0.5127 -0.6233
28619SOL    HW287865   9.165  11.016   1.936 -0.1914  0.6969 -0.3194
28620SOL     OW87866   4.409   3.670   5.505  0.6743 -0.3890 -0.3326
28620SOL    HW187867   4.470   3.740   5.525 -0.7499  0.5220  1.1064
28620SOL    HW287868   4.380   3.687   5.416  1.3782  0.0433 -0.4847
28621SOL     OW87869   2.141  11.068   7.823 -0.3331  1.0300 -0.1622
28621SOL    HW187870   2.052  11.094   7.799 -0.0167  0.2269 -2.5031
28621SOL    HW287871   2.182  11.045   7.739  1.4824 -0.4174  1.0480
28622SOL     OW87872   4.248   2.509   8.004  0.2488 -0.1994 -1.0727
28622SOL    HW187873   4.183   2.442   8.022  1.3221 -1.1939 -0.7774
28622SOL    HW287874   4.299   2.476   7.930 -1.1486  1.7327 -3.0236
28623SOL     OW87875   5.431   9.975   4.389 -0.1362  0.1615 -0.5412
28623SOL    HW187876   5.357   9.933   4.433  0.3863  0.2941  0.4883
28623SOL    HW287877   5.486  10.008   4.460  0.0241  1.6223 -1.3045
28624SOL     OW87878   0.278   1.956   0.081 -0.1921  0.2743 -0.0397
28624SOL    HW187879   0.285   1.988  -0.009 -0.1650 -0.8110 -0.4402
28624SOL    HW287880   0.353   1.896   0.090 -1.7577 -1.8376 -0.2633
28625SOL     OW87881   9.595   1.739   6.630 -0.6144  0.5173  0.1286
28625SOL    HW187882   9.512   1.722   6.586  0.2048  0.0547 -1.2951
28625SOL    HW287883   9.570   1.772   6.716 -2.3028 -2.8890  1.1115
28626SOL     OW87884  10.905   3.345   6.365 -0.4310 -0.6955  0.0135
28626SOL    HW187885  10.941   3.428   6.335 -0.3549 -0.6001  0.3664
28626SOL    HW287886  10.920   3.345   6.459  1.1053 -1.8488 -0.1952
28627SOL     OW87887   6.410   1.274   2.166 -0.8945 -0.1812 -0.6896
28627SOL    HW187888   6.379   1.189   2.132 -1.2091 -0.9669  1.4146
28627SOL    HW287889   6.500   1.256   2.194 -1.6025 -0.4447  1.6257
28628SOL     OW87890   6.387   3.810   3.793  0.4630  0.5238 -0.3549
28628SOL    HW187891   6.451   3.880   3.783  0.3047  0.4861 -1.8989
28628SOL    HW287892   6.307   3.854   3.821  0.4539  0.9418 -1.0092
28629SOL     OW87893   4.887   8.659   3.716  0.1722 -0.2352  0.6266
28629SOL    HW187894   4.962   8.600   3.723  1.1905  0.7991 -0.9563
28629SOL    HW287895   4.829   8.632   3.787  1.0287 -2.4987  0.5658
28630SOL     OW87896   3.720   4.807   8.850 -0.5902  0.2071  0.4900
28630SOL    HW187897   3.640   4.765   8.881 -0.1708  0.7974  2.5821
28630SOL    HW287898   3.753   4.853   8.927  1.7587 -0.0246 -0.3092
28631SOL     OW87899   6.590   6.404  10.338  0.5714  0.1060  0.2524
28631SOL    HW187900   6.576   6.384  10.246 -0.4672  2.5746 -0.2272
28631SOL    HW287901   6.649   6.480  10.337 -0.4107  0.9298  1.5344
28632SOL     OW87902   8.006   2.405   3.644 -0.3870 -0.0609  0.5593
28632SOL    HW187903   7.915   2.428   3.629 -0.0348  0.7928 -0.4031
28632SOL    HW287904   8.005   2.351   3.723 -1.3929  2.2932  2.2424
28633SOL     OW87905   8.109   2.852   0.103  0.5818 -0.5074  0.6915
28633SOL    HW187906   8.088   2.935   0.059  0.8398  0.2216  1.8939
28633SOL    HW287907   8.032   2.798   0.089  0.5287 -0.1768 -0.3727
28634SOL     OW87908  10.713   1.896   3.299 -0.2300 -0.0398 -0.1956
28634SOL    HW187909  10.706   1.893   3.395  2.6224  0.1524  0.1014
28634SOL    HW287910  10.686   1.985   3.276 -1.2178 -0.1753  0.3476
28635SOL     OW87911   3.277   1.746   3.863 -0.0905 -0.8456 -0.5340
28635SOL    HW187912   3.306   1.810   3.797  1.5977 -0.4422  0.5361
28635SOL    HW287913   3.353   1.735   3.920 -1.4532 -1.2669  1.2840
28636SOL     OW87914   9.584   7.905   7.093  0.5688  0.6349 -0.1864
28636SOL    HW187915   9.666   7.953   7.101  0.2512  1.1642 -0.0900
28636SOL    HW287916   9.610   7.813   7.094  0.9918  0.7206  2.0812
28637SOL     OW87917   7.811   2.477   4.172  0.2427 -0.0756 -0.1884
28637SOL    HW187918   7.829   2.408   4.236  0.7525 -0.0352 -0.2911
28637SOL    HW287919   7.724   2.455   4.138 -0.4283  0.3835  1.1518
28638SOL     OW87920   9.213   1.577   1.502 -0.1683  0.1403  0.2141
28638SOL    HW187921   9.146   1.587   1.570  1.2269 -1.7050  2.0306
28638SOL    HW287922   9.295   1.593   1.548  0.8774 -1.9294 -0.8058
28639SOL     OW87923  10.730   6.415   5.578 -0.0310 -0.2208 -0.4387
28639SOL    HW187924  10.796   6.345   5.581  1.7126  1.3465 -0.5516
28639SOL    HW287925  10.726   6.448   5.667  1.0311  1.1482 -0.8632
28640SOL     OW87926   7.699  10.612   0.819  0.2989 -0.0960 -0.1022
28640SOL    HW187927   7.612  10.650   0.830 -1.2992 -3.3358 -0.2685
28640SOL    HW287928   7.736  10.610   0.908 -0.3959  0.0946  0.1972
28641SOL     OW87929   7.814   3.146   2.988 -0.0239 -0.0700 -0.2200
28641SOL    HW187930   7.780   3.090   3.058  0.5882  0.7014  0.7372
28641SOL    HW287931   7.871   3.208   3.034  1.1868 -0.1703 -1.5453
28642SOL     OW87932   5.062   7.288   8.136 -0.2399  0.4051  0.0621
28642SOL    HW187933   5.095   7.224   8.199 -0.8837 -0.4660 -0.4646
28642SOL    HW287934   5.106   7.267   8.054 -0.8659  0.2835 -0.2488
28643SOL     OW87935   2.004   3.919   4.431 -0.3415 -0.1698  0.2702
28643SOL    HW187936   1.950   3.858   4.381 -0.6430 -0.7213  1.2389
28643SOL    HW287937   2.081   3.868   4.455 -0.4875 -0.1056  0.8911
28644SOL     OW87938   2.248   6.546   4.279  0.2454 -0.1244 -0.3828
28644SOL    HW187939   2.188   6.541   4.353  1.2744 -0.7758  0.4497
28644SOL    HW287940   2.296   6.627   4.292  0.3507 -0.1839 -0.3993
28645SOL     OW87941   7.537   8.920   1.579  0.5166  0.0221 -0.0829
28645SOL    HW187942   7.508   9.002   1.539 -0.3479 -0.6544 -0.8866
28645SOL    HW287943   7.465   8.858   1.563  1.0957 -0.8623  0.6141
28646SOL     OW87944   2.775   3.275  11.276  0.2594  0.4895 -0.1781
28646SOL    HW187945   2.715   3.337  11.236 -1.8801 -1.4434 -0.1893
28646SOL    HW287946   2.719   3.201  11.303  2.2973 -0.3932  2.0128
28647SOL     OW87947   5.327  10.438   7.741  0.0826 -0.0706  0.1500
28647SOL    HW187948   5.353  10.516   7.691 -0.7689 -1.4093 -2.6126
28647SOL    HW287949   5.403  10.380   7.735 -0.3671 -0.6163 -0.5024
28648SOL     OW87950   5.773   5.752  10.669  0.5484  0.4668  0.3078
28648SOL    HW187951   5.846   5.809  10.645 -0.5704  0.8234 -2.8422
28648SOL    HW287952   5.798   5.665  10.637  0.6032  0.0243  1.5006
28649SOL     OW87953   3.827   1.976   8.230  0.3166  0.0812  0.3096
28649SOL    HW187954   3.883   1.898   8.233  1.0750  0.6135  0.3411
28649SOL    HW287955   3.817   2.002   8.322  1.2339  0.8201  0.2185
28650SOL     OW87956   1.709   1.276   4.754  0.6472 -0.2484 -0.5117
28650SOL    HW187957   1.737   1.364   4.778  1.5133 -0.3817 -0.9969
28650SOL    HW287958   1.656   1.246   4.829 -0.8870  1.2085 -0.9540
28651SOL     OW87959   4.300  10.509   7.467 -0.7649 -0.5263 -0.5004
28651SOL    HW187960   4.351  10.471   7.395 -1.2815  1.1923 -1.8450
28651SOL    HW287961   4.222  10.544   7.425 -0.5799  1.4845  0.6930
28652SOL     OW87962   4.480   5.492   4.745  0.0251 -0.7822 -0.0221
28652SOL    HW187963   4.476   5.399   4.721 -1.2617 -0.8211  0.2610
28652SOL    HW287964   4.527   5.493   4.829  0.4256 -1.1249 -0.2393
28653SOL     OW87965   7.302   9.844  11.192  0.1175  0.0649  0.0693
28653SOL    HW187966   7.222   9.896  11.201  0.1989  0.2356 -0.2033
28653SOL    HW287967   7.356   9.870  11.266 -0.0228  0.0467  0.1808
28654SOL     OW87968   3.110   6.140   2.472 -0.1521 -0.4853 -0.2226
28654SOL    HW187969   3.102   6.054   2.512 -0.1940  0.0128  0.8791
28654SOL    HW287970   3.065   6.199   2.533  2.1978  0.7223  0.4315
28655SOL     OW87971   5.480   3.820   8.553 -0.1363  0.1204  0.3804
28655SOL    HW187972   5.490   3.890   8.488  1.5086 -0.4366 -0.0256
28655SOL    HW287973   5.386   3.812   8.566 -0.4335  1.1805 -0.9138
28656SOL     OW87974   6.969   2.271   1.084 -0.1994 -0.0338 -0.5929
28656SOL    HW187975   6.873   2.277   1.086 -0.2479 -0.7768 -0.1184
28656SOL    HW287976   6.987   2.195   1.028  0.0265 -1.0847  0.8480
28657SOL     OW87977   6.653   1.380   3.792 -0.7143 -0.1054  0.3676
28657SOL    HW187978   6.640   1.468   3.757  0.5657  0.1240  0.4296
28657SOL    HW287979   6.744   1.379   3.822 -1.6369 -0.3174  3.6080
28658SOL     OW87980   9.110   4.439  11.270 -0.1162  0.5183  0.4091
28658SOL    HW187981   9.121   4.351  11.306  1.1771 -0.1011 -1.3791
28658SOL    HW287982   9.118   4.497  11.346  2.8878 -0.6979  1.1639
28659SOL     OW87983   6.924   8.733   7.621  1.0282 -0.1202 -0.1633
28659SOL    HW187984   6.979   8.661   7.653  2.0046  0.9009  0.5222
28659SOL    HW287985   6.941   8.736   7.526 -0.0567 -1.6242 -0.4477
28660SOL     OW87986   8.633  10.562   9.892  0.3261 -0.0760  0.1861
28660SOL    HW187987   8.610  10.475   9.860  1.0647 -0.3109  0.2881
28660SOL    HW287988   8.564  10.583   9.954  0.8658 -1.1739  1.1957
28661SOL     OW87989   9.718   9.389   2.585  0.3890 -0.9284  0.0224
28661SOL    HW187990   9.738   9.315   2.528 -2.3755 -2.1862  0.5392
28661SOL    HW287991   9.696   9.349   2.669 -1.0743  0.4670  0.3424
28662SOL     OW87992   5.604   3.360   7.429  0.3748  0.3003 -0.1138
28662SOL    HW187993   5.687   3.395   7.396  0.2535  0.5077 -0.2087
28662SOL    HW287994   5.628   3.306   7.504  0.6495 -0.1170 -0.4964
28663SOL     OW87995   9.029   0.075   5.185  0.2240 -0.0146 -0.1845
28663SOL    HW187996   8.986   0.079   5.100 -1.2085  1.5404  0.5457
28663SOL    HW287997   9.116   0.112   5.170 -0.1282  0.5450 -0.9146
28664SOL     OW87998   2.203   0.839  10.492  0.2316 -0.1286 -0.7344
28664SOL    HW187999   2.116   0.828  10.529  0.2728  0.5535 -0.4311
28664SOL    HW288000   2.257   0.866  10.566  0.8292 -1.1071 -0.7964
28665SOL     OW88001  10.776   4.265   6.891  0.8876  0.6158 -0.2253
28665SOL    HW188002  10.747   4.336   6.948  0.8462 -0.4974  1.2318
28665SOL    HW288003  10.870   4.277   6.883  1.1576 -0.0624  1.4155
28666SOL     OW88004   8.879   9.922   9.098 -0.2850  0.0333  0.8039
28666SOL    HW188005   8.850   9.978   9.027  0.2992  3.0814  2.7962
28666SOL    HW288006   8.800   9.902   9.148 -0.4564 -0.8199  0.2214
28667SOL     OW88007   2.831   2.157   9.867  0.5964  0.3569  0.5414
28667SOL    HW188008   2.864   2.232   9.817 -0.2277  0.3496 -0.0340
28667SOL    HW288009   2.893   2.147   9.939  0.7734  1.5281  0.5671
28668SOL     OW88010   4.707   8.249   0.880 -0.3184 -0.2729 -0.3563
28668SOL    HW188011   4.625   8.256   0.928 -0.0988  1.3505 -0.1612
28668SOL    HW288012   4.680   8.242   0.788 -0.6860  0.6677 -0.3306
28669SOL     OW88013  11.168   7.400   7.947  0.3758 -0.1495 -0.0625
28669SOL    HW188014  11.121   7.317   7.938 -0.8002  0.6505 -1.8726
28669SOL    HW288015  11.099   7.465   7.962  0.7147  1.1341 -3.2692
28670SOL     OW88016   4.125   1.377   9.664  0.0438 -0.1010  0.2240
28670SOL    HW188017   4.177   1.300   9.641 -0.1578  0.5380 -2.7438
28670SOL    HW288018   4.039   1.360   9.626  0.7638  2.6550 -3.0674
28671SOL     OW88019   0.295   5.717   1.232  0.4646 -0.3110 -0.4094
28671SOL    HW188020   0.315   5.625   1.214 -0.4082 -0.3207 -1.3978
28671SOL    HW288021   0.286   5.757   1.146  0.5940  0.6510  0.0126
28672SOL     OW88022   5.692   3.003   2.448  0.8807  0.4297 -0.0021
28672SOL    HW188023   5.782   3.023   2.420  1.1465  0.3011  0.7430
28672SOL    HW288024   5.638   3.061   2.394  1.3371 -0.1093 -1.0895
28673SOL     OW88025   1.852   7.612   9.626  0.3042 -0.0210 -0.5647
28673SOL    HW188026   1.908   7.587   9.699 -1.5825  0.2657  1.0603
28673SOL    HW288027   1.869   7.546   9.559  2.7396  0.2136 -0.2612
28674SOL     OW88028   4.213   8.971   4.309 -0.5759 -0.1328  0.3370
28674SOL    HW188029   4.133   8.978   4.362 -2.5648 -0.0484 -2.4067
28674SOL    HW288030   4.180   8.952   4.220  2.6115 -3.2715 -0.4019
28675SOL     OW88031  10.335   6.074   5.846 -0.2128  0.0447 -0.1224
28675SOL    HW188032  10.375   6.156   5.817  1.9409 -0.8264  0.2294
28675SOL    HW288033  10.354   6.012   5.776 -0.8454 -0.4542  0.1326
28676SOL     OW88034   8.635   9.301   7.371  0.1370 -0.1938 -0.1629
28676SOL    HW188035   8.716   9.346   7.393  0.7755 -0.9554 -0.9103
28676SOL    HW288036   8.661   9.211   7.352 -0.7689 -0.2593 -1.2130
28677SOL     OW88037   5.270   0.312   0.341 -0.0764 -0.1084 -0.0252
28677SOL    HW188038   5.323   0.358   0.406  0.4641  0.1802 -0.6586
28677SOL    HW288039   5.333   0.281   0.276 -0.4835 -1.3372  0.1371
28678SOL     OW88040   3.966   6.423   0.533  0.0167 -0.1310  0.5047
28678SOL    HW188041   4.007   6.457   0.454  1.9249  1.0673  1.9199
28678SOL    HW288042   3.895   6.367   0.502  1.1277 -0.2270 -2.0339
28679SOL     OW88043   2.023  10.857   5.116  0.1628  0.6407  0.0090
28679SOL    HW188044   2.078  10.918   5.067 -1.2219  0.2157 -2.2110
28679SOL    HW288045   2.083  10.788   5.144  1.5241  2.3434  1.5004
28680SOL     OW88046  10.588   6.190   1.165  0.3412  0.0713  0.1985
28680SOL    HW188047  10.641   6.266   1.188  1.3154 -0.4724 -0.1966
28680SOL    HW288048  10.593   6.133   1.241 -0.9447  0.6706  0.7669
28681SOL     OW88049   4.068   8.644   2.345 -0.2664 -0.7701 -0.0978
28681SOL    HW188050   4.104   8.653   2.433 -1.8863 -0.9851  0.6228
28681SOL    HW288051   3.986   8.693   2.347  1.3877  2.4850 -2.6296
28682SOL     OW88052   6.335   8.119   9.431  0.3620 -0.3578 -0.5113
28682SOL    HW188053   6.285   8.201   9.432 -0.0529 -0.5412  2.6229
28682SOL    HW288054   6.348   8.097   9.523  2.9504 -2.3624 -1.2256
28683SOL     OW88055   5.912  10.434   8.992 -0.0594 -0.2730 -0.1527
28683SOL    HW188056   5.914  10.456   9.085 -1.7299 -0.8559  0.0476
28683SOL    HW288057   5.885  10.514   8.948 -1.4033 -0.5623  0.1023
28684SOL     OW88058   9.508   6.912   8.640  0.5973 -0.0820  0.0824
28684SOL    HW188059   9.583   6.923   8.582  0.4692 -0.1361 -0.0946
28684SOL    HW288060   9.457   6.992   8.630  1.3365  0.5701  1.2452
28685SOL     OW88061   2.517   9.244   4.690 -0.0278  0.3700  0.6368
28685SOL    HW188062   2.582   9.289   4.745 -1.7263  2.9932  0.6904
28685SOL    HW288063   2.435   9.290   4.708 -1.7038 -2.0611 -0.2921
28686SOL     OW88064   2.065   3.079   5.231  0.2096  0.7768  0.0881
28686SOL    HW188065   2.138   3.024   5.258 -2.2050 -2.2786  1.0778
28686SOL    HW288066   2.088   3.167   5.262  2.9985 -0.2085  1.1343
28687SOL     OW88067   8.244   3.073   6.008  0.1505 -0.0112 -0.2532
28687SOL    HW188068   8.225   3.129   6.084  0.2857  2.8472 -2.1415
28687SOL    HW288069   8.316   3.017   6.037 -0.1926  0.5338  1.8881
28688SOL     OW88070   8.617   3.842   6.917  0.1333 -0.3268  0.1467
28688SOL    HW188071   8.624   3.749   6.896 -1.3126 -0.5260  0.4282
28688SOL    HW288072   8.547   3.847   6.982  1.1228  0.8234  1.1776
28689SOL     OW88073   9.297   0.665   8.346 -0.0432 -0.3124 -0.2761
28689SOL    HW188074   9.355   0.737   8.322  0.8475 -1.0518 -0.4305
28689SOL    HW288075   9.209   0.703   8.346  0.4873  0.9828  0.5357
28690SOL     OW88076  10.504   9.765   2.914 -0.1414 -0.3099 -0.3190
28690SOL    HW188077  10.576   9.762   2.977 -0.7975  1.3898  0.5991
28690SOL    HW288078  10.447   9.693   2.939 -0.1371  0.0365  0.7460
28691SOL     OW88079   4.025   1.686   0.346  1.2030 -0.2499 -0.1339
28691SOL    HW188080   4.019   1.635   0.427  0.5276  0.4370  0.2595
28691SOL    HW288081   3.934   1.693   0.316  0.9661  2.3909  0.8973
28692SOL     OW88082   0.981   0.576   5.687 -0.5507  0.3838 -0.2346
28692SOL    HW188083   0.912   0.514   5.712  0.9410 -0.7796  1.1703
28692SOL    HW288084   1.045   0.523   5.640 -0.2203  1.2903 -0.8219
28693SOL     OW88085   5.797  10.272   5.532 -0.1825  0.2263  0.1836
28693SOL    HW188086   5.751  10.336   5.477 -0.0460 -1.6454 -2.2747
28693SOL    HW288087   5.889  10.282   5.507  0.1301  0.5308  1.4105
28694SOL     OW88088   4.832   2.277   1.887 -0.3924 -0.0008  0.8922
28694SOL    HW188089   4.797   2.360   1.854 -0.3651 -0.0996  0.6112
28694SOL    HW288090   4.856   2.228   1.808  0.8082  0.2504  1.0757
28695SOL     OW88091   1.274   7.786   4.505  0.2674 -0.2139  0.7112
28695SOL    HW188092   1.310   7.700   4.484  1.4989  0.9112 -2.5165
28695SOL    HW288093   1.184   7.769   4.532  0.8722 -2.5604  1.4320
28696SOL     OW88094   6.417   1.046   4.858  0.4239 -0.1435 -0.1523
28696SOL    HW188095   6.326   1.021   4.872 -0.0834  0.7794 -1.5888
28696SOL    HW288096   6.444   1.084   4.941 -0.5831 -0.2004  0.2160
28697SOL     OW88097   8.383   9.081   2.374 -0.6217 -0.9115 -0.2203
28697SOL    HW188098   8.413   9.027   2.301  2.4931 -2.1837  1.7838
28697SOL    HW288099   8.299   9.044   2.399 -1.6082 -0.6677 -2.8074
28698SOL     OW88100   0.429   0.559   1.367  0.1371  0.2354 -0.1931
28698SOL    HW188101   0.420   0.500   1.292  1.4096  0.5698 -0.6432
28698SOL    HW288102   0.491   0.514   1.426 -0.6131  0.1172  0.5218
28699SOL     OW88103   9.585   2.224   1.634 -0.9103 -0.2167  0.3020
28699SOL    HW188104   9.550   2.232   1.546 -0.9951 -0.7277  0.2909
28699SOL    HW288105   9.510   2.240   1.692 -1.7657 -3.6323  0.2998
28700SOL     OW88106  10.363   5.849   0.205 -0.1458  0.2235 -0.3119
28700SOL    HW188107  10.427   5.878   0.140  0.2453  0.8656  0.3474
28700SOL    HW288108  10.357   5.754   0.191 -0.7597  0.4772 -1.8804
28701SOL     OW88109   5.771   3.842   8.358  0.3865  0.0782  0.2139
28701SOL    HW188110   5.706   3.815   8.293 -0.8691  2.5627  0.3444
28701SOL    HW288111   5.738   3.806   8.441 -0.5962  0.9206  0.2021
28702SOL     OW88112   0.225  11.116   2.730  0.8061 -0.3818 -0.4179
28702SOL    HW188113   0.230  11.044   2.668  2.6172 -0.7556  0.1101
28702SOL    HW288114   0.304  11.108   2.783  0.0168  0.7714  1.0153
28703SOL     OW88115   0.132   1.248   7.630  0.0758 -0.8116  0.1714
28703SOL    HW188116   0.055   1.192   7.620 -0.4020 -0.3003  0.9170
28703SOL    HW288117   0.192   1.196   7.684  0.3000 -1.2355 -0.4626
28704SOL     OW88118   1.673   4.169   0.594  0.5541 -0.2070  0.9426
28704SOL    HW188119   1.677   4.264   0.580  0.2814 -0.5466 -2.3401
28704SOL    HW288120   1.600   4.156   0.653  0.0831  1.6040  0.8161
28705SOL     OW88121   6.023  10.960   0.093  0.6860 -0.3908 -0.1172
28705SOL    HW188122   5.994  11.018   0.023 -0.0767 -2.1325 -1.3253
28705SOL    HW288123   5.953  10.895   0.100  3.3627 -3.8585 -2.0240
28706SOL     OW88124   1.242   7.481   8.270 -0.1783 -0.1847  0.4101
28706SOL    HW188125   1.167   7.431   8.236 -0.3217  0.6081 -0.4850
28706SOL    HW288126   1.274   7.429   8.343 -1.6320 -0.5271  0.8440
28707SOL     OW88127  10.769   7.660   6.985  0.0262  0.0446 -0.2542
28707SOL    HW188128  10.806   7.575   7.008 -0.8240 -0.6630 -1.3277
28707SOL    HW288129  10.844   7.718   6.977  0.7587 -0.9446 -0.8122
28708SOL     OW88130   5.406   1.310   5.470  0.0362  0.0781 -0.6282
28708SOL    HW188131   5.380   1.374   5.537 -1.9203 -0.1019 -1.1463
28708SOL    HW288132   5.438   1.364   5.397 -0.1838  0.4000 -0.4895
28709SOL     OW88133   0.490   6.895   9.192  0.0030 -0.2222  0.7335
28709SOL    HW188134   0.558   6.956   9.164  0.3442 -0.8104  0.2783
28709SOL    HW288135   0.490   6.902   9.287 -0.0235  0.5566  0.6824
28710SOL     OW88136  10.002   3.227  10.758 -0.0979  0.6012  0.7136
28710SOL    HW188137   9.943   3.277  10.702  0.6313  0.3372 -0.3259
28710SOL    HW288138  10.081   3.281  10.764  0.9785 -0.6538 -1.0019
28711SOL     OW88139  11.083   6.312   0.032  0.0480 -1.2102 -0.4813
28711SOL    HW188140  11.035   6.246  -0.018 -0.2175  0.1861 -2.1741
28711SOL    HW288141  11.114   6.375  -0.034  1.0886 -0.1353  0.9553
28712SOL     OW88142   0.162   2.538   2.268 -0.1361 -0.1014 -0.9521
28712SOL    HW188143   0.136   2.475   2.201 -0.9941 -0.1318 -0.5977
28712SOL    HW288144   0.177   2.485   2.346  1.5438 -0.1538 -1.2709
28713SOL     OW88145   1.356   0.623   4.824 -0.0921 -0.1532 -0.4612
28713SOL    HW188146   1.425   0.688   4.814 -0.0062  0.0320  1.0850
28713SOL    HW288147   1.396   0.541   4.796 -0.1093  0.3714 -2.1410
28714SOL     OW88148   5.075  11.216   7.123  0.1674  0.1812 -0.9701
28714SOL    HW188149   5.150  11.157   7.119 -0.2464 -0.3414 -1.0549
28714SOL    HW288150   5.112  11.299   7.155  0.4577 -0.5999  0.8330
28715SOL     OW88151   5.077   6.518  10.800 -0.5700 -0.0443 -0.3636
28715SOL    HW188152   5.161   6.487  10.766 -0.8817 -1.7841  0.3157
28715SOL    HW288153   5.025   6.535  10.721  0.4982  1.3828 -0.7922
28716SOL     OW88154   1.998  10.752   2.857  0.4899 -0.4615  0.6265
28716SOL    HW188155   1.907  10.777   2.876  0.3746 -1.1594  1.0281
28716SOL    HW288156   2.046  10.834   2.858 -0.3388  0.0850 -0.8145
28717SOL     OW88157   6.958   0.040   5.766 -0.1516  0.0687  0.3920
28717SOL    HW188158   6.936   0.014   5.676 -0.7003 -0.9380  0.7954
28717SOL    HW288159   7.053   0.035   5.770  0.1362  2.8227 -0.8994
28718SOL     OW88160   6.901   1.834   0.039  0.3909  0.9462  0.1279
28718SOL    HW188161   6.857   1.852   0.122 -0.4149 -2.4078  0.5752
28718SOL    HW288162   6.832   1.842  -0.027  0.1328 -0.0036  0.2737
28719SOL     OW88163   3.030   3.069  10.012  0.0950  0.0205 -0.3960
28719SOL    HW188164   2.962   3.089  10.077  0.1680 -0.4485 -0.1688
28719SOL    HW288165   3.007   3.122   9.936  1.1085  2.1363  0.6796
28720SOL     OW88166   2.476   2.980   8.934 -0.5194  0.6000  0.2039
28720SOL    HW188167   2.551   3.017   8.888 -2.0319  3.6494 -0.1083
28720SOL    HW288168   2.514   2.922   9.000  2.0221  1.2732 -0.5591
28721SOL     OW88169   3.276   6.790   2.149 -0.3945  0.8586 -0.0445
28721SOL    HW188170   3.273   6.788   2.054 -0.5439  2.9449 -0.1388
28721SOL    HW288171   3.196   6.747   2.177 -0.0969 -0.2364 -0.8314
28722SOL     OW88172   8.515   6.487   0.973 -0.2302 -0.7444  0.0961
28722SOL    HW188173   8.493   6.427   1.044  0.4416 -2.8557 -1.3657
28722SOL    HW288174   8.611   6.484   0.969 -0.2678 -0.7470 -0.9642
28723SOL     OW88175   4.971   0.572   0.202 -0.6433 -0.3948  0.7214
28723SOL    HW188176   4.889   0.622   0.193  1.7074  3.5994 -1.1177
28723SOL    HW288177   5.000   0.558   0.112  1.9251  0.6993  1.2963
28724SOL     OW88178   1.601  10.510   3.733 -0.4095  0.5215  0.2092
28724SOL    HW188179   1.642  10.466   3.659 -0.8813 -2.3218  1.5087
28724SOL    HW288180   1.673  10.537   3.789 -0.1009 -1.8185  1.0518
28725SOL     OW88181   9.555   9.271   8.426  0.3843  0.4380  0.1288
28725SOL    HW188182   9.513   9.205   8.481  0.2392  0.7232  0.3565
28725SOL    HW288183   9.645   9.241   8.418  0.0644 -0.3601 -0.6399
28726SOL     OW88184   4.882   1.033  10.431  0.2084  0.1932 -0.3302
28726SOL    HW188185   4.923   1.055  10.514  1.7534 -2.6163 -0.2259
28726SOL    HW288186   4.946   1.059  10.365 -1.3341  3.1414 -0.8249
28727SOL     OW88187   6.802  10.521   4.442  0.3632 -0.8252  0.7042
28727SOL    HW188188   6.897  10.523   4.427  0.4896 -2.0096  1.2440
28727SOL    HW288189   6.792  10.529   4.537 -0.2472  2.2142  0.4932
28728SOL     OW88190   0.682   9.685   1.349  0.4947  0.1969 -0.4459
28728SOL    HW188191   0.689   9.610   1.407  3.7836  1.6154  1.2433
28728SOL    HW288192   0.625   9.746   1.395 -1.2893 -0.7278 -1.3214
28729SOL     OW88193   4.384   9.850   3.212  0.2612  0.6493 -0.2760
28729SOL    HW188194   4.457   9.840   3.273  1.9310  1.8098 -1.9544
28729SOL    HW288195   4.309   9.874   3.267  1.5121  0.9473  1.3597
28730SOL     OW88196   5.642   0.186  10.081 -0.0914 -0.1734 -0.2917
28730SOL    HW188197   5.559   0.219  10.117  0.7724 -0.1043  1.8050
28730SOL    HW288198   5.679   0.261  10.035 -1.0104 -0.0921 -0.9250
28731SOL     OW88199   4.794   4.448  10.272 -0.5601 -1.1515  0.1247
28731SOL    HW188200   4.778   4.354  10.264  2.6525 -2.0236  1.9161
28731SOL    HW288201   4.761   4.472  10.358 -0.5407 -0.8747  0.0578
28732SOL     OW88202  10.999  10.882   6.488 -0.0382 -0.6189  0.2406
28732SOL    HW188203  11.030  10.892   6.399  0.2020 -0.2445  0.3653
28732SOL    HW288204  10.965  10.792   6.492  1.9708 -1.4346  0.3875
28733SOL     OW88205   4.127  10.298   7.078  0.3172 -0.4375 -0.4556
28733SOL    HW188206   4.070  10.315   7.003  0.2085 -1.0899 -0.5312
28733SOL    HW288207   4.126  10.202   7.087  0.7345 -0.3965  0.0611
28734SOL     OW88208   7.797  10.653   1.704 -0.3259 -0.3035 -1.5751
28734SOL    HW188209   7.814  10.567   1.743  0.8788  0.7199  0.3514
28734SOL    HW288210   7.879  10.701   1.717 -1.4374  1.6039 -1.2207
28735SOL     OW88211   8.323   8.988   4.336 -0.0639 -0.7590 -0.0075
28735SOL    HW188212   8.232   8.996   4.309 -0.2026 -3.0445 -0.4407
28735SOL    HW288213   8.319   8.949   4.423  0.4971 -0.4205  0.1746
28736SOL     OW88214   5.239   1.077  10.596  0.2648  0.1488  0.0557
28736SOL    HW188215   5.161   1.131  10.606 -0.1062 -0.4531  0.4775
28736SOL    HW288216   5.294   1.125  10.533  0.1623  1.2326  0.7773
28737SOL     OW88217  10.209   3.436   3.887  0.1085  0.0401  0.1732
28737SOL    HW188218  10.257   3.503   3.838 -0.8987 -0.6261 -1.8598
28737SOL    HW288219  10.126   3.426   3.839 -1.6888  0.4453  2.9645
28738SOL     OW88220   1.643   2.331  10.409 -0.5355  0.3095  0.1023
28738SOL    HW188221   1.735   2.344  10.432 -0.0487 -0.2019 -1.4137
28738SOL    HW288222   1.626   2.239  10.430 -1.0638  0.7068  1.4880
28739SOL     OW88223   1.591   7.105   4.226  1.0402 -0.1461 -0.0492
28739SOL    HW188224   1.560   7.102   4.136  1.4761  1.6744 -0.2793
28739SOL    HW288225   1.551   7.027   4.267  0.8096 -0.9727 -1.7663
28740SOL     OW88226   1.494   9.513   5.056  0.3922 -0.1487  0.0583
28740SOL    HW188227   1.453   9.542   4.975 -1.3271 -0.2364  0.8431
28740SOL    HW288228   1.547   9.587   5.084  2.0560 -0.5766 -1.7544
28741SOL     OW88229   6.761   3.354   3.357  0.3929  0.3166 -0.0768
28741SOL    HW188230   6.834   3.320   3.409 -0.8540 -1.1047  0.8474
28741SOL    HW288231   6.689   3.360   3.419 -1.2787 -1.8055 -1.6590
28742SOL     OW88232   4.277   7.986   5.716 -0.5253  0.2969  0.3476
28742SOL    HW188233   4.302   7.925   5.786 -1.8016  0.6244  1.1246
28742SOL    HW288234   4.182   7.989   5.721 -0.4678  3.0354  0.9038
28743SOL     OW88235   1.573  10.210   8.190 -0.1292 -0.6214 -0.0901
28743SOL    HW188236   1.506  10.218   8.257  0.5611 -0.0793  0.5588
28743SOL    HW288237   1.623  10.132   8.214 -0.1579 -0.6830 -0.2292
28744SOL     OW88238   3.215   8.927  10.624 -0.5824  0.7101 -0.0615
28744SOL    HW188239   3.185   8.840  10.598 -0.0727  0.0368  1.4536
28744SOL    HW288240   3.140   8.984  10.608 -1.2032 -0.1584 -0.3211
28745SOL     OW88241   0.932   2.512   0.155 -0.9143 -0.2741  0.5270
28745SOL    HW188242   0.935   2.598   0.196  0.3867 -0.6505  1.3120
28745SOL    HW288243   1.008   2.510   0.097 -1.2244 -0.7130  0.1294
28746SOL     OW88244   3.754   9.055   2.750 -0.0315  0.8287 -0.3460
28746SOL    HW188245   3.808   9.086   2.677  0.4766  0.5949 -0.0716
28746SOL    HW288246   3.669   9.035   2.710  0.6593 -0.6810 -1.1646
28747SOL     OW88247   7.802   9.218  10.047  0.0126  0.2807  0.1435
28747SOL    HW188248   7.803   9.281   9.975  0.2034 -0.5173 -0.5625
28747SOL    HW288249   7.882   9.237  10.096 -0.6109  1.4870  0.7467
28748SOL     OW88250   4.466   2.675  10.774  0.5578 -0.4795  0.4469
28748SOL    HW188251   4.513   2.615  10.716  1.7772 -0.9056  1.8157
28748SOL    HW288252   4.514   2.671  10.857 -0.2767  1.1850  1.0635
28749SOL     OW88253   2.695   4.722   4.592 -0.2468  1.1370  0.0821
28749SOL    HW188254   2.601   4.728   4.578 -0.1846  0.0510 -0.9846
28749SOL    HW288255   2.704   4.676   4.675 -0.6707  0.3057 -0.3205
28750SOL     OW88256   1.591   7.237   9.804  0.0253 -0.4681 -0.3383
28750SOL    HW188257   1.632   7.299   9.864 -0.6447 -0.5399  0.2054
28750SOL    HW288258   1.600   7.277   9.717 -2.6684  1.6935  0.2449
28751SOL     OW88259   8.572   0.319   1.946  0.1545 -0.5017 -0.5439
28751SOL    HW188260   8.498   0.258   1.937  0.6346 -1.5101  1.7113
28751SOL    HW288261   8.547   0.375   2.019  1.4807 -0.6407  0.0249
28752SOL     OW88262  11.052   0.931   3.326 -0.9722  0.7601  0.2695
28752SOL    HW188263  11.114   0.990   3.283 -1.3090 -0.3461 -1.8536
28752SOL    HW288264  10.986   0.911   3.259 -2.3690  0.1092  1.7632
28753SOL     OW88265   6.365   3.379   8.513 -0.4781  0.0057 -0.0794
28753SOL    HW188266   6.401   3.308   8.567 -0.3456 -1.6780 -2.2264
28753SOL    HW288267   6.434   3.445   8.512  0.7639 -1.2513 -0.5674
28754SOL     OW88268   8.041   1.856   7.029 -0.2122  0.0868 -0.2852
28754SOL    HW188269   8.037   1.764   7.003 -0.3236 -0.2896  0.9997
28754SOL    HW288270   8.133   1.871   7.050 -0.3199  0.0428  0.2424
28755SOL     OW88271   9.701   9.080   2.000  0.1037 -0.4593 -0.2192
28755SOL    HW188272   9.770   9.133   2.040  0.9970 -1.0360 -0.9439
28755SOL    HW288273   9.653   9.043   2.074 -0.0383  0.7081  0.2964
28756SOL     OW88274   9.600  10.162   4.470 -0.4709  0.3613 -0.3997
28756SOL    HW188275   9.676  10.221   4.474 -0.6519  0.5755 -0.0247
28756SOL    HW288276   9.627  10.092   4.411  0.3611 -0.0524  0.4459
28757SOL     OW88277  10.408   9.285   7.730 -0.2178 -0.3259 -0.7968
28757SOL    HW188278  10.494   9.244   7.738 -0.1927  0.1037  2.3381
28757SOL    HW288279  10.347   9.212   7.722  0.2412 -0.7744 -0.2685
28758SOL     OW88280   1.458  10.740   0.095  0.2254 -0.0164 -0.3199
28758SOL    HW188281   1.536  10.719   0.147  0.4870  0.1455 -0.6426
28758SOL    HW288282   1.439  10.831   0.117 -0.8861 -0.5403  1.0498
28759SOL     OW88283   1.474   0.136   7.954 -1.0119 -0.0173  0.5813
28759SOL    HW188284   1.456   0.175   7.869 -0.8305  0.9178  0.9632
28759SOL    HW288285   1.568   0.151   7.967 -0.1663 -3.2983 -0.6185
28760SOL     OW88286   9.889   4.821  10.157 -0.3920 -0.3014 -0.2134
28760SOL    HW188287   9.810   4.775  10.184  0.1712 -0.8012  0.6455
28760SOL    HW288288   9.868   4.859  10.072 -2.0294  0.7644  0.6102
28761SOL     OW88289   3.685   8.328   6.792  1.0744 -0.7632 -0.4064
28761SOL    HW188290   3.620   8.304   6.858  0.8058 -1.1037 -0.7899
28761SOL    HW288291   3.649   8.294   6.709 -0.4184  2.7675 -1.4010
28762SOL     OW88292   5.062   2.424   2.620 -0.3612 -0.3255 -0.3119
28762SOL    HW188293   5.129   2.391   2.679  0.6093 -0.2335 -1.3129
28762SOL    HW288294   5.099   2.505   2.585 -2.3180  1.4341  1.4222
28763SOL     OW88295   4.597   9.947   9.680 -0.0460 -0.2012 -0.4441
28763SOL    HW188296   4.506   9.919   9.685 -0.1365  0.3700  2.0994
28763SOL    HW288297   4.647   9.866   9.690 -0.0860 -1.0432 -4.9681
28764SOL     OW88298   6.005   4.513   9.546 -0.1951 -0.0180  0.0665
28764SOL    HW188299   6.067   4.585   9.553 -0.1836  0.0310 -0.4664
28764SOL    HW288300   6.055   4.441   9.509 -0.5082  0.1039 -0.6158
28765SOL     OW88301   0.563   3.373   4.076  0.7538  0.3547 -0.0905
28765SOL    HW188302   0.469   3.382   4.094  1.0929  2.1288  0.9343
28765SOL    HW288303   0.567   3.308   4.005 -1.1328 -0.9119  0.8699
28766SOL     OW88304   5.942   3.837   7.559 -0.6117  0.2551  0.2967
28766SOL    HW188305   5.966   3.745   7.568 -2.5469 -0.3719 -0.3550
28766SOL    HW288306   5.937   3.870   7.648 -1.0371 -0.6160  0.6071
28767SOL     OW88307   2.992   7.448   5.302 -0.2659  0.0139 -0.5955
28767SOL    HW188308   3.083   7.461   5.330 -0.2866  0.5202 -0.7554
28767SOL    HW288309   2.995   7.458   5.207 -1.0161  3.4762 -0.3945
28768SOL     OW88310   2.721  11.277   9.834 -0.4138  0.4630 -0.5603
28768SOL    HW188311   2.717  11.331   9.755  1.1422  0.1149 -0.8963
28768SOL    HW288312   2.810  11.244   9.837 -1.2086 -1.8525 -0.1819
28769SOL     OW88313   4.471   2.813   5.315 -0.2057  0.3592 -0.4340
28769SOL    HW188314   4.402   2.879   5.325  0.0283  1.0464 -2.7170
28769SOL    HW288315   4.424   2.730   5.306 -0.5154  0.1750  2.1386
28770SOL     OW88316   9.729   2.617   4.639 -0.0025  0.0623  0.9076
28770SOL    HW188317   9.733   2.525   4.665  1.5656 -0.3618 -0.6707
28770SOL    HW288318   9.799   2.658   4.689 -0.3614  0.3068  1.2139
28771SOL     OW88319   2.602   4.326   8.019  0.0879 -0.2448 -0.1803
28771SOL    HW188320   2.560   4.388   8.079  1.6120  1.5606 -0.9047
28771SOL    HW288321   2.667   4.378   7.972  2.5833 -2.7147  0.3023
28772SOL     OW88322   9.149   9.261   0.500 -0.0723  0.2659  0.0772
28772SOL    HW188323   9.096   9.340   0.489 -0.6334  0.0437  1.0607
28772SOL    HW288324   9.239   9.293   0.508 -0.2380  0.7650 -0.0439
28773SOL     OW88325   4.560   6.115   7.550  0.0158  0.0637  0.0974
28773SOL    HW188326   4.602   6.097   7.466  0.6945 -2.3981  0.8730
28773SOL    HW288327   4.474   6.073   7.543 -1.3396  2.7087 -0.4810
28774SOL     OW88328   5.938   1.173   3.858  0.4632 -0.1243 -0.2127
28774SOL    HW188329   5.967   1.207   3.943 -0.3270 -0.3309  0.1486
28774SOL    HW288330   5.843   1.171   3.864  0.4593 -1.6995 -0.5024
28775SOL     OW88331   3.940   3.555  10.725  0.4928 -0.7627 -0.3814
28775SOL    HW188332   3.960   3.576  10.634 -1.3134 -1.1203 -0.9074
28775SOL    HW288333   3.965   3.634  10.774  1.9303 -0.7471 -1.0982
28776SOL     OW88334   0.633   9.697   1.952 -0.3919  0.8361 -0.0719
28776SOL    HW188335   0.722   9.708   1.918 -0.3735  0.1809 -0.2493
28776SOL    HW288336   0.588   9.645   1.886  0.1455 -2.0364  1.6241
28777SOL     OW88337   3.444   7.706   0.744  0.7906 -0.1994 -0.7050
28777SOL    HW188338   3.382   7.642   0.779 -1.0573  2.2661  0.9648
28777SOL    HW288339   3.519   7.702   0.803  1.5719 -2.0680 -1.7570
28778SOL     OW88340   7.835   4.324   3.827 -0.0880 -0.0535  0.3091
28778SOL    HW188341   7.779   4.256   3.863 -0.1722 -0.1323  0.0324
28778SOL    HW288342   7.881   4.361   3.903  1.4150 -1.7039  0.2694
28779SOL     OW88343  10.337   0.761   2.866 -0.3432 -0.1116  0.2685
28779SOL    HW188344  10.322   0.850   2.834 -1.2585 -0.3421  0.0192
28779SOL    HW288345  10.254   0.716   2.849  0.5784 -1.4197 -0.9352
28780SOL     OW88346   4.090   5.437   0.436 -0.0336 -0.4825  0.2458
28780SOL    HW188347   4.094   5.530   0.456 -2.4789  0.0114 -1.1271
28780SOL    HW288348   4.158   5.423   0.370  0.6621  0.2065  0.8072
28781SOL     OW88349   7.352   3.256   8.125  0.0259  0.5270  0.2178
28781SOL    HW188350   7.285   3.323   8.111 -0.3102  0.3780  1.0498
28781SOL    HW288351   7.333   3.221   8.212  1.2505  0.5629  0.5248
28782SOL     OW88352   9.200  10.628   6.104  0.0531  0.1181  0.0049
28782SOL    HW188353   9.210  10.649   6.011 -0.1105 -1.1327 -0.3286
28782SOL    HW288354   9.105  10.625   6.117 -0.0222 -2.4380 -0.5283
28783SOL     OW88355   8.618   9.460   3.217 -0.2405 -0.9096  0.6587
28783SOL    HW188356   8.573   9.539   3.186  0.4779  0.2832  2.4572
28783SOL    HW288357   8.703   9.462   3.173 -0.0373 -0.3919  1.0599
28784SOL     OW88358   6.032   4.790   9.355 -0.1435  0.2079  0.1263
28784SOL    HW188359   5.948   4.783   9.309  0.4918 -0.8787 -0.9426
28784SOL    HW288360   6.011   4.771   9.447 -0.9239 -1.0828 -0.2930
28785SOL     OW88361   1.127   3.133   4.394  0.0693  0.5074  0.2730
28785SOL    HW188362   1.157   3.164   4.308  2.0773  2.0713  1.4547
28785SOL    HW288363   1.084   3.050   4.375 -0.8872  1.4889 -2.4240
28786SOL     OW88364  10.381  10.601   1.884 -0.2888 -0.7534 -0.9127
28786SOL    HW188365  10.403  10.604   1.791 -1.5243  0.0755 -1.1972
28786SOL    HW288366  10.295  10.642   1.890 -0.2798 -0.8925  0.5893
28787SOL     OW88367   8.374   1.184   1.485 -0.3127  0.4546 -0.0803
28787SOL    HW188368   8.359   1.138   1.403  0.8439  0.6373 -0.4136
28787SOL    HW288369   8.352   1.120   1.553  2.4192 -1.1165 -0.5128
28788SOL     OW88370   9.890   5.932   5.881  0.0061  0.4047 -0.4569
28788SOL    HW188371   9.795   5.940   5.886 -0.0787 -1.2443  1.4670
28788SOL    HW288372   9.922   5.994   5.946  0.2761  0.8108 -0.9634
28789SOL     OW88373   8.961   9.660   4.858 -0.4614 -0.4838 -0.1824
28789SOL    HW188374   8.910   9.708   4.924 -0.0951 -0.7609  0.3118
28789SOL    HW288375   8.966   9.720   4.784  1.7787  1.1626  1.1804
28790SOL     OW88376  10.083   2.334   9.632 -0.2589 -0.4830  1.2542
28790SOL    HW188377  10.106   2.366   9.719 -0.2531 -0.4154  1.2270
28790SOL    HW288378  10.087   2.411   9.576  0.8371 -0.7275  0.9739
28791SOL     OW88379   9.493   2.153   3.792 -0.3862  0.2718  0.7983
28791SOL    HW188380   9.511   2.067   3.831 -0.4940  0.8829  2.2275
28791SOL    HW288381   9.579   2.195   3.788 -0.1889 -0.1949 -0.7151
28792SOL     OW88382   8.473   8.298   1.492 -0.4159  0.3892  0.1575
28792SOL    HW188383   8.531   8.254   1.554 -2.2669 -0.8008  1.1431
28792SOL    HW288384   8.422   8.359   1.546 -0.4732  1.0183 -0.5853
28793SOL     OW88385   8.642   5.556   4.885 -0.5377  0.1438 -0.1922
28793SOL    HW188386   8.650   5.555   4.790  0.5354  1.2062 -0.1359
28793SOL    HW288387   8.592   5.635   4.905  2.1505  1.8607  0.2453
28794SOL     OW88388   8.717   1.166   5.118  0.4427 -0.2996 -0.4015
28794SOL    HW188389   8.713   1.071   5.112  1.2405 -0.2948 -1.2846
28794SOL    HW288390   8.781   1.183   5.186 -0.2081 -0.3796  0.2473
28795SOL     OW88391  10.525   4.463   3.564 -0.7468 -0.1851 -0.2708
28795SOL    HW188392  10.594   4.437   3.502 -0.6230  1.4816 -0.8804
28795SOL    HW288393  10.573   4.491   3.642 -0.6674  1.1329 -0.7538
28796SOL     OW88394  10.751   0.734   4.320 -0.2973 -0.0755 -0.3574
28796SOL    HW188395  10.839   0.723   4.356  0.1561  3.8837  0.1219
28796SOL    HW288396  10.766   0.760   4.229 -1.0898 -0.8837 -0.7378
28797SOL     OW88397  10.386   5.385   9.623 -0.4892 -0.3682  0.3175
28797SOL    HW188398  10.310   5.442   9.612 -1.9218 -1.7725  2.2035
28797SOL    HW288399  10.461   5.444   9.626 -1.7457  1.2702  0.6538
28798SOL     OW88400   9.330   8.527   8.861  0.1029  0.4039 -0.2367
28798SOL    HW188401   9.360   8.557   8.947 -1.1738  2.5669 -0.4691
28798SOL    HW288402   9.285   8.603   8.823 -0.7303 -0.9652 -2.1771
28799SOL     OW88403  10.821   5.767   3.530  0.0714 -0.3514 -0.1273
28799SOL    HW188404  10.871   5.706   3.585  0.1906 -1.5165 -1.4752
28799SOL    HW288405  10.887   5.829   3.498 -0.0923  0.7150  1.4521
28800SOL     OW88406   5.774   0.186   1.718 -0.0320  0.2880  0.5560
28800SOL    HW188407   5.692   0.210   1.762  0.3243  3.5869 -0.3518
28800SOL    HW288408   5.749   0.170   1.627  0.1692 -0.0237  0.5521
28801SOL     OW88409   0.302   5.283   5.236  0.0788  0.3135  0.6662
28801SOL    HW188410   0.216   5.242   5.231 -0.5287  1.3981  1.6890
28801SOL    HW288411   0.361   5.213   5.265 -0.8675  0.0314  2.0246
28802SOL     OW88412   6.767   1.720   5.789 -0.1941  0.2708 -0.4298
28802SOL    HW188413   6.749   1.808   5.822  1.4486  0.1097  1.0428
28802SOL    HW288414   6.709   1.663   5.840 -1.0528  0.4500 -1.1845
28803SOL     OW88415   0.808   4.826   3.361  0.1899 -0.4544  0.5274
28803SOL    HW188416   0.856   4.908   3.374  1.4296 -0.9856 -0.4717
28803SOL    HW288417   0.741   4.847   3.296 -0.4541  0.0944  1.3397
28804SOL     OW88418   2.890   4.690   1.284  0.1255  0.2175  0.5012
28804SOL    HW188419   2.925   4.772   1.249  1.9127 -0.7905 -0.2578
28804SOL    HW288420   2.920   4.689   1.375  0.0072  0.4437  0.5448
28805SOL     OW88421   7.246   1.439   7.075 -0.1354  0.2737 -0.2720
28805SOL    HW188422   7.297   1.381   7.019  0.0454  0.4271 -0.2690
28805SOL    HW288423   7.160   1.399   7.079  0.0561 -0.1283 -0.0685
28806SOL     OW88424   6.826  11.133   6.858  0.5610  0.5192 -1.1003
28806SOL    HW188425   6.816  11.155   6.951  1.4309  0.9436 -1.0991
28806SOL    HW288426   6.890  11.062   6.857  0.8259  0.7619 -1.4047
28807SOL     OW88427   1.326   8.828   3.221  0.5994 -0.4490 -0.1110
28807SOL    HW188428   1.390   8.827   3.293  1.0991  0.0846 -0.5343
28807SOL    HW288429   1.277   8.746   3.230 -0.4755  0.3353  1.8432
28808SOL     OW88430   1.802  10.660   5.115 -0.1571 -0.0982 -0.0948
28808SOL    HW188431   1.711  10.688   5.117 -0.3478 -0.2433 -2.7255
28808SOL    HW288432   1.852  10.739   5.136 -0.8159  1.3374 -3.3066
28809SOL     OW88433   9.153   6.213   8.212  0.6630  0.0111 -0.8099
28809SOL    HW188434   9.109   6.283   8.165 -2.5625 -2.4088 -1.7139
28809SOL    HW288435   9.199   6.163   8.144 -0.5395 -1.0870 -0.8533
28810SOL     OW88436   9.270   2.397   0.857 -0.2392 -0.2851 -0.8371
28810SOL    HW188437   9.251   2.306   0.834 -1.9020  0.4844 -2.8433
28810SOL    HW288438   9.188   2.429   0.897  0.1480  0.4795 -0.6323
28811SOL     OW88439   6.479   7.234   9.406  0.2759  0.2478 -0.2088
28811SOL    HW188440   6.455   7.161   9.463 -0.6773 -0.4540 -1.4435
28811SOL    HW288441   6.570   7.253   9.427 -0.6042  1.4559  3.0416
28812SOL     OW88442   5.435   7.724   8.142 -0.0732 -0.1326 -0.2676
28812SOL    HW188443   5.457   7.755   8.230 -1.7059 -0.7775  0.3990
28812SOL    HW288444   5.341   7.705   8.146 -0.4765  1.0657 -2.5270
28813SOL     OW88445   0.565   1.103   5.173  0.3227 -0.9309 -0.0336
28813SOL    HW188446   0.607   1.179   5.132  0.9721 -1.5683 -0.5842
28813SOL    HW288447   0.490   1.139   5.220  1.7537  0.3173  1.4019
28814SOL     OW88448   9.949   3.958   3.075  0.0966  0.0659 -0.4555
28814SOL    HW188449  10.032   3.912   3.064  0.4582  0.4826  0.3748
28814SOL    HW288450   9.957   4.036   3.020  2.0608  2.3658  2.7583
28815SOL     OW88451   8.171   7.928   6.475 -0.3289 -0.0561 -0.3744
28815SOL    HW188452   8.124   7.904   6.395  0.3202 -1.2191 -0.4336
28815SOL    HW288453   8.251   7.971   6.445 -0.5313  0.3677 -0.3167
28816SOL     OW88454   6.358   2.289   9.627  0.0515 -0.4731  0.2239
28816SOL    HW188455   6.279   2.335   9.600  0.2168  0.1608  0.7895
28816SOL    HW288456   6.362   2.213   9.570  0.1949  0.6261 -1.3093
28817SOL     OW88457   6.930   9.734   7.883 -0.0141  0.3120  0.2808
28817SOL    HW188458   6.843   9.702   7.857  1.1228 -3.1023  0.1994
28817SOL    HW288459   6.949   9.686   7.964  1.9302  0.7177  0.0982
28818SOL     OW88460   5.199   1.326   6.755 -0.9606  0.1385  0.0628
28818SOL    HW188461   5.258   1.360   6.688 -0.2931  1.3747  1.2054
28818SOL    HW288462   5.111   1.344   6.722 -0.6471  3.1912  0.6220
28819SOL     OW88463   3.215   9.292   5.051 -0.3931  0.6170 -0.0176
28819SOL    HW188464   3.122   9.293   5.032 -0.2277 -1.3224 -1.1976
28819SOL    HW288465   3.258   9.303   4.966  0.5188  2.8726  0.6567
28820SOL     OW88466   4.798   1.578   1.945 -0.0054 -0.0386 -0.2713
28820SOL    HW188467   4.773   1.501   1.894  1.7134 -0.4340 -0.5820
28820SOL    HW288468   4.843   1.634   1.882 -0.4851  0.8386  0.1506
28821SOL     OW88469   6.716   1.390  10.914  0.1324  0.5944 -1.0410
28821SOL    HW188470   6.634   1.343  10.901  0.2081 -0.2210  1.0639
28821SOL    HW288471   6.783   1.322  10.917  0.3052  0.7828  1.5213
28822SOL     OW88472   3.630   0.264  11.192 -0.1789 -0.6584  0.5945
28822SOL    HW188473   3.602   0.305  11.110 -1.1681  1.3930  1.8992
28822SOL    HW288474   3.696   0.323  11.228 -0.5226 -0.9733  1.7933
28823SOL     OW88475   2.465   8.370   5.496  0.1393 -0.1115 -0.0805
28823SOL    HW188476   2.404   8.316   5.547 -0.4613  2.2107  1.8362
28823SOL    HW288477   2.458   8.335   5.407  0.2123 -3.4780  1.0854
28824SOL     OW88478   0.082   5.080   6.209  0.4541 -0.4478 -0.3713
28824SOL    HW188479  -0.003   5.053   6.244 -0.4448  0.8397 -1.4321
28824SOL    HW288480   0.060   5.138   6.136  2.2591 -0.1667 -0.7368
28825SOL     OW88481   6.209   5.246   8.971 -0.1159 -0.1153  0.4773
28825SOL    HW188482   6.234   5.338   8.983  0.0944  0.1014 -1.3249
28825SOL    HW288483   6.219   5.207   9.058  1.5884  1.1343  0.8997
28826SOL     OW88484   7.001  10.807  10.725  0.2511  0.3644  0.1463
28826SOL    HW188485   6.963  10.804  10.638 -0.4079  0.8735  0.4103
28826SOL    HW288486   7.053  10.887  10.726  0.5403  0.1778  0.1077
28827SOL     OW88487   1.277   9.746   1.550 -0.1593 -0.1413 -0.5252
28827SOL    HW188488   1.205   9.808   1.558  1.3525  1.5661  0.7493
28827SOL    HW288489   1.249   9.670   1.602 -0.2482  1.3364  1.7514
28828SOL     OW88490   6.084  10.014   0.519  0.2321  0.5914 -0.0643
28828SOL    HW188491   6.095   9.982   0.609  1.2549  0.0939 -0.3472
28828SOL    HW288492   6.010   9.964   0.485 -2.4741  3.1828  1.5373
28829SOL     OW88493   8.348   1.583   6.520  0.3666  0.5003 -0.8460
28829SOL    HW188494   8.416   1.562   6.455 -0.6726  1.1895 -2.2174
28829SOL    HW288495   8.396   1.621   6.594  1.3649  2.9143 -2.5970
28830SOL     OW88496   7.159   9.432   0.022 -0.8505  0.1503  0.3437
28830SOL    HW188497   7.155   9.361  -0.042 -0.2767  1.1182 -0.8134
28830SOL    HW288498   7.143   9.512  -0.029 -0.3653  0.9520  1.4001
28831SOL     OW88499   2.063   4.703   0.817 -0.6025  0.8852  0.1163
28831SOL    HW188500   2.058   4.630   0.755 -0.7562 -0.6584  1.8556
28831SOL    HW288501   2.024   4.669   0.898  1.4080  2.1044  1.7078
28832SOL     OW88502  10.835   5.663   5.244 -0.4182  0.8975 -0.1350
28832SOL    HW188503  10.818   5.574   5.216  0.2341  0.5736  0.4522
28832SOL    HW288504  10.919   5.685   5.203 -1.7469  2.2099 -2.4216
28833SOL     OW88505  10.190   1.919   1.827  0.1109 -0.1306 -0.1406
28833SOL    HW188506  10.134   1.895   1.753  0.0047 -0.6565  0.1074
28833SOL    HW288507  10.266   1.861   1.819  0.1033 -0.1823  0.1535
28834SOL     OW88508   8.423   9.091  10.097  0.1521 -1.0371  0.0105
28834SOL    HW188509   8.335   9.056  10.112  0.3188 -1.5264 -0.1431
28834SOL    HW288510   8.482   9.028  10.139  0.5133 -1.4878 -1.1282
28835SOL     OW88511   2.975   9.411   7.437  0.3145 -0.1662 -0.2373
28835SOL    HW188512   2.912   9.466   7.391  1.1073  2.2751  1.3951
28835SOL    HW288513   3.021   9.364   7.368  0.7223  2.5150 -1.9429
28836SOL     OW88514   4.525   2.210   8.571 -0.1835 -0.2107  0.4071
28836SOL    HW188515   4.431   2.208   8.551 -0.1389  1.1555 -0.1188
28836SOL    HW288516   4.550   2.301   8.553  1.4166 -0.7567 -0.2914
28837SOL     OW88517   2.808  11.089   7.526 -0.5988  0.0232 -0.5362
28837SOL    HW188518   2.834  11.126   7.611  2.6478 -0.3592 -1.2330
28837SOL    HW288519   2.725  11.045   7.543 -0.8041  1.2466  2.0601
28838SOL     OW88520   1.225   8.117   7.856  0.2564 -0.1996 -0.4157
28838SOL    HW188521   1.145   8.089   7.901  1.0005  1.7541  2.4113
28838SOL    HW288522   1.296   8.081   7.909  1.2232  0.9618 -0.8744
28839SOL     OW88523  10.592   4.411   0.503 -0.3322  0.1398  0.1172
28839SOL    HW188524  10.549   4.444   0.582 -1.8880  0.7319 -0.9434
28839SOL    HW288525  10.619   4.489   0.455 -2.4234 -0.0798 -1.5318
28840SOL     OW88526   9.060   4.273   2.417  0.4819  0.0670  0.1370
28840SOL    HW188527   9.044   4.316   2.501  0.7070 -0.9265  0.7068
28840SOL    HW288528   9.113   4.197   2.439 -0.4338 -0.8616 -0.7587
28841SOL     OW88529  11.020   4.918  10.354  0.6667  0.1527 -0.2187
28841SOL    HW188530  11.076   4.970  10.297 -0.0220 -0.0546 -1.1001
28841SOL    HW288531  10.942   4.901  10.302  0.2525 -0.5008  0.5974
28842SOL     OW88532   9.508   4.228   6.642  0.0518 -0.0650  0.1284
28842SOL    HW188533   9.578   4.185   6.691 -0.5361 -1.0386  0.1494
28842SOL    HW288534   9.512   4.320   6.669  0.1995 -0.4378  1.4550
28843SOL     OW88535   3.388   4.351   1.782  0.6127  0.0451 -0.3709
28843SOL    HW188536   3.480   4.330   1.801  0.8306  0.1081 -1.3002
28843SOL    HW288537   3.386   4.446   1.771  0.4273  0.0499 -0.3066
28844SOL     OW88538   2.692  10.960   5.924 -0.7810 -0.5816 -0.0478
28844SOL    HW188539   2.694  11.041   5.873 -1.6693 -0.2842  0.3710
28844SOL    HW288540   2.733  10.983   6.007  1.4373 -1.2804 -0.8702
28845SOL     OW88541  10.603   1.217   6.663 -1.0569 -0.1687 -0.2024
28845SOL    HW188542  10.587   1.169   6.582 -0.5513  0.8622 -0.9426
28845SOL    HW288543  10.533   1.282   6.667  0.3611  1.5080 -1.2132
28846SOL     OW88544   0.828   0.439   2.451 -0.3887 -0.5364 -0.5886
28846SOL    HW188545   0.743   0.463   2.415 -0.9226 -2.3993 -0.6299
28846SOL    HW288546   0.815   0.438   2.545  0.3685  1.9062 -0.3834
28847SOL     OW88547   2.949  10.965   6.079 -0.4662  0.0082 -0.5371
28847SOL    HW188548   3.043  10.950   6.066 -0.2007 -0.3192  1.4885
28847SOL    HW288549   2.909  10.879   6.068 -0.6790  0.2994 -2.2919
28848SOL     OW88550   5.517  10.262   2.817 -0.3132 -0.1212  0.1233
28848SOL    HW188551   5.567  10.219   2.747 -1.3125  0.2684 -0.8605
28848SOL    HW288552   5.526  10.355   2.798 -2.5353 -0.0527 -0.9341
28849SOL     OW88553   5.969   6.674   3.358 -0.0944  0.7351 -0.0256
28849SOL    HW188554   6.018   6.737   3.306  0.7638 -0.8391 -1.1964
28849SOL    HW288555   6.031   6.604   3.376 -1.3044 -0.2862  0.3062
28850SOL     OW88556   7.521   7.163   7.645  0.0113  0.6816  0.1779
28850SOL    HW188557   7.474   7.192   7.724 -1.7707 -0.6459 -0.3226
28850SOL    HW288558   7.574   7.088   7.675  0.5803  1.1737  0.4183
28851SOL     OW88559   9.296   7.717   9.361  0.1734  0.1900  0.2095
28851SOL    HW188560   9.392   7.724   9.361  0.3779 -1.9012  0.3709
28851SOL    HW288561   9.273   7.712   9.269  0.7667 -3.9458  0.0917
28852SOL     OW88562   7.570   3.652   4.748  0.2987  0.2550  0.3215
28852SOL    HW188563   7.520   3.706   4.687 -0.9642 -0.6962  0.4786
28852SOL    HW288564   7.657   3.691   4.748  0.3275  0.3215 -2.0266
28853SOL     OW88565   3.300   3.084   3.608  0.0087 -0.4951 -0.1398
28853SOL    HW188566   3.341   3.085   3.695  0.4756 -2.4046 -0.2872
28853SOL    HW288567   3.364   3.038   3.553 -0.1426  0.9601 -1.5907
28854SOL     OW88568   8.699  10.347   0.661 -0.2910  0.0383  0.2011
28854SOL    HW188569   8.695  10.276   0.596  1.7178 -1.1098  1.2483
28854SOL    HW288570   8.716  10.426   0.609  1.8302 -0.9314 -0.7030
28855SOL     OW88571   0.450   3.618   0.322  0.2075 -0.1841  0.2183
28855SOL    HW188572   0.514   3.679   0.286  0.8886 -1.1170 -0.1863
28855SOL    HW288573   0.479   3.601   0.411  0.3171 -0.3199  0.1572
28856SOL     OW88574   5.478   6.832   1.182  0.6493 -0.0100  0.0293
28856SOL    HW188575   5.527   6.756   1.213  0.5848  0.4707  1.3758
28856SOL    HW288576   5.462   6.814   1.090  1.6789 -1.0705  0.0331
28857SOL     OW88577   8.414   9.753   2.385  0.1755  0.7305 -0.5178
28857SOL    HW188578   8.479   9.802   2.335  0.4589  1.7857  0.8417
28857SOL    HW288579   8.394   9.678   2.330  4.0266 -0.7709 -0.1419
28858SOL     OW88580   0.526   9.589   9.232  0.2378 -0.0133  0.3479
28858SOL    HW188581   0.561   9.501   9.247  1.2976  0.5546  1.4369
28858SOL    HW288582   0.570   9.643   9.298 -0.0096  1.4292 -0.6325
28859SOL     OW88583   5.388   1.830  10.318 -0.0701 -0.0911  0.5849
28859SOL    HW188584   5.377   1.923  10.297 -1.4635 -0.2271  0.5887
28859SOL    HW288585   5.464   1.802  10.267  0.3314  1.0326  0.5412
28860SOL     OW88586   9.038   6.830   9.785  0.9235  0.3070 -0.0938
28860SOL    HW188587   9.032   6.911   9.735  0.1064 -0.6688 -1.6301
28860SOL    HW288588   9.064   6.858   9.873  0.4330  2.2416 -0.5261
28861SOL     OW88589   3.741   2.618   5.464 -0.2632 -0.1288  0.6028
28861SOL    HW188590   3.657   2.639   5.506 -2.0536  0.5571 -2.8667
28861SOL    HW288591   3.776   2.703   5.437  1.3733 -0.4540  1.5884
28862SOL     OW88592   5.907   0.676   9.675 -0.0534 -0.3348  0.1280
28862SOL    HW188593   5.872   0.705   9.759  0.4142 -1.7118  0.8281
28862SOL    HW288594   5.921   0.757   9.626 -1.0079  0.4478  1.0975
28863SOL     OW88595  10.172   4.291   4.502 -0.7104  0.5681  0.0570
28863SOL    HW188596  10.225   4.358   4.545 -0.5764  0.8176 -0.4812
28863SOL    HW288597  10.087   4.295   4.546  0.2807 -1.2255  2.3276
28864SOL     OW88598   7.199   1.340   1.368  0.1354 -0.1972  0.1670
28864SOL    HW188599   7.113   1.299   1.361 -0.4591  1.0960 -0.4325
28864SOL    HW288600   7.222   1.364   1.278  0.3722  0.9190  0.5003
28865SOL     OW88601   8.093   5.808   0.915  1.0749 -0.5143  0.2102
28865SOL    HW188602   8.179   5.770   0.931  1.6010  0.5536 -0.0081
28865SOL    HW288603   8.068   5.776   0.829  1.3967 -0.5857  0.1437
28866SOL     OW88604   5.134   4.294   4.425 -0.3024  0.6478  0.4079
28866SOL    HW188605   5.076   4.368   4.443 -1.3874 -1.1289  6.2483
28866SOL    HW288606   5.218   4.320   4.463  0.0559 -0.1493  0.1726
28867SOL     OW88607   1.984   3.484   3.965  0.2923 -0.5594 -0.3988
28867SOL    HW188608   1.982   3.402   4.014  1.1126  0.3530  1.2393
28867SOL    HW288609   2.026   3.546   4.024  0.4035  0.8569 -1.9048
28868SOL     OW88610   6.374   5.126   4.642 -0.2688  0.2592  0.2460
28868SOL    HW188611   6.399   5.091   4.556  0.9455  1.1424  0.2111
28868SOL    HW288612   6.433   5.201   4.655  0.1846 -0.3937  2.2382
28869SOL     OW88613   7.549   1.034   3.526  0.0054 -0.0705  0.1637
28869SOL    HW188614   7.639   1.065   3.524  0.0854 -0.3447 -0.8706
28869SOL    HW288615   7.525   1.037   3.619  0.5433  1.4961  0.2861
28870SOL     OW88616   6.361   1.591   9.343 -0.0605  0.1480  0.2627
28870SOL    HW188617   6.392   1.505   9.370 -0.8972 -0.4291 -0.5371
28870SOL    HW288618   6.306   1.574   9.267 -0.2785  1.3907  0.1132
28871SOL     OW88619  10.499   2.474  10.170  0.0261  0.4270 -0.3920
28871SOL    HW188620  10.499   2.517  10.255  4.5813 -0.4044  0.3012
28871SOL    HW288621  10.481   2.544  10.107  1.9518  2.3298  1.0189
28872SOL     OW88622   4.112   0.565   1.393  0.6121  0.4594 -0.2224
28872SOL    HW188623   4.026   0.524   1.403 -0.1023  1.8920 -0.1847
28872SOL    HW288624   4.104   0.617   1.312  1.5517  0.3693 -0.3858
28873SOL     OW88625   2.774   2.370   8.850 -0.0988 -0.2161 -0.4979
28873SOL    HW188626   2.694   2.365   8.798 -2.1881  0.5702  2.3718
28873SOL    HW288627   2.749   2.335   8.936  2.7564 -0.2654  0.4313
28874SOL     OW88628  10.944   8.490   1.206 -0.2056 -0.5777 -0.0854
28874SOL    HW188629  10.852   8.504   1.183 -0.0845  1.1956  0.3536
28874SOL    HW288630  10.991   8.498   1.123 -0.5032 -2.6031 -0.5031
28875SOL     OW88631   4.790   2.487   7.986 -0.4424  0.3795  0.8138
28875SOL    HW188632   4.745   2.414   8.028  0.8361 -0.0130  1.5353
28875SOL    HW288633   4.765   2.480   7.893 -1.0733 -0.3939  1.0340
28876SOL     OW88634   0.491  11.074   2.776 -0.7634  0.2294  0.0858
28876SOL    HW188635   0.562  11.011   2.786  0.5335  1.2121 -2.2097
28876SOL    HW288636   0.525  11.155   2.813 -0.9023  0.5510 -0.4753
28877SOL     OW88637   2.771   0.554   2.630  0.3298 -0.4185  0.5935
28877SOL    HW188638   2.859   0.527   2.605 -0.3366 -1.3719 -0.8863
28877SOL    HW288639   2.763   0.529   2.722  0.9078 -2.3199  0.1762
28878SOL     OW88640   8.198   5.050  10.230  0.1569  0.5207 -0.6450
28878SOL    HW188641   8.165   4.961  10.221  1.4373 -0.0594  0.0117
28878SOL    HW288642   8.153   5.100  10.161 -3.5235  0.3083  1.3575
28879SOL     OW88643   4.592   5.744   9.692 -0.5017 -0.1833 -0.2652
28879SOL    HW188644   4.642   5.674   9.733 -1.1586 -0.1176  0.6809
28879SOL    HW288645   4.536   5.778   9.763 -0.7925  0.7309 -0.9182
28880SOL     OW88646   8.768   6.384   1.052  0.5981 -0.4144 -0.1886
28880SOL    HW188647   8.748   6.346   1.138  0.6640  0.0507  0.0356
28880SOL    HW288648   8.827   6.320   1.012  0.0407 -0.9619 -0.1642
28881SOL     OW88649  10.874   2.494  11.263  0.2002  0.5659 -0.0701
28881SOL    HW188650  10.937   2.565  11.275  0.1518  0.5473  0.3068
28881SOL    HW288651  10.796   2.536  11.228  1.1279  0.3031 -2.7031
28882SOL     OW88652   5.993   2.966  10.726 -0.1722  0.7257 -0.2383
28882SOL    HW188653   5.960   3.047  10.764 -2.3347 -0.7632  1.2924
28882SOL    HW288654   6.031   2.919  10.800  0.0590 -0.1424 -0.8902
28883SOL     OW88655   0.649   9.256   7.298 -0.0800  0.0292 -0.5261
28883SOL    HW188656   0.713   9.280   7.231 -2.5407 -0.4286 -3.2912
28883SOL    HW288657   0.627   9.338   7.341 -1.2093  1.1633 -3.0360
28884SOL     OW88658   6.664   4.515   1.861  0.3005  0.6134 -0.3159
28884SOL    HW188659   6.616   4.563   1.794 -0.0499 -0.2496 -0.6998
28884SOL    HW288660   6.601   4.451   1.895  1.1461 -0.5574 -0.8555
28885SOL     OW88661   5.241   3.484   5.340  0.5831 -0.2030 -0.5965
28885SOL    HW188662   5.188   3.560   5.314 -1.3912 -0.9080  1.0608
28885SOL    HW288663   5.294   3.516   5.413  0.1095 -0.2392 -0.2227
28886SOL     OW88664   4.544   1.081   9.657  0.3975 -0.0284 -0.7200
28886SOL    HW188665   4.452   1.106   9.662  0.4617 -0.0212  1.0325
28886SOL    HW288666   4.554   1.045   9.569 -1.0180  0.9233 -1.3147
28887SOL     OW88667   4.470   2.066   4.730 -0.2620  0.3265 -0.2281
28887SOL    HW188668   4.483   2.133   4.797  1.3356  0.0391 -0.1959
28887SOL    HW288669   4.528   1.994   4.757 -3.0891 -1.8058  0.6495
28888SOL     OW88670   7.799  11.060   1.924 -0.2110  0.1142  0.3492
28888SOL    HW188671   7.777  11.128   1.988  0.3162 -0.2010  0.8779
28888SOL    HW288672   7.737  11.073   1.853 -1.6920 -0.3590  1.5000
28889SOL     OW88673   2.065   2.818   6.998  0.2584 -0.8999 -0.0197
28889SOL    HW188674   2.065   2.801   7.092  2.3644  0.2871  0.2596
28889SOL    HW288675   2.158   2.824   6.975 -0.2256 -0.3094 -2.0104
28890SOL     OW88676   5.144   6.921   1.882 -0.5568 -0.3246  0.2440
28890SOL    HW188677   5.115   6.844   1.833  0.3855 -0.3011 -0.3681
28890SOL    HW288678   5.066   6.950   1.929 -1.1886 -1.0314 -0.3466
28891SOL     OW88679   8.061   5.857   2.824 -0.0660 -0.5016 -0.3434
28891SOL    HW188680   8.056   5.925   2.756  5.7320 -0.5807 -1.2785
28891SOL    HW288681   8.028   5.778   2.782  0.2251  0.1649 -1.8733
28892SOL     OW88682  10.313   4.830   3.416  0.1612  0.0452 -0.5806
28892SOL    HW188683  10.335   4.915   3.455  2.0427  0.5901 -2.6637
28892SOL    HW288684  10.221   4.838   3.390  0.5745  1.8326 -1.6174
28893SOL     OW88685   0.451  11.134   8.553 -0.3004 -0.0183  0.4459
28893SOL    HW188686   0.535  11.177   8.566  1.2947 -2.6586 -0.2583
28893SOL    HW288687   0.394  11.202   8.518  1.8426  1.6317 -0.0555
28894SOL     OW88688   6.107   9.974   6.556 -0.2322  0.0521 -0.4501
28894SOL    HW188689   6.133   9.899   6.502 -2.3399  1.2458 -3.4225
28894SOL    HW288690   6.168  10.043   6.531 -1.4417  0.7154 -1.7339
28895SOL     OW88691   6.048   0.407   2.786 -0.0184  0.1194 -0.0520
28895SOL    HW188692   6.017   0.370   2.703  1.1126  0.4341 -0.6490
28895SOL    HW288693   6.081   0.332   2.834  0.8221  0.1176 -0.5982
28896SOL     OW88694   8.895   6.515   9.366  0.6690 -0.0103  0.3624
28896SOL    HW188695   8.883   6.549   9.454  2.2834  0.8494  0.2883
28896SOL    HW288696   8.922   6.590   9.314 -0.5533 -0.4436 -0.9589
28897SOL     OW88697   2.730   8.441   2.208 -0.5844  0.1042  0.1346
28897SOL    HW188698   2.651   8.416   2.255 -0.4286  2.3299  1.7114
28897SOL    HW288699   2.797   8.382   2.242 -1.0281 -0.0422  0.7763
28898SOL     OW88700   2.282   6.491   8.622  0.0204  0.0870 -0.0868
28898SOL    HW188701   2.198   6.500   8.666  0.8536  3.7224  1.1343
28898SOL    HW288702   2.310   6.402   8.640 -1.7809  0.0087  2.8704
28899SOL     OW88703   1.648   2.375   8.904 -0.8491 -0.1739  0.7262
28899SOL    HW188704   1.658   2.442   8.971 -1.0507  0.2633  0.3184
28899SOL    HW288705   1.555   2.376   8.883 -0.8079 -0.4033  0.5296
28900SOL     OW88706   6.145   6.735   3.776 -0.2543 -0.0986 -0.4832
28900SOL    HW188707   6.234   6.751   3.806  0.4563 -4.3219  0.2786
28900SOL    HW288708   6.103   6.689   3.849 -3.2741  1.9899 -0.6826
28901SOL     OW88709   3.898   8.937   3.001 -0.7434  0.4353  0.5890
28901SOL    HW188710   3.870   8.854   2.962 -0.9735 -0.3892  2.4191
28901SOL    HW288711   3.853   9.004   2.949 -0.0524 -0.5213 -1.3221
28902SOL     OW88712   0.463   5.308   8.102 -0.6178  0.6253  0.0309
28902SOL    HW188713   0.371   5.281   8.098 -0.3575 -0.1866 -2.7682
28902SOL    HW288714   0.512   5.225   8.101  0.1743  1.0579  1.0148
28903SOL     OW88715   5.186   1.270   1.300 -0.4700 -0.4004 -1.0223
28903SOL    HW188716   5.212   1.237   1.386 -3.4883 -0.4896 -0.0316
28903SOL    HW288717   5.191   1.194   1.243  2.5299 -0.1287 -1.2802
28904SOL     OW88718   4.908   6.947   4.113  0.3780  0.1667  0.0737
28904SOL    HW188719   4.899   7.002   4.035 -0.5191  1.0730  0.7920
28904SOL    HW288720   4.949   7.004   4.178  0.1108 -0.2379  0.6020
28905SOL     OW88721   7.307   4.761   7.065  0.3797 -0.1094  1.0548
28905SOL    HW188722   7.373   4.702   7.102  1.3800 -0.3950 -1.0685
28905SOL    HW288723   7.255   4.789   7.141  1.7491 -1.3576  2.5231
28906SOL     OW88724   7.719   7.322  10.931 -0.1589 -0.4711  0.2410
28906SOL    HW188725   7.695   7.290  10.844 -0.7109 -0.1915  0.2858
28906SOL    HW288726   7.683   7.257  10.991 -0.3419 -0.3265  0.2872
28907SOL     OW88727   6.296   2.048   6.516 -0.6176 -0.1050 -0.5998
28907SOL    HW188728   6.388   2.066   6.499 -0.3183 -0.5094  0.4972
28907SOL    HW288729   6.264   2.010   6.434 -0.0674  0.9256 -1.3173
28908SOL     OW88730   4.688  11.215  10.461 -0.0719  0.1646  0.3857
28908SOL    HW188731   4.676  11.170  10.377  1.9540  0.9199 -0.3559
28908SOL    HW288732   4.662  11.151  10.527 -1.7900 -0.4234 -0.7710
28909SOL     OW88733   0.196   2.464   7.252 -0.4964  0.0211 -0.1241
28909SOL    HW188734   0.176   2.506   7.168  0.3996  0.7172 -0.0039
28909SOL    HW288735   0.288   2.437   7.243 -0.4759 -0.1385  0.5379
28910SOL     OW88736   6.623   1.421  10.575 -0.4402  0.1406  0.7164
28910SOL    HW188737   6.589   1.391  10.490 -0.5477  0.6243  0.5870
28910SOL    HW288738   6.554   1.398  10.637 -0.8752  0.8445  0.4989
28911SOL     OW88739   9.333  10.105   6.575  0.2589  0.2356  0.2662
28911SOL    HW188740   9.245  10.090   6.611 -0.3126  2.0245 -0.2576
28911SOL    HW288741   9.373  10.019   6.572 -0.4349 -0.2964  3.1559
28912SOL     OW88742   7.254   0.409   8.932  0.4920  0.0017 -0.0312
28912SOL    HW188743   7.175   0.365   8.963  0.6411  0.1571  0.5718
28912SOL    HW288744   7.238   0.424   8.839 -1.3732  2.5282  0.5901
28913SOL     OW88745   8.370   6.261   8.612 -1.0577 -0.4248 -0.8671
28913SOL    HW188746   8.417   6.180   8.632 -2.0538 -0.6641  0.6289
28913SOL    HW288747   8.391   6.320   8.684  0.1409  0.9244 -2.2416
28914SOL     OW88748   6.074   0.574   7.712 -0.0901 -0.1957 -0.5761
28914SOL    HW188749   5.982   0.551   7.702 -0.5174  0.4847  1.4197
28914SOL    HW288750   6.074   0.668   7.728  0.9483 -0.2000 -0.4688
28915SOL     OW88751   0.400   5.960   9.337 -0.4282  0.0234 -0.1438
28915SOL    HW188752   0.395   6.054   9.320  0.6791 -0.1986 -2.0650
28915SOL    HW288753   0.355   5.920   9.263  0.1196 -0.9786  0.0452
28916SOL     OW88754   3.030   5.589  11.214  0.2833 -0.1142  0.6408
28916SOL    HW188755   2.967   5.582  11.286  0.6043  0.7365  1.0176
28916SOL    HW288756   3.103   5.533  11.241  0.7430  0.8032  1.3622
28917SOL     OW88757   7.306   3.638  10.236  0.6031 -0.5730  0.0735
28917SOL    HW188758   7.326   3.679  10.152 -2.2027  1.9382  0.4772
28917SOL    HW288759   7.390   3.638  10.283  1.8429 -0.4166 -1.9893
28918SOL     OW88760  10.364   0.240   6.528 -0.2913  0.2630  0.2132
28918SOL    HW188761  10.431   0.262   6.592  1.0302  0.8039 -1.2940
28918SOL    HW288762  10.308   0.176   6.573  1.3912 -0.4368  1.4276
28919SOL     OW88763   0.166   9.459   8.746 -0.1751  0.1952 -0.1158
28919SOL    HW188764   0.138   9.435   8.835  1.4609 -1.7546 -0.0652
28919SOL    HW288765   0.237   9.522   8.759 -0.1857  0.1941 -0.0513
28920SOL     OW88766   1.344   8.714   7.091 -0.0078  0.1193  0.0622
28920SOL    HW188767   1.313   8.642   7.038 -0.5803  0.7495 -0.4767
28920SOL    HW288768   1.284   8.718   7.165  1.6195 -1.6676  1.5802
28921SOL     OW88769   1.650   2.245   5.574 -0.2811  0.2623  0.6248
28921SOL    HW188770   1.696   2.252   5.491 -1.3425 -2.0329 -0.2432
28921SOL    HW288771   1.683   2.318   5.626  2.2558  0.3216 -0.9010
28922SOL     OW88772   4.091  10.296   9.166 -0.1305  0.1043  0.2317
28922SOL    HW188773   4.163  10.326   9.111 -0.0393 -0.6184 -0.0462
28922SOL    HW288774   4.025  10.265   9.104 -0.9724  1.3555  0.4479
28923SOL     OW88775   6.983   8.904   1.255 -0.3428 -0.0823  0.1014
28923SOL    HW188776   6.957   8.875   1.167 -1.0414 -0.9055  0.5630
28923SOL    HW288777   7.068   8.862   1.270 -0.1293  0.2175 -0.2509
28924SOL     OW88778  10.590   9.722   4.351  0.5360 -0.0749 -0.4915
28924SOL    HW188779  10.510   9.713   4.402  0.5859  1.1881 -0.1527
28924SOL    HW288780  10.575   9.801   4.297  1.4430  0.0291 -0.6073
28925SOL     OW88781   8.799   3.784   9.287  0.1482  0.2852  0.3730
28925SOL    HW188782   8.706   3.767   9.276  0.5930 -1.5507 -0.9100
28925SOL    HW288783   8.806   3.880   9.289 -1.6904  0.4595  0.0132
28926SOL     OW88784   4.138   7.417   3.437  0.1347  0.2779  0.2161
28926SOL    HW188785   4.171   7.504   3.417  2.7399 -0.3474  1.4815
28926SOL    HW288786   4.109   7.422   3.528 -1.1375  0.1629 -0.1534
28927SOL     OW88787   3.639   4.086   1.570 -0.3516  0.1737 -0.2995
28927SOL    HW188788   3.717   4.128   1.605  1.5586 -3.3386  0.0981
28927SOL    HW288789   3.577   4.083   1.643  1.0263 -1.1771  0.8585
28928SOL     OW88790   1.107   4.794   2.662 -0.4972  0.3610  0.8082
28928SOL    HW188791   1.179   4.773   2.602 -1.0192  1.9071 -0.4511
28928SOL    HW288792   1.041   4.727   2.646 -0.7506  0.9193 -0.6085
28929SOL     OW88793   4.693  10.883   1.069  0.3325  0.3134  0.0345
28929SOL    HW188794   4.664  10.973   1.053 -3.0019 -0.3975  1.2390
28929SOL    HW288795   4.636  10.829   1.014 -0.4565 -1.2000  2.1899
28930SOL     OW88796   9.161   8.941   1.528  0.7067 -0.0153  0.1618
28930SOL    HW188797   9.206   8.888   1.594  1.5302  2.0125  1.3264
28930SOL    HW288798   9.157   8.885   1.450  2.2208 -1.4880  1.0805
28931SOL     OW88799   0.296   5.770   7.711  0.0927  0.0449 -0.5678
28931SOL    HW188800   0.242   5.719   7.652  0.0442 -1.7823  0.9688
28931SOL    HW288801   0.355   5.819   7.654 -0.3145 -1.2186 -2.1316
28932SOL     OW88802   3.893   4.006   7.336  0.1108 -0.4217  0.3696
28932SOL    HW188803   3.827   4.057   7.289 -0.2145 -0.4167  0.8232
28932SOL    HW288804   3.853   3.919   7.346  0.6261 -0.7464 -0.3254
28933SOL     OW88805   9.600   8.040   5.553  0.1552  0.5447  0.8684
28933SOL    HW188806   9.558   7.981   5.489  2.2215 -1.0304  0.8731
28933SOL    HW288807   9.545   8.119   5.551 -2.1898 -0.9767  0.1572
28934SOL     OW88808   8.212   5.459  10.759 -0.6599  0.4100 -0.4988
28934SOL    HW188809   8.226   5.521  10.687 -0.9834 -0.7071 -1.5512
28934SOL    HW288810   8.300   5.434  10.787 -0.4898 -1.1264 -2.2739
28935SOL     OW88811   1.255   8.689   5.317  0.0897 -0.1795  0.3048
28935SOL    HW188812   1.224   8.754   5.253 -0.0641  0.9324  1.4580
28935SOL    HW288813   1.339   8.658   5.281  0.4806  1.1382  0.0132
28936SOL     OW88814   6.111   1.530   2.887 -0.0549 -0.2516  0.3301
28936SOL    HW188815   6.161   1.485   2.955 -3.3176 -1.1980  2.3082
28936SOL    HW288816   6.150   1.617   2.883  1.7784 -0.9406  1.6755
28937SOL     OW88817   9.242   9.976   9.787  0.3196 -0.0767 -0.1241
28937SOL    HW188818   9.224  10.046   9.850 -0.5222  0.6142 -1.0961
28937SOL    HW288819   9.337   9.974   9.781  0.4759 -0.8635  1.9242
28938SOL     OW88820   6.351  11.160   5.813  0.2471  0.4800 -0.2394
28938SOL    HW188821   6.433  11.123   5.781  1.3091  0.8779  1.9054
28938SOL    HW288822   6.284  11.103   5.775  1.6225 -1.1587 -0.3329
28939SOL     OW88823   1.951   6.128  10.105 -0.2819  0.4558  0.4224
28939SOL    HW188824   1.970   6.076  10.182 -0.9229 -0.6525 -0.1336
28939SOL    HW288825   2.017   6.197  10.104 -0.3360  0.5515  2.0021
28940SOL     OW88826   3.365  11.148   6.276  0.4976 -0.0121 -0.0074
28940SOL    HW188827   3.441  11.190   6.237  0.5318  0.1292  0.2083
28940SOL    HW288828   3.395  11.118   6.362  0.4370 -0.3642 -0.1084
28941SOL     OW88829   2.753   8.717   7.241 -0.0223  0.4637  0.0370
28941SOL    HW188830   2.812   8.793   7.244  0.3094  0.2646 -0.8894
28941SOL    HW288831   2.695   8.729   7.316  0.3227  1.3897  0.1794
28942SOL     OW88832   2.233   7.943   6.082  0.5373 -0.4876 -0.4261
28942SOL    HW188833   2.235   8.012   6.149  1.5478 -0.6494 -0.2723
28942SOL    HW288834   2.274   7.867   6.124  2.3985 -0.2094 -1.6180
28943SOL     OW88835   2.907   9.651  10.705  0.5053 -0.3877 -0.0870
28943SOL    HW188836   2.966   9.595  10.654 -0.1927 -0.3663 -0.9325
28943SOL    HW288837   2.819   9.621  10.681  0.1605 -0.9561  1.7612
28944SOL     OW88838   9.406   9.223  10.322  0.0149 -0.0957  0.3018
28944SOL    HW188839   9.314   9.247  10.310 -0.4604 -1.0682  1.7514
28944SOL    HW288840   9.455   9.293  10.279 -1.4025 -0.6059 -2.3237
28945SOL     OW88841   1.934   4.090   1.838 -0.4159  0.0306 -0.3045
28945SOL    HW188842   1.998   4.096   1.909 -0.7265  2.3376 -0.1329
28945SOL    HW288843   1.934   3.998   1.814  1.9473 -0.2964  0.6189
28946SOL     OW88844   0.117   7.322   3.488  0.0037  0.0930  0.3118
28946SOL    HW188845   0.159   7.239   3.466  0.0668 -0.0154  0.8353
28946SOL    HW288846   0.153   7.346   3.573  1.5845  1.7283 -0.7648
28947SOL     OW88847   4.550   6.132   8.224 -0.2441 -0.5197 -0.5023
28947SOL    HW188848   4.488   6.075   8.179  0.6317 -1.5986 -0.3674
28947SOL    HW288849   4.559   6.094   8.311  1.2436 -0.9069 -0.7878
28948SOL     OW88850   7.327  10.133   0.755 -0.1001 -0.2396  0.1225
28948SOL    HW188851   7.236  10.106   0.763 -0.1675 -0.0631 -0.0257
28948SOL    HW288852   7.375  10.052   0.738 -0.6237 -0.0351 -2.9497
28949SOL     OW88853   6.547   7.584   9.583  0.0807  0.4256 -0.6773
28949SOL    HW188854   6.551   7.680   9.577  1.2369  0.3809 -0.7746
28949SOL    HW288855   6.498   7.568   9.664  0.5333  1.1037 -0.2529
28950SOL     OW88856   2.379   0.950   7.941 -0.0025 -0.4123 -0.5050
28950SOL    HW188857   2.395   1.015   8.009 -1.7686 -0.0829 -0.3520
28950SOL    HW288858   2.393   0.997   7.859 -3.2867  0.9097 -0.4785
28951SOL     OW88859   7.966  10.938   9.172  0.2894  0.2394  0.1311
28951SOL    HW188860   7.968  10.915   9.079 -0.1638  2.1544 -0.4055
28951SOL    HW288861   7.878  10.914   9.201 -0.6746  2.4671 -0.7830
28952SOL     OW88862   3.914   8.196   4.740  0.8524 -0.3958 -0.1919
28952SOL    HW188863   3.953   8.194   4.652 -0.3174 -1.0640 -0.7153
28952SOL    HW288864   3.820   8.188   4.725  0.7345 -2.4123  1.1713
28953SOL     OW88865   3.018   6.798   6.795 -0.3854 -0.1315 -0.1287
28953SOL    HW188866   3.108   6.827   6.807 -0.8087  0.9590  0.5872
28953SOL    HW288867   2.967   6.853   6.853 -1.4501 -1.2003  0.0024
28954SOL     OW88868   2.944   3.383   6.436 -0.8572 -0.2050 -0.0243
28954SOL    HW188869   2.967   3.312   6.376 -0.6036  1.1658 -1.5904
28954SOL    HW288870   2.908   3.452   6.380 -0.2743  1.2649  1.3374
28955SOL     OW88871  11.036   1.053   4.526  0.0538 -0.2805 -0.4736
28955SOL    HW188872  11.110   1.026   4.470  1.7030 -1.1882  1.9702
28955SOL    HW288873  11.062   1.026   4.614 -1.4446  2.9211  1.1249
28956SOL     OW88874  10.539   6.934   0.932 -0.9128 -0.3228  0.5351
28956SOL    HW188875  10.630   6.904   0.930 -1.0943 -0.8283 -0.9199
28956SOL    HW288876  10.546   7.029   0.938 -0.2193 -0.1676 -1.7382
28957SOL     OW88877   8.312   5.978   6.800  0.3187 -0.0357 -0.5178
28957SOL    HW188878   8.337   6.068   6.822 -0.7922  0.1728 -0.0182
28957SOL    HW288879   8.356   5.961   6.717  1.5524  0.5168 -0.0143
28958SOL     OW88880   6.786   8.417   4.909 -0.5563 -0.6341 -0.3435
28958SOL    HW188881   6.763   8.508   4.925  0.1671 -0.5055 -0.0354
28958SOL    HW288882   6.837   8.391   4.985  0.7008 -0.7906 -1.2206
28959SOL     OW88883   0.848   6.369   2.859 -0.3003  0.1784  0.2482
28959SOL    HW188884   0.871   6.317   2.781  0.7002  0.9751 -0.0055
28959SOL    HW288885   0.755   6.352   2.872 -0.0343 -1.6226  0.1289
28960SOL     OW88886   1.773  10.197   5.926 -0.1719  0.0358 -0.3146
28960SOL    HW188887   1.694  10.177   5.978 -1.0297 -2.3818 -2.3809
28960SOL    HW288888   1.843  10.148   5.969 -0.7381 -1.4064 -0.9865
28961SOL     OW88889   8.680   1.636   5.458  0.3248 -0.1687  0.1744
28961SOL    HW188890   8.678   1.678   5.372  0.1717 -0.2172  0.1545
28961SOL    HW288891   8.602   1.669   5.503  1.3557  1.3035  0.9744
28962SOL     OW88892   2.536  10.464   0.058  0.2717  0.6231 -0.0156
28962SOL    HW188893   2.543  10.376   0.023  0.1273  0.9682 -0.9250
28962SOL    HW288894   2.535  10.452   0.153  2.7408 -0.1753 -0.0367
28963SOL     OW88895   4.749  11.154   7.619 -0.4318  0.1633 -0.4824
28963SOL    HW188896   4.690  11.213   7.667 -0.6381 -0.8298  0.5166
28963SOL    HW288897   4.787  11.209   7.551 -1.4123  1.1931 -0.2299
28964SOL     OW88898   2.952  10.246   5.327  0.0554  0.1114 -0.5067
28964SOL    HW188899   2.911  10.314   5.380  0.6069  0.3437 -0.3656
28964SOL    HW288900   3.031  10.223   5.376  1.6493  1.7160 -2.1527
28965SOL     OW88901   4.754   8.404   4.094 -0.2083 -0.0549 -0.1178
28965SOL    HW188902   4.770   8.321   4.049  0.2433 -0.0563  0.0422
28965SOL    HW288903   4.787   8.390   4.183  0.3217  0.4540 -0.2291
28966SOL     OW88904   9.779   0.043   1.640 -0.3582 -0.4512  0.2464
28966SOL    HW188905   9.819   0.125   1.670 -1.5301 -0.2676  1.4196
28966SOL    HW288906   9.726   0.069   1.564  1.7395 -0.7197 -1.4040
28967SOL     OW88907   9.271   3.856   3.253 -0.0396  0.2556  0.0832
28967SOL    HW188908   9.315   3.896   3.179 -0.9045  0.8683 -0.1215
28967SOL    HW288909   9.213   3.925   3.286 -0.2143 -0.2526  0.8581
28968SOL     OW88910   2.375   8.763   1.836 -0.1247  0.4064  0.5007
28968SOL    HW188911   2.369   8.669   1.854  1.0192  0.4480  1.2390
28968SOL    HW288912   2.290   8.786   1.798  0.1314 -1.2254 -1.1746
28969SOL     OW88913   2.610  10.761   3.056 -0.3018  0.3146 -0.0843
28969SOL    HW188914   2.543  10.698   3.028  1.1881 -0.8484 -1.2222
28969SOL    HW288915   2.611  10.754   3.152 -2.4934  1.1592  0.0582
28970SOL     OW88916   0.391   7.788   0.251  0.2832 -0.0432  0.6188
28970SOL    HW188917   0.319   7.808   0.191  1.1288  0.5875 -0.2249
28970SOL    HW288918   0.355   7.724   0.312 -1.8298  2.1815  1.8827
28971SOL     OW88919  10.188   4.126   2.697  0.6697 -0.1031  0.9535
28971SOL    HW188920  10.170   4.040   2.733 -1.3902  0.0095  0.3580
28971SOL    HW288921  10.126   4.135   2.624 -0.0713  2.3320  1.7670
28972SOL     OW88922   3.065   3.792   3.992 -0.5590  0.2163 -0.3855
28972SOL    HW188923   3.024   3.715   4.030 -2.0714  0.6074 -1.1356
28972SOL    HW288924   2.994   3.836   3.945  0.8454  0.6403 -2.2293
28973SOL     OW88925   6.565   5.552   6.060 -0.4497  0.0357  0.0494
28973SOL    HW188926   6.600   5.635   6.091 -1.7526  1.7371 -2.6573
28973SOL    HW288927   6.625   5.525   5.991 -0.7753 -0.5652 -0.0047
28974SOL     OW88928   5.918   3.535   8.199 -0.1986 -0.1143  0.2541
28974SOL    HW188929   5.955   3.589   8.269  1.7426 -0.1407 -0.6646
28974SOL    HW288930   5.902   3.597   8.128  0.8074 -0.5261 -0.3486
28975SOL     OW88931   3.861   6.367   8.461 -0.0636 -0.5556  0.3803
28975SOL    HW188932   3.875   6.275   8.439  0.1391 -0.7353  1.2262
28975SOL    HW288933   3.889   6.415   8.383 -0.6581 -1.2279 -0.2717
28976SOL     OW88934   5.171   2.173   5.753 -0.0924 -0.2627  1.2892
28976SOL    HW188935   5.079   2.148   5.762 -0.9524  1.9991 -0.2390
28976SOL    HW288936   5.172   2.267   5.772  1.9767 -0.2963  1.5809
28977SOL     OW88937   1.166   9.800   2.515  0.2863  0.1028 -0.2360
28977SOL    HW188938   1.222   9.874   2.492  0.0358  0.9450  1.6955
28977SOL    HW288939   1.213   9.723   2.482  0.6907  1.0681 -2.0238
28978SOL     OW88940   2.433   3.336   8.477  0.2518 -0.8040  0.1622
28978SOL    HW188941   2.379   3.370   8.406  3.4130 -0.5516 -2.3579
28978SOL    HW288942   2.401   3.247   8.491 -2.7627  0.3093  1.0671
28979SOL     OW88943   2.384   6.505   2.560  0.0831 -0.3626 -0.2591
28979SOL    HW188944   2.397   6.558   2.639 -2.6112 -1.2076  0.8477
28979SOL    HW288945   2.358   6.569   2.492  0.6309  0.1542  0.0097
28980SOL     OW88946   7.699   8.375   9.363  0.0187  0.2681  0.0143
28980SOL    HW188947   7.627   8.350   9.420 -1.1390  1.2747 -0.9677
28980SOL    HW288948   7.771   8.317   9.389 -1.0508 -0.5878  1.1798
28981SOL     OW88949   9.168   6.338  10.074 -0.0226 -0.2442  0.4581
28981SOL    HW188950   9.162   6.405  10.006 -0.2651  0.4970  1.1960
28981SOL    HW288951   9.118   6.264  10.039  0.4462 -0.1375 -0.4655
28982SOL     OW88952   8.175   9.798   6.998  0.6073  0.2766  0.1187
28982SOL    HW188953   8.221   9.765   7.075  0.5044 -1.0729 -0.3741
28982SOL    HW288954   8.245   9.815   6.934  0.4890 -1.4499 -0.5107
28983SOL     OW88955   0.860   4.298   9.253 -0.5386  0.1971 -0.0404
28983SOL    HW188956   0.773   4.332   9.274 -0.6277  0.3810 -0.6874
28983SOL    HW288957   0.868   4.308   9.159 -1.3904 -3.4336 -0.6718
28984SOL     OW88958   8.817   2.816   9.185  0.0444  0.0619  0.1833
28984SOL    HW188959   8.911   2.827   9.174 -0.0777  1.2576  0.2515
28984SOL    HW288960   8.793   2.875   9.256 -1.0279  1.0969 -0.9877
28985SOL     OW88961   3.337   3.268   7.799 -0.4207  0.3028  0.4790
28985SOL    HW188962   3.330   3.175   7.823  0.1752  0.1801  0.1810
28985SOL    HW288963   3.340   3.268   7.704  1.1468  0.5115  0.5139
28986SOL     OW88964   4.184   2.091  10.957 -0.0949 -0.3266 -0.4695
28986SOL    HW188965   4.149   2.168  10.912  0.8324  0.6616  0.4498
28986SOL    HW288966   4.142   2.017  10.913  0.0131  0.6289 -2.2718
28987SOL     OW88967  11.143   0.237   3.039 -0.1354  0.4952 -1.0782
28987SOL    HW188968  11.226   0.188   3.045  0.1694  0.7020 -3.0534
28987SOL    HW288969  11.168   0.328   3.049 -0.5980  0.4213  1.6727
28988SOL     OW88970   3.045   2.968   1.588  0.0613  0.7124 -0.2660
28988SOL    HW188971   2.981   3.022   1.541 -0.3346  1.9419  1.5678
28988SOL    HW288972   3.084   2.912   1.521 -0.0210  2.7833 -2.1318
28989SOL     OW88973   3.045  10.507   6.371 -0.0911 -0.4807  0.0479
28989SOL    HW188974   3.109  10.448   6.411  0.1037 -1.2847 -1.3926
28989SOL    HW288975   3.098  10.573   6.326 -0.2523  2.2310  3.4380
28990SOL     OW88976   1.017   9.347   3.266 -0.1024 -0.1364 -0.8648
28990SOL    HW188977   0.945   9.409   3.280 -1.4910 -1.5963 -1.2295
28990SOL    HW288978   1.069   9.354   3.346 -0.2594  1.4333 -0.8671
28991SOL     OW88979  10.392   5.648   6.036 -0.3296 -0.0386 -0.0393
28991SOL    HW188980  10.412   5.592   6.111  2.1026  1.3173  0.4227
28991SOL    HW288981  10.333   5.714   6.071 -1.8072 -1.2268 -0.1714
28992SOL     OW88982   6.630   4.579   3.775 -0.0270  0.3914  1.2254
28992SOL    HW188983   6.627   4.484   3.788  1.5822  0.3582  1.5438
28992SOL    HW288984   6.622   4.615   3.864  1.5098  0.4670  1.3519
28993SOL     OW88985  10.596   7.825  10.138 -0.4582 -0.5511 -0.3181
28993SOL    HW188986  10.657   7.898  10.128 -1.1489  0.3113  1.4139
28993SOL    HW288987  10.529   7.842  10.071 -1.3108  1.1932  0.8851
28994SOL     OW88988   2.770   5.550   4.804 -0.1731 -0.7332  0.0350
28994SOL    HW188989   2.821   5.495   4.863  0.2263  0.1703  0.5650
28994SOL    HW288990   2.679   5.525   4.820  0.0342 -1.5775 -0.0985
28995SOL     OW88991   4.443   0.352   5.535 -0.2480  0.1958  0.4623
28995SOL    HW188992   4.449   0.278   5.474  0.7015  1.1953 -0.7295
28995SOL    HW288993   4.515   0.340   5.596 -0.7949 -0.4548  0.9925
28996SOL     OW88994   2.082   4.961   2.912  0.2038 -0.2679  0.1281
28996SOL    HW188995   1.999   4.990   2.951  0.9721  1.7534  0.3613
28996SOL    HW288996   2.102   4.879   2.957  0.4034  1.3213  3.1829
28997SOL     OW88997   0.689   0.332   6.976 -0.1596  0.9020  0.9483
28997SOL    HW188998   0.693   0.427   6.990  1.1643  1.1848 -0.9244
28997SOL    HW288999   0.781   0.304   6.976 -0.3463  0.1074 -1.0970
28998SOL     OW89000   9.985   8.188   8.588  0.1618  0.1388  0.6615
28998SOL    HW189001   9.934   8.262   8.554  1.1804 -0.1806 -1.7945
28998SOL    HW289002  10.061   8.228   8.630 -0.7378  0.5217  2.0108
28999SOL     OW89003   0.322   7.754   8.616 -0.2186 -0.1959  0.5092
28999SOL    HW189004   0.239   7.760   8.663 -0.5114  2.5688 -0.1954
28999SOL    HW289005   0.389   7.760   8.685 -0.4913 -2.9234  1.1309
29000SOL     OW89006   8.116  10.178   7.531 -0.0657 -0.7815  0.6794
29000SOL    HW189007   8.067  10.251   7.491 -2.3308 -2.3328  0.4115
29000SOL    HW289008   8.076  10.100   7.493  1.4689 -2.2113  1.8867
29001SOL     OW89009   7.664   2.961   5.340 -0.2824  0.1482 -0.0911
29001SOL    HW189010   7.589   2.985   5.285 -0.5198  0.6516  0.4414
29001SOL    HW289011   7.708   3.044   5.358 -0.4918  0.0625  0.8871
29002SOL     OW89012   3.726  10.594   5.704  0.6185 -0.4708 -0.0225
29002SOL    HW189013   3.724  10.598   5.608 -0.5204 -0.4209 -0.0158
29002SOL    HW289014   3.655  10.652   5.732 -1.4359 -3.0993  0.7134
29003SOL     OW89015   9.618   5.890   5.742  0.3691  0.0756  0.1484
29003SOL    HW189016   9.612   5.985   5.728  0.6622  0.2629  1.1972
29003SOL    HW289017   9.550   5.871   5.806 -0.4388 -0.6206 -0.8934
29004SOL     OW89018   7.990   9.944   1.676 -0.2268  0.6971 -0.0759
29004SOL    HW189019   8.080   9.915   1.662 -0.2953 -0.9130  2.1267
29004SOL    HW289020   7.986   9.965   1.769 -2.1555  0.5429 -0.0725
29005SOL     OW89021   5.330   1.421   4.478 -0.0920 -0.1573  0.1764
29005SOL    HW189022   5.374   1.339   4.500 -1.3716 -0.5375  1.4585
29005SOL    HW289023   5.346   1.478   4.553  0.6671  0.7425 -0.6430
29006SOL     OW89024   3.229   6.660   6.495  0.2375 -0.5632  0.3282
29006SOL    HW189025   3.181   6.741   6.478  1.9437  0.0825 -1.8962
29006SOL    HW289026   3.317   6.676   6.460  0.8480 -3.1163  0.4767
29007SOL     OW89027   0.383  10.027   3.314  0.1333  0.5706  0.1851
29007SOL    HW189028   0.335  10.091   3.367  2.3357  1.6098  1.0073
29007SOL    HW289029   0.352  10.043   3.225 -2.5353 -0.2075  0.8615
29008SOL     OW89030   3.019   8.373   5.439 -0.0166  0.8009  0.2554
29008SOL    HW189031   2.993   8.386   5.531 -1.6046  1.8824 -0.3030
29008SOL    HW289032   3.017   8.461   5.401  0.6811  0.3727 -0.8192
29009SOL     OW89033   1.785   8.082  10.759 -0.2698  0.1383 -0.1507
29009SOL    HW189034   1.841   8.158  10.778 -0.5341  0.2616  0.1685
29009SOL    HW289035   1.706   8.099  10.810 -1.0054  0.4562 -1.3736
29010SOL     OW89036   8.962   0.269   1.325 -0.3750  0.0601  0.0758
29010SOL    HW189037   8.885   0.286   1.378 -0.9176  1.7137 -1.1395
29010SOL    HW289038   8.928   0.231   1.244 -0.1254  1.9256 -0.9763
29011SOL     OW89039  11.030   4.836   0.474  0.7298 -0.2638  0.3705
29011SOL    HW189040  11.061   4.801   0.557 -0.6410  0.9717  1.4611
29011SOL    HW289041  10.936   4.848   0.487  0.9282  2.7066 -0.2733
29012SOL     OW89042   0.871   6.700   1.934  0.3855 -0.9648  0.1889
29012SOL    HW189043   0.965   6.699   1.951  0.6034 -0.6968 -0.9152
29012SOL    HW289044   0.842   6.611   1.950  0.8065 -1.0111  0.6771
29013SOL     OW89045   8.646   3.539   1.281  0.4398  0.3408  0.3028
29013SOL    HW189046   8.725   3.558   1.332  0.1543  2.0333  0.1917
29013SOL    HW289047   8.670   3.558   1.191 -0.0189  0.7179  0.2497
29014SOL     OW89048   0.015  10.467   1.578 -0.2225 -0.0609 -0.0151
29014SOL    HW189049   0.061  10.383   1.573  2.6777  1.4143 -2.5503
29014SOL    HW289050   0.075  10.523   1.627 -1.8830  0.6936  1.2128
29015SOL     OW89051   7.868  10.621   9.326  0.3705 -0.4486  0.3834
29015SOL    HW189052   7.963  10.617   9.322  0.4554  1.4455 -0.1147
29015SOL    HW289053   7.849  10.695   9.382 -0.8208 -0.7607  0.4189
29016SOL     OW89054   8.917   0.101   9.286 -0.6618  0.0764  0.4884
29016SOL    HW189055   8.896   0.021   9.334 -1.5031 -1.5595 -2.3723
29016SOL    HW289056   9.008   0.120   9.310 -0.9521 -0.7648  2.4610
29017SOL     OW89057   1.450   4.080   7.996 -0.2262 -0.0363  0.3339
29017SOL    HW189058   1.404   4.044   7.921 -1.0018 -0.6088  1.0598
29017SOL    HW289059   1.540   4.047   7.988 -0.4374 -0.5264 -0.0634
29018SOL     OW89060   9.444   0.737   5.703 -0.7579 -0.0818  0.1640
29018SOL    HW189061   9.351   0.752   5.720 -0.8106  0.5690 -0.6173
29018SOL    HW289062   9.448   0.711   5.611 -0.1044  0.7260 -0.0543
29019SOL     OW89063   3.111   3.871   1.872  0.5326  0.7685  0.6143
29019SOL    HW189064   3.169   3.947   1.870  1.1784  0.2754 -0.1074
29019SOL    HW289065   3.138   3.822   1.950  1.1364  0.5142  0.2531
29020SOL     OW89066   8.230   9.790  10.237 -0.0310  0.3509  0.8190
29020SOL    HW189067   8.212   9.730  10.309 -2.7905  0.6048  0.4722
29020SOL    HW289068   8.143   9.817  10.206  1.0642  1.3929 -1.6487
29021SOL     OW89069   9.654  11.203   4.109 -0.2483  0.6930 -0.1384
29021SOL    HW189070   9.645  11.139   4.038  2.8965  1.7922 -1.7144
29021SOL    HW289071   9.745  11.194   4.139 -1.1375  1.0714  3.0398
29022SOL     OW89072   6.265   8.917   9.402  0.4221  0.4242 -0.4941
29022SOL    HW189073   6.173   8.938   9.421  0.7246  0.6629  0.7721
29022SOL    HW289074   6.290   8.981   9.336 -0.3292  0.3470 -0.8710
29023SOL     OW89075   7.247   3.339  11.234  0.3083  0.2574  0.0249
29023SOL    HW189076   7.205   3.372  11.155 -0.5588 -3.7051 -1.4266
29023SOL    HW289077   7.314   3.278  11.201 -0.0419 -1.4815  2.2848
29024SOL     OW89078   3.620   9.625   3.292 -0.0354  0.1214  0.1071
29024SOL    HW189079   3.668   9.705   3.311 -2.0231  1.2760  0.6308
29024SOL    HW289080   3.557   9.618   3.364 -2.0215 -0.1518 -1.5678
29025SOL     OW89081   2.195   0.248   7.549  0.2704 -0.4064  0.1725
29025SOL    HW189082   2.162   0.232   7.638 -0.0147  1.0412  0.3512
29025SOL    HW289083   2.183   0.342   7.536 -0.3558 -0.7213 -1.6878
29026SOL     OW89084   0.408  11.072   0.638  0.1736 -0.7775  0.1401
29026SOL    HW189085   0.388  10.997   0.694 -2.6188 -0.2932 -0.0798
29026SOL    HW289086   0.376  11.147   0.686  0.3293 -0.0326 -0.8892
29027SOL     OW89087   9.347   5.207   0.938 -0.3542  0.1212  0.0681
29027SOL    HW189088   9.268   5.260   0.948 -0.2545  0.1108  0.9862
29027SOL    HW289089   9.320   5.118   0.958 -0.4585 -0.1588 -1.2042
29028SOL     OW89090   8.359   5.820  10.057  0.4091 -0.3703 -0.1989
29028SOL    HW189091   8.443   5.829  10.102  2.3118 -2.8726 -2.8318
29028SOL    HW289092   8.325   5.909  10.052  1.2927  0.3694  3.6103
29029SOL     OW89093  10.800   7.598  11.004  0.3421  0.0584  0.5754
29029SOL    HW189094  10.779   7.554  10.922  2.3746 -0.6547  0.3717
29029SOL    HW289095  10.893   7.622  10.996 -0.4666  4.1105  0.8134
29030SOL     OW89096  10.966   7.839   0.262 -0.5330 -0.0603  0.3618
29030SOL    HW189097  10.934   7.926   0.237 -2.7528 -1.3914 -1.8857
29030SOL    HW289098  10.988   7.848   0.355 -0.5076  2.9156  0.1802
29031SOL     OW89099   8.058   1.620   3.276  0.5388  1.3210  0.2633
29031SOL    HW189100   8.110   1.541   3.288 -1.9204 -0.2703  1.1572
29031SOL    HW289101   8.031   1.618   3.184 -1.3309 -0.1676  0.7832
29032SOL     OW89102   3.586   5.738   5.744  0.1709  0.2412 -0.2579
29032SOL    HW189103   3.569   5.762   5.835  1.4341  0.1331  0.0190
29032SOL    HW289104   3.680   5.726   5.739  0.0505 -0.3923 -1.4352
29033SOL     OW89105   6.230   3.062   0.952 -0.2989 -0.3434 -0.0153
29033SOL    HW189106   6.157   3.058   1.014  1.2771 -2.5800  1.8819
29033SOL    HW289107   6.251   3.155   0.947 -3.1693  0.3924 -0.6276
29034SOL     OW89108   7.300   2.137   8.367  0.4865  0.3741 -0.1337
29034SOL    HW189109   7.273   2.165   8.280  1.1027 -0.2003 -0.5249
29034SOL    HW289110   7.264   2.203   8.426 -0.2010  0.5998 -0.7933
29035SOL     OW89111  10.146   6.572  10.284 -0.0230 -0.4852 -0.2441
29035SOL    HW189112  10.119   6.596  10.195 -1.3794 -0.0962  0.2408
29035SOL    HW289113  10.076   6.513  10.314 -0.6337  0.9320  1.2499
29036SOL     OW89114   9.310   5.060   9.862 -0.3183 -0.1347 -0.8652
29036SOL    HW189115   9.342   5.077   9.774  1.2701  0.0965 -0.2890
29036SOL    HW289116   9.390   5.059   9.916 -1.2406 -0.3646  0.5428
29037SOL     OW89117   0.592   0.595   7.746 -0.4726  0.4592  0.2737
29037SOL    HW189118   0.622   0.562   7.831  2.5599  1.1967 -0.3941
29037SOL    HW289119   0.546   0.677   7.767 -2.1623 -0.6799  1.3438
29038SOL     OW89120   0.661  11.251   7.824 -0.6075  0.0922  0.0576
29038SOL    HW189121   0.660  11.196   7.746 -1.8172 -0.1016  0.1933
29038SOL    HW289122   0.720  11.324   7.801 -0.4929 -0.2621 -0.8125
29039SOL     OW89123   6.339   3.637   0.441  0.1603 -0.0344  0.5626
29039SOL    HW189124   6.346   3.679   0.355  3.0132  0.2140  0.8166
29039SOL    HW289125   6.329   3.544   0.421 -4.1301  0.3064  0.0329
29040SOL     OW89126   7.810   4.716  10.956  0.5286 -0.1730 -0.5825
29040SOL    HW189127   7.775   4.798  10.991 -0.0212 -0.6591  0.0505
29040SOL    HW289128   7.883   4.742  10.901  1.7635  0.6445  1.3134
29041SOL     OW89129   4.740   7.038   8.688 -0.8384 -0.2856 -0.4766
29041SOL    HW189130   4.676   7.045   8.617  1.2759  1.4076 -2.3990
29041SOL    HW289131   4.821   7.073   8.650 -0.0963  3.1684  3.5261
29042SOL     OW89132   9.531   2.791   1.888  0.2813 -0.2574 -0.0365
29042SOL    HW189133   9.583   2.831   1.957  1.6686  0.1805 -1.2693
29042SOL    HW289134   9.596   2.759   1.825 -0.9322 -0.0068 -1.4747
29043SOL     OW89135   3.068  10.882   0.441  0.0990  0.3649 -0.0930
29043SOL    HW189136   3.041  10.971   0.418 -0.6855  0.0259 -0.5458
29043SOL    HW289137   3.071  10.836   0.358  0.5029 -0.0306  0.1400
29044SOL     OW89138   7.022   2.546   1.167  0.0754 -0.1277 -0.7347
29044SOL    HW189139   6.968   2.507   1.098  0.0639  1.3744 -1.6063
29044SOL    HW289140   7.043   2.472   1.225 -1.8623 -1.0034 -1.0426
29045SOL     OW89141   8.634   6.624   4.142  0.5947 -0.7367  0.0768
29045SOL    HW189142   8.714   6.668   4.112 -0.6249  2.2866  0.9435
29045SOL    HW289143   8.570   6.641   4.073  0.3267 -2.2040 -0.0845
29046SOL     OW89144  10.980   6.148   2.919  0.2126 -0.4263 -0.3754
29046SOL    HW189145  10.926   6.114   2.991  1.6712 -1.1171  0.4431
29046SOL    HW289146  11.021   6.226   2.955  1.3360 -1.0493 -0.2566
29047SOL     OW89147   3.482   0.425   1.569  0.2246 -0.2480  0.7500
29047SOL    HW189148   3.570   0.388   1.582  0.4973  0.6006  1.3613
29047SOL    HW289149   3.432   0.352   1.532  1.7339 -0.1591 -1.7540
29048SOL     OW89150   2.327   7.219   8.450 -0.0359  0.1842  0.1765
29048SOL    HW189151   2.265   7.212   8.523  0.4231  1.0650  0.6675
29048SOL    HW289152   2.411   7.194   8.487  0.1356  0.2766 -0.1480
29049SOL     OW89153   7.436  11.001   8.851  0.0008  0.0713  0.8062
29049SOL    HW189154   7.519  11.031   8.815  0.3248 -1.1570  0.5043
29049SOL    HW289155   7.402  11.077   8.899  1.5756  0.3966  1.4420
29050SOL     OW89156   5.367   8.496   0.971  0.4073 -0.2759 -0.0884
29050SOL    HW189157   5.303   8.472   0.904 -1.0484  0.9977  0.7819
29050SOL    HW289158   5.340   8.447   1.048  1.3529 -0.7996 -0.0691
29051SOL     OW89159   0.903   3.791   4.865 -0.2821 -0.2163  0.1140
29051SOL    HW189160   0.810   3.805   4.882 -0.4934 -0.7108 -0.6360
29051SOL    HW289161   0.907   3.718   4.804  0.4858  1.2619 -1.6945
29052SOL     OW89162   0.956  11.153   7.502 -0.3102  0.8934 -0.5277
29052SOL    HW189163   0.911  11.185   7.424 -0.3403 -0.4699 -1.1039
29052SOL    HW289164   0.997  11.230   7.540 -0.6548  1.6546 -1.6550
29053SOL     OW89165   5.869   3.200  10.900 -0.2738  0.5604 -0.2490
29053SOL    HW189166   5.811   3.126  10.917 -0.5431  1.2979  2.3832
29053SOL    HW289167   5.810   3.273  10.881 -0.0743  0.5613 -0.8912
29054SOL     OW89168   1.178   3.892   4.791 -0.2925 -0.6919  0.2474
29054SOL    HW189169   1.191   3.829   4.720 -0.1373 -1.2824  0.8004
29054SOL    HW289170   1.086   3.881   4.816  0.2277 -2.1507  1.6999
29055SOL     OW89171   3.818   7.657   9.500 -0.1893 -0.0061  0.0789
29055SOL    HW189172   3.858   7.740   9.473  2.3018 -1.4012 -0.9080
29055SOL    HW289173   3.728   7.680   9.524  0.2512  2.8678 -0.6270
29056SOL     OW89174   7.284  11.009   7.596 -0.5349 -0.1158 -0.0060
29056SOL    HW189175   7.306  10.926   7.638  1.1369  0.3215  0.0521
29056SOL    HW289176   7.257  11.066   7.667  0.3080  0.0087  0.2134
29057SOL     OW89177   1.807   0.786   6.899  0.4120  0.3778  0.0202
29057SOL    HW189178   1.761   0.826   6.826  0.1080 -0.2566 -0.1440
29057SOL    HW289179   1.770   0.827   6.977 -0.8375 -0.5150 -0.0811
29058SOL     OW89180   0.577   8.917   5.821 -0.0626 -0.8391  0.3994
29058SOL    HW189181   0.485   8.904   5.842  0.0479 -3.2979 -0.3890
29058SOL    HW289182   0.620   8.929   5.907 -0.4888 -4.4664  1.2615
29059SOL     OW89183   1.379   6.435   4.957  0.5104 -0.3017  0.1039
29059SOL    HW189184   1.473   6.423   4.969  0.6413 -0.0257 -0.5478
29059SOL    HW289185   1.369   6.529   4.938  0.1620 -0.4044 -0.2503
29060SOL     OW89186   9.200   5.300   9.315  0.0716  1.0281  0.0439
29060SOL    HW189187   9.183   5.223   9.369  3.1237  0.4529  0.3828
29060SOL    HW289188   9.114   5.339   9.301 -1.0541  0.5343  4.2471
29061SOL     OW89189   8.227   3.697   7.162  0.0367  0.0937 -0.0884
29061SOL    HW189190   8.161   3.650   7.214 -0.1155 -0.0170 -0.3744
29061SOL    HW289191   8.306   3.644   7.170 -0.1938 -0.3372 -0.5888
29062SOL     OW89192   3.574   6.038   8.083 -0.2086  0.6440 -0.3001
29062SOL    HW189193   3.563   5.947   8.111  2.8584  0.7758  1.7232
29062SOL    HW289194   3.579   6.088   8.164  1.8612  2.0821 -1.2328
29063SOL     OW89195   8.297  10.031   8.942  0.2563  0.4681  0.2517
29063SOL    HW189196   8.329  10.092   8.876 -2.1500  2.0264  0.3985
29063SOL    HW289197   8.240   9.970   8.894  0.8965 -0.3105  0.4539
29064SOL     OW89198  11.071   9.728   9.298  0.2659  0.1592 -0.2044
29064SOL    HW189199  11.123   9.659   9.339  1.4402  0.1407 -1.6412
29064SOL    HW289200  10.981   9.701   9.312  0.4012  1.1365  4.0625
29065SOL     OW89201   5.267   4.952   4.382  0.8934 -0.3843 -0.1182
29065SOL    HW189202   5.340   4.909   4.427  0.9414 -2.9202 -2.3840
29065SOL    HW289203   5.191   4.897   4.402  0.2127  0.4608 -0.3236
29066SOL     OW89204   6.694   1.726   4.543  0.4309  0.4941  0.2053
29066SOL    HW189205   6.774   1.772   4.569 -0.0857  1.2955  0.3920
29066SOL    HW289206   6.675   1.669   4.618  1.4814 -0.6052 -0.3311
29067SOL     OW89207   7.404   8.033   0.129  0.3401 -0.0432 -0.2507
29067SOL    HW189208   7.349   7.979   0.073  1.2234 -0.4100 -0.7916
29067SOL    HW289209   7.383   8.006   0.218  0.2007 -0.7165 -0.4900
29068SOL     OW89210   9.967  11.237   7.094  1.0912 -0.0296  0.0493
29068SOL    HW189211   9.875  11.264   7.092  0.8541 -0.8061 -1.6167
29068SOL    HW289212  10.016  11.318   7.087  0.5144  0.3541  0.3732
29069SOL     OW89213  10.735   9.788   7.166  0.3527 -0.0078 -0.0831
29069SOL    HW189214  10.827   9.814   7.165  1.2979 -2.9464  1.1095
29069SOL    HW289215  10.728   9.721   7.098 -1.2160  0.9776 -0.9489
29070SOL     OW89216   4.832   8.519   0.279 -0.9688 -0.5292 -0.3643
29070SOL    HW189217   4.876   8.466   0.213 -0.6466  0.9715 -1.3977
29070SOL    HW289218   4.746   8.477   0.289 -1.6542  0.0376 -2.9206
29071SOL     OW89219   9.097   3.682   1.875  0.0472 -0.0889 -0.1997
29071SOL    HW189220   9.148   3.691   1.794  1.2067 -4.7558 -0.2710
29071SOL    HW289221   9.006   3.693   1.847  0.5920  2.5109 -1.2159
29072SOL     OW89222   9.461   2.884   5.367 -0.3762 -0.1769  0.2153
29072SOL    HW189223   9.440   2.792   5.349 -0.9753  0.3078 -1.8342
29072SOL    HW289224   9.378   2.930   5.355 -0.1788  0.5996  1.6594
29073SOL     OW89225   1.991   8.898   2.273  0.1703  0.0540  0.2950
29073SOL    HW189226   2.019   8.929   2.359 -0.8773 -0.5362  0.8661
29073SOL    HW289227   1.977   8.978   2.222  1.6430  0.3872  0.3804
29074SOL     OW89228   9.853   7.181   3.978  0.2689  0.2024 -0.0978
29074SOL    HW189229   9.899   7.204   4.059  0.7802 -2.2199  0.3888
29074SOL    HW289230   9.909   7.115   3.937 -1.6395 -1.1491 -0.6673
29075SOL     OW89231   2.940   6.130   7.152 -0.0450 -0.2987 -0.5273
29075SOL    HW189232   2.944   6.038   7.176  0.6673 -0.8165 -2.4693
29075SOL    HW289233   2.965   6.177   7.231  0.8660 -1.8227  0.1178
29076SOL     OW89234   6.361   5.398   4.838 -0.2855  0.1808  0.3594
29076SOL    HW189235   6.407   5.321   4.803  1.8832  1.6933 -0.3539
29076SOL    HW289236   6.300   5.362   4.902  1.4734 -2.0653  0.9265
29077SOL     OW89237   9.794   0.988   4.809 -0.0520  0.0011 -0.0598
29077SOL    HW189238   9.744   1.065   4.780  1.5928  1.1488  0.0231
29077SOL    HW289239   9.875   1.024   4.846 -0.2874 -1.6317  2.2936
29078SOL     OW89240   5.537   7.523   7.963  0.6353 -0.5271 -0.6839
29078SOL    HW189241   5.532   7.564   7.877  2.2148  3.1856  0.7999
29078SOL    HW289242   5.520   7.594   8.025 -3.1577 -3.4808  2.2056
29079SOL     OW89243   4.688   0.816   4.967  0.3929 -0.3036 -0.2396
29079SOL    HW189244   4.721   0.727   4.981 -0.2891 -0.5539 -0.1981
29079SOL    HW289245   4.755   0.858   4.913  1.0668 -0.6157  0.3321
29080SOL     OW89246   0.040   9.461   3.745  0.0354 -0.0406 -0.1630
29080SOL    HW189247  -0.049   9.497   3.737 -0.0058 -0.1307 -0.1138
29080SOL    HW289248   0.095   9.538   3.756 -0.0241  0.0229 -0.3011
29081SOL     OW89249  10.671   2.602   2.622 -0.4590  0.3319  0.5641
29081SOL    HW189250  10.722   2.672   2.663 -2.3496  2.0100  0.2205
29081SOL    HW289251  10.582   2.614   2.657 -1.5465  0.1371 -1.9267
29082SOL     OW89252   9.729   5.774   8.494  0.1483  0.0990 -0.4331
29082SOL    HW189253   9.804   5.743   8.545  0.1028 -0.0100 -0.4329
29082SOL    HW289254   9.759   5.771   8.403  0.3357  0.5903 -0.3885
29083SOL     OW89255   7.333  10.749   8.414  0.0198  0.1698 -0.3091
29083SOL    HW189256   7.247  10.769   8.451 -0.2637  0.1239 -0.9302
29083SOL    HW289257   7.386  10.826   8.433 -0.6435  0.9184 -1.3755
29084SOL     OW89258   8.923  10.804   8.775  0.0435 -0.2678 -0.3312
29084SOL    HW189259   9.017  10.784   8.769 -0.2981 -2.2607  0.4951
29084SOL    HW289260   8.882  10.722   8.798 -2.2940 -0.1564 -3.4451
29085SOL     OW89261   8.646   9.770  10.316 -0.0729 -0.1787  0.1532
29085SOL    HW189262   8.740   9.785  10.310 -0.1373  0.3891  0.4696
29085SOL    HW289263   8.622   9.735  10.231  0.1987  0.9786 -0.4201
29086SOL     OW89264   5.365   6.969   0.825 -0.0743 -0.0428 -0.1636
29086SOL    HW189265   5.294   7.025   0.792 -2.2328  1.1244  5.3927
29086SOL    HW289266   5.417   7.027   0.880  1.8528 -2.1477  0.3448
29087SOL     OW89267   2.066  10.484   2.790  0.2021 -0.4680  0.1791
29087SOL    HW189268   2.009  10.407   2.784 -0.6569  0.2452 -1.6705
29087SOL    HW289269   2.021  10.543   2.850 -0.9491 -0.0183 -1.0681
29088SOL     OW89270   3.039   0.592   2.557  0.9323  0.1287 -0.3966
29088SOL    HW189271   3.052   0.649   2.633  2.6238 -0.0119 -0.5597
29088SOL    HW289272   3.102   0.623   2.493  0.2890 -0.4816 -1.3443
29089SOL     OW89273   2.826   0.037   1.779 -0.3788  0.0405  0.0378
29089SOL    HW189274   2.822   0.113   1.721  1.5133  1.0880  1.1798
29089SOL    HW289275   2.737   0.028   1.813 -0.6426  1.8124 -0.0764
29090SOL     OW89276   2.944   7.999   2.733 -0.0825  0.0894 -0.8852
29090SOL    HW189277   2.916   7.929   2.791 -0.0127  1.3281  0.7320
29090SOL    HW289278   2.885   7.994   2.658 -1.4535 -0.3601  0.1983
29091SOL     OW89279   3.142   6.528  11.121 -0.7669 -0.5080 -0.2141
29091SOL    HW189280   3.123   6.446  11.167 -1.4878 -0.3770 -0.2602
29091SOL    HW289281   3.237   6.531  11.115 -0.7155 -1.1143  0.2038
29092SOL     OW89282   6.284  10.486   1.967 -0.2686 -0.0964  0.0285
29092SOL    HW189283   6.214  10.541   1.931  0.0904 -0.4485 -1.2773
29092SOL    HW289284   6.324  10.540   2.036 -1.1748  0.4964  0.1055
29093SOL     OW89285   7.745   7.236   7.997  0.5010  0.4356 -0.4590
29093SOL    HW189286   7.815   7.209   8.056 -0.1271  0.3559  0.2743
29093SOL    HW289287   7.730   7.160   7.941  0.3644  0.1091  0.0148
29094SOL     OW89288   1.358   9.302   7.860 -0.0737 -0.4411  0.3457
29094SOL    HW189289   1.302   9.259   7.925  0.6849  0.3827  1.5841
29094SOL    HW289290   1.382   9.385   7.901 -0.3796  0.5559 -1.4242
29095SOL     OW89291   7.465   9.172   1.459  0.3498  0.3302  0.3996
29095SOL    HW189292   7.538   9.210   1.410  0.6282  0.1741  0.6852
29095SOL    HW289293   7.436   9.242   1.517 -0.9691  1.0239 -1.0225
29096SOL     OW89294   8.582   2.687   4.823  0.4185 -0.1543  0.6371
29096SOL    HW189295   8.539   2.681   4.908  1.8709 -1.1765  1.3230
29096SOL    HW289296   8.619   2.775   4.820  0.3990 -0.1318  1.0799
29097SOL     OW89297   1.020   7.039   9.537  0.5479 -0.6645  0.7998
29097SOL    HW189298   0.989   7.128   9.519  0.7449 -0.8335 -0.4845
29097SOL    HW289299   1.079   7.019   9.464  2.7359 -0.8263  2.5077
29098SOL     OW89300   5.407   9.906   5.652  0.8164  0.2014  0.4207
29098SOL    HW189301   5.445   9.827   5.615  3.6163  2.1570 -1.2444
29098SOL    HW289302   5.393   9.963   5.577  1.5184  2.3063  1.8012
29099SOL     OW89303  11.031   4.428   0.786  0.4382 -0.2668  0.0459
29099SOL    HW189304  11.020   4.422   0.881 -1.1427  2.3527  0.1005
29099SOL    HW289305  10.955   4.382   0.750 -0.4165  1.0413  0.1288
29100SOL     OW89306  11.041   9.238   3.371 -0.3045  0.3352 -0.4843
29100SOL    HW189307  11.102   9.171   3.402  0.9492  0.8610 -1.7085
29100SOL    HW289308  11.056   9.313   3.430 -1.7620 -0.4308  0.9328
29101SOL     OW89309   4.010   6.067   5.715 -0.4613 -0.1331  0.3450
29101SOL    HW189310   4.086   6.065   5.656 -0.0599  3.0105  0.5756
29101SOL    HW289311   4.044   6.037   5.799  0.3985  0.6166  0.2831
29102SOL     OW89312   3.040   1.830   8.884 -0.0078 -0.4711  0.8085
29102SOL    HW189313   3.074   1.856   8.970  1.4002 -0.6532  0.3344
29102SOL    HW289314   3.112   1.782   8.843 -1.6352 -2.9785  0.6448
29103SOL     OW89315   3.732   7.359  10.363 -0.6716 -0.1199 -0.1961
29103SOL    HW189316   3.664   7.353  10.297 -0.0974 -1.7468 -0.6804
29103SOL    HW289317   3.687   7.393  10.441 -1.4481  1.3586 -1.2461
29104SOL     OW89318   6.293   0.715   0.010 -0.1100  0.2215  0.1539
29104SOL    HW189319   6.255   0.770   0.079 -0.6932 -0.4744  0.4033
29104SOL    HW289320   6.316   0.776  -0.060 -0.8838  0.7657  0.3608
29105SOL     OW89321   8.793   7.617   4.164  0.3205  0.9344 -0.2714
29105SOL    HW189322   8.840   7.534   4.168 -0.6962  0.3219 -0.9046
29105SOL    HW289323   8.734   7.609   4.090 -2.2355  0.9000  1.6334
29106SOL     OW89324  10.004  10.597   6.672  0.8145 -0.3633 -0.5519
29106SOL    HW189325   9.944  10.574   6.601  0.7513 -3.8213  0.4673
29106SOL    HW289326  10.058  10.519   6.684 -0.7226 -0.9905  4.6817
29107SOL     OW89327   1.058   4.168   6.149  0.1889 -0.6293 -0.3695
29107SOL    HW189328   1.077   4.099   6.212 -0.2643 -0.1739  0.2814
29107SOL    HW289329   0.971   4.199   6.173  0.0623 -0.3639 -1.1447
29108SOL     OW89330   2.372   2.614   7.045  0.3673 -0.8517  0.4886
29108SOL    HW189331   2.285   2.579   7.026  0.4867 -1.1116  0.4135
29108SOL    HW289332   2.380   2.691   6.989  0.8866 -1.8526 -0.8583
29109SOL     OW89333   3.827   7.165   6.020 -0.2225 -0.6769 -0.0918
29109SOL    HW189334   3.792   7.092   6.070 -1.9476  0.7395  0.9190
29109SOL    HW289335   3.753   7.195   5.967 -0.1022  1.3365  0.7839
29110SOL     OW89336   2.675   1.579   0.128  0.1101  0.4271  0.0501
29110SOL    HW189337   2.649   1.662   0.169  1.5623  0.6202  0.6596
29110SOL    HW289338   2.661   1.513   0.196  2.2551  0.7078  0.8491
29111SOL     OW89339   1.850   2.280   4.605  0.5353 -0.4253  0.2116
29111SOL    HW189340   1.824   2.215   4.670 -0.4262  0.4444  0.7452
29111SOL    HW289341   1.810   2.251   4.523  0.4530 -0.7177  0.3571
29112SOL     OW89342   6.800  10.146   8.941  0.5270 -0.1113 -0.2583
29112SOL    HW189343   6.862  10.170   9.010  0.7027 -1.7827  0.2135
29112SOL    HW289344   6.724  10.201   8.957  0.0082 -1.3803  2.1798
29113SOL     OW89345   6.139   5.289   8.127  0.8674  0.1756  0.1835
29113SOL    HW189346   6.139   5.198   8.100 -0.3989  0.6564 -1.6304
29113SOL    HW289347   6.153   5.287   8.222 -2.8648 -2.1320  0.8616
29114SOL     OW89348   0.658   1.889   3.310  0.2527  0.3922  0.0271
29114SOL    HW189349   0.718   1.852   3.245  1.0867  1.4655  0.1407
29114SOL    HW289350   0.580   1.912   3.261  0.1912 -0.3951 -0.2600
29115SOL     OW89351   9.810   6.648   6.899 -0.2584  0.1246 -0.1462
29115SOL    HW189352   9.751   6.723   6.908  1.6791  1.7792 -0.3156
29115SOL    HW289353   9.887   6.672   6.951 -0.5585 -2.9420  1.9465
29116SOL     OW89354  10.031  10.898   1.693  0.3016  0.2396 -0.2110
29116SOL    HW189355   9.956  10.933   1.740  0.9157  1.2729  0.0163
29116SOL    HW289356  10.072  10.974   1.650  1.8455 -0.1053  0.5654
29117SOL     OW89357   2.602   8.720   9.757 -0.6986 -0.4064  0.1234
29117SOL    HW189358   2.658   8.668   9.699 -1.5284 -0.3108 -0.7910
29117SOL    HW289359   2.649   8.722   9.841  0.1150 -1.2633 -0.2970
29118SOL     OW89360   8.835   0.274   5.656 -0.3938  0.1268  0.2722
29118SOL    HW189361   8.868   0.192   5.618  0.3563 -0.3341  1.8383
29118SOL    HW289362   8.758   0.295   5.603 -0.4362 -1.4368 -0.3540
29119SOL     OW89363   7.769   2.015  11.139  0.5073 -0.3766 -0.4027
29119SOL    HW189364   7.767   1.936  11.192  1.0843  0.6744  1.2625
29119SOL    HW289365   7.857   2.016  11.100  1.0088  0.1261  0.7060
29120SOL     OW89366   2.834   0.935   0.185 -0.6521 -0.0949  0.1044
29120SOL    HW189367   2.810   0.853   0.142 -1.1302  0.4095 -0.6086
29120SOL    HW289368   2.903   0.910   0.247 -0.2779 -0.9167 -0.6251
29121SOL     OW89369   8.374   6.560   2.968  0.7105 -0.5463  0.4562
29121SOL    HW189370   8.354   6.491   2.904 -0.1527 -0.7474  0.9254
29121SOL    HW289371   8.356   6.520   3.053 -1.7416  0.8373  0.6774
29122SOL     OW89372   2.157   6.951   7.915 -0.2231  0.7080 -0.3553
29122SOL    HW189373   2.163   6.878   7.976 -0.2768  0.1127 -1.0371
29122SOL    HW289374   2.111   6.914   7.839  0.3318  1.2624 -0.9740
29123SOL     OW89375  10.836   1.555   3.824 -0.1220 -0.6891 -0.6322
29123SOL    HW189376  10.903   1.551   3.893  0.8765 -0.3164 -1.5576
29123SOL    HW289377  10.884   1.578   3.745 -1.4008 -0.1274 -1.2725
29124SOL     OW89378   5.949   7.900   2.768 -0.4620 -0.3122 -0.0937
29124SOL    HW189379   5.868   7.850   2.781 -1.5352  0.9209 -1.5719
29124SOL    HW289380   5.940   7.975   2.827 -1.4616  0.9445 -1.7501
29125SOL     OW89381   0.885   6.316   4.588  0.9365 -0.3769  0.4870
29125SOL    HW189382   0.966   6.269   4.568  0.5058 -0.8446 -0.2050
29125SOL    HW289383   0.829   6.250   4.630  1.1104  0.0906  1.4957
29126SOL     OW89384   6.802   8.476   8.369  0.3154  0.1934  0.1958
29126SOL    HW189385   6.853   8.407   8.413  0.9527  1.0599  0.8471
29126SOL    HW289386   6.856   8.555   8.378  0.3903  0.4557 -2.0001
29127SOL     OW89387   5.191   7.166   9.245 -0.0996  0.5861 -0.1263
29127SOL    HW189388   5.268   7.210   9.207  2.5528 -2.9336  0.6391
29127SOL    HW289389   5.148   7.234   9.297  4.2004  2.1834  1.8026
29128SOL     OW89390   0.386   0.091   5.881 -0.3923 -0.3509  0.2885
29128SOL    HW189391   0.451   0.153   5.849  0.0626 -0.9897 -0.0465
29128SOL    HW289392   0.389   0.102   5.976 -0.3459  0.1647  0.2336
29129SOL     OW89393   0.814   5.041   1.233 -0.0290  0.8245 -0.9039
29129SOL    HW189394   0.801   5.122   1.283 -1.0725  0.0159  0.2053
29129SOL    HW289395   0.900   5.051   1.193  2.5367  0.2237  3.7459
29130SOL     OW89396   2.778   8.232   3.675  0.8157 -0.6900  0.5479
29130SOL    HW189397   2.856   8.283   3.699  0.6949 -1.2346  2.2386
29130SOL    HW289398   2.729   8.289   3.616  3.2672 -0.9611 -1.9668
29131SOL     OW89399   4.028   6.401  10.688 -0.3483  0.2636 -0.4196
29131SOL    HW189400   4.078   6.454  10.749 -0.3199  0.6997 -0.8197
29131SOL    HW289401   4.017   6.317  10.733 -0.4154  0.6097  0.2268
29132SOL     OW89402   9.960   7.469   6.356  0.1222  0.1665  0.5591
29132SOL    HW189403   9.927   7.442   6.270 -0.3549  1.1968  0.3964
29132SOL    HW289404   9.922   7.406   6.417  1.1793 -1.1173 -0.0548
29133SOL     OW89405   8.615   7.748  11.035 -0.4455  0.2172  0.2300
29133SOL    HW189406   8.659   7.776  11.116 -2.4201  1.4679  0.9289
29133SOL    HW289407   8.531   7.714  11.064 -2.1740  2.7756 -1.3946
29134SOL     OW89408   2.319   8.058   6.356 -0.0651  0.3821 -0.3481
29134SOL    HW189409   2.316   8.108   6.274  2.6680 -0.4571 -1.0400
29134SOL    HW289410   2.370   8.113   6.416 -0.8606  0.3635  0.3679
29135SOL     OW89411   1.158   8.830   1.683  0.0305  0.2354  0.3400
29135SOL    HW189412   1.132   8.922   1.679  1.1124  0.6536  1.8836
29135SOL    HW289413   1.076   8.782   1.692 -0.4150  1.3274  2.7894
29136SOL     OW89414  10.727   9.887   1.968  0.6511 -0.0051 -0.1856
29136SOL    HW189415  10.727   9.827   1.894  0.5223 -0.3246  0.0737
29136SOL    HW289416  10.692   9.969   1.932 -0.5045 -0.4864 -0.2166
29137SOL     OW89417   1.894   6.211   3.793  0.2350  0.2495  0.9770
29137SOL    HW189418   1.957   6.270   3.835 -0.3804  1.4509  0.2731
29137SOL    HW289419   1.927   6.123   3.813  1.2273  0.8163  1.9863
29138SOL     OW89420   1.483   8.169   7.943  0.1214 -0.0278  0.0967
29138SOL    HW189421   1.573   8.189   7.917  0.7117  0.8927  2.5545
29138SOL    HW289422   1.434   8.248   7.924 -0.3469 -0.7317 -1.7904
29139SOL     OW89423   8.897   8.504   8.420  0.4630  0.2716 -0.1806
29139SOL    HW189424   8.843   8.493   8.342 -0.4562  0.4383  0.4195
29139SOL    HW289425   8.986   8.484   8.390  0.2957  1.3729 -1.5181
29140SOL     OW89426   0.568  11.282   8.200  0.0592  0.0839  0.9172
29140SOL    HW189427   0.605  11.370   8.193  0.1525 -0.0692 -1.0224
29140SOL    HW289428   0.582  11.258   8.291  0.6579  1.8046  1.3224
29141SOL     OW89429   0.769   2.041  10.753 -0.3384  0.3368 -0.0752
29141SOL    HW189430   0.739   1.954  10.727  1.6081 -0.0322 -1.3698
29141SOL    HW289431   0.839   2.025  10.815  2.1952  0.7142 -2.6216
29142SOL     OW89432   9.453   0.443   1.440 -0.3895  0.1110  0.6266
29142SOL    HW189433   9.444   0.348   1.428  0.2000 -0.4337  3.6624
29142SOL    HW289434   9.515   0.452   1.512  1.6777  2.9397 -1.2881
29143SOL     OW89435   9.815   5.876   1.929 -0.0280  0.6293 -0.3516
29143SOL    HW189436   9.876   5.851   1.859 -0.3679  1.7051 -1.0501
29143SOL    HW289437   9.835   5.968   1.947  0.1890  0.3203  1.1349
29144SOL     OW89438  10.884   6.853   7.785 -0.1689 -0.1048  0.3319
29144SOL    HW189439  10.834   6.810   7.715 -0.3384 -0.4918  0.6868
29144SOL    HW289440  10.973   6.859   7.750 -0.4609  0.5944 -0.3058
29145SOL     OW89441   5.838   6.506   7.516  0.3995  0.4974  1.0521
29145SOL    HW189442   5.746   6.492   7.537  0.2390 -2.7705 -1.1247
29145SOL    HW289443   5.837   6.569   7.444 -0.0906  0.6033  1.1473
29146SOL     OW89444   6.393   8.852   8.119  0.4400  0.2066  0.3877
29146SOL    HW189445   6.460   8.875   8.184  0.6426  1.7906 -0.3436
29146SOL    HW289446   6.440   8.851   8.036  0.1748 -1.7744  0.2119
29147SOL     OW89447   1.176   1.322   5.645  0.1398 -0.0299 -0.2110
29147SOL    HW189448   1.195   1.335   5.738  0.6007 -3.2038  0.2426
29147SOL    HW289449   1.109   1.254   5.644 -0.2083  0.2997 -2.2142
29148SOL     OW89450   3.728  10.194   3.137 -0.5142  0.1338  0.1364
29148SOL    HW189451   3.677  10.271   3.111 -0.5180  0.0316 -0.1670
29148SOL    HW289452   3.752  10.152   3.054 -0.0072  0.1353  0.2825
29149SOL     OW89453   3.085   1.190   5.063 -0.3953  0.7617  1.0194
29149SOL    HW189454   3.099   1.158   4.974  0.4492 -0.2349  1.4868
29149SOL    HW289455   3.022   1.261   5.054 -0.8602  0.2045 -0.2895
29150SOL     OW89456   0.382  10.386  10.440  0.4848 -0.2807 -0.0254
29150SOL    HW189457   0.394  10.345  10.525  1.6502 -0.2126 -0.1483
29150SOL    HW289458   0.396  10.315  10.377  0.3614 -0.1658 -0.1834
29151SOL     OW89459   0.300   5.577   6.944 -0.1109 -0.6396 -0.9345
29151SOL    HW189460   0.312   5.669   6.920 -1.1909 -0.6763 -1.6469
29151SOL    HW289461   0.381   5.555   6.991  1.3405 -0.0920 -3.0267
29152SOL     OW89462   9.096   2.851   1.401 -0.2132  0.3616 -0.2178
29152SOL    HW189463   9.059   2.788   1.339 -0.6350  1.7739 -1.4575
29152SOL    HW289464   9.130   2.797   1.472  0.2196 -1.3304 -1.6337
29153SOL     OW89465   2.402   8.391   6.836 -0.4975  0.6640 -0.0891
29153SOL    HW189466   2.403   8.463   6.900 -1.1929 -1.6289  2.7171
29153SOL    HW289467   2.489   8.393   6.796  0.5715  1.2963  2.0966
29154SOL     OW89468   9.002   0.751   1.011  0.1846 -0.0442 -0.2182
29154SOL    HW189469   8.919   0.707   1.028  1.5429 -1.6991  3.0971
29154SOL    HW289470   9.035   0.710   0.931 -0.1884 -2.7374  0.9130
29155SOL     OW89471   0.438   1.769   3.106  0.5049  0.7583  0.5042
29155SOL    HW189472   0.371   1.756   3.173  0.1347  0.7654  0.1438
29155SOL    HW289473   0.422   1.858   3.074 -0.6061  0.0822 -0.9651
29156SOL     OW89474   0.608  10.632  10.337  0.2479 -0.0413 -0.5559
29156SOL    HW189475   0.539  10.652  10.274 -0.3996  0.1736  0.2039
29156SOL    HW289476   0.678  10.694  10.316 -0.1244  0.3030 -0.8066
29157SOL     OW89477   7.532   1.860   4.175 -0.7962  0.0973  0.4658
29157SOL    HW189478   7.604   1.916   4.204 -1.3239  0.9966  0.1060
29157SOL    HW289479   7.529   1.789   4.239 -0.1539  0.5321  0.9875
29158SOL     OW89480   6.782   1.954   6.694  1.0234  0.4334  0.1521
29158SOL    HW189481   6.854   1.961   6.757  0.8283 -0.3783  0.4870
29158SOL    HW289482   6.825   1.940   6.610  1.2728 -0.9476  0.4754
29159SOL     OW89483   4.255   0.965   9.047 -0.3580 -0.1414  0.3554
29159SOL    HW189484   4.237   1.057   9.066 -0.4804  0.4582 -2.2895
29159SOL    HW289485   4.310   0.967   8.969  0.1262 -2.3218  0.5861
29160SOL     OW89486   6.477  10.075   3.580 -0.4244  0.4582 -0.3363
29160SOL    HW189487   6.472  10.013   3.508  3.0631 -0.2312 -0.1653
29160SOL    HW289488   6.466  10.022   3.659 -0.0192  0.4705 -0.2673
29161SOL     OW89489   3.258   5.208   7.134 -0.8002  0.3914 -0.4312
29161SOL    HW189490   3.348   5.228   7.161 -0.6998 -0.1072 -0.3917
29161SOL    HW289491   3.227   5.144   7.199 -1.0072  0.1727 -0.7439
29162SOL     OW89492   9.616   3.715   6.433  0.2515  0.3187 -0.1165
29162SOL    HW189493   9.527   3.682   6.446 -0.5685  2.0085 -0.9374
29162SOL    HW289494   9.628   3.779   6.503  1.3395 -0.7837  0.7402
29163SOL     OW89495   1.237   3.381   9.987 -0.2887 -0.8909 -0.1526
29163SOL    HW189496   1.271   3.302  10.027  1.5497 -0.0234  0.1069
29163SOL    HW289497   1.256   3.372   9.894 -0.6571 -1.0149 -0.2192
29164SOL     OW89498   6.911   9.226   6.290  0.3011  0.0166 -0.1100
29164SOL    HW189499   6.910   9.299   6.351 -0.2426 -0.2251  0.1859
29164SOL    HW289500   6.996   9.185   6.303  1.1013  1.3008 -1.1546
29165SOL     OW89501   0.272   7.813   7.141 -0.3203  0.6519  0.0015
29165SOL    HW189502   0.297   7.904   7.155  0.0825  0.3261  1.4751
29165SOL    HW289503   0.339   7.778   7.082  1.0247  0.6076  1.5112
29166SOL     OW89504   5.762   6.998  11.238  0.3239  0.0934  0.0133
29166SOL    HW189505   5.697   6.990  11.168  1.0460  1.0431 -0.7946
29166SOL    HW289506   5.719   7.050  11.306 -0.1897 -0.3713  0.0568
29167SOL     OW89507   5.538   2.327   7.845 -0.6400  0.3619  0.2448
29167SOL    HW189508   5.616   2.282   7.815 -0.7997  0.7880 -0.8437
29167SOL    HW289509   5.466   2.286   7.797 -0.7524  1.9463 -1.0105
29168SOL     OW89510   0.657   6.058   0.247  0.3185  0.1098 -0.4476
29168SOL    HW189511   0.646   6.150   0.220  0.1174 -0.3729 -2.1484
29168SOL    HW289512   0.653   6.061   0.342  2.0934  2.1055 -0.3404
29169SOL     OW89513  10.456   9.316   1.058 -0.2254 -0.6337 -0.8800
29169SOL    HW189514  10.427   9.316   1.149 -2.7785  1.4358 -1.5732
29169SOL    HW289515  10.541   9.361   1.060 -0.9953  0.8764  0.3493
29170SOL     OW89516   8.416   7.193   3.666 -0.5705 -0.3913  0.3978
29170SOL    HW189517   8.381   7.114   3.626 -1.8403  0.4069 -0.1228
29170SOL    HW289518   8.449   7.245   3.593  1.3070 -0.8853  0.8257
29171SOL     OW89519   8.584   1.680   1.007  0.3500  0.1389 -0.0337
29171SOL    HW189520   8.636   1.700   1.085  2.5577 -0.6076 -1.2106
29171SOL    HW289521   8.511   1.628   1.039  0.3272  1.1623  1.7136
29172SOL     OW89522   2.915   1.517   1.210 -0.0181 -0.1916 -0.4575
29172SOL    HW189523   2.975   1.461   1.257 -0.6874 -0.4983  0.0529
29172SOL    HW289524   2.920   1.602   1.255 -1.5125 -0.7949  0.9638
29173SOL     OW89525   1.654   5.479   4.201  0.6807 -0.5667 -0.2001
29173SOL    HW189526   1.587   5.541   4.230  0.3231 -0.0519 -1.9993
29173SOL    HW289527   1.611   5.394   4.203  0.7768 -0.6011  1.0566
29174SOL     OW89528   0.985   3.003  10.483  0.5070 -0.2583 -0.3488
29174SOL    HW189529   1.071   2.970  10.456  0.1731 -2.0924  0.6144
29174SOL    HW289530   1.004   3.063  10.555  1.0465  0.3243 -0.9677
29175SOL     OW89531   3.117   0.691  10.312 -0.5609 -0.6052  0.5505
29175SOL    HW189532   3.156   0.619  10.362  0.4713  0.9069  2.0522
29175SOL    HW289533   3.024   0.687  10.335  0.1056  1.2974  4.5680
29176SOL     OW89534   5.108   6.005   9.048  0.5323 -0.6461  0.0108
29176SOL    HW189535   5.110   6.095   9.016 -0.5540 -0.4563  0.4317
29176SOL    HW289536   5.199   5.976   9.045  1.5973  1.7401  3.3709
29177SOL     OW89537  10.579   1.044   6.914  0.2906 -0.0948 -0.1995
29177SOL    HW189538  10.583   1.118   6.974  1.6049 -1.3386  1.3472
29177SOL    HW289539  10.567   1.083   6.827 -2.9309  1.7237  0.9111
29178SOL     OW89540   9.307   4.149   6.010 -0.1011  0.4789  0.0543
29178SOL    HW189541   9.278   4.082   5.948  1.4833  0.3308 -0.5778
29178SOL    HW289542   9.249   4.139   6.086  0.0229 -1.5389 -0.0666
29179SOL     OW89543   1.809   5.582  10.600  0.2526 -0.0100  0.3079
29179SOL    HW189544   1.850   5.585  10.686  1.4359  0.9682 -0.2633
29179SOL    HW289545   1.822   5.492  10.569 -0.1665 -0.3590  1.1275
29180SOL     OW89546   7.616   5.059   5.744  0.0342  0.3645  0.4176
29180SOL    HW189547   7.639   4.969   5.765 -0.9902 -0.1382 -0.5082
29180SOL    HW289548   7.523   5.056   5.723  0.2490  1.4097 -0.8180
29181SOL     OW89549   4.305   3.006   5.377  0.0669  0.3598  0.2339
29181SOL    HW189550   4.217   2.982   5.407  0.1039  0.0117  0.0729
29181SOL    HW289551   4.305   3.102   5.378  0.3021  0.3703  2.0049
29182SOL     OW89552   7.710   6.905   1.035 -0.0282  0.4765 -0.0300
29182SOL    HW189553   7.766   6.927   0.961  0.4621  1.1185  0.5244
29182SOL    HW289554   7.628   6.952   1.019  0.1598  0.7942 -0.0548
29183SOL     OW89555   4.701   9.117   1.515 -0.7104  0.1170  0.3326
29183SOL    HW189556   4.729   9.197   1.560  0.5243 -1.1692  1.9572
29183SOL    HW289557   4.606   9.115   1.528 -0.4587  0.0254  2.5639
29184SOL     OW89558   3.230   5.457   6.690  0.7204 -0.3369 -0.3578
29184SOL    HW189559   3.325   5.448   6.701  1.3710  1.8045 -3.1411
29184SOL    HW289560   3.206   5.530   6.748  0.4019 -1.8970  1.5641
29185SOL     OW89561   2.725   6.231   9.090 -0.2738 -0.1174 -0.3522
29185SOL    HW189562   2.807   6.198   9.053 -0.4920  1.1956 -2.1278
29185SOL    HW289563   2.672   6.153   9.104  1.0760 -0.9401  0.3676
29186SOL     OW89564   8.590   5.068   7.990 -0.6292  0.4439 -0.5418
29186SOL    HW189565   8.589   4.987   7.939  0.7005  0.4431 -0.6113
29186SOL    HW289566   8.535   5.050   8.066  1.5236 -1.4320  0.7185
29187SOL     OW89567   5.116   5.933   1.537 -0.0094  0.0689 -0.8182
29187SOL    HW189568   5.083   6.023   1.543 -0.4583 -0.0958 -0.8015
29187SOL    HW289569   5.071   5.896   1.462 -0.2461 -0.3160 -0.4893
29188SOL     OW89570  10.585   2.454   8.343 -0.0654  0.0703 -0.3015
29188SOL    HW189571  10.564   2.450   8.250 -0.1294 -1.2724 -0.2478
29188SOL    HW289572  10.500   2.442   8.387 -0.0699  0.9239 -0.0584
29189SOL     OW89573   9.588   6.698  11.209 -0.0680 -0.5481 -0.1008
29189SOL    HW189574   9.590   6.679  11.303 -2.1227  0.1823  0.1543
29189SOL    HW289575   9.550   6.620  11.169 -2.0618  0.2537  0.1044
29190SOL     OW89576   2.929   3.507   1.062 -0.0200 -0.4516 -0.0011
29190SOL    HW189577   2.873   3.551   1.126  0.1308  1.5151 -1.1524
29190SOL    HW289578   3.005   3.479   1.113  0.2188  1.2926  0.6756
29191SOL     OW89579   1.492   4.113   6.397 -0.4110 -0.3055  0.3365
29191SOL    HW189580   1.441   4.164   6.334 -0.4484  0.0674  0.6616
29191SOL    HW289581   1.451   4.133   6.482 -1.0068 -1.5898  0.3684
29192SOL     OW89582   5.016  10.352   0.440  0.2786 -0.0015 -0.3100
29192SOL    HW189583   5.091  10.293   0.441  0.1162 -0.2323 -1.0402
29192SOL    HW289584   5.054  10.439   0.436  0.5237 -0.0280  0.9281
29193SOL     OW89585   8.018   0.957   4.928 -0.4793  0.1795 -0.5230
29193SOL    HW189586   8.035   1.018   4.856 -0.2235  0.4858 -0.2046
29193SOL    HW289587   8.104   0.931   4.959 -0.5667  1.1923  0.6350
29194SOL     OW89588  11.196   2.473   9.900 -0.0475  1.0208  0.2663
29194SOL    HW189589  11.109   2.495   9.933 -0.3101  1.8943 -0.9225
29194SOL    HW289590  11.218   2.545   9.841  0.2546 -0.5463 -1.6652
29195SOL     OW89591   4.519   2.237   7.554 -0.5743  0.0715 -0.4868
29195SOL    HW189592   4.542   2.249   7.462  2.8468 -3.0528 -0.2901
29195SOL    HW289593   4.509   2.142   7.565 -2.5005  0.4439  2.1177
29196SOL     OW89594   9.966  10.789   3.814 -0.4428 -0.5987  0.1104
29196SOL    HW189595   9.951  10.880   3.840 -1.9150 -0.6368 -0.5039
29196SOL    HW289596   9.899  10.739   3.860  0.0545 -1.3235  0.0764
29197SOL     OW89597   0.084   3.272   1.409  0.1335 -0.2523  0.3296
29197SOL    HW189598   0.030   3.200   1.375  1.5918 -1.5511  0.6344
29197SOL    HW289599   0.022   3.344   1.421 -1.4878 -1.5814  0.4574
29198SOL     OW89600   0.327   7.085   9.682  0.4083  0.2283  0.1229
29198SOL    HW189601   0.417   7.101   9.655  0.0237  1.8681 -0.3103
29198SOL    HW289602   0.274   7.123   9.613 -0.6176  0.1690  0.8490
29199SOL     OW89603   5.193  11.280   9.118 -0.4499 -0.3992  0.3597
29199SOL    HW189604   5.132  11.214   9.086 -1.5614  0.7629 -0.0055
29199SOL    HW289605   5.270  11.270   9.063 -0.6263 -1.3382  0.2675
29200SOL     OW89606   0.845   9.233   2.141 -0.5232 -0.0343 -0.0130
29200SOL    HW189607   0.774   9.169   2.148 -0.9226  0.3075 -0.7986
29200SOL    HW289608   0.813   9.298   2.078  0.8241 -0.3313 -1.0435
29201SOL     OW89609   2.715   1.691   1.951 -0.1086  0.5079 -0.4496
29201SOL    HW189610   2.629   1.701   1.991  0.5252  0.0571  1.0867
29201SOL    HW289611   2.742   1.603   1.975  1.5076  1.2463  0.6120
29202SOL     OW89612  10.584   1.488   3.870  0.0948  0.2050  0.2682
29202SOL    HW189613  10.557   1.580   3.864 -0.1742  0.2000  1.2400
29202SOL    HW289614  10.680   1.491   3.864  0.0992  0.5723  0.4999
29203SOL     OW89615   0.251   9.257   1.710  0.4600 -0.5109 -0.5507
29203SOL    HW189616   0.178   9.202   1.738 -1.0727  2.4711  1.9381
29203SOL    HW289617   0.218   9.308   1.637 -0.4847  1.5831  1.2225
29204SOL     OW89618   0.881   8.940   1.377 -0.7659  0.0766  0.2232
29204SOL    HW189619   0.860   8.849   1.394 -0.9852  0.4429  2.1321
29204SOL    HW289620   0.802   8.988   1.401 -1.3717  0.6825 -2.6073
29205SOL     OW89621   9.362   0.365   1.121  0.0179  0.0725  0.3094
29205SOL    HW189622   9.448   0.406   1.110 -0.9205  1.6197 -2.1124
29205SOL    HW289623   9.317   0.421   1.185  0.5465 -0.3666  1.0898
29206SOL     OW89624   3.817   0.119   7.024 -0.4666 -0.1362 -0.1627
29206SOL    HW189625   3.768   0.084   7.098 -4.0957  1.4154 -1.5796
29206SOL    HW289626   3.794   0.061   6.951  1.4910 -0.4953 -0.5603
29207SOL     OW89627   0.673   0.037   2.070  0.4375  0.0094  0.3937
29207SOL    HW189628   0.630   0.014   1.987 -0.1375  0.7763  0.4747
29207SOL    HW289629   0.620  -0.005   2.137  0.6777 -0.2813  0.4057
29208SOL     OW89630   5.986   0.283   1.562  0.3577  0.7506 -0.6790
29208SOL    HW189631   5.923   0.234   1.615  0.2731  1.3224 -0.2414
29208SOL    HW289632   5.967   0.256   1.472  1.0384 -0.8382 -0.3749
29209SOL     OW89633   6.995   8.089   7.240 -0.0662 -0.2532 -0.0138
29209SOL    HW189634   7.018   8.117   7.329  0.6267 -0.7839 -0.0181
29209SOL    HW289635   6.918   8.034   7.252  0.4056 -0.8560  0.3468
29210SOL     OW89636   0.235   0.389   5.131 -0.6312  0.0387 -0.7269
29210SOL    HW189637   0.209   0.369   5.221 -3.6520 -1.2934 -1.7695
29210SOL    HW289638   0.226   0.484   5.123  0.2268  0.2461  0.4891
29211SOL     OW89639   2.555  10.237   5.979 -0.7184 -0.5409 -0.5605
29211SOL    HW189640   2.630  10.181   5.997 -1.0588 -0.4866  1.2110
29211SOL    HW289641   2.486  10.203   6.035 -1.6217  0.2258 -1.1912
29212SOL     OW89642   5.563   7.890   1.974 -0.0734 -0.1312  0.0336
29212SOL    HW189643   5.600   7.849   1.895  0.2490 -1.0861  0.6639
29212SOL    HW289644   5.481   7.843   1.989  0.2686 -0.5206  0.7248
29213SOL     OW89645   3.132   4.091   1.129  0.3393 -0.4032  0.3599
29213SOL    HW189646   3.126   4.119   1.220  0.1951 -0.2081  0.2905
29213SOL    HW289647   3.059   4.134   1.086  3.1270  3.6293 -0.9312
29214SOL     OW89648   9.776   2.751   9.336 -0.2799  0.0542  0.3587
29214SOL    HW189649   9.724   2.829   9.355 -0.8792 -0.1833 -0.2685
29214SOL    HW289650   9.720   2.678   9.362  0.5351 -0.1663  1.5654
29215SOL     OW89651   4.707   1.104   2.964 -0.0211  0.0682  0.4135
29215SOL    HW189652   4.798   1.133   2.958  0.0924 -0.3741 -0.0949
29215SOL    HW289653   4.656   1.177   2.928  0.3553 -0.8152 -2.1127
29216SOL     OW89654   1.795   7.111   7.962  0.5401 -0.1860 -0.0706
29216SOL    HW189655   1.839   7.117   7.877  0.0495  2.6299 -0.2278
29216SOL    HW289656   1.862   7.135   8.026  0.1044  0.8734  0.0044
29217SOL     OW89657   3.983   9.112   9.439 -0.1453  0.2139  0.1639
29217SOL    HW189658   4.007   9.097   9.348  0.9050 -4.5457  0.9679
29217SOL    HW289659   4.049   9.173   9.471 -0.5567  2.0292 -2.1422
29218SOL     OW89660   8.443   8.010  11.100 -0.2398  0.5346  0.4247
29218SOL    HW189661   8.518   7.991  11.044 -1.1232 -1.4091 -0.2157
29218SOL    HW289662   8.430   8.104  11.092 -0.0593  0.4024 -2.3508
29219SOL     OW89663   7.018   3.210   6.563 -0.7685 -0.3616  0.5113
29219SOL    HW189664   7.027   3.271   6.490  0.7943 -0.2839  0.7351
29219SOL    HW289665   6.964   3.139   6.528  1.0018 -0.9711 -1.1850
29220SOL     OW89666   8.121  10.898  10.973  0.7968  0.2282 -0.7058
29220SOL    HW189667   8.163  10.935  10.895 -0.1690  1.5092 -0.6473
29220SOL    HW289668   8.186  10.908  11.042  0.8551  1.1031 -0.8746
29221SOL     OW89669   5.321  10.068   7.582 -0.2160 -0.1408  0.0020
29221SOL    HW189670   5.413  10.072   7.554 -0.1473 -1.0648  0.0621
29221SOL    HW289671   5.323  10.017   7.663 -1.0085 -2.1574 -1.1660
29222SOL     OW89672   5.282   7.465   3.446 -0.1974 -0.5946 -0.0661
29222SOL    HW189673   5.226   7.531   3.486  1.4244  0.9995 -0.2807
29222SOL    HW289674   5.320   7.418   3.520 -0.6247 -0.6560  0.1194
29223SOL     OW89675   9.237   4.632   5.387  0.5087 -0.3258  0.0345
29223SOL    HW189676   9.281   4.618   5.303  0.5028 -0.0523 -0.0139
29223SOL    HW289677   9.231   4.544   5.425 -0.1074 -0.5519 -0.5569
29224SOL     OW89678   8.230   5.451   1.980  0.2925  0.0294  0.3257
29224SOL    HW189679   8.219   5.475   2.072  1.8435  1.6869  0.1330
29224SOL    HW289680   8.322   5.426   1.972  0.2227  0.0773 -0.8154
29225SOL     OW89681  10.685   4.633   4.047 -0.3264 -0.1987  0.3090
29225SOL    HW189682  10.738   4.701   4.090  0.4574 -2.2126  2.8212
29225SOL    HW289683  10.748   4.562   4.029 -0.7542  0.2336 -3.8118
29226SOL     OW89684   1.565   5.360   7.330  0.5099 -0.1478 -0.1663
29226SOL    HW189685   1.503   5.306   7.280  1.0903  0.3231 -1.4319
29226SOL    HW289686   1.509   5.418   7.382 -0.2255  1.4243 -2.5201
29227SOL     OW89687   1.253   9.816   0.072 -0.0946 -0.0707 -0.3056
29227SOL    HW189688   1.217   9.903   0.057 -0.0141  0.0239  0.0419
29227SOL    HW289689   1.182   9.766   0.113 -0.4442 -0.4457 -1.3224
29228SOL     OW89690   2.932  11.196   5.178  0.1922  0.2899 -0.0225
29228SOL    HW189691   2.962  11.110   5.151  1.3569  0.6403  0.0918
29228SOL    HW289692   2.837  11.194   5.166  0.2672 -0.8288 -0.4914
29229SOL     OW89693   2.506   3.571   0.976 -0.2962 -0.1797 -0.0152
29229SOL    HW189694   2.558   3.491   0.970  0.6334  0.4662 -0.9617
29229SOL    HW289695   2.563   3.633   1.021  0.4690  1.0526 -2.5347
29230SOL     OW89696   1.435   6.170   0.520 -0.2917  0.1105 -0.3336
29230SOL    HW189697   1.408   6.231   0.452  0.1016  0.5795 -0.0763
29230SOL    HW289698   1.355   6.121   0.542 -0.8173  1.1283  0.0684
29231SOL     OW89699  10.193   5.358   6.356 -0.8435  0.3536  0.4213
29231SOL    HW189700  10.235   5.311   6.283  1.2912  3.8517 -0.8157
29231SOL    HW289701  10.264   5.378   6.416 -1.4995  2.4591  0.5729
29232SOL     OW89702   9.367   4.698   8.998  0.3090  0.0985 -0.1543
29232SOL    HW189703   9.378   4.779   8.947 -0.8784  0.5830  0.3423
29232SOL    HW289704   9.392   4.723   9.087  0.0780 -0.1286 -0.0289
29233SOL     OW89705   4.743  10.240   2.283 -0.6859 -0.2888 -0.1157
29233SOL    HW189706   4.740  10.334   2.267 -0.6444 -0.5575 -1.8789
29233SOL    HW289707   4.679  10.225   2.353 -1.4471  0.9155 -0.5339
29234SOL     OW89708   2.927   9.090   5.386  0.4078  0.2145  0.5153
29234SOL    HW189709   2.943   9.181   5.358  0.9425  0.6029  2.0031
29234SOL    HW289710   2.842   9.068   5.347  1.6766  0.2152 -2.4976
29235SOL     OW89711   1.700   6.974   3.443 -0.1347  0.4438  0.4627
29235SOL    HW189712   1.646   6.957   3.366 -1.8647  2.0982  1.2264
29235SOL    HW289713   1.763   7.040   3.414  0.5310 -0.3871 -0.0284
29236SOL     OW89714   3.906   2.030   9.958 -0.0960  0.9057  1.0320
29236SOL    HW189715   3.814   2.004   9.968 -0.7097  1.7690 -1.6484
29236SOL    HW289716   3.902   2.114   9.913  2.0412  0.9629  0.8808
29237SOL     OW89717  11.117   0.045   9.284 -0.2019  0.2133  0.7239
29237SOL    HW189718  11.177   0.083   9.348  0.2142  0.1820  0.3569
29237SOL    HW289719  11.056  -0.008   9.336  0.9833 -0.9336  0.9760
29238SOL     OW89720   5.912  11.231   1.236  0.7664  0.5502 -0.1864
29238SOL    HW189721   5.920  11.212   1.329  1.0599 -0.4114 -0.3986
29238SOL    HW289722   5.996  11.206   1.198 -0.3799 -2.1971 -1.2022
29239SOL     OW89723   0.175  10.937   1.931  0.1359 -0.4209 -0.3746
29239SOL    HW189724   0.122  11.016   1.943 -0.2304 -0.3362 -2.3315
29239SOL    HW289725   0.255  10.968   1.889  0.7362 -0.8943  0.3808
29240SOL     OW89726   3.183   5.313   5.735  0.1086 -0.4495  0.0832
29240SOL    HW189727   3.174   5.405   5.761 -0.9687 -0.9154  1.4607
29240SOL    HW289728   3.121   5.303   5.663  1.6939  0.3707 -1.4600
29241SOL     OW89729   4.678   6.794   2.380 -0.8085 -0.3777 -0.3801
29241SOL    HW189730   4.701   6.765   2.468  0.3833  1.2417 -0.1031
29241SOL    HW289731   4.596   6.749   2.361 -1.6453 -0.0166  1.9699
29242SOL     OW89732   5.824   2.009   1.664  0.2780 -0.4537  0.3750
29242SOL    HW189733   5.740   2.048   1.687  1.4118  2.4458  0.1402
29242SOL    HW289734   5.846   2.048   1.579  0.7668 -3.1289 -0.8242
29243SOL     OW89735   6.931   4.141   4.473  0.0293 -0.2414  0.3111
29243SOL    HW189736   7.017   4.128   4.514  0.9925  1.1041 -1.1452
29243SOL    HW289737   6.951   4.179   4.387 -2.0238 -0.1481 -0.1804
29244SOL     OW89738   2.452   0.154   7.375 -0.0791 -0.8196  0.2036
29244SOL    HW189739   2.401   0.146   7.294 -1.1201 -2.7138  0.9776
29244SOL    HW289740   2.394   0.200   7.435  0.8570  0.9714 -0.2183
29245SOL     OW89741   9.067  10.783   7.309  0.9191  0.4642 -0.5388
29245SOL    HW189742   9.066  10.703   7.362  1.2394  0.7823 -0.0426
29245SOL    HW289743   9.079  10.752   7.219 -1.6983 -0.2238 -0.7344
29246SOL     OW89744   2.007   4.739   3.686 -0.3170 -0.6471 -0.1559
29246SOL    HW189745   1.918   4.772   3.700 -0.5221 -0.7976 -1.0347
29246SOL    HW289746   1.999   4.681   3.611  0.3142 -1.5700  0.4665
29247SOL     OW89747   1.429   8.857   7.515  0.6261 -0.1775 -0.5728
29247SOL    HW189748   1.353   8.824   7.466 -0.5907 -0.3337  1.3212
29247SOL    HW289749   1.409   8.948   7.533  1.1908 -0.0451 -0.5917
29248SOL     OW89750   9.147   0.052  10.080  0.2638 -0.0719  0.0322
29248SOL    HW189751   9.220   0.008  10.124 -0.6883 -1.0259  0.7077
29248SOL    HW289752   9.166   0.145  10.089  1.4692 -0.3022  0.0637
29249SOL     OW89753   8.266  10.028   0.020 -0.0328  0.3808  0.3443
29249SOL    HW189754   8.174  10.033  -0.008 -0.4523  3.5094  1.8596
29249SOL    HW289755   8.261  10.006   0.113  1.0007 -2.4160 -0.1611
29250SOL     OW89756  10.717   0.456   6.023  0.9038 -0.2237  0.1093
29250SOL    HW189757  10.784   0.477   6.088 -1.1540  0.3301  2.1657
29250SOL    HW289758  10.737   0.366   5.995  3.0828  0.2962 -0.1751
29251SOL     OW89759   9.003   8.147   1.083  0.5862  0.1083 -0.0989
29251SOL    HW189760   9.021   8.223   1.138 -0.1237 -1.0206  1.7982
29251SOL    HW289761   8.924   8.171   1.034  1.6731  1.4269 -1.2821
29252SOL     OW89762   6.818   5.987   4.383  0.0412  0.0492  0.2104
29252SOL    HW189763   6.843   6.077   4.400  1.5575 -0.3078  0.1127
29252SOL    HW289764   6.895   5.949   4.340 -1.6165 -0.5045 -2.5278
29253SOL     OW89765   9.740   4.028   0.795  0.0498 -0.1399  0.1251
29253SOL    HW189766   9.788   3.947   0.776 -2.5886 -2.1687  1.4270
29253SOL    HW289767   9.690   4.008   0.874 -1.0003  2.6822  0.2750
29254SOL     OW89768   5.828   4.576   3.738  0.6270  0.4484 -0.8710
29254SOL    HW189769   5.751   4.632   3.744  0.6543  0.3061  2.5927
29254SOL    HW289770   5.895   4.621   3.790  2.0477 -0.7485 -1.5706
29255SOL     OW89771   6.042   7.596   3.957 -0.1907 -0.3705 -0.3538
29255SOL    HW189772   6.129   7.618   3.992  1.0132  0.7906 -3.6353
29255SOL    HW289773   5.993   7.678   3.962  0.1713 -0.0489 -1.7247
29256SOL     OW89774   5.963   2.429   3.863  0.0072 -0.5506 -0.2993
29256SOL    HW189775   5.894   2.476   3.911 -1.4799 -0.1640 -2.6335
29256SOL    HW289776   5.928   2.341   3.852  0.6705 -0.8500 -0.0447
29257SOL     OW89777   8.960   7.265   1.932 -0.7557 -0.0767 -0.1380
29257SOL    HW189778   9.013   7.295   2.006 -0.5008 -0.8144 -0.0088
29257SOL    HW289779   8.985   7.322   1.859 -0.0577 -0.1676  0.0225
29258SOL     OW89780   1.976   0.807   2.592 -0.0055  0.4617  0.3615
29258SOL    HW189781   1.992   0.724   2.547 -1.2274  0.6918 -0.5674
29258SOL    HW289782   2.064   0.840   2.613  0.5067 -0.8827  0.4324
29259SOL     OW89783   1.206   7.202   9.688 -0.4089 -0.1529  0.9367
29259SOL    HW189784   1.118   7.172   9.668 -0.2195 -0.4622  0.5597
29259SOL    HW289785   1.248   7.214   9.602 -0.0718 -0.0455  1.1128
29260SOL     OW89786   4.801   5.530   1.072  0.0146 -0.1904  0.1654
29260SOL    HW189787   4.862   5.592   1.112 -1.0672  0.1780  1.3220
29260SOL    HW289788   4.851   5.487   1.003  1.4853  0.2829  0.9149
29261SOL     OW89789   3.539   2.687   6.749 -0.3612 -0.3409  0.5550
29261SOL    HW189790   3.614   2.727   6.705 -1.0506  0.2577 -0.0999
29261SOL    HW289791   3.520   2.746   6.822 -0.5835 -0.1484  0.3440
29262SOL     OW89792   0.920   1.597   3.762  0.2656  0.2036 -0.2151
29262SOL    HW189793   0.976   1.641   3.826  2.6891 -0.8922 -1.4454
29262SOL    HW289794   0.853   1.662   3.740  1.3053  1.7726  1.0120
29263SOL     OW89795   7.506   5.500   9.698 -0.1268  0.0981 -0.2946
29263SOL    HW189796   7.511   5.406   9.683 -2.9977 -0.5581  2.0403
29263SOL    HW289797   7.536   5.539   9.616  4.5773 -2.6375 -0.2780
29264SOL     OW89798   1.095   8.586  10.430 -0.2560 -0.6473  0.8114
29264SOL    HW189799   1.091   8.565  10.337  0.5900  0.2999  0.5370
29264SOL    HW289800   1.188   8.581  10.451  0.7272  5.3980 -0.0310
29265SOL     OW89801   2.672   1.280   6.197 -0.5012 -0.3099 -0.0686
29265SOL    HW189802   2.701   1.196   6.162 -1.3478  0.5416 -3.0419
29265SOL    HW289803   2.692   1.344   6.129 -1.4637  1.6542  1.3701
29266SOL     OW89804   8.768   2.435   3.653 -0.1461 -0.3175  0.0634
29266SOL    HW189805   8.679   2.421   3.687  0.0622  0.9381  1.1903
29266SOL    HW289806   8.813   2.353   3.670 -0.7912 -0.5990  0.4547
29267SOL     OW89807   2.731   4.581   6.430  0.0456 -0.3342  0.3774
29267SOL    HW189808   2.736   4.634   6.350 -1.3717 -0.3429  0.2461
29267SOL    HW289809   2.821   4.574   6.460  0.4411  0.8746 -0.4407
29268SOL     OW89810  10.058   0.804   4.647 -0.2052 -0.0263 -0.1534
29268SOL    HW189811  10.111   0.778   4.571 -1.8315 -1.5714 -0.8277
29268SOL    HW289812  10.051   0.899   4.640  0.0033 -0.0981 -1.7343
29269SOL     OW89813   4.242   4.637   5.091  0.5704 -0.1728 -0.2890
29269SOL    HW189814   4.261   4.546   5.117  1.6968 -0.0981 -0.7790
29269SOL    HW289815   4.183   4.629   5.016 -2.0613 -0.4100  1.6530
29270SOL     OW89816   5.729   8.499   8.954  0.2509 -0.9970  0.1596
29270SOL    HW189817   5.698   8.427   8.899 -0.6268 -1.6629  1.4665
29270SOL    HW289818   5.651   8.553   8.969  0.9439  0.3752 -0.9686
29271SOL     OW89819   2.526   0.762   7.280  0.4681  1.3069 -0.4496
29271SOL    HW189820   2.583   0.688   7.300 -0.7243  0.4076 -0.2116
29271SOL    HW289821   2.465   0.765   7.353  0.4734  2.5202 -0.4796
29272SOL     OW89822   2.690   2.249   3.699 -0.2887 -0.4593 -0.0545
29272SOL    HW189823   2.672   2.280   3.610  0.5345  0.7305  0.1687
29272SOL    HW289824   2.782   2.221   3.697  0.0504  0.5460  0.6663
29273SOL     OW89825   1.844   4.992   4.333  0.2470 -0.7068  0.2241
29273SOL    HW189826   1.777   4.999   4.266  1.8759 -1.8758 -1.6258
29273SOL    HW289827   1.873   5.082   4.349  0.2698 -0.4630 -1.1171
29274SOL     OW89828   7.418   5.972   4.841 -0.1064 -0.6654 -0.3222
29274SOL    HW189829   7.429   6.021   4.922  0.7043 -0.3413 -0.6187
29274SOL    HW289830   7.327   5.940   4.844  0.4377 -2.2794  1.6063
29275SOL     OW89831   0.337  10.309   1.948  0.0593  0.3728  0.7372
29275SOL    HW189832   0.351  10.345   1.860 -0.2996 -0.6091  0.2564
29275SOL    HW289833   0.265  10.361   1.984  0.8497  1.4223  0.8451
29276SOL     OW89834   3.767   2.024   9.231  0.1486  0.4335  0.2499
29276SOL    HW189835   3.821   1.991   9.159  1.1612  0.4407  0.9828
29276SOL    HW289836   3.707   1.952   9.251 -0.5318  0.6393 -0.9537
29277SOL     OW89837   1.351   8.813  11.104 -0.0116  0.6332  0.5259
29277SOL    HW189838   1.309   8.730  11.130 -0.3994 -0.0580 -2.0006
29277SOL    HW289839   1.279   8.866  11.069  0.8372  0.1967 -2.0640
29278SOL     OW89840   4.858   4.546  11.067 -0.3929  0.0564 -0.4750
29278SOL    HW189841   4.774   4.586  11.047 -0.6169 -0.0064  0.3269
29278SOL    HW289842   4.897   4.602  11.134  0.0757 -0.0742 -0.6327
29279SOL     OW89843   7.839   2.943   3.171  0.1364  0.4686 -0.6333
29279SOL    HW189844   7.860   2.887   3.245  0.0535  0.1726 -0.8286
29279SOL    HW289845   7.923   2.959   3.128  0.2990  1.2892 -0.0342
29280SOL     OW89846   2.937   0.963   6.767  0.1258  0.1415 -0.1734
29280SOL    HW189847   2.936   0.868   6.777 -1.6162  0.2575  1.2226
29280SOL    HW289848   2.999   0.993   6.833 -1.2424  0.0869  1.1856
29281SOL     OW89849   8.732   3.718   3.024  0.0722  0.0503  0.5561
29281SOL    HW189850   8.685   3.792   2.984  1.3870  0.1728 -0.8710
29281SOL    HW289851   8.824   3.746   3.027  0.8232 -1.9419 -1.2066
29282SOL     OW89852   6.566   5.039   1.676 -0.1860 -0.1914 -0.0748
29282SOL    HW189853   6.633   4.971   1.669  2.2183  1.7541  1.9897
29282SOL    HW289854   6.571   5.087   1.594 -0.6473 -1.3906 -0.8246
29283SOL     OW89855   7.528   8.113   4.040  0.0060 -0.5704 -0.8858
29283SOL    HW189856   7.609   8.131   4.087  0.9142 -0.6965 -2.3440
29283SOL    HW289857   7.471   8.187   4.062  0.8385 -0.0000 -0.5793
29284SOL     OW89858   4.715   4.441   6.220 -0.4551 -0.7143 -0.2171
29284SOL    HW189859   4.732   4.348   6.230  2.9549 -0.1213  0.6515
29284SOL    HW289860   4.621   4.450   6.237 -0.8254 -3.9013 -0.0229
29285SOL     OW89861   8.666   4.999   0.920  0.2600  0.3009 -0.1148
29285SOL    HW189862   8.686   5.048   0.840  0.9330  1.9044  0.9844
29285SOL    HW289863   8.576   4.970   0.908  0.2678  0.7111 -1.3618
29286SOL     OW89864   2.161   0.179   1.034 -0.2517  0.1903  0.4534
29286SOL    HW189865   2.193   0.249   0.977 -0.2734  0.3507  0.6372
29286SOL    HW289866   2.149   0.221   1.119  0.0071 -0.1011  0.6392
29287SOL     OW89867  10.539   1.991   7.940 -0.2191  0.0093 -0.0010
29287SOL    HW189868  10.561   2.018   8.029  0.3580 -0.6701  0.0709
29287SOL    HW289869  10.613   2.019   7.887  0.6526 -1.8291  0.1564
29288SOL     OW89870   9.712   0.509   4.492  0.2885 -0.4189  0.0358
29288SOL    HW189871   9.779   0.474   4.550  0.8282  1.6008  0.7401
29288SOL    HW289872   9.681   0.588   4.538 -0.7713  0.0601 -1.4459
29289SOL     OW89873  10.587   6.634   5.841  0.0003  0.3862  0.2235
29289SOL    HW189874  10.524   6.694   5.882  0.3616 -0.0681  1.4905
29289SOL    HW289875  10.589   6.661   5.749 -1.8767  0.5469  0.1926
29290SOL     OW89876   7.728   0.304   6.196  0.2143 -0.0179  0.0475
29290SOL    HW189877   7.803   0.248   6.176 -0.4863 -1.2296  0.6580
29290SOL    HW289878   7.753   0.391   6.165  0.6806 -0.9766 -2.5114
29291SOL     OW89879  10.117  10.441   9.214 -0.1133  0.1013 -0.1278
29291SOL    HW189880  10.100  10.350   9.188 -2.1629  0.3951  0.0029
29291SOL    HW289881  10.060  10.455   9.290  1.5091  0.9790  0.9654
29292SOL     OW89882   6.926   8.254   8.441  0.0591 -0.1714  0.0726
29292SOL    HW189883   6.998   8.218   8.492 -0.9578 -1.1555  0.8701
29292SOL    HW289884   6.860   8.184   8.440 -0.0071 -0.1711 -2.5264
29293SOL     OW89885   7.193   9.343   0.866  0.3141  0.5949  0.7228
29293SOL    HW189886   7.274   9.307   0.904  0.7359  0.7266 -0.0303
29293SOL    HW289887   7.223   9.399   0.795 -0.4253  1.1092  0.8136
29294SOL     OW89888   7.489   7.126  10.961 -0.3325  0.4514 -0.4122
29294SOL    HW189889   7.424   7.063  10.994  0.4715  0.1847  0.7010
29294SOL    HW289890   7.571   7.099  11.000  0.4006  1.0319 -1.4951
29295SOL     OW89891   6.498   7.908   3.204  0.3036 -0.4175 -0.0072
29295SOL    HW189892   6.492   7.967   3.280 -0.4148  2.5260 -2.1554
29295SOL    HW289893   6.459   7.826   3.234 -0.2266  0.7186  2.7058
29296SOL     OW89894   9.838   0.203   3.574  0.7499 -0.6849 -0.5756
29296SOL    HW189895   9.846   0.290   3.612 -0.2483 -1.2684  1.0742
29296SOL    HW289896   9.909   0.152   3.613  1.1501 -0.7151 -1.3096
29297SOL     OW89897   9.165   3.415   7.258 -0.3910  0.1249 -0.1508
29297SOL    HW189898   9.144   3.486   7.197  0.5083  1.2628  0.8248
29297SOL    HW289899   9.242   3.446   7.305  1.4367 -2.4402 -1.2295
29298SOL     OW89900   9.809   3.697   8.488 -0.5455  0.0597 -0.2855
29298SOL    HW189901   9.805   3.784   8.449 -2.4834 -0.2210 -0.8461
29298SOL    HW289902   9.851   3.642   8.421  1.6123  0.6991  0.4634
29299SOL     OW89903   0.662   1.831   8.443  0.9303 -0.6389 -0.3471
29299SOL    HW189904   0.654   1.922   8.414 -0.2968 -1.2458 -2.0214
29299SOL    HW289905   0.593   1.820   8.508  1.5247 -0.2222  0.3840
29300SOL     OW89906   9.866   3.546   1.326 -0.2069 -0.3088  0.8698
29300SOL    HW189907   9.924   3.487   1.278 -1.0701 -0.7557  0.3776
29300SOL    HW289908   9.912   3.561   1.409  1.8079  1.2903 -0.4227
29301SOL     OW89909   8.152   7.006   4.570  0.1741 -0.1434 -0.0306
29301SOL    HW189910   8.082   7.059   4.532  2.4660  1.2725 -2.6604
29301SOL    HW289911   8.108   6.927   4.601 -2.4219 -0.0327 -2.9495
29302SOL     OW89912   1.967   8.118   6.075  0.0191  0.4064 -0.0169
29302SOL    HW189913   1.892   8.065   6.049  0.7378 -0.6177 -0.0208
29302SOL    HW289914   2.001   8.153   5.992  1.5508 -1.8475 -0.4020
29303SOL     OW89915   5.397   3.273   9.865  0.5788  0.0395 -0.1095
29303SOL    HW189916   5.346   3.295   9.943 -0.6195  0.6278 -1.0388
29303SOL    HW289917   5.357   3.193   9.831  0.8201  0.0274 -0.3694
29304SOL     OW89918   4.077   8.356   2.751  0.3091 -0.2560  0.4291
29304SOL    HW189919   4.033   8.375   2.834 -0.4192 -0.7315  0.1686
29304SOL    HW289920   4.170   8.355   2.772  0.3552  2.4369  0.6843
29305SOL     OW89921  11.278   5.852   0.853  0.2423  0.4452  0.1979
29305SOL    HW189922  11.289   5.805   0.770  0.7865 -0.0747  0.5567
29305SOL    HW289923  11.233   5.932   0.829 -1.2203 -0.4984 -0.3640
29306SOL     OW89924   9.984  10.220  10.602 -0.8761 -0.1725 -0.3003
29306SOL    HW189925   9.961  10.255  10.688  2.0077  0.7141  0.2351
29306SOL    HW289926  10.024  10.135  10.621  0.7897  0.5026 -0.5538
29307SOL     OW89927   1.621  11.113   3.762  0.2636  0.2103  0.0080
29307SOL    HW189928   1.694  11.118   3.825  2.1564 -1.0987 -1.9340
29307SOL    HW289929   1.555  11.060   3.807  0.8500  0.6938  1.5037
29308SOL     OW89930   0.516   7.904   4.435 -0.0440  0.3894  0.8069
29308SOL    HW189931   0.441   7.925   4.491 -1.2500  1.0206 -0.9528
29308SOL    HW289932   0.513   7.970   4.366  0.1378 -1.5076 -1.1296
29309SOL     OW89933   1.474   6.697   8.878 -0.1565  0.2250 -0.6126
29309SOL    HW189934   1.480   6.609   8.915  0.7422  0.5318  0.0019
29309SOL    HW289935   1.528   6.693   8.799 -1.2858 -0.1593 -1.3911
29310SOL     OW89936   9.423   1.243  10.478 -0.2454  0.0729 -0.2002
29310SOL    HW189937   9.438   1.210  10.390 -4.0295 -2.0066 -0.2921
29310SOL    HW289938   9.375   1.325  10.466  0.2899  0.4170 -0.0338
29311SOL     OW89939   0.567   6.831   2.111 -0.0874 -0.0372 -0.7917
29311SOL    HW189940   0.633   6.817   2.044  0.5870  0.5076 -0.2569
29311SOL    HW289941   0.495   6.875   2.066  0.7636  1.2231 -0.9780
29312SOL     OW89942  10.856  11.026   8.629 -0.1908  0.2838 -0.4256
29312SOL    HW189943  10.776  10.989   8.591 -0.3708  0.0438  0.1780
29312SOL    HW289944  10.927  10.980   8.585 -0.4012 -0.2380 -0.2305
29313SOL     OW89945   3.795   8.009   2.522  0.0922  0.2759 -0.4812
29313SOL    HW189946   3.839   8.068   2.583 -0.5911 -0.8636  1.1661
29313SOL    HW289947   3.702   8.023   2.538 -0.0829 -0.6472 -0.6687
29314SOL     OW89948   0.516   5.687   2.255 -0.5479 -0.1657 -0.4891
29314SOL    HW189949   0.536   5.719   2.167  0.2625 -0.5552 -0.4513
29314SOL    HW289950   0.432   5.641   2.245 -0.8819  0.5016 -0.8775
29315SOL     OW89951   0.824   8.669   1.665  0.7600 -0.5413 -0.3427
29315SOL    HW189952   0.798   8.598   1.724 -0.7745 -0.6463 -1.0986
29315SOL    HW289953   0.854   8.739   1.723 -1.9151 -0.1399  0.6994
29316SOL     OW89954   9.167   6.734   6.861 -0.0224  0.0707  0.0287
29316SOL    HW189955   9.188   6.772   6.946  0.7419  3.5449 -1.5060
29316SOL    HW289956   9.072   6.720   6.864  0.0400 -0.1743  1.5361
29317SOL     OW89957   2.760  10.547   1.533  0.3043  0.5273 -0.2885
29317SOL    HW189958   2.788  10.460   1.505 -1.3214 -0.2280  0.3587
29317SOL    HW289959   2.826  10.573   1.598  0.1976 -0.7121  0.3463
29318SOL     OW89960   4.350   6.293  10.747 -0.1651 -0.1991 -0.5481
29318SOL    HW189961   4.280   6.286  10.681 -0.5795 -1.3371 -0.0211
29318SOL    HW289962   4.348   6.209  10.793 -1.5955  1.3946  2.6351
29319SOL     OW89963   7.952   3.133   8.305 -0.5264 -0.5574 -0.1749
29319SOL    HW189964   7.911   3.215   8.279 -0.6148 -0.6558 -0.3461
29319SOL    HW289965   7.990   3.152   8.391 -0.3808 -0.2810 -0.2956
29320SOL     OW89966   2.764   2.539   5.464  0.9937  0.0611 -0.2717
29320SOL    HW189967   2.843   2.537   5.518  0.1489 -1.4485  1.0188
29320SOL    HW289968   2.795   2.536   5.374  2.4017  0.2823  0.1898
29321SOL     OW89969   8.522   0.967   9.543  0.1921  0.0214 -0.3799
29321SOL    HW189970   8.510   1.042   9.484 -0.4968  1.4575  1.5140
29321SOL    HW289971   8.597   0.991   9.597 -0.5268 -0.2874  0.7830
29322SOL     OW89972  10.630  10.017   8.654 -0.1006 -0.4058 -1.0928
29322SOL    HW189973  10.612   9.972   8.737 -0.3161 -0.3912 -1.1300
29322SOL    HW289974  10.659  10.104   8.680  1.4501 -0.9214 -0.9765
29323SOL     OW89975  10.538   4.561   8.359 -0.3660  0.5362  0.2150
29323SOL    HW189976  10.551   4.566   8.453  0.6992  1.4529  0.0536
29323SOL    HW289977  10.623   4.530   8.325 -1.2083 -1.3091 -0.3420
29324SOL     OW89978   6.219  10.855   1.647 -0.4586  0.3308  0.7272
29324SOL    HW189979   6.206  10.819   1.735  0.0763 -1.8068  0.0066
29324SOL    HW289980   6.205  10.780   1.588  0.8983  1.2757 -0.9038
29325SOL     OW89981   5.324   5.295   9.775 -0.4476 -0.4270 -0.5891
29325SOL    HW189982   5.379   5.275   9.699  2.0829 -1.8798  1.4501
29325SOL    HW289983   5.363   5.374   9.813  0.6447 -1.6633  1.0686
29326SOL     OW89984   8.445   2.091   9.038 -0.2758 -0.3358 -0.9173
29326SOL    HW189985   8.498   2.094   9.118 -0.8637  1.0146 -0.5528
29326SOL    HW289986   8.355   2.100   9.068 -0.6160 -1.2320 -1.6393
29327SOL     OW89987   9.039  11.095   8.641  0.6642  0.2141  0.4906
29327SOL    HW189988   9.007  11.021   8.589  0.8872  1.1592 -1.0791
29327SOL    HW289989   9.119  11.123   8.596  0.2569  1.7762  0.6584
29328SOL     OW89990  10.051   7.112   6.313 -0.2978  0.1843  0.1656
29328SOL    HW189991  10.129   7.122   6.368 -0.3095  0.4182  0.1441
29328SOL    HW289992  10.039   7.199   6.274  0.2818 -0.2190 -0.9702
29329SOL     OW89993   1.577   2.372   1.519 -0.0986 -0.0257 -1.0390
29329SOL    HW189994   1.582   2.466   1.499 -1.0937  0.3864  0.4734
29329SOL    HW289995   1.549   2.332   1.437 -0.8286  1.1572 -1.4022
29330SOL     OW89996   1.506   9.784   9.691 -0.0137 -0.3457 -0.3114
29330SOL    HW189997   1.478   9.871   9.664  0.7032 -0.5396 -1.7783
29330SOL    HW289998   1.489   9.728   9.614  0.6080 -1.2573  0.1885
29331SOL     OW89999   6.954   4.016   8.713 -0.4947 -0.6352 -0.3920
29331SOL    HW190000   6.938   3.935   8.666 -0.8431 -0.6296 -0.2884
29331SOL    HW290001   6.871   4.035   8.757  0.3927 -1.7698  1.9508
29332SOL     OW90002   0.164   2.935   9.800  0.3821 -0.0934 -0.5222
29332SOL    HW190003   0.160   2.956   9.893  0.7792  0.0848 -0.5413
29332SOL    HW290004   0.240   2.983   9.768  0.0792  0.0705 -1.0014
29333SOL     OW90005   8.766   3.187   9.670  0.2210 -0.4335 -0.1843
29333SOL    HW190006   8.716   3.216   9.593  0.1012  0.3920  0.1927
29333SOL    HW290007   8.795   3.268   9.711  0.0351 -0.8579  0.8083
29334SOL     OW90008   2.968   3.087   8.988  0.2539 -0.1669 -0.0783
29334SOL    HW190009   3.046   3.087   8.933  0.3055  3.9424 -0.2998
29334SOL    HW290010   2.994   3.133   9.067 -1.2719 -1.1560  1.0586
29335SOL     OW90011  11.083   5.353   9.401  0.1067 -0.2836 -0.4579
29335SOL    HW190012  11.166   5.389   9.435 -0.1293 -1.1591  1.1813
29335SOL    HW290013  11.053   5.296   9.471 -0.2636 -2.5456 -2.3735
29336SOL     OW90014   2.228   5.063  10.236  0.2088 -0.5573  0.8004
29336SOL    HW190015   2.287   5.136  10.223 -0.9730  0.3130  0.1595
29336SOL    HW290016   2.280   4.985  10.215  0.7886  0.2567 -0.8871
29337SOL     OW90017   8.295   6.012   3.828 -0.0061 -0.9370 -0.6466
29337SOL    HW190018   8.346   5.968   3.760  1.1394  0.4462 -0.7116
29337SOL    HW290019   8.209   5.968   3.825  0.2832 -1.4707 -2.3961
29338SOL     OW90020   1.265   6.565   2.429 -0.2469 -0.0247 -0.1676
29338SOL    HW190021   1.266   6.594   2.338 -0.4897  2.0994  0.4429
29338SOL    HW290022   1.181   6.596   2.463  0.8557  1.4561  1.4057
29339SOL     OW90023   6.598   0.474   3.521  0.3065  0.1369  0.9339
29339SOL    HW190024   6.544   0.510   3.592  0.2892  2.5508 -0.2391
29339SOL    HW290025   6.651   0.547   3.491  1.4934 -1.2477 -0.5059
29340SOL     OW90026   8.934   5.334   5.762  1.5236  0.2348  0.5993
29340SOL    HW190027   8.853   5.350   5.811  0.1837  0.1164 -1.4397
29340SOL    HW290028   8.932   5.399   5.692  1.3007 -2.0027 -1.6145
29341SOL     OW90029   5.520   3.493   9.453 -0.6022  0.3729 -0.2390
29341SOL    HW190030   5.506   3.509   9.360 -0.4914  1.1962 -0.1210
29341SOL    HW290031   5.606   3.452   9.458 -0.8488 -0.1917 -0.5421
29342SOL     OW90032   1.597   3.265  10.341  0.0186  0.3639  0.2324
29342SOL    HW190033   1.503   3.260  10.358 -0.1400  2.7969  0.5052
29342SOL    HW290034   1.605   3.323  10.265  1.3196  1.9009  1.4601
29343SOL     OW90035   8.501   5.157   5.961 -0.2564 -0.0002 -0.8237
29343SOL    HW190036   8.428   5.115   6.007 -0.6548  0.3649 -1.1187
29343SOL    HW290037   8.507   5.111   5.878  1.2836 -1.5303  0.0469
29344SOL     OW90038   0.130   3.347   9.800 -0.0936  0.6096  0.2011
29344SOL    HW190039   0.137   3.332   9.894 -0.0895  1.0198  0.2676
29344SOL    HW290040   0.220   3.356   9.770  0.2134 -3.0831 -0.4637
29345SOL     OW90041   7.743   5.218   7.084 -0.0799  0.1043 -0.3863
29345SOL    HW190042   7.792   5.287   7.039 -0.5853  0.7075 -0.0360
29345SOL    HW290043   7.801   5.189   7.154  0.3478 -0.2079 -0.8592
29346SOL     OW90044   5.068   2.498   7.981  0.2395 -0.2522  0.2855
29346SOL    HW190045   4.974   2.482   7.971 -0.3953  2.7424  0.5261
29346SOL    HW290046   5.099   2.425   8.035 -2.2878 -0.5091  1.5258
29347SOL     OW90047   7.899   1.050   2.612 -0.0711 -0.0525 -0.1478
29347SOL    HW190048   7.973   1.110   2.615 -0.1754  0.0641  3.1979
29347SOL    HW290049   7.936   0.964   2.630 -0.3732 -0.5568 -1.7303
29348SOL     OW90050   2.541   8.236   2.868 -0.5205  0.1013  0.0112
29348SOL    HW190051   2.567   8.322   2.835 -3.0066  1.0940  0.4444
29348SOL    HW290052   2.536   8.247   2.963  0.2970 -0.8954  0.1903
29349SOL     OW90053   8.519  11.012   5.096 -0.7579 -0.0535  0.5285
29349SOL    HW190054   8.554  11.080   5.038 -0.7693 -0.4848  0.0118
29349SOL    HW290055   8.583  11.007   5.167  1.6146 -2.4715 -1.5481
29350SOL     OW90056   8.737   4.861   9.519  0.4660  0.6510 -0.2775
29350SOL    HW190057   8.826   4.847   9.550  0.3571  0.8553  0.1325
29350SOL    HW290058   8.681   4.829   9.590  0.2188  1.7575  0.0504
29351SOL     OW90059  10.430   2.287   3.382  0.2267  0.1637 -0.2639
29351SOL    HW190060  10.374   2.348   3.333 -0.3946  0.4943  0.8278
29351SOL    HW290061  10.369   2.239   3.438  1.0188  0.4195  0.8356
29352SOL     OW90062   2.007   0.272   9.173 -0.1627 -0.0392 -0.6676
29352SOL    HW190063   1.912   0.283   9.179 -0.0413  0.2926  1.8413
29352SOL    HW290064   2.041   0.360   9.158 -0.1436  0.4919  1.9342
29353SOL     OW90065   4.619   5.739  11.064  0.0326  0.2195 -0.2594
29353SOL    HW190066   4.536   5.694  11.046  0.4090  0.0152 -1.5883
29353SOL    HW290067   4.685   5.669  11.058  0.2617  0.2375  1.4864
29354SOL     OW90068   6.457   8.792  10.832 -0.3545 -0.2362  0.5204
29354SOL    HW190069   6.453   8.697  10.826 -1.6222 -0.1934  0.3286
29354SOL    HW290070   6.375   8.817  10.876 -0.5271  0.8231 -0.3509
29355SOL     OW90071   5.533   6.987   7.780  0.7006  0.0657 -0.0592
29355SOL    HW190072   5.517   7.050   7.710  1.5869 -0.1869 -0.5055
29355SOL    HW290073   5.595   6.925   7.742 -0.8084 -1.5976  0.0556
29356SOL     OW90074   7.832   1.168   5.045  0.2172 -0.1917  0.2940
29356SOL    HW190075   7.909   1.225   5.042  0.2820 -0.3183 -0.7188
29356SOL    HW290076   7.867   1.079   5.048  0.1643 -0.3547 -2.0887
29357SOL     OW90077   4.888  10.986   5.234  0.3125 -0.1069 -0.5480
29357SOL    HW190078   4.799  10.952   5.244  0.3686 -0.8558 -2.2446
29357SOL    HW290079   4.882  11.078   5.258 -0.2577 -0.8099  2.2972
29358SOL     OW90080  10.222  10.424  10.975  0.0205 -0.0132  0.3715
29358SOL    HW190081  10.223  10.512  11.011  1.4741 -0.1999  0.8635
29358SOL    HW290082  10.155  10.377  11.025 -0.6374  0.7579  0.2222
29359SOL     OW90083   6.128   8.404   4.198  0.2430  0.5803  0.3972
29359SOL    HW190084   6.198   8.469   4.204  2.3471 -1.5530  0.7546
29359SOL    HW290085   6.159   8.331   4.251 -1.9105 -0.8083 -0.1307
29360SOL     OW90086   7.515   3.965   7.511  0.4816  0.5538  0.3166
29360SOL    HW190087   7.472   3.986   7.428  1.4989  0.4874 -0.2452
29360SOL    HW290088   7.445   3.971   7.576 -0.5184 -0.2054 -0.6452
29361SOL     OW90089   8.689   9.156   3.592  0.5186  1.0326  0.5069
29361SOL    HW190090   8.699   9.202   3.509  0.4363  0.1148 -0.0295
29361SOL    HW290091   8.770   9.173   3.640  1.5536 -0.2228 -0.6906
29362SOL     OW90092   5.301   6.799   7.770  0.1604 -0.1640 -0.2288
29362SOL    HW190093   5.266   6.874   7.722  0.2554 -0.8860 -1.4602
29362SOL    HW290094   5.370   6.836   7.825  2.1025  0.3135 -2.8009
29363SOL     OW90095   6.468   5.316   7.994 -0.2952 -0.0699 -0.1780
29363SOL    HW190096   6.560   5.300   7.974 -0.6766  0.9305 -3.3650
29363SOL    HW290097   6.433   5.356   7.914 -2.4686  3.8716  2.3904
29364SOL     OW90098   9.739   7.016   7.785 -0.1368 -0.3154 -0.1481
29364SOL    HW190099   9.703   6.990   7.701  0.0401 -1.8175  0.2067
29364SOL    HW290100   9.699   7.101   7.803  0.9004  0.7204 -2.3777
29365SOL     OW90101   0.636   9.570  11.047 -0.6283  0.1025 -0.2823
29365SOL    HW190102   0.607   9.569  11.138  0.5760 -0.3148  0.1163
29365SOL    HW290103   0.665   9.660  11.032  0.6860 -0.2021  0.2733
29366SOL     OW90104   1.412  10.279   9.194  0.0098  0.0738  0.8931
29366SOL    HW190105   1.369  10.337   9.257 -0.2230 -0.1043  0.9008
29366SOL    HW290106   1.340  10.243   9.142  0.1513 -0.2019  0.8883
29367SOL     OW90107   8.063  10.088   2.632 -0.0047 -0.2639 -0.3449
29367SOL    HW190108   8.065  10.183   2.621  0.0732 -0.1338  0.7197
29367SOL    HW290109   8.090  10.074   2.722 -0.0566 -1.2992 -0.4859
29368SOL     OW90110   8.663   7.654   2.715  0.0406 -0.0657  0.4584
29368SOL    HW190111   8.567   7.653   2.717 -0.0178  0.0116 -1.0249
29368SOL    HW290112   8.689   7.572   2.758 -0.6388  0.3466  1.7047
29369SOL     OW90113   6.947  10.908   6.911  0.0862  0.2472 -0.2407
29369SOL    HW190114   6.991  10.878   6.831  1.4188 -0.8982  0.8802
29369SOL    HW290115   6.983  10.854   6.980 -3.7144 -1.4427  0.7180
29370SOL     OW90116   7.370   6.362  10.474 -0.0311 -0.0311  0.1783
29370SOL    HW190117   7.430   6.341  10.402  0.9544  3.5659 -0.2205
29370SOL    HW290118   7.402   6.445  10.509 -3.0080  0.5023  1.9989
29371SOL     OW90119   6.088   9.115   9.247  0.8445 -0.6597 -0.4788
29371SOL    HW190120   6.013   9.173   9.235  0.0729 -1.6910 -0.7835
29371SOL    HW290121   6.052   9.027   9.236  1.4127 -1.3955  2.5151
29372SOL     OW90122   3.488   6.714   3.768  0.0756 -0.3173 -0.8773
29372SOL    HW190123   3.530   6.800   3.764 -0.3953 -0.0869 -0.8924
29372SOL    HW290124   3.408   6.724   3.717  0.3430 -0.9532 -1.4388
29373SOL     OW90125   1.525   7.909   6.519 -0.0114  0.7429 -1.3733
29373SOL    HW190126   1.509   8.001   6.543  0.9250  0.9751 -1.5947
29373SOL    HW290127   1.439   7.875   6.495  0.0549  2.5824 -4.7828
29374SOL     OW90128   3.965   3.232   0.335 -0.0989 -0.2180 -0.1808
29374SOL    HW190129   3.889   3.241   0.277 -0.6435 -0.9465  0.4050
29374SOL    HW290130   3.949   3.152   0.384  0.3415  0.3905  0.9968
29375SOL     OW90131  11.165   2.176   3.568 -0.4245  0.3227 -0.2927
29375SOL    HW190132  11.123   2.098   3.532  1.0514 -1.0899  0.8736
29375SOL    HW290133  11.167   2.238   3.496  0.1274 -1.4475 -1.8748
29376SOL     OW90134   6.259   7.114   2.856 -0.2610 -0.3531  0.2826
29376SOL    HW190135   6.224   7.125   2.767 -3.0807  0.5883  1.3915
29376SOL    HW290136   6.186   7.079   2.906  1.1998 -0.6606  2.3118
29377SOL     OW90137   7.691  10.832   9.990  0.2423 -0.0714 -0.5256
29377SOL    HW190138   7.735  10.751  10.015 -0.2462  0.0129  0.6659
29377SOL    HW290139   7.602  10.824  10.025  0.6964  1.7087  1.2379
29378SOL     OW90140   5.040   4.076   3.437  0.1002  0.1952 -0.1580
29378SOL    HW190141   5.071   4.060   3.348 -1.1925 -1.5454 -0.3551
29378SOL    HW290142   5.004   3.992   3.465  2.9890 -0.1725  3.1197
29379SOL     OW90143   1.476   4.297  10.259 -0.1208 -0.4774 -0.2984
29379SOL    HW190144   1.396   4.346  10.278 -0.6728 -0.8915 -1.4147
29379SOL    HW290145   1.531   4.309  10.336 -1.6534 -0.9786  0.9430
29380SOL     OW90146   4.122   5.771   8.063 -0.5057 -0.9331  0.2993
29380SOL    HW190147   4.167   5.833   8.006  0.1159 -0.5592  1.1538
29380SOL    HW290148   4.044   5.817   8.093  0.5178 -0.0693  1.8187
29381SOL     OW90149   6.852  11.264   8.997  0.5648  0.3004  0.5998
29381SOL    HW190150   6.936  11.220   9.012 -0.5819 -1.9019  0.9777
29381SOL    HW290151   6.805  11.253   9.079 -0.3819  0.8010  0.1272
29382SOL     OW90152   1.533   9.409  11.196  0.0304  0.2004  0.5508
29382SOL    HW190153   1.541   9.321  11.159 -0.8538  0.2276  0.2726
29382SOL    HW290154   1.544   9.468  11.122 -2.3831  0.2446  0.1234
29383SOL     OW90155   8.567   4.508   3.764  0.6182 -1.0272 -0.1390
29383SOL    HW190156   8.478   4.485   3.738 -0.3129  0.6736  1.2656
29383SOL    HW290157   8.555   4.583   3.823  3.0913  0.3704 -1.2723
29384SOL     OW90158   9.414   7.434   2.380  0.4429 -0.4479  0.1283
29384SOL    HW190159   9.363   7.505   2.419  0.2735 -0.3778 -0.2222
29384SOL    HW290160   9.430   7.461   2.290  1.0266 -0.5082  0.2071
29385SOL     OW90161   0.236   2.551   0.898 -0.2245  0.0725  0.1111
29385SOL    HW190162   0.154   2.511   0.870  0.3486  0.5961 -2.5593
29385SOL    HW290163   0.213   2.642   0.919 -0.0810  0.9129 -2.8798
29386SOL     OW90164   9.941   0.570   0.649 -0.7511 -0.4202 -0.2245
29386SOL    HW190165   9.934   0.636   0.719  0.8413  0.2857 -0.6790
29386SOL    HW290166   9.897   0.610   0.574  1.4563  0.8129 -0.9298
29387SOL     OW90167   1.774   1.754   6.452  0.0466 -0.1262  0.1642
29387SOL    HW190168   1.742   1.739   6.541  0.1176 -0.5336  0.1227
29387SOL    HW290169   1.710   1.814   6.413  0.2681  0.4257  0.6380
29388SOL     OW90170   9.734   9.088   6.939  0.0734  0.3428  0.4077
29388SOL    HW190171   9.772   9.058   6.856  1.8548  0.8714  0.9722
29388SOL    HW290172   9.681   9.164   6.915  1.1927  0.9686 -0.1910
29389SOL     OW90173   1.212   0.961   4.181  0.3352 -0.2773  0.3816
29389SOL    HW190174   1.287   1.020   4.183 -1.1045  1.6631  0.3781
29389SOL    HW290175   1.141   1.013   4.142 -0.9441 -2.1201  0.0962
29390SOL     OW90176   8.428   0.822   3.316  0.2069  0.1745  0.2255
29390SOL    HW190177   8.485   0.885   3.273 -2.3191  3.0226  0.7308
29390SOL    HW290178   8.445   0.739   3.270  1.1641  1.9457 -2.9173
29391SOL     OW90179   9.270   2.496   5.537 -0.0405  0.1643 -0.2051
29391SOL    HW190180   9.316   2.421   5.499 -2.2479 -1.7750  0.7116
29391SOL    HW290181   9.186   2.499   5.491 -0.5761  1.1557  0.7819
29392SOL     OW90182   9.027   5.237   6.960  0.4482 -0.1559  0.0675
29392SOL    HW190183   9.024   5.141   6.956  3.4826 -0.3453 -0.3282
29392SOL    HW290184   9.058   5.263   6.873  0.1907  1.1579  0.3483
29393SOL     OW90185  10.978   9.745   2.507 -0.0570 -0.4249  0.5164
29393SOL    HW190186  11.049   9.711   2.561  1.0946  2.9817  1.4381
29393SOL    HW290187  11.022   9.804   2.445 -1.8340 -0.6263 -1.0316
29394SOL     OW90188   3.608   8.487   5.643 -0.1627 -0.1907 -0.4939
29394SOL    HW190189   3.585   8.414   5.586  0.3738 -0.1579 -0.7590
29394SOL    HW290190   3.691   8.461   5.684 -1.6996 -1.3069  2.1999
29395SOL     OW90191   0.410   7.807   4.824 -0.2084 -0.6384  0.4672
29395SOL    HW190192   0.354   7.813   4.747 -0.8497 -0.8116  0.9102
29395SOL    HW290193   0.498   7.796   4.789 -0.5753 -1.4881 -0.2446
29396SOL     OW90194  10.596   4.291   9.267 -0.4180  0.5759  0.5205
29396SOL    HW190195  10.514   4.315   9.224 -1.3855  0.7861  2.3808
29396SOL    HW290196  10.580   4.205   9.306 -0.4111  1.3415  2.3607
29397SOL     OW90197   9.647   8.666   6.893  0.0135  0.4430 -0.2824
29397SOL    HW190198   9.677   8.625   6.811 -0.9195  0.9658 -0.9098
29397SOL    HW290199   9.557   8.635   6.904 -1.0374  2.8627 -1.2275
29398SOL     OW90200   2.004   1.344   6.645  0.3656 -0.1465 -0.0772
29398SOL    HW190201   2.016   1.291   6.723  2.9066 -0.2312 -0.4350
29398SOL    HW290202   1.991   1.281   6.574  0.2386 -0.1735 -0.0280
29399SOL     OW90203   9.406   8.722  10.438  0.8553 -0.3461  0.6649
29399SOL    HW190204   9.425   8.808  10.401  1.0479 -0.5314  0.3387
29399SOL    HW290205   9.310   8.716  10.435  0.7798  0.1845  1.4300
29400SOL     OW90206   3.499  10.431   2.367 -0.3669  0.3276 -0.2283
29400SOL    HW190207   3.440  10.389   2.304 -0.2469 -1.7408  0.9540
29400SOL    HW290208   3.579  10.379   2.363 -0.5377 -0.1909  1.9901
29401SOL     OW90209   2.671   3.327  10.111  0.8731  0.2696  0.3153
29401SOL    HW190210   2.606   3.382  10.156 -0.9946 -0.4665 -1.3347
29401SOL    HW290211   2.741   3.388  10.088  0.0828  1.4265  0.8218
29402SOL     OW90212   1.301   3.017  11.166 -0.7627 -0.3682  0.7531
29402SOL    HW190213   1.296   3.019  11.071 -2.7666 -0.0027  0.8182
29402SOL    HW290214   1.380   2.967  11.185  1.1373  1.7510 -1.0726
29403SOL     OW90215   7.912   2.977   0.822 -0.4476  0.4723 -0.2987
29403SOL    HW190216   7.876   2.968   0.910 -1.5433  0.3232 -0.7426
29403SOL    HW290217   7.882   3.064   0.793 -0.4715  0.3393 -0.6834
29404SOL     OW90218  10.192   7.843   1.404 -0.9990 -0.4971 -0.7563
29404SOL    HW190219  10.277   7.886   1.388 -1.1712 -0.3802 -1.3561
29404SOL    HW290220  10.145   7.905   1.459  0.0231 -1.3966  1.2395
29405SOL     OW90221   5.506   3.912   2.404 -0.2163 -0.5462  0.0291
29405SOL    HW190222   5.568   3.984   2.416 -0.1371 -0.8460  1.7581
29405SOL    HW290223   5.422   3.955   2.389  0.1186 -0.1184 -0.6590
29406SOL     OW90224   2.134   4.650   1.335  0.3421  0.3638 -0.4407
29406SOL    HW190225   2.141   4.558   1.310 -0.1406  0.4172 -0.7841
29406SOL    HW290226   2.172   4.698   1.262 -1.9380  0.5685 -1.5675
29407SOL     OW90227   4.818   5.485   5.647 -0.6311  0.2260  0.0840
29407SOL    HW190228   4.842   5.459   5.558  4.6486  1.9841  0.6655
29407SOL    HW290229   4.757   5.416   5.676 -0.2066 -2.0906 -3.7902
29408SOL     OW90230   6.013   7.560   1.214 -0.4133 -0.3781  0.2152
29408SOL    HW190231   6.095   7.512   1.232  0.0997 -0.6191 -2.4107
29408SOL    HW290232   5.992   7.538   1.123 -2.4354  1.1530  0.2517
29409SOL     OW90233   8.239   1.195   9.886  0.2248 -0.0555 -0.6470
29409SOL    HW190234   8.184   1.149   9.949  1.5299 -1.3047 -0.3398
29409SOL    HW290235   8.194   1.277   9.868  0.4927  1.0625  3.0350
29410SOL     OW90236   5.366   1.663   0.483 -0.3685 -0.4564  0.2667
29410SOL    HW190237   5.326   1.749   0.473  1.2838  0.2368 -0.7966
29410SOL    HW290238   5.340   1.614   0.405 -0.3420 -0.4953  0.2820
29411SOL     OW90239   1.953   5.699   7.620  0.1293  0.0346  0.1951
29411SOL    HW190240   1.922   5.651   7.696  1.4685  1.7869  1.9414
29411SOL    HW290241   1.888   5.768   7.606 -0.3486 -0.5470 -0.5848
29412SOL     OW90242   4.249   7.327   1.298  0.3258 -0.0129 -0.1468
29412SOL    HW190243   4.267   7.351   1.389 -1.2857  0.3374  0.1155
29412SOL    HW290244   4.154   7.334   1.290  0.2487 -1.7929 -1.3795
29413SOL     OW90245   9.456   7.981   7.678 -0.2879  0.0399  0.5427
29413SOL    HW190246   9.437   7.936   7.760 -0.8113  0.5104  0.6912
29413SOL    HW290247   9.416   7.926   7.610 -0.3358 -0.0683  0.6589
29414SOL     OW90248   5.090  10.429   7.190 -0.2957  0.4128 -0.0297
29414SOL    HW190249   5.154  10.453   7.256 -1.0227  0.8907  0.5089
29414SOL    HW290250   5.118  10.342   7.160  0.7801  0.7491 -0.0416
29415SOL     OW90251   2.383   6.040   5.921  0.2704  0.3717 -0.1283
29415SOL    HW190252   2.427   6.027   5.837 -1.0705  0.8637 -0.9394
29415SOL    HW290253   2.292   6.016   5.904  0.5748 -2.9555  2.0934
29416SOL     OW90254  11.023   8.408   5.316  0.1538 -0.3511 -1.0656
29416SOL    HW190255  10.968   8.353   5.372  1.0290  0.1908  0.3742
29416SOL    HW290256  11.060   8.348   5.252 -0.0090 -1.1920 -0.3887
29417SOL     OW90257   7.455   0.975   1.297 -0.8365 -0.1212  0.1173
29417SOL    HW190258   7.543   0.938   1.293 -0.9360 -0.2668 -1.0379
29417SOL    HW290259   7.409   0.936   1.223 -1.1828  1.7231 -0.6990
29418SOL     OW90260   5.301   7.983  11.225  0.0062  0.0218 -0.2363
29418SOL    HW190261   5.313   7.921  11.297 -0.0577  1.4876  1.0869
29418SOL    HW290262   5.254   7.933  11.158  0.4613 -1.5075  0.5471
29419SOL     OW90263   5.542   2.326   2.187 -0.2778  0.7652 -0.0547
29419SOL    HW190264   5.603   2.325   2.261 -1.9849  0.5105  1.4259
29419SOL    HW290265   5.574   2.259   2.128  0.5191  0.1873  1.0055
29420SOL     OW90266   4.410   3.928   1.171  0.4855  0.4542  0.1715
29420SOL    HW190267   4.478   3.871   1.136  0.3053  0.4711 -0.2104
29420SOL    HW290268   4.380   3.979   1.095 -0.8883 -0.4886  0.0350
29421SOL     OW90269   7.623  10.822   7.189  0.0436  0.0537  0.3048
29421SOL    HW190270   7.552  10.825   7.253 -0.0334  1.2798  0.1828
29421SOL    HW290271   7.698  10.789   7.238 -0.8501 -2.5209  0.1499
29422SOL     OW90272   7.455   7.463   9.079  0.0184  0.2102  0.2859
29422SOL    HW190273   7.362   7.442   9.077  0.5392 -2.5780  0.2728
29422SOL    HW290274   7.487   7.423   9.160  1.1582  1.3969  0.4525
29423SOL     OW90275   0.794  11.193   3.830 -0.7207  0.0879  0.1930
29423SOL    HW190276   0.704  11.223   3.831 -0.6083  0.4399 -0.1100
29423SOL    HW290277   0.841  11.253   3.888 -0.2632  1.2706 -1.3436
29424SOL     OW90278   1.614   7.894   9.207 -0.7428  0.1754  1.0181
29424SOL    HW190279   1.693   7.852   9.240  0.6231  2.2030  0.5467
29424SOL    HW290280   1.611   7.871   9.114 -0.7361  0.0602  1.0465
29425SOL     OW90281  10.514   7.555   4.776  0.4298 -0.0457 -0.6482
29425SOL    HW190282  10.499   7.620   4.845  0.7368 -1.1387  0.4743
29425SOL    HW290283  10.515   7.606   4.696 -1.5869  1.0878 -0.0434
29426SOL     OW90284   0.758   8.178   2.944 -0.4995 -0.7533  0.1831
29426SOL    HW190285   0.793   8.134   2.868  0.6325 -1.0754  0.8694
29426SOL    HW290286   0.708   8.111   2.991 -0.5335 -0.7601  0.1370
29427SOL     OW90287   4.172   4.230   6.409 -0.4200 -0.1489 -0.3492
29427SOL    HW190288   4.107   4.165   6.382  1.7008 -1.0503 -3.8199
29427SOL    HW290289   4.180   4.289   6.334  3.7650 -1.0127 -0.8270
29428SOL     OW90290   1.369   7.156   9.923 -0.6799 -0.0127 -0.1562
29428SOL    HW190291   1.305   7.167   9.852 -0.7291  1.8691  0.1218
29428SOL    HW290292   1.453   7.149   9.878 -0.7995  0.3352 -0.4442
29429SOL     OW90293   8.241   4.923   9.424 -0.4001  0.3813 -0.1134
29429SOL    HW190294   8.187   4.966   9.490 -2.0183  0.4619 -1.4113
29429SOL    HW290295   8.277   4.846   9.468  0.1754  1.4621  1.3951
29430SOL     OW90296   3.866   9.491   6.975 -0.6735  0.6113 -0.0850
29430SOL    HW190297   3.927   9.542   6.922  4.7556 -3.6919  1.0844
29430SOL    HW290298   3.835   9.422   6.916  1.7248 -1.4629  0.8665
29431SOL     OW90299   7.261   2.356   4.872 -0.3477  0.3686 -0.3315
29431SOL    HW190300   7.228   2.277   4.915  1.7907 -0.7326 -0.5558
29431SOL    HW290301   7.270   2.332   4.780 -1.3132  1.4699 -0.7341
29432SOL     OW90302   0.980   7.946  11.195  0.2211  0.0091  0.4624
29432SOL    HW190303   1.033   8.005  11.141  1.7029  1.3216  3.1668
29432SOL    HW290304   0.983   7.863  11.148  0.0033  1.4061 -2.2897
29433SOL     OW90305   0.506   0.182   7.537  0.0930  0.8590  0.2403
29433SOL    HW190306   0.556   0.152   7.613 -0.8387  1.9888  1.3452
29433SOL    HW290307   0.441   0.243   7.573 -1.6772 -0.0578 -1.2288
29434SOL     OW90308   5.200   6.605   4.915 -0.0302 -0.2262  0.1102
29434SOL    HW190309   5.166   6.593   4.826 -0.5386  0.5162  0.1905
29434SOL    HW290310   5.215   6.700   4.922  4.1352 -0.6711 -0.6266
29435SOL     OW90311   9.884   0.535   1.893  0.2472 -0.4304 -0.7081
29435SOL    HW190312   9.913   0.617   1.932  0.8012 -0.9920  0.0967
29435SOL    HW290313   9.803   0.514   1.940  0.7128 -0.9142 -0.1035
29436SOL     OW90314   3.808   0.290   0.565  0.4079 -0.5177 -0.0598
29436SOL    HW190315   3.859   0.343   0.627 -1.0806  0.3918  0.4440
29436SOL    HW290316   3.780   0.214   0.616 -2.2933  1.0714  1.0267
29437SOL     OW90317   1.827   7.093   9.856  0.3061  0.0022 -0.1774
29437SOL    HW190318   1.821   7.099   9.951  2.6556 -0.0865  0.0268
29437SOL    HW290319   1.749   7.138   9.824 -0.0895  0.7860  1.7790
29438SOL     OW90320   6.728   6.424   4.088  0.0853 -0.4273 -0.1872
29438SOL    HW190321   6.751   6.516   4.100  0.0920 -0.5355  0.6586
29438SOL    HW290322   6.647   6.425   4.037  1.2069 -0.0053 -2.0819
29439SOL     OW90323   5.467   4.575   3.814 -0.0447 -0.2811  0.2492
29439SOL    HW190324   5.532   4.580   3.883  1.0199 -0.7508 -0.6968
29439SOL    HW290325   5.387   4.610   3.854  0.7813  0.3287  1.4161
29440SOL     OW90326   4.732   4.405   2.628  0.1936  0.2090 -0.1310
29440SOL    HW190327   4.792   4.337   2.659 -1.0778 -2.1540 -2.4423
29440SOL    HW290328   4.770   4.435   2.545  0.8134  2.5708  0.9155
29441SOL     OW90329   0.816   6.565   1.438 -0.0112  0.2373  0.2978
29441SOL    HW190330   0.861   6.535   1.518  1.5689 -2.6915 -1.5131
29441SOL    HW290331   0.872   6.635   1.405  0.3232  0.2198  0.8070
29442SOL     OW90332   6.785   4.478   2.383 -0.1055  0.2636  0.1523
29442SOL    HW190333   6.813   4.544   2.320  2.4340 -0.6587  0.1942
29442SOL    HW290334   6.802   4.518   2.469  0.0643  0.1034  0.1944
29443SOL     OW90335   7.127   8.013   7.479 -0.2010  0.2185  0.2068
29443SOL    HW190336   7.116   7.975   7.392 -0.1823  0.1194  0.2468
29443SOL    HW290337   7.079   7.953   7.537  0.6249 -0.2813  0.3978
29444SOL     OW90338   6.136   3.134   1.937 -0.4247 -0.3060  0.4617
29444SOL    HW190339   6.144   3.199   1.867 -0.7038 -2.0162 -1.2352
29444SOL    HW290340   6.225   3.123   1.970  0.1563 -1.1817 -1.2896
29445SOL     OW90341   5.110   4.180  10.702 -0.3189 -0.3970 -0.5575
29445SOL    HW190342   5.067   4.260  10.673 -0.7412 -0.3140  0.2892
29445SOL    HW290343   5.050   4.141  10.765  0.2470 -0.9680 -0.3549
29446SOL     OW90344   6.777   1.646   6.420  0.3131 -0.5632  0.0600
29446SOL    HW190345   6.740   1.732   6.398 -1.2608 -1.0228  0.7975
29446SOL    HW290346   6.727   1.584   6.367  0.0807 -1.1930  0.9915
29447SOL     OW90347   1.825   1.719   9.273  0.0978  0.3406  0.1770
29447SOL    HW190348   1.847   1.637   9.229  0.1257  0.7098 -0.5173
29447SOL    HW290349   1.903   1.774   9.263  0.6077 -0.0372  1.8710
29448SOL     OW90350   2.347   3.026   2.005  0.3695 -0.5613  0.2964
29448SOL    HW190351   2.348   2.964   1.932 -0.9975 -0.7081  0.3884
29448SOL    HW290352   2.290   2.986   2.071  0.8971 -0.0283  1.1058
29449SOL     OW90353   2.024   1.999  10.673 -0.4396 -0.1220  0.4432
29449SOL    HW190354   2.104   1.976  10.626 -0.0221 -3.2034  2.3437
29449SOL    HW290355   1.953   1.978  10.613  0.1128  0.3447 -0.3916
29450SOL     OW90356   8.717   5.794   1.112 -0.7289 -0.6222 -0.7073
29450SOL    HW190357   8.811   5.808   1.097 -0.0762 -1.0388  2.3185
29450SOL    HW290358   8.681   5.882   1.121 -0.5469 -0.4675 -1.4426
29451SOL     OW90359   9.318   2.735   7.414  0.5884 -0.0573  0.3646
29451SOL    HW190360   9.354   2.817   7.447  2.7426 -1.3214  1.3371
29451SOL    HW290361   9.359   2.667   7.468 -1.9011 -1.7555  0.2969
29452SOL     OW90362   7.703   3.584   4.118  0.1376 -0.2273 -0.2566
29452SOL    HW190363   7.667   3.641   4.051  3.3943 -0.5996 -2.5558
29452SOL    HW290364   7.753   3.642   4.175  0.8106 -0.4054 -0.6654
29453SOL     OW90365   0.448  10.218   8.457 -0.0367 -0.1064  0.0071
29453SOL    HW190366   0.501  10.180   8.387  0.3706 -1.0034  0.7763
29453SOL    HW290367   0.466  10.312   8.451  1.6518 -0.3738  0.2163
29454SOL     OW90368   2.011   7.253   6.905  0.2791  0.2492  0.9075
29454SOL    HW190369   1.935   7.288   6.858 -0.5182 -1.5719  0.7664
29454SOL    HW290370   2.080   7.319   6.892 -0.5215  0.7584 -1.1052
29455SOL     OW90371   9.042   5.668   1.912 -0.4823  0.6343 -0.2501
29455SOL    HW190372   9.114   5.612   1.882 -0.6313  0.4541 -0.2724
29455SOL    HW290373   8.995   5.615   1.977 -1.3951  0.2294 -1.2073
29456SOL     OW90374   9.237   2.054   5.652  0.0100 -0.3697  0.1139
29456SOL    HW190375   9.189   1.979   5.618  1.1883 -0.6581 -1.0123
29456SOL    HW290376   9.306   2.016   5.706  1.7285 -0.2752 -1.8806
29457SOL     OW90377   4.684   7.310   8.849  0.0009 -0.2790  0.8173
29457SOL    HW190378   4.660   7.340   8.937 -0.3684  1.2387  0.2290
29457SOL    HW290379   4.604   7.270   8.815 -0.4508  0.8753  0.4748
29458SOL     OW90380   1.673   4.168   9.251 -0.3853  0.1060  0.4810
29458SOL    HW190381   1.698   4.198   9.338  1.1605 -0.1469  0.1501
29458SOL    HW290382   1.579   4.184   9.246 -0.0707  2.5493  1.2151
29459SOL     OW90383  10.030   2.276   3.624 -0.7330  0.6969  0.8506
29459SOL    HW190384   9.939   2.264   3.598  0.0545  0.3629 -2.1258
29459SOL    HW290385  10.034   2.365   3.657 -1.5297  2.1674 -2.5564
29460SOL     OW90386   6.529   7.232   5.102  0.1914  0.5325  0.1585
29460SOL    HW190387   6.546   7.195   5.189 -2.1016 -1.2777 -0.0433
29460SOL    HW290388   6.434   7.244   5.099  0.4019  2.3091 -1.4792
29461SOL     OW90389  10.367   3.818   3.533 -0.0959  0.4366  0.1323
29461SOL    HW190390  10.448   3.857   3.564  0.2980  0.0841 -0.4378
29461SOL    HW290391  10.303   3.888   3.537  1.0915  1.8981 -3.0372
29462SOL     OW90392  10.426   3.428   4.243 -0.4049  0.7103 -0.1036
29462SOL    HW190393  10.402   3.364   4.176  1.4270  0.1571 -0.2894
29462SOL    HW290394  10.342   3.458   4.279 -1.3309 -1.8118  0.0142
29463SOL     OW90395   5.661   1.404   6.994 -0.3071 -0.1500 -0.7645
29463SOL    HW190396   5.663   1.349   6.916 -0.2730 -1.2409 -0.0139
29463SOL    HW290397   5.594   1.364   7.050 -0.4155  0.6884 -0.2714
29464SOL     OW90398   4.157   0.973   7.700 -0.0079 -0.1135  0.8433
29464SOL    HW190399   4.078   1.000   7.654  1.7166  1.7546 -1.2489
29464SOL    HW290400   4.188   1.052   7.745  1.7204 -0.2338 -0.0484
29465SOL     OW90401   9.554   8.086   6.162  0.0582 -0.2901 -0.3402
29465SOL    HW190402   9.508   8.160   6.121  0.8924  1.5632  1.8312
29465SOL    HW290403   9.592   8.038   6.089 -3.8068 -0.9919 -2.1538
29466SOL     OW90404   0.681  10.055   4.777  0.5089 -0.5393  0.3226
29466SOL    HW190405   0.692  10.146   4.807  0.6136  0.0782 -1.4296
29466SOL    HW290406   0.616  10.061   4.707  0.0518 -1.9311  0.6041
29467SOL     OW90407   4.498   5.990   0.557 -0.2948 -0.4258  0.4887
29467SOL    HW190408   4.578   5.972   0.508  1.2322 -0.0101  2.6587
29467SOL    HW290409   4.507   6.081   0.584 -1.1632 -0.5765  1.3403
29468SOL     OW90410   7.416   4.553   9.605  0.5463 -0.8496  0.6763
29468SOL    HW190411   7.373   4.624   9.559  1.2790 -1.6902 -1.4323
29468SOL    HW290412   7.350   4.484   9.611  0.6966 -1.0443  0.1203
29469SOL     OW90413   5.583   5.212   1.324  0.3122 -0.0037  0.1582
29469SOL    HW190414   5.661   5.266   1.318 -0.0866  0.5216 -0.3979
29469SOL    HW290415   5.615   5.127   1.354  1.3198 -0.2890 -1.6210
29470SOL     OW90416   1.003   9.855   0.436 -0.2807 -0.2524 -0.2471
29470SOL    HW190417   1.061   9.893   0.502  0.4870 -0.1119 -0.9915
29470SOL    HW290418   0.918   9.847   0.481 -0.4342  2.1271  0.0303
29471SOL     OW90419   2.550  11.213   1.231 -0.0049  0.0309 -0.2691
29471SOL    HW190420   2.476  11.172   1.187 -0.6706  0.2184  0.6517
29471SOL    HW290421   2.601  11.254   1.160 -0.0608 -1.1984 -1.0490
29472SOL     OW90422   2.975   6.864   3.148  0.5224  0.6339 -0.9704
29472SOL    HW190423   3.013   6.783   3.181 -0.9372  0.3531  0.1646
29472SOL    HW290424   3.022   6.933   3.194 -0.5505  0.2853  0.7453
29473SOL     OW90425   5.438   9.581   5.593 -1.2049  0.0144 -0.4512
29473SOL    HW190426   5.356   9.535   5.574 -0.2004 -3.2266  2.1507
29473SOL    HW290427   5.433   9.600   5.687  0.3572  1.2932 -0.5807
29474SOL     OW90428   8.775   4.266   0.017  0.1491 -0.2051 -0.3197
29474SOL    HW190429   8.759   4.325  -0.056 -0.0155  0.5940  0.3408
29474SOL    HW290430   8.720   4.300   0.088  1.4420 -0.0317  0.6381
29475SOL     OW90431  10.793   8.521  11.036 -0.3597 -0.4453  0.1450
29475SOL    HW190432  10.769   8.430  11.019  1.6408 -1.0999  0.6734
29475SOL    HW290433  10.838   8.520  11.120  0.2038  0.9470 -0.1050
29476SOL     OW90434   0.260   8.359   4.438 -0.0643  0.3238 -0.1014
29476SOL    HW190435   0.219   8.415   4.504  1.7264 -0.4163  1.7455
29476SOL    HW290436   0.354   8.373   4.450  0.3601  0.6813 -3.0245
29477SOL     OW90437   9.758   4.723   2.219 -0.0475  0.8538  0.0959
29477SOL    HW190438   9.803   4.805   2.237  1.3195  0.0352  0.5971
29477SOL    HW290439   9.818   4.674   2.163 -1.4304  0.7150 -1.3605
29478SOL     OW90440   9.215   2.561   8.182  0.0034 -0.5213  0.3659
29478SOL    HW190441   9.231   2.558   8.277 -1.2302  1.2473  0.6904
29478SOL    HW290442   9.300   2.541   8.143  0.3432 -2.1269  1.8178
29479SOL     OW90443   5.692   5.042   6.972  0.3017 -0.7320  0.2035
29479SOL    HW190444   5.742   5.033   7.054  1.5543  3.4116  0.1201
29479SOL    HW290445   5.615   5.093   6.997 -0.6443 -1.6288 -0.8083
29480SOL     OW90446  10.534   5.172   5.504 -0.5609 -0.3326 -0.0543
29480SOL    HW190447  10.546   5.206   5.415  1.1872  0.9383  0.5899
29480SOL    HW290448  10.614   5.198   5.549 -1.4250 -0.9285  1.9025
29481SOL     OW90449  10.691   3.192   0.225  0.3338  0.7039 -0.0456
29481SOL    HW190450  10.724   3.105   0.200 -0.5569  0.4398 -0.3300
29481SOL    HW290451  10.770   3.242   0.246  0.8111 -0.4525  1.0489
29482SOL     OW90452   8.209   9.710   6.046 -0.5460 -0.3506  0.1802
29482SOL    HW190453   8.155   9.634   6.026 -3.2512  1.4091  0.2360
29482SOL    HW290454   8.226   9.751   5.961 -1.6411  0.5297  0.3591
29483SOL     OW90455   3.635   8.462   0.172  0.5893  0.5412  0.2262
29483SOL    HW190456   3.551   8.423   0.150  0.6775 -0.8789  2.1350
29483SOL    HW290457   3.620   8.556   0.165 -1.0223  0.3068  0.1037
29484SOL     OW90458   1.185   3.517   7.724 -0.6464  0.5029 -0.2177
29484SOL    HW190459   1.126   3.577   7.679  1.6911  1.6198 -2.0670
29484SOL    HW290460   1.211   3.563   7.804  0.1159  1.4310 -0.9772
29485SOL     OW90461   4.412   3.669   6.088 -0.3891 -0.1610 -0.0658
29485SOL    HW190462   4.380   3.721   6.014  0.4036 -0.7140 -0.8144
29485SOL    HW290463   4.379   3.581   6.072 -0.8863 -0.1200  0.6747
29486SOL     OW90464  10.334   8.819   8.119 -0.0994  0.2775 -0.4485
29486SOL    HW190465  10.349   8.905   8.160  0.4323 -0.0568  0.0644
29486SOL    HW290466  10.412   8.805   8.066  0.9743 -0.9668  1.3561
29487SOL     OW90467   3.411   3.315   7.542  0.3356 -0.3573  0.0445
29487SOL    HW190468   3.483   3.355   7.494  1.2038 -0.6612  1.0635
29487SOL    HW290469   3.426   3.221   7.535 -0.5175 -0.4548 -0.5631
29488SOL     OW90470   4.671   9.325   3.290  0.4318 -0.3232  0.0578
29488SOL    HW190471   4.620   9.396   3.252 -0.2973 -1.2592 -0.7796
29488SOL    HW290472   4.638   9.246   3.247 -0.6048 -1.4999  2.8244
29489SOL     OW90473   5.687   7.009   3.902  0.3137 -0.1046 -0.6493
29489SOL    HW190474   5.761   6.996   3.961  0.3271 -0.4488 -0.7365
29489SOL    HW290475   5.661   7.100   3.915  0.1722 -0.2404  0.0612
29490SOL     OW90476  10.218   8.609   5.556  0.0906  0.5167  0.3095
29490SOL    HW190477  10.189   8.518   5.572  1.3071  0.0646  0.0079
29490SOL    HW290478  10.290   8.601   5.495 -1.5443  1.9176 -1.9550
29491SOL     OW90479   0.476   8.020   4.986  0.4402 -0.3846 -0.0956
29491SOL    HW190480   0.442   7.937   4.953  1.2499 -1.6485  2.0088
29491SOL    HW290481   0.532   8.053   4.916  0.2111 -1.7071 -0.9314
29492SOL     OW90482   4.448   2.547   5.840  0.4056  0.6263  0.1416
29492SOL    HW190483   4.516   2.484   5.862 -1.3186 -1.6173 -0.4392
29492SOL    HW290484   4.398   2.558   5.921 -0.3491 -0.2252 -0.1836
29493SOL     OW90485   1.766   6.087   8.027  0.6123  0.4850 -0.0542
29493SOL    HW190486   1.722   6.045   8.102 -0.0557  1.6056  0.2018
29493SOL    HW290487   1.793   6.173   8.060 -0.7542  1.4817 -1.4217
29494SOL     OW90488   1.092   6.465   8.896 -0.0468 -0.1195  0.0425
29494SOL    HW190489   1.093   6.535   8.961 -0.5203 -0.9371  0.9567
29494SOL    HW290490   1.166   6.409   8.920  0.3972  0.0956 -0.7490
29495SOL     OW90491   0.784   7.442   7.395 -0.0585 -0.2640 -0.5970
29495SOL    HW190492   0.716   7.407   7.338  0.3461  1.2804 -2.0826
29495SOL    HW290493   0.865   7.400   7.364 -0.0251 -0.4966 -0.2073
29496SOL     OW90494   2.748   4.477   7.881 -0.2726  0.3458  0.5418
29496SOL    HW190495   2.700   4.554   7.912 -2.3761 -0.2933 -0.9319
29496SOL    HW290496   2.777   4.501   7.793 -2.5837 -1.1101 -0.7110
29497SOL     OW90497   1.060   2.382   4.787 -0.1298 -0.0746  0.8776
29497SOL    HW190498   0.971   2.359   4.761  0.5278 -2.3507  0.4025
29497SOL    HW290499   1.116   2.339   4.722  1.3556  0.1774  1.9353
29498SOL     OW90500   8.082   2.720   1.634  0.1399  0.2770  0.0495
29498SOL    HW190501   8.149   2.653   1.647 -0.1625 -0.1777 -0.6652
29498SOL    HW290502   8.105   2.761   1.550 -0.5329  0.0311 -0.2670
29499SOL     OW90503   3.793   3.052   6.948  0.3315 -0.0960 -0.1944
29499SOL    HW190504   3.875   3.042   6.997  1.1106 -1.5193 -1.6946
29499SOL    HW290505   3.744   2.972   6.966 -0.3355  0.3441 -0.0271
29500SOL     OW90506   2.145   2.405   7.043  0.4555 -0.1973  0.4895
29500SOL    HW190507   2.103   2.439   6.964  0.6811  2.9911  1.5762
29500SOL    HW290508   2.082   2.343   7.079 -1.5775  1.4196 -0.0436
29501SOL     OW90509   9.992  10.251   0.786  0.0477 -0.4755  0.0657
29501SOL    HW190510   9.934  10.178   0.766  0.3391 -0.8792  0.6635
29501SOL    HW290511   9.964  10.321   0.727  0.2601 -1.3108 -1.0718
29502SOL     OW90512   8.780   4.011   5.046  0.0090  0.2786 -0.1906
29502SOL    HW190513   8.838   3.977   4.978 -0.7888 -0.0559 -0.7137
29502SOL    HW290514   8.696   3.968   5.030 -0.0938 -0.1211  1.2452
29503SOL     OW90515   7.727   0.671  10.486 -0.3994  0.2114 -0.4319
29503SOL    HW190516   7.694   0.584  10.466  1.7307 -0.5460 -0.9756
29503SOL    HW290517   7.652   0.729  10.475 -1.5393 -1.3870 -1.4159
29504SOL     OW90518   4.610   9.522   6.540 -1.1519  0.3746 -0.3953
29504SOL    HW190519   4.661   9.589   6.587 -2.1755  0.0146  1.3052
29504SOL    HW290520   4.535   9.570   6.505 -1.9543  0.1463  0.9348
29505SOL     OW90521   4.038  11.270   9.112 -0.4962 -0.7683  1.2657
29505SOL    HW190522   4.060  11.312   9.029  0.0797  0.4735  2.0169
29505SOL    HW290523   3.967  11.209   9.090 -0.9843  0.2024  0.0291
29506SOL     OW90524   9.230   8.187   6.527  0.1369  0.2458  0.1918
29506SOL    HW190525   9.282   8.267   6.514 -0.0482  0.1961 -0.9240
29506SOL    HW290526   9.267   8.148   6.606  0.7383  1.0393  0.3219
29507SOL     OW90527   0.449  10.865   4.072  0.6923 -0.5007 -0.0141
29507SOL    HW190528   0.411  10.953   4.069 -0.1347 -0.7167  2.3060
29507SOL    HW290529   0.494  10.856   3.988 -1.6793  0.9815 -1.5740
29508SOL     OW90530   6.633   7.583   8.381 -0.4088 -0.0138  0.1691
29508SOL    HW190531   6.705   7.645   8.386 -1.1454  0.7840  1.4119
29508SOL    HW290532   6.576   7.606   8.455  1.1818 -4.5436  3.2701
29509SOL     OW90533   6.295   3.553   8.898 -0.3273 -0.1137 -0.2549
29509SOL    HW190534   6.239   3.504   8.958  1.1762 -1.5528  0.0269
29509SOL    HW290535   6.368   3.495   8.880  1.1584  1.7507 -0.5263
29510SOL     OW90536   9.708   9.795   2.492  0.2125 -0.4974  0.1184
29510SOL    HW190537   9.740   9.866   2.437  2.9751 -2.0637 -0.4769
29510SOL    HW290538   9.741   9.816   2.580  0.2728 -0.6118  0.1231
29511SOL     OW90539   4.740   0.988   3.855 -0.1738 -0.0774 -0.4325
29511SOL    HW190540   4.688   1.063   3.881 -0.9619 -1.5966  3.0289
29511SOL    HW290541   4.736   0.986   3.760 -1.2208  3.4047 -0.5610
29512SOL     OW90542   1.938   9.903   7.625 -0.1653  0.2731  0.1803
29512SOL    HW190543   1.928   9.815   7.590 -2.0152  1.1713 -1.8043
29512SOL    HW290544   1.918   9.895   7.718 -0.0431 -1.4184  0.0803
29513SOL     OW90545   8.028   4.401   0.795 -0.2224 -0.3162 -0.7544
29513SOL    HW190546   8.017   4.346   0.873 -1.0136 -0.0768 -0.6827
29513SOL    HW290547   8.106   4.368   0.752 -0.2565 -0.9951 -0.2988
29514SOL     OW90548   3.450   3.576  10.058  0.7431  0.3796  0.5220
29514SOL    HW190549   3.516   3.600   9.993  0.8654  2.4695  1.3386
29514SOL    HW290550   3.492   3.508  10.110  1.7711  0.7350  0.1982
29515SOL     OW90551   2.659   5.374   8.340  0.3275  0.1697  0.4270
29515SOL    HW190552   2.601   5.386   8.415 -0.7981  1.6461 -0.6477
29515SOL    HW290553   2.646   5.452   8.286  1.6121 -0.5475 -0.9858
29516SOL     OW90554   9.770   5.317   3.670 -0.1264 -0.4321 -0.1472
29516SOL    HW190555   9.847   5.364   3.640  1.9724 -2.5726  1.4457
29516SOL    HW290556   9.704   5.384   3.686  1.9883  1.6930  0.0865
29517SOL     OW90557  10.818   2.609   8.308 -0.9781 -0.9873 -0.1985
29517SOL    HW190558  10.794   2.686   8.360  0.2870  0.6558 -1.9029
29517SOL    HW290559  10.756   2.542   8.335 -2.3330  0.7071  1.1669
29518SOL     OW90560  11.181   2.459   3.742 -0.1671  0.2874  0.0543
29518SOL    HW190561  11.158   2.379   3.695 -0.2914  1.1281 -1.3805
29518SOL    HW290562  11.276   2.465   3.736 -0.2080  0.5853 -0.4819
29519SOL     OW90563   8.749   1.864   5.286 -0.3760 -0.1897  0.1856
29519SOL    HW190564   8.843   1.870   5.301  0.3288  2.5855 -3.7194
29519SOL    HW290565   8.718   1.955   5.296 -1.9779 -0.4725 -1.6332
29520SOL     OW90566   6.894   7.075   4.175  0.4500  0.2241  0.2570
29520SOL    HW190567   6.967   7.087   4.235  0.3960 -0.8371  0.5607
29520SOL    HW290568   6.934   7.045   4.094  0.5792  2.1983 -0.4741
29521SOL     OW90569   7.098   9.390   1.497 -0.0787 -0.1728 -0.1194
29521SOL    HW190570   7.062   9.320   1.443 -1.6232 -1.2874  2.1912
29521SOL    HW290571   7.139   9.344   1.570 -0.8646  1.3112  1.2992
29522SOL     OW90572   8.027  10.316   9.329 -0.0328 -0.4931 -0.4419
29522SOL    HW190573   8.037  10.264   9.250  1.6704 -0.3875 -0.3397
29522SOL    HW290574   8.094  10.282   9.389 -1.2113 -0.5101  0.9355
29523SOL     OW90575   4.160   2.533   9.197  0.1123 -0.5060  0.0769
29523SOL    HW190576   4.190   2.623   9.207 -0.0608 -0.4505  0.1042
29523SOL    HW290577   4.169   2.495   9.285  0.6324 -0.6564 -0.0354
29524SOL     OW90578  10.835  10.182   4.199  0.0873  0.6779  0.0402
29524SOL    HW190579  10.903  10.243   4.170  0.6229  0.4371  0.7480
29524SOL    HW290580  10.753  10.219   4.166  0.6284  0.5828 -1.4524
29525SOL     OW90581   6.139   0.504   1.525 -0.0301 -0.1009  0.8523
29525SOL    HW190582   6.131   0.435   1.591 -1.0407  0.3032  1.1708
29525SOL    HW290583   6.202   0.470   1.462 -1.5483 -1.9019  0.2491
29526SOL     OW90584   3.185   0.571   4.260 -0.1650 -0.3416  0.2956
29526SOL    HW190585   3.153   0.606   4.178  1.3442  0.2134 -0.0989
29526SOL    HW290586   3.108   0.534   4.303 -1.1318  0.1737 -0.9465
29527SOL     OW90587   0.223   2.276   1.752 -0.0373  0.5847  0.4595
29527SOL    HW190588   0.159   2.218   1.711  0.9878  0.4000 -0.9857
29527SOL    HW290589   0.179   2.310   1.829 -2.0562  0.8537 -0.7392
29528SOL     OW90590   9.843   9.637  10.941  0.0148  0.5823 -0.0741
29528SOL    HW190591   9.860   9.727  10.913  1.6827 -0.1636 -1.5704
29528SOL    HW290592   9.747   9.630  10.941 -0.1165  1.7290 -2.0380
29529SOL     OW90593   2.278   5.520   8.740 -0.1549 -0.7149 -0.3823
29529SOL    HW190594   2.349   5.532   8.677  0.5621 -0.2366  0.4866
29529SOL    HW290595   2.323   5.511   8.824 -1.0521 -2.1615 -0.0373
29530SOL     OW90596   4.306   7.945   9.145  0.7693 -0.2008 -0.7317
29530SOL    HW190597   4.365   8.005   9.099 -0.2368  0.4566 -1.2001
29530SOL    HW290598   4.297   7.983   9.233  3.0352 -1.6890  0.2539
29531SOL     OW90599   2.956   2.507   4.436  0.5429 -0.4658 -0.4570
29531SOL    HW190600   2.878   2.557   4.409  0.4268 -0.3679  0.0567
29531SOL    HW290601   3.002   2.489   4.354  0.5699  0.4601 -0.6601
29532SOL     OW90602   4.936  10.530   2.799  0.3184  0.2600 -0.2577
29532SOL    HW190603   5.001  10.507   2.866 -0.1656 -1.3190 -0.2801
29532SOL    HW290604   4.884  10.599   2.839 -0.8429 -1.5959  1.6093
29533SOL     OW90605   2.089   1.673   5.076  0.3594 -0.6051 -0.3981
29533SOL    HW190606   2.078   1.583   5.046 -1.4159  0.2239 -2.5535
29533SOL    HW290607   2.019   1.686   5.140 -1.3786  0.0250 -2.3103
29534SOL     OW90608   5.010   9.263  11.019 -0.5814 -0.0852 -0.0600
29534SOL    HW190609   4.954   9.220  10.954  0.0006  0.4840 -0.9708
29534SOL    HW290610   5.070   9.193  11.048  0.0335 -0.0466 -1.1589
29535SOL     OW90611   8.240   2.187  11.030 -0.3726 -0.1786 -0.0867
29535SOL    HW190612   8.243   2.268  11.081 -1.7320 -1.1806  1.7069
29535SOL    HW290613   8.329   2.151  11.037  0.1775  0.9992 -0.6964
29536SOL     OW90614   3.445   3.063  10.343 -0.5666 -0.2154  0.0719
29536SOL    HW190615   3.399   3.108  10.272 -1.6157 -0.3669  0.6279
29536SOL    HW290616   3.529   3.109  10.350 -0.9624  0.6204 -0.4259
29537SOL     OW90617   4.462   6.792   2.016  0.6081 -0.2345 -0.2291
29537SOL    HW190618   4.445   6.816   2.107  0.4837  0.4364 -0.4184
29537SOL    HW290619   4.445   6.698   2.012 -1.4537  0.0776 -0.0237
29538SOL     OW90620   1.401   1.909   0.461  0.3891  0.3756 -0.0218
29538SOL    HW190621   1.422   1.855   0.385  1.7051  0.1221  0.5013
29538SOL    HW290622   1.355   1.985   0.425 -1.2153 -0.8980 -0.8075
29539SOL     OW90623   0.180   3.256   4.546 -0.0890 -0.0411  0.4290
29539SOL    HW190624   0.177   3.167   4.511 -0.9825  0.3325 -0.5000
29539SOL    HW290625   0.196   3.311   4.470 -0.0148  0.6389  0.9263
29540SOL     OW90626   5.459   9.342   6.887  0.1814  0.1418 -0.2433
29540SOL    HW190627   5.436   9.422   6.840  1.0540  0.3296 -0.3639
29540SOL    HW290628   5.458   9.367   6.980  3.4401  1.1780 -0.3522
29541SOL     OW90629   3.062   0.910   3.058 -0.5590  0.7916  0.0986
29541SOL    HW190630   3.093   0.927   3.147  0.9480 -0.8024 -0.0610
29541SOL    HW290631   2.980   0.863   3.069  0.7079 -1.3928  0.7602
29542SOL     OW90632  10.546   9.623  10.371  0.5068 -0.3414 -0.3485
29542SOL    HW190633  10.492   9.626  10.292  1.7798  1.8798 -1.2403
29542SOL    HW290634  10.502   9.680  10.433  1.7564  1.5740 -1.1199
29543SOL     OW90635   9.703   6.976   8.255  0.0594  0.0419  0.3729
29543SOL    HW190636   9.610   6.952   8.256  0.2436 -0.7451 -0.7551
29543SOL    HW290637   9.708   7.051   8.316 -1.4239  0.5436 -0.0685
29544SOL     OW90638   1.091   2.538   7.269  0.4817  0.0092  0.2322
29544SOL    HW190639   1.102   2.446   7.244  0.8732  0.0299  0.3159
29544SOL    HW290640   1.089   2.586   7.186  2.4189  0.1478  0.2084
29545SOL     OW90641   0.731   8.704   3.725  0.2793 -0.1787 -0.2221
29545SOL    HW190642   0.776   8.697   3.809  2.0489 -1.3775 -1.2208
29545SOL    HW290643   0.688   8.790   3.729  1.6808  0.5228  1.2645
29546SOL     OW90644   0.967   2.997   6.815  0.7566  0.1039  0.2315
29546SOL    HW190645   1.052   3.013   6.856  1.6713 -0.0450 -1.4881
29546SOL    HW290646   0.989   2.962   6.728 -1.0563  0.4492 -0.4128
29547SOL     OW90647   8.575   2.879   5.791 -0.0137 -0.0221  0.1078
29547SOL    HW190648   8.552   2.905   5.880  0.3489 -0.1064  0.2279
29547SOL    HW290649   8.601   2.961   5.748 -0.2803  0.0330  0.0483
29548SOL     OW90650   1.296   1.915   9.425  0.5105  0.1065  0.2456
29548SOL    HW190651   1.253   1.847   9.374  2.1727 -1.0970  0.3709
29548SOL    HW290652   1.255   1.909   9.512  0.8163 -0.9150  0.3286
29549SOL     OW90653   3.032   7.324   3.960 -1.0353  0.3038 -0.1302
29549SOL    HW190654   3.056   7.266   4.032  2.5194 -0.8195 -1.9580
29549SOL    HW290655   3.007   7.265   3.889 -0.5426  1.1401 -1.0211
29550SOL     OW90656   0.912   7.463   5.423 -0.5853 -0.6258  0.2752
29550SOL    HW190657   0.822   7.489   5.405 -0.1964 -0.3330 -1.4756
29550SOL    HW290658   0.951   7.540   5.467 -1.0777 -0.6030  0.6722
29551SOL     OW90659   6.682   5.742   2.288 -0.0549 -0.6949 -0.0251
29551SOL    HW190660   6.778   5.741   2.280 -0.1830 -1.1775 -2.1556
29551SOL    HW290661   6.666   5.774   2.376  2.0913 -1.9019  0.9007
29552SOL     OW90662   1.223   9.843   4.938  0.4435 -0.1300  0.1165
29552SOL    HW190663   1.197   9.878   5.024  1.5976 -3.9686  2.2959
29552SOL    HW290664   1.319   9.852   4.937  0.4995 -0.7074 -0.4601
29553SOL     OW90665   9.672   7.711   8.614 -0.1379 -0.9453  0.0001
29553SOL    HW190666   9.621   7.791   8.623  0.5884 -0.4256 -0.4676
29553SOL    HW290667   9.763   7.738   8.622  0.0731 -2.1327  2.8891
29554SOL     OW90668   3.333   0.121   9.058  0.6792  0.1552  0.7260
29554SOL    HW190669   3.284   0.039   9.056 -0.1027  0.5443  2.4799
29554SOL    HW290670   3.267   0.189   9.050  1.4795  0.7141 -3.1772
29555SOL     OW90671   3.065   1.824   4.542 -0.8489  0.5000 -0.1680
29555SOL    HW190672   3.094   1.746   4.495 -1.9889  1.4455 -2.6253
29555SOL    HW290673   3.049   1.794   4.632  2.4774 -1.1752  0.0275
29556SOL     OW90674   0.232   0.471   0.707  0.6132  0.4179  0.1809
29556SOL    HW190675   0.301   0.414   0.740 -0.3805 -1.5812 -0.9683
29556SOL    HW290676   0.156   0.451   0.762  0.1649  0.3846 -0.4385
29557SOL     OW90677   6.840   1.160   6.177  0.2434 -0.4201  0.1194
29557SOL    HW190678   6.913   1.118   6.132  1.0334  0.5970  0.4005
29557SOL    HW290679   6.772   1.092   6.182  0.5877 -0.9219 -1.4855
29558SOL     OW90680   9.012   6.054   7.955 -0.3475 -0.4966  0.6352
29558SOL    HW190681   8.979   6.143   7.971 -0.0373 -0.3346  0.3828
29558SOL    HW290682   9.056   6.060   7.870  0.9873 -0.5149  1.3011
29559SOL     OW90683   1.711   1.566  11.238 -0.2198 -0.0357 -0.1005
29559SOL    HW190684   1.687   1.618  11.161 -0.3479 -0.1733 -0.1527
29559SOL    HW290685   1.780   1.508  11.206 -0.3648 -0.1842 -0.1435
29560SOL     OW90686   5.523   4.739   5.707  0.0847  0.2282 -0.0490
29560SOL    HW190687   5.530   4.806   5.638 -1.1038  0.2142 -0.2020
29560SOL    HW290688   5.551   4.785   5.787 -0.5066  0.8595 -0.1898
29561SOL     OW90689   2.537  10.849   6.214 -0.0009 -0.3097 -0.2902
29561SOL    HW190690   2.518  10.800   6.294  0.8415  2.1911  1.5504
29561SOL    HW290691   2.458  10.900   6.198  0.4362  0.4514 -0.0635
29562SOL     OW90692   7.349   6.329   2.531 -0.1701  0.4307 -0.0681
29562SOL    HW190693   7.345   6.407   2.587 -0.1766  0.0061  0.5358
29562SOL    HW290694   7.381   6.362   2.447 -1.5630  1.3339 -0.2851
29563SOL     OW90695   5.450   8.936   5.670 -0.1505  0.0470  0.1161
29563SOL    HW190696   5.370   8.897   5.704 -0.3492 -1.2840 -1.7367
29563SOL    HW290697   5.442   9.029   5.693 -2.2896 -0.0241 -0.1174
29564SOL     OW90698   6.158   6.492   5.620 -0.1541  0.5118 -0.8349
29564SOL    HW190699   6.091   6.552   5.653  1.1936  2.0139 -0.7143
29564SOL    HW290700   6.216   6.547   5.567  1.2277 -0.6527 -0.6023
29565SOL     OW90701  11.268  11.227   3.165  0.1699 -0.3896  0.3127
29565SOL    HW190702  11.343  11.254   3.218  0.3795  0.0581 -0.2134
29565SOL    HW290703  11.192  11.244   3.221  0.3598  0.4681  0.3182
29566SOL     OW90704   1.824   0.029   7.727  0.1439 -0.3538 -0.5582
29566SOL    HW190705   1.917   0.047   7.709  0.1891 -0.6734 -0.6561
29566SOL    HW290706   1.806  -0.051   7.677 -0.0687 -0.5336 -0.1936
29567SOL     OW90707   8.386   6.491  10.265  0.0883  0.4396 -0.1712
29567SOL    HW190708   8.328   6.565  10.280  0.7418  0.7707  0.8896
29567SOL    HW290709   8.425   6.507  10.180  1.5940  2.3154  0.7794
29568SOL     OW90710   0.805   6.745   3.150 -0.3616  0.2705  0.0632
29568SOL    HW190711   0.843   6.832   3.138  1.7712 -0.7905 -1.4592
29568SOL    HW290712   0.791   6.712   3.062 -0.4864 -1.1996  0.6031
29569SOL     OW90713  10.345   0.943   9.108  0.4509  0.2475  0.2845
29569SOL    HW190714  10.327   0.968   9.017  1.8411  0.8288  0.1419
29569SOL    HW290715  10.418   1.000   9.134 -1.0970  1.4320  2.3880
29570SOL     OW90716   1.238  10.240   1.726  0.1577  0.0238 -0.4246
29570SOL    HW190717   1.197  10.307   1.672 -1.0375 -0.2670  0.0994
29570SOL    HW290718   1.214  10.263   1.816  0.7863 -0.4018 -0.1367
29571SOL     OW90719   2.204   9.188  10.169  0.6140 -0.0177 -0.2051
29571SOL    HW190720   2.233   9.278  10.182  1.5885 -0.4805  1.0640
29571SOL    HW290721   2.277   9.146  10.123  1.4102 -0.8112  1.6590
29572SOL     OW90722   4.625   4.676   6.990 -0.0630 -0.1291 -0.4569
29572SOL    HW190723   4.713   4.709   6.972  1.1390 -2.1168  1.3682
29572SOL    HW290724   4.638   4.585   7.015 -2.5068 -0.1149  1.1865
29573SOL     OW90725   5.067   5.430  10.815 -0.4455  0.0418  0.8245
29573SOL    HW190726   5.027   5.354  10.858 -0.6317 -0.2351  0.1769
29573SOL    HW290727   5.142   5.452  10.870  1.2088 -2.2482 -0.3453
29574SOL     OW90728  10.240   1.962   0.896  0.0097  0.5139  0.3977
29574SOL    HW190729  10.315   1.994   0.845 -1.0047 -0.1610 -1.6216
29574SOL    HW290730  10.234   1.869   0.875  0.2234 -0.0905  2.7157
29575SOL     OW90731   0.679   0.466   1.076 -0.2448 -0.3926 -0.4943
29575SOL    HW190732   0.739   0.417   1.132  1.6190 -0.5366 -2.5098
29575SOL    HW290733   0.594   0.460   1.122  1.2548  0.1326  2.6344
29576SOL     OW90734   1.046   3.840   9.123 -0.4056 -0.3775 -0.0306
29576SOL    HW190735   0.969   3.837   9.180 -0.1053  0.9082  0.4667
29576SOL    HW290736   1.051   3.931   9.095  3.5945  0.8863  3.7057
29577SOL     OW90737   8.330   0.304   9.389 -0.4563 -0.1501  0.2060
29577SOL    HW190738   8.265   0.273   9.327 -0.4866 -0.2589  0.2928
29577SOL    HW290739   8.363   0.386   9.351  0.0925 -0.6181 -0.3450
29578SOL     OW90740   7.158   0.199   3.025 -0.5169 -0.0232 -0.1233
29578SOL    HW190741   7.245   0.213   3.061 -1.6037  1.7083  2.1252
29578SOL    HW290742   7.145   0.273   2.965 -0.5583 -0.1000 -0.2092
29579SOL     OW90743   4.249   0.377   4.448  0.1317  0.4307 -0.9326
29579SOL    HW190744   4.182   0.338   4.505  1.5936 -0.5183  0.2144
29579SOL    HW290745   4.269   0.308   4.384  2.6088 -0.7944  1.0021
29580SOL     OW90746   6.409   1.991   6.158 -0.1707 -0.0742 -0.6273
29580SOL    HW190747   6.343   2.060   6.171 -0.3528 -0.2463 -0.6209
29580SOL    HW290748   6.359   1.917   6.123  0.2700  0.3000 -2.1225
29581SOL     OW90749   4.892   3.066   8.727 -0.1666  0.1276 -0.2565
29581SOL    HW190750   4.800   3.051   8.707 -0.3266 -1.0967  1.2110
29581SOL    HW290751   4.936   2.985   8.702  0.7145  1.0378 -1.8430
29582SOL     OW90752  10.689   0.820   1.858  0.0309  0.1770 -0.5522
29582SOL    HW190753  10.632   0.897   1.858 -0.5252 -0.1797  1.2240
29582SOL    HW290754  10.674   0.780   1.944  2.3071 -0.4357 -0.3743
29583SOL     OW90755   6.112   1.742   5.867 -0.4666 -0.2177 -0.2142
29583SOL    HW190756   6.192   1.780   5.904  0.4171 -0.7184 -1.5481
29583SOL    HW290757   6.098   1.661   5.918 -0.3822  0.0986  0.3149
29584SOL     OW90758   4.428   9.137   9.891 -1.0256  0.4658  0.0439
29584SOL    HW190759   4.382   9.208   9.847 -0.3451  1.7388  1.3079
29584SOL    HW290760   4.406   9.147   9.984 -2.0218 -1.8508  0.1283
29585SOL     OW90761   5.338   5.048   6.477  0.0642 -0.2176  0.6214
29585SOL    HW190762   5.325   5.125   6.423  1.0282  0.2723  1.0615
29585SOL    HW290763   5.425   5.016   6.454 -0.5259 -1.5065  0.0531
29586SOL     OW90764   6.005   9.184   9.813 -0.5686 -0.1406  0.4617
29586SOL    HW190765   5.935   9.216   9.756 -0.3570  1.0239  0.8131
29586SOL    HW290766   6.054   9.263   9.836  1.6969 -1.0491 -0.8510
29587SOL     OW90767  11.137  10.492   5.461 -0.6306  0.2409 -0.4382
29587SOL    HW190768  11.207  10.504   5.397 -0.2548  0.4429  0.0047
29587SOL    HW290769  11.087  10.417   5.427  0.5998 -0.7846 -0.0695
29588SOL     OW90770   3.077   6.389  10.586  0.2738  0.3774 -0.7615
29588SOL    HW190771   3.081   6.301  10.624 -0.3146  0.1284 -1.2609
29588SOL    HW290772   3.162   6.428  10.607  0.1751  0.0419  0.2934
29589SOL     OW90773   1.060   4.258   6.435 -0.1638 -0.8112  0.1788
29589SOL    HW190774   1.026   4.194   6.497  0.2712 -0.8137  0.4163
29589SOL    HW290775   0.981   4.293   6.392 -0.5123 -0.4083  1.1197
29590SOL     OW90776   4.249  10.953   0.638  0.0589  0.2092  0.0809
29590SOL    HW190777   4.207  10.930   0.722 -0.0698  0.9690  0.2300
29590SOL    HW290778   4.287  10.871   0.608  0.5086  0.0204  1.1161
29591SOL     OW90779   2.263   0.902   3.452  0.3908 -0.4425  0.0263
29591SOL    HW190780   2.340   0.959   3.454  1.7899 -2.2670  1.4069
29591SOL    HW290781   2.293   0.822   3.409 -1.8378  0.1331 -2.9178
29592SOL     OW90782  11.270   1.431   9.155  0.0071  0.1309  0.4739
29592SOL    HW190783  11.206   1.384   9.102 -1.4068  0.3093  1.9569
29592SOL    HW290784  11.346   1.373   9.158 -0.7879 -0.9553  0.2567
29593SOL     OW90785   7.336  11.018   9.482 -0.2149  0.2854 -0.1256
29593SOL    HW190786   7.409  10.988   9.429 -0.0886 -1.4614  0.9595
29593SOL    HW290787   7.258  10.984   9.436 -0.1656 -0.3429  0.2488
29594SOL     OW90788   9.808  10.834   9.243 -0.5612  0.0613 -0.1717
29594SOL    HW190789   9.902  10.816   9.248 -0.7588 -0.7879  0.8013
29594SOL    HW290790   9.767  10.747   9.238 -1.3538  0.3513  0.8208
29595SOL     OW90791   8.783   9.327   8.843  0.0803  0.1136 -0.5333
29595SOL    HW190792   8.723   9.399   8.824 -1.0706 -0.7989 -0.4385
29595SOL    HW290793   8.821   9.349   8.928 -0.2972  0.5930 -0.4861
29596SOL     OW90794   8.822   9.599  10.084  0.0498  0.3919  0.5039
29596SOL    HW190795   8.813   9.652  10.004  1.9020 -0.4292 -0.3062
29596SOL    HW290796   8.914   9.608  10.108  0.0971 -1.3903  1.1049
29597SOL     OW90797  10.957   8.393   7.978  0.0286  0.1554 -0.5102
29597SOL    HW190798  11.042   8.436   7.983 -0.2347  1.0369 -2.6093
29597SOL    HW290799  10.938   8.387   7.884 -3.3275  2.2454 -0.1307
29598SOL     OW90800   7.985   2.473   5.498  0.4143 -0.4759 -0.0249
29598SOL    HW190801   7.994   2.533   5.424 -0.3234 -0.1854  0.1174
29598SOL    HW290802   7.893   2.478   5.523  0.7287 -0.2794  1.1558
29599SOL     OW90803   6.594   1.523   1.969  0.3772  0.5707  0.0631
29599SOL    HW190804   6.581   1.586   1.897  0.7101 -1.6419 -2.0791
29599SOL    HW290805   6.508   1.482   1.981  0.7067 -0.2521 -0.2995
29600SOL     OW90806   7.556  10.426   4.059 -0.1902 -0.2324 -0.2385
29600SOL    HW190807   7.589  10.515   4.049  1.1743 -0.3948  2.2165
29600SOL    HW290808   7.528  10.401   3.971  0.3356  2.2363 -1.1791
29601SOL     OW90809   8.156   2.153   2.297 -0.0271 -0.3047  0.0989
29601SOL    HW190810   8.168   2.167   2.203 -0.7294  0.0889  0.0567
29601SOL    HW290811   8.242   2.127   2.329  0.6595  1.3118 -0.3295
29602SOL     OW90812   8.898   4.562   0.396 -0.3574 -0.1925 -0.1614
29602SOL    HW190813   8.869   4.471   0.399  1.5280 -0.8303  0.4361
29602SOL    HW290814   8.992   4.558   0.417  0.2041  1.6908 -1.9145
29603SOL     OW90815   3.932   8.240  10.643 -0.1260  0.2613  0.5302
29603SOL    HW190816   3.967   8.324  10.673 -0.7289  0.6360  0.2035
29603SOL    HW290817   3.975   8.175  10.698  0.9135  0.7230  0.2971
29604SOL     OW90818  10.504   5.199   5.809  0.2769 -0.4089  0.4203
29604SOL    HW190819  10.462   5.115   5.828 -0.7676  0.0189  0.1092
29604SOL    HW290820  10.431   5.257   5.785  0.9762  0.5883  0.6473
29605SOL     OW90821   8.987   9.936   0.467 -0.5986 -0.0834 -0.1590
29605SOL    HW190822   8.906   9.902   0.429  1.5253 -2.0002 -3.5181
29605SOL    HW290823   9.032   9.978   0.394  1.8436  0.1565  1.3663
29606SOL     OW90824   9.617   6.720  10.691  0.3249 -0.3074  0.2257
29606SOL    HW190825   9.636   6.650  10.754 -0.2919  0.2291  1.0312
29606SOL    HW290826   9.525   6.741  10.706 -0.1037 -0.8031 -1.5206
29607SOL     OW90827   9.776   8.167   3.401 -0.2698 -1.0599  0.3078
29607SOL    HW190828   9.720   8.198   3.472 -0.1558 -0.1963  0.0383
29607SOL    HW290829   9.832   8.101   3.442  1.7785  1.4242  1.7692
29608SOL     OW90830   7.546   7.821   2.197  0.7512 -0.2896  0.5084
29608SOL    HW190831   7.525   7.817   2.290 -0.0830  0.0352  0.3483
29608SOL    HW290832   7.545   7.730   2.167  4.1821 -0.7556  1.4399
29609SOL     OW90833   4.525   3.922   6.167  0.4232 -0.2721  0.5703
29609SOL    HW190834   4.518   3.827   6.166 -0.8521 -0.1975 -1.0433
29609SOL    HW290835   4.540   3.946   6.076 -1.9742  1.1915  0.4746
29610SOL     OW90836   4.341   8.645   1.990 -0.1640 -0.1482 -0.4148
29610SOL    HW190837   4.309   8.587   2.060 -0.0079  2.6013  2.1308
29610SOL    HW290838   4.278   8.717   1.990  2.4253  2.2663  0.3116
29611SOL     OW90839   1.599   6.851   3.206 -0.3022  0.0924 -0.1184
29611SOL    HW190840   1.585   6.875   3.114  0.6813 -0.9746 -0.5688
29611SOL    HW290841   1.575   6.759   3.211 -2.7445  0.7028  1.2938
29612SOL     OW90842   6.974   4.071   6.912  0.3218  0.0173  0.5196
29612SOL    HW190843   7.010   4.021   6.985  1.3975 -0.3841 -0.2618
29612SOL    HW290844   6.940   4.004   6.852  0.3408  0.2969  0.1954
29613SOL     OW90845   9.398   0.644   3.238 -0.4613  0.0471  0.9452
29613SOL    HW190846   9.485   0.605   3.244 -0.9529 -1.2604  0.0732
29613SOL    HW290847   9.338   0.569   3.245 -1.4701  0.7892  0.4085
29614SOL     OW90848   9.048   4.180  10.273 -0.5355  0.0187  0.1725
29614SOL    HW190849   8.990   4.224  10.211  0.2675  1.5352  0.4516
29614SOL    HW290850   9.005   4.191  10.358  0.3317  1.5454  0.4473
29615SOL     OW90851   1.204   5.383  10.040  0.2684  0.7241  0.2169
29615SOL    HW190852   1.135   5.432  10.083 -2.2059 -0.4340 -2.1564
29615SOL    HW290853   1.195   5.293  10.072 -0.9163  0.0782 -1.7434
29616SOL     OW90854   8.818   1.619   7.965  0.2462  0.5655  0.1763
29616SOL    HW190855   8.730   1.619   7.927 -0.1750 -0.2675  1.1370
29616SOL    HW290856   8.831   1.710   7.993 -0.1083  0.8001 -0.3857
29617SOL     OW90857   6.284   3.988   4.640  0.5394 -0.6256  0.0336
29617SOL    HW190858   6.288   3.918   4.576  0.1124 -0.1549 -0.5178
29617SOL    HW290859   6.352   3.966   4.704  0.5752 -1.4037 -0.2620
29618SOL     OW90860  10.011   9.759   6.425 -0.4710 -0.0497 -0.7165
29618SOL    HW190861  10.030   9.665   6.431 -2.6690 -0.6161 -1.5212
29618SOL    HW290862  10.067   9.790   6.354  0.3251 -0.7418 -0.4071
29619SOL     OW90863   7.496   2.387  10.043 -0.1018  0.0220 -0.0722
29619SOL    HW190864   7.459   2.356  10.126  0.8057 -1.3696 -0.1468
29619SOL    HW290865   7.449   2.336   9.976 -0.2405  0.5257 -0.3599
29620SOL     OW90866  10.446  10.046   9.837  0.4322 -0.0104 -0.2394
29620SOL    HW190867  10.396  10.081   9.763 -2.2903 -0.2362  1.3729
29620SOL    HW290868  10.475  10.124   9.885 -0.8951  0.1297  0.3667
29621SOL     OW90869   9.877   2.317   7.475  0.4189  0.5555 -0.5863
29621SOL    HW190870   9.808   2.324   7.541 -0.3912 -0.4448 -1.3136
29621SOL    HW290871   9.906   2.408   7.462  1.8628  0.6637  2.4002
29622SOL     OW90872   1.629   0.828   7.217  0.2475  0.3678  0.0559
29622SOL    HW190873   1.706   0.781   7.250  1.2239  2.5900  1.2179
29622SOL    HW290874   1.663   0.914   7.191 -1.9987  1.9709  1.9621
29623SOL     OW90875   9.624   0.706   9.717  0.0820 -0.4690 -0.7131
29623SOL    HW190876   9.551   0.644   9.722 -0.5698  0.3670  0.9159
29623SOL    HW290877   9.639   0.718   9.624 -1.5193 -1.0580 -1.0761
29624SOL     OW90878  10.547   9.598   2.399  0.4667  0.6692 -0.4536
29624SOL    HW190879  10.485   9.545   2.449 -0.1237  0.9828 -0.8338
29624SOL    HW290880  10.527   9.577   2.308  1.5407  0.0882 -0.5669
29625SOL     OW90881   8.731   8.577   7.640  0.1074 -0.3547  0.9250
29625SOL    HW190882   8.779   8.615   7.713  0.9666 -2.6859  1.6785
29625SOL    HW290883   8.798   8.528   7.591 -0.8674 -0.7271 -0.0812
29626SOL     OW90884   8.223   5.656   4.986  0.2521 -0.5436 -0.3944
29626SOL    HW190885   8.176   5.599   4.926  2.5474 -2.2049 -0.7397
29626SOL    HW290886   8.203   5.621   5.073 -1.1292  0.3685 -0.3070
29627SOL     OW90887  10.770   1.628   4.464 -0.8322 -0.1007  0.0747
29627SOL    HW190888  10.734   1.546   4.432 -1.5730  0.4798 -0.6283
29627SOL    HW290889  10.698   1.669   4.513  0.7967 -1.8795  4.4878
29628SOL     OW90890   6.539   3.883   4.830 -0.3232  0.6038 -0.1234
29628SOL    HW190891   6.577   3.852   4.748  2.4037 -0.4072  1.3809
29628SOL    HW290892   6.517   3.803   4.878 -0.6141  1.1473  0.6637
29629SOL     OW90893   8.403   7.321   7.191  0.5833  0.0477 -0.2545
29629SOL    HW190894   8.331   7.270   7.227 -0.1418  0.6695 -0.8095
29629SOL    HW290895   8.473   7.312   7.256  0.6975 -2.1128 -0.6039
29630SOL     OW90896   6.151   9.212   4.670  0.6210  0.0160  0.6914
29630SOL    HW190897   6.173   9.217   4.577 -0.3206  0.0898  0.4668
29630SOL    HW290898   6.229   9.173   4.710  0.6196 -1.0375 -0.2793
29631SOL     OW90899   2.199   4.845   9.492  0.2716  0.3544 -0.5616
29631SOL    HW190900   2.267   4.870   9.555  0.5250  0.9738 -1.0676
29631SOL    HW290901   2.117   4.854   9.540  0.4701  0.7235 -0.2828
29632SOL     OW90902   5.345  11.090   7.044 -0.0151  0.2443  0.1707
29632SOL    HW190903   5.439  11.104   7.035 -0.2255  0.5480 -2.1184
29632SOL    HW290904   5.330  11.003   7.008 -0.4889 -0.3035  1.6306
29633SOL     OW90905   9.049   4.153   9.727  0.5539  0.3685 -0.0037
29633SOL    HW190906   9.024   4.066   9.696 -0.9589  0.1981  1.5825
29633SOL    HW290907   9.143   4.145   9.745  0.3134 -1.1790  0.8073
29634SOL     OW90908   2.051   4.323   6.033  0.2116  0.5094  0.1701
29634SOL    HW190909   1.987   4.349   5.967  0.5550  2.4251  0.5437
29634SOL    HW290910   2.048   4.227   6.033 -1.3363  0.5239 -1.0893
29635SOL     OW90911   5.742   4.498   0.356  0.5327 -0.2863  0.0706
29635SOL    HW190912   5.686   4.422   0.369  0.4253 -0.3949 -0.9350
29635SOL    HW290913   5.693   4.571   0.395 -0.6688 -0.2499 -1.3978
29636SOL     OW90914   5.815   3.718   2.582  0.5793  0.1911  0.3245
29636SOL    HW190915   5.744   3.664   2.547  0.0995 -1.5025  3.5678
29636SOL    HW290916   5.894   3.665   2.572  0.4078 -0.3828  1.8793
29637SOL     OW90917   8.900  10.514   8.012  0.5597  0.1790 -0.4533
29637SOL    HW190918   8.919  10.577   7.943  2.8848 -1.4401 -1.4241
29637SOL    HW290919   8.957  10.539   8.084 -0.8518  1.0305  0.4217
29638SOL     OW90920   2.497   0.074   0.552 -0.3293 -0.1777  0.3191
29638SOL    HW190921   2.589   0.099   0.561  0.1679 -1.3953 -1.0101
29638SOL    HW290922   2.499  -0.019   0.533 -1.9177 -0.4393  1.2351
29639SOL     OW90923   2.942   9.406   0.003  0.2800  0.6409  0.2262
29639SOL    HW190924   2.997   9.342   0.046 -0.0337 -0.1317 -0.5010
29639SOL    HW290925   2.924   9.471   0.071  0.2784 -0.2384  1.0907
29640SOL     OW90926   4.613   4.018   0.924  0.6818 -0.2624 -0.6069
29640SOL    HW190927   4.598   4.082   0.855 -2.0436  0.0785  0.1720
29640SOL    HW290928   4.651   4.069   0.996 -0.6211  0.3506 -0.3193
29641SOL     OW90929   7.423   2.749   6.918  0.5868 -0.6231  0.0201
29641SOL    HW190930   7.422   2.791   6.831  1.2090 -0.4222  0.1015
29641SOL    HW290931   7.501   2.785   6.961 -0.0212 -0.2987  0.8747
29642SOL     OW90932   2.121   8.436   6.789  0.1720 -0.4083  0.8732
29642SOL    HW190933   2.209   8.472   6.802  0.4808  0.1780 -2.1260
29642SOL    HW290934   2.114   8.423   6.695 -2.1649 -2.6361  1.2318
29643SOL     OW90935   0.491   9.449   0.242 -0.9713  0.5079  0.1144
29643SOL    HW190936   0.406   9.464   0.282 -0.9381  1.0080  0.0009
29643SOL    HW290937   0.489   9.357   0.215 -1.5353  0.5619 -0.0346
29644SOL     OW90938   1.500   6.399   5.567  0.2338  0.0424  0.2845
29644SOL    HW190939   1.412   6.423   5.537  0.9847  0.2632 -1.9100
29644SOL    HW290940   1.524   6.323   5.513  1.0639 -0.5578  1.4595
29645SOL     OW90941   7.756   8.756   7.048  0.6004 -0.2682 -0.6436
29645SOL    HW190942   7.846   8.787   7.053  0.3455  0.3794  0.0685
29645SOL    HW290943   7.738   8.746   6.954  0.7313  1.5937 -0.8859
29646SOL     OW90944   9.701   1.301  10.246 -0.0400 -0.6591  0.4913
29646SOL    HW190945   9.794   1.320  10.241 -0.3248  0.7291  0.0169
29646SOL    HW290946   9.673   1.342  10.328 -1.0335  2.9687 -1.4449
29647SOL     OW90947   9.948   1.123   3.181 -0.6627 -0.1279  0.2594
29647SOL    HW190948   9.965   1.174   3.102 -0.1415  1.7044  1.4932
29647SOL    HW290949   9.889   1.177   3.233 -2.0030 -1.8555  0.6198
29648SOL     OW90950   5.456  10.242   0.587  0.1398 -0.2897 -0.6519
29648SOL    HW190951   5.495  10.156   0.606  0.4074 -0.4059 -1.6581
29648SOL    HW290952   5.452  10.286   0.672  0.1971 -1.2163 -0.1556
29649SOL     OW90953   2.830  10.564   6.713 -0.3505  0.3185 -0.2133
29649SOL    HW190954   2.887  10.487   6.725  0.2197  0.6264 -0.8834
29649SOL    HW290955   2.748  10.528   6.680 -0.3179 -0.0674  0.1103
29650SOL     OW90956   1.440   4.012  10.276  0.8393  0.0492 -0.5881
29650SOL    HW190957   1.399   3.958  10.209  1.5009 -1.0266 -0.1482
29650SOL    HW290958   1.428   4.102  10.244 -0.7065 -0.2969 -1.0854
29651SOL     OW90959   8.707   3.210   8.764  0.0772 -0.8386 -0.1501
29651SOL    HW190960   8.803   3.204   8.766  0.1012 -0.3556  1.1052
29651SOL    HW290961   8.689   3.279   8.700  0.6368  0.0001  0.5774
29652SOL     OW90962   0.244   9.221   2.979  0.2433 -0.3385  0.8333
29652SOL    HW190963   0.221   9.245   2.889  1.7317 -1.7417  0.0412
29652SOL    HW290964   0.168   9.249   3.030 -1.6984 -1.5736 -1.1601
29653SOL     OW90965   1.973   6.140   0.823 -0.0258 -0.1791  0.1011
29653SOL    HW190966   2.013   6.054   0.812 -0.4434 -0.4038  0.3443
29653SOL    HW290967   2.032   6.187   0.881  0.6986  0.0288 -0.7747
29654SOL     OW90968   1.370   2.205   1.947  0.6185 -0.4166 -0.2639
29654SOL    HW190969   1.441   2.177   2.005  0.8765  1.0266  0.1475
29654SOL    HW290970   1.391   2.295   1.924 -1.0610  0.0378 -0.1655
29655SOL     OW90971   3.431   1.651   3.238  0.5533 -0.7242  0.1343
29655SOL    HW190972   3.355   1.612   3.195 -0.6605  0.7385  0.8634
29655SOL    HW290973   3.406   1.658   3.330  1.3188  0.3563  0.2811
29656SOL     OW90974   1.540   0.483   7.025  0.5381 -0.4233  0.7762
29656SOL    HW190975   1.623   0.486   7.072 -0.1484  0.4713  2.0044
29656SOL    HW290976   1.565   0.482   6.933  1.9082 -0.2984  1.1179
29657SOL     OW90977   9.175   5.184   8.812 -0.4725  0.9717 -0.4335
29657SOL    HW190978   9.235   5.230   8.753 -2.6752 -0.0976 -3.8067
29657SOL    HW290979   9.111   5.250   8.838  0.4315  1.4172  0.7106
29658SOL     OW90980   8.630   0.763   4.395  0.0551 -0.1241 -0.1046
29658SOL    HW190981   8.654   0.731   4.308  3.1528  1.5586 -0.0148
29658SOL    HW290982   8.672   0.701   4.455 -0.3671 -0.1432  0.1724
29659SOL     OW90983   3.463   8.823   6.760 -0.4165  0.0464  0.4102
29659SOL    HW190984   3.385   8.818   6.705  0.7172  1.8149 -1.5324
29659SOL    HW290985   3.446   8.897   6.818 -0.2612  0.3529  0.0713
29660SOL     OW90986   1.449   9.833   6.841 -0.2701  0.0417 -0.1599
29660SOL    HW190987   1.472   9.843   6.933  0.2223  0.1145 -0.2898
29660SOL    HW290988   1.386   9.902   6.824  0.1305  0.4399 -0.0436
29661SOL     OW90989   9.890   4.690   0.491  0.1752  1.1969  0.0940
29661SOL    HW190990   9.848   4.645   0.418 -0.7706  2.4765 -0.1970
29661SOL    HW290991   9.931   4.767   0.450  0.1733  1.5930  0.8238
29662SOL     OW90992   1.713   8.867   0.198 -1.1779  0.7873 -0.0660
29662SOL    HW190993   1.719   8.801   0.268 -1.0064  1.1952  0.3100
29662SOL    HW290994   1.649   8.930   0.229 -1.8980  0.4133 -0.7603
29663SOL     OW90995   7.820   1.980   4.247 -0.6254  0.3645 -0.2326
29663SOL    HW190996   7.881   2.020   4.185 -2.6984  1.3127 -1.8144
29663SOL    HW290997   7.866   1.904   4.282  1.1129  0.5478 -1.9748
29664SOL     OW90998   5.649   3.272   1.841 -0.3699 -0.1074  0.1718
29664SOL    HW190999   5.595   3.307   1.769 -1.3438 -1.6088  0.1236
29664SOL    HW291000   5.724   3.232   1.797 -1.1006 -1.2616 -0.0583
29665SOL     OW91001   1.738   2.380   1.961 -0.3753 -0.8049  0.2703
29665SOL    HW191002   1.725   2.294   2.002  1.9374 -1.1646  0.3889
29665SOL    HW291003   1.772   2.435   2.031 -1.2805  0.0642  0.0424
29666SOL     OW91004   1.519   2.222   3.776  0.6237  0.1336 -0.7281
29666SOL    HW191005   1.561   2.155   3.829  1.2470  3.4465  3.5011
29666SOL    HW291006   1.584   2.243   3.708  0.9768 -2.4020 -1.2582
29667SOL     OW91007   5.587   7.096   6.322  0.4488 -0.4848  0.4616
29667SOL    HW191008   5.622   7.022   6.273  0.3467 -0.1095 -0.1847
29667SOL    HW291009   5.643   7.170   6.298  0.0252 -0.1663  0.4428
29668SOL     OW91010   8.278   8.319   3.317  0.0089 -0.6013  0.6227
29668SOL    HW191011   8.281   8.362   3.403 -0.7994 -1.8951  1.3228
29668SOL    HW291012   8.311   8.231   3.333 -0.7737 -1.0740 -0.2562
29669SOL     OW91013  11.137   8.459  10.483 -0.0418  0.4253 -0.5468
29669SOL    HW191014  11.205   8.517  10.519  0.1593  0.0454 -0.3073
29669SOL    HW291015  11.069   8.518  10.453  1.5055  1.0288 -3.2329
29670SOL     OW91016   7.360   4.630   8.194  0.6140  0.0052  0.0282
29670SOL    HW191017   7.309   4.630   8.113  0.1167 -0.2507  0.3383
29670SOL    HW291018   7.321   4.699   8.247  0.3599 -0.4225  0.4049
29671SOL     OW91019   6.475   8.125   8.449  0.0612  0.0922  0.2569
29671SOL    HW191020   6.449   8.037   8.478  0.8113  0.0762  0.9099
29671SOL    HW291021   6.433   8.135   8.363 -2.5337  0.2846  1.4634
29672SOL     OW91022   0.338   6.158   3.835  0.1923 -0.9025  0.2031
29672SOL    HW191023   0.276   6.224   3.806 -0.8227 -2.0095 -0.2567
29672SOL    HW291024   0.408   6.207   3.878 -1.6991  0.3084  2.0631
29673SOL     OW91025   5.613   4.625   4.820  1.1541  0.3384  0.2935
29673SOL    HW191026   5.647   4.593   4.736 -1.3209  0.2776 -0.7718
29673SOL    HW291027   5.579   4.547   4.864  1.9445  0.4529  1.1440
29674SOL     OW91028   0.938   2.093   6.128 -0.0751 -0.2704 -0.2519
29674SOL    HW191029   0.844   2.100   6.145 -0.1440 -1.1804 -0.1686
29674SOL    HW291030   0.972   2.181   6.143 -0.5906 -0.3520  1.6811
29675SOL     OW91031   2.476   9.571   1.952 -0.2320  0.6149  0.0322
29675SOL    HW191032   2.526   9.606   1.878 -0.1378 -0.6723 -0.5504
29675SOL    HW291033   2.400   9.629   1.960  0.1417  1.2030 -0.5999
29676SOL     OW91034   2.007   8.160   8.417  0.2532 -0.0535 -0.0925
29676SOL    HW191035   1.986   8.136   8.327  0.0139  0.6267 -0.2236
29676SOL    HW291036   2.074   8.228   8.409 -0.2595  0.4924  0.2235
29677SOL     OW91037   0.005   6.055   4.153 -0.5020 -0.5967 -0.0399
29677SOL    HW191038   0.038   6.145   4.146 -0.0642 -0.7276  0.2815
29677SOL    HW291039  -0.088   6.065   4.169 -0.9918 -0.2297 -2.5803
29678SOL     OW91040   2.626   8.248   4.285  0.6908 -0.2332 -0.2236
29678SOL    HW191041   2.553   8.243   4.223 -0.5383  1.0038  1.0670
29678SOL    HW291042   2.660   8.337   4.275  2.2515 -0.8720 -0.9958
29679SOL     OW91043   3.682   8.986   5.343  0.0356  0.1764 -0.0964
29679SOL    HW191044   3.623   8.929   5.294  0.7503 -0.7511  0.0923
29679SOL    HW291045   3.742   9.021   5.278 -0.7957  1.2532 -0.3148
29680SOL     OW91046   6.253   2.401   5.952 -0.2791  0.5358  0.0828
29680SOL    HW191047   6.220   2.491   5.946 -1.6069  0.1107  0.6808
29680SOL    HW291048   6.190   2.349   5.903  0.8559 -0.0075 -0.8500
29681SOL     OW91049   1.697   1.161   2.010 -0.2930 -1.0771  0.2552
29681SOL    HW191050   1.653   1.234   1.968  1.4244  1.1697  2.1153
29681SOL    HW291051   1.772   1.142   1.953 -0.3989 -1.0030  0.0901
29682SOL     OW91052  10.487   7.311   0.905  0.1486 -0.3790 -0.5423
29682SOL    HW191053  10.562   7.308   0.964  0.0059 -1.4501 -0.4010
29682SOL    HW291054  10.495   7.396   0.862  0.0538  0.5797  1.2447
29683SOL     OW91055   5.194   4.718   8.126  0.1660  0.3480  0.2311
29683SOL    HW191056   5.272   4.772   8.111 -0.9161  1.6805 -0.8822
29683SOL    HW291057   5.153   4.712   8.040  0.0928 -2.1049  0.3544
29684SOL     OW91058   8.751   1.743   0.796  0.3998  0.5680 -0.4370
29684SOL    HW191059   8.819   1.808   0.816  0.9482  0.5504 -2.1089
29684SOL    HW291060   8.715   1.719   0.882  2.8788  0.1539  0.5628
29685SOL     OW91061   7.813   0.986   7.305  0.5885  0.2924  0.2343
29685SOL    HW191062   7.724   0.988   7.341  0.2486  0.2839 -0.5770
29685SOL    HW291063   7.828   0.895   7.283  0.3296  0.4728 -0.7361
29686SOL     OW91064   4.533   7.951   7.374 -0.3093 -0.5366  0.2707
29686SOL    HW191065   4.562   8.037   7.404  0.3648 -0.7197  0.1534
29686SOL    HW291066   4.477   7.969   7.298  0.4998 -0.2489 -0.2607
29687SOL     OW91067   6.426   9.091  10.250 -0.2852  0.1653 -0.8392
29687SOL    HW191068   6.397   9.179  10.230 -1.1965  0.4471  1.3573
29687SOL    HW291069   6.522   9.096  10.250 -0.2124  2.2088  2.8456
29688SOL     OW91070   5.077  10.841   5.386  0.0089 -0.2908 -0.1309
29688SOL    HW191071   5.040  10.753   5.375 -0.6492 -0.0565  0.1883
29688SOL    HW291072   5.012  10.899   5.348  0.6538  0.0308 -0.7549
29689SOL     OW91073   9.166   3.105   9.385  0.3667  0.8706  0.1719
29689SOL    HW191074   9.082   3.136   9.353 -0.1781  0.6707  1.3625
29689SOL    HW291075   9.220   3.184   9.394 -0.1822  1.1838  0.7883
29690SOL     OW91076   8.728   3.712   0.812  0.0446 -0.1588  0.2280
29690SOL    HW191077   8.746   3.630   0.858  0.9507 -0.8468 -1.2556
29690SOL    HW291078   8.690   3.684   0.729  3.2857  0.6241 -1.6973
29691SOL     OW91079   2.254   0.380  10.293 -0.2299  0.3703  0.5009
29691SOL    HW191080   2.264   0.338  10.208 -2.1941  0.5123  0.1555
29691SOL    HW291081   2.328   0.440  10.299  0.7717 -0.7149 -0.4291
29692SOL     OW91082   1.875   1.412   4.362 -0.0111  0.2032  0.1372
29692SOL    HW191083   1.953   1.419   4.416 -0.0091  1.0322  0.0320
29692SOL    HW291084   1.886   1.478   4.294 -0.2517 -0.4747 -0.5866
29693SOL     OW91085   7.664   9.900   9.042  0.0009  0.1897  0.0048
29693SOL    HW191086   7.628   9.962   8.979 -0.8027 -0.0187  0.2499
29693SOL    HW291087   7.618   9.818   9.025  1.0773 -0.3582 -0.3344
29694SOL     OW91088   9.818   7.531   2.735 -0.4304  0.4349 -0.9656
29694SOL    HW191089   9.874   7.538   2.657  0.0672 -2.8576 -1.0688
29694SOL    HW291090   9.827   7.615   2.779  2.8562  0.8778 -2.1918
29695SOL     OW91091   7.657   2.884   6.955  0.3538 -0.2774 -0.5911
29695SOL    HW191092   7.708   2.965   6.964  0.1394 -0.2473  0.4382
29695SOL    HW291093   7.631   2.882   6.863 -0.1178  1.1142 -0.5072
29696SOL     OW91094   7.163   3.402   9.049 -0.2288  0.3314  0.1463
29696SOL    HW191095   7.169   3.402   9.145  0.3106  0.0635  0.1191
29696SOL    HW291096   7.244   3.446   9.021 -1.1383  1.9049 -0.1585
29697SOL     OW91097   5.346  10.988   9.450  0.6363 -0.0299 -0.0474
29697SOL    HW191098   5.377  10.900   9.469  0.6110  0.3298  1.8868
29697SOL    HW291099   5.389  11.043   9.516  0.9228  1.4625 -1.4183
29698SOL     OW91100   7.742   7.822   3.075  0.4125 -0.4209 -0.1167
29698SOL    HW191101   7.685   7.897   3.057 -1.2613 -1.7335 -0.4883
29698SOL    HW291102   7.744   7.774   2.992  0.7074 -1.2819  0.3853
29699SOL     OW91103   1.176   6.480   1.005  0.3501  0.2061 -0.2820
29699SOL    HW191104   1.089   6.505   0.975  0.5581 -1.3168 -2.3686
29699SOL    HW291105   1.174   6.493   1.100 -1.5489  1.8677 -0.4978
29700SOL     OW91106   3.141   9.917   7.642  1.0259  0.8742  0.1514
29700SOL    HW191107   3.121   9.842   7.586  1.5335 -2.1345  3.6124
29700SOL    HW291108   3.057   9.960   7.656  0.7127  1.0154 -1.8130
29701SOL     OW91109   0.814   1.651   2.741 -0.1882 -0.5415  0.8076
29701SOL    HW191110   0.779   1.616   2.823  1.6358  0.1614  1.9555
29701SOL    HW291111   0.847   1.574   2.694  0.8743 -0.7329  1.8296
29702SOL     OW91112   1.670   1.698   1.627  0.1390  0.4550 -0.5035
29702SOL    HW191113   1.618   1.729   1.701  0.8052 -0.3410  0.3266
29702SOL    HW291114   1.639   1.749   1.552 -1.1722  0.6474  0.1440
29703SOL     OW91115   2.966   6.745   4.215 -0.2112 -0.0257 -0.1575
29703SOL    HW191116   3.008   6.671   4.170 -0.9634 -1.2067  1.0001
29703SOL    HW291117   2.873   6.735   4.194 -0.7038 -1.1080  2.2662
29704SOL     OW91118   5.978   3.206   0.131 -0.5135 -0.5618 -0.0243
29704SOL    HW191119   6.061   3.166   0.106  0.1350 -0.6432  2.0458
29704SOL    HW291120   6.000   3.265   0.203 -2.1404  0.0159  0.0553
29705SOL     OW91121   8.534   4.618   8.541 -0.3258  0.4835 -0.0177
29705SOL    HW191122   8.530   4.548   8.605  0.9083 -0.5466 -1.0058
29705SOL    HW291123   8.627   4.638   8.532 -0.5949  1.7547 -0.3085
29706SOL     OW91124  10.181   3.028   9.526 -0.3663 -0.7475  0.3479
29706SOL    HW191125  10.265   3.013   9.483 -0.7470 -0.6528 -0.4522
29706SOL    HW291126  10.116   3.004   9.461 -0.9639 -0.1755  0.7144
29707SOL     OW91127   1.437   1.575   4.001  0.1574  0.4230 -0.3695
29707SOL    HW191128   1.387   1.510   4.050  0.9824  0.0591 -0.0028
29707SOL    HW291129   1.471   1.527   3.925  0.5372  0.4920 -0.2452
29708SOL     OW91130   5.096   8.427   7.039 -0.2928 -0.7887  0.2013
29708SOL    HW191131   5.028   8.490   7.063 -0.7990 -0.4812 -1.8291
29708SOL    HW291132   5.162   8.435   7.108 -1.6425 -0.0545  1.4614
29709SOL     OW91133   7.278   4.853   9.145 -0.3127 -0.2610  0.2406
29709SOL    HW191134   7.305   4.772   9.100  2.0249 -0.2249  1.4540
29709SOL    HW291135   7.318   4.923   9.094 -1.2990  0.0913 -0.0797
29710SOL     OW91136   8.761   9.067  10.251  0.1219 -0.4923 -0.4147
29710SOL    HW191137   8.686   9.025  10.209  0.1880  1.6718 -3.0240
29710SOL    HW291138   8.836   9.042  10.196  0.5333  0.9822 -0.5780
29711SOL     OW91139   3.065   9.908  10.273  0.1009 -0.0265 -0.3264
29711SOL    HW191140   3.133   9.844  10.295  2.4058  2.4518  0.3196
29711SOL    HW291141   3.032   9.939  10.358 -0.8716 -0.2056 -0.6252
29712SOL     OW91142   5.853   8.236   0.852  0.3367  0.4444 -0.3150
29712SOL    HW191143   5.762   8.262   0.867 -0.0959 -0.6289 -1.0062
29712SOL    HW291144   5.905   8.302   0.898 -0.7871  1.1364 -0.0206
29713SOL     OW91145  10.578   8.244   1.099  0.9665 -0.3490  0.3969
29713SOL    HW191146  10.593   8.214   1.189  1.5012 -0.5600  0.2437
29713SOL    HW291147  10.548   8.167   1.052  2.2670 -0.6457  0.0212
29714SOL     OW91148   3.100   2.035   1.934  0.2929 -0.5318  0.1886
29714SOL    HW191149   3.017   2.065   1.896 -0.3486 -0.5586  1.5432
29714SOL    HW291150   3.157   2.112   1.930 -0.9529  0.6236  2.5151
29715SOL     OW91151   3.561   0.636   7.439 -0.6467 -0.0359 -1.1188
29715SOL    HW191152   3.539   0.605   7.351 -0.1856 -2.2625 -0.5239
29715SOL    HW291153   3.478   0.643   7.484 -0.7263 -1.2603 -1.0424
29716SOL     OW91154   5.895   1.734  10.240 -0.5099 -0.4710 -0.3261
29716SOL    HW191155   5.810   1.764  10.210 -0.4837 -2.5669 -2.8599
29716SOL    HW291156   5.954   1.748  10.166  0.4109 -2.6585 -0.0887
29717SOL     OW91157   3.978   6.555   0.252 -0.0636  0.0399 -0.5643
29717SOL    HW191158   4.033   6.534   0.176  0.1655 -1.2733 -0.0667
29717SOL    HW291159   3.888   6.541   0.220  0.0813 -1.9211 -0.2373
29718SOL     OW91160   7.708   7.350   6.456 -0.6048  0.1352  0.0528
29718SOL    HW191161   7.625   7.369   6.412 -0.4781  0.2436 -0.1407
29718SOL    HW291162   7.682   7.306   6.537 -0.7981 -0.8472 -0.5261
29719SOL     OW91163   5.636   4.463   4.295  0.2767  0.2175  0.3581
29719SOL    HW191164   5.622   4.557   4.291  1.2336  0.3954  0.9647
29719SOL    HW291165   5.548   4.425   4.288 -0.2800  1.1936  1.7568
29720SOL     OW91166   8.114   1.359   6.942  0.1366  0.8017 -0.0542
29720SOL    HW191167   8.152   1.336   7.027  0.4950 -0.9650 -0.6665
29720SOL    HW291168   8.045   1.422   6.964 -0.5815 -0.4955  1.6894
29721SOL     OW91169   4.626   1.553   2.221 -0.2578 -0.3247  0.1473
29721SOL    HW191170   4.638   1.588   2.133  1.1367 -1.0099  0.0290
29721SOL    HW291171   4.587   1.466   2.208  1.1274 -0.9655  0.0947
29722SOL     OW91172   6.123   0.324   5.566 -0.2612 -0.1479  0.6491
29722SOL    HW191173   6.186   0.276   5.512 -0.3490  0.0728  0.3474
29722SOL    HW291174   6.076   0.256   5.613  1.2374 -0.2760  2.0591
29723SOL     OW91175   8.571  10.028   1.454  0.7954 -0.0847 -0.7530
29723SOL    HW191176   8.566  10.123   1.440  0.2955 -0.1766 -1.2122
29723SOL    HW291177   8.501   9.992   1.400 -0.4669 -0.5413  1.0939
29724SOL     OW91178   3.864   9.231   2.977  0.3217  0.3554 -0.3993
29724SOL    HW191179   3.815   9.253   3.057 -0.6853  0.1484 -0.9369
29724SOL    HW291180   3.796   9.215   2.912  1.1086 -0.6940 -0.9867
29725SOL     OW91181   5.561   8.740   7.013 -0.1996  0.2492 -0.4792
29725SOL    HW191182   5.596   8.823   6.981  0.1794 -0.2692 -1.4688
29725SOL    HW291183   5.635   8.680   7.010 -0.1502  0.1780  1.4482
29726SOL     OW91184   2.507   6.540   1.741  0.6046 -0.1036  0.5529
29726SOL    HW191185   2.577   6.594   1.705 -0.2000 -0.7472 -2.1885
29726SOL    HW291186   2.442   6.603   1.773  2.3500  0.4992  3.1842
29727SOL     OW91187   2.966   0.174   6.118  0.2137  0.3568 -0.4323
29727SOL    HW191188   2.897   0.150   6.180 -0.2299 -1.0997 -1.4271
29727SOL    HW291189   3.032   0.105   6.127 -0.6579 -0.8735 -2.7355
29728SOL     OW91190   0.071   3.872   3.434  0.3593  0.3512  0.1098
29728SOL    HW191191  -0.005   3.928   3.451  0.0254  0.2871 -1.0861
29728SOL    HW291192   0.062   3.847   3.342  0.9905 -0.9433  0.3802
29729SOL     OW91193  11.079   2.278   4.691  0.0719 -0.5383  0.8031
29729SOL    HW191194  11.127   2.340   4.637 -0.6404  1.4639  2.3108
29729SOL    HW291195  11.038   2.218   4.629  0.4659  0.7623 -0.7810
29730SOL     OW91196   2.130   2.209   7.403 -0.2928 -0.9325  1.3912
29730SOL    HW191197   2.068   2.174   7.467 -1.0788  0.4568  1.4178
29730SOL    HW291198   2.102   2.299   7.388  0.7226 -0.7874  0.1375
29731SOL     OW91199   9.807   1.234   5.791  0.4355 -0.2409 -0.0520
29731SOL    HW191200   9.872   1.255   5.724  1.5746 -1.8519  0.4707
29731SOL    HW291201   9.858   1.194   5.861 -0.9628 -0.2532  0.9959
29732SOL     OW91202   3.584   5.572  10.684  0.3947 -0.2590  0.3190
29732SOL    HW191203   3.490   5.557  10.695  0.2461 -0.2072 -0.7745
29732SOL    HW291204   3.599   5.561  10.590  1.8003 -2.0109  0.7027
29733SOL     OW91205   1.331   8.533   1.105 -0.4257 -0.0254 -0.1308
29733SOL    HW191206   1.347   8.535   1.011 -0.2258  0.0924 -0.0944
29733SOL    HW291207   1.357   8.620   1.136 -0.4554 -0.0757  0.0382
29734SOL     OW91208   2.513   8.743   9.391 -0.2213  0.1021 -0.6626
29734SOL    HW191209   2.462   8.691   9.328 -1.2727  2.2109 -1.6678
29734SOL    HW291210   2.447   8.796   9.435  0.8385  0.7770  0.1204
29735SOL     OW91211  10.479   7.661   4.017  0.0568 -0.3715  0.3285
29735SOL    HW191212  10.421   7.737   4.021 -0.8457 -0.8882 -1.8034
29735SOL    HW291213  10.485   7.631   4.108 -2.4725  0.1100  0.7341
29736SOL     OW91214   6.414  11.093   0.498  0.3404  0.4972  0.2933
29736SOL    HW191215   6.463  11.140   0.565  2.6495  0.6186 -1.3714
29736SOL    HW291216   6.415  11.151   0.422  1.0466 -1.1208 -0.9968
29737SOL     OW91217   6.991  11.003  10.307  0.3019 -0.4723  0.7165
29737SOL    HW191218   6.985  11.090  10.347  2.2672  0.2886 -0.5089
29737SOL    HW291219   6.957  10.944  10.374 -1.3109  1.2296  1.5025
29738SOL     OW91220   0.216  11.014   0.428  0.6253 -0.2496  0.8004
29738SOL    HW191221   0.146  11.072   0.457  0.4705  1.8959 -3.0916
29738SOL    HW291222   0.288  11.030   0.489 -1.2460 -0.3473  3.1741
29739SOL     OW91223   2.148   4.462  10.992  0.2222 -0.7723 -0.4619
29739SOL    HW191224   2.129   4.522  10.920  0.7283  1.3285  1.0668
29739SOL    HW291225   2.201   4.393  10.952 -0.6120 -0.3824 -2.3428
29740SOL     OW91226   4.643   4.849   5.844  0.2784  0.6124 -0.1167
29740SOL    HW191227   4.659   4.941   5.826 -1.2508  0.9032 -0.0698
29740SOL    HW291228   4.713   4.803   5.797  2.7437  1.8709  2.0440
29741SOL     OW91229   8.583   4.964   3.720 -0.2668 -0.0032 -0.6287
29741SOL    HW191230   8.597   4.991   3.811 -0.9779 -2.3190  0.2260
29741SOL    HW291231   8.501   5.006   3.695  0.4054  1.4148 -0.5684
29742SOL     OW91232   6.995   5.605   1.149 -0.5703 -0.0414 -0.1327
29742SOL    HW191233   7.052   5.681   1.159 -0.9825  0.9271 -3.7151
29742SOL    HW291234   7.029   5.559   1.072 -2.3179 -1.6107 -0.0493
29743SOL     OW91235   1.479   4.446   4.196  0.0864 -0.2460  0.3111
29743SOL    HW191236   1.507   4.496   4.273  0.3360  1.9511 -1.1153
29743SOL    HW291237   1.553   4.388   4.176  0.1196 -0.6515  1.5300
29744SOL     OW91238   6.904  10.173   7.518 -0.0826  0.1541 -0.2203
29744SOL    HW191239   6.875  10.165   7.427  2.5430 -0.1971 -1.1255
29744SOL    HW291240   6.927  10.084   7.543 -0.0267  0.3697  0.5075
29745SOL     OW91241   3.595   5.229  11.266  0.3673 -0.4992  0.2842
29745SOL    HW191242   3.633   5.252  11.350  0.7130 -0.3351  0.0857
29745SOL    HW291243   3.578   5.135  11.271  0.9043 -0.5967  0.3341
29746SOL     OW91244  10.326   1.339  10.584 -0.3547 -0.1578 -1.0817
29746SOL    HW191245  10.356   1.264  10.533 -0.7412 -0.0231 -1.5151
29746SOL    HW291246  10.348   1.415  10.529  3.3533  0.3840  0.8618
29747SOL     OW91247   4.767  11.155   9.325 -0.3984  0.2449  0.8680
29747SOL    HW191248   4.714  11.218   9.277 -0.7700  1.0469  2.2666
29747SOL    HW291249   4.709  11.122   9.394  0.0240 -1.0824  0.6143
29748SOL     OW91250   5.418   5.680   3.445 -0.1483 -0.3239 -0.3696
29748SOL    HW191251   5.492   5.740   3.446  0.0800 -0.5769 -1.4434
29748SOL    HW291252   5.368   5.704   3.523 -0.2046  1.4455 -0.8935
29749SOL     OW91253   0.633   4.305   2.615  0.1937  0.0354  0.1876
29749SOL    HW191254   0.569   4.248   2.572  0.5419  0.4616 -0.9263
29749SOL    HW291255   0.640   4.381   2.557  0.8701  0.5147  0.8770
29750SOL     OW91256  10.293   5.206   7.035  0.2900  0.5162 -0.1325
29750SOL    HW191257  10.237   5.152   6.980 -0.1478 -1.6640  2.2480
29750SOL    HW291258  10.235   5.235   7.106  1.6751 -0.1539  1.3277
29751SOL     OW91259   3.596   9.930   8.973  0.2784  0.2676 -0.5170
29751SOL    HW191260   3.646   9.943   9.054 -0.3566  0.8856 -0.2167
29751SOL    HW291261   3.622  10.003   8.918 -0.1770  0.5038 -0.4194
29752SOL     OW91262   2.246   3.087   1.624 -0.0404 -0.0895 -0.1745
29752SOL    HW191263   2.261   3.021   1.693 -1.4336 -1.7496 -1.3514
29752SOL    HW291264   2.183   3.148   1.663  1.7354  0.9890  1.1530
29753SOL     OW91265   2.810   5.967   6.085 -0.0998  0.2961  0.3478
29753SOL    HW191266   2.715   5.964   6.099 -0.2633 -2.1400 -0.7756
29753SOL    HW291267   2.847   5.965   6.173 -1.0779  0.5058  0.7822
29754SOL     OW91268   3.420   6.041   5.639  0.3110 -0.5241 -0.3962
29754SOL    HW191269   3.361   6.115   5.655 -1.6783 -2.0677 -0.2592
29754SOL    HW291270   3.392   6.006   5.554  0.5730 -1.7220  0.0053
29755SOL     OW91271   5.097   4.597   2.661 -0.2777 -0.5070 -0.1384
29755SOL    HW191272   5.064   4.685   2.641  0.1358 -0.3796 -0.2699
29755SOL    HW291273   5.040   4.566   2.732 -2.9794 -1.6974 -2.6245
29756SOL     OW91274   5.571   5.026   0.365  0.2948  0.3222  0.1028
29756SOL    HW191275   5.600   5.091   0.429  1.0154 -0.0913  0.1993
29756SOL    HW291276   5.494   5.067   0.324 -0.6248  0.2812  1.7097
29757SOL     OW91277   6.682   1.635   4.829  0.0526  0.3775 -0.1754
29757SOL    HW191278   6.715   1.694   4.897  3.2643 -1.7246  0.2751
29757SOL    HW291279   6.622   1.576   4.875 -1.5909  1.9063 -0.2413
29758SOL     OW91280   4.381   1.924   5.580 -0.4531 -0.0101  0.4096
29758SOL    HW191281   4.334   1.941   5.662 -1.1335 -1.8349  0.4336
29758SOL    HW291282   4.464   1.970   5.591  0.6798 -2.4256  3.3759
29759SOL     OW91283   1.704   7.894   0.246  0.1584 -0.3162 -0.0988
29759SOL    HW191284   1.626   7.932   0.286  0.3441  2.1784 -1.9403
29759SOL    HW291285   1.671   7.845   0.171  0.3673  1.1075 -1.1376
29760SOL     OW91286   0.038   3.771   0.214 -0.3226  0.2667 -0.1854
29760SOL    HW191287  -0.026   3.701   0.202 -1.9112  1.3755  1.3074
29760SOL    HW291288  -0.004   3.832   0.275  3.5759 -0.8091  4.1357
29761SOL     OW91289   4.330   8.396   8.650 -0.2283  0.6029 -0.3106
29761SOL    HW191290   4.317   8.331   8.719  0.9277 -1.8623 -2.2640
29761SOL    HW291291   4.386   8.463   8.690 -0.5193 -0.1592  1.4375
29762SOL     OW91292   6.627  10.850   4.887 -0.4938  0.2372  0.4316
29762SOL    HW191293   6.591  10.761   4.887 -0.8028  0.3329 -0.9081
29762SOL    HW291294   6.551  10.907   4.890 -0.3582  0.4441  0.0399
29763SOL     OW91295   4.573   2.628   4.011 -0.2323 -0.1950 -0.2625
29763SOL    HW191296   4.590   2.550   4.064 -1.9709  0.7249  1.7827
29763SOL    HW291297   4.478   2.628   3.997 -0.1576  1.1158 -0.9505
29764SOL     OW91298   3.259   5.728   7.211 -0.1359  0.3290  0.2842
29764SOL    HW191299   3.241   5.634   7.209 -0.2404  0.3002  1.5531
29764SOL    HW291300   3.264   5.749   7.305  2.1951  1.1346  0.0463
29765SOL     OW91301   4.071   8.400   4.117 -0.5962  0.0706 -0.0955
29765SOL    HW191302   4.098   8.371   4.204 -4.2437 -1.5059  0.6872
29765SOL    HW291303   4.023   8.481   4.133  0.3848  0.8571 -0.9638
29766SOL     OW91304   0.756   8.598   2.305 -0.0762  0.3319 -0.0740
29766SOL    HW191305   0.774   8.527   2.368  0.6145  0.0093 -0.6290
29766SOL    HW291306   0.718   8.553   2.230  1.0011  0.4642 -0.7051
29767SOL     OW91307   2.349   1.018   7.362 -0.1861 -0.5067  0.4711
29767SOL    HW191308   2.379   1.105   7.389  0.0185 -1.2089  2.7113
29767SOL    HW291309   2.364   1.015   7.267 -1.4459  2.3748  0.0854
29768SOL     OW91310   0.943   9.303   0.664  0.1983 -0.2011  0.3972
29768SOL    HW191311   0.980   9.316   0.751  1.4234 -0.8317 -0.0016
29768SOL    HW291312   0.871   9.365   0.659 -0.5535 -0.8485  2.2379
29769SOL     OW91313   9.169   1.186   5.116 -0.0175 -0.3178 -0.3324
29769SOL    HW191314   9.135   1.272   5.141  1.0683  0.0308  0.0133
29769SOL    HW291315   9.148   1.178   5.023  0.8874  0.8415 -0.6611
29770SOL     OW91316   6.173  11.264  10.558 -0.3925  0.2373 -0.7430
29770SOL    HW191317   6.139  11.306  10.638 -2.7628 -1.0749 -0.9683
29770SOL    HW291318   6.256  11.225  10.585  0.2144  2.1192  0.3347
29771SOL     OW91319   4.676  10.258   8.698 -0.2778 -0.1173  0.1100
29771SOL    HW191320   4.605  10.198   8.676  0.8492 -2.5844  2.5614
29771SOL    HW291321   4.635  10.326   8.751 -1.0114 -0.9635  0.6589
29772SOL     OW91322  10.039   0.473   6.323 -0.0152 -0.8256 -0.6161
29772SOL    HW191323  10.102   0.506   6.387 -1.5424 -0.7276  0.8973
29772SOL    HW291324   9.988   0.408   6.371 -3.6647  1.8481 -0.4433
29773SOL     OW91325  10.716   6.389   6.613 -0.2449 -0.0862  0.0578
29773SOL    HW191326  10.663   6.466   6.633  0.9855  0.9607 -0.5584
29773SOL    HW291327  10.692   6.366   6.523 -0.0749  0.0226 -0.0145
29774SOL     OW91328   5.723   6.046   7.306  0.0280 -0.0892 -0.2380
29774SOL    HW191329   5.675   6.122   7.274 -0.3500 -0.7743 -1.3833
29774SOL    HW291330   5.659   5.998   7.359  0.1653  0.2013  0.1983
29775SOL     OW91331   4.072   0.098   8.128  0.3110 -0.1902  0.0106
29775SOL    HW191332   4.082   0.066   8.039 -2.1457 -1.9374  0.2509
29775SOL    HW291333   3.999   0.160   8.122 -0.5697 -1.1109  0.9416
29776SOL     OW91334   6.134   8.041   8.423 -0.2479 -0.5854 -0.8936
29776SOL    HW191335   6.216   8.035   8.375 -0.0559  0.8022 -0.7823
29776SOL    HW291336   6.067   8.053   8.355 -0.3307 -1.3312 -0.9581
29777SOL     OW91337   6.797   5.507  11.014 -0.9940  0.1177 -0.6671
29777SOL    HW191338   6.812   5.544  11.102 -0.5638 -2.4046  0.4049
29777SOL    HW291339   6.885   5.489  10.981 -1.1233  1.6643 -1.9647
29778SOL     OW91340   4.509   2.697   7.797 -0.6784  0.5632 -0.3646
29778SOL    HW191341   4.541   2.609   7.820  1.5648  1.0936 -1.2412
29778SOL    HW291342   4.487   2.737   7.881  0.3865 -0.0797  0.2417
29779SOL     OW91343   6.247   0.555  11.025 -0.2130 -0.5734 -0.3056
29779SOL    HW191344   6.210   0.539  11.111  0.5002 -1.1264 -0.0919
29779SOL    HW291345   6.184   0.613  10.982 -0.3768  0.0229  0.7240
29780SOL     OW91346  10.913   4.227  10.101 -0.8858  1.0700  0.5419
29780SOL    HW191347  10.896   4.291  10.032  0.0994  1.8338  0.9811
29780SOL    HW291348  10.950   4.152  10.056  2.1355  2.5105  0.4359
29781SOL     OW91349   5.664   3.238  10.582  0.0773 -0.0989 -0.4222
29781SOL    HW191350   5.656   3.239  10.678  0.1842  0.3500 -0.4148
29781SOL    HW291351   5.697   3.325  10.560  0.1626 -0.2405 -0.8595
29782SOL     OW91352   2.199  11.172   3.888  0.3044 -0.4100 -0.0534
29782SOL    HW191353   2.263  11.114   3.846 -0.8629 -0.6286 -1.6185
29782SOL    HW291354   2.246  11.254   3.902  0.8671 -0.4674 -1.4484
29783SOL     OW91355   4.240   0.533   4.759 -0.0468 -0.3431  0.1279
29783SOL    HW191356   4.182   0.591   4.808  0.3688 -0.0133  0.2334
29783SOL    HW291357   4.189   0.453   4.745 -0.8056  0.2254 -0.4447
29784SOL     OW91358   0.358   8.620   5.438 -0.1876 -0.7069  0.4528
29784SOL    HW191359   0.294   8.668   5.491  0.5458 -0.6568  1.3161
29784SOL    HW291360   0.310   8.594   5.360 -0.9741  0.2553  0.5949
29785SOL     OW91361   4.920   8.515   7.317  0.2213  0.2752  0.2039
29785SOL    HW191362   4.875   8.500   7.234  0.9521  3.9230 -1.0150
29785SOL    HW291363   4.952   8.428   7.342 -4.6965 -2.0357 -0.3429
29786SOL     OW91364   4.133   8.822  10.758  0.1169  0.3209 -0.2361
29786SOL    HW191365   4.063   8.789  10.814  1.5664 -0.0593  1.4805
29786SOL    HW291366   4.170   8.743  10.718  1.9640 -0.0035  1.8974
29787SOL     OW91367   8.490   3.041   3.738  0.1453  0.3773 -0.5130
29787SOL    HW191368   8.455   3.115   3.787  1.0351  0.6559 -0.2710
29787SOL    HW291369   8.458   3.053   3.649 -2.2068 -0.5932  0.1489
29788SOL     OW91370   2.785   0.630   7.076 -0.0612 -0.0762 -0.5455
29788SOL    HW191371   2.707   0.642   7.022 -3.5751  0.1135  3.9702
29788SOL    HW291372   2.794   0.536   7.084  1.9797 -0.2147 -3.0593
29789SOL     OW91373   3.052   0.558   1.119 -0.5344 -0.2387  0.2228
29789SOL    HW191374   3.107   0.536   1.194 -1.2073 -0.6530  0.5933
29789SOL    HW291375   2.973   0.506   1.130 -0.4388 -0.6907 -1.0383
29790SOL     OW91376  10.284  10.293   3.969 -0.5745 -0.1086  0.0160
29790SOL    HW191377  10.321  10.375   4.001 -0.3029 -0.0462 -0.4478
29790SOL    HW291378  10.238  10.257   4.044 -3.6049  2.0915 -0.5989
29791SOL     OW91379   3.024   1.549   2.105  0.3210 -0.2895 -0.3131
29791SOL    HW191380   3.100   1.500   2.136  0.3651 -0.2416 -0.3479
29791SOL    HW291381   3.050   1.641   2.111 -0.5147 -0.1199  1.8885
29792SOL     OW91382   7.576   0.968   8.812 -0.1485 -0.0913  0.0916
29792SOL    HW191383   7.491   1.010   8.826  0.9551  1.9093  1.1128
29792SOL    HW291384   7.640   1.037   8.824  1.6726 -1.5840 -0.5133
29793SOL     OW91385   6.456   9.503   6.995 -0.7207 -0.1626  0.0713
29793SOL    HW191386   6.517   9.473   6.927 -1.6219  0.0517 -0.8624
29793SOL    HW291387   6.429   9.423   7.040 -2.2517 -0.7189 -1.6743
29794SOL     OW91388  11.038   5.340  10.632  0.3641 -0.0699 -0.1682
29794SOL    HW191389  11.008   5.308  10.547 -2.8596 -0.9057  1.1509
29794SOL    HW291390  11.046   5.435  10.620  0.7294 -0.2539 -1.5831
29795SOL     OW91391  10.258   9.382   3.770 -0.0875  0.1508  0.5449
29795SOL    HW191392  10.269   9.289   3.794 -2.2282 -0.3214 -0.0855
29795SOL    HW291393  10.298   9.430   3.842  0.7867 -1.2563  1.0423
29796SOL     OW91394   9.734   7.928   6.461  0.0096 -0.4499 -0.5743
29796SOL    HW191395   9.639   7.936   6.465  0.1746  1.7205  1.6303
29796SOL    HW291396   9.767   8.015   6.484  2.5321 -1.4104 -0.1795
29797SOL     OW91397   1.850   9.556   5.284 -0.1368  0.7327  0.0633
29797SOL    HW191398   1.882   9.645   5.299  0.2752  0.4936  0.6344
29797SOL    HW291399   1.894   9.527   5.205 -0.9868  1.3731 -0.6656
29798SOL     OW91400   6.257   3.339   5.389  0.5020 -0.0663 -0.5121
29798SOL    HW191401   6.344   3.380   5.381  1.8384 -2.5838  0.2005
29798SOL    HW291402   6.246   3.325   5.483 -1.1126  0.9734 -0.5049
29799SOL     OW91403   8.194   4.227   8.771  0.1696 -0.0902 -0.1609
29799SOL    HW191404   8.130   4.298   8.764  0.6946  0.5081  0.9323
29799SOL    HW291405   8.279   4.270   8.762  0.4991 -0.5684  0.6051
29800SOL     OW91406   3.440   2.192   8.237  0.1768 -0.3084  0.4030
29800SOL    HW191407   3.468   2.238   8.316  0.0798  0.4920 -0.0229
29800SOL    HW291408   3.347   2.211   8.228  0.3339  0.1830 -0.2822
29801SOL     OW91409   6.166   3.785   5.053 -0.0868  0.3142  0.5352
29801SOL    HW191410   6.115   3.797   5.133 -0.2863 -2.1521  0.8622
29801SOL    HW291411   6.204   3.698   5.062  4.4094  2.0255  0.3759
29802SOL     OW91412   8.494   7.350   8.080 -0.2808 -0.2777 -0.1477
29802SOL    HW191413   8.403   7.368   8.057  0.2049  0.9261 -1.2067
29802SOL    HW291414   8.489   7.280   8.145 -1.9713 -0.0329  0.0134
29803SOL     OW91415   3.921   5.709  11.202 -0.4873 -0.3233 -0.0789
29803SOL    HW191416   3.990   5.765  11.238 -2.7522  0.7477  3.0172
29803SOL    HW291417   3.922   5.631  11.257 -1.9045 -0.1265  0.2740
29804SOL     OW91418   4.699   2.372   5.932  0.0821 -0.4942 -0.2083
29804SOL    HW191419   4.772   2.420   5.970  0.1160 -0.4362 -0.3466
29804SOL    HW291420   4.646   2.345   6.007  0.9792 -1.7419  0.0109
29805SOL     OW91421   4.078   5.054   4.952  0.0132 -0.0161 -0.1527
29805SOL    HW191422   4.026   5.067   4.872 -1.3110 -1.1378  0.4791
29805SOL    HW291423   4.019   5.080   5.023  0.6302 -0.4873  0.5416
29806SOL     OW91424   6.060   2.407   9.835 -0.4201  0.5075  0.4759
29806SOL    HW191425   6.148   2.409   9.871 -0.3587 -0.2233  0.3870
29806SOL    HW291426   6.068   2.361   9.752 -0.7379  1.2493  0.0204
29807SOL     OW91427   5.237   3.291   3.078  0.0389 -0.5555  0.0701
29807SOL    HW191428   5.245   3.220   3.142 -1.2803 -0.2180  0.6466
29807SOL    HW291429   5.283   3.365   3.119  1.3498 -1.0229 -0.4994
29808SOL     OW91430   8.783   1.410   9.599 -0.3293 -0.1064 -0.3005
29808SOL    HW191431   8.782   1.343   9.668 -1.9610 -0.1638 -0.3257
29808SOL    HW291432   8.839   1.374   9.531 -0.8392 -1.2842 -0.1255
29809SOL     OW91433   7.601   4.370   5.316  0.2660 -0.0594 -0.0942
29809SOL    HW191434   7.657   4.434   5.271  1.0581 -0.1023  0.7934
29809SOL    HW291435   7.655   4.291   5.322  1.0093  0.5301  2.6643
29810SOL     OW91436   9.097   0.886   6.871 -0.1552  0.3437  0.3667
29810SOL    HW191437   9.069   0.804   6.831  0.6796  0.8778 -1.3996
29810SOL    HW291438   9.162   0.922   6.810  1.3492  1.1134  2.3115
29811SOL     OW91439   1.983   7.233   9.036 -0.0810 -0.2270  0.7383
29811SOL    HW191440   2.018   7.293   9.102  0.9434 -0.5573  0.5034
29811SOL    HW291441   1.993   7.146   9.074  0.6567 -0.4333  0.0959
29812SOL     OW91442   2.684   6.744   6.903  0.7248  0.2405  0.2374
29812SOL    HW191443   2.632   6.755   6.823  2.8415 -2.2967 -1.6981
29812SOL    HW291444   2.757   6.805   6.892  2.6123 -2.1135 -1.4111
29813SOL     OW91445   7.606   0.421   8.279 -0.1861  0.0899  0.6292
29813SOL    HW191446   7.648   0.337   8.260  1.9516  0.7366  2.0444
29813SOL    HW291447   7.551   0.439   8.203  1.5476 -1.2403 -1.0326
29814SOL     OW91448   4.395   5.525   0.500  1.3910  0.3040  0.6310
29814SOL    HW191449   4.338   5.500   0.427  0.7903  2.7852  0.1927
29814SOL    HW291450   4.470   5.465   0.492  0.5877 -0.5630 -1.0285
29815SOL     OW91451  10.331   4.664   3.714 -0.0069 -0.2174  0.0478
29815SOL    HW191452  10.291   4.663   3.626  1.1988  0.2372 -0.5293
29815SOL    HW291453  10.379   4.582   3.719  2.6034  1.1204 -1.0562
29816SOL     OW91454   0.209   8.538   3.956  0.1802  0.2714  0.0722
29816SOL    HW191455   0.271   8.528   3.883  0.3267  3.6485 -0.4048
29816SOL    HW291456   0.264   8.563   4.030 -0.3042 -0.1079  0.5641
29817SOL     OW91457   1.512   5.487   5.485 -0.0741  0.5230 -0.6094
29817SOL    HW191458   1.505   5.562   5.545  0.1284  1.6959 -1.9936
29817SOL    HW291459   1.606   5.467   5.483 -0.1496  0.1088 -0.1020
29818SOL     OW91460   5.560   2.151   7.222  0.6413  0.1337 -0.0410
29818SOL    HW191461   5.511   2.233   7.231 -1.7539 -0.8891 -2.2902
29818SOL    HW291462   5.605   2.160   7.138  0.6887 -0.6944 -0.1044
29819SOL     OW91463   9.560   4.225   4.295  0.3890 -0.1941 -0.0211
29819SOL    HW191464   9.534   4.144   4.250  1.9434 -1.7424  1.7276
29819SOL    HW291465   9.655   4.217   4.305  0.5472  1.7776  0.4119
29820SOL     OW91466   5.577   0.398   8.851 -0.8234  0.3768 -1.1910
29820SOL    HW191467   5.626   0.348   8.786  1.1106  1.5880 -0.7383
29820SOL    HW291468   5.644   0.440   8.905 -2.3730  1.4715 -0.0116
29821SOL     OW91469   0.473   5.926   7.151  0.5788  0.3991 -0.2734
29821SOL    HW191470   0.517   6.005   7.121 -0.7860  1.3263  0.0474
29821SOL    HW291471   0.534   5.885   7.212  0.4502  2.4358  1.3319
29822SOL     OW91472   5.979   4.081   8.997 -0.4994 -0.2514 -0.2137
29822SOL    HW191473   6.007   4.039   8.916 -1.0692  0.6300 -0.8925
29822SOL    HW291474   5.950   4.009   9.052 -2.0441 -0.7460 -1.5775
29823SOL     OW91475   7.681   1.076   6.143  0.3515  0.2473 -0.0921
29823SOL    HW191476   7.607   1.136   6.125  0.2515 -0.1136 -0.9588
29823SOL    HW291477   7.639   0.992   6.162  0.4381  0.7148  2.4448
29824SOL     OW91478   2.968   0.526   2.956 -0.1057  0.3358  0.2304
29824SOL    HW191479   3.015   0.534   3.039 -0.2838 -0.7556  0.4415
29824SOL    HW291480   3.014   0.586   2.897  0.6440  0.3674  0.8315
29825SOL     OW91481   5.815   7.827   0.843 -0.1261  0.0238  0.6867
29825SOL    HW191482   5.800   7.891   0.774  1.6875  0.1859  0.3769
29825SOL    HW291483   5.848   7.750   0.798  0.6842 -0.0149  1.3142
29826SOL     OW91484   0.094  10.716   1.802 -0.6522  0.4250  0.2020
29826SOL    HW191485   0.135  10.635   1.833  0.3004  1.0650  0.6721
29826SOL    HW291486   0.137  10.785   1.852 -0.2533  1.3638 -1.3868
29827SOL     OW91487   5.185   5.143   7.255 -0.0617 -0.5589 -0.4078
29827SOL    HW191488   5.257   5.129   7.317 -0.5387  1.5823  0.7348
29827SOL    HW291489   5.122   5.074   7.275  0.6845 -1.1125  0.0892
29828SOL     OW91490   6.238   8.398   1.379  0.0567 -0.2454  0.3093
29828SOL    HW191491   6.195   8.313   1.372  1.9613 -1.1255 -2.2306
29828SOL    HW291492   6.191   8.455   1.317  0.9755 -0.5456 -0.7080
29829SOL     OW91493   3.817   1.427  11.118 -0.2725  0.2743 -0.1694
29829SOL    HW191494   3.725   1.436  11.092 -0.5911  2.1835  1.3493
29829SOL    HW291495   3.839   1.336  11.099 -1.7250  0.3816 -2.8673
29830SOL     OW91496   4.374   1.397   3.956 -0.9286 -0.2160 -0.4942
29830SOL    HW191497   4.374   1.472   3.896 -0.9580  0.3584  0.2013
29830SOL    HW291498   4.294   1.409   4.008 -1.7457 -1.5756 -1.3816
29831SOL     OW91499   8.859   3.567   4.156 -0.0979  0.4829  0.1721
29831SOL    HW191500   8.818   3.483   4.173  1.3989 -0.1451  0.8805
29831SOL    HW291501   8.834   3.588   4.066 -0.4973 -0.7240 -0.0178
29832SOL     OW91502   0.292   2.704   1.220 -0.1358 -0.2377 -0.0398
29832SOL    HW191503   0.223   2.660   1.170 -0.0468  0.8296 -1.1523
29832SOL    HW291504   0.325   2.637   1.280 -1.6972 -0.9525  0.0793
29833SOL     OW91505  11.010   1.584   1.718  0.4376 -0.1669  0.6012
29833SOL    HW191506  10.999   1.510   1.659  0.1898 -1.3264  2.0671
29833SOL    HW291507  10.921   1.611   1.741  0.4859  1.2773 -0.6908
29834SOL     OW91508   0.395   0.207   6.930 -0.2223 -0.4149 -0.1716
29834SOL    HW191509   0.482   0.175   6.954  0.3048 -1.6527 -3.2620
29834SOL    HW291510   0.410   0.291   6.889 -0.0531 -1.7099 -2.9745
29835SOL     OW91511   8.040   8.132   8.023 -0.0162  0.3524 -0.0712
29835SOL    HW191512   7.967   8.112   8.081  0.6053  1.2050  1.0495
29835SOL    HW291513   8.117   8.127   8.079  0.5191  2.1487 -0.5825
29836SOL     OW91514   5.603   1.673  10.183  0.2649  0.0435  0.1359
29836SOL    HW191515   5.604   1.638  10.272  1.1083 -1.1549 -0.3120
29836SOL    HW291516   5.545   1.613  10.135  0.4202  0.2303 -0.2938
29837SOL     OW91517   3.213   1.140   8.927  0.2553 -0.7461  0.4494
29837SOL    HW191518   3.236   1.221   8.881 -1.8520 -2.0042 -3.2736
29837SOL    HW291519   3.291   1.085   8.918  0.2744 -0.5533 -0.7388
29838SOL     OW91520   8.953   6.607   0.130 -0.5306  0.0784  0.0977
29838SOL    HW191521   9.003   6.610   0.049 -0.9904  0.3510 -0.1755
29838SOL    HW291522   9.014   6.569   0.194  0.1916  0.8765 -0.1035
29839SOL     OW91523   9.855  11.101  10.287 -0.0947  0.0742  0.6093
29839SOL    HW191524   9.890  11.012  10.294  1.4896  0.7097  1.4232
29839SOL    HW291525   9.783  11.104  10.350  0.6448 -0.2968  1.4983
29840SOL     OW91526   0.507   3.652   4.045  0.0100 -0.7425  0.5294
29840SOL    HW191527   0.519   3.559   4.027  0.4712 -0.4256 -1.0217
29840SOL    HW291528   0.460   3.686   3.968  2.5300  0.8298 -0.4599
29841SOL     OW91529  11.284   9.242   6.083  0.7318  0.4479  0.0444
29841SOL    HW191530  11.263   9.253   5.990 -0.1857 -0.6918  0.0961
29841SOL    HW291531  11.223   9.301   6.128 -1.9714 -2.1294  0.1309
29842SOL     OW91532   0.274   8.278   4.184  0.3913 -0.6918  0.8938
29842SOL    HW191533   0.358   8.235   4.199 -0.6390 -2.4062  2.2345
29842SOL    HW291534   0.255   8.324   4.266  0.8321  1.2385 -0.0447
29843SOL     OW91535   7.835   8.330   3.146 -0.3985 -0.6243 -0.2644
29843SOL    HW191536   7.754   8.286   3.168  0.1328 -0.1783  3.0021
29843SOL    HW291537   7.886   8.331   3.227  1.0591  2.8884 -1.0144
29844SOL     OW91538   6.628   3.165   8.476 -0.0351  0.1481 -0.3886
29844SOL    HW191539   6.538   3.136   8.489 -0.4795  0.2388 -2.7528
29844SOL    HW291540   6.631   3.193   8.384  2.6697 -0.8447 -0.6883
29845SOL     OW91541   7.095   3.971   7.115 -0.3203  0.3412  0.0878
29845SOL    HW191542   7.171   3.987   7.172  0.4761 -1.7643 -0.2734
29845SOL    HW291543   7.050   3.898   7.157 -0.0265 -0.8922 -1.6379
29846SOL     OW91544   8.260  10.148   6.342 -0.2423  0.3205 -0.8351
29846SOL    HW191545   8.177  10.169   6.300  0.2921  1.4788 -1.3525
29846SOL    HW291546   8.324  10.146   6.271  0.7386  2.6257 -0.1143
29847SOL     OW91547   2.359   8.494   0.191  0.5073 -0.1109  0.1473
29847SOL    HW191548   2.433   8.495   0.130 -0.5507 -0.7663 -1.2194
29847SOL    HW291549   2.357   8.583   0.227  1.1050  0.3493 -0.8918
29848SOL     OW91550   4.039  10.790  11.100 -0.6097  0.3313 -0.0175
29848SOL    HW191551   4.110  10.755  11.155 -1.0605  0.3253  0.5753
29848SOL    HW291552   4.075  10.790  11.012 -0.2141 -0.5998  0.1268
29849SOL     OW91553   7.549   2.586   1.494  0.9486 -0.1064 -0.0466
29849SOL    HW191554   7.620   2.586   1.559  3.1430 -1.7282 -2.2788
29849SOL    HW291555   7.572   2.657   1.434 -0.3656  0.5441  0.1765
29850SOL     OW91556   6.521   5.617   4.548 -0.1485 -0.1051 -0.0569
29850SOL    HW191557   6.556   5.619   4.637 -0.5561 -1.0251  0.1363
29850SOL    HW291558   6.428   5.600   4.559 -0.4102  0.8970 -0.6271
29851SOL     OW91559   0.566   0.612   9.941 -0.5162  0.0224  1.1536
29851SOL    HW191560   0.636   0.552   9.966 -1.5322 -0.9950  1.6291
29851SOL    HW291561   0.491   0.556   9.924 -1.1858  1.0801  0.4846
29852SOL     OW91562   8.282   1.690  10.984  0.0418 -0.2418  0.4016
29852SOL    HW191563   8.269   1.617  10.924 -3.3000  0.6548 -0.1544
29852SOL    HW291564   8.329   1.755  10.932 -1.7957  0.0743 -0.9899
29853SOL     OW91565   2.295   7.645   2.617  0.0399  0.2621 -0.3005
29853SOL    HW191566   2.375   7.600   2.593  1.7569  2.2831  1.2297
29853SOL    HW291567   2.295   7.645   2.713 -0.3923  2.5249 -0.2456
29854SOL     OW91568   4.199   9.160   7.449  0.6591  0.1326 -0.1602
29854SOL    HW191569   4.270   9.199   7.399 -3.0108  3.3576 -3.5768
29854SOL    HW291570   4.173   9.083   7.398  0.0219  0.5692 -0.5112
29855SOL     OW91571   7.446   6.590  10.612  0.0903  0.5617 -0.2066
29855SOL    HW191572   7.532   6.607  10.650  0.1124  1.6039 -0.6948
29855SOL    HW291573   7.447   6.636  10.528 -0.9061  0.4940 -0.2678
29856SOL     OW91574   8.614   8.491   0.898 -0.5586  0.0450  0.1118
29856SOL    HW191575   8.651   8.520   0.814  0.8896  1.5147  1.1961
29856SOL    HW291576   8.525   8.526   0.897 -0.5045  0.1925 -0.7426
29857SOL     OW91577   4.860   3.878   6.997  0.3836 -0.2252  0.0980
29857SOL    HW191578   4.883   3.945   6.932  0.0754 -0.1622  0.0511
29857SOL    HW291579   4.803   3.817   6.949  1.6365 -1.1906 -0.1983
29858SOL     OW91580   0.973   2.219   5.551 -0.0009  0.7287  0.6747
29858SOL    HW191581   1.024   2.247   5.474  0.7020 -1.3941  0.2975
29858SOL    HW291582   1.033   2.230   5.624  0.8392 -1.1631  0.3167
29859SOL     OW91583   2.723   4.993   9.727 -0.7302  0.4506 -0.0040
29859SOL    HW191584   2.660   5.008   9.657 -0.6974  1.6576  0.2079
29859SOL    HW291585   2.756   4.905   9.711 -3.0136 -0.5266  0.3356
29860SOL     OW91586   2.826   4.760   9.810  0.0112  0.2888 -0.2715
29860SOL    HW191587   2.822   4.799   9.898 -1.0470  0.6714 -0.4734
29860SOL    HW291588   2.856   4.670   9.825  0.1375  0.4442  0.4482
29861SOL     OW91589   5.008   5.776   5.540  0.4658 -0.1791 -0.2267
29861SOL    HW191590   5.101   5.765   5.556  0.6194 -0.4654 -1.2534
29861SOL    HW291591   4.990   5.721   5.464 -0.5266 -0.0663 -0.0926
29862SOL     OW91592   3.297   7.453  10.220 -0.5167  0.0210  0.6840
29862SOL    HW191593   3.294   7.545  10.195  0.0449 -0.2528 -0.4371
29862SOL    HW291594   3.243   7.408  10.155  0.2227 -0.5909  0.4754
29863SOL     OW91595   6.382   1.529   6.248  0.0162 -0.4800  0.9566
29863SOL    HW191596   6.417   1.603   6.298 -1.2583  1.8579 -1.3626
29863SOL    HW291597   6.290   1.552   6.232 -0.1889 -2.1486 -0.5825
29864SOL     OW91598  10.973   0.765   9.879  0.0311  0.0088 -0.0435
29864SOL    HW191599  10.971   0.722   9.964 -2.1088  1.8014  0.9203
29864SOL    HW291600  10.910   0.717   9.825 -0.1196  0.0905  0.0584
29865SOL     OW91601   2.038   3.476   2.617 -0.2249  0.3555  0.0539
29865SOL    HW191602   2.043   3.450   2.708 -0.7776  1.8486  0.5501
29865SOL    HW291603   2.085   3.560   2.613  3.0748 -1.3856 -1.8064
29866SOL     OW91604   6.374  10.517  10.941 -0.0886  0.0482 -0.1547
29866SOL    HW191605   6.449  10.458  10.932 -1.6033 -1.8453 -1.4283
29866SOL    HW291606   6.371  10.538  11.034  1.4074 -0.6574  0.0872
29867SOL     OW91607   3.123   1.889   7.287 -0.1180  0.9366  0.0680
29867SOL    HW191608   3.170   1.814   7.324 -0.1458  0.7537 -0.2598
29867SOL    HW291609   3.031   1.869   7.302 -0.1056  1.1409  0.4205
29868SOL     OW91610   5.108   4.233   5.113 -0.3101  0.7236 -0.1858
29868SOL    HW191611   5.023   4.196   5.091 -0.8516  2.2391 -0.7611
29868SOL    HW291612   5.089   4.323   5.141  0.9527  0.6265  1.1231
29869SOL     OW91613   2.696  11.011   3.666  0.2726  0.0125  0.6465
29869SOL    HW191614   2.779  11.011   3.619  1.0499 -1.3782  1.9225
29869SOL    HW291615   2.679  11.103   3.686  0.7403  0.4603 -0.8834
29870SOL     OW91616   1.892  11.056   8.889 -0.3571 -0.2577 -0.5046
29870SOL    HW191617   1.955  11.123   8.916  0.9406 -0.3036 -3.1279
29870SOL    HW291618   1.816  11.105   8.858 -0.3175 -0.0927 -0.3417
29871SOL     OW91619   3.581   9.227   5.180  0.5723  0.4933 -0.5326
29871SOL    HW191620   3.663   9.185   5.158  0.7064 -0.5992  1.7087
29871SOL    HW291621   3.513   9.163   5.158  0.4952  0.5251 -0.3929
29872SOL     OW91622   5.448   2.913   2.094 -0.3715  0.2458  0.1259
29872SOL    HW191623   5.524   2.940   2.043  2.1081 -2.1667  2.1726
29872SOL    HW291624   5.465   2.948   2.181 -1.4045 -0.6142  0.6936
29873SOL     OW91625  10.212   8.510   9.972 -0.5530 -0.0476 -0.0684
29873SOL    HW191626  10.153   8.585   9.980 -0.7044 -0.3488  2.0940
29873SOL    HW291627  10.158   8.434   9.992  0.8466 -0.1864  3.9970
29874SOL     OW91628   8.987   2.921   8.616 -0.3667  0.0583  0.3826
29874SOL    HW191629   8.932   2.999   8.619  0.1041  0.4619 -0.7215
29874SOL    HW291630   8.972   2.877   8.700 -0.8309  1.1997  0.9190
29875SOL     OW91631  10.601   6.785   0.397  0.0600  0.1257 -0.2944
29875SOL    HW191632  10.625   6.873   0.367 -1.3343  0.4090 -0.6857
29875SOL    HW291633  10.667   6.762   0.462 -1.4363  2.9786  2.5217
29876SOL     OW91634   2.931   8.824   9.059 -0.8426  0.3947  0.0313
29876SOL    HW191635   2.848   8.819   9.106 -1.1941  0.6054 -0.5618
29876SOL    HW291636   2.915   8.886   8.988 -0.8614 -1.2643 -1.4906
29877SOL     OW91637   3.734   2.290   9.305  1.0411 -0.1439  0.2284
29877SOL    HW191638   3.777   2.318   9.224 -0.6803  0.0337 -0.6823
29877SOL    HW291639   3.730   2.195   9.298  0.3408 -0.0931 -0.2286
29878SOL     OW91640  10.983   6.904   8.964  0.4676  0.2654 -0.4357
29878SOL    HW191641  10.944   6.979   8.919 -0.6381  0.5880  0.9759
29878SOL    HW291642  10.923   6.832   8.947  0.0561  0.3840  0.4672
29879SOL     OW91643   2.801   7.734   3.581 -0.4174 -0.0270  0.5041
29879SOL    HW191644   2.850   7.808   3.618 -1.0956  1.0556 -0.7183
29879SOL    HW291645   2.787   7.757   3.490  0.9190 -2.4975 -0.4313
29880SOL     OW91646  10.753  10.939   4.118 -0.0232 -0.5208 -0.1190
29880SOL    HW191647  10.839  10.943   4.076  0.4093 -3.5611  0.2395
29880SOL    HW291648  10.772  10.910   4.207 -1.2975  1.1455  0.7391
29881SOL     OW91649   0.431   8.691   0.743 -0.2666 -0.0301 -0.0029
29881SOL    HW191650   0.404   8.689   0.834  0.6315  0.5877  0.2945
29881SOL    HW291651   0.352   8.714   0.694 -0.7868 -0.5210  0.5920
29882SOL     OW91652   8.847   7.480   4.816  0.0222  0.6203  0.3730
29882SOL    HW191653   8.895   7.426   4.754  1.7537 -1.2637  3.1070
29882SOL    HW291654   8.809   7.550   4.763  0.9636 -1.0663 -2.8000
29883SOL     OW91655   4.608   1.957   4.168  0.0270  0.1063 -0.5313
29883SOL    HW191656   4.516   1.958   4.143  0.5453  0.1331 -2.7102
29883SOL    HW291657   4.609   1.930   4.259 -2.2759  2.7671  0.3890
29884SOL     OW91658   4.963   5.447   1.494  0.0587  0.0517  0.4036
29884SOL    HW191659   5.052   5.470   1.469  0.3050 -0.5436  0.7098
29884SOL    HW291660   4.962   5.457   1.589  0.1970 -1.2075  0.5627
29885SOL     OW91661   3.633   7.584   5.935  0.2192 -0.3603  0.1429
29885SOL    HW191662   3.615   7.674   5.962 -1.5558 -1.1582  1.8588
29885SOL    HW291663   3.568   7.566   5.868 -0.9673 -1.0412  1.4260
29886SOL     OW91664   8.034   7.981   2.742 -0.3253  0.0210  0.5559
29886SOL    HW191665   8.099   8.049   2.759 -0.1457 -0.1986  0.7650
29886SOL    HW291666   7.991   8.008   2.661  0.9429 -0.5151 -0.3322
29887SOL     OW91667   8.473   2.713   8.259 -0.2795  0.5647 -0.2622
29887SOL    HW191668   8.424   2.631   8.269 -0.9164  1.0680  1.0629
29887SOL    HW291669   8.415   2.769   8.209 -0.3713  0.6212 -0.0931
29888SOL     OW91670   1.332  10.475   1.395 -0.1281  0.5836 -0.1744
29888SOL    HW191671   1.409  10.521   1.428 -0.3498  0.2680  0.8241
29888SOL    HW291672   1.349  10.383   1.417 -0.5719  0.4547 -0.3630
29889SOL     OW91673   1.632   7.382   4.372  0.1335 -0.0836  0.2592
29889SOL    HW191674   1.649   7.451   4.437  0.9162  0.4943 -0.5425
29889SOL    HW291675   1.703   7.319   4.385  0.9090  0.5698 -0.7425
29890SOL     OW91676  10.692   8.465   9.700 -0.3659 -0.1068 -0.3753
29890SOL    HW191677  10.757   8.531   9.725 -1.5854  0.8264  0.4224
29890SOL    HW291678  10.741   8.382   9.703  0.4686  0.3991  1.6248
29891SOL     OW91679   6.298   2.014   5.515  0.8225 -0.5621 -0.0145
29891SOL    HW191680   6.394   2.015   5.510  0.9495 -0.1590  1.9220
29891SOL    HW291681   6.270   2.072   5.444  2.0081 -0.4550 -0.4235
29892SOL     OW91682   0.722   8.448   1.188 -0.1111  0.2901  0.2517
29892SOL    HW191683   0.698   8.416   1.102 -1.1266 -0.4372  0.7886
29892SOL    HW291684   0.796   8.506   1.172  0.1423 -0.3527 -1.0272
29893SOL     OW91685   7.917   5.532  10.992 -0.1361 -0.1454 -0.6564
29893SOL    HW191686   7.890   5.613  10.948  1.1273  0.4709 -0.3255
29893SOL    HW291687   7.851   5.519  11.060  0.1980  1.1588 -0.0626
29894SOL     OW91688   8.343  10.379  10.966 -0.1714  0.3032 -0.4581
29894SOL    HW191689   8.385  10.453  10.921 -1.2667  1.4827  0.3750
29894SOL    HW291690   8.372  10.387  11.057  0.0149 -0.5447 -0.4425
29895SOL     OW91691   2.760   4.080   6.368 -0.0047  0.0000  0.2026
29895SOL    HW191692   2.738   4.001   6.319  0.7816  1.3435 -2.4824
29895SOL    HW291693   2.845   4.060   6.407 -0.0900 -0.6862  0.0673
29896SOL     OW91694  10.021   7.916   4.774 -0.3143  0.4336  0.0216
29896SOL    HW191695   9.937   7.948   4.808 -0.6987  0.1476 -0.6426
29896SOL    HW291696  10.071   7.892   4.852 -1.1453 -0.1168  0.3867
29897SOL     OW91697  10.127   0.465   9.273 -0.5589 -0.3892  0.1427
29897SOL    HW191698  10.173   0.515   9.205 -0.4177 -0.9584 -0.1896
29897SOL    HW291699  10.041   0.447   9.235 -0.1452 -1.5407 -0.2965
29898SOL     OW91700   8.927  10.318   2.490 -0.2917 -0.2434  0.3595
29898SOL    HW191701   8.985  10.319   2.414 -0.8408  1.5359 -0.0987
29898SOL    HW291702   8.976  10.363   2.559 -1.0812  1.2759 -0.0326
29899SOL     OW91703   2.311  10.761   3.345  0.1168  0.5158 -0.7601
29899SOL    HW191704   2.371  10.688   3.329 -1.4395 -1.4201  1.5747
29899SOL    HW291705   2.254  10.761   3.268  0.9939  0.1770 -1.4326
29900SOL     OW91706   2.480   2.616   6.135  0.2892 -0.5363  0.4335
29900SOL    HW191707   2.393   2.604   6.097 -0.0081 -0.5438  1.1087
29900SOL    HW291708   2.480   2.705   6.169  1.3282  0.2860 -1.5295
29901SOL     OW91709   0.211   1.854   7.493 -0.0787 -0.2640  0.2259
29901SOL    HW191710   0.159   1.933   7.510 -0.4599 -0.1277 -1.3928
29901SOL    HW291711   0.260   1.875   7.413  1.4898 -0.8807  0.9830
29902SOL     OW91712   0.540   3.817   0.159  0.2023  0.4230  0.0521
29902SOL    HW191713   0.449   3.841   0.138  0.1665 -0.4427 -0.8336
29902SOL    HW291714   0.575   3.782   0.077  0.8214 -0.7770  0.8055
29903SOL     OW91715   0.309   5.359   1.778  0.0544  0.1330 -0.2986
29903SOL    HW191716   0.399   5.382   1.752  0.1551 -1.8129 -1.8367
29903SOL    HW291717   0.257   5.436   1.754  1.0008  0.4674 -1.3676
29904SOL     OW91718   3.316   2.254   1.936 -0.0073  0.1087 -0.0019
29904SOL    HW191719   3.256   2.269   2.009 -0.5783 -1.8833 -0.0028
29904SOL    HW291720   3.401   2.238   1.978  1.0881  4.6557 -0.0522
29905SOL     OW91721   5.457   1.859   3.604 -0.4642 -0.4319  0.2810
29905SOL    HW191722   5.424   1.939   3.646  0.1319  0.2557 -0.5086
29905SOL    HW291723   5.404   1.789   3.640 -2.6422  0.5881 -0.7819
29906SOL     OW91724  11.078   3.775   4.234 -0.2631 -0.1000 -0.5276
29906SOL    HW191725  11.125   3.693   4.225 -1.3921 -0.6308 -1.8933
29906SOL    HW291726  11.115   3.832   4.167 -2.7326 -1.1515 -2.9610
29907SOL     OW91727   5.413   1.899   1.575  0.1787 -0.0890  0.0977
29907SOL    HW191728   5.348   1.929   1.638  2.6224  3.4703  1.2602
29907SOL    HW291729   5.486   1.869   1.629  0.7073 -1.1476 -1.1447
29908SOL     OW91730   5.921   5.556   0.210  0.3242 -0.0402  0.2815
29908SOL    HW191731   5.927   5.646   0.244  1.9930 -0.5340  1.4269
29908SOL    HW291732   5.831   5.548   0.178 -0.1340  1.7396  1.0087
29909SOL     OW91733   6.670   6.313   0.252 -0.0830 -0.7336 -0.5911
29909SOL    HW191734   6.696   6.250   0.186  0.7599 -0.9118 -0.1096
29909SOL    HW291735   6.746   6.319   0.311  0.4973  1.8661 -1.4593
29910SOL     OW91736   6.121   5.034   4.677  0.0536  0.2383  0.2720
29910SOL    HW191737   6.091   5.118   4.711  1.4715  0.7855  0.2278
29910SOL    HW291738   6.206   5.020   4.718  0.6357 -0.3229 -1.0537
29911SOL     OW91739   6.708   5.664   9.738 -0.6297 -0.6496 -0.1329
29911SOL    HW191740   6.682   5.633   9.651  0.5419  2.8419 -1.9315
29911SOL    HW291741   6.665   5.749   9.747  0.3312 -0.3379  2.1513
29912SOL     OW91742   7.297   2.788   8.562 -0.1562 -0.3492 -0.0268
29912SOL    HW191743   7.232   2.858   8.553 -1.7314 -1.1615  3.4631
29912SOL    HW291744   7.361   2.823   8.624  0.7662 -0.9099 -0.6437
29913SOL     OW91745   1.037   4.589  10.284 -0.1963 -0.2393 -0.6855
29913SOL    HW191746   1.032   4.665  10.227  1.1227 -0.0433 -0.5691
29913SOL    HW291747   0.963   4.534  10.258 -2.1005  1.7398  0.2343
29914SOL     OW91748   1.391   6.647   6.792  0.0667 -0.4430 -0.0651
29914SOL    HW191749   1.428   6.562   6.815  1.3902  0.5377  1.6570
29914SOL    HW291750   1.334   6.670   6.865  1.3320  1.0340  0.5238
29915SOL     OW91751   4.633   2.658   3.615  0.0624  0.1649 -0.5351
29915SOL    HW191752   4.607   2.647   3.524  1.2582 -2.0610 -0.6785
29915SOL    HW291753   4.552   2.646   3.665 -0.9054  2.8909 -1.2778
29916SOL     OW91754   5.216   8.560   1.230 -0.2855 -0.7636  1.0462
29916SOL    HW191755   5.177   8.631   1.280  1.0348  0.8118 -0.0442
29916SOL    HW291756   5.233   8.492   1.294 -1.2804  0.0365  2.1968
29917SOL     OW91757  11.118   8.263   6.627 -0.5540  0.1382 -0.0709
29917SOL    HW191758  11.022   8.268   6.623 -0.5385  0.5813  0.0517
29917SOL    HW291759  11.146   8.279   6.537 -0.6703 -2.1916 -0.5726
29918SOL     OW91760   5.405   7.457   2.001  0.0454  0.5468 -0.2732
29918SOL    HW191761   5.327   7.423   1.957 -0.8053  1.6668  0.2977
29918SOL    HW291762   5.474   7.454   1.935 -0.6113  0.0260 -0.9502
29919SOL     OW91763   6.957  10.317  10.646 -0.1163  0.2213  0.8110
29919SOL    HW191764   6.928  10.391  10.700 -1.2106  0.5620 -0.2074
29919SOL    HW291765   7.032  10.352  10.597  0.0526  0.3075  1.1239
29920SOL     OW91766  11.070   9.093   9.263 -0.2252 -0.2433 -0.5045
29920SOL    HW191767  10.983   9.072   9.228  0.0759 -0.5775 -1.0830
29920SOL    HW291768  11.053   9.151   9.337 -0.9066  0.2895 -1.0616
29921SOL     OW91769   9.080   9.941   7.250 -0.0994  0.1235  0.3868
29921SOL    HW191770   9.038  10.015   7.293 -1.0419  0.5904 -1.2333
29921SOL    HW291771   9.136   9.981   7.183  1.4920 -0.5643  1.2346
29922SOL     OW91772   0.298   5.007   9.305  0.8110  0.3562 -0.1883
29922SOL    HW191773   0.219   4.961   9.276  0.1317  2.1708 -1.3602
29922SOL    HW291774   0.279   5.099   9.289  2.6837  0.9454  0.7462
29923SOL     OW91775   5.321   6.371   3.688 -0.1019  0.1908  0.3284
29923SOL    HW191776   5.343   6.422   3.611  0.8798  1.2596  1.2802
29923SOL    HW291777   5.246   6.318   3.661 -0.3627  1.2139 -1.0625
29924SOL     OW91778   9.155   3.799   7.669  0.2959 -0.4083  0.0643
29924SOL    HW191779   9.228   3.739   7.657  0.9282  0.3272  0.0851
29924SOL    HW291780   9.116   3.774   7.752  2.8139  1.4517  1.9502
29925SOL     OW91781   8.199   5.139   0.795  0.1893 -0.2999  0.4226
29925SOL    HW191782   8.176   5.195   0.721 -1.3279 -0.4679  0.7381
29925SOL    HW291783   8.129   5.154   0.859  1.9023  0.5401  2.2326
29926SOL     OW91784   4.786   2.868   1.518 -0.1877  0.0198 -0.9715
29926SOL    HW191785   4.806   2.803   1.586  3.3052  1.9270  0.0670
29926SOL    HW291786   4.848   2.849   1.448 -0.6882  0.8485 -1.6527
29927SOL     OW91787   9.141   6.207  10.983 -0.1213 -0.4183 -0.1484
29927SOL    HW191788   9.092   6.284  11.012  1.2956  0.5699 -0.2359
29927SOL    HW291789   9.076   6.150  10.943 -1.8632 -0.9265  3.0687
29928SOL     OW91790   4.059   9.895  10.667  0.1949  0.5828 -0.8681
29928SOL    HW191791   4.026   9.806  10.654 -0.6977  0.9570 -1.2344
29928SOL    HW291792   4.078   9.926  10.578 -0.9370  1.2902 -0.8737
29929SOL     OW91793   5.469   3.924   4.256  0.1482 -0.1417 -0.3014
29929SOL    HW191794   5.378   3.898   4.262  0.5351 -1.1417  3.2354
29929SOL    HW291795   5.500   3.886   4.173 -1.9905 -1.9239 -0.3592
29930SOL     OW91796   9.102   3.311   6.527 -0.3573  0.3568 -0.0698
29930SOL    HW191797   9.009   3.322   6.544 -0.5477 -0.1823 -0.7174
29930SOL    HW291798   9.107   3.285   6.435  0.2769 -1.6033  0.4628
29931SOL     OW91799   2.326   5.166   6.635 -0.6696  0.4265  0.4475
29931SOL    HW191800   2.349   5.183   6.726 -0.9935  3.6711  0.0521
29931SOL    HW291801   2.260   5.233   6.614 -2.2992 -1.6395 -1.5572
29932SOL     OW91802  11.163   6.979   6.418  0.3197 -0.2564 -0.3813
29932SOL    HW191803  11.238   6.919   6.422  1.3793  0.9780 -0.8915
29932SOL    HW291804  11.190   7.047   6.356 -0.1606  1.6116  1.3241
29933SOL     OW91805   5.360   3.940  11.120  0.0001 -0.7623 -0.4866
29933SOL    HW191806   5.333   4.003  11.053  0.6267 -0.8160 -0.7995
29933SOL    HW291807   5.337   3.854  11.083 -1.3044 -0.7117  0.1482
29934SOL     OW91808   1.371   6.790   8.557 -0.3703  0.2344  0.1561
29934SOL    HW191809   1.434   6.742   8.611  0.4049  0.9667 -0.0857
29934SOL    HW291810   1.305   6.820   8.619  1.4292  2.6189  1.0814
29935SOL     OW91811   1.958   6.949   6.877  0.1807  0.7682 -0.1082
29935SOL    HW191812   2.047   6.945   6.912 -0.3496  0.5758  1.2752
29935SOL    HW291813   1.937   7.042   6.874  0.1755  0.7781  0.2290
29936SOL     OW91814   4.883   9.447   8.053  0.8308 -0.4396 -0.3682
29936SOL    HW191815   4.949   9.511   8.077  0.1201 -0.4388  1.7588
29936SOL    HW291816   4.863   9.400   8.134 -1.0990 -1.0648 -1.1245
29937SOL     OW91817   0.577   8.415   0.972 -0.1015 -0.1432 -0.2496
29937SOL    HW191818   0.601   8.474   0.900  0.8601  2.2220  1.8425
29937SOL    HW291819   0.491   8.380   0.947 -0.1657  1.2319 -2.1842
29938SOL     OW91820   3.034   8.060   9.629 -0.1707  0.2155 -0.4688
29938SOL    HW191821   3.026   8.022   9.542  2.0932 -0.9208 -0.2623
29938SOL    HW291822   3.086   7.996   9.678 -1.5101  0.7470  1.7880
29939SOL     OW91823   3.489   5.844   7.863  0.0291 -0.5836  0.1518
29939SOL    HW191824   3.486   5.844   7.958 -2.1900  0.9347  0.1720
29939SOL    HW291825   3.560   5.905   7.841 -0.9275  0.8836  0.9156
29940SOL     OW91826  10.315   7.955   6.292  0.1277 -0.1450 -0.0462
29940SOL    HW191827  10.229   7.994   6.305  0.1167 -0.3046  0.4033
29940SOL    HW291828  10.304   7.863   6.317  0.3209 -0.2702 -0.4118
29941SOL     OW91829   7.725   1.373  10.902  0.4536  0.5787  0.2352
29941SOL    HW191830   7.675   1.342  10.977  1.4604 -1.3664  0.1650
29941SOL    HW291831   7.737   1.467  10.919 -3.7250  1.3661 -0.1365
29942SOL     OW91832   1.981   6.245   6.338  0.4209  0.0010 -0.3062
29942SOL    HW191833   1.973   6.151   6.322  0.6259  0.1048 -1.0346
29942SOL    HW291834   1.970   6.286   6.252  1.6019  0.5645 -0.2136
29943SOL     OW91835   9.582   3.750   9.205  0.6379 -0.1642 -0.0558
29943SOL    HW191836   9.574   3.680   9.140 -2.5490  1.3010 -1.4650
29943SOL    HW291837   9.611   3.826   9.155  0.3189  0.4438  0.6635
29944SOL     OW91838   8.724   5.002  11.275 -0.0310 -0.0448 -0.5557
29944SOL    HW191839   8.681   5.084  11.249 -0.4142 -0.7866 -2.4386
29944SOL    HW291840   8.795   5.029  11.333  1.0754  1.8580 -2.6306
29945SOL     OW91841   8.722  10.245  11.061 -0.4372  0.5029  0.2841
29945SOL    HW191842   8.708  10.286  10.975 -0.0474  1.1331  0.5168
29945SOL    HW291843   8.642  10.264  11.110 -0.4049  0.6924  0.2671
29946SOL     OW91844   8.964   2.866   4.077  0.7330  0.0909  0.5445
29946SOL    HW191845   8.894   2.854   4.012  1.1777  1.5459 -0.2493
29946SOL    HW291846   8.975   2.780   4.116 -2.0017 -0.0550  1.2200
29947SOL     OW91847   2.192   1.483   0.969 -0.5544 -0.5430  0.4500
29947SOL    HW191848   2.212   1.409   1.026 -1.0785 -0.5244  0.6653
29947SOL    HW291849   2.160   1.551   1.029 -1.3340 -0.6048  0.1111
29948SOL     OW91850   8.095   2.104   4.482  0.2138  0.3682  0.2368
29948SOL    HW191851   8.166   2.144   4.532  0.6647 -2.2808  1.8656
29948SOL    HW291852   8.107   2.010   4.492 -2.3166 -0.2125 -1.2015
29949SOL     OW91853   0.390   7.418   9.685  0.7069  0.6488 -0.0477
29949SOL    HW191854   0.386   7.342   9.628  1.9147  0.1915  0.4635
29949SOL    HW291855   0.414   7.491   9.627  2.1359  0.1529 -0.1047
29950SOL     OW91856   9.863   4.309   8.291  0.0649 -0.5084 -0.7218
29950SOL    HW191857   9.803   4.299   8.217 -0.6774  0.5455 -0.2814
29950SOL    HW291858   9.946   4.336   8.251 -0.2944 -0.0663 -1.1762
29951SOL     OW91859   2.580   4.869   5.260 -0.4806  0.6857  0.1546
29951SOL    HW191860   2.656   4.868   5.319  0.0592 -0.7083 -0.5212
29951SOL    HW291861   2.505   4.853   5.318 -0.0173 -0.0605  0.5723
29952SOL     OW91862   4.686   4.196  10.209 -0.0489  0.5703  0.1447
29952SOL    HW191863   4.594   4.170  10.214 -0.3306  1.6897  1.3758
29952SOL    HW291864   4.735   4.115  10.229 -0.7197 -0.1256 -0.9132
29953SOL     OW91865   3.430   2.275   9.387 -0.6777 -0.3968  0.8186
29953SOL    HW191866   3.525   2.270   9.396 -0.5296 -1.1874 -0.7198
29953SOL    HW291867   3.411   2.368   9.386  0.4221 -0.1221 -1.3076
29954SOL     OW91868  10.073   7.753   1.847  0.0392 -0.1772 -0.0528
29954SOL    HW191869  10.082   7.660   1.868  1.1632 -0.0263  0.1923
29954SOL    HW291870  10.055   7.795   1.931 -4.3749 -0.5525 -0.5920
29955SOL     OW91871   7.636   3.120   3.890  0.3038 -0.1762  0.2227
29955SOL    HW191872   7.622   3.064   3.967  1.7604  0.1249  0.7333
29955SOL    HW291873   7.669   3.202   3.926  2.0801 -0.4089 -0.7959
29956SOL     OW91874   1.922   1.485   3.794 -0.4678  0.0964 -0.0586
29956SOL    HW191875   1.868   1.501   3.716  0.0941 -0.8795 -0.6591
29956SOL    HW291876   2.002   1.446   3.760  1.7799  3.7099  0.5283
29957SOL     OW91877   7.514   7.218  10.402 -0.1548 -0.0150  0.2419
29957SOL    HW191878   7.555   7.300  10.376  1.5399 -0.6978  0.6471
29957SOL    HW291879   7.421   7.238  10.407  0.1095  1.5938 -0.7139
29958SOL     OW91880   2.827   2.274   0.086 -0.1650 -0.2182 -0.1059
29958SOL    HW191881   2.772   2.254   0.161 -2.4898 -1.3181 -1.9814
29958SOL    HW291882   2.811   2.367   0.069 -1.9262 -0.6364 -0.9309
29959SOL     OW91883  11.213   7.652   0.719  0.2126  0.1649  0.1320
29959SOL    HW191884  11.216   7.594   0.795  0.4577 -0.5346 -0.3976
29959SOL    HW291885  11.288   7.625   0.666  0.8054  1.4867  0.2360
29960SOL     OW91886   6.707   1.672   2.923 -0.4459 -0.1545 -0.0549
29960SOL    HW191887   6.638   1.712   2.976 -2.2096 -3.3340  0.3467
29960SOL    HW291888   6.667   1.662   2.836  0.5144  0.3350 -0.5622
29961SOL     OW91889   6.040   6.703  11.100 -0.0251  0.3995 -0.3754
29961SOL    HW191890   6.115   6.651  11.072 -1.4975 -1.0130 -1.9335
29961SOL    HW291891   6.076   6.790  11.117  2.2211 -0.6265  0.5962
29962SOL     OW91892  11.096   5.310   8.174  0.3145  0.4617 -0.1293
29962SOL    HW191893  11.009   5.269   8.181  0.2891  0.7902  2.9755
29962SOL    HW291894  11.082   5.386   8.117 -1.8412  1.3383  1.4385
29963SOL     OW91895   0.773   4.713   7.791  0.1559  0.4879  0.3690
29963SOL    HW191896   0.776   4.649   7.720 -1.0783  1.2278 -0.3815
29963SOL    HW291897   0.801   4.664   7.869  0.6131 -0.5785 -0.4376
29964SOL     OW91898   3.645  10.653   7.402  0.0945 -0.5937  0.0223
29964SOL    HW191899   3.557  10.661   7.439 -0.9202 -3.5484 -1.4293
29964SOL    HW291900   3.645  10.713   7.327 -0.8038 -0.8176 -0.1683
29965SOL     OW91901  11.034  10.843   5.049 -0.2590 -0.3343  0.2548
29965SOL    HW191902  10.979  10.816   5.123  0.8065 -0.8355  0.8971
29965SOL    HW291903  11.028  10.771   4.987  2.1221 -1.9427  1.7160
29966SOL     OW91904   7.395  10.997   0.620 -0.0864 -0.2120  0.0639
29966SOL    HW191905   7.381  11.021   0.712 -0.3929 -1.8338  0.4782
29966SOL    HW291906   7.317  10.946   0.597 -0.7451  1.4663 -1.5936
29967SOL     OW91907   9.855   1.766   3.189  0.4389  0.2000  0.1946
29967SOL    HW191908   9.775   1.729   3.151  0.8456 -1.0028  0.4614
29967SOL    HW291909   9.829   1.793   3.277  0.5392 -1.1267  0.6564
29968SOL     OW91910   8.870   7.903  11.117  0.3299  0.1595  0.0659
29968SOL    HW191911   8.865   7.997  11.101 -1.0665  0.1934  0.5972
29968SOL    HW291912   8.908   7.867  11.037 -2.5312  0.7761 -1.6965
29969SOL     OW91913   1.489   9.626   9.948 -0.0684  0.1169  0.1711
29969SOL    HW191914   1.444   9.700   9.990 -0.2968  0.7241 -1.0959
29969SOL    HW291915   1.484   9.645   9.855 -0.6493 -1.8201 -0.2294
29970SOL     OW91916   0.859   3.149   1.763  0.4271  0.1499 -0.2010
29970SOL    HW191917   0.922   3.079   1.746 -0.4943 -0.2031 -2.7468
29970SOL    HW291918   0.876   3.214   1.695 -0.0112  1.4933  0.9273
29971SOL     OW91919   2.930   4.288   9.714  0.3790  0.1052  0.0760
29971SOL    HW191920   2.944   4.379   9.686  2.7705 -0.1368  0.3156
29971SOL    HW291921   2.870   4.252   9.648 -1.3454  2.0556  0.4600
29972SOL     OW91922   7.048  10.426   7.020  0.7191  0.8828  0.4764
29972SOL    HW191923   7.105  10.419   7.097  0.7211  1.3306  0.5168
29972SOL    HW291924   7.084  10.500   6.971  0.6690  0.6509  0.0828
29973SOL     OW91925   1.666   6.263   4.792 -0.1894  0.1583  0.0843
29973SOL    HW191926   1.644   6.171   4.810  1.3719 -0.3881 -0.6262
29973SOL    HW291927   1.751   6.276   4.833  0.2237  0.9011 -0.9613
29974SOL     OW91928   5.537   9.224   4.182 -0.0609  0.2406 -0.1332
29974SOL    HW191929   5.452   9.182   4.168  1.2568 -2.9430  0.5535
29974SOL    HW291930   5.537   9.247   4.275 -0.1708  0.2266 -0.1297
29975SOL     OW91931   5.150   3.488   0.382 -0.1362 -0.2062 -0.1824
29975SOL    HW191932   5.231   3.494   0.331 -0.5000  0.0386 -0.7405
29975SOL    HW291933   5.090   3.438   0.326 -1.8768  3.2954 -1.7860
29976SOL     OW91934   7.073   2.386   6.584 -0.3395  0.1747 -0.0892
29976SOL    HW191935   7.117   2.464   6.550  2.4451 -1.5419 -0.7107
29976SOL    HW291936   7.013   2.359   6.514 -3.4235  3.0933  1.1456
29977SOL     OW91937   2.159   5.023   1.308 -0.6922 -0.1242 -0.5728
29977SOL    HW191938   2.210   5.088   1.356 -0.8722 -0.2318 -0.2397
29977SOL    HW291939   2.206   5.013   1.225  0.7967 -1.4872  0.3892
29978SOL     OW91940   7.649   5.258   2.805  0.2664  0.0498  0.2169
29978SOL    HW191941   7.628   5.332   2.748  0.6952  0.5731  0.7167
29978SOL    HW291942   7.564   5.224   2.832 -0.1007  2.6706  2.9141
29979SOL     OW91943   2.682   3.084   7.086 -0.0013 -0.0522  0.4446
29979SOL    HW191944   2.776   3.097   7.069  0.1527 -1.0390  0.4729
29979SOL    HW291945   2.662   3.000   7.044 -0.9597  0.3202  0.1405
29980SOL     OW91946   0.252   8.263   6.310 -0.1865 -0.1880 -0.6089
29980SOL    HW191947   0.295   8.215   6.240 -0.5970 -0.4028 -0.7206
29980SOL    HW291948   0.234   8.350   6.274 -4.5097 -1.5808 -2.5041
29981SOL     OW91949   4.052   7.343   4.518 -0.5497  0.4379  0.4755
29981SOL    HW191950   4.083   7.428   4.488  1.3185 -0.5259 -0.5558
29981SOL    HW291951   4.043   7.353   4.613  0.8491  1.4476  0.5331
29982SOL     OW91952   4.769   8.624   2.624  0.8013 -0.1438  0.5174
29982SOL    HW191953   4.818   8.609   2.705  0.2694 -2.7998  0.4294
29982SOL    HW291954   4.679   8.601   2.647  0.0772  1.8558 -0.1106
29983SOL     OW91955   0.738   0.774   1.738  0.2898 -0.3820 -0.3248
29983SOL    HW191956   0.647   0.782   1.708 -0.0216  1.9371  0.9628
29983SOL    HW291957   0.788   0.754   1.659 -1.3860 -2.4847 -0.9332
29984SOL     OW91958   2.607   0.272   4.886  0.2440 -0.0518  0.0219
29984SOL    HW191959   2.683   0.223   4.919  0.6810  1.2483  1.0402
29984SOL    HW291960   2.645   0.337   4.828 -0.2855 -0.5691 -0.9244
29985SOL     OW91961   4.483   2.768   4.402  0.0553 -0.2189  0.2969
29985SOL    HW191962   4.423   2.697   4.425  1.0602 -0.4990  2.3787
29985SOL    HW291963   4.435   2.848   4.424 -0.0885 -0.3829  0.5926
29986SOL     OW91964   1.642   5.636   1.039  0.1452 -0.2487 -1.0212
29986SOL    HW191965   1.710   5.606   1.100  0.4700  4.1980  1.1940
29986SOL    HW291966   1.563   5.592   1.069  0.8931 -0.5792  0.6202
29987SOL     OW91967   0.069   8.113   2.861 -1.2117 -0.5652 -0.2871
29987SOL    HW191968   0.064   8.182   2.794 -1.8463 -0.8553 -0.5457
29987SOL    HW291969   0.154   8.126   2.902 -1.2333  0.2416 -0.4803
29988SOL     OW91970  10.747   9.407   2.230  0.0384  0.8033 -0.0852
29988SOL    HW191971  10.824   9.435   2.279 -1.5457  2.0280  1.8180
29988SOL    HW291972  10.709   9.487   2.195 -1.2305  0.3958  0.3109
29989SOL     OW91973   2.183   3.522   1.184 -0.0088 -0.2669  0.1087
29989SOL    HW191974   2.095   3.561   1.183 -0.6119 -1.5510 -1.6595
29989SOL    HW291975   2.227   3.559   1.108  0.6254 -0.4351  0.3861
29990SOL     OW91976   8.975   5.151   0.862 -0.8502 -0.1467 -0.3559
29990SOL    HW191977   9.043   5.134   0.796 -1.5101 -1.0381 -0.8280
29990SOL    HW291978   9.008   5.107   0.941 -0.3126  0.4673 -0.2251
29991SOL     OW91979   5.208  11.255   9.376  0.1643  0.6775 -0.8572
29991SOL    HW191980   5.218  11.275   9.283  2.0523  0.7984 -0.6571
29991SOL    HW291981   5.285  11.204   9.399 -1.4085 -1.4182  0.1373
29992SOL     OW91982   1.252   6.192   9.502  0.1681 -0.1832  0.0044
29992SOL    HW191983   1.310   6.236   9.564 -0.0099  2.8022 -1.7734
29992SOL    HW291984   1.286   6.103   9.497  2.1234  0.3612  1.9547
29993SOL     OW91985   6.212  10.958   9.569  0.1580 -0.4267 -0.2867
29993SOL    HW191986   6.227  10.875   9.524 -3.7407 -1.0282 -0.7810
29993SOL    HW291987   6.146  11.003   9.517 -2.7676 -0.0372  3.3063
29994SOL     OW91988   6.265   7.940   7.475  0.4565  0.2918 -0.0796
29994SOL    HW191989   6.193   7.961   7.415  0.8271 -0.2419 -0.7347
29994SOL    HW291990   6.254   7.847   7.494  2.0498 -0.2926 -1.7309
29995SOL     OW91991   1.747   6.507  10.531 -0.0853 -0.0935  0.0737
29995SOL    HW191992   1.795   6.587  10.510  0.0132  0.8015  3.2292
29995SOL    HW291993   1.715   6.521  10.620 -0.5176 -3.3696  0.5533
29996SOL     OW91994   0.095   7.750   5.131 -0.0640 -0.2102 -0.1781
29996SOL    HW191995   0.029   7.690   5.097 -1.2930  1.0442 -0.1030
29996SOL    HW291996   0.048   7.834   5.142  0.6644 -0.0775  2.9349
29997SOL     OW91997   7.129   9.629   3.457  0.2029 -0.0355 -0.0508
29997SOL    HW191998   7.172   9.566   3.514  2.5729  0.8512 -0.7417
29997SOL    HW291999   7.187   9.704   3.456 -2.2836  2.0384  0.3528
29998SOL     OW92000  10.119   3.444   6.196 -0.3838  0.1200  0.1403
29998SOL    HW192001  10.105   3.350   6.211 -1.8510  0.7115  3.1123
29998SOL    HW292002  10.034   3.477   6.166  0.2057  0.4977 -1.1876
29999SOL     OW92003   2.689   6.209   2.756  0.6009  0.9627 -0.2984
29999SOL    HW192004   2.617   6.160   2.796  1.4335  1.4103  1.8715
29999SOL    HW292005   2.650   6.292   2.729 -0.2608  0.1462 -1.7186
30000SOL     OW92006   7.106  10.414   4.775 -0.1119 -0.0734  0.4102
30000SOL    HW192007   7.159  10.432   4.852 -0.3757  0.7377  0.4079
30000SOL    HW292008   7.064  10.497   4.754  0.9949  0.0766 -1.4066
30001SOL     OW92009   0.310   7.589   5.525 -0.3437  0.3173 -0.0075
30001SOL    HW192010   0.317   7.643   5.446  0.3303  1.5211  0.8557
30001SOL    HW292011   0.314   7.651   5.598  1.9305 -0.9537  1.0643
30002SOL     OW92012   2.435   4.142  11.263  0.2018  0.5648 -0.0674
30002SOL    HW192013   2.524   4.173  11.276  1.1085 -1.0768 -1.8412
30002SOL    HW292014   2.420   4.081  11.335 -0.3089  2.3497  1.4093
30003SOL     OW92015   5.176   1.434   1.600 -0.0769 -0.1052 -0.1620
30003SOL    HW192016   5.204   1.495   1.669 -2.3170 -0.0773  0.7916
30003SOL    HW292017   5.247   1.370   1.595  1.3358  1.3354  0.3295
30004SOL     OW92018   9.803   3.590   4.221 -0.0614 -0.4948 -0.7215
30004SOL    HW192019   9.791   3.523   4.153 -0.4048  0.4762 -1.6404
30004SOL    HW292020   9.841   3.664   4.175 -1.4508  0.6413 -0.1074
30005SOL     OW92021   3.440   8.388   4.948 -0.4663 -0.3839 -0.0654
30005SOL    HW192022   3.457   8.443   5.024 -0.1791 -0.7858  0.1631
30005SOL    HW292023   3.485   8.306   4.967 -1.4155 -0.9310 -0.1131
30006SOL     OW92024   5.607   5.460   2.518 -0.4467  0.1943 -0.3961
30006SOL    HW192025   5.620   5.523   2.447 -0.3405  0.0537 -0.5018
30006SOL    HW292026   5.609   5.375   2.475  3.2377 -0.1660  0.1955
30007SOL     OW92027   1.426   6.085   2.518 -0.6332  0.3133 -0.1120
30007SOL    HW192028   1.481   6.032   2.460 -0.1163  0.5746  0.1271
30007SOL    HW292029   1.337   6.071   2.486 -0.4116  0.0264 -0.6244
30008SOL     OW92030  10.998   2.211   7.984 -0.0119  0.1852 -0.2009
30008SOL    HW192031  11.051   2.132   7.976 -1.4407 -0.7525 -0.9215
30008SOL    HW292032  10.960   2.205   8.072  0.3440  0.3878 -0.0309
30009SOL     OW92033   8.033   0.234   1.687 -0.3973 -0.4626  0.0873
30009SOL    HW192034   7.982   0.223   1.607 -0.1481  1.6069 -0.3951
30009SOL    HW292035   8.117   0.191   1.667 -0.3786 -0.0719 -0.7133
30010SOL     OW92036   4.804   8.845   0.806  0.6516  0.0250 -0.5498
30010SOL    HW192037   4.873   8.806   0.752  0.9956  1.4918 -1.2280
30010SOL    HW292038   4.749   8.771   0.831  1.8941 -1.0449 -0.8312
30011SOL     OW92039   8.421   2.658   1.303 -0.1267  0.0980 -0.5943
30011SOL    HW192040   8.510   2.667   1.337  0.9079  0.6156 -3.2308
30011SOL    HW292041   8.397   2.567   1.323  1.8453 -0.7217 -1.6455
30012SOL     OW92042   4.453   8.615  10.752 -0.3599 -0.1021  0.3396
30012SOL    HW192043   4.363   8.616  10.785 -0.6112  1.2108 -0.3183
30012SOL    HW292044   4.477   8.708  10.744  1.2262 -0.4160  0.9458
30013SOL     OW92045   9.869   2.676   4.867  0.1875 -0.3050  0.2887
30013SOL    HW192046   9.898   2.751   4.918  1.3212 -0.8379  0.4613
30013SOL    HW292047   9.929   2.605   4.891  0.4546 -0.7119 -1.3904
30014SOL     OW92048   0.123   1.831   6.327  0.0347 -0.3421 -0.3702
30014SOL    HW192049   0.139   1.909   6.274  1.7224 -0.9627 -0.8601
30014SOL    HW292050   0.029   1.832   6.344 -0.2758  0.7988 -1.9142
30015SOL     OW92051   1.481  10.903   2.631  0.5649  0.6903  0.1116
30015SOL    HW192052   1.514  10.895   2.542 -0.4796 -0.0831 -0.2175
30015SOL    HW292053   1.394  10.865   2.628  0.7070  0.2027  1.5794
30016SOL     OW92054   6.192   6.212   3.287 -1.0249 -0.5842  0.4215
30016SOL    HW192055   6.272   6.164   3.310 -0.7659 -0.6653 -0.5786
30016SOL    HW292056   6.130   6.190   3.356  0.0223  0.0306  1.6046
30017SOL     OW92057   3.484   6.090   4.065 -0.6968 -0.5368 -0.5706
30017SOL    HW192058   3.395   6.127   4.063 -0.7097 -0.5798 -1.0036
30017SOL    HW292059   3.535   6.153   4.115 -0.4779  0.6160 -2.1616
30018SOL     OW92060   5.402   5.362   1.427 -0.2585  0.0628  0.8122
30018SOL    HW192061   5.459   5.299   1.382 -0.8471 -0.1611  0.3668
30018SOL    HW292062   5.458   5.438   1.441 -0.0803  0.1975 -0.4428
30019SOL     OW92063   4.318   5.866   1.375  0.3444  0.0960  0.8296
30019SOL    HW192064   4.254   5.931   1.405 -1.4749 -1.2874  0.1524
30019SOL    HW292065   4.287   5.783   1.411  1.6058 -0.6674  0.2423
30020SOL     OW92066   4.527   0.225   2.046  0.0976  0.0506  0.8925
30020SOL    HW192067   4.608   0.180   2.024 -0.3510  0.2195 -1.3130
30020SOL    HW292068   4.535   0.311   2.006 -0.8860  0.3256  1.2573
30021SOL     OW92069   2.824  10.845   7.054  0.1468  0.3607 -0.3216
30021SOL    HW192070   2.893  10.891   7.100 -1.4922  1.8873  0.7314
30021SOL    HW292071   2.762  10.913   7.028 -1.1723 -0.9771 -0.8687
30022SOL     OW92072   1.700   4.714   3.134 -0.4421 -0.0813 -0.3170
30022SOL    HW192073   1.774   4.662   3.103 -1.1536 -0.6038 -1.2097
30022SOL    HW292074   1.667   4.666   3.210  0.0020  0.0422 -0.0431
30023SOL     OW92075   8.078   5.345   2.786 -0.2960 -0.0986 -0.4529
30023SOL    HW192076   8.025   5.266   2.771  0.4698 -0.4433 -1.4544
30023SOL    HW292077   8.108   5.336   2.876 -2.1700  0.2641  0.2601
30024SOL     OW92078   0.864   9.916   4.989 -0.0235  0.0947  0.3878
30024SOL    HW192079   0.924   9.856   4.945 -1.4166 -1.9170  1.0952
30024SOL    HW292080   0.801   9.942   4.921  0.8355  1.1848 -0.0298
30025SOL     OW92081   9.198   6.638   6.277  0.4447  0.4050  0.2773
30025SOL    HW192082   9.197   6.712   6.337  0.4255  0.0572  0.7166
30025SOL    HW292083   9.173   6.674   6.193 -0.9982  0.6332  0.7854
30026SOL     OW92084  10.834  10.160   7.800  0.4830 -0.5236 -0.7783
30026SOL    HW192085  10.885  10.229   7.843 -0.4761  0.0570 -0.5402
30026SOL    HW292086  10.882  10.080   7.818  0.2957 -0.2613  1.0923
30027SOL     OW92087   3.229   6.222  10.935  0.6074  0.0045 -0.3583
30027SOL    HW192088   3.146   6.255  10.969  0.3276 -0.0787 -0.9645
30027SOL    HW292089   3.205   6.148  10.879  1.1014 -0.1260 -0.4030
30028SOL     OW92090   8.105   1.152   5.887 -0.0169 -0.2930  0.0833
30028SOL    HW192091   8.037   1.171   5.822  0.2036  0.0210 -0.0554
30028SOL    HW292092   8.127   1.238   5.924  0.2084 -0.4138  0.2268
30029SOL     OW92093   4.243   1.525   2.384 -0.0045 -0.0408 -0.4058
30029SOL    HW192094   4.302   1.539   2.458 -0.1655  0.8306 -0.4281
30029SOL    HW292095   4.292   1.470   2.323  0.1632 -0.6969  0.3082
30030SOL     OW92096   4.438   5.174   1.984  0.2489  0.2051  0.2116
30030SOL    HW192097   4.353   5.201   2.018 -1.0613 -2.1138 -0.9330
30030SOL    HW292098   4.458   5.237   1.916 -1.8796 -0.5944 -1.2628
30031SOL     OW92099   9.771   5.922   3.879 -0.5455 -0.5004  1.0119
30031SOL    HW192100   9.821   5.984   3.826 -1.0687 -0.7126  0.2533
30031SOL    HW292101   9.679   5.942   3.860 -0.7182 -1.7235  0.4948
30032SOL     OW92102   5.557   2.117   8.547 -0.4434 -0.0053  0.6568
30032SOL    HW192103   5.616   2.186   8.518 -1.0215 -0.1923 -1.0812
30032SOL    HW292104   5.490   2.163   8.597 -1.3343  0.9098 -1.2483
30033SOL     OW92105   9.983   1.821   7.329 -0.0541 -0.1292 -0.0148
30033SOL    HW192106   9.933   1.898   7.303 -0.1295 -0.1479  0.0775
30033SOL    HW292107   9.938   1.788   7.406  0.7649  0.5261  0.7631
30034SOL     OW92108   1.081   6.939   7.713 -0.1251  0.0531 -0.3253
30034SOL    HW192109   1.158   6.957   7.768  2.4535 -0.4959 -3.5036
30034SOL    HW292110   1.070   7.019   7.662 -1.5873  0.0313 -0.0825
30035SOL     OW92111   1.280   6.593   3.970  0.4044  0.6881  0.2360
30035SOL    HW192112   1.320   6.644   4.041  1.3707  0.4318 -0.1260
30035SOL    HW292113   1.352   6.544   3.931  0.1691  1.9356 -1.9040
30036SOL     OW92114   4.540   4.810   9.549 -0.0542 -0.3360  0.1174
30036SOL    HW192115   4.597   4.885   9.564 -0.7564 -0.1057  1.8829
30036SOL    HW292116   4.455   4.848   9.527 -0.0856 -0.6375 -0.2933
30037SOL     OW92117   8.517   0.980   2.237 -0.1627 -0.3736  0.1762
30037SOL    HW192118   8.498   0.893   2.272  3.4760 -0.7589  1.6559
30037SOL    HW292119   8.528   0.966   2.143  2.4405 -2.1001  0.6321
30038SOL     OW92120   3.388   4.601   5.341 -0.2371 -0.4156  0.0259
30038SOL    HW192121   3.330   4.537   5.300  0.6646 -2.0476  1.1946
30038SOL    HW292122   3.365   4.598   5.434 -0.3677  1.2069  0.0769
30039SOL     OW92123   7.312  10.262   2.241 -0.0391  0.1141 -0.3859
30039SOL    HW192124   7.404  10.247   2.218  0.0307  0.8245 -0.5814
30039SOL    HW292125   7.297  10.205   2.317  0.3159 -0.6660 -0.8854
30040SOL     OW92126  10.778   3.202  10.362  0.5966  0.2884 -0.6856
30040SOL    HW192127  10.787   3.151  10.281  0.1421 -0.9699  0.0289
30040SOL    HW292128  10.854   3.178  10.414  0.1617  0.0127 -0.1726
30041SOL     OW92129   4.869  10.490   7.915  0.4146 -0.4333  0.0499
30041SOL    HW192130   4.880  10.443   7.833  0.9335  1.4766 -1.0291
30041SOL    HW292131   4.953  10.483   7.959  0.6202 -0.1704 -0.3014
30042SOL     OW92132  10.714  10.357  11.004  0.1080  0.1377 -0.1278
30042SOL    HW192133  10.802  10.361  11.042  1.6165 -0.2904 -3.2576
30042SOL    HW292134  10.681  10.270  11.029 -0.6722  1.2581  3.2916
30043SOL     OW92135   6.690   6.253  10.889 -0.0977 -0.2930 -0.0800
30043SOL    HW192136   6.738   6.185  10.842  1.0898 -0.1607  0.8911
30043SOL    HW292137   6.747   6.277  10.961 -0.1534  2.2676 -0.7911
30044SOL     OW92138   1.620   9.402   2.605  0.6754  0.1802  0.2039
30044SOL    HW192139   1.563   9.419   2.680  0.9732  0.4349  0.3747
30044SOL    HW292140   1.649   9.312   2.616  0.6503  0.1898  0.3479
30045SOL     OW92141  11.271   0.750   4.038 -0.3746 -0.1394 -0.4874
30045SOL    HW192142  11.203   0.817   4.029 -1.2522 -0.7946  0.9374
30045SOL    HW292143  11.334   0.770   3.968  0.2378  3.1523  0.8121
30046SOL     OW92144   1.859   1.255   2.517 -0.0302  0.1431  0.2860
30046SOL    HW192145   1.818   1.342   2.518 -3.0909 -1.1406 -0.6305
30046SOL    HW292146   1.810   1.205   2.582  0.1656 -1.4881 -0.7711
30047SOL     OW92147   5.624   6.290   7.123 -0.2196  0.2640 -0.3419
30047SOL    HW192148   5.678   6.306   7.046  0.7013  1.4169  0.5112
30047SOL    HW292149   5.619   6.375   7.167 -1.9008 -0.0518  0.1509
30048SOL     OW92150   9.059   4.322   7.019 -0.1269 -0.1114  0.5284
30048SOL    HW192151   9.032   4.383   6.950 -0.1933  1.6218  2.0028
30048SOL    HW292152   8.980   4.273   7.040  0.2579 -1.8709 -1.6894
30049SOL     OW92153   5.300   3.909   0.817 -1.3595 -0.3260  0.1359
30049SOL    HW192154   5.324   3.977   0.880 -1.2657 -1.7169  1.6307
30049SOL    HW292155   5.372   3.909   0.754  1.3148 -2.4385  2.9130
30050SOL     OW92156   7.459   5.743   7.485 -0.7373 -0.1572 -0.7300
30050SOL    HW192157   7.466   5.752   7.580 -0.3017 -1.1158 -0.6613
30050SOL    HW292158   7.394   5.808   7.460 -0.8965  0.0732  0.2272
30051SOL     OW92159   1.000   0.586   3.245  0.1984  0.0066  0.2217
30051SOL    HW192160   0.986   0.646   3.318  0.9826  0.9951 -0.4128
30051SOL    HW292161   0.971   0.500   3.278 -0.0745  0.5506  1.4502
30052SOL     OW92162   9.920   3.882   3.358 -0.2786  0.1068 -0.2874
30052SOL    HW192163   9.831   3.914   3.345 -0.7996 -0.8002  0.9076
30052SOL    HW292164   9.966   3.906   3.277 -1.1814  1.9279 -0.3242
30053SOL     OW92165   5.562  10.897   4.465 -0.0156 -0.4011  0.1234
30053SOL    HW192166   5.478  10.884   4.509  0.4227  0.5008  1.2682
30053SOL    HW292167   5.620  10.832   4.504 -0.4271 -1.7774 -1.4540
30054SOL     OW92168  11.220   7.256   5.938  0.1724  0.0308  0.1339
30054SOL    HW192169  11.291   7.234   5.878  1.1937  1.7934  0.6202
30054SOL    HW292170  11.238   7.347   5.964 -1.7034  0.1785  1.0623
30055SOL     OW92171   5.701  10.717   5.143  0.2810 -0.0340 -0.2147
30055SOL    HW192172   5.713  10.768   5.063  1.1181 -1.0693 -0.7757
30055SOL    HW292173   5.686  10.628   5.113 -1.8108 -0.0575  0.7278
30056SOL     OW92174   6.527   2.639   5.983 -0.4089 -0.2991 -0.3975
30056SOL    HW192175   6.509   2.581   6.057 -0.4497  0.2607  0.0305
30056SOL    HW292176   6.468   2.713   5.995 -0.0240  0.0590 -0.6918
30057SOL     OW92177   1.366   7.541   2.351 -0.0214  0.5302  0.0965
30057SOL    HW192178   1.367   7.549   2.447 -0.2941  1.7894  0.0191
30057SOL    HW292179   1.368   7.447   2.334 -2.2099  0.1934  1.3818
30058SOL     OW92180   7.922   5.473   7.023  0.3188 -0.4688  0.0871
30058SOL    HW192181   7.855   5.480   6.956 -1.5274 -1.3642  1.7306
30058SOL    HW292182   7.995   5.429   6.980 -1.4723 -2.6510 -0.9447
30059SOL     OW92183   0.539   9.397   4.641  0.5371  0.8234  0.6528
30059SOL    HW192184   0.611   9.334   4.646  0.9360  1.1662 -0.5521
30059SOL    HW292185   0.570   9.465   4.580 -0.4843  1.3950  0.7469
30060SOL     OW92186   3.390   5.159   6.836 -0.5637 -0.0948 -0.5861
30060SOL    HW192187   3.317   5.198   6.884  1.4856  1.9065  1.2005
30060SOL    HW292188   3.431   5.233   6.791  2.2082 -0.4007  1.1505
30061SOL     OW92189   6.300   9.608   7.386  0.0802 -0.5056 -0.3620
30061SOL    HW192190   6.277   9.700   7.402 -1.9828 -1.0622  0.2828
30061SOL    HW292191   6.382   9.595   7.433  0.3433  0.9695 -0.3578
30062SOL     OW92192   5.901  10.271   4.175 -0.7506 -0.2269  0.4922
30062SOL    HW192193   5.903  10.303   4.085  2.6945  0.7262  0.7778
30062SOL    HW292194   5.832  10.204   4.174 -1.3127  0.2127 -2.6504
30063SOL     OW92195   8.494   6.360   0.160 -0.2776  0.3499 -0.4076
30063SOL    HW192196   8.497   6.411   0.241  0.0141  0.3355 -0.4094
30063SOL    HW292197   8.484   6.425   0.091  1.4588  0.5267 -0.5324
30064SOL     OW92198   6.891   9.158  11.244  0.2246  0.1652 -0.2912
30064SOL    HW192199   6.806   9.124  11.215 -0.5147  1.1657  0.6431
30064SOL    HW292200   6.952   9.132  11.174 -0.9306 -0.1475 -1.2166
30065SOL     OW92201   3.521   5.851   8.998 -0.0221  0.1405  0.0726
30065SOL    HW192202   3.461   5.784   8.967  0.2196  0.8187 -1.9699
30065SOL    HW292203   3.529   5.834   9.092 -5.0304  1.2841  1.0003
30066SOL     OW92204   9.831   8.682   9.346  0.3006 -0.2838 -0.5055
30066SOL    HW192205   9.921   8.670   9.377  0.1362 -0.1269  0.0368
30066SOL    HW292206   9.790   8.596   9.356 -0.4624  0.2794  2.0512
30067SOL     OW92207   4.077   0.334   3.357 -0.1440 -0.0205  0.6933
30067SOL    HW192208   4.126   0.365   3.281  1.2093  0.0452  1.5692
30067SOL    HW292209   4.129   0.261   3.392 -1.3932 -0.8856  0.8391
30068SOL     OW92210   1.611   0.719   3.330 -0.6619  0.1593 -0.6961
30068SOL    HW192211   1.592   0.648   3.269 -0.7832  2.0792 -3.0259
30068SOL    HW292212   1.667   0.779   3.281 -1.5520  2.2728  0.7284
30069SOL     OW92213   9.419   9.672  10.110  0.4745  0.1858  0.1172
30069SOL    HW192214   9.492   9.718  10.069 -0.0828  1.1812  0.2167
30069SOL    HW292215   9.342   9.706  10.066  0.0043 -0.1459  0.6762
30070SOL     OW92216   1.251   2.890   3.358  0.1350  0.1550  0.2385
30070SOL    HW192217   1.239   2.962   3.297 -0.4219  0.2363  0.4411
30070SOL    HW292218   1.322   2.837   3.320 -1.9309 -1.2712 -1.8505
30071SOL     OW92219   3.741   2.978   7.821 -0.5913  0.4685 -0.3620
30071SOL    HW192220   3.701   2.891   7.810  0.1142  0.1085 -0.1749
30071SOL    HW292221   3.798   2.988   7.745 -0.5154  0.6850 -0.2764
30072SOL     OW92222   0.364   3.168   3.083 -0.0102  0.2079 -0.0321
30072SOL    HW192223   0.334   3.132   3.166  0.9489 -1.2313 -0.2803
30072SOL    HW292224   0.403   3.253   3.106  1.0392 -0.5538  1.1362
30073SOL     OW92225   8.476   1.454   3.636  0.0998  0.4001  0.0916
30073SOL    HW192226   8.439   1.366   3.630 -0.4395  0.4492  1.9300
30073SOL    HW292227   8.484   1.483   3.545  0.9497 -1.7916 -0.6094
30074SOL     OW92228   1.612   0.818   5.807 -0.1086  0.6116  0.0807
30074SOL    HW192229   1.572   0.775   5.883  2.0770  0.9208  1.5163
30074SOL    HW292230   1.670   0.751   5.770 -0.0142  0.9427 -0.3758
30075SOL     OW92231   4.599   1.712   1.067 -0.4325  0.0309  0.6290
30075SOL    HW192232   4.650   1.713   1.148 -2.2748 -0.5266  1.8681
30075SOL    HW292233   4.510   1.731   1.095 -0.9316  0.9426 -1.4513
30076SOL     OW92234   4.749   5.700   4.152 -0.2004 -0.4817  0.2488
30076SOL    HW192235   4.758   5.604   4.154  0.2264 -0.4698 -0.8012
30076SOL    HW292236   4.654   5.714   4.152 -0.2846 -0.8529  1.6300
30077SOL     OW92237   2.023   0.086   9.731  1.1381 -0.2378  0.1549
30077SOL    HW192238   2.061   0.108   9.645  0.6671 -1.3835 -0.3570
30077SOL    HW292239   2.028   0.168   9.780  0.9837  0.5681 -1.1249
30078SOL     OW92240   6.137   7.720   7.574  0.1230 -0.7023 -0.6074
30078SOL    HW192241   6.053   7.754   7.604  0.6288 -0.9194  1.1658
30078SOL    HW292242   6.119   7.685   7.486 -1.7802 -1.2991 -0.0278
30079SOL     OW92243   4.503   3.110   6.175 -0.6695 -0.5518 -0.6713
30079SOL    HW192244   4.415   3.109   6.138 -0.3536  0.1107 -1.4409
30079SOL    HW292245   4.518   3.200   6.201  0.3528 -0.3326 -1.9342
30080SOL     OW92246   5.033   8.775   7.240 -0.4093 -0.6250 -0.0782
30080SOL    HW192247   4.980   8.754   7.163 -1.4989  2.1073 -0.1568
30080SOL    HW292248   5.049   8.690   7.281  0.3762 -2.2336 -3.3470
30081SOL     OW92249  11.054   7.753   8.256 -0.1181 -0.0944 -0.0775
30081SOL    HW192250  11.078   7.844   8.241  1.1037 -0.1116  1.5550
30081SOL    HW292251  11.132   7.713   8.295 -0.3823 -2.0320 -1.3982
30082SOL     OW92252   2.520   0.245   4.517  0.4888  0.7118 -0.1668
30082SOL    HW192253   2.599   0.241   4.570 -0.3891  0.7518  1.2033
30082SOL    HW292254   2.460   0.184   4.558  0.0100  0.1887 -1.5780
30083SOL     OW92255   7.020   9.520  11.020  0.5685  0.0766  0.0127
30083SOL    HW192256   7.017   9.504  10.926 -0.2338 -1.6474  0.2992
30083SOL    HW292257   7.060   9.607  11.028 -0.3739  0.7390 -1.9398
30084SOL     OW92258   3.421   7.343   8.922  0.2923  0.0120 -0.4288
30084SOL    HW192259   3.366   7.354   8.844  0.2775 -1.5573 -0.6594
30084SOL    HW292260   3.510   7.355   8.891  0.2363  0.2115 -0.5164
30085SOL     OW92261   1.337   7.492   6.481  0.6017 -0.2281 -0.1811
30085SOL    HW192262   1.379   7.480   6.396 -0.3694  1.8150 -1.0156
30085SOL    HW292263   1.246   7.468   6.467  0.7321 -1.3789  0.7377
30086SOL     OW92264   9.473   1.656   6.303 -0.2219 -0.8139  0.0348
30086SOL    HW192265   9.544   1.715   6.275  0.2957 -1.8097 -0.8079
30086SOL    HW292266   9.402   1.672   6.241 -0.1233 -0.9874 -0.1248
30087SOL     OW92267   5.286  10.658   1.388  0.2961  0.1612  0.0793
30087SOL    HW192268   5.256  10.598   1.320  3.1064 -0.1255 -1.0417
30087SOL    HW292269   5.232  10.736   1.376 -1.6540 -1.1546 -0.1265
30088SOL     OW92270   4.641   0.914  10.494 -0.2857  0.2753 -0.2339
30088SOL    HW192271   4.723   0.938  10.452 -0.1172  0.3180  0.1165
30088SOL    HW292272   4.594   0.863  10.428 -0.3526  0.9802 -0.7357
30089SOL     OW92273   0.160   4.240   1.748 -0.5702 -0.0827  0.3323
30089SOL    HW192274   0.076   4.195   1.744 -1.1007  0.9434 -2.8275
30089SOL    HW292275   0.153   4.298   1.824 -1.1896 -2.6811  2.3868
30090SOL     OW92276   4.033   4.081   5.772  0.0679 -0.7270  0.0063
30090SOL    HW192277   3.980   4.098   5.850  1.1615 -2.9466  1.3192
30090SOL    HW292278   3.995   4.002   5.734 -0.7043  0.5459 -2.0118
30091SOL     OW92279   7.513   8.565   6.123  1.0178  0.1418 -0.3576
30091SOL    HW192280   7.473   8.536   6.205  2.6524 -1.6718 -0.1258
30091SOL    HW292281   7.462   8.520   6.055 -0.3790  1.6960 -0.4099
30092SOL     OW92282   9.856   2.814   3.095  0.7433  0.1133 -0.3668
30092SOL    HW192283   9.808   2.755   3.153 -1.1395  2.3120  0.4394
30092SOL    HW292284   9.811   2.806   3.011 -1.2175  2.2134  0.4029
30093SOL     OW92285   0.467   5.670   2.848  0.6351  0.8597  0.0798
30093SOL    HW192286   0.422   5.636   2.771  0.4486  2.9122 -0.7899
30093SOL    HW292287   0.509   5.594   2.887  0.5028 -0.2821 -1.8881
30094SOL     OW92288   3.693   1.161   0.105  0.2939 -0.0327  0.2085
30094SOL    HW192289   3.729   1.115   0.029 -0.9982  1.4262 -1.3660
30094SOL    HW292290   3.768   1.174   0.163  0.9899 -2.6339 -0.0101
30095SOL     OW92291   3.773   9.522   7.216 -0.0549  0.1224  0.4085
30095SOL    HW192292   3.690   9.478   7.196 -1.4046  1.8148  1.8706
30095SOL    HW292293   3.824   9.516   7.135 -0.5146 -3.1699  0.2558
30096SOL     OW92294   3.695   9.519   9.401  0.0100 -0.4100 -0.3661
30096SOL    HW192295   3.755   9.461   9.354  0.7768  1.6441 -2.0690
30096SOL    HW292296   3.610   9.476   9.393  0.7597 -1.9538 -0.4004
30097SOL     OW92297   6.673   1.475   7.199  0.3138  0.2232  0.6738
30097SOL    HW192298   6.630   1.523   7.128  0.7159 -0.9348 -0.4025
30097SOL    HW292299   6.679   1.537   7.271 -0.3110  1.3708 -0.2402
30098SOL     OW92300   2.942   4.968   3.992  0.1950  0.0527 -0.5303
30098SOL    HW192301   3.029   4.968   4.031 -0.2523 -0.1748  0.4920
30098SOL    HW292302   2.928   4.878   3.964 -0.6898 -0.5277  1.6031
30099SOL     OW92303   1.345   4.114   8.505 -0.4733  0.2919 -0.2026
30099SOL    HW192304   1.383   4.037   8.463 -1.2317 -0.1154 -0.1645
30099SOL    HW292305   1.265   4.082   8.547 -1.8197  1.4241 -1.7448
30100SOL     OW92306   6.348   9.014   8.869  0.3102 -0.6799  0.2997
30100SOL    HW192307   6.442   9.003   8.882  0.5960 -1.6194 -2.1192
30100SOL    HW292308   6.340   9.093   8.816 -0.3781 -0.0444  1.3007
30101SOL     OW92309   0.011   5.811   9.956  0.2330 -0.9595 -0.6223
30101SOL    HW192310  -0.017   5.804   9.864  0.7265 -0.3109 -0.8302
30101SOL    HW292311  -0.043   5.747  10.002 -2.8425  1.3294 -0.7356
30102SOL     OW92312   0.253   3.831   0.032  0.6919 -0.5915  0.2406
30102SOL    HW192313   0.176   3.794   0.077 -0.4470 -1.1499 -2.0144
30102SOL    HW292314   0.316   3.759   0.031  1.1275 -0.2506  1.7886
30103SOL     OW92315   2.698   6.946   1.287 -0.2282  0.0547 -0.2847
30103SOL    HW192316   2.658   6.999   1.356  0.2141  0.3267 -0.2343
30103SOL    HW292317   2.673   6.856   1.309  3.7603 -0.5521  3.0643
30104SOL     OW92318   7.641   3.526   7.219  0.0650  0.7566 -0.3515
30104SOL    HW192319   7.579   3.513   7.147 -1.0902  0.4362  0.6524
30104SOL    HW292320   7.630   3.448   7.274 -0.4593  1.8283  1.1324
30105SOL     OW92321   5.557   0.189   9.632  0.1129  0.1012  0.3883
30105SOL    HW192322   5.551   0.267   9.687  3.7040  0.2362  0.8234
30105SOL    HW292323   5.561   0.224   9.543  1.5761  0.4677  0.5725
30106SOL     OW92324   1.737   6.435   0.245 -0.2446 -0.0663 -0.6111
30106SOL    HW192325   1.786   6.421   0.164  2.1525 -0.5505  0.8052
30106SOL    HW292326   1.752   6.527   0.266 -0.2589 -0.1175 -0.3756
30107SOL     OW92327   4.736   5.126   0.423  0.3549 -0.2189  0.2186
30107SOL    HW192328   4.722   5.219   0.442 -0.0368 -0.8434  3.5964
30107SOL    HW292329   4.650   5.095   0.395  0.4418  0.3547 -0.7369
30108SOL     OW92330   3.028   6.008   8.011 -0.2539 -0.0273 -0.1180
30108SOL    HW192331   2.966   6.081   8.009 -0.7114 -0.4098 -2.0228
30108SOL    HW292332   3.093   6.033   8.076  0.3210  2.6948 -1.6215
30109SOL     OW92333   3.442   8.918   9.558 -0.3517  0.2817  0.6159
30109SOL    HW192334   3.530   8.953   9.545 -0.0953  0.2297  1.9876
30109SOL    HW292335   3.418   8.881   9.473  0.4813  1.3090 -0.0927
30110SOL     OW92336   4.911   3.533   3.588  0.3515 -0.1334 -0.0144
30110SOL    HW192337   5.002   3.514   3.614  0.6007  0.5089 -0.4004
30110SOL    HW292338   4.862   3.529   3.669  0.8826  0.4067  0.3442
30111SOL     OW92339   4.034   3.848   9.693  0.2495 -0.0843  0.2480
30111SOL    HW192340   4.060   3.893   9.774  3.6430 -2.4854  0.6792
30111SOL    HW292341   3.978   3.776   9.722 -1.6485  1.2023 -0.0282
30112SOL     OW92342   0.126   9.804   5.879  0.3536 -0.0012  0.4415
30112SOL    HW192343   0.165   9.717   5.882 -0.7990 -0.5143  1.4199
30112SOL    HW292344   0.155   9.846   5.960 -0.3039 -0.0270  0.6946
30113SOL     OW92345   3.926   5.448   5.537  0.1844 -0.6090 -0.2467
30113SOL    HW192346   3.834   5.468   5.555  0.3666  0.0647 -0.0460
30113SOL    HW292347   3.922   5.387   5.463 -0.3981  0.0111 -0.7401
30114SOL     OW92348   4.254   9.618   7.197 -0.7309  0.2777  0.1028
30114SOL    HW192349   4.252   9.568   7.116  1.7890  0.4242 -0.1284
30114SOL    HW292350   4.216   9.560   7.263  0.1423 -1.1262 -0.5884
30115SOL     OW92351   6.997   0.983   5.413 -1.0386  0.4208 -0.8528
30115SOL    HW192352   6.931   0.915   5.430 -0.4961 -0.0663 -0.6508
30115SOL    HW292353   7.044   0.952   5.336 -0.6230  0.4358 -0.6088
30116SOL     OW92354   7.440   9.483   8.334  0.4857 -0.2674  0.0228
30116SOL    HW192355   7.382   9.413   8.303  1.5146 -1.6305  1.0601
30116SOL    HW292356   7.417   9.494   8.427 -1.8014  3.0031 -0.7122
30117SOL     OW92357   0.088   3.040   6.274 -0.1726 -0.1766 -0.4936
30117SOL    HW192358   0.055   3.008   6.357  1.9366  1.2870  1.0053
30117SOL    HW292359   0.038   3.120   6.258  0.7565  0.6114  0.4211
30118SOL     OW92360  10.508   3.789   6.408  0.1397  0.3739 -0.3532
30118SOL    HW192361  10.492   3.789   6.314  2.6616  2.5784 -0.9121
30118SOL    HW292362  10.540   3.701   6.428 -1.9088 -0.6181 -1.1720
30119SOL     OW92363   6.585   2.016   0.670 -0.2140 -0.2086  0.4033
30119SOL    HW192364   6.612   2.044   0.583 -0.0291  0.0156  0.5315
30119SOL    HW292365   6.643   2.064   0.730  1.0732 -1.8956  0.5821
30120SOL     OW92366   7.762   6.723  10.102  0.0889 -0.5450 -0.2119
30120SOL    HW192367   7.778   6.815  10.119  0.7936 -0.8329  0.7632
30120SOL    HW292368   7.838   6.693  10.052  0.8452 -1.0507  1.2056
30121SOL     OW92369  10.281   5.034   1.299 -0.2193  0.3958 -0.1346
30121SOL    HW192370  10.231   4.955   1.321  0.6739  0.0454  0.7194
30121SOL    HW292371  10.259   5.096   1.367  0.4078  0.2764  0.1867
30122SOL     OW92372   1.337   0.699   7.462 -0.0837  0.6163  0.1094
30122SOL    HW192373   1.351   0.792   7.477 -1.1401  0.6930  0.6646
30122SOL    HW292374   1.360   0.686   7.370  0.7710  1.2701  0.2108
30123SOL     OW92375   6.712   2.379   7.890 -0.1868  0.3426 -0.1459
30123SOL    HW192376   6.751   2.389   7.977 -0.2887 -3.5629  0.5342
30123SOL    HW292377   6.777   2.330   7.840 -2.7100 -3.6568  0.0568
30124SOL     OW92378   7.819   2.293   1.536  0.1269 -0.1133  0.1276
30124SOL    HW192379   7.860   2.282   1.451 -0.7255  0.9711 -0.4554
30124SOL    HW292380   7.727   2.269   1.522  0.4164 -2.1979  1.3281
30125SOL     OW92381   9.853   5.419   8.661  0.2546 -0.2567  0.3017
30125SOL    HW192382   9.870   5.334   8.701  0.6968 -0.4561 -0.2894
30125SOL    HW292383   9.816   5.472   8.732  0.6851 -0.7044  0.8707
30126SOL     OW92384   0.408   8.328   0.162  0.3097  0.1618 -0.0720
30126SOL    HW192385   0.324   8.347   0.119  0.3259 -0.9709 -0.6399
30126SOL    HW292386   0.384   8.308   0.252  0.0407  0.4309 -0.0794
30127SOL     OW92387  10.109  10.919   9.787 -0.2882  0.7501  0.5363
30127SOL    HW192388  10.084  10.930   9.695 -2.5237 -0.3070  0.9382
30127SOL    HW292389  10.034  10.953   9.836 -0.7034 -1.8310  1.8800
30128SOL     OW92390   8.157   4.037   6.924 -0.1288  0.9387  0.3593
30128SOL    HW192391   8.168   4.132   6.917 -1.0194  1.1059  1.0861
30128SOL    HW292392   8.181   4.017   7.015 -1.2039  0.6625  0.5951
30129SOL     OW92393   1.545   4.876   9.569  0.8396  0.6745  0.5116
30129SOL    HW192394   1.473   4.863   9.630  0.1170  0.9534 -0.2659
30129SOL    HW292395   1.608   4.929   9.618  1.1635 -0.7146  1.6674
30130SOL     OW92396   6.714   3.099  11.075  0.7463 -0.0002  1.0192
30130SOL    HW192397   6.782   3.049  11.029  0.8459  1.6268 -0.7027
30130SOL    HW292398   6.706   3.055  11.160  1.9366 -1.9495  0.2059
30131SOL     OW92399   3.764  10.153   6.979  0.3732 -0.1353 -0.4545
30131SOL    HW192400   3.781  10.078   7.036  2.7187  0.4828 -0.2192
30131SOL    HW292401   3.705  10.119   6.912 -1.2957 -1.2758  1.4650
30132SOL     OW92402   2.539   6.729  10.124  0.2512 -0.0035 -0.1563
30132SOL    HW192403   2.555   6.797  10.189 -0.7724 -1.4532  1.7319
30132SOL    HW292404   2.626   6.692  10.106  0.4298 -0.3998  1.3878
30133SOL     OW92405   3.960   2.893   3.019  0.0443  0.0519  0.3559
30133SOL    HW192406   3.953   2.800   3.037  0.3975 -0.1457 -0.4923
30133SOL    HW292407   3.884   2.913   2.965  1.0435 -0.2004 -1.2164
30134SOL     OW92408   5.858   5.773   0.770 -0.2831 -0.4964 -0.0683
30134SOL    HW192409   5.826   5.715   0.839  0.6492  1.7432  2.4223
30134SOL    HW292410   5.784   5.830   0.750  0.5116  1.4344  2.0838
30135SOL     OW92411   6.434   4.701   8.293  0.3523  0.5006  0.9471
30135SOL    HW192412   6.414   4.656   8.211  3.3076  1.7312 -0.5995
30135SOL    HW292413   6.519   4.666   8.319 -0.7983 -0.3800  3.9967
30136SOL     OW92414   2.736   7.729   3.302  0.1658  0.0321  0.4568
30136SOL    HW192415   2.806   7.704   3.242 -2.0588 -0.6275 -2.0464
30136SOL    HW292416   2.704   7.646   3.338  0.5281  0.3164  1.4726
30137SOL     OW92417   8.733   0.310   4.111  0.2248 -0.1153 -0.4637
30137SOL    HW192418   8.773   0.328   4.026  0.6664 -0.3167 -0.2992
30137SOL    HW292419   8.804   0.322   4.174 -0.6207  2.3553  0.1344
30138SOL     OW92420   1.985   3.616   3.634 -0.3973 -1.1110  0.1818
30138SOL    HW192421   1.892   3.610   3.612 -0.2891  0.1734 -0.7294
30138SOL    HW292422   1.993   3.698   3.683  0.2711 -1.1643  0.1751
30139SOL     OW92423   1.435   3.852   6.118 -0.1954 -0.4647  0.1431
30139SOL    HW192424   1.398   3.768   6.145 -0.0096  0.0592  2.1083
30139SOL    HW292425   1.506   3.869   6.180  0.5223  0.6248 -0.9144
30140SOL     OW92426  10.996   2.556   3.335  0.1991 -0.7507 -0.0896
30140SOL    HW192427  10.938   2.509   3.395 -1.5148  0.6714 -0.5383
30140SOL    HW292428  10.937   2.589   3.267  1.5494  0.7151 -0.6000
30141SOL     OW92429   5.351  11.266   0.608 -0.2321  0.2240 -0.0226
30141SOL    HW192430   5.409  11.209   0.558  0.0048  1.6976 -1.5184
30141SOL    HW292431   5.264  11.246   0.575 -0.0337  1.5022 -1.4189
30142SOL     OW92432   3.623   2.986   4.275 -0.2625  1.0120 -0.7291
30142SOL    HW192433   3.620   2.902   4.228 -2.1190  0.6964 -0.1115
30142SOL    HW292434   3.705   3.026   4.245  0.5733 -0.9091 -1.2031
30143SOL     OW92435  10.423   3.888   7.302  0.3240 -0.8965 -0.1977
30143SOL    HW192436  10.441   3.796   7.321 -0.0547 -1.0432 -0.5538
30143SOL    HW292437  10.445   3.933   7.384  0.4125 -1.3117  0.0123
30144SOL     OW92438   3.320  10.420   1.556 -0.1341 -0.3319  0.4127
30144SOL    HW192439   3.332  10.458   1.643  0.4166 -0.3083  0.3308
30144SOL    HW292440   3.244  10.466   1.520 -1.1906 -1.2806  1.3853
30145SOL     OW92441   0.242   1.315   4.386  0.2466 -0.3936  0.2304
30145SOL    HW192442   0.185   1.374   4.337  1.4540  0.0957 -0.6468
30145SOL    HW292443   0.313   1.294   4.324  2.1191  0.6477  1.9143
30146SOL     OW92444   0.131   3.450   0.651 -0.1570  0.0072 -0.0442
30146SOL    HW192445   0.202   3.514   0.659  0.1040 -0.3007  0.1743
30146SOL    HW292446   0.103   3.434   0.741 -1.7214  1.4394 -0.2265
30147SOL     OW92447   9.233  11.010   3.851  0.4027  0.5152  0.0497
30147SOL    HW192448   9.242  10.998   3.756 -2.5176  0.3450 -0.2848
30147SOL    HW292449   9.245  10.923   3.888 -0.1477  0.2743 -0.3370
30148SOL     OW92450  10.273   8.228   4.623 -0.0967  0.3247 -0.2160
30148SOL    HW192451  10.198   8.273   4.662  0.6566  0.4183  1.1958
30148SOL    HW292452  10.288   8.152   4.679 -0.3893 -0.8655 -1.6753
30149SOL     OW92453   9.235   1.793   8.201 -0.3024 -0.4064  0.3079
30149SOL    HW192454   9.163   1.731   8.195 -1.0386  0.5027 -3.8308
30149SOL    HW292455   9.285   1.779   8.121 -0.2945  3.8953 -0.7363
30150SOL     OW92456   7.887   8.334   4.866 -0.2064  0.5130  0.1858
30150SOL    HW192457   7.839   8.379   4.935 -0.5727  0.4080 -0.0006
30150SOL    HW292458   7.970   8.382   4.860  0.4162 -0.3148  1.6465
30151SOL     OW92459   0.092   5.167   3.345 -0.5640 -0.0642  0.3608
30151SOL    HW192460   0.033   5.237   3.372 -0.9668 -0.6784  1.1205
30151SOL    HW292461   0.178   5.209   3.337 -0.7540  0.4698  1.0321
30152SOL     OW92462   0.619   1.959   8.172  0.3706 -0.5535 -1.0871
30152SOL    HW192463   0.538   1.934   8.215  0.0032  1.4329 -0.5307
30152SOL    HW292464   0.592   1.990   8.086  0.3268  1.4522 -0.3874
30153SOL     OW92465   0.555   4.504   6.829  0.4745  0.7059 -0.2427
30153SOL    HW192466   0.605   4.468   6.756  0.3820 -0.1194  0.0972
30153SOL    HW292467   0.499   4.570   6.788 -0.1067 -0.2520 -1.0423
30154SOL     OW92468   7.481   3.432   6.588  0.1765  0.4669 -0.7498
30154SOL    HW192469   7.563   3.404   6.549 -0.1425  0.5971 -1.5311
30154SOL    HW292470   7.482   3.394   6.676  1.0826  0.5010 -0.7428
30155SOL     OW92471   0.827   0.592  11.229 -0.1236  0.2794  0.0215
30155SOL    HW192472   0.801   0.683  11.243  1.8846  1.0062 -0.6336
30155SOL    HW292473   0.897   0.576  11.292  0.9070 -0.1481 -1.1835
30156SOL     OW92474   6.983   9.540   1.061 -0.2504 -0.2653  0.3068
30156SOL    HW192475   6.902   9.490   1.074 -1.3900  1.4090 -0.0652
30156SOL    HW292476   6.991   9.593   1.140  0.0930  0.0999  0.0292
30157SOL     OW92477   0.110   1.526   6.330  0.0004 -0.6819 -0.1797
30157SOL    HW192478   0.099   1.511   6.236 -2.1064  0.7371 -0.2256
30157SOL    HW292479   0.138   1.618   6.335  1.1467 -1.0467  0.5760
30158SOL     OW92480   0.005  11.260   9.869  0.7755 -0.0055 -0.5293
30158SOL    HW192481  -0.063  11.226   9.812 -0.3582 -1.0906  1.3573
30158SOL    HW292482  -0.041  11.285   9.949  1.8946  3.9863 -0.9362
30159SOL     OW92483   7.515   4.525   1.356 -0.6955 -0.1127 -0.0824
30159SOL    HW192484   7.557   4.461   1.299 -1.9152 -0.3253 -0.7844
30159SOL    HW292485   7.423   4.524   1.330 -0.7109  2.2047 -0.3720
30160SOL     OW92486   4.148   8.355   5.010  0.4340 -1.0312 -0.3216
30160SOL    HW192487   4.202   8.319   4.939  1.1573  0.7391 -0.7325
30160SOL    HW292488   4.202   8.343   5.089  2.5256  2.5937 -1.0087
30161SOL     OW92489  11.155   6.441   3.258 -0.6074  0.0301  0.1190
30161SOL    HW192490  11.244   6.476   3.254 -0.7987  0.6083  0.6858
30161SOL    HW292491  11.103   6.512   3.297 -1.3040 -0.3224 -0.1452
30162SOL     OW92492   3.067   5.264   5.469 -0.0983 -0.6704  0.1701
30162SOL    HW192493   3.075   5.171   5.449  0.6775 -0.5561 -0.0961
30162SOL    HW292494   2.975   5.276   5.496 -0.2615 -1.4586 -0.0292
30163SOL     OW92495   3.772   2.952   1.837  0.4374 -0.2046 -0.2116
30163SOL    HW192496   3.854   2.909   1.863  0.6929  0.2109 -0.3211
30163SOL    HW292497   3.790   3.045   1.847 -0.0676 -0.1181 -0.1160
30164SOL     OW92498   6.360   7.266   0.269  0.5568 -0.0501 -0.2762
30164SOL    HW192499   6.279   7.225   0.298  0.3066  0.5942 -0.0443
30164SOL    HW292500   6.416   7.265   0.347  0.0364  1.3048  0.1361
30165SOL     OW92501   0.850   0.041   4.355  0.7630 -0.6962  0.7412
30165SOL    HW192502   0.762   0.068   4.379  1.3711  2.0523  0.2593
30165SOL    HW292503   0.872  -0.029   4.416 -1.5844 -1.2049  1.0845
30166SOL     OW92504   6.989   0.352   9.026 -0.3499 -0.7125 -0.3622
30166SOL    HW192505   6.951   0.303   8.953 -1.6648  1.1667 -1.0059
30166SOL    HW292506   6.915   0.398   9.066  0.3874 -1.4325  2.0090
30167SOL     OW92507   6.142   0.021   7.211  0.0288  0.3952 -0.4833
30167SOL    HW192508   6.165   0.046   7.300  0.9928 -2.1058  0.0291
30167SOL    HW292509   6.226   0.015   7.165 -0.5105  3.0026 -2.0441
30168SOL     OW92510   1.553   0.157   9.619 -0.0107 -0.4254 -0.2117
30168SOL    HW192511   1.575   0.088   9.682 -0.1639 -1.0340 -0.8198
30168SOL    HW292512   1.634   0.171   9.570 -0.0411 -0.3242 -0.2318
30169SOL     OW92513   1.248   5.977   4.856 -1.0564  0.1427 -0.2219
30169SOL    HW192514   1.195   5.937   4.925 -2.0164  0.7459 -0.5905
30169SOL    HW292515   1.236   6.071   4.868  1.2375  0.3787  0.6888
30170SOL     OW92516   7.875   8.359  10.835  0.4099  0.1859 -0.4841
30170SOL    HW192517   7.880   8.266  10.817 -0.1709 -0.2717  1.5393
30170SOL    HW292518   7.781   8.378  10.839  0.4793  1.2116 -2.3305
30171SOL     OW92519   7.947   6.208   0.711 -0.9503 -0.5710  0.6133
30171SOL    HW192520   7.872   6.237   0.763 -0.1270 -0.9822  2.0939
30171SOL    HW292521   8.006   6.283   0.711 -0.7500 -0.7272  0.6769
30172SOL     OW92522   5.195   3.023   9.219 -0.2810  0.4883 -0.5578
30172SOL    HW192523   5.160   3.063   9.299 -1.3288 -0.8823 -0.2976
30172SOL    HW292524   5.121   3.020   9.159 -0.6745 -2.3052 -0.0564
30173SOL     OW92525   2.058   4.620   2.872  0.6922 -0.2600 -0.1602
30173SOL    HW192526   2.025   4.555   2.810 -0.6413  0.8399 -0.6287
30173SOL    HW292527   1.985   4.679   2.887  2.0322  1.4760 -0.1732
30174SOL     OW92528   5.485   3.429   6.658  0.0944  0.3450 -0.2170
30174SOL    HW192529   5.559   3.370   6.642 -0.3314 -0.8043  1.6791
30174SOL    HW292530   5.454   3.454   6.571  0.9242 -1.4729 -1.0794
30175SOL     OW92531   6.718   4.365   5.724 -0.1846  0.0371  0.1548
30175SOL    HW192532   6.721   4.374   5.819  0.5597 -0.5275  0.1983
30175SOL    HW292533   6.765   4.283   5.706 -0.9007 -0.2203 -0.6490
30176SOL     OW92534   7.964   2.122   3.384 -0.8297  0.1949  0.5825
30176SOL    HW192535   7.985   2.105   3.476 -0.7545 -0.4948  0.4473
30176SOL    HW292536   8.009   2.052   3.337 -2.1871 -0.4216  0.1545
30177SOL     OW92537   1.629   8.737   8.504 -0.6900 -0.0216 -0.5753
30177SOL    HW192538   1.682   8.754   8.426  1.9749  0.0778  1.1073
30177SOL    HW292539   1.634   8.818   8.555  0.0321 -0.9608  0.9337
30178SOL     OW92540   2.120   3.073   0.983 -0.0288  0.0614 -0.6372
30178SOL    HW192541   2.190   3.129   1.017 -0.6210  0.5622 -0.2200
30178SOL    HW292542   2.157   2.985   0.984  0.3381  0.2176  0.3061
30179SOL     OW92543   1.363   6.830   5.557 -0.5662  0.1792 -0.6404
30179SOL    HW192544   1.286   6.773   5.568 -2.1151  1.7708 -2.4747
30179SOL    HW292545   1.388   6.818   5.465 -0.3134  1.6822 -0.7908
30180SOL     OW92546   2.182   6.306   5.816 -0.5890 -0.2358 -0.7353
30180SOL    HW192547   2.251   6.303   5.750  0.6131  0.6474  0.4168
30180SOL    HW292548   2.136   6.388   5.798  0.9589  1.0076  0.6109
30181SOL     OW92549   4.075   6.715   8.245  0.2137 -0.0559  0.3242
30181SOL    HW192550   4.070   6.643   8.183 -0.9801 -1.2061  1.6839
30181SOL    HW292551   4.168   6.737   8.249  0.3559 -0.1250 -1.6122
30182SOL     OW92552   3.718   5.414   6.155 -0.0696  0.3453 -0.6552
30182SOL    HW192553   3.634   5.395   6.112  0.6973 -0.7053 -1.7572
30182SOL    HW292554   3.782   5.362   6.106  1.2068  0.9986  0.2707
30183SOL     OW92555   1.978   6.483   3.561  0.3116  0.3497  0.2783
30183SOL    HW192556   1.953   6.504   3.651 -2.6373 -1.3621 -0.0063
30183SOL    HW292557   1.999   6.390   3.563 -1.7245 -0.2104 -1.0538
30184SOL     OW92558   4.154   3.741   5.666 -0.5046  0.0948  0.0513
30184SOL    HW192559   4.098   3.683   5.615 -0.8409  0.7760 -0.3665
30184SOL    HW292560   4.243   3.711   5.648 -0.6948 -0.5966  0.2298
30185SOL     OW92561   2.050   9.694   4.062  0.4374  0.4262  0.1896
30185SOL    HW192562   2.084   9.747   4.134 -0.0078  1.2235 -0.1746
30185SOL    HW292563   2.080   9.605   4.082  0.0592  0.5702  1.5288
30186SOL     OW92564   2.541   3.886   9.700  0.3850 -0.0958  0.0743
30186SOL    HW192565   2.570   3.919   9.615 -0.4622 -0.4805 -0.3756
30186SOL    HW292566   2.609   3.915   9.761  0.5085  1.0299 -0.5634
30187SOL     OW92567   6.620   5.585   9.467  0.0337  0.2969 -0.3001
30187SOL    HW192568   6.567   5.663   9.456 -0.3395  0.0515 -0.2479
30187SOL    HW292569   6.702   5.605   9.422 -0.5073  0.2682 -1.3186
30188SOL     OW92570   4.602   8.799   2.439 -0.0371 -0.5031 -0.4597
30188SOL    HW192571   4.654   8.753   2.505  0.4619 -0.7805 -1.0339
30188SOL    HW292572   4.617   8.750   2.358 -0.7805 -0.2744 -0.7509
30189SOL     OW92573   4.045   3.317   7.623  0.2276 -0.2436  0.0360
30189SOL    HW192574   4.042   3.410   7.642 -1.1405  0.0953 -1.5729
30189SOL    HW292575   4.098   3.279   7.693  0.4759  1.6716  0.9327
30190SOL     OW92576   6.838   4.064   2.955 -0.2557  0.4904 -0.2186
30190SOL    HW192577   6.825   4.067   2.860 -1.5670 -0.0129 -0.0908
30190SOL    HW292578   6.856   3.972   2.974 -1.6989  0.2598  0.1753
30191SOL     OW92579   7.896   6.900   2.165  0.1014 -0.1411  0.5529
30191SOL    HW192580   7.817   6.880   2.115 -0.3844 -1.9842  1.9607
30191SOL    HW292581   7.867   6.903   2.256  1.2038  1.8149  0.8916
30192SOL     OW92582   9.945   8.944   1.128 -0.4188  0.3707 -0.8735
30192SOL    HW192583   9.876   8.917   1.189 -1.7899 -1.1099 -2.9408
30192SOL    HW292584   9.983   8.862   1.097  2.7342  1.1392  0.5752
30193SOL     OW92585   2.732   8.320   8.527 -0.3460  0.1790  0.0501
30193SOL    HW192586   2.796   8.269   8.575 -0.7392 -0.4060 -0.0360
30193SOL    HW292587   2.654   8.265   8.524 -0.2223  0.0308 -1.5634
30194SOL     OW92588   8.678   7.214   5.075  0.0554 -0.8423 -0.0344
30194SOL    HW192589   8.597   7.216   5.024 -0.6794 -0.5292  1.1195
30194SOL    HW292590   8.656   7.164   5.153  1.3494 -1.8898 -0.2874
30195SOL     OW92591   4.092   3.294   3.318 -0.2106 -0.1942  0.6020
30195SOL    HW192592   4.110   3.365   3.256 -0.5672 -1.4086 -0.9431
30195SOL    HW292593   4.083   3.216   3.264 -1.5700 -1.1415  2.0950
30196SOL     OW92594   1.020   9.292   2.362 -1.0911 -0.0563  0.2957
30196SOL    HW192595   0.965   9.260   2.290  1.0205 -2.5363 -0.3881
30196SOL    HW292596   1.091   9.338   2.319 -1.5346  1.3964  1.0555
30197SOL     OW92597   5.759   6.420   0.229 -0.0016 -0.0082  0.3492
30197SOL    HW192598   5.825   6.476   0.189 -0.1602  0.0343  0.1476
30197SOL    HW292599   5.807   6.342   0.257 -0.5637 -2.2257 -4.0570
30198SOL     OW92600   6.984   4.888   7.614  0.4985 -0.2991  0.4844
30198SOL    HW192601   6.902   4.929   7.585 -0.2677 -2.0004  0.1072
30198SOL    HW292602   6.961   4.843   7.695  1.3008 -0.0482  0.8599
30199SOL     OW92603   4.146   4.606   7.759  0.2006  0.1664 -0.1510
30199SOL    HW192604   4.119   4.593   7.849 -0.1073  1.8576  0.0296
30199SOL    HW292605   4.065   4.602   7.708  0.3537 -0.6208 -0.3391
30200SOL     OW92606   8.309   3.573   0.510  0.0001 -0.5920  0.2746
30200SOL    HW192607   8.375   3.526   0.460 -0.8350  0.4329 -1.9474
30200SOL    HW292608   8.238   3.510   0.523  0.1778 -0.8331  0.0753
30201SOL     OW92609  10.954   8.812   0.660 -0.1688  0.3890 -0.6379
30201SOL    HW192610  10.930   8.732   0.705 -0.5649  1.7904  1.8183
30201SOL    HW292611  10.881   8.872   0.677  0.0832  1.2703 -2.4602
30202SOL     OW92612   1.617   4.158   4.350  0.0190  0.3232 -0.3376
30202SOL    HW192613   1.686   4.208   4.305  0.5933 -0.7529 -0.6932
30202SOL    HW292614   1.650   4.147   4.439  0.5791 -0.6501 -0.6499
30203SOL     OW92615   2.648   8.449   3.554  0.3671 -0.5656  0.1346
30203SOL    HW192616   2.658   8.539   3.525 -0.0152 -0.8987 -1.0897
30203SOL    HW292617   2.574   8.451   3.615  1.1383  0.1380  1.0718
30204SOL     OW92618   3.940   9.070   0.828  0.6491  0.0750  0.3864
30204SOL    HW192619   4.005   9.095   0.761 -1.3950  2.1119 -0.9838
30204SOL    HW292620   3.899   9.152   0.854 -4.7387 -1.2342 -2.4474
30205SOL     OW92621   9.222   6.646   4.921  0.0852  0.6422  0.6941
30205SOL    HW192622   9.173   6.607   4.848  0.2443  2.0616 -0.2223
30205SOL    HW292623   9.288   6.581   4.944  1.1514  0.8076 -1.6088
30206SOL     OW92624  10.205   5.122   5.475 -0.6790 -0.1582  0.3516
30206SOL    HW192625  10.298   5.116   5.496 -0.8133 -1.0913  0.7288
30206SOL    HW292626  10.170   5.183   5.540 -0.0338  1.5901 -0.8801
30207SOL     OW92627   8.975   8.658   9.258  0.2873  0.0236  0.0697
30207SOL    HW192628   8.900   8.599   9.247 -0.5137  1.0272 -0.0533
30207SOL    HW292629   8.935   8.744   9.273  1.4103  0.3571  1.3547
30208SOL     OW92630   0.481   0.853   3.138 -0.6735 -0.1419 -0.3007
30208SOL    HW192631   0.417   0.782   3.147 -3.2834  1.8539 -1.6397
30208SOL    HW292632   0.531   0.852   3.220 -2.0588 -2.1560  0.5927
30209SOL     OW92633   3.934   5.424   8.825 -0.1780  0.2755 -0.3950
30209SOL    HW192634   3.937   5.512   8.862 -0.5458  1.3667 -2.7513
30209SOL    HW292635   3.852   5.421   8.776 -0.0653 -1.3107 -0.5471
30210SOL     OW92636   8.765   0.080   2.743 -0.1757 -0.4139  0.4857
30210SOL    HW192637   8.680   0.051   2.709  0.5799 -1.7155 -0.3697
30210SOL    HW292638   8.790   0.012   2.805  0.0323  0.2128  1.0943
30211SOL     OW92639   1.406   5.367  10.528  0.5637 -0.3412 -0.4265
30211SOL    HW192640   1.482   5.395  10.580  0.9463 -0.7430 -0.7551
30211SOL    HW292641   1.352   5.318  10.589 -1.1779  2.7636  0.7419
30212SOL     OW92642   0.020   2.896   4.640  0.5714 -0.0724 -0.0224
30212SOL    HW192643  -0.043   2.965   4.662  1.1997  1.0484 -1.5565
30212SOL    HW292644   0.104   2.942   4.634  1.2821 -1.2615  0.4277
30213SOL     OW92645   9.625   4.792   8.291 -0.2127 -0.2654  0.1980
30213SOL    HW192646   9.666   4.825   8.372 -1.0610 -0.5929  0.7770
30213SOL    HW292647   9.697   4.790   8.228  1.0493 -2.1150  1.5553
30214SOL     OW92648   3.871   1.403  10.167  0.2312 -0.5638 -0.1291
30214SOL    HW192649   3.895   1.435  10.080 -1.0230  0.1014 -0.2541
30214SOL    HW292650   3.874   1.480  10.224 -3.1531 -0.0043 -0.5098
30215SOL     OW92651   7.343   6.386   1.886  0.7321  0.2856 -0.6011
30215SOL    HW192652   7.293   6.349   1.814  0.8722  0.3771 -0.7472
30215SOL    HW292653   7.399   6.315   1.916  1.4496  0.5433 -1.2851
30216SOL     OW92654  10.562   6.134   5.054 -0.2146  0.6418 -0.2560
30216SOL    HW192655  10.604   6.067   5.108 -2.0203 -1.3657 -1.1771
30216SOL    HW292656  10.469   6.131   5.079 -0.5412  2.0219 -1.1428
30217SOL     OW92657   7.221   1.201   5.418  0.1039 -0.3487  0.3323
30217SOL    HW192658   7.212   1.177   5.326 -1.6534  1.0387  0.0791
30217SOL    HW292659   7.155   1.148   5.463 -0.4066  0.3738  0.4689
30218SOL     OW92660   5.609   4.121  11.130 -0.5445  0.1713 -0.3806
30218SOL    HW192661   5.535   4.095  11.184  0.9078  0.8680  2.1067
30218SOL    HW292662   5.674   4.052  11.143  0.3222  1.0014 -0.1896
30219SOL     OW92663   0.363   8.694   7.854  0.3314  0.4719 -0.3549
30219SOL    HW192664   0.344   8.601   7.837 -0.1869  0.3373  0.8937
30219SOL    HW292665   0.317   8.741   7.784  0.4403 -0.1934 -0.8859
30220SOL     OW92666   2.255   3.954   2.349 -0.2718  0.2388  0.1601
30220SOL    HW192667   2.328   3.895   2.332 -0.1171  0.3076  0.5835
30220SOL    HW292668   2.199   3.945   2.272  0.9366  1.3439 -0.8841
30221SOL     OW92669   2.670   3.022   8.427 -0.2514 -0.6407 -0.2132
30221SOL    HW192670   2.665   3.049   8.335  0.4233 -2.0127 -0.6786
30221SOL    HW292671   2.759   2.990   8.439 -0.2536 -0.2489  0.9998
30222SOL     OW92672   4.172   3.230   3.019  0.1697  0.0039 -0.0761
30222SOL    HW192673   4.098   3.242   2.958  0.7536 -0.1047 -0.8221
30222SOL    HW292674   4.196   3.138   3.010  0.6734  0.1419 -0.1633
30223SOL     OW92675  10.919   8.762   1.358  0.3726 -0.2346  0.1797
30223SOL    HW192676  10.871   8.681   1.340 -1.4521  1.2351 -2.1005
30223SOL    HW292677  10.854   8.831   1.350  1.9043  1.5185  1.9392
30224SOL     OW92678   5.116   2.158   6.840 -0.7809 -0.0424 -0.2362
30224SOL    HW192679   5.161   2.154   6.925 -2.9402 -0.8852  0.9500
30224SOL    HW292680   5.102   2.251   6.825 -1.3173  0.0758  0.8919
30225SOL     OW92681   1.595   2.158   3.109 -0.4033 -0.3415 -0.7541
30225SOL    HW192682   1.630   2.171   3.197 -0.2349  0.6548 -0.9466
30225SOL    HW292683   1.554   2.072   3.112 -0.3299 -0.3607  0.2767
30226SOL     OW92684   7.030  10.866   2.897 -0.0990  0.1590  0.3500
30226SOL    HW192685   7.000  10.775   2.893 -1.2206  0.5071  0.6302
30226SOL    HW292686   6.956  10.917   2.865  1.8080  0.7904 -3.6325
30227SOL     OW92687   9.789   4.475   2.337  0.9816 -0.1852  0.5287
30227SOL    HW192688   9.712   4.425   2.309  0.6798  0.2738  0.5322
30227SOL    HW292689   9.764   4.566   2.327  1.0572 -0.0061  1.8040
30228SOL     OW92690   1.996   0.315   2.348  0.3977  0.7829  0.9423
30228SOL    HW192691   1.987   0.356   2.262 -0.4420 -2.7309 -0.8386
30228SOL    HW292692   1.911   0.326   2.389 -0.8975 -1.5769 -0.8296
30229SOL     OW92693   8.995  10.663   3.009 -0.3745  0.4770  0.8610
30229SOL    HW192694   9.024  10.572   3.012 -1.5414  0.0995  1.2893
30229SOL    HW292695   8.900  10.658   3.018 -0.2918  1.8683  3.2629
30230SOL     OW92696   5.938   1.804  10.507 -0.3791 -0.3081 -0.7018
30230SOL    HW192697   5.845   1.804  10.529 -0.5993  0.9084 -1.5742
30230SOL    HW292698   5.941   1.789  10.412  0.3499 -0.9388 -0.5937
30231SOL     OW92699   3.281   0.306   9.273 -1.3274 -0.4087  0.2987
30231SOL    HW192700   3.336   0.231   9.296 -0.1186  0.5900  0.8123
30231SOL    HW292701   3.211   0.305   9.339 -1.1461 -0.9139  0.4872
30232SOL     OW92702   9.935   3.575   3.773 -0.0654  0.0616  0.7982
30232SOL    HW192703   9.904   3.629   3.700 -0.2068 -0.2800  0.6024
30232SOL    HW292704   9.953   3.490   3.734  0.3506  0.0246  1.0678
30233SOL     OW92705   7.300   8.027   3.388 -0.3394 -0.2298 -0.0654
30233SOL    HW192706   7.335   8.071   3.465 -0.1576 -1.0328  0.3232
30233SOL    HW292707   7.221   8.076   3.365 -0.8813 -0.5059  1.1692
30234SOL     OW92708   5.938   5.246   4.789  0.6519  0.5819 -0.5561
30234SOL    HW192709   5.870   5.312   4.782  0.1123  0.0322 -0.5413
30234SOL    HW292710   6.011   5.291   4.832  0.3646  1.2154 -0.7197
30235SOL     OW92711   2.698  10.478   6.113 -0.9681  0.8137 -0.9310
30235SOL    HW192712   2.616  10.505   6.154 -0.7098 -1.6430  1.5055
30235SOL    HW292713   2.671  10.419   6.042 -1.3669 -0.0657 -0.0736
30236SOL     OW92714   2.206   2.753   5.824 -0.3354  0.3509 -0.2023
30236SOL    HW192715   2.266   2.826   5.811 -1.3768  1.3057  0.2046
30236SOL    HW292716   2.119   2.794   5.832 -0.9176 -0.9092  0.2155
30237SOL     OW92717   0.928   4.257   5.610  0.1149  0.0193  0.0866
30237SOL    HW192718   0.995   4.235   5.545  0.5257 -1.5289  0.9734
30237SOL    HW292719   0.951   4.345   5.640 -0.2472  0.8842 -2.0230
30238SOL     OW92720   6.967   8.594   9.688 -0.3852  0.1534  0.2708
30238SOL    HW192721   6.885   8.602   9.640 -0.8857 -1.4878  0.7792
30238SOL    HW292722   6.943   8.601   9.780  0.0871 -0.0270  0.4135
30239SOL     OW92723   3.628   1.673  10.246 -0.2556 -0.1118  0.5123
30239SOL    HW192724   3.704   1.649  10.299 -0.3129 -1.7169 -0.0885
30239SOL    HW292725   3.649   1.760  10.211  0.6332  0.1125  1.5446
30240SOL     OW92726   8.610   7.228  11.208 -0.5778 -0.0539  0.1104
30240SOL    HW192727   8.517   7.216  11.226 -0.6944  1.2425  0.4445
30240SOL    HW292728   8.613   7.250  11.115 -0.3808 -2.2168 -0.4541
30241SOL     OW92729   9.254   7.714   4.763 -0.3548 -0.2499 -0.1029
30241SOL    HW192730   9.186   7.723   4.830  0.1149 -0.5446  0.4205
30241SOL    HW292731   9.216   7.653   4.700 -0.0615 -1.5217  0.8984
30242SOL     OW92732  10.172   0.143   6.830 -0.8591 -0.1404  0.1227
30242SOL    HW192733  10.237   0.085   6.792 -0.5924  1.1146 -1.4948
30242SOL    HW292734  10.104   0.149   6.763 -0.2994  2.2918 -0.3443
30243SOL     OW92735   7.291  10.251   3.089 -0.5306  0.3682  0.2858
30243SOL    HW192736   7.230  10.216   3.024  2.4764  0.4769 -2.8402
30243SOL    HW292737   7.294  10.183   3.157 -0.6060 -1.8660 -1.8183
30244SOL     OW92738   3.952   0.845   0.684  0.0163 -0.5371  0.3724
30244SOL    HW192739   4.044   0.857   0.709  0.6950 -0.0509 -2.1369
30244SOL    HW292740   3.919   0.934   0.669 -0.2754 -0.8114 -0.6647
30245SOL     OW92741   3.248   8.254   8.257  0.1203  0.5942 -1.1866
30245SOL    HW192742   3.293   8.336   8.233  0.8645  0.5251 -0.1033
30245SOL    HW292743   3.268   8.194   8.185  0.5695  1.0062 -1.4131
30246SOL     OW92744  11.210  10.306   0.363 -0.0021  0.9432  0.0326
30246SOL    HW192745  11.148  10.354   0.307 -1.9511  0.2338  1.4606
30246SOL    HW292746  11.214  10.218   0.325 -1.9366  0.2221  1.3185
30247SOL     OW92747   7.047   3.600   0.981  0.3831  0.2247 -0.4849
30247SOL    HW192748   6.968   3.638   0.943  0.9358  0.9516 -0.9358
30247SOL    HW292749   7.057   3.643   1.066 -0.3630 -0.7570  0.1236
30248SOL     OW92750   3.262   0.969   4.194  0.3207 -0.3214 -0.0481
30248SOL    HW192751   3.252   1.047   4.140 -0.0588  0.7194  1.4555
30248SOL    HW292752   3.178   0.924   4.189  0.7476 -1.0046 -1.4306
30249SOL     OW92753   4.092   8.841   4.069  0.4201 -0.3161 -0.0004
30249SOL    HW192754   4.035   8.916   4.054  1.4748  0.5513  0.2198
30249SOL    HW292755   4.043   8.786   4.131 -0.9839 -0.5581 -1.2555
30250SOL     OW92756   3.788  11.049   6.791  0.0909  0.4857  1.0323
30250SOL    HW192757   3.866  11.027   6.740 -2.6493 -1.2216 -2.8381
30250SOL    HW292758   3.783  11.145   6.785 -0.1272  0.3863 -2.2054
30251SOL     OW92759   7.779   3.991   7.950  0.1821  0.2957 -0.5996
30251SOL    HW192760   7.808   3.905   7.978  1.7613  0.6996 -0.9015
30251SOL    HW292761   7.802   3.995   7.857 -0.0995  0.9490 -0.6484
30252SOL     OW92762   4.339  10.359   8.525 -0.1356 -0.2007 -0.0415
30252SOL    HW192763   4.273  10.290   8.532 -0.4768  0.2440  1.5611
30252SOL    HW292764   4.354  10.387   8.615 -0.2997  2.0896 -0.6543
30253SOL     OW92765   4.229   0.986   7.064  0.1652 -0.2918 -0.5701
30253SOL    HW192766   4.299   1.051   7.071  0.7311 -0.9681  0.3791
30253SOL    HW292767   4.213   0.978   6.970 -0.2433  1.5405 -0.7029
30254SOL     OW92768   0.335   1.901   7.909  0.4133  0.3931  0.1140
30254SOL    HW192769   0.419   1.945   7.896  0.8069  0.2515  1.9407
30254SOL    HW292770   0.272   1.972   7.921  0.4380  0.4928 -0.3544
30255SOL     OW92771   6.993  10.623   5.099 -0.1969  0.4021 -0.0672
30255SOL    HW192772   7.062  10.689   5.103 -0.0296  0.1677  2.2980
30255SOL    HW292773   7.008  10.567   5.175 -2.7516  0.1022  0.3191
30256SOL     OW92774   0.210   4.801   2.455  0.2691  0.9938 -0.0687
30256SOL    HW192775   0.162   4.764   2.529 -0.9619  0.9882 -0.8304
30256SOL    HW292776   0.280   4.853   2.494  0.6144 -0.2775  1.0578
30257SOL     OW92777   9.957   2.345  10.753 -0.3116 -0.6836  0.8141
30257SOL    HW192778  10.009   2.271  10.721  0.8063 -0.6653  2.4378
30257SOL    HW292779   9.945   2.327  10.846 -2.2057 -0.0563  0.7298
30258SOL     OW92780   0.239   8.503   2.192 -0.4371  0.0614  0.2593
30258SOL    HW192781   0.169   8.567   2.180  1.9959  2.9773  0.5356
30258SOL    HW292782   0.305   8.549   2.244  1.6366 -2.5881  0.1983
30259SOL     OW92783   6.593   9.030   6.777 -0.4953  0.1331 -0.5863
30259SOL    HW192784   6.646   9.108   6.790  0.5941 -0.8118  1.0615
30259SOL    HW292785   6.630   8.988   6.699  3.3408 -1.9836  1.9942
30260SOL     OW92786   7.978  11.133  11.064 -0.0445 -0.5510  0.3937
30260SOL    HW192787   7.957  11.087  11.145 -1.5928 -0.6948 -0.0483
30260SOL    HW292788   8.040  11.076  11.019 -0.8624 -1.5564  0.4972
30261SOL     OW92789   0.449   2.059   3.195 -0.0187  0.6302  0.3112
30261SOL    HW192790   0.391   2.051   3.120 -0.8770  0.7393  0.9482
30261SOL    HW292791   0.536   2.073   3.157 -0.2197 -0.6243 -0.6673
30262SOL     OW92792  10.529  10.623   3.164 -0.3103 -0.0662 -1.0712
30262SOL    HW192793  10.496  10.705   3.126 -0.1626  0.6866  0.3646
30262SOL    HW292794  10.451  10.580   3.198 -0.3392 -0.3545 -1.4928
30263SOL     OW92795   2.057   6.283   0.341  0.0206  0.0020  0.5606
30263SOL    HW192796   2.047   6.268   0.435  1.5269  0.2079  0.7817
30263SOL    HW292797   2.152   6.289   0.328  0.1076 -3.4774 -1.4987
30264SOL     OW92798   4.344   1.773   4.987  0.1964  0.7006  0.0953
30264SOL    HW192799   4.338   1.703   5.052  0.3263 -0.5584 -1.1848
30264SOL    HW292800   4.258   1.815   4.988 -0.4877 -0.6345 -0.3325
30265SOL     OW92801   1.129  10.318   2.622  0.0542  0.3515 -0.3226
30265SOL    HW192802   1.158  10.258   2.690 -3.0036 -0.1919  0.6586
30265SOL    HW292803   1.173  10.401   2.641  0.3923 -0.2036  1.4223
30266SOL     OW92804   3.115   8.060   4.218  0.5000  0.3546  0.6253
30266SOL    HW192805   3.077   8.148   4.217 -0.0998  0.2004  3.2527
30266SOL    HW292806   3.204   8.073   4.251  1.4007  0.2045 -1.5210
30267SOL     OW92807   5.736   4.632   1.949 -0.0089 -0.0972 -0.2851
30267SOL    HW192808   5.718   4.688   2.025  0.2858  0.2881 -0.4972
30267SOL    HW292809   5.792   4.685   1.893  1.2761 -1.0494  0.0646
30268SOL     OW92810   4.483   7.490   0.690  0.2569 -0.2622 -0.5604
30268SOL    HW192811   4.456   7.548   0.619 -1.2312 -0.0435  0.1325
30268SOL    HW292812   4.560   7.444   0.657  0.9889  1.5169 -1.4276
30269SOL     OW92813   1.511   7.912   3.479  0.3337 -0.1458  0.8129
30269SOL    HW192814   1.423   7.941   3.455 -0.3591 -1.8404  1.1185
30269SOL    HW292815   1.569   7.982   3.449 -1.0769  0.8063  0.2084
30270SOL     OW92816   8.547   3.977   0.382  0.8867 -0.4796 -0.7258
30270SOL    HW192817   8.455   4.000   0.381  1.2160  0.8777 -0.6537
30270SOL    HW292818   8.547   3.881   0.377 -0.5384 -0.5787  0.3735
30271SOL     OW92819   9.531   9.884  10.381 -0.2109 -0.0215  0.3915
30271SOL    HW192820   9.528   9.937  10.460 -0.9222 -0.1366  0.4433
30271SOL    HW292821   9.566   9.942  10.314  0.9170 -0.0780  0.9071
30272SOL     OW92822   1.392   4.606   6.861 -0.0579  0.1211  0.1747
30272SOL    HW192823   1.440   4.657   6.926 -1.3417  0.7788  0.6572
30272SOL    HW292824   1.353   4.671   6.803 -0.4264 -0.3884 -0.1622
30273SOL     OW92825   0.976   1.201   1.687 -0.4905 -0.2738  0.4663
30273SOL    HW192826   0.917   1.219   1.615  1.1654  0.9190 -0.6739
30273SOL    HW292827   0.968   1.277   1.745  0.9716  0.6610 -0.4817
30274SOL     OW92828   1.803  11.118   2.452 -0.7380  0.2780 -1.1235
30274SOL    HW192829   1.768  11.172   2.523  0.1711 -1.6713  0.9522
30274SOL    HW292830   1.879  11.168   2.420 -0.5751  0.7548 -0.0474
30275SOL     OW92831  10.151   0.016   1.338 -0.2666 -0.0506  0.2229
30275SOL    HW192832  10.135   0.040   1.246  3.8318 -1.1040 -0.9569
30275SOL    HW292833  10.175   0.098   1.381 -1.8788  0.3927  0.3359
30276SOL     OW92834   7.837   3.925   0.761 -0.0272  0.0361  0.0498
30276SOL    HW192835   7.811   3.886   0.677 -0.0791 -0.2972  0.2186
30276SOL    HW292836   7.931   3.941   0.753  0.6279 -2.7905  1.0018
30277SOL     OW92837   2.386   8.522   6.267 -0.0665 -0.0421  0.0054
30277SOL    HW192838   2.300   8.505   6.305 -0.8813  1.8010 -0.8828
30277SOL    HW292839   2.374   8.601   6.214  1.8126 -0.5834 -1.3580
30278SOL     OW92840   1.893   3.198   2.136  0.1220 -0.2376  0.4326
30278SOL    HW192841   1.841   3.271   2.101  0.3623 -0.1523  0.2525
30278SOL    HW292842   1.953   3.176   2.065  1.3790  0.6635  1.1848
30279SOL     OW92843   4.963   0.581   9.391 -0.1552 -0.1059 -0.1798
30279SOL    HW192844   4.871   0.586   9.417 -0.3347  1.8405 -0.9966
30279SOL    HW292845   4.963   0.530   9.310 -0.9237  1.8559 -1.5195
30280SOL     OW92846   9.969   3.370   3.142 -0.6277 -0.0371  0.0447
30280SOL    HW192847   9.910   3.299   3.118 -1.8787  1.2002 -0.6701
30280SOL    HW292848   9.913   3.448   3.144  1.1697  1.4200 -1.9119
30281SOL     OW92849   8.036   6.437  10.245 -0.1423 -0.2716 -0.3339
30281SOL    HW192850   8.087   6.516  10.266 -0.1580 -0.1951 -0.5813
30281SOL    HW292851   8.090   6.365  10.279 -0.5566 -0.1085  0.7223
30282SOL     OW92852   6.812   1.313   8.975 -0.4619 -0.1383  0.7315
30282SOL    HW192853   6.819   1.341   8.884 -0.6240  0.4215  0.8881
30282SOL    HW292854   6.771   1.227   8.971 -0.1388 -0.2696  0.2522
30283SOL     OW92855   2.652   7.512   8.373 -0.3145  0.6345 -0.1120
30283SOL    HW192856   2.747   7.511   8.371 -0.2934  0.4693  0.6083
30283SOL    HW292857   2.628   7.447   8.440 -0.9618 -0.0211 -0.9549
30284SOL     OW92858   9.455   7.980   8.737  0.0740  0.7256 -0.1771
30284SOL    HW192859   9.362   7.981   8.714  0.5345  0.8688 -2.2096
30284SOL    HW292860   9.500   7.993   8.654  1.9101  1.7971  0.9333
30285SOL     OW92861   2.572   3.389   4.067  0.7996 -0.3085  0.0836
30285SOL    HW192862   2.608   3.460   4.013 -1.7391  0.9827 -0.0775
30285SOL    HW292863   2.564   3.315   4.007 -0.9809  0.7828 -1.1294
30286SOL     OW92864   2.327   0.812   3.120  0.4626  0.3483 -0.5700
30286SOL    HW192865   2.377   0.777   3.046 -2.0480 -2.4912 -1.1490
30286SOL    HW292866   2.243   0.837   3.083  0.3970  2.3272  0.7944
30287SOL     OW92867   7.264   2.019  10.766  0.5420  0.4464  0.0392
30287SOL    HW192868   7.322   1.973  10.826  0.0718 -0.5541 -0.2513
30287SOL    HW292869   7.264   1.965  10.687 -0.3992  0.6892 -0.1398
30288SOL     OW92870   8.895   8.723   5.214 -0.2447  0.3682  0.9080
30288SOL    HW192871   8.891   8.785   5.287 -1.7249  1.4702 -0.0635
30288SOL    HW292872   8.932   8.774   5.142 -2.9480  0.6995 -0.3642
30289SOL     OW92873   4.043   3.359   5.814  0.7105 -0.0176  0.0182
30289SOL    HW192874   3.991   3.382   5.737  0.5051  0.5784  0.3302
30289SOL    HW292875   4.112   3.425   5.817  1.8897 -1.1514 -0.7505
30290SOL     OW92876   4.514  10.743   7.785  0.2043 -0.3478  0.5826
30290SOL    HW192877   4.428  10.743   7.743 -0.0599  0.8209  1.0799
30290SOL    HW292878   4.559  10.820   7.748  1.2433 -1.2276 -0.0553
30291SOL     OW92879   4.974   6.875   3.255 -0.0339  0.4125  0.1228
30291SOL    HW192880   4.910   6.809   3.279 -0.9567  1.2663  0.0519
30291SOL    HW292881   5.006   6.909   3.339 -1.4971  1.7030  0.1993
30292SOL     OW92882   6.075   8.144  10.387  0.1541 -0.3603 -0.2810
30292SOL    HW192883   6.113   8.202  10.321 -1.6897 -0.2540 -1.3329
30292SOL    HW292884   6.087   8.056  10.352  1.1875 -0.4854  0.3594
30293SOL     OW92885   7.443   7.878   1.567 -0.1265  0.2882  0.0487
30293SOL    HW192886   7.392   7.797   1.562  0.0232  0.0286  1.9096
30293SOL    HW292887   7.382   7.946   1.538 -0.0289 -0.5080 -2.2766
30294SOL     OW92888   8.260   4.879   7.057 -0.3828 -0.4211 -0.0836
30294SOL    HW192889   8.327   4.844   6.999  2.5444  1.7869  1.6531
30294SOL    HW292890   8.283   4.845   7.143 -1.5114  0.4081  0.5680
30295SOL     OW92891   8.258  10.623   6.504  0.3814 -0.6288  0.3396
30295SOL    HW192892   8.269  10.698   6.446 -3.1102  1.1806  1.7735
30295SOL    HW292893   8.238  10.550   6.445  4.6772 -0.8852 -1.1455
30296SOL     OW92894   1.068   7.506   9.446  0.0647  0.7281  0.8918
30296SOL    HW192895   1.004   7.525   9.378  0.7312 -0.4114 -0.0790
30296SOL    HW292896   1.045   7.418   9.477  2.2969 -0.5818 -0.8777
30297SOL     OW92897   9.788   1.533   2.472  0.1747 -0.8449 -0.6948
30297SOL    HW192898   9.794   1.607   2.412 -0.9640 -0.1357  0.0267
30297SOL    HW292899   9.694   1.519   2.483  0.3501 -0.9698  0.8871
30298SOL     OW92900   6.468   2.308   0.069  0.0628 -0.0506  0.0994
30298SOL    HW192901   6.531   2.341   0.004  0.7218  1.2051  1.3178
30298SOL    HW292902   6.523   2.265   0.135 -0.6133 -1.4524 -0.2108
30299SOL     OW92903   7.228   5.533   3.369  0.0756  0.3823  0.3237
30299SOL    HW192904   7.161   5.572   3.313 -2.8236 -0.8058  2.7179
30299SOL    HW292905   7.243   5.597   3.438  1.1419  0.4469  0.0567
30300SOL     OW92906   0.727   8.983   6.371 -0.6750  0.2051  0.3370
30300SOL    HW192907   0.663   8.917   6.396 -0.5772  0.6174  1.8092
30300SOL    HW292908   0.812   8.942   6.384 -0.6215  0.1798 -0.0729
30301SOL     OW92909  11.059   4.898   7.589 -0.2580  0.2341 -0.0530
30301SOL    HW192910  10.994   4.920   7.523 -0.6211  1.3269  0.6299
30301SOL    HW292911  11.135   4.867   7.540 -0.3167  1.5377 -1.0196
30302SOL     OW92912   0.654   0.558   3.597  0.3865  0.6992  0.0197
30302SOL    HW192913   0.731   0.515   3.635  1.8772  1.7725 -1.6253
30302SOL    HW292914   0.591   0.563   3.669  1.0744 -1.9469  0.9110
30303SOL     OW92915   8.756   6.865   9.007 -0.1229  0.5525 -0.6657
30303SOL    HW192916   8.672   6.898   8.972 -0.3985 -0.0577 -0.5962
30303SOL    HW292917   8.792   6.939   9.055 -0.4961  0.9101 -0.9183
30304SOL     OW92918   2.832   5.816  10.231 -0.0352 -0.1263  0.2982
30304SOL    HW192919   2.798   5.737  10.191  1.5521 -1.3226  1.1574
30304SOL    HW292920   2.885   5.858  10.163  1.4444 -1.3665  0.6249
30305SOL     OW92921  11.165   8.012   6.459 -0.0482 -0.2402 -0.2828
30305SOL    HW192922  11.214   7.934   6.433 -1.0553 -0.6447 -1.0098
30305SOL    HW292923  11.113   7.984   6.535  3.8845  1.2660  3.4033
30306SOL     OW92924  11.053  10.149   1.276  0.4310 -0.2020  0.8507
30306SOL    HW192925  11.056  10.244   1.268  1.2906 -0.2912 -0.0197
30306SOL    HW292926  10.963  10.126   1.253  0.6720  0.2705 -0.6491
30307SOL     OW92927   4.823   7.904   1.252  0.4035  0.0368 -0.4492
30307SOL    HW192928   4.777   7.955   1.186  1.3062  1.5456  0.0433
30307SOL    HW292929   4.889   7.964   1.288  3.2200 -2.1471 -1.5486
30308SOL     OW92930   3.981   6.193   2.427 -0.2013 -0.2685 -0.6080
30308SOL    HW192931   3.999   6.271   2.479 -0.6947 -0.2532 -0.4572
30308SOL    HW292932   4.056   6.186   2.367 -0.4368  0.6481 -1.0171
30309SOL     OW92933   3.148   4.862   2.915  0.6003 -0.1703  0.2652
30309SOL    HW192934   3.160   4.900   3.002 -0.0045  0.8902 -0.1022
30309SOL    HW292935   3.089   4.922   2.870 -0.0892 -1.3466 -0.4695
30310SOL     OW92936   2.784   4.131   9.244  0.8313 -0.0659  0.4502
30310SOL    HW192937   2.759   4.082   9.166  1.1949  1.6712 -0.8118
30310SOL    HW292938   2.871   4.098   9.266  0.9023 -0.2858 -0.1318
30311SOL     OW92939   9.253   9.268   1.394  0.6849 -0.9777 -0.0747
30311SOL    HW192940   9.313   9.341   1.377 -0.1323 -0.0850  0.7777
30311SOL    HW292941   9.288   9.196   1.342  1.0952  0.2235 -1.5252
30312SOL     OW92942   0.155   7.888   8.221  0.0048 -0.0810  0.1087
30312SOL    HW192943   0.221   7.904   8.289 -0.6608 -2.2358  1.3827
30312SOL    HW292944   0.124   7.799   8.240 -1.7684  0.0991 -1.7302
30313SOL     OW92945   4.961   3.825  10.639  0.0162 -0.2149  0.0250
30313SOL    HW192946   4.983   3.844  10.548  0.3694 -2.1189 -0.3275
30313SOL    HW292947   5.042   3.789  10.676 -0.0153  0.8554  1.2183
30314SOL     OW92948   1.799   4.914   3.713 -0.2210  0.1281  0.0228
30314SOL    HW192949   1.732   4.971   3.677 -0.0447  0.5761  0.3877
30314SOL    HW292950   1.851   4.971   3.771  0.4979 -0.1950 -0.2830
30315SOL     OW92951   1.469   0.862   8.664  0.2071 -0.1735  0.6252
30315SOL    HW192952   1.451   0.830   8.575  2.0299  0.1990  0.0955
30315SOL    HW292953   1.498   0.952   8.652  0.0484  0.0230  1.6548
30316SOL     OW92954   7.252  10.763   6.597  0.4812 -0.6393 -0.2854
30316SOL    HW192955   7.313  10.707   6.549  0.1813 -0.6771 -0.6253
30316SOL    HW292956   7.301  10.791   6.674  1.7141  1.0679 -1.6063
30317SOL     OW92957   5.110  10.173   5.558  0.1140  0.0189  0.3475
30317SOL    HW192958   5.166  10.179   5.635  0.5096 -2.0142  0.2782
30317SOL    HW292959   5.066  10.088   5.567 -1.1415  0.5074 -0.8136
30318SOL     OW92960   9.521   3.913   8.234  0.4227 -0.0648  0.1145
30318SOL    HW192961   9.426   3.930   8.232  0.6949  1.7586  0.7703
30318SOL    HW292962   9.553   3.944   8.150  0.3788 -1.1772 -0.3219
30319SOL     OW92963   5.182   5.301  11.134  0.1097  0.1386 -0.2332
30319SOL    HW192964   5.251   5.255  11.087  0.8246  2.0314 -1.1449
30319SOL    HW292965   5.167   5.249  11.213  1.8742 -0.8300 -0.4970
30320SOL     OW92966   5.360  10.553   0.494 -0.3554 -0.6799 -0.0675
30320SOL    HW192967   5.333  10.569   0.403 -1.6007 -1.3495  0.1605
30320SOL    HW292968   5.413  10.473   0.489 -0.7140 -0.9127 -0.1586
30321SOL     OW92969   0.261   9.844  11.112 -0.0087 -0.2523  1.4947
30321SOL    HW192970   0.191   9.908  11.123  0.0728  0.0957  0.1613
30321SOL    HW292971   0.341   9.890  11.137  0.4038  1.0775 -1.8231
30322SOL     OW92972   4.629   1.830   6.200  0.0815  0.3191  0.5840
30322SOL    HW192973   4.678   1.747   6.202 -2.5898 -1.5185 -1.5162
30322SOL    HW292974   4.685   1.889   6.150  1.8389 -0.3369  1.6697
30323SOL     OW92975   1.544   7.383  10.670  0.0252 -0.8834  0.4747
30323SOL    HW192976   1.476   7.448  10.689  0.2246 -0.1180 -1.2279
30323SOL    HW292977   1.623   7.418  10.712 -0.3176 -1.0945  1.3149
30324SOL     OW92978   3.845   7.043   1.268 -0.4315 -0.3446 -0.9448
30324SOL    HW192979   3.901   7.053   1.345  0.6287  0.8772 -1.8236
30324SOL    HW292980   3.757   7.065   1.299  0.1162  0.9659 -0.2418
30325SOL     OW92981   4.436   8.169   3.597 -0.5497  0.0352  0.1522
30325SOL    HW192982   4.504   8.107   3.624 -3.0369 -1.9353  2.3871
30325SOL    HW292983   4.449   8.244   3.656 -0.7003 -0.6366  1.0731
30326SOL     OW92984   0.824   9.342   5.879  0.3838  0.2179 -0.8093
30326SOL    HW192985   0.735   9.307   5.875 -0.9159  3.1917 -0.8062
30326SOL    HW292986   0.844   9.368   5.789  0.9644  0.2024 -0.6877
30327SOL     OW92987   3.329   7.299   3.131  0.0982  0.1570  0.3084
30327SOL    HW192988   3.253   7.350   3.157  0.1136  1.1179 -1.3832
30327SOL    HW292989   3.401   7.335   3.183 -0.3234  0.2548  0.8292
30328SOL     OW92990   2.449   2.760   8.231 -0.1864  0.5040 -0.6122
30328SOL    HW192991   2.372   2.707   8.251 -0.7519  1.6485  0.3816
30328SOL    HW292992   2.483   2.786   8.316 -0.1895  2.0850 -1.0637
30329SOL     OW92993   0.377   8.157   2.859  0.3521  0.3985 -0.9267
30329SOL    HW192994   0.365   8.096   2.786  1.6531  1.3603 -1.9937
30329SOL    HW292995   0.406   8.102   2.932 -0.7856 -0.5524 -1.1502
30330SOL     OW92996   0.910   4.068   9.611  0.2614 -0.1427 -0.4284
30330SOL    HW192997   0.937   3.977   9.622 -1.3525 -0.8498 -1.8706
30330SOL    HW292998   0.987   4.119   9.637  0.6767 -1.8245  1.9391
30331SOL     OW92999   4.918   8.901   3.321  0.4348  0.2310 -0.4880
30331SOL    HW193000   4.862   8.932   3.392 -0.7796 -1.1429 -0.7795
30331SOL    HW293001   4.857   8.883   3.249  1.0906 -2.0467 -0.5570
30332SOL     OW93002   5.450   8.859   1.763 -0.4574  0.5472  0.0638
30332SOL    HW193003   5.502   8.781   1.742 -1.2463 -0.2930  1.0895
30332SOL    HW293004   5.516   8.925   1.788  0.2276  0.2749 -0.9814
30333SOL     OW93005   3.790   7.901   4.313  0.5507 -0.3875 -0.0317
30333SOL    HW193006   3.731   7.953   4.367 -3.7469 -4.0002 -0.6679
30333SOL    HW293007   3.846   7.855   4.376 -0.3809 -0.1550  0.9886
30334SOL     OW93008   8.162   0.118   5.414  0.7279 -0.2173 -0.4195
30334SOL    HW193009   8.205   0.033   5.419  0.3803 -0.3925 -0.4174
30334SOL    HW293010   8.216   0.168   5.353 -0.0628 -1.0275 -1.8242
30335SOL     OW93011   3.782   2.345   2.115 -0.0797  0.4940 -0.5470
30335SOL    HW193012   3.743   2.412   2.171  0.9878  0.5124  0.2121
30335SOL    HW293013   3.807   2.275   2.176  1.5770  0.7320 -0.8975
30336SOL     OW93014   8.345  10.486   5.017  0.6480  0.4878 -0.1203
30336SOL    HW193015   8.367  10.511   4.927  0.4827  1.7146  0.1525
30336SOL    HW293016   8.363  10.565   5.068 -1.0170  0.4184  0.6461
30337SOL     OW93017  10.418   5.607   9.389 -0.7957 -0.6814 -0.2435
30337SOL    HW193018  10.371   5.562   9.319 -0.2838  0.5289 -1.3870
30337SOL    HW293019  10.509   5.607   9.362 -0.5596 -0.3338  0.5171
30338SOL     OW93020   6.340  11.106   6.684  0.7737  0.6600 -0.3637
30338SOL    HW193021   6.255  11.068   6.662  0.0013  0.7808  2.1029
30338SOL    HW293022   6.335  11.197   6.656 -0.3066  0.9168  0.6045
30339SOL     OW93023   3.556   4.668   0.838 -0.0966 -0.4979  0.0165
30339SOL    HW193024   3.540   4.638   0.927 -2.1941 -1.4668 -0.6172
30339SOL    HW293025   3.469   4.673   0.798  0.6438  1.5491 -1.4889
30340SOL     OW93026   5.136   2.184   9.135 -0.2894 -0.2382 -0.6813
30340SOL    HW193027   5.208   2.122   9.152 -1.0105 -0.7845  0.5484
30340SOL    HW293028   5.155   2.220   9.049  0.0260 -2.3798 -1.5794
30341SOL     OW93029   1.303   4.091   3.597 -0.4969 -0.0928 -0.2165
30341SOL    HW193030   1.345   4.099   3.683 -0.4471 -1.9613 -0.0313
30341SOL    HW293031   1.224   4.040   3.614 -1.7304  1.4860 -0.9436
30342SOL     OW93032   8.920   6.216   0.260  0.3651  0.7473 -1.0420
30342SOL    HW193033   8.830   6.212   0.293  0.6368  0.3983 -0.3317
30342SOL    HW293034   8.964   6.277   0.319  1.3403 -1.2975  0.4596
30343SOL     OW93035   4.952   1.456   2.178 -0.1717 -0.3124 -0.0072
30343SOL    HW193036   4.863   1.487   2.156 -0.1772 -1.1784 -1.3048
30343SOL    HW293037   5.000   1.461   2.096  1.0454  0.2605  0.7095
30344SOL     OW93038   8.761   9.047   7.412 -1.0340  0.3356 -0.0685
30344SOL    HW193039   8.850   9.038   7.446 -0.8127  2.3467  0.0135
30344SOL    HW293040   8.731   8.957   7.399  0.5854 -0.4070  0.9792
30345SOL     OW93041   9.678   9.621   0.238 -0.5021  0.2788 -0.1014
30345SOL    HW193042   9.714   9.593   0.154 -0.5663  1.2376 -0.4496
30345SOL    HW293043   9.727   9.700   0.261  0.7342 -0.8955  1.6114
30346SOL     OW93044   3.887  10.738   5.322  0.0834 -0.1935  0.7692
30346SOL    HW193045   3.868  10.645   5.332  0.9723 -1.0071 -3.3081
30346SOL    HW293046   3.803  10.782   5.332 -1.5807 -2.1563 -2.9699
30347SOL     OW93047   2.127  10.651  10.527  0.6912  0.2280  0.3526
30347SOL    HW193048   2.199  10.612  10.577  0.9643 -0.2797 -0.4160
30347SOL    HW293049   2.170  10.717  10.473  0.5182  0.2023  0.1869
30348SOL     OW93050   0.367   1.240   4.146 -0.1018 -0.1655  0.0256
30348SOL    HW193051   0.354   1.230   4.052 -0.8403  2.0455 -0.1841
30348SOL    HW293052   0.460   1.224   4.160  0.3369  0.9142 -1.3601
30349SOL     OW93053   1.787   3.035   0.614  0.5166 -0.6925 -0.0821
30349SOL    HW193054   1.692   3.033   0.609  0.5268 -1.6294 -0.0767
30349SOL    HW293055   1.817   2.997   0.532  0.9304  1.0022 -0.7739
30350SOL     OW93056   3.888   1.086   0.541  0.2171  0.4517 -0.0485
30350SOL    HW193057   3.900   1.176   0.511  1.0446  0.5233  0.4679
30350SOL    HW293058   3.949   1.035   0.489 -1.2818 -0.0665 -1.3955
30351SOL     OW93059   0.335   5.830   5.795  0.3366  0.3911  0.5738
30351SOL    HW193060   0.346   5.747   5.840  0.0960 -0.2616 -0.5167
30351SOL    HW293061   0.241   5.849   5.803  0.5639  1.0824  1.6898
30352SOL     OW93062   1.333   5.748   3.761  0.0343 -1.0030  0.4294
30352SOL    HW193063   1.318   5.673   3.819 -0.9839 -0.7959  0.4562
30352SOL    HW293064   1.320   5.712   3.673 -2.8262 -0.4210  0.5051
30353SOL     OW93065  10.691  11.077   4.998  0.2548 -0.1594 -0.2097
30353SOL    HW193066  10.741  11.159   4.989 -1.5620  1.0403  0.1491
30353SOL    HW293067  10.686  11.063   5.092 -2.2717  1.2100 -0.0642
30354SOL     OW93068  11.076  10.392   7.315 -0.3144  0.4868 -0.1694
30354SOL    HW193069  11.061  10.367   7.406  1.3478  0.3332  0.0929
30354SOL    HW293070  11.080  10.487   7.315  1.2242  0.4399  0.2072
30355SOL     OW93071   6.784   4.066   0.088 -0.1000  0.1187 -0.1235
30355SOL    HW193072   6.872   4.105   0.091 -0.5103  1.3058 -2.0315
30355SOL    HW293073   6.726   4.139   0.111 -0.5878 -0.9331  2.2797
30356SOL     OW93074   4.642   9.101   6.128  0.3205  0.6730 -0.6547
30356SOL    HW193075   4.557   9.101   6.171 -0.3205  1.7330 -1.8443
30356SOL    HW293076   4.699   9.051   6.186 -0.8090  0.9784  0.7545
30357SOL     OW93077   3.310   7.237  10.733 -0.1839  0.3057 -0.0033
30357SOL    HW193078   3.308   7.286  10.651  0.8367  0.1863 -0.1056
30357SOL    HW293079   3.371   7.166  10.718  0.0567  0.3082  0.8731
30358SOL     OW93080   8.802   0.058   1.597  0.5036  0.3152  0.5210
30358SOL    HW193081   8.877   0.019   1.552  0.1194 -0.1221  0.2492
30358SOL    HW293082   8.841   0.121   1.658  1.0532  0.6042 -0.1174
30359SOL     OW93083   5.075   3.610  11.144 -0.7628 -0.2099 -0.4059
30359SOL    HW193084   5.045   3.523  11.118  1.7439 -2.2029  2.6484
30359SOL    HW293085   5.051   3.618  11.236  0.4220  1.6854 -0.2023
30360SOL     OW93086   3.735   6.234   0.806 -0.0995 -0.3090 -0.2559
30360SOL    HW193087   3.684   6.156   0.828 -2.0028  0.7174 -0.8611
30360SOL    HW293088   3.764   6.268   0.891 -1.4355 -0.2647  0.2002
30361SOL     OW93089  10.616  10.718   9.648  0.7514  0.4749  0.1506
30361SOL    HW193090  10.671  10.641   9.663 -0.2824 -0.1562  0.7721
30361SOL    HW293091  10.635  10.776   9.722  0.9520  0.4942  0.0866
30362SOL     OW93092   0.550   2.046   6.637  0.1553  0.1335  0.3103
30362SOL    HW193093   0.497   1.975   6.600  1.2704  0.4140 -2.0579
30362SOL    HW293094   0.524   2.050   6.729 -1.6190 -1.7847 -0.0165
30363SOL     OW93095   1.102   3.534  10.160 -0.1725  0.0777  0.1944
30363SOL    HW193096   1.090   3.615  10.112 -1.0168 -0.9692 -1.4605
30363SOL    HW293097   1.140   3.473  10.096 -1.4878 -1.4156  0.7501
30364SOL     OW93098   5.324   3.559   1.697  0.1113 -0.0228  0.4945
30364SOL    HW193099   5.341   3.611   1.776  0.3227  0.5763  0.0628
30364SOL    HW293100   5.235   3.526   1.709 -0.1688  0.7552  0.6121
30365SOL     OW93101   4.003   6.572   5.083 -0.7714 -0.0633 -0.4966
30365SOL    HW193102   4.087   6.527   5.089 -0.4685  0.4143 -1.0970
30365SOL    HW293103   3.980   6.591   5.173  1.3485  2.6927 -0.3913
30366SOL     OW93104   6.716   4.882   9.591  0.1802  0.0471 -0.4034
30366SOL    HW193105   6.698   4.915   9.503  1.3903  0.4014 -0.5354
30366SOL    HW293106   6.630   4.856   9.625 -0.1985 -1.0806 -2.0760
30367SOL     OW93107   0.848  10.764   4.333  0.2990 -0.2618  0.3314
30367SOL    HW193108   0.880  10.838   4.281  1.8373 -0.1579  1.3653
30367SOL    HW293109   0.850  10.690   4.272  0.8471  0.1093 -0.1107
30368SOL     OW93110   5.143  10.595  11.171  0.0403  0.2812 -0.0023
30368SOL    HW193111   5.176  10.516  11.213  0.0496  1.2235  1.8442
30368SOL    HW293112   5.216  10.657  11.174 -0.6072  1.0496  0.5157
30369SOL     OW93113   9.783   5.808   3.135  0.5744  0.0152  0.4842
30369SOL    HW193114   9.690   5.783   3.131  0.1357  1.4955  0.9807
30369SOL    HW293115   9.791   5.857   3.217  2.0612 -1.0602  1.0372
30370SOL     OW93116   8.308   3.139   4.179  0.3143 -0.6667 -0.2234
30370SOL    HW193117   8.296   3.216   4.124  0.8092  1.7469  2.7689
30370SOL    HW293118   8.401   3.118   4.172  0.3136 -0.5706 -0.5256
30371SOL     OW93119   5.944   3.169   8.384  0.5851 -0.1985 -0.2338
30371SOL    HW193120   5.918   3.161   8.475  2.5138  0.4210  0.4129
30371SOL    HW293121   6.008   3.240   8.383  0.4783 -0.0755 -2.1007
30372SOL     OW93122   4.191  10.721  10.873  0.8103  0.2110  0.2497
30372SOL    HW193123   4.184  10.626  10.889  1.2178  0.0196 -0.6186
30372SOL    HW293124   4.280  10.743  10.902  1.3944 -0.0539 -1.2178
30373SOL     OW93125   4.640   5.334   2.800  0.1396 -0.3606  0.3212
30373SOL    HW193126   4.632   5.260   2.860 -1.4684 -0.7083 -0.2683
30373SOL    HW293127   4.553   5.376   2.802  1.0068  1.5446  0.6638
30374SOL     OW93128   0.119   5.474   5.306 -0.3508 -0.2220  0.2023
30374SOL    HW193129   0.144   5.474   5.398  0.1379  0.3375  0.0756
30374SOL    HW293130   0.195   5.438   5.261 -0.8876 -1.2412  0.0845
30375SOL     OW93131   8.031  10.304   9.767  0.4240  0.4256  0.0634
30375SOL    HW193132   8.011  10.362   9.840  2.8959  0.4475  0.7868
30375SOL    HW293133   8.058  10.363   9.696  2.6359  0.2392  0.6992
30376SOL     OW93134   2.419   9.274   9.008  0.2390  0.6115  0.0842
30376SOL    HW193135   2.486   9.206   9.012 -0.2075  0.2173  2.9877
30376SOL    HW293136   2.339   9.226   8.985  0.6318  0.8806 -2.0476
30377SOL     OW93137   1.779   3.378   8.110  0.5192 -0.2467  0.0860
30377SOL    HW193138   1.750   3.335   8.028  0.9699 -0.3704 -0.0089
30377SOL    HW293139   1.718   3.450   8.121  1.0252  0.3554 -0.8740
30378SOL     OW93140   3.455   0.679  10.153  0.2080 -0.5772 -0.4177
30378SOL    HW193141   3.401   0.680  10.232 -1.9735  1.9228 -1.7933
30378SOL    HW293142   3.534   0.726  10.178 -0.5483  0.3733  0.2751
30379SOL     OW93143   7.518   5.161   4.695  0.1153 -0.7710 -0.0662
30379SOL    HW193144   7.569   5.138   4.773 -0.9867 -2.1012  0.3074
30379SOL    HW293145   7.541   5.252   4.678 -0.1747 -0.1814  2.2915
30380SOL     OW93146   8.209   0.402  10.902 -0.3847  0.2898  0.1993
30380SOL    HW193147   8.166   0.411  10.817  1.4867 -3.0782 -1.2948
30380SOL    HW293148   8.299   0.432  10.887 -0.8764  3.1066  2.0938
30381SOL     OW93149   6.169   2.434   4.225 -0.1364  0.4445  0.0087
30381SOL    HW193150   6.194   2.420   4.134 -2.5313  1.4658 -0.8870
30381SOL    HW293151   6.217   2.367   4.274 -0.0421 -1.1829 -2.1857
30382SOL     OW93152  11.046   5.181   4.000  0.5361  0.2176  0.7042
30382SOL    HW193153  11.091   5.118   3.944  0.0647  0.7082 -0.2612
30382SOL    HW293154  11.077   5.162   4.088  2.6763  0.5569  0.0823
30383SOL     OW93155   0.653   9.342   9.222 -0.0276  0.1741 -0.1547
30383SOL    HW193156   0.600   9.296   9.288 -0.9643  0.8544 -0.4189
30383SOL    HW293157   0.693   9.272   9.170 -1.1188 -0.3559 -0.3002
30384SOL     OW93158   4.227   3.653   9.538  0.9318 -0.2842  0.7027
30384SOL    HW193159   4.141   3.663   9.498  0.8157 -0.9551  0.7728
30384SOL    HW293160   4.212   3.596   9.614  1.5473 -1.0047  0.2974
30385SOL     OW93161   2.568   8.444   0.875 -0.7103 -0.0608  0.3611
30385SOL    HW193162   2.648   8.479   0.914  0.8484 -1.4907 -1.3609
30385SOL    HW293163   2.555   8.360   0.919 -2.6237  1.1113  2.2186
30386SOL     OW93164  10.464   7.196   3.739  0.0924  0.3928 -0.1408
30386SOL    HW193165  10.494   7.241   3.818  1.4394 -1.1371  0.2868
30386SOL    HW293166  10.527   7.222   3.672  0.4568 -0.2532 -0.0629
30387SOL     OW93167   8.971   3.850   3.028  0.1961  0.0784  0.3284
30387SOL    HW193168   8.944   3.937   3.059 -3.5465 -0.8799  0.2582
30387SOL    HW293169   9.043   3.868   2.967 -1.0687  3.2500 -0.4623
30388SOL     OW93170   8.726   9.852   4.913  0.3144 -0.5362  0.2371
30388SOL    HW193171   8.758   9.865   5.002 -2.4740  0.0975  1.2629
30388SOL    HW293172   8.686   9.936   4.889 -3.7311 -2.0934  0.6339
30389SOL     OW93173   9.647   6.963   3.441 -0.4012 -0.4073 -0.0916
30389SOL    HW193174   9.561   6.994   3.468  0.7099  0.4557  2.8821
30389SOL    HW293175   9.708   7.031   3.469  1.3195 -1.1317 -1.8064
30390SOL     OW93176   7.227   2.415  11.210  0.0716  0.0073 -0.4895
30390SOL    HW193177   7.139   2.448  11.229  0.3899 -0.6250  2.6341
30390SOL    HW293178   7.212   2.338  11.155 -1.2783  0.2126 -0.4432
30391SOL     OW93179   8.379   8.690   2.531  0.2870 -0.4294 -0.7227
30391SOL    HW193180   8.435   8.746   2.585 -0.0153  0.9350 -1.7695
30391SOL    HW293181   8.290   8.710   2.560  0.1743 -0.3464 -1.1172
30392SOL     OW93182   2.237   7.885   4.604 -0.2526 -0.1269  0.5707
30392SOL    HW193183   2.158   7.868   4.552 -0.5277  1.0085  0.5926
30392SOL    HW293184   2.231   7.823   4.676 -1.1442 -0.0597  0.5773
30393SOL     OW93185   0.866   8.264   3.380 -0.5794 -0.0626  0.2568
30393SOL    HW193186   0.867   8.330   3.310  1.8564 -0.1359  0.1260
30393SOL    HW293187   0.946   8.213   3.366 -0.0309 -0.1328  3.0463
30394SOL     OW93188   5.378   1.131  10.351 -0.2233 -0.4940 -0.7857
30394SOL    HW193189   5.382   1.089  10.265 -0.9256  1.7575 -1.9717
30394SOL    HW293190   5.465   1.116  10.388 -0.9996 -4.8012 -0.1326
30395SOL     OW93191   9.014   2.798   6.443 -0.0317 -0.0802 -0.2036
30395SOL    HW193192   9.024   2.767   6.353 -1.2639 -0.5499 -0.2018
30395SOL    HW293193   8.936   2.854   6.440 -0.1141 -0.1416  0.5908
30396SOL     OW93194   5.544   6.341   9.984  0.0403  0.5052  0.0008
30396SOL    HW193195   5.563   6.248   9.985 -0.8066  0.3222 -0.2005
30396SOL    HW293196   5.559   6.370  10.075 -1.5064 -0.2163  0.5170
30397SOL     OW93197   1.937   6.706   9.660  0.6983 -0.2504  0.2444
30397SOL    HW193198   1.937   6.624   9.710  1.3763  0.1137  0.8705
30397SOL    HW293199   1.981   6.769   9.718  0.0815  0.5872 -0.1749
30398SOL     OW93200   1.997   2.306   5.112 -0.5787 -0.8526 -0.3033
30398SOL    HW193201   1.965   2.393   5.090  0.0095 -0.8047 -1.0120
30398SOL    HW293202   2.087   2.304   5.078 -0.9865 -2.1405 -1.3771
30399SOL     OW93203   9.132   2.719   6.816 -0.9552  0.1768  0.7528
30399SOL    HW193204   9.046   2.705   6.778 -0.4015 -3.0254  0.4439
30399SOL    HW293205   9.121   2.697   6.909 -0.7890  1.3529  1.0706
30400SOL     OW93206   3.393   7.573   7.082  0.1994  0.4504  0.2122
30400SOL    HW193207   3.448   7.647   7.055  0.3512 -0.3978 -2.0383
30400SOL    HW293208   3.456   7.506   7.109  0.2202  0.0767 -0.7338
30401SOL     OW93209   0.282   6.217  10.594  0.4013 -0.0609  0.3128
30401SOL    HW193210   0.277   6.236  10.500  4.2808  1.0054  0.1447
30401SOL    HW293211   0.246   6.128  10.603  0.1215 -0.2637 -2.1865
30402SOL     OW93212   9.408   0.902  10.414  0.0317  0.3330  0.5830
30402SOL    HW193213   9.436   0.969  10.477  0.0560  0.3435  0.5611
30402SOL    HW293214   9.350   0.846  10.464 -1.0308  1.1207  0.2690
30403SOL     OW93215   9.249  10.119  10.985 -0.5362 -0.1452 -0.3391
30403SOL    HW193216   9.210  10.207  10.985  0.6669  0.4131 -0.2121
30403SOL    HW293217   9.257  10.096  10.893  1.3305  0.9238 -0.4972
30404SOL     OW93218  10.199   7.228   1.166 -0.0608 -0.4624 -0.0655
30404SOL    HW193219  10.282   7.184   1.149  0.0773 -0.0826 -0.3861
30404SOL    HW293220  10.135   7.157   1.172  0.2311 -0.7337 -0.1480
30405SOL     OW93221   7.232   1.696   9.061  0.4034  0.1754 -0.6920
30405SOL    HW193222   7.238   1.654   9.146  0.8138 -0.0575 -0.8373
30405SOL    HW293223   7.268   1.784   9.074 -0.5756  0.5460 -0.3575
30406SOL     OW93224   3.741   5.670   2.109 -0.0826  0.7551 -0.2167
30406SOL    HW193225   3.782   5.677   2.195  1.8271 -0.0328 -0.9923
30406SOL    HW293226   3.731   5.761   2.080  1.6720  1.0055 -0.1726
30407SOL     OW93227   2.175   8.990  10.635  0.0923 -0.2520 -1.2194
30407SOL    HW193228   2.142   9.060  10.692 -2.6633 -3.0306  1.0232
30407SOL    HW293229   2.237   8.942  10.690 -0.3708 -1.2973 -1.5869
30408SOL     OW93230  11.109   9.821  10.205 -0.2427 -0.3291 -0.5181
30408SOL    HW193231  11.113   9.737  10.251 -2.2653 -0.3613 -0.3145
30408SOL    HW293232  11.094   9.885  10.275  1.4441  0.2556 -0.6525
30409SOL     OW93233   4.217   3.868   3.879 -0.4152 -0.2825  0.2916
30409SOL    HW193234   4.275   3.830   3.813  0.6387  0.7505  0.5858
30409SOL    HW293235   4.129   3.856   3.844  0.1645  1.9224 -2.2676
30410SOL     OW93236   4.880   5.886   1.150 -0.7410 -0.1892 -0.4789
30410SOL    HW193237   4.818   5.896   1.222 -0.9255  2.0477 -0.8803
30410SOL    HW293238   4.827   5.854   1.077 -1.5443  1.9086 -0.8788
30411SOL     OW93239   7.417   6.860   0.433 -0.4445  0.3260  0.0403
30411SOL    HW193240   7.376   6.903   0.508  0.7512 -1.1867  1.6343
30411SOL    HW293241   7.491   6.916   0.411  0.4907 -0.3206  1.4298
30412SOL     OW93242   4.659   2.020   6.833  0.3603  0.1277  0.2493
30412SOL    HW193243   4.578   2.038   6.785 -0.1093  1.6281  1.5400
30412SOL    HW293244   4.706   1.957   6.778 -1.3212 -0.1774 -0.8962
30413SOL     OW93245   9.874   8.086   3.987 -0.1034  0.3608  0.0133
30413SOL    HW193246   9.787   8.047   3.976 -0.2057  0.8340 -0.9002
30413SOL    HW293247   9.920   8.024   4.044 -0.1583 -1.3029 -1.6752
30414SOL     OW93248   4.243   5.237   4.865 -0.1500  0.4147  0.1000
30414SOL    HW193249   4.224   5.150   4.900 -0.8576  0.3633 -0.3925
30414SOL    HW293250   4.337   5.236   4.847 -0.3218 -0.5911 -0.8217
30415SOL     OW93251  10.036   8.316   9.520  0.2313  0.1301 -0.1224
30415SOL    HW193252   9.990   8.299   9.437  1.9688 -0.1415 -1.0719
30415SOL    HW293253  10.040   8.230   9.563  1.0748 -0.1379 -0.7088
30416SOL     OW93254   9.488   6.295   7.646 -0.3639 -0.1700 -0.3379
30416SOL    HW193255   9.496   6.205   7.678  0.1925  0.1158  0.3298
30416SOL    HW293256   9.525   6.291   7.558  0.5648 -0.3961  0.0493
30417SOL     OW93257   0.014   4.765   0.047 -0.0909 -1.0965  0.8802
30417SOL    HW193258   0.063   4.845   0.029  1.3547 -2.3928 -1.3788
30417SOL    HW293259  -0.067   4.796   0.088  0.8227  1.4349  0.9591
30418SOL     OW93260   3.403   7.534   7.592 -0.4785  0.7623  0.3988
30418SOL    HW193261   3.420   7.629   7.589  0.9323  0.5796  1.6381
30418SOL    HW293262   3.325   7.525   7.647 -0.5612  1.1899  0.3578
30419SOL     OW93263   6.738  10.638   6.684  0.3781  0.3200 -0.4024
30419SOL    HW193264   6.667  10.574   6.673  0.7564 -0.0287 -0.8322
30419SOL    HW293265   6.816  10.585   6.696  0.5696  0.7060  0.0744
30420SOL     OW93266   4.880   3.824   0.667 -0.6384  0.2520  0.0898
30420SOL    HW193267   4.973   3.815   0.644 -0.7595 -1.1383  0.0525
30420SOL    HW293268   4.880   3.857   0.757 -0.1297  0.9034 -0.1368
30421SOL     OW93269   7.980   3.133   1.113  0.7192 -0.1775  0.6285
30421SOL    HW193270   7.961   3.145   1.207  0.7047  0.7863  0.5095
30421SOL    HW293271   8.072   3.156   1.104  0.3133  1.3307  0.1416
30422SOL     OW93272   8.004   6.437   7.209 -0.1360 -0.4165 -0.0175
30422SOL    HW193273   7.918   6.451   7.247  0.1595  0.2283  0.4378
30422SOL    HW293274   8.016   6.342   7.209  0.6599 -0.4151  3.3523
30423SOL     OW93275   4.267   6.151   8.053 -0.7074  0.1027  0.1239
30423SOL    HW193276   4.245   6.212   8.124 -2.6845  1.6759 -1.7197
30423SOL    HW293277   4.352   6.182   8.021 -1.9842  2.5027 -1.2451
30424SOL     OW93278   5.836   7.339   2.061 -0.1826 -0.3297 -0.1823
30424SOL    HW193279   5.852   7.258   2.111 -1.1069 -0.3859  0.0281
30424SOL    HW293280   5.768   7.384   2.110  0.3812  0.6283 -0.2586
30425SOL     OW93281   1.890   0.105   5.816  0.3904  0.0322  0.0087
30425SOL    HW193282   1.979   0.129   5.791  0.3322  1.5754  1.1615
30425SOL    HW293283   1.886   0.011   5.799  3.5353 -0.9741  3.4215
30426SOL     OW93284   6.774   9.192   7.608  0.3034 -0.7253  0.0019
30426SOL    HW193285   6.768   9.184   7.703  0.5217  0.2126  0.1071
30426SOL    HW293286   6.685   9.176   7.577  0.1254 -0.5368  0.4059
30427SOL     OW93287   9.996   5.749  10.658 -0.3716  0.2015  0.1993
30427SOL    HW193288   9.963   5.838  10.672 -0.7946 -0.0358  0.8011
30427SOL    HW293289   9.936   5.694  10.709 -0.1171 -0.4267 -0.1739
30428SOL     OW93290  10.408   1.467   0.134 -0.0380  0.2870  0.6120
30428SOL    HW193291  10.446   1.425   0.057  0.9438  0.2370  1.1165
30428SOL    HW293292  10.482   1.490   0.189 -0.7501 -3.0194  3.3114
30429SOL     OW93293   1.464   6.252   0.858  0.3842  0.1099 -0.1708
30429SOL    HW193294   1.554   6.278   0.878 -0.2034  0.9406  1.5114
30429SOL    HW293295   1.472   6.162   0.827  2.2393  1.4484 -4.2866
30430SOL     OW93296   7.524   4.636   4.539  0.6070  0.1448  0.0220
30430SOL    HW193297   7.438   4.616   4.501  0.9658  2.4925 -2.2853
30430SOL    HW293298   7.560   4.550   4.560 -0.9153 -1.1765 -2.2410
30431SOL     OW93299   9.658   6.063   0.438  0.0069  0.6306  0.2026
30431SOL    HW193300   9.578   6.060   0.490 -0.6145  2.1361 -0.6020
30431SOL    HW293301   9.729   6.069   0.502 -0.6035  0.6001  0.8951
30432SOL     OW93302   3.912   0.693   1.227  0.3103 -0.5078  0.9339
30432SOL    HW193303   3.833   0.654   1.266  0.3728 -0.4897  1.0773
30432SOL    HW293304   3.885   0.717   1.139 -1.2407  3.6515  2.3038
30433SOL     OW93305   2.963  11.050   7.294 -0.2534  0.0623  0.5843
30433SOL    HW193306   2.916  11.041   7.377 -0.1931  1.3315  0.7736
30433SOL    HW293307   2.989  11.142   7.291  2.2953 -0.5912  0.5074
30434SOL     OW93308   2.476   8.389   5.928  0.0806  0.0541 -0.1723
30434SOL    HW193309   2.529   8.372   6.006 -0.4742  1.5018  0.5386
30434SOL    HW293310   2.393   8.344   5.945 -0.0428  0.3756  0.0861
30435SOL     OW93311   1.464   1.004   4.018  0.0395 -0.0954 -1.0135
30435SOL    HW193312   1.458   0.908   4.021  0.0439 -0.0753  0.5893
30435SOL    HW293313   1.557   1.022   4.031 -0.2358  0.1450  0.8878
30436SOL     OW93314   0.460   1.303   8.197  0.0262  0.5287  0.2830
30436SOL    HW193315   0.426   1.249   8.125  0.4349 -1.2612  1.3638
30436SOL    HW293316   0.553   1.315   8.176  0.0897  0.2201  0.3833
30437SOL     OW93317   0.545   0.278   6.466  0.0259  0.1649 -0.0498
30437SOL    HW193318   0.454   0.250   6.460 -0.4062  1.2763  0.9069
30437SOL    HW293319   0.576   0.245   6.551  0.6653 -0.6019 -0.5685
30438SOL     OW93320   9.497   8.861   2.722 -0.1817 -0.0814 -0.4102
30438SOL    HW193321   9.582   8.825   2.747 -0.5146  0.2342  1.3156
30438SOL    HW293322   9.435   8.789   2.737 -0.8573  1.0004  3.0910
30439SOL     OW93323   7.683   3.375   3.576  0.0629  0.8745  0.1131
30439SOL    HW193324   7.750   3.437   3.606  3.2602 -1.8980 -0.6734
30439SOL    HW293325   7.682   3.307   3.643 -2.2466  0.8879  0.1879
30440SOL     OW93326   0.402   5.297   1.261  0.6944 -0.5660  0.5452
30440SOL    HW193327   0.307   5.304   1.256  0.7020 -1.0324 -0.4147
30440SOL    HW293328   0.422   5.214   1.218  1.4473 -1.1087  1.8728
30441SOL     OW93329   7.585   6.231   1.519  0.0706  0.1207  0.1545
30441SOL    HW193330   7.563   6.160   1.459  1.1758 -0.9101  0.9351
30441SOL    HW293331   7.561   6.310   1.471  0.7547 -0.6763 -1.5988
30442SOL     OW93332   2.692   9.562   5.578 -0.0144  0.5401  0.2141
30442SOL    HW193333   2.736   9.555   5.663  1.1609  0.4230 -0.3959
30442SOL    HW293334   2.682   9.472   5.548 -2.0350  0.4419  0.9957
30443SOL     OW93335  10.890   8.142   8.999  0.2083  0.5104  0.0977
30443SOL    HW193336  10.848   8.124   8.915 -1.1877 -0.2323  0.9373
30443SOL    HW293337  10.818   8.150   9.061  1.2477  0.4650  1.3418
30444SOL     OW93338   9.640  10.917   5.831 -0.3023 -0.4583  0.8837
30444SOL    HW193339   9.731  10.893   5.852  0.0186 -0.6546 -0.6448
30444SOL    HW293340   9.619  10.867   5.752 -1.7581 -0.4141  1.2103
30445SOL     OW93341   4.257   8.321   1.466 -0.0532  0.0984  0.3416
30445SOL    HW193342   4.344   8.307   1.504  1.2479  1.3375 -1.9356
30445SOL    HW293343   4.252   8.258   1.394 -0.1316  1.3752 -0.8275
30446SOL     OW93344   3.754   2.038   2.472 -0.0369 -0.1541  0.2510
30446SOL    HW193345   3.780   2.126   2.497  0.0486 -0.0105 -0.3456
30446SOL    HW293346   3.737   1.994   2.555 -4.7365  1.7848  0.6719
30447SOL     OW93347   9.079   1.553  10.129 -0.2855 -0.8619 -0.0664
30447SOL    HW193348   9.083   1.458  10.139  0.6041 -1.1902 -2.7999
30447SOL    HW293349   9.138   1.587  10.196  0.0092 -2.2669  0.4119
30448SOL     OW93350   9.283   1.636   4.055  0.5443 -0.6000  0.2850
30448SOL    HW193351   9.231   1.716   4.062 -1.1534 -1.6864  0.6628
30448SOL    HW293352   9.353   1.647   4.120 -0.5820 -0.0729  1.4435
30449SOL     OW93353   6.360   5.210   1.186 -0.1046  0.3586  0.0624
30449SOL    HW193354   6.380   5.204   1.279  2.4344  1.6444 -0.3184
30449SOL    HW293355   6.351   5.304   1.170  1.1020  0.2729 -1.2716
30450SOL     OW93356  11.118   7.386   2.176 -0.2576  0.1194 -0.7967
30450SOL    HW193357  11.114   7.445   2.100 -0.1029 -1.6536 -2.2406
30450SOL    HW293358  11.043   7.412   2.229 -3.3774 -1.5479 -3.9133
30451SOL     OW93359   0.062   0.592   3.404 -0.2883  0.2405 -0.0447
30451SOL    HW193360  -0.024   0.595   3.361 -0.0013  2.0582 -0.6005
30451SOL    HW293361   0.044   0.618   3.494 -0.6735 -2.1375  0.6437
30452SOL     OW93362   6.691  10.430   3.726  0.1755  0.1096 -0.4979
30452SOL    HW193363   6.738  10.453   3.806 -0.1640 -1.3968  0.1825
30452SOL    HW293364   6.608  10.477   3.733  0.6760  1.0145 -0.6082
30453SOL     OW93365   3.046   0.642   4.036 -0.2823 -0.3672  0.4871
30453SOL    HW193366   3.009   0.561   3.999  1.7842 -0.5745 -1.2979
30453SOL    HW293367   3.064   0.697   3.960  2.5843 -0.1198  1.2455
30454SOL     OW93368   9.882   7.766   1.437 -0.3975  0.0903  0.3289
30454SOL    HW193369   9.813   7.831   1.431 -0.3250  0.2000  0.6973
30454SOL    HW293370   9.956   7.804   1.389  0.1285  0.9027  1.7226
30455SOL     OW93371   6.957  10.088   6.483  0.2485  0.3048 -0.5731
30455SOL    HW193372   6.981  10.040   6.404 -2.2462 -1.3630 -0.4434
30455SOL    HW293373   6.965  10.024   6.553  1.1728  1.4020  0.3630
30456SOL     OW93374   8.394   2.735   3.623  0.4847 -0.1365 -0.6975
30456SOL    HW193375   8.463   2.800   3.628 -0.0617  0.3697  1.3650
30456SOL    HW293376   8.406   2.693   3.537  2.2913  1.0433 -1.0767
30457SOL     OW93377  11.166  10.130   5.800  0.1231  0.2318 -0.1272
30457SOL    HW193378  11.238  10.143   5.739 -0.0489 -1.4830 -0.7708
30457SOL    HW293379  11.186  10.187   5.874  0.1504  2.6623 -1.8870
30458SOL     OW93380   8.532   2.443   9.677 -0.0864  0.3649 -0.0098
30458SOL    HW193381   8.464   2.428   9.610  0.0768  1.1357 -0.3636
30458SOL    HW293382   8.586   2.364   9.674 -0.7511 -0.1028  0.0174
30459SOL     OW93383   8.747   0.130   3.667 -0.3669  0.5090 -0.3930
30459SOL    HW193384   8.769   0.037   3.671 -1.2784  0.2979  0.1629
30459SOL    HW293385   8.664   0.137   3.714 -0.4583  1.5645 -0.6752
30460SOL     OW93386   2.334  10.609   8.505  0.3052 -0.0186  0.2240
30460SOL    HW193387   2.307  10.691   8.464 -2.7246 -0.8838  0.2355
30460SOL    HW293388   2.323  10.543   8.436  1.9984 -0.5481  0.4177
30461SOL     OW93389   4.099   1.501   0.861  0.3253  0.1450 -0.1328
30461SOL    HW193390   4.008   1.494   0.833 -0.0280 -3.2598  1.2733
30461SOL    HW293391   4.094   1.505   0.956  1.6734  1.5879 -0.0832
30462SOL     OW93392   6.596   2.078   1.620 -0.3164  0.5792  0.1210
30462SOL    HW193393   6.560   2.102   1.534 -0.3951  1.8967  0.5092
30462SOL    HW293394   6.669   2.137   1.633 -0.4416  0.5405  1.0655
30463SOL     OW93395   6.450   6.725  10.403 -0.6420 -0.1373  0.4042
30463SOL    HW193396   6.534   6.686  10.379 -0.5179  0.4803 -0.1999
30463SOL    HW293397   6.388   6.688  10.341 -0.5377  0.5511 -0.1225
30464SOL     OW93398   7.194   3.807   2.926  0.4990  0.1851 -0.6897
30464SOL    HW193399   7.149   3.727   2.898  0.6431 -0.1609  0.0390
30464SOL    HW293400   7.225   3.787   3.014  0.6287  1.0113 -0.5415
30465SOL     OW93401   8.016   1.901  10.316  0.1609 -0.0667 -0.1474
30465SOL    HW193402   8.033   1.988  10.281 -0.2462 -0.6613 -1.9206
30465SOL    HW293403   7.922   1.888  10.304  0.1482 -0.6155  0.4467
30466SOL     OW93404   1.126   5.434   3.218 -0.1577 -0.7204  0.0413
30466SOL    HW193405   1.042   5.400   3.246 -0.9498 -1.0447 -2.4839
30466SOL    HW293406   1.105   5.500   3.152  1.5189  1.1414  1.2456
30467SOL     OW93407   3.093  10.410   5.591 -0.1984 -1.0164 -0.3680
30467SOL    HW193408   3.133  10.430   5.506 -0.2983  0.4698 -0.0904
30467SOL    HW293409   3.000  10.430   5.579 -0.2412 -0.9586  0.0361
30468SOL     OW93410   0.969   7.536  10.710 -0.5227  0.7907  0.3196
30468SOL    HW193411   0.907   7.602  10.680  0.6404  1.6014 -0.3749
30468SOL    HW293412   0.967   7.469  10.641  1.3892  2.1638 -1.1809
30469SOL     OW93413   0.005   2.842   8.251  0.0952  0.0016  0.2203
30469SOL    HW193414  -0.075   2.855   8.302 -0.6698  0.2723 -0.9983
30469SOL    HW293415   0.004   2.749   8.229  0.8236 -0.2761  1.3206
30470SOL     OW93416   0.219   8.037   5.802 -0.1951 -0.2823  0.3541
30470SOL    HW193417   0.144   7.983   5.779  0.1841 -0.3893 -0.7154
30470SOL    HW293418   0.295   7.988   5.770  0.5973 -1.2946  3.4607
30471SOL     OW93419   3.210   3.746  10.114  0.0792  0.3747 -0.1022
30471SOL    HW193420   3.304   3.732  10.112  0.1928  1.1037 -0.4390
30471SOL    HW293421   3.199   3.836  10.082 -0.6522  0.6979  1.0034
30472SOL     OW93422  11.000   5.510   8.928  0.1656 -0.2973  0.0779
30472SOL    HW193423  10.997   5.420   8.961  1.2197 -0.6436 -0.6742
30472SOL    HW293424  11.066   5.553   8.983 -0.1961 -0.0432  0.3105
30473SOL     OW93425   1.778   5.502   8.701  0.5970  0.5477  0.4284
30473SOL    HW193426   1.790   5.586   8.657  0.9089  0.7745  0.9369
30473SOL    HW293427   1.855   5.493   8.758  1.3525 -0.7945 -0.7296
30474SOL     OW93428   9.918   9.470   7.070  0.5770 -0.2751 -0.1908
30474SOL    HW193429   9.893   9.542   7.012 -0.1760 -0.9178 -0.6803
30474SOL    HW293430   9.929   9.511   7.156 -1.4073  0.2073 -0.1088
30475SOL     OW93431   2.978   3.688   0.653 -0.2409 -0.1376 -0.6242
30475SOL    HW193432   2.908   3.648   0.602 -0.9507  0.1396  0.1011
30475SOL    HW293433   2.934   3.717   0.733  0.9281 -0.9823  0.3452
30476SOL     OW93434  10.021   4.209   1.251 -0.1784  0.1943 -0.2893
30476SOL    HW193435   9.981   4.194   1.336  0.4423 -0.6757 -0.1381
30476SOL    HW293436   9.947   4.218   1.191 -0.8183 -4.5837 -0.6274
30477SOL     OW93437   1.795   5.750   8.576 -0.1448  0.4545  0.0224
30477SOL    HW193438   1.734   5.818   8.603  0.5077  0.3154  2.0164
30477SOL    HW293439   1.871   5.797   8.542 -0.7790  0.6447 -1.1775
30478SOL     OW93440   6.186   1.746   7.697  0.1172  0.1577  0.3080
30478SOL    HW193441   6.201   1.780   7.785 -0.1879  1.9874 -0.3243
30478SOL    HW293442   6.196   1.651   7.707  1.9160  0.4546  1.9472
30479SOL     OW93443   6.678   1.076   0.258 -0.4941  1.0447 -0.4877
30479SOL    HW193444   6.606   1.024   0.292 -1.2992  0.7738 -2.4730
30479SOL    HW293445   6.641   1.163   0.245 -0.2834  1.0686 -0.9327
30480SOL     OW93446   6.216   4.735   5.428  0.1274  0.7078 -0.0408
30480SOL    HW193447   6.214   4.653   5.477 -0.1178  1.3890  1.1298
30480SOL    HW293448   6.278   4.790   5.476  0.3931  1.1645 -0.8908
30481SOL     OW93449   0.919   0.758   8.133 -0.1065 -0.1015  0.0144
30481SOL    HW193450   0.868   0.685   8.097 -0.9219 -0.4019  1.6862
30481SOL    HW293451   0.985   0.777   8.066  1.7483 -3.9736  0.5057
30482SOL     OW93452   5.647  10.497   8.135 -0.0196 -0.3734 -0.6040
30482SOL    HW193453   5.703  10.454   8.071 -1.0639 -1.0472 -1.1088
30482SOL    HW293454   5.563  10.506   8.090 -0.1691  1.0901 -0.0638
30483SOL     OW93455   3.926   7.830   7.540  0.0471 -0.6596  0.3401
30483SOL    HW193456   3.967   7.754   7.582  0.3116 -0.7438 -0.0630
30483SOL    HW293457   3.832   7.811   7.542  0.2039 -1.9065 -1.4389
30484SOL     OW93458   5.475   4.492   5.573 -0.7909 -0.0840  0.7534
30484SOL    HW193459   5.438   4.579   5.558 -0.5268  0.0878  1.0882
30484SOL    HW293460   5.544   4.506   5.639  2.6634  0.2981 -2.5919
30485SOL     OW93461  10.870   8.693   9.846  0.0968 -0.6431 -0.2926
30485SOL    HW193462  10.937   8.758   9.862 -1.5522  1.1160 -0.2016
30485SOL    HW293463  10.896   8.617   9.898  2.5120 -0.4287 -1.0778
30486SOL     OW93464   5.710   4.695   7.425  0.0282  0.2850 -0.1599
30486SOL    HW193465   5.731   4.602   7.425  0.9461  0.4879  0.3363
30486SOL    HW293466   5.709   4.720   7.333 -1.2594 -0.4304 -0.3631
30487SOL     OW93467   4.010   0.129   9.954 -0.0976 -0.1511 -0.0172
30487SOL    HW193468   3.951   0.078  10.008  1.8031 -1.4612  0.9253
30487SOL    HW293469   4.096   0.115   9.992  0.8887  1.4650 -1.4942
30488SOL     OW93470  10.778   6.121   8.765 -0.2142  0.2278  0.5676
30488SOL    HW193471  10.840   6.194   8.777  0.7783 -0.7065  1.3273
30488SOL    HW293472  10.810   6.053   8.824 -0.7487 -1.0737 -0.5997
30489SOL     OW93473   3.798   0.708   2.734 -0.2748  0.5766 -0.3931
30489SOL    HW193474   3.879   0.683   2.690  0.1435  0.7531  0.2614
30489SOL    HW293475   3.749   0.626   2.743 -1.2887  0.8157 -2.9694
30490SOL     OW93476   3.916   2.795   2.645 -0.1041  0.0191  0.4300
30490SOL    HW193477   3.856   2.742   2.696  0.0187  0.0908  0.6518
30490SOL    HW293478   3.868   2.818   2.566  0.3791 -1.7386 -0.4084
30491SOL     OW93479   3.467   0.587   5.239 -0.6927 -0.6121  0.0093
30491SOL    HW193480   3.447   0.496   5.215  0.3644 -0.9119  0.2150
30491SOL    HW293481   3.404   0.606   5.309  0.8134 -2.1580  1.9164
30492SOL     OW93482   2.649   6.993   5.044  0.3783  0.0431 -0.5370
30492SOL    HW193483   2.620   6.902   5.039 -0.7652  0.3351  0.2860
30492SOL    HW293484   2.726   6.992   5.100 -1.2477 -0.1212  1.8444
30493SOL     OW93485   8.054   3.999   9.426  0.2201 -0.2006 -0.3768
30493SOL    HW193486   8.049   3.906   9.447 -0.5311  0.2573  1.7035
30493SOL    HW293487   8.011   4.007   9.341 -0.2161 -1.6816 -0.3219
30494SOL     OW93488   7.123   2.470   3.734 -0.6154  0.1769  0.0461
30494SOL    HW193489   7.127   2.554   3.780  2.5863  1.2269 -1.8372
30494SOL    HW293490   7.114   2.405   3.804 -2.4663  1.9668  1.6076
30495SOL     OW93491   2.730   2.956   2.593  0.3147 -0.7464 -0.0648
30495SOL    HW193492   2.664   3.026   2.596  0.6521 -0.3712 -1.0343
30495SOL    HW293493   2.811   2.999   2.620  0.3996 -0.9234 -0.0378
30496SOL     OW93494   6.395   4.644   4.622 -0.3173  1.3145 -0.1145
30496SOL    HW193495   6.443   4.614   4.699 -1.5183  0.4339  0.3323
30496SOL    HW293496   6.304   4.621   4.641 -0.9536  3.0246 -0.8702
30497SOL     OW93497   4.990  10.866   3.601  0.2786 -0.0635  0.9874
30497SOL    HW193498   4.960  10.827   3.519 -0.7637  2.2066  0.2081
30497SOL    HW293499   5.084  10.878   3.589 -0.0897  1.7863 -0.6649
30498SOL     OW93500   2.857  11.283   4.303 -0.4864  0.2644 -0.4769
30498SOL    HW193501   2.837  11.190   4.295  1.9695 -0.2653 -1.7024
30498SOL    HW293502   2.822  11.323   4.223 -0.1239  0.0770 -0.7310
30499SOL     OW93503   0.170   1.762  10.982  0.0788  0.1918  0.3769
30499SOL    HW193504   0.234   1.815  11.030 -0.5792  1.8367 -0.4892
30499SOL    HW293505   0.085   1.799  11.004 -0.4222 -0.5591 -0.2042
30500SOL     OW93506   4.188   0.892   5.017 -0.4245  0.1198  0.0011
30500SOL    HW193507   4.265   0.942   4.990  0.3438  0.0607  1.8915
30500SOL    HW293508   4.216   0.800   5.013 -1.1750 -0.0706 -1.5095
30501SOL     OW93509   3.254   9.533   2.301  0.0449 -0.2979  0.0631
30501SOL    HW193510   3.276   9.541   2.394  0.1484  1.0880 -0.0539
30501SOL    HW293511   3.169   9.576   2.292  0.0908 -0.3126 -0.4889
30502SOL     OW93512   0.933   5.224  10.509 -0.2235 -0.4031 -0.4448
30502SOL    HW193513   0.951   5.145  10.559  0.1272 -1.3977 -2.0735
30502SOL    HW293514   0.990   5.217  10.432  1.3600  2.4230  0.3153
30503SOL     OW93515   9.388   8.007  10.565 -0.2993  0.6231  0.2380
30503SOL    HW193516   9.305   7.961  10.569  0.4446 -0.6826  1.8130
30503SOL    HW293517   9.367   8.096  10.595 -0.9129 -0.0782  2.0045
30504SOL     OW93518   3.021   2.364  10.772  0.8058 -0.0431  0.0860
30504SOL    HW193519   2.991   2.289  10.722 -0.0112  0.5730 -0.3767
30504SOL    HW293520   3.077   2.327  10.840 -1.9764 -1.4464  1.8378
30505SOL     OW93521   9.572   7.233   4.013  0.7084 -0.0039  0.0379
30505SOL    HW193522   9.664   7.243   3.988  1.1943 -0.8723  1.4274
30505SOL    HW293523   9.555   7.306   4.072  0.5193  0.0918 -0.1302
30506SOL     OW93524   1.106   0.702   4.089  0.3873 -0.4087  0.1246
30506SOL    HW193525   1.150   0.786   4.099 -1.0146  0.2037  1.8702
30506SOL    HW293526   1.082   0.677   4.179 -1.2193 -1.5352 -0.5611
30507SOL     OW93527   9.292   5.303   0.295 -0.2034  0.1904 -0.0277
30507SOL    HW193528   9.333   5.364   0.233  0.8711 -0.6953 -0.2214
30507SOL    HW293529   9.310   5.342   0.381 -2.2887  1.7849 -0.2362
30508SOL     OW93530   9.101   3.526   5.953 -0.2196 -0.3213  0.2598
30508SOL    HW193531   9.156   3.591   5.997 -0.4041 -0.3640  0.5533
30508SOL    HW293532   9.152   3.500   5.876  0.0404 -0.1412  0.3701
30509SOL     OW93533   5.201   8.182   8.988  0.4276  0.0013  0.7791
30509SOL    HW193534   5.175   8.119   8.921  1.6208 -0.4839  0.7440
30509SOL    HW293535   5.241   8.254   8.939  2.6601 -1.0085  0.9685
30510SOL     OW93536   6.347   1.236   3.746  0.6487  0.4025  0.3528
30510SOL    HW193537   6.437   1.221   3.773  0.0266 -0.1058  2.3213
30510SOL    HW293538   6.294   1.196   3.816 -1.0902  1.2594 -0.4138
30511SOL     OW93539  11.091  11.017   1.199 -0.0712  0.4854 -0.0495
30511SOL    HW193540  11.176  10.977   1.182 -0.5750  0.2365 -2.2682
30511SOL    HW293541  11.083  11.016   1.294  0.5778 -3.3329  0.1151
30512SOL     OW93542   4.030   1.834   6.274  0.0429  0.1095 -0.1782
30512SOL    HW193543   4.103   1.807   6.330 -0.8105 -0.7541  0.5406
30512SOL    HW293544   4.045   1.928   6.259  0.8086  0.1434  0.7008
30513SOL     OW93545   1.295   4.947   3.286 -0.3822 -0.2634 -0.1689
30513SOL    HW193546   1.335   5.008   3.348 -2.7815  0.6341  0.6458
30513SOL    HW293547   1.236   4.894   3.340 -1.7442 -0.1783 -1.4896
30514SOL     OW93548   8.689   9.706   0.937  0.2270 -0.5312  0.3931
30514SOL    HW193549   8.746   9.782   0.939  2.2899 -1.9944  0.2559
30514SOL    HW293550   8.656   9.698   1.027  1.1115 -0.2714  0.7491
30515SOL     OW93551   1.107   1.132   7.161 -0.0564  0.4009 -0.0559
30515SOL    HW193552   1.088   1.155   7.070 -1.1181 -0.1660  0.0149
30515SOL    HW293553   1.031   1.083   7.190 -0.2087  1.4974  1.4895
30516SOL     OW93554   5.474   5.307   8.888 -0.2531 -0.1999 -0.2583
30516SOL    HW193555   5.569   5.297   8.890 -0.1464  0.7549  1.0494
30516SOL    HW293556   5.440   5.228   8.930  0.1120  0.5352  1.5100
30517SOL     OW93557   0.809   1.766  10.078  0.7719 -0.1555  0.0031
30517SOL    HW193558   0.879   1.831  10.077 -0.9860  1.8368 -0.0356
30517SOL    HW293559   0.796   1.743   9.986  0.4565  0.5274 -0.1269
30518SOL     OW93560   0.995   8.859   2.460 -0.2865 -0.9235 -0.1601
30518SOL    HW193561   1.069   8.810   2.495  1.9578  1.6925 -0.8256
30518SOL    HW293562   0.932   8.862   2.531  1.5684 -0.7513  1.5792
30519SOL     OW93563   5.909   9.556   2.699  0.6689  0.4591  0.2646
30519SOL    HW193564   5.972   9.544   2.628  2.9107  2.4828  1.7286
30519SOL    HW293565   5.855   9.630   2.671  1.1612  0.8720  0.3894
30520SOL     OW93566   1.847   4.953   3.041 -0.6398 -0.3598  0.1007
30520SOL    HW193567   1.754   4.947   3.064 -0.5871  0.6606  0.6251
30520SOL    HW293568   1.890   4.976   3.123 -0.0604  0.2703 -0.3726
30521SOL     OW93569   9.981   5.662   8.261  0.6156  0.6993  0.0132
30521SOL    HW193570  10.050   5.663   8.328  1.4338 -1.4527 -0.7305
30521SOL    HW293571  10.027   5.679   8.179  0.2136 -0.3898 -0.4481
30522SOL     OW93572   2.283  10.571   0.746 -0.6254 -0.8119 -0.1409
30522SOL    HW193573   2.361  10.548   0.697 -0.7726  0.3410 -0.9503
30522SOL    HW293574   2.248  10.648   0.701 -1.1708 -0.1618  1.3414
30523SOL     OW93575   5.832   0.392  10.402  0.1557  0.0870 -0.3070
30523SOL    HW193576   5.858   0.423  10.315 -0.0722  0.3249 -0.2894
30523SOL    HW293577   5.915   0.378  10.448  0.2724  0.1440 -0.4977
30524SOL     OW93578   0.547   8.160   6.454 -0.6382  0.3214 -0.2513
30524SOL    HW193579   0.556   8.232   6.391  0.9621  0.4770  0.1253
30524SOL    HW293580   0.458   8.171   6.490 -1.2817  0.7040 -1.8669
30525SOL     OW93581   6.835   0.806   3.651  0.1042  0.4055 -0.0733
30525SOL    HW193582   6.909   0.748   3.666  1.2543  1.3195 -1.8571
30525SOL    HW293583   6.873   0.894   3.646 -1.4169  1.1981  1.2631
30526SOL     OW93584   3.553   1.273   2.675  0.0231  0.1643  0.7647
30526SOL    HW193585   3.559   1.225   2.758 -0.1144 -0.4030  0.4503
30526SOL    HW293586   3.552   1.205   2.608 -0.6975  0.5794  0.3388
30527SOL     OW93587   8.585   3.980   3.543  0.1279 -0.3314  0.0928
30527SOL    HW193588   8.647   4.035   3.590 -1.1753  1.7326 -0.4608
30527SOL    HW293589   8.638   3.932   3.479  1.5677 -1.2941  1.9162
30528SOL     OW93590   0.971  10.785   3.703 -0.4550 -0.1222  0.1602
30528SOL    HW193591   1.065  10.782   3.717 -0.2972  1.4466 -0.3524
30528SOL    HW293592   0.935  10.808   3.789  0.0403  3.5847 -0.4409
30529SOL     OW93593   8.504   8.499   3.017 -0.2838  0.4160  0.0453
30529SOL    HW193594   8.499   8.454   2.933 -0.8583  1.7009 -0.6492
30529SOL    HW293595   8.597   8.513   3.032 -0.0961 -1.0469  0.3233
30530SOL     OW93596   7.057   6.569   9.605  0.6279  0.6268  0.2363
30530SOL    HW193597   7.109   6.641   9.639 -0.9998  1.1127  1.8346
30530SOL    HW293598   7.063   6.500   9.671  1.0596 -0.1967 -0.6321
30531SOL     OW93599   7.363   0.072  10.216 -0.1673 -0.3007  0.1892
30531SOL    HW193600   7.323   0.042  10.298 -0.7214 -2.9549 -0.9527
30531SOL    HW293601   7.303   0.042  10.148  2.4288 -2.1581 -1.4468
30532SOL     OW93602  10.614   9.891   9.721  0.4107 -0.1098  0.2349
30532SOL    HW193603  10.565   9.864   9.644 -0.1578  1.3659  0.0439
30532SOL    HW293604  10.548   9.924   9.782  0.4598 -3.8875  2.6624
30533SOL     OW93605   6.804   4.886   1.680 -0.0793  0.0550 -0.3217
30533SOL    HW193606   6.830   4.911   1.591  1.4535 -1.8052 -0.4526
30533SOL    HW293607   6.864   4.934   1.737 -0.9352  1.0956 -0.2656
30534SOL     OW93608   8.798  11.003   1.627 -0.0089  0.3387 -0.1448
30534SOL    HW193609   8.820  10.991   1.719 -1.5167  0.1449  0.2116
30534SOL    HW293610   8.878  11.039   1.588  1.9954 -3.0436  0.4159
30535SOL     OW93611   7.414  11.128   1.260 -0.8588  1.0417 -0.1698
30535SOL    HW193612   7.441  11.178   1.338  1.3361 -1.3569  0.7543
30535SOL    HW293613   7.438  11.185   1.187  2.7749  1.0192  0.7912
30536SOL     OW93614   0.473   9.284   8.482  0.1456 -0.3095 -0.4936
30536SOL    HW193615   0.507   9.198   8.457 -0.4843 -0.5926 -0.3873
30536SOL    HW293616   0.378   9.277   8.468 -0.1539 -0.2433  1.2939
30537SOL     OW93617   3.094   2.380   6.017  0.7567 -0.0999 -0.5195
30537SOL    HW193618   3.096   2.398   6.111 -0.1687  0.4011 -0.5871
30537SOL    HW293619   3.003   2.359   5.998  1.2089 -1.7069 -1.0482
30538SOL     OW93620   8.733   6.587   2.940 -0.0280  0.0900 -0.3910
30538SOL    HW193621   8.694   6.670   2.968 -0.0425  0.1241 -0.5132
30538SOL    HW293622   8.664   6.544   2.890 -0.1597 -0.1774  0.0163
30539SOL     OW93623   7.597   2.323   5.437  0.6664  0.1730  0.7430
30539SOL    HW193624   7.511   2.329   5.479  0.6308  0.6204  0.6117
30539SOL    HW293625   7.589   2.378   5.359  0.3038 -1.6947 -0.5887
30540SOL     OW93626   3.566   1.368   3.342 -0.6738  0.8133  0.5048
30540SOL    HW193627   3.651   1.368   3.386 -0.1884 -0.9873 -0.3380
30540SOL    HW293628   3.545   1.461   3.331 -0.3423  1.3490  3.5228
30541SOL     OW93629   7.765  10.192   9.559  0.1751  0.2068 -0.2820
30541SOL    HW193630   7.764  10.151   9.646  1.3589 -0.4863 -0.5768
30541SOL    HW293631   7.858  10.200   9.537  0.0652  3.4620 -0.0864
30542SOL     OW93632   7.726   7.394   3.191  0.3283 -0.5565 -0.2201
30542SOL    HW193633   7.756   7.324   3.250  0.2250 -0.5315 -0.1377
30542SOL    HW293634   7.696   7.464   3.250 -0.3921 -0.7920 -0.2944
30543SOL     OW93635   0.819   2.441   1.575  0.0772 -0.3199 -0.6039
30543SOL    HW193636   0.731   2.457   1.541 -1.0092 -0.0201  2.1331
30543SOL    HW293637   0.870   2.419   1.497 -1.8224  1.8140 -2.6226
30544SOL     OW93638   8.511   1.648   0.530 -0.2223  0.2873 -0.8527
30544SOL    HW193639   8.508   1.625   0.623 -0.9372 -2.0949 -1.3735
30544SOL    HW293640   8.424   1.684   0.512 -0.2012  0.4353 -0.6595
30545SOL     OW93641  10.577   7.899   7.893 -0.2541  0.2109  0.1132
30545SOL    HW193642  10.653   7.957   7.899 -1.3544  1.8084 -0.5487
30545SOL    HW293643  10.510   7.953   7.851 -1.9792 -0.9135  1.3036
30546SOL     OW93644   1.131   1.705   1.899  0.4580 -0.2648  0.2441
30546SOL    HW193645   1.123   1.798   1.877 -2.0343 -0.6275 -0.7316
30546SOL    HW293646   1.113   1.660   1.816  0.4739 -1.6169  0.9588
30547SOL     OW93647   0.384   7.560   1.322 -0.9489 -0.5657  0.5538
30547SOL    HW193648   0.418   7.590   1.407 -2.1566 -1.1837  1.2854
30547SOL    HW293649   0.289   7.563   1.332 -1.1126 -0.8803 -0.7108
30548SOL     OW93650   3.168   7.463   5.908 -0.0719 -0.2177 -0.2778
30548SOL    HW193651   3.099   7.461   5.975 -0.7438 -0.2772 -0.9495
30548SOL    HW293652   3.123   7.494   5.829  1.5637  4.1238  0.2352
30549SOL     OW93653   9.437   7.456  11.055 -0.8517 -0.1414  0.1070
30549SOL    HW193654   9.361   7.513  11.068 -0.4866  0.9716 -2.1128
30549SOL    HW293655   9.495   7.475  11.129 -1.2302  1.6184 -0.0105
30550SOL     OW93656   8.894   7.493   8.476 -0.6067  0.5770 -0.0762
30550SOL    HW193657   8.806   7.512   8.507 -0.9220 -1.1362  0.1974
30550SOL    HW293658   8.929   7.431   8.540 -0.1753 -0.7380 -1.5177
30551SOL     OW93659  10.811   9.033  11.065  0.3769  0.2730  0.3340
30551SOL    HW193660  10.848   9.053  10.980 -0.6217 -0.5267 -0.3098
30551SOL    HW293661  10.737   9.094  11.074  1.0356  0.9961  1.0580
30552SOL     OW93662   1.017   8.216   4.611 -0.3940 -0.5611 -0.5258
30552SOL    HW193663   0.971   8.296   4.586  2.0632  0.3424 -2.6975
30552SOL    HW293664   1.110   8.240   4.606  0.4046 -3.1486  0.2655
30553SOL     OW93665   4.289   6.291   5.551  0.0210  0.4890  0.0466
30553SOL    HW193666   4.381   6.311   5.569 -0.1558  1.1254  0.2576
30553SOL    HW293667   4.291   6.243   5.468  0.7969 -1.9345  1.3508
30554SOL     OW93668   4.136  11.134   6.708 -0.5017 -0.7949 -0.2976
30554SOL    HW193669   4.193  11.094   6.773 -0.3441  1.2679  0.9388
30554SOL    HW293670   4.095  11.207   6.754 -0.5093  0.6607 -2.4622
30555SOL     OW93671  10.024   8.567   8.343 -0.0705 -0.3898 -0.2687
30555SOL    HW193672  10.085   8.498   8.317  0.6344 -0.5725  1.6724
30555SOL    HW293673  10.052   8.644   8.294  0.5328 -0.9408 -0.8107
30556SOL     OW93674   5.165   2.153   3.579  0.3829 -0.0259 -0.1898
30556SOL    HW193675   5.165   2.091   3.505  2.8791  1.0226 -1.1840
30556SOL    HW293676   5.240   2.126   3.632 -0.1889  0.4777  0.8963
30557SOL     OW93677   5.870   4.723   8.091  0.2271 -0.1180  0.3125
30557SOL    HW193678   5.867   4.685   8.179  1.1984  2.5707  1.6349
30557SOL    HW293679   5.858   4.817   8.106 -0.1762  0.3621 -2.5192
30558SOL     OW93680   9.524   1.063   4.560  0.1477 -0.0131  0.2101
30558SOL    HW193681   9.579   1.119   4.615  2.7781 -2.0819 -0.0709
30558SOL    HW293682   9.500   1.118   4.486 -1.0061  1.9443  1.9429
30559SOL     OW93683   1.477   2.512   6.322  0.9021  0.2361 -0.0753
30559SOL    HW193684   1.493   2.589   6.377  2.5034  0.4884 -0.8433
30559SOL    HW293685   1.559   2.499   6.274  0.9055 -2.3690  0.5196
30560SOL     OW93686   8.400   4.631   4.539  0.2503 -0.0908 -0.3564
30560SOL    HW193687   8.325   4.668   4.494  0.9913 -0.6165 -2.0910
30560SOL    HW293688   8.475   4.650   4.482  0.8636 -3.0269 -0.6899
30561SOL     OW93689   4.538   2.698   7.062 -0.2142  0.4646 -0.0302
30561SOL    HW193690   4.521   2.751   7.139  0.5963  2.2487 -1.0188
30561SOL    HW293691   4.633   2.697   7.054 -0.2986  0.6161 -1.2155
30562SOL     OW93692   1.924  10.146  10.250 -0.1845 -0.0589  0.2403
30562SOL    HW193693   1.943  10.240  10.260 -0.1642  0.0511 -0.7412
30562SOL    HW293694   1.831  10.138  10.271  0.0536  0.0028  1.3705
30563SOL     OW93695   0.848   3.831   8.163  0.2916 -0.2823 -0.6012
30563SOL    HW193696   0.847   3.753   8.219 -0.2337 -0.2556 -0.5666
30563SOL    HW293697   0.871   3.798   8.076  3.0792 -0.0752 -0.0326
30564SOL     OW93698  10.969   3.632   3.731 -0.5632 -0.7342 -0.2377
30564SOL    HW193699  10.893   3.653   3.677  0.5502  0.6697 -1.3402
30564SOL    HW293700  11.010   3.557   3.687 -0.0869 -0.0798 -0.9256
30565SOL     OW93701   7.370   5.208   5.892  0.1792  0.0654 -0.1888
30565SOL    HW193702   7.408   5.131   5.850 -0.4980  0.0502 -0.7858
30565SOL    HW293703   7.418   5.282   5.854 -2.8568  0.3699 -3.9016
30566SOL     OW93704  10.822   3.793   0.504 -0.4967 -0.6444  0.1790
30566SOL    HW193705  10.791   3.784   0.414 -0.5031 -0.6086  0.1776
30566SOL    HW293706  10.861   3.708   0.525 -0.8805 -0.7957  0.2906
30567SOL     OW93707   1.167   7.247   6.184 -0.4528 -0.4105  0.7993
30567SOL    HW193708   1.076   7.273   6.174 -0.4184 -0.7571 -0.7930
30567SOL    HW293709   1.213   7.328   6.208 -0.9106  0.2047 -0.3215
30568SOL     OW93710   1.983   9.371   4.046 -0.8104  0.0285 -0.0331
30568SOL    HW193711   1.913   9.381   4.110 -0.4421  0.3750  0.3304
30568SOL    HW293712   2.054   9.329   4.095  0.2090  2.0878  0.3694
30569SOL     OW93713   1.201   4.532   1.423  0.5190 -0.7152  0.1463
30569SOL    HW193714   1.118   4.491   1.447  1.3636 -1.4581  2.0348
30569SOL    HW293715   1.176   4.617   1.386 -1.0649 -0.5212  1.5327
30570SOL     OW93716   0.911  10.029   6.586  0.4370 -0.6900 -0.2427
30570SOL    HW193717   0.933  10.114   6.623 -0.3104  0.4050 -2.1186
30570SOL    HW293718   0.841   9.996   6.642 -0.9423  1.0802 -0.8247
30571SOL     OW93719   7.477   6.831   3.027 -0.4623 -0.5847  0.1293
30571SOL    HW193720   7.415   6.900   3.051 -0.1651  0.6582 -2.2656
30571SOL    HW293721   7.543   6.833   3.096 -1.4883  0.1861  1.1315
30572SOL     OW93722   4.920  10.834   2.022  0.2780 -0.2259 -0.3892
30572SOL    HW193723   4.951  10.923   2.041 -0.2962  0.5978 -3.0040
30572SOL    HW293724   4.974  10.779   2.078  1.7333  1.6470  0.1862
30573SOL     OW93725   2.828   6.743   8.532  0.6220 -0.0610 -0.2947
30573SOL    HW193726   2.791   6.711   8.450  1.9071 -0.8247 -0.6135
30573SOL    HW293727   2.879   6.820   8.506  1.4065 -0.5682 -0.3282
30574SOL     OW93728   6.995   5.058  10.263 -1.6436  0.3200  0.0529
30574SOL    HW193729   7.076   5.067  10.214 -1.4761 -1.5150 -0.1068
30574SOL    HW293730   7.005   4.975  10.311 -3.4032  0.0302  0.0090
30575SOL     OW93731   1.981   4.152  10.332  0.3265  0.5799 -0.3123
30575SOL    HW193732   2.062   4.197  10.310 -0.6427  2.0757 -1.0586
30575SOL    HW293733   2.007   4.061  10.348  2.3020  1.2912  0.8027
30576SOL     OW93734   7.025   0.304   4.071 -0.1375  0.0510  0.1457
30576SOL    HW193735   7.024   0.221   4.117 -2.8390 -1.0556 -1.6332
30576SOL    HW293736   6.986   0.366   4.132  0.1630 -0.3941  0.8048
30577SOL     OW93737   7.284   8.431   6.788 -0.1383 -0.1081  0.0637
30577SOL    HW193738   7.238   8.349   6.805 -0.4366  0.0633  0.0872
30577SOL    HW293739   7.323   8.418   6.701  1.8778 -1.2020  1.0482
30578SOL     OW93740   2.156   3.549   6.461 -0.1771  0.5182 -0.0314
30578SOL    HW193741   2.188   3.538   6.551 -0.4333 -2.4806 -0.2164
30578SOL    HW293742   2.210   3.620   6.426 -0.1612  1.8801  2.4945
30579SOL     OW93743   1.438   0.030   8.893 -0.2293 -0.0225  0.1584
30579SOL    HW193744   1.392   0.096   8.945  1.8534  2.2498 -0.7092
30579SOL    HW293745   1.502  -0.008   8.952 -0.2546 -0.0081  0.1947
30580SOL     OW93746   3.312   7.010   6.180 -0.7066  0.2506 -0.1100
30580SOL    HW193747   3.231   7.055   6.153 -0.5320 -0.3266 -1.7168
30580SOL    HW293748   3.298   6.919   6.156  1.5921  0.5994 -3.6086
30581SOL     OW93749   1.561   5.059   9.133  0.3358  0.2162  0.4811
30581SOL    HW193750   1.584   5.047   9.225 -1.2320 -3.1398  0.5744
30581SOL    HW293751   1.473   5.022   9.125 -0.0683  1.5370 -2.1639
30582SOL     OW93752   6.338   4.551   1.006  0.0686  0.0791 -0.0332
30582SOL    HW193753   6.388   4.519   1.081  1.3315  1.9436 -0.0181
30582SOL    HW293754   6.298   4.472   0.968  1.4405 -1.2190  1.1144
30583SOL     OW93755   8.413   6.272   6.716 -0.4274  0.3230  0.1888
30583SOL    HW193756   8.366   6.292   6.796 -1.1309 -0.7956  0.0745
30583SOL    HW293757   8.345   6.264   6.649  0.2527  3.0382 -0.9835
30584SOL     OW93758   5.278   3.042   9.765  0.0589  0.0325  0.0291
30584SOL    HW193759   5.297   2.974   9.830 -0.5255  0.5849  0.7942
30584SOL    HW293760   5.303   3.003   9.681  1.5733 -0.4027  0.6572
30585SOL     OW93761   4.193   2.206   0.263 -0.6312  0.6896 -0.3317
30585SOL    HW193762   4.129   2.142   0.295 -0.1662  0.3541 -0.0592
30585SOL    HW293763   4.165   2.289   0.302 -1.5203  0.7557 -1.0774
30586SOL     OW93764   8.974   5.092   1.142 -0.4213 -0.6708  0.0574
30586SOL    HW193765   8.955   5.043   1.222  0.3482 -0.8982  0.1102
30586SOL    HW293766   8.912   5.164   1.143  0.8989  0.5264  1.9140
30587SOL     OW93767   3.928   0.052   4.094  0.7400 -0.5884 -0.0879
30587SOL    HW193768   3.877   0.115   4.145 -0.6432 -1.1851 -0.6856
30587SOL    HW293769   3.971  -0.003   4.159 -0.4185 -0.8818  0.4536
30588SOL     OW93770   9.650  11.278   0.984 -0.1340 -0.0769  0.2121
30588SOL    HW193771   9.567  11.257   0.942  0.8777  0.2707 -2.1194
30588SOL    HW293772   9.705  11.313   0.914  1.2934  1.7423  2.0895
30589SOL     OW93773   6.713   0.291   4.762  0.1366  0.9775  0.1037
30589SOL    HW193774   6.741   0.383   4.758 -1.1874  1.5133  1.7367
30589SOL    HW293775   6.617   0.296   4.767  0.0315 -0.5204 -0.0352
30590SOL     OW93776  10.967  10.390   6.689  0.9878 -0.3186 -0.8115
30590SOL    HW193777  10.931  10.393   6.778  0.6832 -0.4619 -0.9289
30590SOL    HW293778  11.055  10.355   6.700  0.1887 -2.4604 -0.7991
30591SOL     OW93779   8.597   2.456  10.706 -0.1009 -0.0023 -0.1306
30591SOL    HW193780   8.598   2.549  10.730  0.4645  0.0406 -0.3151
30591SOL    HW293781   8.599   2.410  10.790  2.6477  0.1438 -0.0371
30592SOL     OW93782   4.043   6.955  10.025  0.3332 -0.2840  0.6036
30592SOL    HW193783   4.108   6.979   9.960 -0.5724  0.1612 -0.1665
30592SOL    HW293784   4.034   7.032  10.080 -0.3711  0.0952 -0.0133
30593SOL     OW93785   9.941   0.519   0.050 -0.4075 -0.8040 -0.0721
30593SOL    HW193786   9.899   0.594   0.009 -0.7037  0.4953  2.4160
30593SOL    HW293787  10.032   0.547   0.065 -0.0673 -1.5832 -0.6161
30594SOL     OW93788  10.731   1.561   1.065 -0.0892 -0.1407 -0.1862
30594SOL    HW193789  10.654   1.596   1.109  0.9523 -0.9717  2.5182
30594SOL    HW293790  10.799   1.627   1.079  0.2179 -0.3112 -0.8127
30595SOL     OW93791   5.303   5.506   4.628 -0.4914 -0.7653 -0.3038
30595SOL    HW193792   5.251   5.520   4.549  0.0502 -1.3663 -0.7756
30595SOL    HW293793   5.318   5.594   4.663 -1.9260 -0.5887 -0.0837
30596SOL     OW93794   8.217   1.294   1.802  0.5651 -0.6622 -0.1418
30596SOL    HW193795   8.233   1.350   1.725 -0.9544  0.1336  0.0714
30596SOL    HW293796   8.153   1.230   1.772  0.3403 -0.6558  0.3084
30597SOL     OW93797   9.213   1.127   7.968 -0.5740 -0.0262 -0.3756
30597SOL    HW193798   9.198   1.086   8.053  0.9446  0.0270 -0.0567
30597SOL    HW293799   9.237   1.218   7.988 -0.6163  0.1050 -0.8889
30598SOL     OW93800   9.213   2.998   1.099  0.0458 -0.6232  0.1933
30598SOL    HW193801   9.232   2.926   1.159 -0.2928  0.1016  1.1995
30598SOL    HW293802   9.298   3.023   1.063  0.1018 -1.8797 -0.6095
30599SOL     OW93803   2.467   5.944   5.665 -0.3182  0.4429 -0.5665
30599SOL    HW193804   2.520   6.023   5.655  1.9034 -0.4636  2.5260
30599SOL    HW293805   2.530   5.877   5.695 -2.7043 -1.5763  0.2643
30600SOL     OW93806   2.673   9.153   9.743 -0.1408 -0.7440  0.3192
30600SOL    HW193807   2.603   9.093   9.717 -1.6562  0.9108  0.4295
30600SOL    HW293808   2.677   9.218   9.674 -0.1130  0.3153  1.2795
30601SOL     OW93809   1.411   5.042   6.339  0.0348 -0.0692  0.4897
30601SOL    HW193810   1.404   5.089   6.256  3.2072  0.2898  0.3193
30601SOL    HW293811   1.417   5.112   6.405 -0.1786 -0.3392  0.8036
30602SOL     OW93812   2.146   1.913   7.185 -0.5779 -0.7072 -0.1979
30602SOL    HW193813   2.077   1.975   7.164 -0.8939 -0.3806  1.6499
30602SOL    HW293814   2.154   1.858   7.107 -0.2024  1.6785 -1.9570
30603SOL     OW93815   8.590   9.794   4.297  0.4561 -0.8186 -0.3841
30603SOL    HW193816   8.538   9.715   4.283 -1.7549  0.4602  0.2354
30603SOL    HW293817   8.628   9.784   4.384 -0.4057 -0.8882 -0.0151
30604SOL     OW93818   1.491   9.574   7.854 -0.9337  0.2808 -0.1112
30604SOL    HW193819   1.453   9.656   7.821 -1.8275  1.2729  3.0483
30604SOL    HW293820   1.452   9.563   7.941 -1.9584 -4.3191 -0.9221
30605SOL     OW93821   6.209   8.582   2.159 -0.0197 -0.0429  0.0664
30605SOL    HW193822   6.217   8.651   2.224  1.1912 -0.4986  0.4149
30605SOL    HW293823   6.279   8.521   2.179 -0.9009 -1.2486 -0.4056
30606SOL     OW93824   6.769   1.037   1.483  0.4402 -0.7640  0.8651
30606SOL    HW193825   6.711   1.066   1.413  1.4871 -1.2629 -0.2470
30606SOL    HW293826   6.854   1.026   1.440  1.1262 -0.9861  2.2441
30607SOL     OW93827   9.401   9.384  10.018  0.0569 -0.4771  0.0636
30607SOL    HW193828   9.432   9.462  10.064 -5.5500  2.9901 -1.0943
30607SOL    HW293829   9.429   9.398   9.927  0.4028 -0.6794  0.1377
30608SOL     OW93830  10.138   4.648   5.116  0.0242  1.0369 -0.4569
30608SOL    HW193831  10.168   4.687   5.199  0.7594  2.2377 -1.2496
30608SOL    HW293832  10.153   4.717   5.051 -4.2634  1.7069 -1.0345
30609SOL     OW93833   4.549   0.352   0.297 -0.6353  0.4671  0.2744
30609SOL    HW193834   4.491   0.389   0.232  0.8615 -0.1990 -1.5291
30609SOL    HW293835   4.632   0.340   0.251  0.6798  0.5456  2.4800
30610SOL     OW93836   1.953   2.133   8.886  0.0984 -0.5291  0.3449
30610SOL    HW193837   1.882   2.174   8.837  0.1331  0.2165  0.8996
30610SOL    HW293838   2.000   2.081   8.821 -0.7399 -0.7614 -0.0983
30611SOL     OW93839   7.172   2.239   2.751 -0.4196 -0.0026  0.4137
30611SOL    HW193840   7.131   2.181   2.815 -0.2494 -1.4243 -0.6915
30611SOL    HW293841   7.182   2.322   2.796 -2.1678 -0.3574  1.5474
30612SOL     OW93842   2.790   1.177  10.937  0.2095  0.2899 -0.7311
30612SOL    HW193843   2.877   1.149  10.964  0.5013  0.6744 -1.2559
30612SOL    HW293844   2.779   1.264  10.976 -0.1297  0.0501 -0.2800
30613SOL     OW93845  10.489   4.356   6.697  0.3220  0.0350  0.3318
30613SOL    HW193846  10.566   4.299   6.693  1.5598  1.7217 -1.6109
30613SOL    HW293847  10.521   4.442   6.670 -1.8241  1.3236  1.5625
30614SOL     OW93848   6.322   8.112   7.109 -0.7408  0.0816  0.3080
30614SOL    HW193849   6.328   8.039   7.047 -1.6938 -1.0057  1.4522
30614SOL    HW293850   6.232   8.143   7.101 -1.5869 -1.4959  2.6246
30615SOL     OW93851   2.515   2.576   5.729 -0.0478  0.0648 -0.3813
30615SOL    HW193852   2.489   2.642   5.793  0.5307  0.3056 -0.3840
30615SOL    HW293853   2.611   2.576   5.732  0.0129  0.4011 -1.5437
30616SOL     OW93854  10.925   3.557   3.009 -0.5697 -0.0913 -0.2923
30616SOL    HW193855  10.945   3.499   2.935  0.2354 -0.4355  0.1848
30616SOL    HW293856  10.849   3.517   3.051 -0.3453 -0.5224 -0.2837
30617SOL     OW93857  11.080  10.279   9.217 -0.2150  0.0690  0.3848
30617SOL    HW193858  11.056  10.332   9.141 -0.7842 -2.1922 -1.1080
30617SOL    HW293859  10.999  10.275   9.269 -0.5376 -0.3414 -0.1378
30618SOL     OW93860   4.796  11.273   2.743  0.7829 -0.1539 -0.2689
30618SOL    HW193861   4.799  11.361   2.706 -0.1420 -0.5360 -1.2992
30618SOL    HW293862   4.826  11.217   2.672 -2.9988 -1.1375 -1.3357
30619SOL     OW93863   1.445   6.642   0.212  0.5293 -0.2014  0.2361
30619SOL    HW193864   1.538   6.645   0.190  0.5014 -2.9460 -0.6464
30619SOL    HW293865   1.442   6.599   0.298  0.0842  0.0009  0.3256
30620SOL     OW93866   7.731  10.684   5.212 -0.7002 -0.0673 -0.2375
30620SOL    HW193867   7.649  10.636   5.198 -0.4670 -0.3746 -0.5555
30620SOL    HW293868   7.796  10.636   5.161 -0.1228 -0.3837  0.7620
30621SOL     OW93869   1.909   2.508   2.156  0.4290 -0.1628  0.3308
30621SOL    HW193870   1.918   2.601   2.179  0.0255 -0.0270 -0.0469
30621SOL    HW293871   1.892   2.464   2.239  1.4224 -0.0158  0.6323
30622SOL     OW93872   0.173  10.454   0.323 -0.0331 -0.5076  0.4047
30622SOL    HW193873   0.083  10.422   0.312 -1.0966  2.4100 -0.3149
30622SOL    HW293874   0.163  10.549   0.332  2.8351 -0.2787  2.5375
30623SOL     OW93875   7.810  10.368  10.348  0.9085  0.9634  0.2966
30623SOL    HW193876   7.797  10.291  10.403 -0.7919 -2.1888 -3.9846
30623SOL    HW293877   7.888  10.347  10.296  0.2475  1.9520 -1.1491
30624SOL     OW93878  11.139   7.257   4.290 -0.4522 -0.1910  0.4387
30624SOL    HW193879  11.079   7.295   4.354 -2.0256  0.7300 -1.4617
30624SOL    HW293880  11.120   7.304   4.209  1.0587 -1.6772 -0.8541
30625SOL     OW93881   9.247   5.940   0.983  0.1689  0.5376  0.1714
30625SOL    HW193882   9.263   5.998   0.909  1.0347 -1.0640 -0.9374
30625SOL    HW293883   9.306   5.867   0.970 -1.1254 -0.7810  1.3413
30626SOL     OW93884   6.551   0.231  10.977 -0.6535  0.7574 -0.7219
30626SOL    HW193885   6.639   0.261  11.000 -1.0684 -0.2677  2.7109
30626SOL    HW293886   6.556   0.136  10.985 -2.2184  0.7226  0.2604
30627SOL     OW93887   1.916   3.348   7.174 -0.2264 -0.2201 -0.0213
30627SOL    HW193888   1.956   3.261   7.175  1.9155  0.6902  0.3057
30627SOL    HW293889   1.947   3.389   7.255 -2.1395  0.4885  0.4100
30628SOL     OW93890   7.670   4.106   9.966  0.5268 -0.0661  0.4133
30628SOL    HW193891   7.591   4.113   9.913  0.5832  1.3680  0.4874
30628SOL    HW293892   7.742   4.115   9.904  0.5958  1.1599  0.6550
30629SOL     OW93893   8.119  10.483   7.470 -0.7947 -0.0455 -0.3002
30629SOL    HW193894   8.050  10.518   7.413  0.8984 -0.8034 -3.0417
30629SOL    HW293895   8.142  10.555   7.528 -1.8312  1.2074 -1.3904
30630SOL     OW93896   6.356   1.739   6.501 -0.0841  1.0114  0.7082
30630SOL    HW193897   6.373   1.649   6.530  1.7423  0.5144 -1.5984
30630SOL    HW293898   6.319   1.782   6.578  0.3789 -1.3188  2.3437
30631SOL     OW93899   7.616   1.306   5.147 -0.2916  0.0103 -0.1076
30631SOL    HW193900   7.685   1.262   5.097 -1.8238 -0.3927 -2.0125
30631SOL    HW293901   7.628   1.275   5.236  1.3759 -0.8090 -0.5677
30632SOL     OW93902   2.867  10.667   3.154  0.1115  0.0091  0.1662
30632SOL    HW193903   2.774  10.669   3.133  0.6213 -0.2795 -2.5360
30632SOL    HW293904   2.892  10.575   3.141  1.1133  0.4324 -1.0738
30633SOL     OW93905   9.938   6.472   9.725  0.1662  0.0127 -0.1325
30633SOL    HW193906   9.939   6.566   9.744  2.5651  0.1975 -0.8326
30633SOL    HW293907   9.944   6.467   9.629  0.5063 -0.8442 -0.0778
30634SOL     OW93908   4.610   2.589   2.458  0.2045  0.2262 -0.0629
30634SOL    HW193909   4.689   2.626   2.498  0.2280 -0.2933  0.3921
30634SOL    HW293910   4.539   2.618   2.515  0.1825 -0.0981  0.0803
30635SOL     OW93911   7.675   2.814   0.360  0.2232  0.4571 -0.6742
30635SOL    HW193912   7.689   2.769   0.443 -2.2483  0.8751  0.0591
30635SOL    HW293913   7.693   2.906   0.378 -0.5629  0.5867 -0.4893
30636SOL     OW93914   5.503   3.863   5.171  0.2901  0.5626  0.1725
30636SOL    HW193915   5.451   3.937   5.139 -1.4193 -0.6233  0.0291
30636SOL    HW293916   5.490   3.795   5.104 -2.1471 -1.4781  2.5006
30637SOL     OW93917   2.574   6.881   8.259 -0.9449  0.0192  0.3408
30637SOL    HW193918   2.530   6.941   8.198 -0.2107 -0.2181 -0.4439
30637SOL    HW293919   2.666   6.883   8.233 -1.2451 -3.5732 -1.6746
30638SOL     OW93920   4.489   7.607   3.280 -0.1188 -0.6619 -0.7798
30638SOL    HW193921   4.438   7.558   3.216  1.4656 -1.5132 -1.4520
30638SOL    HW293922   4.558   7.546   3.307  1.4403  0.9178 -1.0361
30639SOL     OW93923   2.734   4.426   3.797 -0.3237 -0.0906 -0.3048
30639SOL    HW193924   2.671   4.368   3.840 -1.1265  0.7852 -0.2855
30639SOL    HW293925   2.688   4.509   3.787 -0.5441 -0.5011 -3.7735
30640SOL     OW93926   0.823   4.117   6.560  0.8201 -0.2505 -0.2730
30640SOL    HW193927   0.836   4.080   6.647  0.5450 -2.3471 -1.0715
30640SOL    HW293928   0.813   4.041   6.503  1.7139  1.0570 -2.2701
30641SOL     OW93929   3.043   7.358   4.806 -0.4337  1.5130 -0.1568
30641SOL    HW193930   3.136   7.337   4.812 -0.4482  1.9159  3.8005
30641SOL    HW293931   3.032   7.392   4.717  2.6274 -0.8136 -1.6165
30642SOL     OW93932   0.976   7.502   5.160 -0.8888 -0.6136  0.2815
30642SOL    HW193933   1.025   7.583   5.175 -0.0919 -0.9133 -0.6345
30642SOL    HW293934   0.955   7.470   5.247  1.2777 -0.9138  0.7535
30643SOL     OW93935   1.723   3.748   1.657  0.3185  0.0996 -0.0521
30643SOL    HW193936   1.796   3.756   1.718 -0.6379  1.4007  1.0045
30643SOL    HW293937   1.713   3.836   1.621  0.9884 -0.6738 -2.3138
30644SOL     OW93938   3.471   3.246   1.049  0.4487  0.2964 -0.5512
30644SOL    HW193939   3.420   3.233   0.969 -0.4140 -0.3902  0.0904
30644SOL    HW293940   3.447   3.334   1.078  1.9340  1.1883 -1.8300
30645SOL     OW93941   5.612   0.746   8.538  0.0076 -0.4278  0.6139
30645SOL    HW193942   5.569   0.807   8.479 -1.5949  2.4601  4.3207
30645SOL    HW293943   5.569   0.662   8.522 -1.1107  0.4662 -1.4601
30646SOL     OW93944   7.142  10.403  10.057 -0.1737  0.4543 -0.3319
30646SOL    HW193945   7.058  10.377  10.097 -0.0220 -0.7101 -0.7118
30646SOL    HW293946   7.208  10.370  10.118  0.0212  0.3228 -0.6103
30647SOL     OW93947   3.078   9.408   6.297  0.1511  0.4614  0.2863
30647SOL    HW193948   3.037   9.473   6.241  0.7926  0.2652 -0.4256
30647SOL    HW293949   3.147   9.370   6.243  1.5229  1.0368  1.5434
30648SOL     OW93950   1.524   5.474  10.071  0.3949 -0.6094  0.2916
30648SOL    HW193951   1.441   5.481  10.118 -0.9596 -0.0024 -2.0511
30648SOL    HW293952   1.591   5.487  10.138 -1.4258  0.9706  1.9023
30649SOL     OW93953   7.737   0.681   6.543  0.4781 -0.6758  0.4307
30649SOL    HW193954   7.704   0.769   6.523 -0.0735 -0.8386  0.6119
30649SOL    HW293955   7.762   0.686   6.636  1.0296 -0.5385  0.2821
30650SOL     OW93956  10.597   3.984   5.277  0.3700  0.7271  0.3499
30650SOL    HW193957  10.562   4.046   5.340  0.7594 -1.1359  2.5112
30650SOL    HW293958  10.621   3.907   5.328 -0.2204 -1.3137 -2.1959
30651SOL     OW93959   9.201   4.078   4.748  0.1175 -0.0631  0.4638
30651SOL    HW193960   9.146   4.030   4.686 -1.0529 -0.5614  1.8432
30651SOL    HW293961   9.237   4.011   4.805 -0.5344  0.5653  1.6464
30652SOL     OW93962   2.683  11.129  10.435 -0.4978  0.0273 -0.6671
30652SOL    HW193963   2.669  11.178  10.354 -1.4617 -0.7434 -0.9843
30652SOL    HW293964   2.604  11.146  10.487 -0.4057 -0.4154 -0.3795
30653SOL     OW93965   0.880   8.512   7.259  0.1243 -0.0334  0.0159
30653SOL    HW193966   0.874   8.509   7.164  0.6579 -0.7689 -0.0012
30653SOL    HW293967   0.864   8.604   7.281  2.1275  0.5943 -0.9500
30654SOL     OW93968   5.325   7.615   3.680 -0.2967  0.4810  0.1863
30654SOL    HW193969   5.347   7.546   3.742 -1.5572  1.3118  1.6479
30654SOL    HW293970   5.340   7.696   3.729 -1.3497  1.1629 -0.5668
30655SOL     OW93971   9.496   2.189   3.284 -0.3528 -0.0759 -0.1179
30655SOL    HW193972   9.479   2.109   3.234  0.9502 -0.0632 -0.6249
30655SOL    HW293973   9.555   2.162   3.354  1.2679  0.6505 -1.1342
30656SOL     OW93974   9.415   3.223   4.174 -0.1775 -0.0002  0.0007
30656SOL    HW193975   9.442   3.196   4.261 -0.2819 -0.2558 -0.0431
30656SOL    HW293976   9.329   3.264   4.187  0.3219  1.0136  0.1671
30657SOL     OW93977   9.799   4.695   1.004  0.3057  0.6277  0.0752
30657SOL    HW193978   9.818   4.710   0.911 -0.8248  0.5138 -0.1868
30657SOL    HW293979   9.810   4.601   1.016  0.1696  0.6003 -0.0131
30658SOL     OW93980   4.108   8.071   3.910 -0.4688 -0.4962  0.3226
30658SOL    HW193981   4.145   8.139   3.854 -2.5976  0.4009 -0.1053
30658SOL    HW293982   4.069   8.008   3.849 -3.3157  0.7811  0.6706
30659SOL     OW93983   2.291  10.894   9.938  0.1598 -0.0922 -0.6269
30659SOL    HW193984   2.384  10.871   9.931  1.1176  3.1784  0.0495
30659SOL    HW293985   2.265  10.862  10.024  1.2732  0.7868  0.0669
30660SOL     OW93986   8.190   5.353   4.105  0.3039  0.7426  0.3371
30660SOL    HW193987   8.239   5.288   4.155 -0.5232  0.3246  0.6194
30660SOL    HW293988   8.253   5.424   4.090  1.5142 -0.4979 -0.8016
30661SOL     OW93989   7.401   0.034   8.805 -0.7697 -0.2224  0.1418
30661SOL    HW193990   7.443   0.035   8.719  0.4617  1.1453  0.7217
30661SOL    HW293991   7.321   0.085   8.795 -0.9141 -0.5300 -0.3016
30662SOL     OW93992   5.422   8.993   6.209 -0.0051 -0.0709  0.5280
30662SOL    HW193993   5.504   8.972   6.254  1.1312 -1.0074 -1.8181
30662SOL    HW293994   5.438   8.969   6.118 -2.3591  1.2681 -0.3149
30663SOL     OW93995   1.215   9.479   0.850  0.8536 -0.5641 -0.4877
30663SOL    HW193996   1.194   9.521   0.934 -3.9002 -1.5091 -0.9184
30663SOL    HW293997   1.248   9.392   0.875 -0.7844 -0.9483  0.4761
30664SOL     OW93998   2.516   2.780   5.167 -0.1678  0.0521  0.9455
30664SOL    HW193999   2.584   2.784   5.235 -0.3839  0.9651  1.1193
30664SOL    HW294000   2.562   2.798   5.085 -0.3929  2.0660  1.2156
30665SOL     OW94001   0.963  10.475   7.898 -0.3528 -0.1539 -0.1605
30665SOL    HW194002   0.889  10.462   7.958 -1.3216  0.4536 -1.1888
30665SOL    HW294003   0.943  10.556   7.852  0.5044 -0.4654 -1.1256
30666SOL     OW94004   8.369   6.993   7.324 -0.4410 -0.1916  0.3500
30666SOL    HW194005   8.397   6.970   7.235 -2.1019  0.9638 -0.5261
30666SOL    HW294006   8.284   6.950   7.334  0.6576 -2.1207  2.2530
30667SOL     OW94007   6.568  10.713   9.731 -0.4643 -0.4401  0.8814
30667SOL    HW194008   6.534  10.756   9.809 -1.1700 -0.9139  0.8478
30667SOL    HW294009   6.608  10.632   9.763 -2.7277 -1.7683  0.5826
30668SOL     OW94010   0.202   8.820   0.561 -0.1240 -0.2429 -0.0634
30668SOL    HW194011   0.227   8.850   0.474 -2.2029  1.0134 -0.2929
30668SOL    HW294012   0.106   8.822   0.561 -0.1954 -1.0552  1.9706
30669SOL     OW94013   0.927   3.429   0.768  0.0723  0.1193 -0.2875
30669SOL    HW194014   0.994   3.488   0.732  2.2339 -2.2625 -0.4443
30669SOL    HW294015   0.896   3.474   0.847  0.0502  2.3799 -1.4872
30670SOL     OW94016   6.743   5.162   1.400 -0.2335  0.1599  0.3226
30670SOL    HW194017   6.790   5.242   1.378  0.1373  0.1231  0.9485
30670SOL    HW294018   6.807   5.092   1.385 -1.0498 -0.1980 -1.8066
30671SOL     OW94019   8.761   5.694   2.561  0.2642  0.0202 -0.1470
30671SOL    HW194020   8.771   5.616   2.507 -1.3727 -0.4661  0.1734
30671SOL    HW294021   8.702   5.666   2.632 -0.2521  1.4925  0.0360
30672SOL     OW94022   3.477   0.885   6.901 -0.0559  0.3779 -0.4264
30672SOL    HW194023   3.540   0.836   6.955 -0.0825 -0.5615 -1.2104
30672SOL    HW294024   3.532   0.932   6.838 -0.0441  1.2111  0.1839
30673SOL     OW94025  11.047  11.213   5.365  0.0548 -0.7755  0.0100
30673SOL    HW194026  11.037  11.199   5.270  0.4555  2.3973 -0.6300
30673SOL    HW294027  10.963  11.247   5.393 -0.5062 -2.9396  1.1767
30674SOL     OW94028  11.000   7.742   0.859  0.4615 -0.0379  0.2980
30674SOL    HW194029  11.062   7.684   0.814  0.5893 -0.4758  1.0288
30674SOL    HW294030  10.942   7.683   0.906 -0.4870  0.3708 -0.3273
30675SOL     OW94031  10.510  11.257   8.281 -0.0535 -0.3446 -0.5329
30675SOL    HW194032  10.506  11.276   8.187 -0.5079 -3.2985 -1.2063
30675SOL    HW294033  10.418  11.259   8.309 -0.1688 -1.9410 -0.7483
30676SOL     OW94034   6.426   9.965   0.069 -0.5807 -0.3435  0.0650
30676SOL    HW194035   6.402  10.053   0.039  1.7888  1.3954  2.7285
30676SOL    HW294036   6.358   9.943   0.133 -0.4849  0.1635  0.3496
30677SOL     OW94037   8.055  10.636   2.126  0.2983 -0.1625  0.4157
30677SOL    HW194038   8.141  10.595   2.121  0.5143  0.4176 -1.9955
30677SOL    HW294039   7.995  10.572   2.088  0.2028  0.6408 -0.8407
30678SOL     OW94040   0.104   0.928   2.223 -0.1778  0.5017  0.6311
30678SOL    HW194041   0.177   0.869   2.204 -1.5532 -2.2890  2.9771
30678SOL    HW294042   0.082   0.968   2.140  2.7514 -0.0665 -0.5237
30679SOL     OW94043  11.168   5.286   8.669 -0.2590  0.3576  0.6779
30679SOL    HW194044  11.208   5.254   8.587  0.3138  2.5931  0.0239
30679SOL    HW294045  11.147   5.378   8.651 -0.9269  0.6570  2.7791
30680SOL     OW94046   3.022   2.702   7.714  0.7591 -0.3601 -0.8226
30680SOL    HW194047   3.059   2.697   7.802 -1.4757 -0.2567  0.2164
30680SOL    HW294048   2.984   2.790   7.709  0.0497 -0.6934 -1.5184
30681SOL     OW94049   8.747  10.696   8.335  0.0934 -0.8787 -0.3031
30681SOL    HW194050   8.746  10.776   8.282 -0.8228  0.1034  1.1203
30681SOL    HW294051   8.664  10.653   8.316 -0.0820 -0.7025  0.0427
30682SOL     OW94052   4.013  10.443   7.625 -0.2333  0.2323 -0.8857
30682SOL    HW194053   4.022  10.407   7.537  2.0980 -0.0115 -0.6020
30682SOL    HW294054   4.102  10.443   7.661 -1.1709 -0.1488  1.6781
30683SOL     OW94055   1.856   3.695   5.001  0.0079  0.7009  0.6282
30683SOL    HW194056   1.901   3.668   5.081 -1.0803 -1.7635  0.4953
30683SOL    HW294057   1.902   3.648   4.931  0.1217  1.8051 -0.0655
30684SOL     OW94058   3.792   4.770   2.275  0.0501 -0.8370  0.0508
30684SOL    HW194059   3.719   4.816   2.316  0.3730 -0.7831  0.5816
30684SOL    HW294060   3.834   4.723   2.348 -0.4145 -2.1680 -0.5080
30685SOL     OW94061   6.943   1.520   5.901  0.2069  0.0095  0.9290
30685SOL    HW194062   6.903   1.440   5.867 -1.1710  0.7589  0.7293
30685SOL    HW294063   6.891   1.591   5.863  4.3394  1.4085 -3.0858
30686SOL     OW94064  10.179   4.771   6.489  0.4657 -0.0677 -0.1102
30686SOL    HW194065  10.095   4.738   6.521  0.9670 -1.0813  0.1911
30686SOL    HW294066  10.199   4.716   6.413  0.2854  0.9700 -0.9338
30687SOL     OW94067   6.297   2.353   0.743  0.2075 -0.3719  1.1598
30687SOL    HW194068   6.261   2.440   0.725  0.4851  0.1150  2.7784
30687SOL    HW294069   6.314   2.316   0.656 -0.2042  1.0599  0.4284
30688SOL     OW94070  10.502   0.441  11.070 -0.1352  0.2417 -0.3231
30688SOL    HW194071  10.462   0.396  11.144  0.4101 -1.1547 -0.8434
30688SOL    HW294072  10.450   0.415  10.994  1.5145 -1.3736 -0.9662
30689SOL     OW94073   7.501   3.764   2.871 -0.0068 -0.3949 -0.5050
30689SOL    HW194074   7.544   3.739   2.953  0.5380  2.2476  0.1215
30689SOL    HW294075   7.411   3.783   2.897 -0.5035 -1.9079 -1.0302
30690SOL     OW94076  10.286   8.192   5.445  0.6044  0.0986  0.0370
30690SOL    HW194077  10.234   8.226   5.517 -2.0407 -1.8320 -0.8117
30690SOL    HW294078  10.348   8.132   5.486  1.3705  1.4687  0.9468
30691SOL     OW94079   8.892  10.138   6.473 -0.0758 -0.1366 -0.1307
30691SOL    HW194080   8.959  10.114   6.409 -1.1444 -1.1655 -0.9193
30691SOL    HW294081   8.862  10.225   6.444  0.4804  0.0551 -0.1393
30692SOL     OW94082   7.629  11.022   0.786 -0.5189  0.1437  0.5651
30692SOL    HW194083   7.592  10.993   0.703 -1.1914 -0.9036  1.2084
30692SOL    HW294084   7.710  11.066   0.762 -0.9725  0.3320 -0.6837
30693SOL     OW94085   8.298   4.407   6.150  0.2228  0.7999 -0.5692
30693SOL    HW194086   8.270   4.499   6.141  2.0290  1.4009 -0.5364
30693SOL    HW294087   8.237   4.358   6.096 -0.3306  2.1291 -1.2086
30694SOL     OW94088   9.430   4.525   7.770  0.9313  0.3282  0.0604
30694SOL    HW194089   9.362   4.462   7.746  2.2278 -1.6581  1.3065
30694SOL    HW294090   9.429   4.525   7.866  2.3706  0.6123  0.0915
30695SOL     OW94091   2.508   6.834   9.865 -0.5615 -0.7914  0.0657
30695SOL    HW194092   2.544   6.762   9.813 -3.4292 -2.4609  0.1786
30695SOL    HW294093   2.505   6.799   9.954  0.2414  0.4178  0.5852
30696SOL     OW94094   2.435   5.769   6.100 -0.5493 -0.4198  0.3911
30696SOL    HW194095   2.363   5.760   6.162 -0.9865  0.4511  0.0281
30696SOL    HW294096   2.393   5.798   6.019  0.3234  1.2697  0.5048
30697SOL     OW94097  10.650   5.655   8.025 -0.1693  0.4848  0.0105
30697SOL    HW194098  10.584   5.615   8.081  0.2406  0.5522  0.5464
30697SOL    HW294099  10.648   5.602   7.945  0.9754 -1.1937  1.0367
30698SOL     OW94100  10.860   9.746   3.968  0.2131  0.4395 -0.1019
30698SOL    HW194101  10.801   9.761   3.895  0.2994  0.8311 -0.0908
30698SOL    HW294102  10.803   9.717   4.039 -0.0460  1.3805  0.0861
30699SOL     OW94103   6.094   0.662   3.853 -0.2939  0.0594  0.4750
30699SOL    HW194104   6.077   0.752   3.824  2.4828  1.2966  2.3123
30699SOL    HW294105   6.088   0.610   3.772 -1.2637  1.9567 -0.7590
30700SOL     OW94106   4.697   0.436   5.699  0.2039 -0.6600 -0.0954
30700SOL    HW194107   4.682   0.511   5.756 -0.3898 -1.0991  0.3357
30700SOL    HW294108   4.793   0.427   5.696  0.2662 -0.0926  0.1114
30701SOL     OW94109   9.788   9.934   6.363 -0.3275  0.0961 -0.2127
30701SOL    HW194110   9.842   9.872   6.413 -2.0829 -1.0432  0.3816
30701SOL    HW294111   9.828   9.936   6.277  0.6198 -0.7711  0.1819
30702SOL     OW94112   8.963   7.202   6.531  0.1055 -0.5057 -0.3007
30702SOL    HW194113   8.955   7.107   6.532 -0.7074 -0.5146 -2.4267
30702SOL    HW294114   9.057   7.219   6.543  0.0576 -1.4361  1.9660
30703SOL     OW94115  10.757   3.027   9.327  0.1329 -0.0189 -0.3626
30703SOL    HW194116  10.795   3.034   9.239  1.9525 -1.4595  0.2474
30703SOL    HW294117  10.820   3.070   9.384  1.2562 -2.8589  0.7371
30704SOL     OW94118   9.631   7.790   0.866 -0.6855 -0.0539  0.2557
30704SOL    HW194119   9.717   7.789   0.910  0.5446 -0.9060 -1.9787
30704SOL    HW294120   9.568   7.807   0.936  1.2030 -0.5243  2.1757
30705SOL     OW94121   6.865   3.619   9.026 -0.0733 -0.0985  0.3102
30705SOL    HW194122   6.793   3.637   9.087 -0.9642  1.2223 -1.0392
30705SOL    HW294123   6.944   3.627   9.079 -0.8044  1.3128  1.2653
30706SOL     OW94124   8.283  10.673   0.470 -0.0634  0.3328 -0.2979
30706SOL    HW194125   8.192  10.670   0.440  0.2328  3.7692 -1.9518
30706SOL    HW294126   8.282  10.733   0.544  1.1008  2.2395 -1.7503
30707SOL     OW94127   3.323  10.917   1.138 -0.1623  0.1033  0.1463
30707SOL    HW194128   3.237  10.915   1.181  0.0314  2.8323  0.8866
30707SOL    HW294129   3.348  10.825   1.128 -1.6222 -0.7179  3.0688
30708SOL     OW94130   0.666   8.431   8.502  0.2980  0.1382  0.4442
30708SOL    HW194131   0.758   8.447   8.522  0.0324  0.6991  1.2747
30708SOL    HW294132   0.624   8.517   8.512 -0.5413 -0.3652  1.3872
30709SOL     OW94133   3.492   5.385   7.232  0.2985  0.1636  0.4099
30709SOL    HW194134   3.460   5.388   7.142 -1.1566 -1.4830  0.8001
30709SOL    HW294135   3.429   5.436   7.282 -2.0427 -3.1356  1.1923
30710SOL     OW94136   5.659   9.594   7.319 -1.0379 -0.0135  0.3710
30710SOL    HW194137   5.660   9.545   7.236  0.2742  2.2243 -1.0415
30710SOL    HW294138   5.580   9.647   7.314 -1.5645 -0.7069  1.1174
30711SOL     OW94139   6.410   0.737   1.960  0.4570  0.2279  0.2188
30711SOL    HW194140   6.465   0.698   1.892  0.5148 -1.8934  1.3820
30711SOL    HW294141   6.448   0.705   2.042 -0.5309  1.4667  1.1951
30712SOL     OW94142   4.679   5.394   0.467  0.0112 -0.2166 -0.2346
30712SOL    HW194143   4.736   5.433   0.400  0.8736 -0.6824  0.2030
30712SOL    HW294144   4.703   5.440   0.547  0.3931 -1.0024  0.1139
30713SOL     OW94145   7.215   1.741   3.195  0.2144  0.6146  0.3444
30713SOL    HW194146   7.197   1.812   3.133 -1.7525  0.0922  0.2689
30713SOL    HW294147   7.130   1.703   3.214  1.2790 -2.6301 -0.6619
30714SOL     OW94148   0.082   7.832   4.741 -0.2125  0.5141 -0.1857
30714SOL    HW194149  -0.012   7.826   4.760 -0.3444  1.1837 -0.5839
30714SOL    HW294150   0.107   7.918   4.773  0.0970  0.6432 -0.7657
30715SOL     OW94151   7.128  10.740   2.133  0.4406  0.3701 -0.7063
30715SOL    HW194152   7.154  10.650   2.111  1.4508  0.2609  0.8089
30715SOL    HW294153   7.063  10.730   2.203  1.1091  0.8208 -0.0051
30716SOL     OW94154  10.493   3.359   0.881 -0.1009  0.0838  0.1984
30716SOL    HW194155  10.422   3.333   0.822  0.3916 -0.6846 -0.0694
30716SOL    HW294156  10.568   3.374   0.824 -0.2572  1.7472  0.3913
30717SOL     OW94157   7.879   5.527   0.933 -0.0248 -0.2678 -0.0237
30717SOL    HW194158   7.804   5.573   0.971 -1.6549 -1.0319 -2.1076
30717SOL    HW294159   7.868   5.436   0.960  0.0018 -0.4274 -0.5402
30718SOL     OW94160   3.884   4.325   7.594 -0.9613 -0.1649 -0.2432
30718SOL    HW194161   3.902   4.318   7.500  1.4947  1.0500  0.0850
30718SOL    HW294162   3.949   4.269   7.636 -1.2972  0.1932  0.8009
30719SOL     OW94163   2.404   7.205   4.659 -0.4850 -0.3587  0.1801
30719SOL    HW194164   2.480   7.170   4.705  0.4941 -0.6760 -1.5845
30719SOL    HW294165   2.438   7.277   4.606 -0.9638 -1.7101 -2.1138
30720SOL     OW94166  11.057   2.861  10.015  0.1274  0.5915  0.3604
30720SOL    HW194167  11.104   2.777  10.007  0.9299  1.0532  0.1145
30720SOL    HW294168  10.969   2.836  10.044  0.2615 -0.3586 -0.0036
30721SOL     OW94169   9.943   2.486   3.781  0.3450  0.6074 -0.0128
30721SOL    HW194170   9.947   2.496   3.876 -0.7726  1.6302 -0.0481
30721SOL    HW294171  10.010   2.546   3.748 -0.0017  1.0629  0.1015
30722SOL     OW94172   4.364   3.491  10.501 -0.0664  0.3494  0.0368
30722SOL    HW194173   4.372   3.396  10.494  0.1235 -0.0401  3.5788
30722SOL    HW294174   4.453   3.522  10.516 -0.0997  1.1528 -1.2879
30723SOL     OW94175   5.934   1.391   1.453 -0.5027 -0.4408 -0.0120
30723SOL    HW194176   5.843   1.370   1.430 -0.8325  1.9134 -1.2530
30723SOL    HW294177   5.983   1.376   1.372  0.3455 -2.0552  0.7500
30724SOL     OW94178   6.560   6.306  10.607  0.0910 -0.2951  0.4134
30724SOL    HW194179   6.552   6.347  10.521  2.9460 -0.6518 -0.1119
30724SOL    HW294180   6.654   6.294  10.619 -0.3071 -1.3007  3.1132
30725SOL     OW94181   5.312   8.652   7.003  0.2419  0.0714 -0.3300
30725SOL    HW194182   5.397   8.692   7.022  0.1314  0.2143 -0.1181
30725SOL    HW294183   5.273   8.638   7.089  0.3638 -0.6922 -0.3974
30726SOL     OW94184   5.497   8.036   2.662 -0.2576  0.1385  0.0702
30726SOL    HW194185   5.457   8.083   2.589 -0.2754 -0.7367 -0.5098
30726SOL    HW294186   5.486   7.943   2.639  1.7924 -0.1608  0.0312
30727SOL     OW94187   1.633   7.290  10.125 -0.2555 -0.1340 -0.2125
30727SOL    HW194188   1.727   7.310  10.116 -0.3603  0.2890 -0.4021
30727SOL    HW294189   1.604   7.347  10.197 -0.3809 -0.2162 -0.1977
30728SOL     OW94190   6.341   6.409   9.973  0.1422 -0.5353 -0.1905
30728SOL    HW194191   6.432   6.381   9.978  0.6237  0.6916 -1.4927
30728SOL    HW294192   6.323   6.446  10.060  1.9338  2.1166 -0.8122
30729SOL     OW94193   4.011   8.664   9.677  0.3472 -0.5176  0.2291
30729SOL    HW194194   3.916   8.663   9.690  0.4104 -1.5628  0.6878
30729SOL    HW294195   4.039   8.749   9.711 -0.3235 -0.5592  0.9153
30730SOL     OW94196  10.840   0.110  10.389  0.2210 -0.1301  0.4262
30730SOL    HW194197  10.803   0.024  10.409  0.6677 -0.3330  0.4124
30730SOL    HW294198  10.851   0.110  10.294  0.5547 -0.2029  0.4618
30731SOL     OW94199   8.277   8.965   4.051 -0.1323  0.1088 -0.4065
30731SOL    HW194200   8.372   8.949   4.050  0.1920  1.4138  1.9404
30731SOL    HW294201   8.259   8.999   4.139 -3.0007 -1.1840 -0.3801
30732SOL     OW94202   7.752   2.048   6.656 -0.1424 -0.0908 -0.1005
30732SOL    HW194203   7.776   1.997   6.733 -1.3072 -0.9958 -0.3030
30732SOL    HW294204   7.782   1.994   6.582 -0.2703  0.1044 -0.2952
30733SOL     OW94205   9.676   2.984   0.855 -0.4366  0.4662  0.4799
30733SOL    HW194206   9.647   3.075   0.857  0.1281  0.6461  0.8165
30733SOL    HW294207   9.752   2.982   0.913  0.2786  0.0309 -0.4468
30734SOL     OW94208   3.944   2.176   6.017 -0.6991 -0.8873  0.4255
30734SOL    HW194209   3.966   2.152   6.108  0.0096  0.3777  0.6109
30734SOL    HW294210   4.024   2.218   5.984 -1.1371 -0.8576 -0.6180
30735SOL     OW94211   0.463   3.972   5.870 -1.0990 -0.2404 -0.1263
30735SOL    HW194212   0.395   4.015   5.817 -1.1857 -0.2272 -0.0045
30735SOL    HW294213   0.470   4.026   5.949  0.4104  0.8707 -0.9713
30736SOL     OW94214  10.302   4.786   8.117  0.4869  0.1243 -0.6334
30736SOL    HW194215  10.319   4.846   8.190 -0.1319 -0.1744 -0.2362
30736SOL    HW294216  10.265   4.842   8.049 -0.9157  0.0744  0.0506
30737SOL     OW94217   3.392   2.693   1.095 -0.5524 -0.2248 -0.1269
30737SOL    HW194218   3.362   2.778   1.063 -2.2781 -0.4783  0.6676
30737SOL    HW294219   3.445   2.714   1.172  1.4185  0.2418 -1.5475
30738SOL     OW94220   8.218   2.999   5.212  0.5129 -0.3721 -0.5401
30738SOL    HW194221   8.211   3.006   5.308 -1.3505  2.7458 -0.7548
30738SOL    HW294222   8.306   2.965   5.197  0.6487 -1.5655  2.2631
30739SOL     OW94223   2.852   2.348   1.885  0.1763 -0.5339  0.0541
30739SOL    HW194224   2.851   2.400   1.966 -0.4617 -0.4907  0.0192
30739SOL    HW294225   2.887   2.407   1.819  0.2544 -0.4191  0.1980
30740SOL     OW94226   1.048   3.971   3.657  0.1034  0.5364 -0.2683
30740SOL    HW194227   0.983   4.021   3.707 -0.5256 -1.6304  1.2392
30740SOL    HW294228   1.088   3.913   3.722  1.8676  0.1391 -1.6436
30741SOL     OW94229   6.585   2.834   4.908  0.1882 -0.2404 -0.5020
30741SOL    HW194230   6.585   2.739   4.907  0.6969 -0.2555  0.1002
30741SOL    HW294231   6.587   2.859   4.816 -1.4693 -0.7883 -0.7045
30742SOL     OW94232   9.105   0.369   4.990 -0.2025 -0.1424 -0.0087
30742SOL    HW194233   9.111   0.425   4.912 -2.0730 -0.3612 -0.3537
30742SOL    HW294234   9.181   0.311   4.983  0.7038  1.0748 -0.6585
30743SOL     OW94235   8.016   3.354   2.981  0.5524 -0.0164  0.0710
30743SOL    HW194236   7.983   3.284   2.925 -1.5588 -0.7533  2.0466
30743SOL    HW294237   7.951   3.424   2.974  1.0779  0.5144  0.3772
30744SOL     OW94238   6.192  10.077  10.970  0.0588 -0.2920 -0.0443
30744SOL    HW194239   6.256  10.086  10.899  1.4592 -0.8367  1.0886
30744SOL    HW294240   6.240  10.103  11.048 -2.1444  2.6549  0.4820
30745SOL     OW94241   7.216   9.908   5.781 -0.2663  0.1545 -0.0246
30745SOL    HW194242   7.143   9.940   5.728 -0.6707 -1.3803 -0.4638
30745SOL    HW294243   7.233   9.820   5.746  0.7891 -0.0992  1.0802
30746SOL     OW94244   7.940  10.936   4.200  0.0354  0.2048  0.0322
30746SOL    HW194245   7.939  10.876   4.275  0.3564  0.5218  0.2904
30746SOL    HW294246   8.008  10.901   4.142 -1.1230 -0.8308 -0.7740
30747SOL     OW94247   6.457   0.876   0.592 -0.5149  0.2097  0.8012
30747SOL    HW194248   6.490   0.881   0.502  0.2524 -2.3660  0.8473
30747SOL    HW294249   6.365   0.851   0.582 -0.7942  1.2191  0.7461
30748SOL     OW94250   7.202   1.635  10.965  0.9657 -0.1171  0.2764
30748SOL    HW194251   7.228   1.581  10.891 -0.7263  0.3989 -0.7612
30748SOL    HW294252   7.170   1.574  11.031 -0.3178 -0.4598 -0.6288
30749SOL     OW94253  11.123   4.128   1.449  1.0229 -0.5121  0.0060
30749SOL    HW194254  11.160   4.215   1.433  2.2253 -1.2202 -1.1948
30749SOL    HW294255  11.071   4.139   1.529  1.3073  1.2563 -0.0139
30750SOL     OW94256  10.213   3.823   3.055 -0.1064 -0.7813  0.6993
30750SOL    HW194257  10.223   3.883   3.129 -0.1273  0.0679  0.0366
30750SOL    HW294258  10.258   3.743   3.082  1.8822  0.2918  0.7688
30751SOL     OW94259   6.015   6.998   2.944  0.7842  1.0749  0.0265
30751SOL    HW194260   5.996   6.921   2.891  0.2302  0.7753  0.6441
30751SOL    HW294261   5.934   7.015   2.992  0.9685  1.9172  0.0605
30752SOL     OW94262   0.404   4.519   6.010  0.0591 -0.8066 -0.1433
30752SOL    HW194263   0.326   4.563   6.045 -1.0995 -1.9445 -1.1782
30752SOL    HW294264   0.451   4.489   6.087 -0.4469  0.0183  0.5129
30753SOL     OW94265   5.152   9.109   7.963 -0.2867 -0.2340 -0.2010
30753SOL    HW194266   5.113   9.164   8.031  1.3616  3.5387 -2.0336
30753SOL    HW294267   5.221   9.061   8.009 -0.5572  0.6494  1.1939
30754SOL     OW94268   7.214   6.151   2.696  0.7564 -0.4332  0.4300
30754SOL    HW194269   7.279   6.084   2.716  2.1525  1.0884  1.2348
30754SOL    HW294270   7.265   6.228   2.673 -0.7089  1.0647  1.8428
30755SOL     OW94271  10.892   7.072   9.330  0.0401 -0.4376 -0.2010
30755SOL    HW194272  10.961   7.045   9.270 -0.7334 -3.6013  0.1665
30755SOL    HW294273  10.848   7.144   9.284  2.9497  1.1283 -0.8008
30756SOL     OW94274   0.981   1.463   4.158  1.0138 -0.2509 -0.1382
30756SOL    HW194275   1.062   1.445   4.206  1.1887 -0.5606 -0.5407
30756SOL    HW294276   0.913   1.420   4.209  0.9831  0.7034  0.6424
30757SOL     OW94277   4.154   0.498   8.807  0.0424 -0.1327  0.0443
30757SOL    HW194278   4.154   0.580   8.757 -1.8545 -0.5437 -0.7068
30757SOL    HW294279   4.064   0.468   8.803  0.9837 -3.1476 -1.1604
30758SOL     OW94280   3.056   8.137   1.612 -0.4441 -0.8275 -0.0458
30758SOL    HW194281   3.114   8.072   1.573 -0.8420 -1.3718  0.2526
30758SOL    HW294282   3.038   8.199   1.541  1.3236 -0.0455  0.1257
30759SOL     OW94283   7.330   6.129   1.591  0.7885 -0.4210 -0.0676
30759SOL    HW194284   7.263   6.192   1.617  0.8717  0.1571 -1.1971
30759SOL    HW294285   7.412   6.177   1.596  1.1561 -1.1161  1.2759
30760SOL     OW94286   3.785   1.865   0.328 -0.1158 -0.3700  0.1916
30760SOL    HW194287   3.705   1.812   0.334  0.7595 -1.7344  0.1385
30760SOL    HW294288   3.805   1.867   0.234  0.0002 -0.1643  0.2217
30761SOL     OW94289   3.963  10.437   6.539 -0.3066 -0.0205 -0.5951
30761SOL    HW194290   4.003  10.354   6.513 -0.4732  0.1758 -1.5340
30761SOL    HW294291   3.975  10.442   6.634 -0.0847 -1.0026 -0.5662
30762SOL     OW94292   1.762   7.136   0.036 -0.3521 -0.6227 -0.2253
30762SOL    HW194293   1.820   7.209   0.057 -0.1060 -0.6769 -0.7033
30762SOL    HW294294   1.775   7.122  -0.058 -0.9588 -0.7920 -0.2872
30763SOL     OW94295   0.860   0.266   6.704  0.0062 -0.5059 -0.2437
30763SOL    HW194296   0.846   0.206   6.777  0.1115 -0.7799 -0.4451
30763SOL    HW294297   0.922   0.331   6.737 -1.6577  0.7143  0.6614
30764SOL     OW94298   7.203   0.898   6.115  0.2999  0.2240  0.9560
30764SOL    HW194299   7.108   0.888   6.106  0.1958  0.5518  1.6292
30764SOL    HW294300   7.235   0.901   6.025 -0.5464  2.0693  0.6579
30765SOL     OW94301   4.317   3.509   6.420  0.0514 -1.0855 -0.1624
30765SOL    HW194302   4.314   3.580   6.484  0.6490 -2.0428  0.9594
30765SOL    HW294303   4.374   3.542   6.350 -1.1384  0.2327 -0.5705
30766SOL     OW94304  10.385   8.429  10.626  0.3607 -0.8363  0.1144
30766SOL    HW194305  10.448   8.459  10.692 -0.2651 -0.1477  0.4057
30766SOL    HW294306  10.309   8.485  10.638 -0.2034 -1.4703 -0.4321
30767SOL     OW94307   1.738   0.899  10.483 -0.0159 -0.6318 -0.0206
30767SOL    HW194308   1.781   0.877  10.400  1.5710 -2.4022  1.1894
30767SOL    HW294309   1.808   0.934  10.538 -0.7903 -0.5776  0.9669
30768SOL     OW94310   9.356   0.330   7.178  0.7543  0.2890 -0.2522
30768SOL    HW194311   9.261   0.329   7.164  0.7023 -0.5460  0.1038
30768SOL    HW294312   9.367   0.382   7.258  0.5054 -0.3793  0.2303
30769SOL     OW94313   2.464   4.170   2.435 -0.1212 -0.4939  0.8113
30769SOL    HW194314   2.380   4.205   2.406  0.4204 -1.1040 -1.7946
30769SOL    HW294315   2.456   4.075   2.422  1.0670 -0.5303  0.1552
30770SOL     OW94316  10.362   9.267   8.566 -0.2447 -0.2283  0.3910
30770SOL    HW194317  10.401   9.257   8.653  0.1635  0.2822  0.2691
30770SOL    HW294318  10.307   9.345   8.573  1.5231  1.1662 -0.4040
30771SOL     OW94319   5.403   5.227   2.643 -0.4694 -0.2402  0.2411
30771SOL    HW194320   5.428   5.210   2.552 -0.3158 -0.6404  0.3549
30771SOL    HW294321   5.483   5.258   2.685 -0.3102 -0.9177  0.4536
30772SOL     OW94322   0.116   3.055   8.666  0.7891  0.0865 -0.1320
30772SOL    HW194323   0.062   3.096   8.733 -0.3674 -0.5938 -0.6301
30772SOL    HW294324   0.205   3.060   8.702  0.7343  2.9419 -0.1488
30773SOL     OW94325   6.626   5.181   2.738  0.2704 -0.3799  0.2908
30773SOL    HW194326   6.716   5.210   2.752  1.2691 -1.1914 -3.5094
30773SOL    HW294327   6.633   5.109   2.676 -3.0030 -0.9170  0.3690
30774SOL     OW94328  10.134   1.293   1.166  0.0298 -0.0085 -0.2015
30774SOL    HW194329  10.210   1.270   1.220 -0.5177  1.1495  1.1229
30774SOL    HW294330  10.074   1.219   1.176  0.8537 -0.8279 -1.0717
30775SOL     OW94331   6.854   6.868   5.000  0.0513 -0.1651  0.4512
30775SOL    HW194332   6.914   6.928   4.954  0.1209  0.3627  1.2140
30775SOL    HW294333   6.902   6.842   5.079  0.0646 -1.3238  0.0826
30776SOL     OW94334   0.821   0.315   5.387  0.8990  0.1655  0.7451
30776SOL    HW194335   0.856   0.400   5.360  2.3581 -0.4541  0.5813
30776SOL    HW294336   0.890   0.252   5.363 -0.7125 -1.2550 -0.4785
30777SOL     OW94337   4.804   7.445   7.793 -0.0212  0.3030 -1.1140
30777SOL    HW194338   4.758   7.452   7.877  3.2285  0.0265  0.8813
30777SOL    HW294339   4.809   7.351   7.776  2.1531  0.1126  0.2281
30778SOL     OW94340   0.403   9.741   9.041  0.2163 -0.0086 -0.1303
30778SOL    HW194341   0.376   9.800   9.112  1.4242  1.3968 -0.7967
30778SOL    HW294342   0.466   9.682   9.082 -0.8977 -0.8179  0.5048
30779SOL     OW94343   2.739   2.057   0.478  0.0801 -0.6953 -0.7344
30779SOL    HW194344   2.664   2.089   0.428 -0.2856 -1.9338 -1.0158
30779SOL    HW294345   2.710   2.060   0.569  0.7089  1.4618 -0.5360
30780SOL     OW94346   9.654   2.356   0.701  0.0216  0.3664  0.2797
30780SOL    HW194347   9.675   2.325   0.789 -0.8391  0.9544  0.7060
30780SOL    HW294348   9.699   2.295   0.643 -1.1363 -1.3650  1.0969
30781SOL     OW94349   6.683   1.976   7.984  0.0623  0.7917  0.3704
30781SOL    HW194350   6.640   1.943   8.063 -0.7036 -0.1512 -0.4163
30781SOL    HW294351   6.712   1.898   7.938  1.0815  1.3549  0.0173
30782SOL     OW94352   1.773   6.141   0.243  0.1289 -0.2145  0.4020
30782SOL    HW194353   1.773   6.228   0.282 -0.9685  1.1381 -2.3501
30782SOL    HW294354   1.705   6.094   0.290 -0.7255  1.1275  0.5707
30783SOL     OW94355   1.440   5.879   9.826 -0.1391  0.6212 -0.5876
30783SOL    HW194356   1.475   5.804   9.778  0.1116 -0.0929  0.6750
30783SOL    HW294357   1.507   5.899   9.891 -0.5398  1.4738 -0.4253
30784SOL     OW94358  10.342   2.092  10.296  0.3077  0.7822  0.0233
30784SOL    HW194359  10.302   2.017  10.339 -0.3151 -0.2026 -2.1241
30784SOL    HW294360  10.409   2.122  10.356  1.2780 -2.1216  0.5369
30785SOL     OW94361   9.861   7.288   1.292 -0.6717  0.6673  0.3662
30785SOL    HW194362   9.888   7.370   1.332  1.5281  0.8234 -1.2311
30785SOL    HW294363   9.942   7.252   1.254 -2.3907  0.4147 -3.5692
30786SOL     OW94364   5.502   8.240   8.646  0.6221  0.2742 -0.0758
30786SOL    HW194365   5.593   8.270   8.639  1.4131 -1.6334  1.2057
30786SOL    HW294366   5.508   8.146   8.660 -1.5994  0.0069 -0.4955
30787SOL     OW94367   8.621   7.173   2.327 -0.6035 -0.9981 -0.1054
30787SOL    HW194368   8.709   7.139   2.316 -1.2653 -2.8463 -0.0619
30787SOL    HW294369   8.633   7.267   2.345  1.4221 -1.5305  1.6684
30788SOL     OW94370   9.834  10.366   9.022  0.2917  0.0569 -0.1126
30788SOL    HW194371   9.762  10.427   9.037  0.1676 -0.0162 -0.4145
30788SOL    HW294372   9.895  10.414   8.967  1.1148  0.6022  1.2234
30789SOL     OW94373   9.871   2.451   7.116  0.1074  0.2084 -0.0509
30789SOL    HW194374   9.794   2.409   7.154 -0.1515 -0.1545 -0.9568
30789SOL    HW294375   9.837   2.533   7.079  0.6257  1.3408  1.8088
30790SOL     OW94376   2.679   4.435   4.395  0.6517 -0.5638 -1.1384
30790SOL    HW194377   2.648   4.508   4.448  1.4224 -1.3349  0.4595
30790SOL    HW294378   2.649   4.454   4.306 -0.5781  0.8468 -0.4532
30791SOL     OW94379  11.276   6.675   6.648 -0.9317  0.2221  0.8117
30791SOL    HW194380  11.307   6.732   6.719  1.4721 -0.2951  0.2536
30791SOL    HW294381  11.328   6.701   6.573  2.1164 -4.1579  1.0332
30792SOL     OW94382   4.714   7.769   6.997 -0.0145 -0.4150  0.1888
30792SOL    HW194383   4.630   7.811   6.979  0.2412  1.1970  2.4809
30792SOL    HW294384   4.777   7.819   6.945 -0.3822 -1.5859 -1.4843
30793SOL     OW94385   8.757   7.302   1.187 -0.4933  0.1048  0.4864
30793SOL    HW194386   8.720   7.246   1.119 -0.8281 -1.5621  1.9766
30793SOL    HW294387   8.684   7.356   1.216 -0.8303 -0.4912  0.7738
30794SOL     OW94388   7.668   7.123   1.378 -0.5528  0.1020 -0.2153
30794SOL    HW194389   7.607   7.119   1.452 -0.9075 -1.8683 -0.5527
30794SOL    HW294390   7.616   7.155   1.305 -0.1593  2.2302  0.3737
30795SOL     OW94391   8.090   0.331   1.021 -0.6692 -0.6799  0.0588
30795SOL    HW194392   8.079   0.247   0.976  2.1198 -0.3856 -1.3939
30795SOL    HW294393   8.038   0.392   0.969 -2.0910 -1.3069  0.6749
30796SOL     OW94394   3.443   6.108  10.661  0.2607  0.7829 -0.2464
30796SOL    HW194395   3.478   6.117  10.750  1.9122  0.5258 -0.8430
30796SOL    HW294396   3.398   6.190  10.644 -2.1577 -0.0259  1.6657
30797SOL     OW94397   4.447   4.187   0.743  0.7012  0.1629  0.3501
30797SOL    HW194398   4.380   4.120   0.727 -1.1043  1.5445  1.7089
30797SOL    HW294399   4.416   4.264   0.694  1.9718  0.4731 -0.0036
30798SOL     OW94400   1.767  10.894   7.825 -0.1416  0.6964  0.1542
30798SOL    HW194401   1.859  10.868   7.816  0.7122  3.2312  0.8699
30798SOL    HW294402   1.743  10.865   7.913  0.0769  0.3712  0.1121
30799SOL     OW94403  10.619   5.648   9.211 -0.6058 -0.1288 -0.0892
30799SOL    HW194404  10.682   5.702   9.258 -1.1925  0.4192  0.0905
30799SOL    HW294405  10.631   5.672   9.119 -0.4371 -0.1431 -0.0702
30800SOL     OW94406   2.151   0.437   6.765  0.5277  0.2470  0.4342
30800SOL    HW194407   2.086   0.476   6.706  0.0713 -1.7670 -0.4885
30800SOL    HW294408   2.211   0.509   6.785 -1.7784  2.1115  1.0865
30801SOL     OW94409   8.981   8.109   2.724  0.5421  0.5001 -0.0932
30801SOL    HW194410   8.927   8.035   2.752 -2.0800  3.0783  2.3104
30801SOL    HW294411   9.047   8.117   2.793 -0.8325  1.8647  1.1556
30802SOL     OW94412   9.031   6.925   9.299  0.3236 -0.2539 -0.2394
30802SOL    HW194413   9.058   6.951   9.387  0.9497 -0.4353 -0.3740
30802SOL    HW294414   8.943   6.963   9.289  0.2123 -0.3055  0.4883
30803SOL     OW94415   6.093   2.497   0.528  0.1376  0.2569 -0.3579
30803SOL    HW194416   6.023   2.559   0.505  0.5118  0.1158 -2.0294
30803SOL    HW294417   6.051   2.411   0.525  0.5724  0.0568 -2.5430
30804SOL     OW94418   3.871   0.859   8.455  0.6229 -0.3483  0.5519
30804SOL    HW194419   3.862   0.829   8.546  0.8826 -0.4818  0.5349
30804SOL    HW294420   3.886   0.780   8.405 -0.6595 -0.3981  0.2248
30805SOL     OW94421   7.270  11.251   5.694 -0.2418  0.5632  0.3606
30805SOL    HW194422   7.339  11.239   5.629  0.5767  1.9795  0.9081
30805SOL    HW294423   7.305  11.211   5.773 -0.9853 -0.6379  0.0948
30806SOL     OW94424   4.773   2.379   3.064 -0.3887 -0.4483  0.3758
30806SOL    HW194425   4.693   2.370   3.011  0.4750  2.5643 -1.7123
30806SOL    HW294426   4.842   2.341   3.010 -0.1740 -1.8520  1.5967
30807SOL     OW94427  11.131   3.716   1.455  0.1764 -0.6632  0.1494
30807SOL    HW194428  11.051   3.769   1.452 -0.2463 -1.2805  0.1707
30807SOL    HW294429  11.201   3.776   1.431 -0.1478  0.1681  1.1672
30808SOL     OW94430   5.965   7.454   9.300  0.6048 -0.6592  0.0699
30808SOL    HW194431   5.899   7.468   9.368  1.4633  0.4553  0.7020
30808SOL    HW294432   6.049   7.459   9.346  1.1947 -0.0529 -1.0344
30809SOL     OW94433   9.342   4.650   3.004  0.1853  0.1058 -0.2469
30809SOL    HW194434   9.296   4.566   2.992  0.5366  0.1423 -2.1543
30809SOL    HW294435   9.395   4.637   3.083 -0.2445 -1.2515 -0.1547
30810SOL     OW94436   7.848   6.959   3.672  0.7703 -0.0074 -0.3937
30810SOL    HW194437   7.894   6.919   3.747 -2.3327 -0.2229  1.5731
30810SOL    HW294438   7.868   7.052   3.679  1.1506 -0.1263  0.2477
30811SOL     OW94439   6.546   2.419   3.258 -0.5650 -0.0441  0.1278
30811SOL    HW194440   6.598   2.495   3.281  1.6000 -1.4929  0.2847
30811SOL    HW294441   6.527   2.377   3.342  0.6042 -1.1227 -0.1289
30812SOL     OW94442   4.387   4.683   0.539 -1.1323  0.7258  0.0295
30812SOL    HW194443   4.334   4.733   0.602  0.3350  2.8037 -0.2857
30812SOL    HW294444   4.462   4.740   0.520  0.6461 -1.6094 -0.4147
30813SOL     OW94445   4.064   8.410   0.324  0.1380 -0.2069  0.4387
30813SOL    HW194446   4.141   8.451   0.365  0.2370 -0.9651  1.0435
30813SOL    HW294447   3.990   8.461   0.356  0.3462  0.1779  0.3105
30814SOL     OW94448   1.197   3.462   3.911 -0.0648 -0.0094 -0.4070
30814SOL    HW194449   1.166   3.460   3.821 -1.7334 -4.4736 -0.0001
30814SOL    HW294450   1.122   3.496   3.961  0.5310  1.5644 -0.5145
30815SOL     OW94451   0.525   1.605   7.762  0.4537  0.3320  0.6867
30815SOL    HW194452   0.438   1.638   7.740  0.0671 -1.0017  0.0964
30815SOL    HW294453   0.545   1.542   7.693  1.6207  0.1554  1.1626
30816SOL     OW94454   9.281   7.655   7.381  0.0167 -0.2300  0.3922
30816SOL    HW194455   9.303   7.744   7.354 -1.6457  0.6878  1.8512
30816SOL    HW294456   9.335   7.639   7.458  2.2748 -1.5752 -1.3284
30817SOL     OW94457   9.343  10.487   9.920 -0.1187  0.2168 -0.8359
30817SOL    HW194458   9.276  10.548   9.889 -0.0821  0.2020 -0.9477
30817SOL    HW294459   9.404  10.479   9.846  1.5338  2.3643  0.1775
30818SOL     OW94460   2.092  11.150   8.615 -0.2475 -0.6697  0.4506
30818SOL    HW194461   2.159  11.170   8.550 -1.3547  0.4049 -0.4198
30818SOL    HW294462   2.118  11.201   8.693 -0.1049 -0.1783  0.0885
30819SOL     OW94463   1.654   6.605   1.189 -0.2037 -0.6754  0.5830
30819SOL    HW194464   1.626   6.695   1.201 -0.9371 -0.9602  0.9978
30819SOL    HW294465   1.672   6.572   1.277  1.4185 -0.5238  0.3566
30820SOL     OW94466   0.445   2.307  10.038 -0.6248  0.1736  0.2522
30820SOL    HW194467   0.362   2.330  10.080 -0.3534 -0.1033  0.9532
30820SOL    HW294468   0.478   2.233  10.089  0.3661  0.6919  0.3822
30821SOL     OW94469   7.433   2.150   7.809 -0.3897  0.1847 -0.6943
30821SOL    HW194470   7.446   2.243   7.791  1.0748  0.4033  1.2048
30821SOL    HW294471   7.521   2.113   7.806 -0.9916 -1.2649 -1.8328
30822SOL     OW94472   3.279   8.280   4.006 -0.0824 -0.0894 -0.0543
30822SOL    HW194473   3.237   8.259   4.089 -0.9286  0.0639 -0.4274
30822SOL    HW294474   3.301   8.196   3.968  3.2436 -0.1885  1.7060
30823SOL     OW94475   0.766   3.003   9.408 -0.2935 -0.1548 -0.1323
30823SOL    HW194476   0.758   2.929   9.469 -1.4507 -0.5030 -0.6895
30823SOL    HW294477   0.830   2.974   9.344 -0.1648 -0.3706  0.0906
30824SOL     OW94478  10.385   1.440  11.142  0.0409 -0.3516  0.8656
30824SOL    HW194479  10.364   1.444  11.049 -0.8133 -0.3357  1.0527
30824SOL    HW294480  10.325   1.502  11.183  0.7072 -0.0341  1.3844
30825SOL     OW94481   7.916   4.659   7.694 -0.3026 -0.1505 -0.4194
30825SOL    HW194482   7.946   4.693   7.778  2.6524  1.9797 -2.1675
30825SOL    HW294483   7.968   4.580   7.680 -0.8700 -0.5646 -0.2303
30826SOL     OW94484   7.968   0.655   3.575  0.1157  0.2062 -0.1194
30826SOL    HW194485   8.036   0.588   3.567  2.4928  2.1868  1.8073
30826SOL    HW294486   7.997   0.724   3.516 -2.3640 -0.3879 -2.1720
30827SOL     OW94487   3.476   1.743   0.491 -0.0306  0.2474  0.1918
30827SOL    HW194488   3.431   1.822   0.460  0.2252 -0.5097 -2.2790
30827SOL    HW294489   3.405   1.684   0.518 -0.4362 -0.0594 -1.4800
30828SOL     OW94490   1.472   5.354   7.703  0.3794 -0.0655 -0.8597
30828SOL    HW194491   1.450   5.447   7.697  0.4609  0.0888  0.7568
30828SOL    HW294492   1.561   5.349   7.667  0.5270  0.5523 -0.5958
30829SOL     OW94493   9.933  10.477   2.014 -0.5537 -0.3967 -0.1847
30829SOL    HW194494   9.857  10.484   1.956  0.4190 -0.0059 -1.4576
30829SOL    HW294495   9.975  10.395   1.989 -0.5364 -0.6061  0.5110
30830SOL     OW94496   0.774   7.624   8.000 -0.0343  0.2218  0.6592
30830SOL    HW194497   0.784   7.529   8.007  0.4565  0.2240  0.0039
30830SOL    HW294498   0.737   7.638   7.913 -0.0986  0.6358  0.7518
30831SOL     OW94499   9.472   5.146  10.995 -0.1437 -0.7113 -0.3063
30831SOL    HW194500   9.398   5.088  10.978  0.2659 -1.8423  1.5656
30831SOL    HW294501   9.549   5.099  10.963 -0.0522 -0.1692 -0.9123
30832SOL     OW94502   9.900   9.963   6.905  0.3253  0.2053 -0.2695
30832SOL    HW194503   9.857   9.878   6.908 -1.7922  1.1902 -0.8594
30832SOL    HW294504   9.966   9.954   6.836 -0.3310 -0.7690 -0.7966
30833SOL     OW94505   8.706   3.958   8.710 -0.2633 -0.6554  0.3102
30833SOL    HW194506   8.628   4.004   8.680  1.9519  3.6723  0.3625
30833SOL    HW294507   8.726   3.997   8.795  0.5653 -3.5845  1.5871
30834SOL     OW94508   7.542   7.969   9.075  0.5859 -0.2480  0.0085
30834SOL    HW194509   7.625   7.997   9.037  0.3674 -0.8010 -0.9085
30834SOL    HW294510   7.531   7.878   9.046  0.9530 -1.1048  2.3467
30835SOL     OW94511   9.438   3.475   7.380 -0.1709 -0.3100 -0.0213
30835SOL    HW194512   9.442   3.455   7.474  0.1084  1.1688  0.3148
30835SOL    HW294513   9.464   3.567   7.375 -0.3829 -0.3165 -1.5384
30836SOL     OW94514   4.505   8.430   3.684 -0.6341  0.1269  0.4523
30836SOL    HW194515   4.598   8.444   3.702 -0.3157 -1.6499  0.3224
30836SOL    HW294516   4.468   8.518   3.678  1.7719  1.1332 -3.4807
30837SOL     OW94517   4.819   9.963   7.368 -0.1124 -0.0975  0.3270
30837SOL    HW194518   4.848   9.900   7.433  0.6213  1.4678  1.5941
30837SOL    HW294519   4.798   9.911   7.291 -0.9529 -2.0112  1.7744
30838SOL     OW94520   3.387  11.098   3.490 -0.0377 -0.4042 -0.3182
30838SOL    HW194521   3.423  11.062   3.409 -0.7689 -1.9874  0.0250
30838SOL    HW294522   3.293  11.079   3.485  0.0061 -1.2005  1.1944
30839SOL     OW94523   9.171  10.784   4.132  0.0026 -0.2245 -0.6073
30839SOL    HW194524   9.079  10.801   4.110  0.0077  1.7921  0.6024
30839SOL    HW294525   9.170  10.698   4.174 -1.7846  0.6805  1.4595
30840SOL     OW94526   3.708   3.454   5.936  0.0799  0.0704  0.1514
30840SOL    HW194527   3.666   3.387   5.881  0.6838  0.7235 -1.1513
30840SOL    HW294528   3.749   3.405   6.007 -2.8070 -0.6190  1.4877
30841SOL     OW94529   6.393   8.301  10.757  0.0310  0.1602  0.3124
30841SOL    HW194530   6.466   8.243  10.781  0.7376  0.0484 -1.8862
30841SOL    HW294531   6.330   8.243  10.714  0.6912  0.9237 -1.8052
30842SOL     OW94532   4.844   1.056   8.519 -0.4002  0.6092  0.0762
30842SOL    HW194533   4.754   1.028   8.499  0.2494 -2.0911  0.5299
30842SOL    HW294534   4.866   1.117   8.450 -1.6081 -0.9236 -1.7706
30843SOL     OW94535   4.250   1.268   4.369 -0.2364 -0.3324  0.7337
30843SOL    HW194536   4.192   1.254   4.445  0.7560 -0.2698  1.5187
30843SOL    HW294537   4.298   1.186   4.361  0.0880 -0.1211  0.5393
30844SOL     OW94538   2.044   1.652   8.852  0.1253 -0.2190  0.0058
30844SOL    HW194539   2.031   1.733   8.802  2.4138 -0.7729 -1.6309
30844SOL    HW294540   2.009   1.583   8.795  1.5100 -0.7210 -0.2723
30845SOL     OW94541   4.276   9.024   7.911  0.2982  0.4555 -0.1696
30845SOL    HW194542   4.354   9.029   7.856 -1.0478 -2.0060 -2.5971
30845SOL    HW294543   4.301   8.967   7.983  0.7600 -0.3257 -0.9305
30846SOL     OW94544   4.157   2.614   8.537  0.1127 -0.2393  0.1269
30846SOL    HW194545   4.186   2.583   8.452  0.5312  1.2107 -0.2927
30846SOL    HW294546   4.169   2.709   8.533 -2.5708  0.2053  0.7345
30847SOL     OW94547   5.276   9.928   7.343  0.3070 -0.0793 -0.1938
30847SOL    HW194548   5.238   9.990   7.281  0.0716  0.0951  0.1201
30847SOL    HW294549   5.295   9.981   7.421 -0.2996 -0.4766  0.2362
30848SOL     OW94550   6.612   2.434   4.107 -0.6582  0.3293  0.0874
30848SOL    HW194551   6.676   2.401   4.169  0.0747 -0.3825 -1.0159
30848SOL    HW294552   6.590   2.359   4.052 -0.9825  1.0324 -0.7659
30849SOL     OW94553   9.649   6.957   6.402  0.1401  0.0143 -0.0307
30849SOL    HW194554   9.738   6.975   6.372 -0.6561  0.6164 -2.2721
30849SOL    HW294555   9.647   6.988   6.492  1.2171  3.5824 -1.0673
30850SOL     OW94556   7.010   8.576   0.682  0.1120  0.0180  0.3509
30850SOL    HW194557   7.045   8.665   0.679 -0.3505  0.2293  0.9064
30850SOL    HW294558   7.065   8.526   0.622  1.0947  0.4307  0.8819
30851SOL     OW94559   9.442   0.143   0.528 -0.0214  0.1409  0.4046
30851SOL    HW194560   9.429   0.227   0.483  0.4105  0.6176  1.1455
30851SOL    HW294561   9.494   0.091   0.467  0.3143  0.6720  0.2287
30852SOL     OW94562   3.789   8.788  10.505  0.2601  0.1925  0.3076
30852SOL    HW194563   3.820   8.865  10.553 -0.2690  0.3183  0.4470
30852SOL    HW294564   3.867   8.756  10.459  0.3964  1.0432 -0.0696
30853SOL     OW94565   4.030   9.859   8.294  0.1692 -0.2005  0.0335
30853SOL    HW194566   4.059   9.883   8.206  1.5537  0.2229  0.5740
30853SOL    HW294567   3.982   9.936   8.325  0.8702  0.2109  0.1379
30854SOL     OW94568  10.794  10.938   7.135 -0.1279  0.1917  0.0545
30854SOL    HW194569  10.821  10.848   7.151 -0.4065 -0.3037 -2.0382
30854SOL    HW294570  10.744  10.935   7.054  1.8898  2.5781 -1.4363
30855SOL     OW94571   8.453   6.850   0.805 -0.0276  0.1635  0.0822
30855SOL    HW194572   8.548   6.847   0.801  0.2560  0.6455  3.7518
30855SOL    HW294573   8.425   6.760   0.791  1.0132 -0.1757  0.1275
30856SOL     OW94574   4.525   6.878   3.711 -0.0778  0.1328  0.5872
30856SOL    HW194575   4.485   6.950   3.759 -0.1704 -0.1774  0.9793
30856SOL    HW294576   4.617   6.880   3.737 -0.0332  0.2568  0.4176
30857SOL     OW94577  10.956   5.320   6.485 -0.0095  0.5035  0.0991
30857SOL    HW194578  11.037   5.288   6.525 -0.4313 -0.0729  0.5071
30857SOL    HW294579  10.891   5.252   6.505  0.0197 -0.4537 -2.6302
30858SOL     OW94580   5.422   4.380   0.526  0.1935 -0.5852  0.5218
30858SOL    HW194581   5.430   4.298   0.477 -0.6357 -0.5831  0.3737
30858SOL    HW294582   5.352   4.363   0.589 -2.9418  1.2582 -2.1412
30859SOL     OW94583   4.280   8.946   0.893  0.0478 -0.4539  0.7076
30859SOL    HW194584   4.280   9.041   0.885  1.0010 -0.3079  2.1223
30859SOL    HW294585   4.248   8.915   0.808  1.8681  1.0444 -0.5966
30860SOL     OW94586  10.313   8.479   6.576  0.0364 -0.0933  0.7377
30860SOL    HW194587  10.309   8.456   6.669 -0.5230 -2.4362  0.1972
30860SOL    HW294588  10.305   8.395   6.531 -1.3747  1.1581 -1.4654
30861SOL     OW94589  10.938  11.021   8.053 -0.2337  0.2000  0.0475
30861SOL    HW194590  10.908  10.936   8.085  0.8737 -0.0766  0.3848
30861SOL    HW294591  10.998  11.052   8.121 -0.9803  1.4817  0.1632
30862SOL     OW94592  10.645   4.177   4.037  0.0302 -0.2922  0.6319
30862SOL    HW194593  10.660   4.088   4.071  1.7241 -0.1563  0.2998
30862SOL    HW294594  10.718   4.229   4.071 -0.6105  0.8494  0.3215
30863SOL     OW94595   1.053   3.726   7.575 -0.3203 -0.8381  0.1360
30863SOL    HW194596   1.081   3.806   7.531  2.8726 -2.1156 -0.4638
30863SOL    HW294597   0.998   3.681   7.512 -0.7947  0.1243 -0.1449
30864SOL     OW94598   3.678   8.387  10.569 -0.6638 -0.4336 -0.4251
30864SOL    HW194599   3.761   8.354  10.535 -1.3616 -1.4834 -1.1674
30864SOL    HW294600   3.693   8.397  10.663  0.9349  1.4239 -0.7983
30865SOL     OW94601  10.166   9.548   5.796 -0.0830  0.3675  0.2273
30865SOL    HW194602  10.157   9.495   5.876  1.3536 -1.5811 -0.8236
30865SOL    HW294603  10.184   9.637   5.828  1.2607 -0.5160  2.0971
30866SOL     OW94604  11.111   4.245   1.908 -1.2257  0.0850  0.4264
30866SOL    HW194605  11.083   4.333   1.882  0.5652  0.8936  1.0814
30866SOL    HW294606  11.168   4.259   1.983  1.2796 -1.3396 -1.0389
30867SOL     OW94607   7.778   5.903   2.754  0.4460  0.1640  0.1791
30867SOL    HW194608   7.866   5.937   2.770  0.1938  0.5360  0.7928
30867SOL    HW294609   7.719   5.970   2.787 -0.0954  0.3877 -1.1656
30868SOL     OW94610   7.277   2.216   8.090 -0.2102  0.2212 -0.1795
30868SOL    HW194611   7.240   2.164   8.019 -2.3218  2.4652 -0.8466
30868SOL    HW294612   7.252   2.306   8.070  3.1005  1.5802  1.0027
30869SOL     OW94613   1.313   2.976   7.401  0.7740 -0.6687  0.6008
30869SOL    HW194614   1.352   2.917   7.466 -0.0907 -0.9915  0.8347
30869SOL    HW294615   1.358   2.954   7.319  2.5725  0.4069  1.2383
30870SOL     OW94616   5.921   8.880  10.351  0.0999 -0.0226 -0.3749
30870SOL    HW194617   5.933   8.786  10.340 -2.2473 -0.3271 -0.9660
30870SOL    HW294618   5.981   8.904  10.422 -0.2901 -2.2421  0.8116
30871SOL     OW94619   3.954  11.011  10.810 -0.0653 -0.2399 -0.2173
30871SOL    HW194620   3.889  10.948  10.841  0.8524 -0.0758  2.2163
30871SOL    HW294621   3.903  11.089  10.788 -0.8459 -0.6705  0.0144
30872SOL     OW94622   3.887  10.215   7.784  0.0196  0.8856  0.5492
30872SOL    HW194623   3.801  10.191   7.751  0.5696 -0.8050  0.2796
30872SOL    HW294624   3.904  10.301   7.744 -0.7080  0.3577 -0.9632
30873SOL     OW94625   4.027   8.701  10.427  0.7462  0.5233  0.2424
30873SOL    HW194626   4.064   8.654  10.502  0.9418 -0.4092 -0.4225
30873SOL    HW294627   4.100   8.754  10.395  1.3221 -0.6926 -0.5624
30874SOL     OW94628  10.307   3.335   1.107 -0.3569 -0.3389  0.1812
30874SOL    HW194629  10.253   3.261   1.080 -1.5560  0.6008 -0.1111
30874SOL    HW294630  10.367   3.349   1.034 -0.9066 -0.3224 -0.2807
30875SOL     OW94631  10.024   8.956   2.551 -0.5653 -0.0550  0.0862
30875SOL    HW194632   9.931   8.976   2.558 -0.7818 -1.4721  1.7357
30875SOL    HW294633  10.043   8.966   2.458 -2.0213  1.6313 -0.0794
30876SOL     OW94634   6.108   3.707  10.866 -0.6109 -0.3901  0.6303
30876SOL    HW194635   6.029   3.752  10.897  1.2090  1.6154  2.7930
30876SOL    HW294636   6.128   3.644  10.935 -1.7542 -2.9384 -1.2266
30877SOL     OW94637   8.047   2.066   3.627 -0.4699  0.0713 -0.1493
30877SOL    HW194638   8.018   2.088   3.716 -1.5569 -0.1310 -0.4338
30877SOL    HW294639   8.135   2.102   3.620  0.4932 -1.7293  1.7430
30878SOL     OW94640   8.398   2.520   9.901  0.1568 -0.3918 -0.1609
30878SOL    HW194641   8.376   2.614   9.900  0.0711 -0.3986  0.6537
30878SOL    HW294642   8.414   2.499   9.809 -1.1864  0.0952 -0.5271
30879SOL     OW94643   9.851   7.176   9.608 -0.7713  0.2375  0.3600
30879SOL    HW194644   9.911   7.186   9.682  3.3573 -1.5489 -2.4023
30879SOL    HW294645   9.819   7.086   9.614  0.6497 -0.3700 -0.6273
30880SOL     OW94646   0.968   2.084   8.129 -0.8301 -0.2571 -0.2182
30880SOL    HW194647   0.894   2.142   8.115 -0.1591  1.1148  1.4617
30880SOL    HW294648   1.025   2.133   8.189  0.4459 -2.0892  0.1455
30881SOL     OW94649   9.733  10.775   1.986  0.1832  0.5685 -0.3166
30881SOL    HW194650   9.761  10.810   1.901  2.1656  0.9916  0.4468
30881SOL    HW294651   9.754  10.682   1.981 -1.4009  0.2253 -0.9218
30882SOL     OW94652   0.857   6.143   5.609  0.0502  0.3553  0.2108
30882SOL    HW194653   0.788   6.199   5.574  0.4436  0.6748 -0.0720
30882SOL    HW294654   0.925   6.145   5.541 -0.0094 -0.6209  0.1131
30883SOL     OW94655   3.161   7.948   0.706 -0.2408 -0.2432 -0.3555
30883SOL    HW194656   3.091   8.005   0.739  0.2154  1.6869 -2.4513
30883SOL    HW294657   3.242   7.994   0.729  0.3404 -1.8066  0.8923
30884SOL     OW94658   1.041  10.417   6.874  0.1229 -0.0110 -0.3085
30884SOL    HW194659   1.107  10.451   6.934 -0.9175 -1.1425  1.5550
30884SOL    HW294660   0.961  10.463   6.897 -0.2737 -0.3770 -0.9184
30885SOL     OW94661   1.189   7.060   5.608 -0.0672 -0.0656 -0.4219
30885SOL    HW194662   1.236   6.976   5.605  1.4703  0.7656 -2.0720
30885SOL    HW294663   1.189   7.084   5.700  2.2578 -0.4511 -0.2481
30886SOL     OW94664   6.503   4.265   3.585 -0.2685 -0.5572 -0.1821
30886SOL    HW194665   6.477   4.179   3.551 -1.7923 -0.2364  0.0912
30886SOL    HW294666   6.519   4.318   3.507  1.4289 -1.2710 -0.3564
30887SOL     OW94667   8.105   4.122   2.766  0.1423 -0.9582 -0.6633
30887SOL    HW194668   8.185   4.088   2.807 -0.6677 -0.4830  1.4464
30887SOL    HW294669   8.134   4.155   2.681  2.5801  0.8805  0.7620
30888SOL     OW94670   1.697   3.492   1.562  0.3747 -0.6139 -0.0036
30888SOL    HW194671   1.617   3.478   1.511 -0.3596 -0.6109  1.1103
30888SOL    HW294672   1.694   3.584   1.587 -0.1067 -0.9741  1.3651
30889SOL     OW94673   5.155   6.185   1.150 -0.3177  0.3543  0.1397
30889SOL    HW194674   5.112   6.106   1.183  1.6234 -0.1788  1.5648
30889SOL    HW294675   5.084   6.248   1.139 -1.8145 -1.3146 -0.2876
30890SOL     OW94676   2.410   5.793   2.333 -0.5916  0.1009  0.1530
30890SOL    HW194677   2.473   5.740   2.380  0.8161  0.5284 -1.1570
30890SOL    HW294678   2.342   5.813   2.397  1.3416  0.8647  2.0682
30891SOL     OW94679   9.002   2.837   2.675  0.4375 -0.9420  0.2245
30891SOL    HW194680   9.005   2.919   2.626  2.6224 -0.7353  0.6136
30891SOL    HW294681   8.915   2.835   2.714  0.0762  0.7994 -0.4219
30892SOL     OW94682   7.408   5.807   4.256  0.0575  0.2282  0.0348
30892SOL    HW194683   7.315   5.798   4.278  0.5274 -0.2533  2.0793
30892SOL    HW294684   7.451   5.736   4.304  1.5334  0.6886 -0.5428
30893SOL     OW94685   8.513   3.962   5.300  0.0809  0.0353  0.4056
30893SOL    HW194686   8.526   3.880   5.254  0.9099  0.5644 -0.3391
30893SOL    HW294687   8.465   3.938   5.380  1.3762 -1.3404  0.8147
30894SOL     OW94688   5.231   5.422   8.003 -0.4008 -0.1565  0.2700
30894SOL    HW194689   5.206   5.478   7.930  0.9794 -0.4247 -0.4347
30894SOL    HW294690   5.323   5.442   8.018 -0.3116 -1.0838  1.0495
30895SOL     OW94691   9.065   9.698   1.825  0.2606 -0.5864 -0.3150
30895SOL    HW194692   8.994   9.734   1.773 -0.4156  0.8263  1.4856
30895SOL    HW294693   9.057   9.603   1.814 -0.6993 -0.3664 -1.6642
30896SOL     OW94694   1.008  10.731   2.706  0.2984 -0.0989  0.3301
30896SOL    HW194695   1.032  10.643   2.679 -1.4149 -1.3685  2.6386
30896SOL    HW294696   0.946  10.761   2.639  1.9936  0.0312 -1.2694
30897SOL     OW94697   4.201   0.250   6.377 -0.0914 -0.0232  0.0498
30897SOL    HW194698   4.141   0.319   6.350 -2.1595 -1.7308 -0.0261
30897SOL    HW294699   4.201   0.188   6.303 -0.2990 -1.3123  1.0876
30898SOL     OW94700   1.291  10.501   0.074  0.8810  0.7335 -0.5665
30898SOL    HW194701   1.379  10.531   0.099  0.9366 -1.0847  1.6590
30898SOL    HW294702   1.306  10.445  -0.003  1.4304  1.6924 -1.1870
30899SOL     OW94703   9.826   8.577   3.091  0.4058 -0.5045  0.2894
30899SOL    HW194704   9.827   8.526   3.173  3.0574 -0.3758  0.4333
30899SOL    HW294705   9.845   8.512   3.023  0.8067 -0.2091  0.1138
30900SOL     OW94706   4.877   1.027   6.928 -0.1999  0.0406  0.2355
30900SOL    HW194707   4.971   1.009   6.930  0.1902  1.4654 -1.8063
30900SOL    HW294708   4.843   0.970   6.858 -1.2065 -1.6541  2.0200
30901SOL     OW94709   2.638   3.237   6.619 -1.0078 -0.0851 -0.6654
30901SOL    HW194710   2.573   3.284   6.672  0.8012  0.7993  0.9039
30901SOL    HW294711   2.662   3.299   6.550 -0.2094  0.4913  0.1088
30902SOL     OW94712   2.911  10.992   0.719 -0.1077 -1.3050  0.4896
30902SOL    HW194713   2.936  10.986   0.811 -1.9676 -0.4852  1.0852
30902SOL    HW294714   2.885  10.902   0.696  1.7779 -1.8470  0.2767
30903SOL     OW94715   2.741   9.871   4.213  0.1245 -0.1178  0.6845
30903SOL    HW194716   2.798   9.883   4.289  1.6749 -1.6052 -0.1779
30903SOL    HW294717   2.791   9.815   4.154 -0.6128  1.7281 -1.8778
30904SOL     OW94718   4.498   3.825   0.586 -0.0809 -0.4691  0.1760
30904SOL    HW194719   4.529   3.764   0.653 -0.3261 -0.3809  0.3741
30904SOL    HW294720   4.561   3.818   0.515 -0.1185 -0.9688  0.1908
30905SOL     OW94721   5.097  11.088   8.525  0.0999  0.2999  0.1543
30905SOL    HW194722   5.163  11.038   8.573  2.7554 -0.2281 -3.5573
30905SOL    HW294723   5.147  11.154   8.477 -1.5446 -1.3726 -4.4370
30906SOL     OW94724   9.512   0.773   8.934  0.3677  0.0467 -0.1764
30906SOL    HW194725   9.574   0.825   8.885  0.5175  0.3692  0.3459
30906SOL    HW294726   9.447   0.745   8.870 -0.1508  1.5243 -0.3240
30907SOL     OW94727   2.397  10.533   6.763  0.1379  0.6955  0.3108
30907SOL    HW194728   2.370  10.471   6.831 -0.5734  1.9647  1.2237
30907SOL    HW294729   2.391  10.619   6.804 -0.4056  1.5245 -1.3883
30908SOL     OW94730   3.583   0.220   8.040 -0.4554  0.5538  0.4289
30908SOL    HW194731   3.623   0.181   8.118 -2.4334 -0.3016  1.0819
30908SOL    HW294732   3.641   0.292   8.017 -0.3938  1.5728  3.3630
30909SOL     OW94733   4.209   1.287   6.015  0.1864 -0.5084 -0.8843
30909SOL    HW194734   4.121   1.271   6.050 -1.0413  1.2668 -2.8610
30909SOL    HW294735   4.257   1.206   6.033 -0.3098 -0.0006  4.3572
30910SOL     OW94736   3.278   4.093   1.497 -0.1755  0.2073  0.2101
30910SOL    HW194737   3.195   4.130   1.467 -0.0462  1.7847  1.5931
30910SOL    HW294738   3.344   4.155   1.465  0.3415 -0.3629  0.1658
30911SOL     OW94739   6.754   7.022  11.052 -1.2550 -0.3584 -0.5363
30911SOL    HW194740   6.704   6.983  10.981 -0.3953  2.2265 -2.7149
30911SOL    HW294741   6.690   7.072  11.103 -1.1868  2.3607 -2.8957
30912SOL     OW94742   8.888   5.735   8.223 -0.2725 -0.2265 -0.5190
30912SOL    HW194743   8.837   5.672   8.172 -1.1777  0.3056 -0.3097
30912SOL    HW294744   8.864   5.820   8.185  0.5170  0.0282 -0.4495
30913SOL     OW94745   4.924   0.152   5.219 -0.2088 -0.4274  0.0256
30913SOL    HW194746   4.944   0.216   5.151 -0.8438  0.4335  0.6448
30913SOL    HW294747   4.904   0.072   5.171 -3.8726  0.9568 -1.0417
30914SOL     OW94748   4.551   8.542   7.025 -0.4918  0.4885  0.2342
30914SOL    HW194749   4.483   8.538   6.959  1.6007  0.8847 -2.1149
30914SOL    HW294750   4.526   8.615   7.082 -1.5492  1.2634 -1.1563
30915SOL     OW94751  10.295   9.001   9.200 -0.3742 -0.4859  0.5175
30915SOL    HW194752  10.220   8.947   9.175  0.1477 -0.9594 -0.0679
30915SOL    HW294753  10.357   8.991   9.128  0.0845  0.2222  0.8051
30916SOL     OW94754   9.695   5.641   4.239 -0.5185  0.0650  0.4682
30916SOL    HW194755   9.777   5.605   4.274 -1.0670  0.9446  2.8285
30916SOL    HW294756   9.639   5.564   4.227  0.0753 -0.3730  0.4324
30917SOL     OW94757   4.244   6.063   8.517 -0.9677 -0.0556 -0.2511
30917SOL    HW194758   4.197   6.129   8.467 -0.1972  1.1806  0.6024
30917SOL    HW294759   4.222   6.082   8.609 -1.7365 -1.7807 -0.0402
30918SOL     OW94760  10.005   6.248   1.460 -0.4007 -0.6456 -0.0796
30918SOL    HW194761  10.053   6.276   1.382 -0.0463  0.0827  0.3820
30918SOL    HW294762  10.054   6.173   1.493 -0.7680 -1.1967 -0.7577
30919SOL     OW94763   6.463  10.447  10.284  0.4250 -0.3862 -0.1693
30919SOL    HW194764   6.384  10.438  10.230  1.4693  0.0670 -1.8621
30919SOL    HW294765   6.530  10.399  10.236  1.4142  0.0345  0.7456
30920SOL     OW94766   1.641   5.916   8.205  0.0421 -0.4774  0.7358
30920SOL    HW194767   1.709   5.890   8.267  0.6806 -0.2058  0.1531
30920SOL    HW294768   1.565   5.864   8.230  0.4378 -0.7235  1.4418
30921SOL     OW94769   0.278   2.219  10.885  0.1045 -0.4038 -0.0209
30921SOL    HW194770   0.211   2.159  10.854  2.7087 -2.4565 -2.1733
30921SOL    HW294771   0.346   2.163  10.921  1.1983  1.5103  1.0846
30922SOL     OW94772   4.691  10.451   7.502 -0.3536  0.9080 -0.3713
30922SOL    HW194773   4.618  10.428   7.559 -0.5329  0.2970 -0.8394
30922SOL    HW294774   4.694  10.546   7.504 -2.1252  1.0212 -1.5336
30923SOL     OW94775   9.855   0.369  11.105  0.4138 -0.3606 -0.0764
30923SOL    HW194776   9.915   0.427  11.059  0.0956  1.2135  1.4093
30923SOL    HW294777   9.872   0.384  11.198 -0.3629 -1.9368  0.3619
30924SOL     OW94778   4.751  10.101   9.514 -0.8329  0.4359  0.1303
30924SOL    HW194779   4.718  10.171   9.570  0.0375  1.1652 -0.2430
30924SOL    HW294780   4.688  10.030   9.526 -2.4111  1.6716 -0.3938
30925SOL     OW94781   0.157   0.938   6.641  0.7406 -0.4345  0.2208
30925SOL    HW194782   0.161   1.034   6.636  1.8887 -0.5084 -0.5374
30925SOL    HW294783   0.063   0.918   6.638  0.5333  0.5581 -2.0267
30926SOL     OW94784   6.421   8.706   7.116  0.3893 -0.3251 -0.0190
30926SOL    HW194785   6.383   8.649   7.049 -0.5759  1.1277 -0.7608
30926SOL    HW294786   6.431   8.791   7.072  1.8243  0.0924  1.0366
30927SOL     OW94787   4.254   5.976   5.015 -0.0211 -0.2298 -0.7087
30927SOL    HW194788   4.186   5.937   4.959  0.5474 -2.7309  0.1989
30927SOL    HW294789   4.334   5.970   4.963  0.7355 -3.5887  0.5585
30928SOL     OW94790   8.658   0.188   9.358  0.4227 -0.0329 -0.4976
30928SOL    HW194791   8.748   0.186   9.324  0.6757  2.7514 -0.2266
30928SOL    HW294792   8.654   0.270   9.408 -2.3207 -0.0263 -0.6256
30929SOL     OW94793   5.565   0.317   4.580 -0.9259 -0.0825 -0.0359
30929SOL    HW194794   5.506   0.292   4.509 -0.6815 -1.1509  0.1182
30929SOL    HW294795   5.597   0.404   4.555 -1.9877  0.1879 -0.4837
30930SOL     OW94796   6.964   2.729   8.634  0.0187  0.3825  0.5624
30930SOL    HW194797   7.027   2.772   8.575  0.2867 -0.3979  0.2533
30930SOL    HW294798   6.888   2.712   8.578 -0.0613  0.4126  0.6639
30931SOL     OW94799   2.325   4.393   5.546 -0.0275 -0.1376  0.2639
30931SOL    HW194800   2.354   4.444   5.471 -0.1957 -2.2223 -1.3293
30931SOL    HW294801   2.367   4.433   5.621  0.0471  2.1097 -0.9092
30932SOL     OW94802   9.212   9.166   4.979 -0.5183  0.1620 -0.2008
30932SOL    HW194803   9.121   9.151   5.002 -0.1766 -0.6573  0.6976
30932SOL    HW294804   9.230   9.103   4.909 -0.8319  0.8265 -0.8885
30933SOL     OW94805   2.262  10.761   0.360 -0.5808  0.4371  0.5943
30933SOL    HW194806   2.268  10.857   0.360 -1.4654  0.5375 -1.2090
30933SOL    HW294807   2.316  10.734   0.434  4.1456  2.0493 -1.8591
30934SOL     OW94808  11.120  10.299   5.023 -0.2205 -0.5916 -0.2437
30934SOL    HW194809  11.199  10.345   4.996 -0.7956  0.1293 -0.7481
30934SOL    HW294810  11.151  10.224   5.073  0.7471  0.1043  0.2162
30935SOL     OW94811   8.278  11.170   3.718  0.0041 -0.2423  0.5640
30935SOL    HW194812   8.246  11.203   3.802  0.8237 -1.2294  1.2825
30935SOL    HW294813   8.228  11.090   3.703 -0.2175 -0.0116  0.0471
30936SOL     OW94814   6.847   1.394   9.756 -0.4080  0.1077  0.7074
30936SOL    HW194815   6.920   1.332   9.754  0.0765  0.6909 -0.1118
30936SOL    HW294816   6.849   1.437   9.671 -0.4560  1.5788  1.4130
30937SOL     OW94817   9.319   1.481   3.270  0.7035 -0.0527  0.5800
30937SOL    HW194818   9.271   1.398   3.266  0.4268  0.1682 -1.6898
30937SOL    HW294819   9.395   1.468   3.214  2.3053  0.2930  2.5405
30938SOL     OW94820   9.665   8.994   2.310  0.2816  0.2497  0.4022
30938SOL    HW194821   9.729   8.932   2.275  0.8289  0.6963  0.5991
30938SOL    HW294822   9.700   9.019   2.395 -1.0952 -0.9335  1.3812
30939SOL     OW94823  10.620  11.015   3.430  0.1236  0.1408  0.9219
30939SOL    HW194824  10.535  10.978   3.406 -0.0110  0.9704  0.0351
30939SOL    HW294825  10.634  11.085   3.366  1.2261  0.3712  1.3944
30940SOL     OW94826  10.944   5.558   9.250 -0.1137  0.1053 -1.0144
30940SOL    HW194827  11.025   5.584   9.206 -0.0847 -1.3307 -1.8634
30940SOL    HW294828  10.937   5.464   9.235 -1.9475  0.1982 -0.9750
30941SOL     OW94829  10.118   0.299   9.845  0.0311 -0.4570 -0.0053
30941SOL    HW194830  10.099   0.390   9.870  1.5828 -0.9050  3.2954
30941SOL    HW294831  10.190   0.306   9.782  0.3537  0.6063  0.4599
30942SOL     OW94832   6.054  10.517   7.482 -0.3084  0.4536  0.6462
30942SOL    HW194833   6.086  10.562   7.404  2.2993  1.2598  2.0670
30942SOL    HW294834   6.103  10.435   7.484  0.8977  1.1456  2.1999
30943SOL     OW94835  10.015   8.975   9.577 -0.0393  0.0788 -0.1394
30943SOL    HW194836  10.004   8.894   9.526 -0.1670  0.4232 -0.6667
30943SOL    HW294837   9.959   8.964   9.653  0.2690 -0.5088  0.0068
30944SOL     OW94838   7.760   5.000   3.849  0.1118  0.1943  0.4515
30944SOL    HW194839   7.855   5.001   3.856  0.0121  1.3614  2.5787
30944SOL    HW294840   7.735   4.909   3.865  0.8135  0.1732  1.5087
30945SOL     OW94841   5.683   2.606   7.147  0.5136 -0.0318  0.0104
30945SOL    HW194842   5.756   2.650   7.190  0.4746  0.7472 -0.7031
30945SOL    HW294843   5.717   2.519   7.126  2.0515  1.0048 -2.2894
30946SOL     OW94844   8.955  10.923   5.793 -0.4111  0.8033 -0.4530
30946SOL    HW194845   8.927  10.937   5.884  2.4670  0.5361  0.5702
30946SOL    HW294846   9.001  11.003   5.769 -0.6042  0.6221 -1.4949
30947SOL     OW94847   9.238   0.460   6.501  0.1957 -0.6294  0.6806
30947SOL    HW194848   9.321   0.421   6.527  0.3699  0.5015  1.9272
30947SOL    HW294849   9.262   0.531   6.442  0.1436 -0.1637  1.2116
30948SOL     OW94850   5.975   5.239   3.067 -0.6328  0.8607 -0.4928
30948SOL    HW194851   6.033   5.308   3.099  1.7314 -1.3736  0.3929
30948SOL    HW294852   5.932   5.205   3.145 -0.0447 -0.0939 -0.5609
30949SOL     OW94853   4.474   1.129  10.476  0.0986 -0.5091  0.1274
30949SOL    HW194854   4.452   1.173  10.394  2.0733 -0.5385 -0.4856
30949SOL    HW294855   4.463   1.036  10.457 -1.9144 -0.4432  0.7359
30950SOL     OW94856   8.122   2.932   6.443 -0.0878  0.5905 -0.5654
30950SOL    HW194857   8.132   2.874   6.518 -1.3789  0.9685 -0.0811
30950SOL    HW294858   8.122   2.873   6.367  2.4596  0.2938 -0.4519
30951SOL     OW94859   2.338   1.574   0.753  0.1456  0.1774 -0.1799
30951SOL    HW194860   2.297   1.563   0.839 -0.2094 -0.3449 -0.4122
30951SOL    HW294861   2.423   1.612   0.773  1.1577 -2.3045  0.6440
30952SOL     OW94862   6.485   4.404   9.567 -0.5057  0.5008  0.4695
30952SOL    HW194863   6.466   4.496   9.552  0.7314  0.4929 -1.5365
30952SOL    HW294864   6.416   4.357   9.519  0.9136  0.4617 -1.6846
30953SOL     OW94865   2.426   3.675   5.843  0.1109  0.0734  0.1830
30953SOL    HW194866   2.475   3.608   5.889 -1.0978  1.2885  3.5866
30953SOL    HW294867   2.490   3.743   5.822  1.0178 -1.3067 -1.7716
30954SOL     OW94868   2.302   7.531   3.387  0.7422  0.0926 -0.0364
30954SOL    HW194869   2.356   7.488   3.454 -1.0696 -1.0080  0.7702
30954SOL    HW294870   2.273   7.612   3.427  2.4914  1.1767 -0.8234
30955SOL     OW94871  10.026   9.249   9.555 -0.7245  0.8176 -0.6768
30955SOL    HW194872  10.070   9.275   9.475 -1.1146  0.6208 -0.9579
30955SOL    HW294873  10.001   9.158   9.541  0.5469  0.2930  0.2644
30956SOL     OW94874   5.650   5.010   6.702 -0.2992  0.1289  0.7486
30956SOL    HW194875   5.637   5.042   6.792 -1.6960  0.0079  0.6157
30956SOL    HW294876   5.727   5.057   6.671 -0.5382  1.1250  1.5957
30957SOL     OW94877   5.380   4.273   6.711 -0.1989  0.2278  1.0177
30957SOL    HW194878   5.470   4.239   6.706  0.5446  2.1002  0.7139
30957SOL    HW294879   5.350   4.250   6.798  0.7237 -0.1028  1.2546
30958SOL     OW94880   9.990   1.093   2.320  0.5940 -0.3878  0.2148
30958SOL    HW194881  10.006   1.175   2.368 -0.6110 -0.7554  1.2911
30958SOL    HW294882   9.968   1.122   2.231  0.7009  0.4284  0.4430
30959SOL     OW94883   3.242   6.963   0.934 -0.1148  0.7788  0.4599
30959SOL    HW194884   3.284   7.015   0.865 -0.3156  0.9838  0.4908
30959SOL    HW294885   3.154   6.946   0.901 -0.0016  0.3354  0.3885
30960SOL     OW94886   0.096   1.944   6.842 -0.4047 -0.4929 -0.4261
30960SOL    HW194887   0.005   1.928   6.820 -1.5166  2.0721  1.7475
30960SOL    HW294888   0.128   1.862   6.878 -1.9085 -1.3622 -1.0059
30961SOL     OW94889   6.140   6.767   2.667  0.3351  0.7704 -0.7480
30961SOL    HW194890   6.089   6.758   2.587 -0.9175  0.5345  0.0328
30961SOL    HW294891   6.075   6.759   2.737  1.0816  2.8115  0.2790
30962SOL     OW94892   1.356   2.104   4.003  0.1285 -0.3375 -0.2442
30962SOL    HW194893   1.359   2.199   3.996  1.1260 -0.2669  0.7330
30962SOL    HW294894   1.436   2.081   4.052  0.2666 -1.7340 -1.0630
30963SOL     OW94895   4.890   6.008   3.343 -0.4023  0.1230 -0.3093
30963SOL    HW194896   4.952   5.949   3.386 -0.3673  1.0957  1.0357
30963SOL    HW294897   4.866   5.963   3.262  0.8752 -0.9744 -0.1108
30964SOL     OW94898   4.105  10.403   0.483 -0.1374 -0.0167 -0.5406
30964SOL    HW194899   4.134  10.383   0.393  0.6028  1.4354 -0.6449
30964SOL    HW294900   4.010  10.414   0.476 -0.0636  0.2526 -1.1784
30965SOL     OW94901   4.386   2.421   3.445 -0.3939  0.1890  0.1485
30965SOL    HW194902   4.466   2.409   3.497  0.0212  1.3563 -0.1814
30965SOL    HW294903   4.316   2.421   3.511 -0.3200 -2.2017  0.3206
30966SOL     OW94904   2.745   6.943   5.527  0.0776 -1.2359 -0.7936
30966SOL    HW194905   2.708   6.861   5.559 -0.8677 -0.1160  1.1522
30966SOL    HW294906   2.671   6.989   5.487  0.2541 -0.6920 -0.5081
30967SOL     OW94907   5.717  10.128   1.639  0.0663  0.2266  0.7783
30967SOL    HW194908   5.772  10.130   1.560  0.6251 -1.0026  1.1057
30967SOL    HW294909   5.668  10.046   1.631  0.8806 -0.4338  2.1716
30968SOL     OW94910   0.713   7.091  11.191  0.2927  0.3705  0.0037
30968SOL    HW194911   0.682   7.025  11.129 -0.4605  0.7152 -0.0000
30968SOL    HW294912   0.761   7.041  11.257  0.8298 -0.0317 -0.6796
30969SOL     OW94913   3.687   4.927   4.949  0.1187  0.5979  0.4590
30969SOL    HW194914   3.705   5.020   4.946  1.7731  0.2761 -1.6052
30969SOL    HW294915   3.762   4.889   4.995 -0.5778  0.2450  1.3558
30970SOL     OW94916   5.541   0.943   8.371  0.0891  0.2313  0.2189
30970SOL    HW194917   5.519   1.032   8.399  1.9028  1.2826 -1.4609
30970SOL    HW294918   5.578   0.954   8.284  0.8129 -2.1373  0.1715
30971SOL     OW94919   9.040   9.408   4.848  0.4033  0.1083 -0.4948
30971SOL    HW194920   8.989   9.490   4.849  0.3631  0.3295 -4.5597
30971SOL    HW294921   9.131   9.436   4.846  0.5228 -0.1117  0.7627
30972SOL     OW94922   8.120   7.156   2.814  0.1566 -0.7299 -0.3030
30972SOL    HW194923   8.049   7.095   2.834  2.0484 -2.3977  2.0295
30972SOL    HW294924   8.169   7.114   2.743  0.4186 -1.0436  0.0573
30973SOL     OW94925   9.217   2.758   8.608  1.1093  0.8839  0.1330
30973SOL    HW194926   9.298   2.805   8.590  0.7309  1.5506  0.1195
30973SOL    HW294927   9.153   2.827   8.626  1.0176  0.3430  2.2274
30974SOL     OW94928   4.750   5.534   9.337  0.6877  0.2066  0.1120
30974SOL    HW194929   4.734   5.484   9.417  0.0504  1.4659  0.7851
30974SOL    HW294930   4.785   5.469   9.276  1.2633 -0.7671  1.4190
30975SOL     OW94931   6.594  11.179   3.662  0.1665  0.0237 -0.3448
30975SOL    HW194932   6.669  11.229   3.694 -1.0821  1.5107  0.3498
30975SOL    HW294933   6.619  11.087   3.677  1.9165  0.4627 -0.3414
30976SOL     OW94934  10.449   4.401   0.017  0.3226 -0.5227 -0.3897
30976SOL    HW194935  10.448   4.398   0.112  0.9199 -0.3218 -0.3702
30976SOL    HW294936  10.410   4.318  -0.011  1.1864 -1.0780  0.0344
30977SOL     OW94937   0.162   6.051   3.039 -0.0994 -0.0336 -0.4412
30977SOL    HW194938   0.238   6.095   3.000  0.6146 -1.0131 -0.1620
30977SOL    HW294939   0.088   6.081   2.986  0.3524  1.5375 -0.2369
30978SOL     OW94940  10.274   1.073   4.314 -0.3295  0.3408  0.2917
30978SOL    HW194941  10.298   1.040   4.400 -1.5110  0.9681  0.8928
30978SOL    HW294942  10.182   1.048   4.303  0.3298 -1.5621 -1.7089
30979SOL     OW94943   8.302   8.609   2.104  0.1679  0.3207 -0.4184
30979SOL    HW194944   8.209   8.632   2.101  0.0448  0.1826 -4.9805
30979SOL    HW294945   8.305   8.530   2.158 -2.3032  0.5468  0.1691
30980SOL     OW94946   9.254   7.810   6.607  0.9577  0.3355 -0.3777
30980SOL    HW194947   9.337   7.762   6.610  1.5166  1.3117  0.4913
30980SOL    HW294948   9.239   7.827   6.514 -0.2373 -3.1082 -0.9451
30981SOL     OW94949   9.339   1.255   4.112  0.4068 -0.1849  0.0881
30981SOL    HW194950   9.291   1.190   4.163 -1.0141 -0.3064 -1.2963
30981SOL    HW294951   9.270   1.303   4.065  1.5348  1.1285 -0.2768
30982SOL     OW94952   0.519   2.494   1.050  0.0141  0.3861 -0.0704
30982SOL    HW194953   0.485   2.407   1.028  4.8938 -1.8584  0.1224
30982SOL    HW294954   0.548   2.529   0.966  2.5669 -0.4834  0.3693
30983SOL     OW94955  10.905   4.690  11.148 -0.1111 -0.1767 -0.5459
30983SOL    HW194956  10.901   4.732  11.063  1.7783 -2.1818 -1.7286
30983SOL    HW294957  10.817   4.653  11.161 -0.3297 -0.1058 -1.7812
30984SOL     OW94958   7.572   6.728   3.935  0.3229  0.2676  0.1778
30984SOL    HW194959   7.480   6.756   3.933  0.4958  0.8314 -0.4714
30984SOL    HW294960   7.592   6.706   3.844  0.6245 -0.5671  0.4442
30985SOL     OW94961   1.791   1.960   3.171 -0.0110 -0.0564  0.1090
30985SOL    HW194962   1.818   2.038   3.221 -1.5778 -0.5199  1.7953
30985SOL    HW294963   1.753   1.994   3.091  0.0441  0.8689  0.4668
30986SOL     OW94964   9.426   7.396   5.444 -0.0102 -0.0031  0.3085
30986SOL    HW194965   9.432   7.307   5.478 -2.0555 -0.4182 -0.2997
30986SOL    HW294966   9.382   7.386   5.359 -0.9722  1.6629  0.5759
30987SOL     OW94967   4.056  10.359   9.514 -0.5409 -0.4611 -0.3274
30987SOL    HW194968   4.117  10.286   9.513 -1.8327 -1.6208 -2.6262
30987SOL    HW294969   4.105  10.432   9.476  0.5890 -0.2044  1.5058
30988SOL     OW94970   9.739  10.850   0.479  0.3777 -0.4909  0.0040
30988SOL    HW194971   9.722  10.902   0.558  1.8010 -1.0615  0.7106
30988SOL    HW294972   9.826  10.877   0.450 -0.3655  0.1679 -1.7671
30989SOL     OW94973   1.667   2.429   5.961  0.1002 -0.0595  0.2306
30989SOL    HW194974   1.719   2.355   5.992  0.2256  0.3294  0.9760
30989SOL    HW294975   1.608   2.449   6.033 -1.5453 -0.8868 -0.8313
30990SOL     OW94976   9.809   7.066   2.366  1.3126  0.1068  0.6117
30990SOL    HW194977   9.869   7.093   2.436  0.2326  5.5221 -0.1113
30990SOL    HW294978   9.737   7.024   2.412  2.9025 -1.1552  2.1034
30991SOL     OW94979   0.068   2.138   2.500 -0.3235 -0.0758  0.1213
30991SOL    HW194980   0.043   2.101   2.585 -1.9693  3.9298  1.6366
30991SOL    HW294981  -0.016   2.153   2.456  0.1901  1.9463 -0.2413
30992SOL     OW94982   9.529  11.159   5.734  0.1651  0.0385 -0.4348
30992SOL    HW194983   9.548  11.069   5.761 -3.2240 -0.8980 -0.7267
30992SOL    HW294984   9.572  11.214   5.799 -0.2334 -1.8869  1.5550
30993SOL     OW94985   4.348   2.240   3.114  0.1097  0.3135 -0.1443
30993SOL    HW194986   4.303   2.319   3.145  0.1285  0.5098 -0.6129
30993SOL    HW294987   4.402   2.213   3.188 -0.2138  0.5021  0.1641
30994SOL     OW94988   5.106   2.422  11.048 -0.3901 -0.4318 -0.6425
30994SOL    HW194989   5.170   2.400  11.116 -2.3363 -0.6424  1.2477
30994SOL    HW294990   5.149   2.398  10.966  2.3972  0.5659  0.3947
30995SOL     OW94991   5.116   9.328   0.139  0.2931 -0.3310 -0.0807
30995SOL    HW194992   5.042   9.339   0.080  0.2219 -1.3751 -0.2049
30995SOL    HW294993   5.122   9.411   0.186  0.5305  0.6384 -1.7511
30996SOL     OW94994   4.302   3.927   3.367 -0.0668  0.0241 -0.6786
30996SOL    HW194995   4.245   3.995   3.331  1.3830  1.4788 -0.3508
30996SOL    HW294996   4.245   3.850   3.378 -1.5529  0.9122 -1.8552
30997SOL     OW94997   0.107  10.296   6.692  0.8418  0.3800 -0.1125
30997SOL    HW194998   0.158  10.344   6.626  2.2336 -1.4596 -0.4485
30997SOL    HW294999   0.098  10.208   6.656 -2.8469  0.6295 -0.1517
30998SOL     OW95000   9.783   8.436   5.517 -0.0356  0.2594  0.6596
30998SOL    HW195001   9.798   8.388   5.435 -1.3192  2.1289 -0.7621
30998SOL    HW295002   9.799   8.371   5.586 -0.5996 -1.8859 -1.1059
30999SOL     OW95003   4.415  10.776   1.815  0.3054  0.6031 -0.1539
30999SOL    HW195004   4.505  10.783   1.848 -0.4170  2.4925  1.6326
30999SOL    HW295005   4.404  10.854   1.759  0.1770 -0.3671 -1.5329
31000SOL     OW95006   1.015   9.974   7.031 -0.2260  0.4448 -0.4798
31000SOL    HW195007   0.928   9.935   7.020 -0.4983  0.5859  0.9722
31000SOL    HW295008   1.053   9.927   7.106  0.9371  0.4180 -1.0614
31001SOL     OW95009   9.396   2.867  10.807 -0.1691 -0.0751 -0.7512
31001SOL    HW195010   9.307   2.842  10.781 -0.2673 -0.0731 -0.4273
31001SOL    HW295011   9.453   2.818  10.747 -0.3993  0.8736 -1.7734
31002SOL     OW95012   9.314   8.096   5.304  0.3309  0.1922  0.5193
31002SOL    HW195013   9.346   8.186   5.297  0.2747  0.1854  0.1768
31002SOL    HW295014   9.391   8.046   5.331  0.8068  0.0585 -1.0284
31003SOL     OW95015   7.241   8.601   7.816  0.2263  0.1097  0.0184
31003SOL    HW195016   7.309   8.655   7.774  0.4078  0.6669  0.9814
31003SOL    HW295017   7.225   8.530   7.755  2.2406 -0.4627  0.0945
31004SOL     OW95018   6.449   8.240   4.042 -0.0335  0.3630  0.0318
31004SOL    HW195019   6.431   8.329   4.071 -0.8587 -0.5902  2.7366
31004SOL    HW295020   6.545   8.232   4.046 -0.0418  0.6927  1.2968
31005SOL     OW95021   3.634   6.724   7.825  0.8863 -0.0557 -0.6415
31005SOL    HW195022   3.603   6.789   7.762 -0.3060 -1.7180 -1.8843
31005SOL    HW295023   3.715   6.690   7.788  3.0660  2.5286  1.3726
31006SOL     OW95024   0.437   2.920   4.541 -0.0588  0.3379  0.0698
31006SOL    HW195025   0.364   2.884   4.491 -0.1855  1.1885 -0.3744
31006SOL    HW295026   0.407   3.006   4.569  0.7627  0.6931 -0.1000
31007SOL     OW95027   6.984   4.216   0.598  0.0819  0.4078 -0.6538
31007SOL    HW195028   7.030   4.144   0.556 -0.7413  0.7934 -2.2823
31007SOL    HW295029   7.017   4.294   0.554 -1.0734  0.7902 -0.8666
31008SOL     OW95030   4.953   1.158   0.049 -0.0098  0.0912 -0.6317
31008SOL    HW195031   4.888   1.130  -0.016 -1.8299  2.3996  0.0669
31008SOL    HW295032   4.902   1.186   0.124  1.7445  2.4503 -0.2058
31009SOL     OW95033  10.026   1.446   0.813 -0.0293  0.6031 -0.1092
31009SOL    HW195034   9.998   1.385   0.882 -0.2697  0.3849 -0.3956
31009SOL    HW295035  10.012   1.398   0.732  0.2842  0.8499 -0.3087
31010SOL     OW95036   3.641   1.070   6.797 -0.9583  0.5375  0.6968
31010SOL    HW195037   3.667   1.082   6.705 -1.3473  0.2778  0.5512
31010SOL    HW295038   3.618   1.157   6.828 -2.3541  0.4153  0.0816
31011SOL     OW95039  11.110   8.952   4.130  0.2081  0.0599  0.1641
31011SOL    HW195040  11.142   8.864   4.114 -1.6593 -0.3588 -1.6803
31011SOL    HW295041  11.075   8.981   4.046 -3.8340  0.5472  1.7507
31012SOL     OW95042   4.877   0.501  11.172 -0.5820 -0.1590  0.0170
31012SOL    HW195043   4.867   0.419  11.221  0.4973  0.0165  0.5535
31012SOL    HW295044   4.971   0.509  11.157 -0.8287  0.1500 -1.5048
31013SOL     OW95045   5.113   7.096  10.585 -0.4444  0.7885 -0.7794
31013SOL    HW195046   5.151   7.177  10.551  0.5866  0.8979  0.5667
31013SOL    HW295047   5.142   7.029  10.522  1.7222  0.9332 -0.0450
31014SOL     OW95048   3.442   9.835  10.024  0.4098 -0.6217  0.4546
31014SOL    HW195049   3.349   9.855  10.010 -0.0121 -1.4469  1.8385
31014SOL    HW295050   3.488   9.914   9.997 -0.6857 -0.2023 -0.2831
31015SOL     OW95051   7.600   7.900   3.852 -0.0045 -0.2005  0.5657
31015SOL    HW195052   7.543   7.834   3.891  0.2011 -0.6605  0.0912
31015SOL    HW295053   7.577   7.981   3.897 -0.9665 -0.3973  0.4440
31016SOL     OW95054   7.425   5.432   2.374 -0.1040 -0.1411 -0.2216
31016SOL    HW195055   7.388   5.415   2.288  0.1418  0.6211 -0.4873
31016SOL    HW295056   7.367   5.497   2.413 -0.7738 -1.1813  0.5947
31017SOL     OW95057   1.953   7.391   4.603  0.5258  0.6627  0.2869
31017SOL    HW195058   1.938   7.426   4.516 -0.3607 -0.2027  0.0775
31017SOL    HW295059   2.016   7.320   4.590  1.3907  1.3625  0.5442
31018SOL     OW95060   9.536   1.887  10.062 -0.2803 -0.2190  0.3087
31018SOL    HW195061   9.566   1.935   9.985 -0.0272 -1.0117 -0.0925
31018SOL    HW295062   9.468   1.943  10.100  1.0355  1.1881  0.7208
31019SOL     OW95063  10.912   1.849   7.701 -0.4630  0.0662 -0.0910
31019SOL    HW195064  10.894   1.794   7.777 -1.6083  1.1337  0.4398
31019SOL    HW295065  10.999   1.823   7.673 -0.2834 -0.8027  1.1860
31020SOL     OW95066   9.733   2.297   4.031  0.1875  0.8974  0.2001
31020SOL    HW195067   9.718   2.206   4.058 -0.7272  1.2202  0.8308
31020SOL    HW295068   9.723   2.295   3.936  1.1451  0.1634  0.1037
31021SOL     OW95069   4.154   6.440   9.024 -0.4184 -0.4355 -0.1886
31021SOL    HW195070   4.206   6.517   9.001  0.0656 -1.0169 -1.1259
31021SOL    HW295071   4.072   6.475   9.058 -0.2269  0.4912 -0.6449
31022SOL     OW95072   2.242   8.965   5.995  0.2298  0.3382  0.2322
31022SOL    HW195073   2.230   8.870   6.007  1.6045  0.2298  0.8794
31022SOL    HW295074   2.155   9.002   6.010 -0.4575 -0.8684 -0.6008
31023SOL     OW95075   8.506   5.470  10.805  0.5170  0.8884 -0.6521
31023SOL    HW195076   8.532   5.430  10.722  0.3317 -0.7655  0.0338
31023SOL    HW295077   8.588   5.491  10.849  0.7727 -1.5757  0.2337
31024SOL     OW95078   7.126   8.169   5.265  0.1500  0.3841  0.5872
31024SOL    HW195079   7.203   8.215   5.232  0.1909  1.0857  1.6242
31024SOL    HW295080   7.161   8.102   5.323  0.0010  0.2304  0.5025
31025SOL     OW95081   7.106   2.853   5.715 -0.3102  0.6657 -0.0313
31025SOL    HW195082   7.154   2.787   5.664 -3.7920 -1.8152 -0.4406
31025SOL    HW295083   7.105   2.930   5.659  0.6659 -0.1713 -1.2675
31026SOL     OW95084   6.924   5.173   1.109 -0.5743 -0.9929  0.7027
31026SOL    HW195085   6.841   5.172   1.061  0.9985 -3.0685 -2.3268
31026SOL    HW295086   6.950   5.081   1.115  1.6186 -0.3973  1.3055
31027SOL     OW95087   7.156   6.535   4.455 -0.5990 -0.2606  0.0234
31027SOL    HW195088   7.164   6.628   4.474 -2.2619 -0.4861  2.2624
31027SOL    HW295089   7.241   6.498   4.479  0.1529  0.6726 -1.1032
31028SOL     OW95090   5.840   2.771   5.728 -0.1149  0.0385 -0.0127
31028SOL    HW195091   5.807   2.690   5.766 -4.7225  0.6367 -2.0363
31028SOL    HW295092   5.889   2.743   5.651  0.2114 -0.8587  0.5134
31029SOL     OW95093   9.853   6.198   1.169 -0.8043  0.6672  0.4671
31029SOL    HW195094   9.763   6.231   1.169 -0.6319  1.1573  0.8521
31029SOL    HW295095   9.906   6.274   1.193 -0.0569  0.9607 -1.9016
31030SOL     OW95096   8.132   5.288   3.039  0.3017 -0.3970 -0.0177
31030SOL    HW195097   8.217   5.316   3.073  0.5435 -1.0442 -0.0772
31030SOL    HW295098   8.075   5.285   3.117  0.6787 -1.2191  0.2447
31031SOL     OW95099  10.088   7.950   8.458 -0.4310 -0.1995 -0.2961
31031SOL    HW195100  10.148   7.995   8.399 -1.0372  1.9313  0.5945
31031SOL    HW295101  10.080   8.009   8.533 -0.4278 -2.3618  1.4943
31032SOL     OW95102  10.932   1.511   9.507  0.0529 -0.0741  0.3911
31032SOL    HW195103  10.961   1.431   9.550 -0.1405 -0.4616 -0.1912
31032SOL    HW295104  10.907   1.569   9.579  0.3814 -0.4612  0.8244
31033SOL     OW95105   8.366   5.393   8.413  0.6884  0.2251 -0.2806
31033SOL    HW195106   8.352   5.350   8.497 -0.4901  3.4221  1.3350
31033SOL    HW295107   8.312   5.345   8.351  0.0322 -1.0291  1.2129
31034SOL     OW95108   4.711  11.106   6.289  0.2289 -0.4592  0.0323
31034SOL    HW195109   4.634  11.098   6.345  1.0367  1.6495  1.5628
31034SOL    HW295110   4.686  11.170   6.223  0.1197 -1.0926 -0.5598
31035SOL     OW95111   7.829   2.753   3.821 -0.3747 -0.1171 -0.3284
31035SOL    HW195112   7.850   2.731   3.730 -0.3095  0.2255 -0.3959
31035SOL    HW295113   7.913   2.775   3.860 -0.2367 -1.3447  0.1179
31036SOL     OW95114   9.452   6.859   2.033  0.0451  0.2885  0.3445
31036SOL    HW195115   9.492   6.797   1.972 -0.0113  0.4978  0.0927
31036SOL    HW295116   9.364   6.874   1.999  0.6775  1.9654 -0.7037
31037SOL     OW95117   9.294   8.328   4.054  0.1438 -0.1743 -0.2009
31037SOL    HW195118   9.336   8.270   4.118  1.7191  1.0649 -0.0515
31037SOL    HW295119   9.207   8.291   4.042  0.2842 -1.2255  1.6433
31038SOL     OW95120   6.664   1.456   9.373  0.3793 -0.0679 -0.6016
31038SOL    HW195121   6.646   1.537   9.421  1.4247 -1.7408  2.9987
31038SOL    HW295122   6.754   1.467   9.340  1.4323 -0.5083  1.9042
31039SOL     OW95123   0.068   0.420  10.808  0.2187 -0.2755 -0.1146
31039SOL    HW195124   0.010   0.483  10.851  0.3215 -1.0519  1.2217
31039SOL    HW295125   0.143   0.413  10.866  0.3008 -1.4659 -0.3269
31040SOL     OW95126   4.682   5.968  10.375  0.9796  0.2817 -0.5324
31040SOL    HW195127   4.666   5.993  10.466  1.8382  0.1267 -0.3337
31040SOL    HW295128   4.720   6.046  10.335  1.2555  0.1240 -0.5779
31041SOL     OW95129   5.568   5.938   8.689  0.3472 -0.1111 -0.8304
31041SOL    HW195130   5.609   6.019   8.659  0.6603  0.1756  0.3027
31041SOL    HW295131   5.591   5.933   8.782 -0.6990 -0.8615 -0.5903
31042SOL     OW95132   8.204   1.283   0.530  0.0734 -0.2595  0.3693
31042SOL    HW195133   8.145   1.228   0.479 -1.2725  2.3677 -1.1461
31042SOL    HW295134   8.167   1.283   0.618 -1.5164  0.3224 -0.2593
31043SOL     OW95135   5.382   1.727   0.772  0.4692 -0.2219 -0.4931
31043SOL    HW195136   5.407   1.647   0.819  3.9542 -0.1639 -1.9558
31043SOL    HW295137   5.383   1.701   0.680 -2.5475  0.5755 -0.8315
31044SOL     OW95138   3.026   1.845   5.387 -0.9107  0.5176 -0.1247
31044SOL    HW195139   2.969   1.914   5.422  0.5916  3.0556 -2.2721
31044SOL    HW295140   2.967   1.790   5.335 -1.9674  0.9634  0.5543
31045SOL     OW95141   8.414   5.394   6.464  0.5464  0.5816  0.3920
31045SOL    HW195142   8.328   5.358   6.445  0.4691  1.2099 -0.5421
31045SOL    HW295143   8.470   5.361   6.393  0.9016  0.7362  0.5993
31046SOL     OW95144   0.632   3.598   0.532  0.2914 -0.1950 -0.0357
31046SOL    HW195145   0.715   3.562   0.499  1.1813  2.9305 -1.5490
31046SOL    HW295146   0.653   3.632   0.618  0.1504 -0.8362  0.2551
31047SOL     OW95147   0.358   0.032   0.738 -0.4244 -0.2856 -0.0613
31047SOL    HW195148   0.404   0.110   0.708 -0.7200 -0.0080  0.2054
31047SOL    HW295149   0.377   0.027   0.831 -0.1058 -0.7391 -0.1484
31048SOL     OW95150   8.773   0.266   0.719  0.1245 -0.2250  0.1945
31048SOL    HW195151   8.681   0.289   0.704  0.0943  0.3840  1.2341
31048SOL    HW295152   8.821   0.348   0.706  0.8779 -1.0091 -2.8174
31049SOL     OW95153  10.399   5.897  10.193  0.1451 -0.2542  0.2205
31049SOL    HW195154  10.377   5.983  10.156  0.0970 -0.5901 -0.5612
31049SOL    HW295155  10.419   5.843  10.116 -0.7835 -1.2103  0.6365
31050SOL     OW95156   1.830   0.877  10.218  0.3408 -0.2746  0.0655
31050SOL    HW195157   1.763   0.909  10.159 -0.3670  0.4025  1.2111
31050SOL    HW295158   1.900   0.942  10.212 -0.4421  0.7175  1.2158
31051SOL     OW95159   4.191   7.710  10.819 -0.0349  0.2913 -0.4139
31051SOL    HW195160   4.140   7.678  10.894 -0.1258 -1.8014 -1.3312
31051SOL    HW295161   4.175   7.805  10.819  0.6390  0.5177  2.7023
31052SOL     OW95162   1.867   3.181   4.049 -0.5279 -0.0176  0.7280
31052SOL    HW195163   1.798   3.115   4.040  0.6752 -1.2107 -0.0860
31052SOL    HW295164   1.845   3.228   4.130 -1.5960 -1.1987  1.1522
31053SOL     OW95165   9.903   8.209   7.150  0.0680 -0.2566 -0.0362
31053SOL    HW195166   9.853   8.232   7.072  0.1349  3.3163  0.8027
31053SOL    HW295167   9.993   8.232   7.129 -0.2461  3.1762  1.7476
31054SOL     OW95168   2.227   3.610   2.403  0.1315  0.3384  0.0045
31054SOL    HW195169   2.310   3.566   2.385  0.0673 -0.4129  1.4306
31054SOL    HW295170   2.235   3.642   2.493 -1.9477 -1.7712  1.0524
31055SOL     OW95171   6.401   2.847   7.903  0.4314  0.4895  0.2270
31055SOL    HW195172   6.425   2.784   7.972 -1.0467 -0.0772  0.2610
31055SOL    HW295173   6.309   2.829   7.886 -0.0750  2.7368  0.3032
31056SOL     OW95174   0.291   2.825   3.828  0.1053 -0.7902  0.5883
31056SOL    HW195175   0.330   2.738   3.814  1.5908 -0.1593  0.5885
31056SOL    HW295176   0.286   2.833   3.924 -0.8164 -1.1836  0.5874
31057SOL     OW95177   4.458   2.800   9.490  0.5914 -0.1299 -0.3478
31057SOL    HW195178   4.488   2.809   9.399 -2.7123  1.4585 -1.4507
31057SOL    HW295179   4.450   2.706   9.503 -0.0393 -0.3622 -2.1576
31058SOL     OW95180   9.746   0.952   2.243 -0.7207  0.1763 -0.3368
31058SOL    HW195181   9.807   1.022   2.267  1.0929 -0.9434 -1.4108
31058SOL    HW295182   9.667   0.996   2.214  1.3848  1.9757 -3.8758
31059SOL     OW95183   2.479   6.997   8.570  0.6186  0.2063  0.0003
31059SOL    HW195184   2.505   6.923   8.625  0.7467  0.2278 -0.0290
31059SOL    HW295185   2.496   6.967   8.481 -0.7624 -0.2961 -0.1211
31060SOL     OW95186   0.397   0.721   7.330 -0.0514 -0.3473 -0.3491
31060SOL    HW195187   0.325   0.712   7.267  0.5074  1.2982 -1.2837
31060SOL    HW295188   0.418   0.631   7.354 -1.7655 -0.9160 -0.7896
31061SOL     OW95189   9.292  10.482   5.350  0.2486 -0.0657 -0.1076
31061SOL    HW195190   9.212  10.461   5.398  0.7763  1.2642  1.4677
31061SOL    HW295191   9.262  10.522   5.269 -0.6728 -0.7980 -0.1472
31062SOL     OW95192   2.875   1.384   5.969  0.3651  0.2787  0.6139
31062SOL    HW195193   2.895   1.433   6.049  0.7660  0.9065  0.1416
31062SOL    HW295194   2.960   1.368   5.929  0.0706  1.6211 -0.6354
31063SOL     OW95195   6.295   6.170   9.395 -0.5341 -0.0469 -0.5042
31063SOL    HW195196   6.337   6.245   9.353 -0.4789  0.9913  1.2848
31063SOL    HW295197   6.245   6.128   9.325  3.7940 -1.7825 -3.0050
31064SOL     OW95198   8.297   5.841  10.641  0.4755  0.4238 -0.1311
31064SOL    HW195199   8.257   5.856  10.727 -0.3233  1.1234 -0.6103
31064SOL    HW295200   8.263   5.756  10.613 -2.0091  1.6881 -1.2197
31065SOL     OW95201   5.921  10.552   4.919  0.6489  0.1585 -0.6544
31065SOL    HW195202   5.914  10.501   4.999 -2.4634  2.0413  0.4440
31065SOL    HW295203   5.847  10.524   4.865 -1.2827  3.3602  0.0564
31066SOL     OW95204   5.976   4.371   1.563 -0.5197 -0.4662 -0.2380
31066SOL    HW195205   6.002   4.431   1.634 -0.2508 -1.3509  0.4232
31066SOL    HW295206   5.901   4.323   1.599 -0.0589 -1.2830 -0.3608
31067SOL     OW95207  10.758   5.249   5.127 -0.1270  0.0727  0.0837
31067SOL    HW195208  10.767   5.228   5.034 -2.4289 -0.6519 -0.0444
31067SOL    HW295209  10.848   5.252   5.160  0.8629  2.0740 -2.4897
31068SOL     OW95210   1.940   1.337   2.055  0.2580  0.1791 -0.3423
31068SOL    HW195211   1.860   1.292   2.083  0.4738 -0.6174 -0.9463
31068SOL    HW295212   2.010   1.275   2.076  0.6674  0.6565 -0.2885
31069SOL     OW95213  10.229   7.373   4.831 -0.4572  0.0400 -0.0855
31069SOL    HW195214  10.268   7.439   4.773  1.9632  0.1785  1.5737
31069SOL    HW295215  10.136   7.398   4.837  0.1746  2.7236 -0.3067
31070SOL     OW95216   5.182   1.264   0.224 -0.0045  0.3723  0.0078
31070SOL    HW195217   5.112   1.213   0.183 -1.2208  2.3358 -0.5138
31070SOL    HW295218   5.249   1.271   0.156 -0.3505  0.4608 -0.3290
31071SOL     OW95219   4.973   2.798   7.949  0.2115  0.3205 -0.0101
31071SOL    HW195220   4.971   2.742   7.871  0.1879 -0.4180  0.5175
31071SOL    HW295221   5.009   2.743   8.018 -0.9344  0.5670  0.8131
31072SOL     OW95222   4.467   4.820   6.319 -0.3026 -0.0969 -0.4378
31072SOL    HW195223   4.541   4.819   6.258  1.2554  1.0119  1.2968
31072SOL    HW295224   4.450   4.913   6.335  0.6457 -0.3007  2.2054
31073SOL     OW95225   1.808   1.445   5.237  0.2255  0.4157  0.4352
31073SOL    HW195226   1.780   1.423   5.326  0.2954 -2.0669 -0.0789
31073SOL    HW295227   1.745   1.401   5.180  1.2102  0.4581 -0.7418
31074SOL     OW95228   5.637   7.190   6.841 -0.0448 -0.4423  0.6815
31074SOL    HW195229   5.692   7.157   6.770  0.8303  0.2992  0.9997
31074SOL    HW295230   5.676   7.153   6.920  0.5961  0.8551  0.9915
31075SOL     OW95231   6.932   9.629   9.058  0.0723  0.7057 -0.1470
31075SOL    HW195232   6.949   9.535   9.059  0.9901  0.8679  0.7968
31075SOL    HW295233   6.917   9.652   9.150  0.6644  1.6181 -0.2632
31076SOL     OW95234   7.789   6.830   4.164  0.2430  0.0466  0.0693
31076SOL    HW195235   7.789   6.866   4.253  1.0510  1.6470 -0.5460
31076SOL    HW295236   7.696   6.823   4.141  0.0147  2.5474 -0.0542
31077SOL     OW95237   4.448   5.899   8.762 -0.4429  0.1618  0.5353
31077SOL    HW195238   4.433   5.805   8.751 -0.2409  0.1741  0.1644
31077SOL    HW295239   4.456   5.934   8.674  0.7116  0.3265  0.6797
31078SOL     OW95240   4.865  10.078   4.756  0.2800  0.2366  0.0796
31078SOL    HW195241   4.860  10.173   4.761  0.6098  0.2090  1.4150
31078SOL    HW295242   4.857  10.049   4.847 -1.9510 -1.1486 -0.5034
31079SOL     OW95243   0.318   2.905   6.965  0.5261  0.9952  0.0634
31079SOL    HW195244   0.347   2.952   6.887  2.1019 -0.4585 -0.2765
31079SOL    HW295245   0.388   2.920   7.029  0.5303 -0.0198  0.3036
31080SOL     OW95246   0.339   9.506   5.616 -0.1032  0.2094  0.1711
31080SOL    HW195247   0.329   9.419   5.653  0.9953 -0.2709 -0.6174
31080SOL    HW295248   0.346   9.564   5.692  0.5419 -0.5525  0.7030
31081SOL     OW95249   4.378   3.678   4.338  0.0792 -0.6001 -0.5138
31081SOL    HW195250   4.413   3.726   4.263 -0.9001 -0.9134 -1.1966
31081SOL    HW295251   4.454   3.633   4.376  0.9393  1.1324 -0.1072
31082SOL     OW95252   4.186   9.005   2.563  0.2137  0.0471  0.0543
31082SOL    HW195253   4.217   9.000   2.653 -0.9166 -0.6785  0.4273
31082SOL    HW295254   4.102   8.959   2.564 -0.4939  1.2356 -1.0714
31083SOL     OW95255   1.280   9.530   8.053 -0.4252  0.1117  0.0280
31083SOL    HW195256   1.333   9.555   8.129 -0.2062 -0.8188  0.1837
31083SOL    HW295257   1.252   9.440   8.071 -0.1530 -0.2160 -1.1149
31084SOL     OW95258   1.487   6.586   9.734 -0.0828  0.1646 -0.2733
31084SOL    HW195259   1.524   6.617   9.817 -1.8415  2.2522 -0.1700
31084SOL    HW295260   1.504   6.657   9.672 -0.2737 -0.6275 -1.2616
31085SOL     OW95261   6.380   6.569   0.731  0.5600  0.6192 -0.5523
31085SOL    HW195262   6.326   6.644   0.756 -0.4829 -0.2148 -0.2186
31085SOL    HW295263   6.461   6.579   0.781  0.3118  1.3646 -0.2947
31086SOL     OW95264   5.214   8.979   0.907  0.0568  0.3853  0.3769
31086SOL    HW195265   5.194   8.886   0.908 -1.9587  0.7669 -0.1599
31086SOL    HW295266   5.253   8.996   0.993 -1.4658 -0.5895  1.3047
31087SOL     OW95267   1.546   8.041   3.760 -0.1822  0.0164  0.3098
31087SOL    HW195268   1.636   8.015   3.742 -0.8498 -1.5596 -0.9938
31087SOL    HW295269   1.510   7.971   3.815 -1.1934 -0.4418 -0.8910
31088SOL     OW95270   9.769   1.267   8.713 -0.0178  0.5973  0.3037
31088SOL    HW195271   9.821   1.213   8.773 -1.3135 -0.8919  0.1511
31088SOL    HW295272   9.773   1.354   8.751  0.3036 -0.0429  1.8221
31089SOL     OW95273   9.564   4.332   7.184 -0.2343 -0.1209 -0.0641
31089SOL    HW195274   9.582   4.426   7.183 -1.5635  0.2457  2.7321
31089SOL    HW295275   9.469   4.325   7.190 -0.2834 -1.7247 -1.8204
31090SOL     OW95276   5.712   9.754   8.498 -0.1000 -1.1193  0.4435
31090SOL    HW195277   5.773   9.714   8.436 -0.6908  0.6807 -1.4428
31090SOL    HW295278   5.657   9.682   8.528  0.9484 -2.2454 -0.2421
31091SOL     OW95279   5.521   7.192   0.957  0.1327 -0.1556  0.6136
31091SOL    HW195280   5.521   7.259   0.889  0.9512  0.4794  1.2227
31091SOL    HW295281   5.610   7.192   0.991  0.4746 -2.3654 -0.1498
31092SOL     OW95282   0.480   4.111  11.284  0.6199 -0.0256 -0.3597
31092SOL    HW195283   0.428   4.056  11.225 -1.8273  2.6346 -0.9335
31092SOL    HW295284   0.566   4.114  11.243  0.4497 -2.2492 -1.0292
31093SOL     OW95285   7.760   9.503   0.730 -0.2687  0.2995  0.4803
31093SOL    HW195286   7.674   9.501   0.772 -1.1469  0.8106 -1.1736
31093SOL    HW295287   7.752   9.442   0.656  1.8510 -2.1090  2.0588
31094SOL     OW95288   0.314   5.013   2.806  0.2381  0.0113  0.5911
31094SOL    HW195289   0.323   4.991   2.899  1.5544 -0.8572  0.2878
31094SOL    HW295290   0.227   5.052   2.799  0.1310  0.1358  2.1946
31095SOL     OW95291   7.234   8.051   9.019 -0.3430 -0.1437 -0.1279
31095SOL    HW195292   7.216   8.142   8.995 -0.3986 -0.2093 -0.3443
31095SOL    HW295293   7.323   8.052   9.052 -0.0311 -0.1527 -0.9441
31096SOL     OW95294   0.340   9.812   6.710  0.5968  0.0335 -0.1095
31096SOL    HW195295   0.416   9.768   6.747  1.4802  0.0112 -1.8601
31096SOL    HW295296   0.375   9.895   6.676 -0.5124  0.8382  0.6478
31097SOL     OW95297  10.451   3.047   0.167 -0.2369  0.1772  0.0716
31097SOL    HW195298  10.470   3.093   0.085 -1.5883 -1.8348 -1.4842
31097SOL    HW295299  10.516   3.080   0.229  1.8782  0.6487 -2.2354
31098SOL     OW95300   7.447   3.658   9.629  0.1959  0.9697 -0.6957
31098SOL    HW195301   7.406   3.581   9.667  0.1388  0.3025 -2.0475
31098SOL    HW295302   7.464   3.715   9.703  1.3532 -0.8475  0.5236
31099SOL     OW95303   9.949   2.513   6.753 -0.5555  0.1852 -0.5374
31099SOL    HW195304   9.854   2.521   6.761 -0.4312 -0.1724  1.7744
31099SOL    HW295305   9.984   2.584   6.806  0.4431 -1.3430  0.9445
31100SOL     OW95306  11.237  10.865   8.343 -0.1565  0.0319  0.6112
31100SOL    HW195307  11.215  10.886   8.434  0.1416  0.4467  0.5933
31100SOL    HW295308  11.326  10.829   8.348  0.1912  0.8393  0.3945
31101SOL     OW95309   2.317   9.937  11.086  0.2911 -0.3319  0.0172
31101SOL    HW195310   2.225   9.914  11.073  0.6507 -0.8685 -1.7571
31101SOL    HW295311   2.355   9.936  10.999  2.2444 -1.2108  0.8222
31102SOL     OW95312   3.074  10.994  10.568 -0.7057  0.0302  0.1763
31102SOL    HW195313   3.151  10.959  10.522 -0.5352 -0.2564  0.6726
31102SOL    HW295314   3.003  10.988  10.504 -1.0803 -2.7710  0.7514
31103SOL     OW95315   9.510   7.447   0.685 -0.4165 -0.0065  0.4114
31103SOL    HW195316   9.464   7.471   0.765 -1.4028  1.0038 -0.4341
31103SOL    HW295317   9.582   7.510   0.678  0.3195 -0.7405  1.0111
31104SOL     OW95318   7.169   4.757   2.284  0.1668 -0.6100 -0.4583
31104SOL    HW195319   7.206   4.686   2.336 -1.9291 -2.1177 -0.8929
31104SOL    HW295320   7.178   4.727   2.194  1.1857  0.6797 -0.8038
31105SOL     OW95321   1.912  10.535   3.679 -0.1650 -0.4205  0.4752
31105SOL    HW195322   1.894  10.626   3.654 -1.0581 -0.8672 -0.5751
31105SOL    HW295323   1.995  10.540   3.727  0.0422  0.8877  0.0410
31106SOL     OW95324   6.280   8.027   4.258  0.2904 -0.0647 -0.4113
31106SOL    HW195325   6.324   8.088   4.199  0.2954 -0.1258 -0.4705
31106SOL    HW295326   6.265   7.948   4.205 -1.4716  0.5792 -0.9209
31107SOL     OW95327  10.500   3.208  11.269 -0.2419  0.0151  0.0390
31107SOL    HW195328  10.549   3.277  11.312 -2.1716  1.6714 -0.2836
31107SOL    HW295329  10.522   3.217  11.176 -0.1869 -0.0803  0.0429
31108SOL     OW95330   2.915   8.165   0.493 -1.1978  0.1358 -0.0112
31108SOL    HW195331   2.851   8.235   0.478  0.1461  0.9987 -2.0865
31108SOL    HW295332   2.998   8.211   0.507 -0.9323 -0.9589  2.6597
31109SOL     OW95333   2.089   1.734   4.187  1.3553  0.3904  0.4449
31109SOL    HW195334   2.135   1.808   4.148 -0.7632  1.8506  0.5345
31109SOL    HW295335   2.135   1.718   4.270  2.6469  0.7204 -0.1853
31110SOL     OW95336   4.139   7.143   7.012  0.2452  0.5436 -0.3746
31110SOL    HW195337   4.232   7.152   7.029  0.3442 -0.0633 -0.5819
31110SOL    HW295338   4.107   7.084   7.081  0.3272 -0.5431 -1.2421
31111SOL     OW95339   2.412   5.725   2.739 -0.2779 -0.1521 -0.0955
31111SOL    HW195340   2.411   5.675   2.658  0.6426  0.0625 -0.2520
31111SOL    HW295341   2.397   5.816   2.711 -0.1469 -0.1041 -0.0132
31112SOL     OW95342   2.743   5.417   0.677  0.4991 -0.0753  0.0764
31112SOL    HW195343   2.714   5.443   0.765 -2.3886 -0.9440 -0.5185
31112SOL    HW295344   2.759   5.323   0.683  2.8353  0.2518  0.1991
31113SOL     OW95345   9.317  11.047   8.519  0.0359  0.0707  0.2513
31113SOL    HW195346   9.311  10.992   8.598 -1.2103 -0.1031  0.0635
31113SOL    HW295347   9.404  11.087   8.524  0.0520 -0.0778  1.6197
31114SOL     OW95348  10.220   8.181   0.142  0.0319  0.3691 -0.0309
31114SOL    HW195349  10.294   8.143   0.095  1.0093  1.6275  0.4441
31114SOL    HW295350  10.154   8.112   0.143  0.4084 -0.0698 -2.2556
31115SOL     OW95351   5.332   4.801   8.648  0.5701 -0.5029 -0.4430
31115SOL    HW195352   5.307   4.708   8.651  2.4973 -1.0691 -0.7073
31115SOL    HW295353   5.425   4.801   8.670 -0.1055  1.7466  3.2865
31116SOL     OW95354   8.704   0.362   0.043  0.4061 -0.7573  0.0800
31116SOL    HW195355   8.795   0.333   0.055  0.6640 -0.6597 -1.4773
31116SOL    HW295356   8.688   0.354  -0.051 -0.6742  0.7664  0.0957
31117SOL     OW95357   1.290   8.160   5.412 -0.0309 -0.2493 -0.1992
31117SOL    HW195358   1.257   8.250   5.405 -1.7996 -0.7477  0.9857
31117SOL    HW295359   1.212   8.105   5.401  0.9296 -1.6372 -0.3719
31118SOL     OW95360   4.509   9.911   4.402 -0.0289 -0.8489  0.3905
31118SOL    HW195361   4.540   9.839   4.346  1.8224 -0.0354  0.2705
31118SOL    HW295362   4.464   9.970   4.343  2.0309  0.0695 -0.3380
31119SOL     OW95363   5.126   6.481   0.829  0.6984  0.5639 -0.0814
31119SOL    HW195364   5.147   6.506   0.919 -0.7090  1.5600  0.0032
31119SOL    HW295365   5.067   6.550   0.798 -0.1644 -0.6280 -1.1969
31120SOL     OW95366   0.059   6.392   7.541  0.0733 -0.8819  0.7773
31120SOL    HW195367   0.012   6.431   7.615  1.7198  1.4741  0.7108
31120SOL    HW295368   0.146   6.431   7.546  0.3384 -0.8936 -2.2137
31121SOL     OW95369   1.347  10.414   5.638  0.1993 -0.1814  0.3452
31121SOL    HW195370   1.379  10.455   5.558 -0.6078 -0.5127 -0.1675
31121SOL    HW295371   1.343  10.321   5.617 -2.3717 -0.0474 -0.1380
31122SOL     OW95372   6.610   4.854   2.850  0.9794 -0.5793  0.5951
31122SOL    HW195373   6.533   4.887   2.804  0.6107 -0.2004  1.4571
31122SOL    HW295374   6.682   4.910   2.819  0.2878  1.4207  2.3644
31123SOL     OW95375   7.528   5.646   8.003  0.0999 -0.7623  0.2331
31123SOL    HW195376   7.621   5.655   8.023  0.0883  0.4369 -0.1668
31123SOL    HW295377   7.484   5.684   8.079 -0.0827 -1.7882  0.6500
31124SOL     OW95378   4.109   6.726   7.192  0.1648 -0.7700 -0.1848
31124SOL    HW195379   4.153   6.643   7.210 -0.5189 -1.2219 -0.5491
31124SOL    HW295380   4.023   6.700   7.157 -1.1839  0.0378  2.2588
31125SOL     OW95381   6.968   6.445   3.409 -0.1061 -0.4271  0.3632
31125SOL    HW195382   6.970   6.363   3.360 -2.0566 -0.8056  0.8215
31125SOL    HW295383   6.894   6.435   3.470 -0.4985  1.7195  0.3215
31126SOL     OW95384   9.201   8.442   7.870 -0.2505 -0.0241  0.1640
31126SOL    HW195385   9.282   8.481   7.838 -1.0973  0.6863 -1.2403
31126SOL    HW295386   9.223   8.351   7.887  0.5253 -0.1948 -1.5629
31127SOL     OW95387   7.129   8.125   3.200 -0.4543  0.2038  0.5999
31127SOL    HW195388   7.059   8.188   3.212  0.4355  1.4444 -0.4473
31127SOL    HW295389   7.143   8.122   3.106  1.1186  0.2621  0.7985
31128SOL     OW95390   5.481  10.977   2.311  0.6252 -0.6517  0.1945
31128SOL    HW195391   5.550  10.947   2.251  0.4883 -0.0121 -0.3072
31128SOL    HW295392   5.528  11.000   2.391  1.4915  2.3271 -0.9824
31129SOL     OW95393   1.487   0.356   0.296  0.4112  0.3781 -0.4093
31129SOL    HW195394   1.578   0.328   0.288  0.2304 -0.9845  1.4316
31129SOL    HW295395   1.491   0.439   0.344  0.7287  1.0043 -1.4999
31130SOL     OW95396   6.342   0.726   7.479 -0.0040  0.1045 -0.1117
31130SOL    HW195397   6.325   0.648   7.427  0.9622 -0.5023  0.4467
31130SOL    HW295398   6.262   0.739   7.530 -0.6543  0.2461 -1.1415
31131SOL     OW95399   2.124   3.596  10.320  0.3087  0.1334 -0.5454
31131SOL    HW195400   2.127   3.651  10.242 -0.2269  0.2531 -0.4788
31131SOL    HW295401   2.032   3.596  10.347  0.7570  1.6232  1.1754
31132SOL     OW95402   2.983  10.867   2.171  0.4502  0.2193  1.0084
31132SOL    HW195403   2.963  10.814   2.248  0.9348  0.7181  1.4909
31132SOL    HW295404   3.000  10.955   2.206  0.1654  0.5751  0.2766
31133SOL     OW95405   7.886   7.703   6.458 -0.4390 -0.3987  0.1165
31133SOL    HW195406   7.937   7.704   6.539  2.5590  1.0206 -1.6070
31133SOL    HW295407   7.798   7.727   6.485  0.7181  1.2966  2.8654
31134SOL     OW95408   9.986   1.327  10.652  0.1321 -0.3623 -0.2451
31134SOL    HW195409  10.081   1.322  10.663  0.1684 -2.7891 -0.9777
31134SOL    HW295410   9.951   1.326  10.742  0.7841 -2.3342  0.0374
31135SOL     OW95411   1.450   2.347   0.967 -0.7593 -0.8006  0.9689
31135SOL    HW195412   1.471   2.254   0.966 -1.8081 -1.0574  0.3975
31135SOL    HW295413   1.427   2.367   0.876  0.1937  0.2051  0.9323
31136SOL     OW95414   1.738   5.723   6.236  0.2966 -0.0032 -0.0667
31136SOL    HW195415   1.785   5.642   6.251  0.2312 -0.0238  0.0310
31136SOL    HW295416   1.708   5.717   6.145  0.6060  0.0758 -0.1733
31137SOL     OW95417   4.730   9.803  10.300 -0.7829 -0.1438 -0.9396
31137SOL    HW195418   4.778   9.885  10.305 -1.8168  0.4964 -1.1314
31137SOL    HW295419   4.796   9.737  10.281  0.0808  0.6256 -0.6637
31138SOL     OW95420   4.121   3.387  11.195  0.5338 -0.1954 -0.0552
31138SOL    HW195421   4.143   3.475  11.226  2.3002 -0.6887  0.2205
31138SOL    HW295422   4.031   3.372  11.225  0.1086  1.5973 -0.3429
31139SOL     OW95423   0.108   3.292   8.043 -0.1576  0.0503  0.2739
31139SOL    HW195424   0.091   3.346   8.120  3.0887 -0.0364  1.1869
31139SOL    HW295425   0.101   3.202   8.074 -0.6441 -0.0236 -0.0262
31140SOL     OW95426   0.418   6.790   5.672 -0.0892 -0.7699  0.5732
31140SOL    HW195427   0.348   6.731   5.642 -0.9612 -0.7514  2.4463
31140SOL    HW295428   0.493   6.733   5.687 -0.2218 -1.0523  0.1801
31141SOL     OW95429   9.423  10.289   8.947 -0.4267  0.1915 -0.2064
31141SOL    HW195430   9.417  10.383   8.962  0.0463  0.3765 -1.1373
31141SOL    HW295431   9.345  10.268   8.896 -0.7613 -0.0108  0.3720
31142SOL     OW95432   9.655   0.183   0.232  1.0833 -0.6826 -0.3616
31142SOL    HW195433   9.668   0.155   0.142 -2.1400 -2.6111 -0.3638
31142SOL    HW295434   9.646   0.278   0.226 -1.7417 -0.9709 -2.5604
31143SOL     OW95435   9.717   2.548   7.896  0.5762 -0.8219  0.5648
31143SOL    HW195436   9.746   2.612   7.831  0.2159 -1.3331 -0.1090
31143SOL    HW295437   9.710   2.466   7.847 -1.8616 -0.7635  0.7200
31144SOL     OW95438   3.945   7.571   0.370 -0.3504  0.4302 -0.4410
31144SOL    HW195439   3.858   7.603   0.345 -0.6582 -1.2529 -1.7130
31144SOL    HW295440   4.006   7.627   0.321 -0.7585  0.7669 -0.5682
31145SOL     OW95441   0.810   6.509   7.933 -0.2055  1.0469 -0.3177
31145SOL    HW195442   0.741   6.547   7.987  0.0087  0.2060  0.5843
31145SOL    HW295443   0.832   6.578   7.870 -1.7721  1.3710 -0.5525
31146SOL     OW95444   3.968   5.523   2.101 -0.2503  0.5748 -0.1192
31146SOL    HW195445   3.885   5.565   2.079  0.6100  2.7757  0.5957
31146SOL    HW295446   4.025   5.542   2.027  0.2167  0.8148  0.3012
31147SOL     OW95447   3.691   9.257   5.473  0.0320  0.5132  0.5901
31147SOL    HW195448   3.710   9.164   5.457 -1.3847  0.3279 -0.2316
31147SOL    HW295449   3.604   9.270   5.435  1.0513  2.7065 -1.1989
31148SOL     OW95450   7.741  10.465   8.138  0.3083 -0.0181 -0.0688
31148SOL    HW195451   7.763  10.374   8.159  1.0486  0.2526  0.3716
31148SOL    HW295452   7.651  10.461   8.105 -0.4677 -0.6476  1.9428
31149SOL     OW95453  10.294   8.974   2.428  0.8788  0.3511  0.9445
31149SOL    HW195454  10.291   8.887   2.470 -0.6646  0.2667  0.7238
31149SOL    HW295455  10.233   9.027   2.480 -0.3340  0.5122 -0.5507
31150SOL     OW95456   2.474  11.001   8.097 -0.4482 -0.5494 -0.1234
31150SOL    HW195457   2.388  11.035   8.122 -1.6839 -3.6947  0.3177
31150SOL    HW295458   2.463  10.906   8.094  2.8751 -1.0478 -0.6908
31151SOL     OW95459   3.273   2.401   1.153 -0.8725 -0.2064 -0.9251
31151SOL    HW195460   3.267   2.388   1.058 -1.3602  1.2834 -1.1373
31151SOL    HW295461   3.307   2.490   1.162  2.2286 -1.3730  0.3329
31152SOL     OW95462   3.470   6.074   4.562 -0.4750 -0.1137 -1.0907
31152SOL    HW195463   3.493   6.003   4.622  0.1871 -0.6717 -1.9866
31152SOL    HW295464   3.376   6.061   4.545 -0.4662 -0.4872 -0.8714
31153SOL     OW95465   8.570   3.653   0.293  0.1997 -0.4354 -0.5701
31153SOL    HW195466   8.611   3.568   0.275 -1.1634 -1.2588  0.0008
31153SOL    HW295467   8.559   3.694   0.207  2.0228 -0.2480 -0.7464
31154SOL     OW95468   7.417   8.583  11.223  0.1943  0.2880  0.6532
31154SOL    HW195469   7.465   8.541  11.295 -0.5146 -0.9355  0.4365
31154SOL    HW295470   7.459   8.549  11.144  1.5961  2.3547  0.4384
31155SOL     OW95471   8.553   1.622   6.742 -0.5827 -0.4768 -0.8656
31155SOL    HW195472   8.625   1.585   6.692 -1.1037 -0.1096 -1.9090
31155SOL    HW295473   8.519   1.549   6.794  0.5536 -0.6400 -0.3203
31156SOL     OW95474   0.393   2.931   2.233 -0.0509 -0.6198 -0.0702
31156SOL    HW195475   0.376   2.838   2.250  0.3119 -0.6989 -0.1275
31156SOL    HW295476   0.344   2.978   2.301 -0.5087 -0.8380 -0.2450
31157SOL     OW95477   4.037   5.973   9.797  0.0849 -0.0568  0.9083
31157SOL    HW195478   3.977   6.009   9.862  0.8718  0.5830  1.3075
31157SOL    HW295479   4.035   6.036   9.725 -3.5110 -2.4739 -1.4235
31158SOL     OW95480   7.618   2.581   3.401  0.3769  0.4858  0.4520
31158SOL    HW195481   7.643   2.673   3.389  2.6988 -0.4639 -3.9121
31158SOL    HW295482   7.542   2.568   3.344 -0.4109 -0.2209  1.6057
31159SOL     OW95483   2.067   5.871   3.410  0.2930  0.1105  0.0320
31159SOL    HW195484   2.137   5.863   3.475 -0.4344  1.8059  1.0942
31159SOL    HW295485   2.006   5.934   3.448 -1.6526 -1.0415 -1.0301
31160SOL     OW95486   0.613   6.823   7.750  0.1478 -0.3662  1.0139
31160SOL    HW195487   0.549   6.754   7.771 -0.6850  0.4154  1.1004
31160SOL    HW295488   0.567   6.880   7.689  0.7919  0.1891  1.0431
31161SOL     OW95489   3.964   4.896   6.730  0.4917  0.1995 -0.3413
31161SOL    HW195490   4.000   4.831   6.670 -1.0543 -1.1085  0.0856
31161SOL    HW295491   4.035   4.915   6.791  0.9870 -1.0881 -0.4935
31162SOL     OW95492   5.895   4.860   3.151  0.7218  0.1988  0.5420
31162SOL    HW195493   5.903   4.898   3.239  2.1872 -0.3545  0.6727
31162SOL    HW295494   5.912   4.767   3.163 -0.4906 -0.1341 -0.1339
31163SOL     OW95495   0.528   3.896   8.476 -0.0482  0.2789 -0.1290
31163SOL    HW195496   0.588   3.955   8.430  2.3569 -0.5575  1.6983
31163SOL    HW295497   0.492   3.841   8.407  1.7565  0.4661 -1.3023
31164SOL     OW95498   0.204  10.785   8.366 -0.1865  0.0654  0.6745
31164SOL    HW195499   0.242  10.764   8.451  1.6534  1.4436  0.2408
31164SOL    HW295500   0.256  10.736   8.303 -0.7473  0.0232  0.2338
31165SOL     OW95501   6.008  10.874   9.169  0.2749  0.5109  0.1030
31165SOL    HW195502   6.029  10.922   9.250  1.6155 -0.6256  0.4736
31165SOL    HW295503   6.080  10.812   9.159 -0.7440 -0.5426 -1.0513
31166SOL     OW95504   8.592  10.641   4.022 -0.1946 -0.5344  0.2109
31166SOL    HW195505   8.626  10.685   4.100  0.0061 -0.3908  0.0447
31166SOL    HW295506   8.569  10.713   3.962  2.8526 -0.5961 -1.2476
31167SOL     OW95507   8.108   0.978  10.062  0.1476 -0.0674  0.7167
31167SOL    HW195508   8.053   0.999  10.137  0.1755  0.2165  0.6565
31167SOL    HW295509   8.047   0.944   9.996  0.1957 -0.8773  1.0737
31168SOL     OW95510  10.671  10.482   2.979  0.0721 -0.3237  1.0722
31168SOL    HW195511  10.612  10.546   3.020  1.1472  1.4799 -0.0154
31168SOL    HW295512  10.758  10.518   2.992  0.5279  0.1275 -2.1803
31169SOL     OW95513   8.792   6.592   7.472  0.2306  0.2796  0.2022
31169SOL    HW195514   8.747   6.593   7.556 -1.1249  2.8862 -0.4498
31169SOL    HW295515   8.725   6.569   7.408  1.2704 -1.8024 -0.2360
31170SOL     OW95516   3.990   5.175  10.852 -0.2240 -0.4420  0.8265
31170SOL    HW195517   3.897   5.192  10.866 -0.9737 -2.1705 -1.3930
31170SOL    HW295518   4.025   5.257  10.819 -1.3034 -0.1737  0.3106
31171SOL     OW95519   6.769   5.024   6.873  0.5138 -0.2686  0.1931
31171SOL    HW195520   6.707   5.080   6.919 -0.9550 -1.9880  0.4011
31171SOL    HW295521   6.851   5.036   6.919 -0.1028  0.6398  1.0964
31172SOL     OW95522   4.412   1.360   9.444 -0.0906  0.2809 -0.2048
31172SOL    HW195523   4.407   1.427   9.513 -0.3804  1.0358 -0.9479
31172SOL    HW295524   4.383   1.280   9.488 -0.3361  0.7641  0.5430
31173SOL     OW95525   3.492  10.693  10.859 -0.1808 -0.0385 -0.2950
31173SOL    HW195526   3.433  10.662  10.928 -1.0799  0.9729 -0.5709
31173SOL    HW295527   3.559  10.742  10.906  0.8581 -1.7416  0.0795
31174SOL     OW95528  10.085   4.509  10.287  0.3987 -0.1779  0.3196
31174SOL    HW195529  10.091   4.545  10.198 -0.6218 -0.8484 -0.0337
31174SOL    HW295530  10.176   4.499  10.314  0.7506 -0.9157 -1.0515
31175SOL     OW95531   9.919   1.179   4.489 -0.7181  0.1618  0.0498
31175SOL    HW195532   9.924   1.140   4.402  0.5419 -0.5451  0.4190
31175SOL    HW295533   9.938   1.272   4.474 -2.7908  0.5116 -0.7025
31176SOL     OW95534  10.650   9.310   1.788  0.4259  0.8083  0.4022
31176SOL    HW195535  10.589   9.293   1.717 -0.5603 -0.2016  1.4557
31176SOL    HW295536  10.690   9.225   1.807  1.3571  1.2465  0.4614
31177SOL     OW95537   3.128   8.223   5.176 -0.1088  0.2756 -0.2658
31177SOL    HW195538   3.196   8.161   5.204 -0.8863 -1.0020 -1.0907
31177SOL    HW295539   3.110   8.276   5.254  2.1162  0.9434 -0.1526
31178SOL     OW95540   7.353   3.061   4.832 -0.1260 -0.2872 -0.1687
31178SOL    HW195541   7.392   3.140   4.795 -0.0902 -0.0505  0.3654
31178SOL    HW295542   7.301   3.093   4.907 -1.4350 -0.5694 -0.9141
31179SOL     OW95543   7.387   4.486   9.239 -0.1555 -1.2857  0.3580
31179SOL    HW195544   7.441   4.409   9.256 -0.5688 -1.4871  0.7841
31179SOL    HW295545   7.314   4.479   9.301 -0.8757 -1.2250 -0.4509
31180SOL     OW95546   7.067   8.503   7.993 -0.2031 -0.4209  0.3372
31180SOL    HW195547   7.151   8.520   7.951 -0.0900  0.3761  0.8782
31180SOL    HW295548   7.015   8.459   7.925  0.5400 -0.6445 -0.0949
31181SOL     OW95549   1.792   6.768  10.261 -0.2147 -0.7010 -0.0705
31181SOL    HW195550   1.835   6.759  10.346  0.0434  0.7013 -0.0247
31181SOL    HW295551   1.718   6.827  10.279 -2.6961 -3.6089  0.0294
31182SOL     OW95552   3.827   6.161   4.182 -0.4711  0.9157 -0.5157
31182SOL    HW195553   3.879   6.235   4.214 -2.0028  1.3113  1.3114
31182SOL    HW295554   3.737   6.181   4.210 -1.1453 -1.0392 -1.0693
31183SOL     OW95555   3.372   2.514   8.275 -0.5666  0.2964 -0.1083
31183SOL    HW195556   3.375   2.535   8.182 -1.4419 -1.2868 -0.5384
31183SOL    HW295557   3.442   2.449   8.286 -0.2441  0.7319  0.4066
31184SOL     OW95558   1.324   3.584   4.759 -0.3362  0.1566 -0.4900
31184SOL    HW195559   1.293   3.528   4.830 -1.2666 -0.0353 -1.0197
31184SOL    HW295560   1.394   3.636   4.797 -0.7878  0.0230  0.5448
31185SOL     OW95561   5.822   3.516   9.110  0.7486 -0.5875  0.3899
31185SOL    HW195562   5.789   3.606   9.115  1.1931 -0.3513 -0.7262
31185SOL    HW295563   5.879   3.515   9.033  0.4614 -1.9186  0.1713
31186SOL     OW95564   0.059  10.632   4.668  0.5443 -0.4455  0.4510
31186SOL    HW195565   0.082  10.698   4.734  0.7478 -0.1973  0.1366
31186SOL    HW295566  -0.033  10.613   4.684 -0.3787  2.0307 -1.2461
31187SOL     OW95567   8.618   2.977   5.420  0.0724 -0.2796 -0.0235
31187SOL    HW195568   8.536   2.971   5.372 -1.0770  0.7312  1.7273
31187SOL    HW295569   8.644   2.886   5.435 -0.0237 -0.6189 -1.6650
31188SOL     OW95570   9.494   0.356   6.518  0.2971  0.0497 -0.3560
31188SOL    HW195571   9.574   0.393   6.480  0.5808 -0.2143 -0.0192
31188SOL    HW295572   9.506   0.365   6.612 -0.7971  1.5349 -0.3242
31189SOL     OW95573   7.960   4.882  10.260 -0.1532 -0.3539  0.6452
31189SOL    HW195574   7.966   4.792  10.228  1.3708 -0.2124  0.4587
31189SOL    HW295575   7.933   4.873  10.351 -0.4507 -0.9775  0.5032
31190SOL     OW95576   3.568   9.649   1.257 -0.4834 -0.5309  0.5701
31190SOL    HW195577   3.658   9.644   1.290 -0.4148 -2.2474  0.2487
31190SOL    HW295578   3.550   9.742   1.248  2.2405 -0.0909 -1.9197
31191SOL     OW95579   4.356   5.441  10.364 -0.0446 -0.1793 -0.6300
31191SOL    HW195580   4.358   5.391  10.445  3.7337  2.2931  1.0808
31191SOL    HW295581   4.298   5.515  10.383  1.2283  0.6721  0.1454
31192SOL     OW95582  11.104   6.916   0.046 -0.7546 -0.6410 -0.1684
31192SOL    HW195583  11.192   6.911   0.082 -0.3928  3.2187 -0.0510
31192SOL    HW295584  11.046   6.912   0.123 -0.3002  1.5279  0.3808
31193SOL     OW95585   7.279   2.481   5.887 -0.5085 -0.0103  0.1305
31193SOL    HW195586   7.288   2.576   5.876  0.6621  0.1868  2.3047
31193SOL    HW295587   7.200   2.471   5.941 -1.6846 -0.4494 -1.5693
31194SOL     OW95588   8.401   7.368   2.410 -0.2889 -0.0944 -0.4128
31194SOL    HW195589   8.458   7.340   2.482 -1.1389  0.8619  0.6561
31194SOL    HW295590   8.429   7.315   2.336 -0.7913 -2.6723  1.1259
31195SOL     OW95591   2.828   2.627   2.227  0.5258  0.1064 -0.3184
31195SOL    HW195592   2.792   2.539   2.235 -0.1764  0.3532 -0.6862
31195SOL    HW295593   2.892   2.634   2.298  0.5583 -0.6841 -0.2687
31196SOL     OW95594  11.109   4.048  10.461  0.1968 -0.1361  0.3036
31196SOL    HW195595  11.171   4.022  10.529 -0.4162 -1.0886  0.5079
31196SOL    HW295596  11.131   4.139  10.442 -0.2190  0.4471  2.4382
31197SOL     OW95597   3.340   0.255   0.860  0.6881 -0.0380  0.2170
31197SOL    HW195598   3.318   0.325   0.921 -0.7316 -0.4225  0.1712
31197SOL    HW295599   3.289   0.180   0.889 -1.2650  0.1752 -2.2472
31198SOL     OW95600   0.682   9.224   6.258  0.2286  0.1626  0.6255
31198SOL    HW195601   0.684   9.147   6.315  1.1859  0.9102  1.6513
31198SOL    HW295602   0.612   9.206   6.195  1.2263 -2.0699  0.0758
31199SOL     OW95603   5.604   0.453   3.986  0.2206 -0.0473  0.4291
31199SOL    HW195604   5.652   0.431   4.065  1.8414  0.3843 -0.3949
31199SOL    HW295605   5.635   0.541   3.963 -1.6717  0.6557  0.3613
31200SOL     OW95606   7.734   8.839   4.272  0.3979  0.3470 -0.2841
31200SOL    HW195607   7.642   8.814   4.268  0.0663  1.2502  1.0361
31200SOL    HW295608   7.781   8.765   4.233 -0.7053 -1.4167  1.5119
31201SOL     OW95609   0.293   1.239   2.387 -0.4758  0.3241 -0.2414
31201SOL    HW195610   0.358   1.264   2.453  0.8623  2.3642 -2.1673
31201SOL    HW295611   0.344   1.196   2.318 -0.9049  2.7827 -2.2209
31202SOL     OW95612  10.449   4.697   6.655 -0.8235 -0.3977  0.4969
31202SOL    HW195613  10.361   4.679   6.689 -0.4728 -0.8318  1.2129
31202SOL    HW295614  10.451   4.655   6.569 -1.9710  1.3265 -0.4433
31203SOL     OW95615  10.634   0.426   8.476 -0.4050 -0.7920 -0.1079
31203SOL    HW195616  10.575   0.351   8.481  0.1234 -1.1571  1.1767
31203SOL    HW295617  10.687   0.419   8.555  0.6261  0.1341 -0.6974
31204SOL     OW95618   6.603   1.350   6.080  0.1837 -0.7596  0.7846
31204SOL    HW195619   6.529   1.296   6.107 -1.7400  2.3596  2.4291
31204SOL    HW295620   6.658   1.357   6.158  0.0253  0.1739  0.8237
31205SOL     OW95621   8.807   1.271   9.360 -0.4439 -0.2948  0.6179
31205SOL    HW195622   8.829   1.319   9.281 -1.4575  1.9883  1.6299
31205SOL    HW295623   8.811   1.179   9.335 -1.0069  0.3620 -2.1288
31206SOL     OW95624   7.491   1.521   8.602  0.0852 -0.1322 -0.0903
31206SOL    HW195625   7.496   1.540   8.696  0.3638  0.5479 -0.2323
31206SOL    HW295626   7.440   1.595   8.566  0.6169  0.0027 -0.5760
31207SOL     OW95627   7.100   4.024   7.535  0.2606 -0.3847 -0.4671
31207SOL    HW195628   7.075   3.936   7.509 -0.2774 -0.8527  1.5050
31207SOL    HW295629   7.175   4.012   7.593  0.0131  0.4191  0.0471
31208SOL     OW95630   6.938   7.923   5.845 -0.3626 -0.2590 -0.2648
31208SOL    HW195631   6.875   7.862   5.806  0.4490 -0.9394 -0.5600
31208SOL    HW295632   7.018   7.871   5.855  1.1936  1.3691 -2.8788
31209SOL     OW95633   4.124   0.911   9.586  0.2007 -0.0726 -0.4328
31209SOL    HW195634   4.094   0.922   9.496  0.2393 -2.1172 -0.7550
31209SOL    HW295635   4.050   0.869   9.631  1.2290 -1.9002 -0.3370
31210SOL     OW95636   7.283   3.368   7.157 -0.9188 -0.4742 -0.1661
31210SOL    HW195637   7.320   3.288   7.194  0.6639  0.1395 -0.3258
31210SOL    HW295638   7.360   3.421   7.135 -1.8757  0.1536 -2.1604
31211SOL     OW95639   7.618   9.995   2.418  0.0390 -0.0683  0.1221
31211SOL    HW195640   7.713   9.999   2.431 -0.1051  0.2497  1.1590
31211SOL    HW295641   7.598   9.902   2.413  0.3757 -0.1415  0.1307
31212SOL     OW95642   0.187   8.459   9.577  0.2048 -0.1873  0.7192
31212SOL    HW195643   0.226   8.417   9.653  0.1073  1.9736  2.0583
31212SOL    HW295644   0.217   8.550   9.581 -0.2996  0.1559 -1.5035
31213SOL     OW95645   1.443   6.988   7.268 -0.1556  0.0787 -0.2349
31213SOL    HW195646   1.516   7.023   7.319  0.2815  1.4873 -1.7597
31213SOL    HW295647   1.380   6.959   7.334  0.7851  0.9410  1.0957
31214SOL     OW95648   3.935   8.810   4.522 -0.2810  0.2608 -0.5768
31214SOL    HW195649   3.848   8.846   4.508 -0.3463  0.6628  0.7134
31214SOL    HW295650   3.922   8.737   4.582  0.5654  2.5785  2.7381
31215SOL     OW95651   5.247   6.632   1.690 -0.2620  0.2544  0.4847
31215SOL    HW195652   5.271   6.714   1.647  0.2265 -1.2981 -2.4872
31215SOL    HW295653   5.153   6.638   1.701 -0.3935  0.7938 -0.7404
31216SOL     OW95654   9.993   2.405   5.923  0.1166  0.1449 -0.8171
31216SOL    HW195655   9.944   2.427   6.001  3.6895  4.7127  0.5953
31216SOL    HW295656   9.949   2.453   5.852  0.8971  2.1084 -0.0510
31217SOL     OW95657   3.439   7.982   0.115 -0.5246  0.1331 -0.0075
31217SOL    HW195658   3.524   7.939   0.124 -0.5837  0.0756  0.2672
31217SOL    HW295659   3.382   7.915   0.078 -0.4145  0.2175 -0.3397
31218SOL     OW95660   3.353   8.512   2.367 -0.6064 -0.2659  0.0415
31218SOL    HW195661   3.384   8.439   2.314 -1.8659 -1.9657  1.5263
31218SOL    HW295662   3.336   8.474   2.453 -0.4950  1.9720  1.1342
31219SOL     OW95663   1.374   3.535   8.588  0.1307  0.1440  0.5347
31219SOL    HW195664   1.407   3.528   8.678  0.8705 -0.4649  0.2286
31219SOL    HW295665   1.336   3.449   8.570  1.0075 -0.1233 -0.1136
31220SOL     OW95666   2.863   2.729   0.606  0.0303 -0.2961  0.5568
31220SOL    HW195667   2.912   2.742   0.525 -1.8449 -0.2209 -0.6382
31220SOL    HW295668   2.783   2.781   0.594 -0.7035 -1.0214  2.0520
31221SOL     OW95669   4.741   0.151   5.417  0.4218  0.2921  0.2521
31221SOL    HW195670   4.767   0.071   5.372 -2.2408 -0.4309 -0.1924
31221SOL    HW295671   4.792   0.221   5.375  0.2645 -0.7536 -1.7776
31222SOL     OW95672   6.343   3.774   7.290  0.1815 -0.3428  0.0080
31222SOL    HW195673   6.343   3.782   7.194 -1.5045 -1.6626 -0.1501
31222SOL    HW295674   6.310   3.686   7.307 -2.4701  0.8846  1.8292
31223SOL     OW95675   1.605   5.343   9.744 -0.3201 -0.1784  0.1159
31223SOL    HW195676   1.663   5.420   9.751 -1.4307  0.8075 -0.9797
31223SOL    HW295677   1.544   5.353   9.818 -0.4737  0.0148 -0.0347
31224SOL     OW95678   7.992   4.418   4.048  0.1239 -0.2672  0.2706
31224SOL    HW195679   8.076   4.383   4.019  0.2915 -1.1740  1.7663
31224SOL    HW295680   8.006   4.444   4.139 -1.2100 -0.4581  0.5521
31225SOL     OW95681   9.770   8.516   1.673  0.5111  0.1000 -0.2608
31225SOL    HW195682   9.775   8.434   1.722  0.1850  0.2047 -0.0522
31225SOL    HW295683   9.706   8.569   1.721 -0.0461  0.0803 -0.9663
31226SOL     OW95684   4.880   6.054   9.169  0.1680  0.0332  0.6337
31226SOL    HW195685   4.853   5.966   9.196 -0.6758 -0.8607 -2.6010
31226SOL    HW295686   4.946   6.039   9.102  0.6211  1.9213  0.6111
31227SOL     OW95687   3.145   8.086   3.527 -0.0919 -0.0014  0.4023
31227SOL    HW195688   3.209   8.109   3.460 -1.3272 -0.1752 -0.8800
31227SOL    HW295689   3.061   8.111   3.489 -0.8351 -0.2611  1.8310
31228SOL     OW95690   7.789   7.965   9.477 -0.3493 -0.3240 -0.5984
31228SOL    HW195691   7.842   7.909   9.421  1.2002 -0.9456  1.3786
31228SOL    HW295692   7.803   8.053   9.441  2.7501 -0.3392  0.2604
31229SOL     OW95693   3.349  10.387   2.155  0.3449 -0.4482 -0.8688
31229SOL    HW195694   3.352  10.340   2.072 -0.7103 -0.7986 -0.7301
31229SOL    HW295695   3.259  10.376   2.185 -0.3568  2.7634 -1.4501
31230SOL     OW95696  10.043   0.179   4.056  0.3172 -0.3824  0.2821
31230SOL    HW195697   9.974   0.115   4.076 -1.0948  0.8798 -0.3208
31230SOL    HW295698  10.065   0.217   4.141  0.7109 -1.2079  0.5580
31231SOL     OW95699   3.988   4.024   6.367  1.0200 -0.7649  0.1101
31231SOL    HW195700   3.910   3.989   6.324 -0.0469  0.7457  0.6931
31231SOL    HW295701   3.985   3.989   6.456  1.3798 -1.2294 -0.0578
31232SOL     OW95702   3.900   3.263   9.284  0.8558  0.5232  0.0278
31232SOL    HW195703   3.897   3.324   9.358  0.5866  1.1175 -0.4655
31232SOL    HW295704   3.808   3.242   9.267  0.8193  1.3625 -0.9194
31233SOL     OW95705   2.908   8.615   6.950 -0.3639 -0.2774 -0.3625
31233SOL    HW195706   2.963   8.678   6.996 -0.2986 -1.3608  1.1281
31233SOL    HW295707   2.888   8.657   6.866  1.4259  0.7957 -0.3022
31234SOL     OW95708   7.497   2.032   9.186 -0.2022 -0.3184 -0.1058
31234SOL    HW195709   7.456   2.117   9.199 -1.1017 -0.7812  0.1964
31234SOL    HW295710   7.430   1.980   9.142 -0.0338 -1.1641  0.5968
31235SOL     OW95711   6.944   0.563   8.606 -0.1067 -0.3197 -0.4033
31235SOL    HW195712   7.023   0.616   8.600 -0.5625  0.3346 -0.7610
31235SOL    HW295713   6.872   0.627   8.605 -0.5962 -0.6608  2.7564
31236SOL     OW95714   6.717   0.485  10.757  0.1002  0.4609  0.5725
31236SOL    HW195715   6.803   0.503  10.720  0.2857 -0.7982  0.3508
31236SOL    HW295716   6.692   0.567  10.799  1.2052  0.9859  0.2582
31237SOL     OW95717   5.397  11.100  10.345  0.2110  0.4836 -0.3076
31237SOL    HW195718   5.455  11.024  10.353  0.1721  0.2807 -1.6510
31237SOL    HW295719   5.452  11.175  10.369  0.3875  0.0801  0.5595
31238SOL     OW95720   6.327   9.271   1.365 -0.7164 -0.5186  0.1606
31238SOL    HW195721   6.331   9.220   1.285  0.1891 -0.3792  0.1045
31238SOL    HW295722   6.330   9.206   1.435  4.9314 -0.6483  0.2611
31239SOL     OW95723   6.585   2.275   3.021  0.0623  0.7466  0.5928
31239SOL    HW195724   6.587   2.352   2.964 -2.3099  0.3585 -0.0950
31239SOL    HW295725   6.566   2.310   3.108 -1.5624  0.9478  0.1875
31240SOL     OW95726   4.513   3.791   4.070  0.2695  0.5996 -0.2761
31240SOL    HW195727   4.582   3.740   4.028 -0.2427 -0.7522  0.4400
31240SOL    HW295728   4.457   3.819   3.998 -0.4172 -1.4178 -0.6157
31241SOL     OW95729   9.545   6.826   6.173  0.1891 -0.5629  0.4312
31241SOL    HW195730   9.608   6.773   6.221  3.0291  1.9369 -0.2690
31241SOL    HW295731   9.517   6.893   6.235 -1.6080 -1.4210  0.6181
31242SOL     OW95732   0.355  10.158   6.779  0.2741  0.3530 -0.6116
31242SOL    HW195733   0.367  10.189   6.868 -1.3678 -1.4569  0.3009
31242SOL    HW295734   0.262  10.166   6.762  0.1780 -1.5020 -1.2701
31243SOL     OW95735   3.497   8.219   2.838 -0.0627 -0.1338  0.3788
31243SOL    HW195736   3.483   8.182   2.925  0.4314 -1.5599 -0.1296
31243SOL    HW295737   3.408   8.233   2.804 -0.3316 -2.2266  0.0507
31244SOL     OW95738   4.574   9.767  10.535  0.2461  0.1499  0.0643
31244SOL    HW195739   4.534   9.854  10.538 -1.9692 -0.7836 -0.6600
31244SOL    HW295740   4.630   9.770  10.457  1.1869  1.2794  0.7399
31245SOL     OW95741   2.557   6.907   3.868  0.4944 -0.1992  0.0450
31245SOL    HW195742   2.525   6.977   3.925  0.2658 -0.9571  0.8669
31245SOL    HW295743   2.621   6.950   3.811  0.0805  0.7518  0.2856
31246SOL     OW95744   9.019   8.501   5.094  0.1086  0.2042  0.6765
31246SOL    HW195745   8.966   8.429   5.128 -0.3014  0.8671  1.4743
31246SOL    HW295746   8.978   8.579   5.129  1.4251  0.7593  1.0207
31247SOL     OW95747   0.601   6.323   8.045  0.8249 -0.8220 -0.5994
31247SOL    HW195748   0.519   6.314   7.997  0.3887 -0.6035  0.0867
31247SOL    HW295749   0.636   6.408   8.018  0.9706 -1.0372 -1.1032
31248SOL     OW95750   1.721   1.293   7.885  0.3893  0.2242  0.0272
31248SOL    HW195751   1.752   1.371   7.838 -1.2592  3.1742  3.3208
31248SOL    HW295752   1.634   1.277   7.848  1.3320 -1.2195 -1.7499
31249SOL     OW95753   6.309  10.633   8.445  0.4187  0.0542  0.3469
31249SOL    HW195754   6.314  10.540   8.424 -0.0995  0.4362 -1.7541
31249SOL    HW295755   6.218  10.646   8.471  0.1813  0.1385 -0.4756
31250SOL     OW95756  10.792   0.111   3.977 -0.3746  0.1629 -0.0764
31250SOL    HW195757  10.760   0.110   4.067  0.0863  0.1699  0.0932
31250SOL    HW295758  10.886   0.094   3.985 -0.1602  1.0857 -0.4888
31251SOL     OW95759   0.638   0.640   9.298  0.4366 -0.4454  0.4156
31251SOL    HW195760   0.663   0.665   9.209  2.9037 -1.1362  0.8391
31251SOL    HW295761   0.552   0.680   9.311 -0.2426 -0.7687 -2.4346
31252SOL     OW95762   4.399   4.508   7.131 -0.0875  0.2790 -0.6830
31252SOL    HW195763   4.421   4.418   7.105  0.7305  0.6483 -1.2805
31252SOL    HW295764   4.361   4.547   7.053 -1.0464  0.2755 -0.2385
31253SOL     OW95765   4.171   0.258   4.762 -0.1855 -0.0077 -0.3235
31253SOL    HW195766   4.140   0.186   4.707  0.0349 -0.0183 -0.4359
31253SOL    HW295767   4.236   0.217   4.820 -0.2239  0.0571 -0.2339
31254SOL     OW95768   1.736   2.874   3.133 -0.4448 -0.2824  0.0779
31254SOL    HW195769   1.789   2.852   3.210 -0.5114  0.3104  0.3048
31254SOL    HW295770   1.664   2.926   3.169 -1.8679 -2.0726 -0.0647
31255SOL     OW95771   2.073   9.472   9.645 -0.5294 -0.0182  0.2299
31255SOL    HW195772   2.151   9.477   9.590 -0.7682 -1.8310 -0.3427
31255SOL    HW295773   2.106   9.443   9.730 -0.0638  3.4647  1.3903
31256SOL     OW95774   2.608   7.281   2.483 -0.1918  0.2793 -0.3410
31256SOL    HW195775   2.647   7.216   2.541  0.9381  0.1167 -1.2443
31256SOL    HW295776   2.591   7.233   2.402  0.3920  1.0171 -0.9155
31257SOL     OW95777  10.930  10.605   7.594 -0.4788 -0.2157 -0.3120
31257SOL    HW195778  10.962  10.675   7.537 -1.9016 -0.1288 -1.0350
31257SOL    HW295779  11.002  10.589   7.654 -0.2383  2.1556  0.1330
31258SOL     OW95780   6.651   9.634  10.530  0.1737  0.2383 -0.0149
31258SOL    HW195781   6.600   9.577  10.589 -0.3582  1.1927  0.4785
31258SOL    HW295782   6.690   9.574  10.466 -1.5150 -0.5524 -0.3662
31259SOL     OW95783   6.099   1.768   7.961  0.0105  0.6117  0.2504
31259SOL    HW195784   6.193   1.769   7.978  0.3211 -0.2597 -1.1933
31259SOL    HW295785   6.063   1.712   8.030  0.2173  2.5131  2.0152
31260SOL     OW95786   7.015   7.023   4.868  0.3870 -0.7014 -0.8797
31260SOL    HW195787   6.970   7.107   4.873  0.3605 -0.7817  0.8740
31260SOL    HW295788   7.108   7.045   4.880  0.4453 -0.8569 -1.0485
31261SOL     OW95789   3.454   5.697   3.542  0.1955  0.4474 -0.0397
31261SOL    HW195790   3.488   5.787   3.535 -0.3309  0.6086 -0.6506
31261SOL    HW295791   3.532   5.643   3.554  0.7361  0.7735 -1.7770
31262SOL     OW95792   3.078   2.248   5.056 -0.0289 -0.0233  0.4825
31262SOL    HW195793   3.015   2.193   5.102  0.3323 -1.3709 -0.5576
31262SOL    HW295794   3.025   2.313   5.011 -0.3980  1.2635  2.6250
31263SOL     OW95795   6.519   4.240   2.552 -0.1958  0.0265 -0.5935
31263SOL    HW195796   6.454   4.306   2.578  0.3573 -0.0893  1.2027
31263SOL    HW295797   6.522   4.247   2.457  0.6424  3.3936 -0.4582
31264SOL     OW95798  10.763   4.940  10.658 -0.0802 -0.4624 -0.0734
31264SOL    HW195799  10.755   5.031  10.631 -0.3902 -1.4215 -3.6077
31264SOL    HW295800  10.843   4.909  10.616  0.3568 -1.7395  1.5699
31265SOL     OW95801   8.017  10.435   2.603  0.8547 -0.4621  0.7388
31265SOL    HW195802   7.939  10.489   2.589  0.6154 -1.2507 -1.2832
31265SOL    HW295803   7.992  10.375   2.673 -0.3666 -0.6985  0.1264
31266SOL     OW95804   2.328   8.403   4.418 -0.0125  0.1910  0.4317
31266SOL    HW195805   2.391   8.385   4.348 -0.6527 -1.1609  0.1793
31266SOL    HW295806   2.243   8.378   4.382 -0.3638 -0.5003  1.6595
31267SOL     OW95807   2.997   7.684   1.585 -0.7313  0.2927  0.2678
31267SOL    HW195808   2.998   7.596   1.622  0.9669  0.5385  0.9006
31267SOL    HW295809   2.936   7.733   1.642  2.1094  0.7635  3.1973
31268SOL     OW95810   9.666   4.461   3.037  0.0207 -0.0330 -0.7607
31268SOL    HW195811   9.657   4.384   2.981  1.6905 -1.0664  0.3168
31268SOL    HW295812   9.753   4.496   3.018 -0.4197  1.1661 -0.6889
31269SOL     OW95813   9.656   8.230  10.953 -0.0379 -0.4225  0.0946
31269SOL    HW195814   9.656   8.148  10.903  3.3544 -0.2883 -0.3904
31269SOL    HW295815   9.666   8.298  10.887  2.6362 -0.1051  0.7183
31270SOL     OW95816   0.694   8.484  10.914  0.6731 -0.1758  0.0190
31270SOL    HW195817   0.670   8.519  10.828 -0.4044 -1.5746 -0.2989
31270SOL    HW295818   0.726   8.559  10.963  0.0089  0.9123 -1.1564
31271SOL     OW95819   0.063   0.067   2.711 -0.0663 -0.6627  0.4599
31271SOL    HW195820   0.108   0.152   2.719 -1.3791  0.1046  0.0171
31271SOL    HW295821   0.125   0.004   2.747  1.9517  0.1521 -1.3156
31272SOL     OW95822   7.598  10.830  11.235  0.3090  0.0634 -0.4027
31272SOL    HW195823   7.584  10.906  11.179  1.4101  0.7971  0.2664
31272SOL    HW295824   7.558  10.757  11.188 -0.2729  0.9565 -1.3233
31273SOL     OW95825  10.142  10.894   2.120  0.5948 -0.2860 -0.0158
31273SOL    HW195826  10.178  10.953   2.055  2.5940 -0.3265  1.0010
31273SOL    HW295827  10.218  10.854   2.162 -0.6000 -0.0917  2.5052
31274SOL     OW95828   4.018   3.363   6.755 -0.5373 -0.0261  0.4142
31274SOL    HW195829   4.049   3.320   6.835 -1.4755 -0.7463  0.4051
31274SOL    HW295830   3.935   3.404   6.781  0.1365  1.4463  0.3130
31275SOL     OW95831   7.820   0.423   3.260  0.1776 -0.1631  0.2741
31275SOL    HW195832   7.823   0.516   3.238  0.1492 -0.4433 -1.0210
31275SOL    HW295833   7.808   0.379   3.175 -0.0366 -1.3283  0.8910
31276SOL     OW95834   0.940   1.995   9.538  0.3819  0.0600 -1.0869
31276SOL    HW195835   0.899   1.947   9.466 -0.9053  0.3560 -0.5820
31276SOL    HW295836   0.966   2.079   9.500 -0.1736  0.1620 -1.2568
31277SOL     OW95837   6.617   3.275   3.965 -0.3379 -0.3385 -0.3146
31277SOL    HW195838   6.661   3.349   4.006  1.8712 -1.4264 -0.5756
31277SOL    HW295839   6.536   3.312   3.931  0.6051  1.9220 -0.3049
31278SOL     OW95840   2.009   6.417  10.416  0.1195 -0.0915  0.4370
31278SOL    HW195841   1.916   6.438  10.428 -0.7374 -2.0360 -1.8487
31278SOL    HW295842   2.008   6.331  10.373  3.0042 -0.3022  0.6417
31279SOL     OW95843  10.373   2.912   9.204 -0.2042 -0.4473 -0.6378
31279SOL    HW195844  10.424   2.993   9.197 -0.6998 -0.0922 -0.1589
31279SOL    HW295845  10.429   2.846   9.162  0.5013  0.0048 -0.4384
31280SOL     OW95846   5.633   7.043   8.967 -0.5113 -0.6727 -0.4977
31280SOL    HW195847   5.692   7.092   8.911 -1.1454  0.7931  0.0834
31280SOL    HW295848   5.683   7.029   9.048 -1.3976  1.9147  0.5987
31281SOL     OW95849   9.245   8.053   6.083 -0.1991 -0.5227  0.0089
31281SOL    HW195850   9.318   8.003   6.046  1.2630  0.2753  1.6256
31281SOL    HW295851   9.219   8.004   6.161 -1.5392 -0.8862 -0.6508
31282SOL     OW95852   0.154  10.814   0.224 -0.0909 -0.0175 -0.0089
31282SOL    HW195853   0.182  10.876   0.291  0.7562  0.0561 -0.4084
31282SOL    HW295854   0.235  10.790   0.179 -0.5007 -0.8846 -0.3079
31283SOL     OW95855   6.037   4.237   7.520 -0.3471  0.2013  0.2659
31283SOL    HW195856   6.013   4.177   7.450  2.3498 -0.0977 -0.5232
31283SOL    HW295857   6.110   4.195   7.565 -0.8173  1.2316  2.1203
31284SOL     OW95858   5.949  10.189   9.691  0.3366 -0.0018  0.6111
31284SOL    HW195859   5.998  10.134   9.752  1.3842  1.5773  1.2586
31284SOL    HW295860   5.880  10.228   9.744 -0.8871 -1.2434 -0.0194
31285SOL     OW95861   9.543   5.250   8.488 -0.2969 -0.1085  0.0026
31285SOL    HW195862   9.540   5.308   8.411 -1.0841 -0.3037 -0.1140
31285SOL    HW295863   9.541   5.310   8.563 -0.0856  0.0581 -0.1227
31286SOL     OW95864   1.134   7.671   0.875 -0.0824 -0.0872 -0.0169
31286SOL    HW195865   1.153   7.746   0.819  0.3591 -1.4719 -1.8456
31286SOL    HW295866   1.219   7.645   0.910 -0.0754 -0.3154 -0.1977
31287SOL     OW95867  10.358  10.354   7.856  0.1304 -0.7272 -1.0261
31287SOL    HW195868  10.348  10.415   7.929 -0.4541 -1.2149 -0.6926
31287SOL    HW295869  10.419  10.288   7.888  1.1847 -0.0500 -1.5744
31288SOL     OW95870   4.623   0.183  10.495  0.4086 -0.2011  0.2076
31288SOL    HW195871   4.680   0.251  10.459  0.6444 -0.9702 -0.8939
31288SOL    HW295872   4.640   0.106  10.442 -1.3145 -0.5910  0.1599
31289SOL     OW95873   3.100  10.314   2.329 -0.5929  0.1376 -0.5871
31289SOL    HW195874   3.023  10.327   2.384 -0.1819 -1.7015  0.4900
31289SOL    HW295875   3.065  10.283   2.245 -1.0433 -0.1749 -0.2853
31290SOL     OW95876   4.273   7.764   9.472 -0.3013  0.6106  0.1599
31290SOL    HW195877   4.264   7.680   9.516 -0.5951 -1.6008 -3.6240
31290SOL    HW295878   4.354   7.801   9.507  1.4625 -2.7090 -0.0283
31291SOL     OW95879  10.262   8.419   3.588 -0.2556  0.0198 -0.2121
31291SOL    HW195880  10.265   8.442   3.495  0.3737  0.0480 -0.1889
31291SOL    HW295881  10.316   8.340   3.595  2.4583  1.8229  0.6207
31292SOL     OW95882   4.375   0.224   7.665  0.3992  0.1144  0.0507
31292SOL    HW195883   4.295   0.173   7.668  1.0207 -0.9252 -0.4244
31292SOL    HW295884   4.443   0.160   7.643  1.0337  1.3312 -1.7312
31293SOL     OW95885   5.858   5.086   7.685  0.0958 -0.2641  0.2200
31293SOL    HW195886   5.907   5.168   7.693 -0.3360  0.2382 -1.7600
31293SOL    HW295887   5.769   5.108   7.714  0.1119 -0.1496  0.1843
31294SOL     OW95888   1.510   5.993   0.764  0.5199 -0.0898 -0.1804
31294SOL    HW195889   1.498   5.997   0.669 -0.0761  0.5376 -0.0888
31294SOL    HW295890   1.547   5.906   0.780  0.3149 -0.3280 -0.9570
31295SOL     OW95891   0.815   3.947   1.067  0.3441 -0.4593  0.4135
31295SOL    HW195892   0.844   3.931   0.977 -0.9256 -0.8825  0.0495
31295SOL    HW295893   0.889   3.920   1.122 -0.0335 -3.5086 -0.3608
31296SOL     OW95894  11.223   4.482   6.773  0.4853 -0.1793 -0.2177
31296SOL    HW195895  11.168   4.550   6.735  1.3989  1.6928  1.5660
31296SOL    HW295896  11.281   4.530   6.833  0.2736 -2.6702  2.1688
31297SOL     OW95897   2.378   6.017   0.105  0.2977  0.1075  0.0944
31297SOL    HW195898   2.417   6.084   0.161  1.2251  0.0217 -0.4258
31297SOL    HW295899   2.284   6.028   0.115  0.4456  0.2263  1.5054
31298SOL     OW95900   9.005   1.459   2.144 -0.0258 -0.1014  0.0622
31298SOL    HW195901   8.992   1.467   2.238  0.4795 -0.9989  0.2131
31298SOL    HW295902   9.093   1.494   2.129 -0.4523  0.9059 -0.2215
31299SOL     OW95903   2.148  10.248   7.812 -0.4079 -0.3319 -0.2777
31299SOL    HW195904   2.076  10.281   7.758 -1.1117  0.4084  1.0353
31299SOL    HW295905   2.112  10.169   7.853  0.1337 -0.9131 -0.8953
31300SOL     OW95906   9.115   0.412   6.735  0.4564  0.6264 -0.5045
31300SOL    HW195907   9.047   0.474   6.761  0.9593  0.9129  0.1399
31300SOL    HW295908   9.166   0.459   6.669  0.5235  0.7049 -0.3962
31301SOL     OW95909   3.013   5.417   8.725  0.4249 -0.3459  0.4176
31301SOL    HW195910   2.998   5.387   8.636  1.3199  1.5446 -0.4384
31301SOL    HW295911   2.948   5.371   8.778 -0.8614 -0.6768 -1.3699
31302SOL     OW95912   9.102   4.822   4.392  0.4302 -0.4590  0.3267
31302SOL    HW195913   9.196   4.831   4.408  0.6332 -3.7346  1.7298
31302SOL    HW295914   9.096   4.791   4.302  0.4867  1.3729 -0.3610
31303SOL     OW95915   9.499   0.360   3.089  0.1644 -0.1360 -0.6173
31303SOL    HW195916   9.526   0.378   3.179 -1.4650 -0.5198 -0.0141
31303SOL    HW295917   9.561   0.294   3.058 -1.2428 -2.6341  1.4615
31304SOL     OW95918   7.823   8.740   4.889 -0.2286 -0.1446 -0.3173
31304SOL    HW195919   7.899   8.721   4.943 -0.9500  0.5167  0.9650
31304SOL    HW295920   7.782   8.654   4.875 -0.2998 -0.2689  0.5972
31305SOL     OW95921  10.325   1.062   1.197 -0.2048 -0.2027 -0.0297
31305SOL    HW195922  10.330   0.995   1.129 -0.0100 -1.1228  0.8796
31305SOL    HW295923  10.377   1.135   1.162 -2.7111  0.6642 -2.2872
31306SOL     OW95924   4.986   6.546   5.974  0.3137 -0.1845  0.1225
31306SOL    HW195925   5.055   6.557   5.908  0.3261  2.5225  0.4813
31306SOL    HW295926   5.024   6.485   6.038  0.8683 -1.6719 -1.5450
31307SOL     OW95927   1.917   2.335   0.754 -0.1458  0.2756 -0.2263
31307SOL    HW195928   2.004   2.298   0.764 -0.6675 -1.4445 -1.5040
31307SOL    HW295929   1.874   2.278   0.690 -2.9639 -0.3350  1.9891
31308SOL     OW95930   8.118   9.355  10.593 -0.2277 -0.6651  0.4646
31308SOL    HW195931   8.178   9.388  10.660 -2.6161  2.1216  1.4405
31308SOL    HW295932   8.143   9.403  10.513 -0.1382 -0.6824  0.4822
31309SOL     OW95933   2.241  10.194   7.141  0.5333  0.3812 -0.0082
31309SOL    HW195934   2.223  10.261   7.206  2.0681  2.7673 -1.8822
31309SOL    HW295935   2.337  10.185   7.141  0.4015 -1.4865 -0.1511
31310SOL     OW95936   3.891   8.666  10.158  0.2178 -0.7833  0.2236
31310SOL    HW195937   3.800   8.691  10.175  0.5881 -0.7485  2.5524
31310SOL    HW295938   3.935   8.676  10.243  3.0317  1.6609 -1.3246
31311SOL     OW95939   9.069   5.735   3.376 -0.9106 -0.0304  0.1112
31311SOL    HW195940   9.108   5.700   3.296 -1.7071  0.4900 -0.5312
31311SOL    HW295941   8.975   5.734   3.359 -1.0446  0.9431  0.6753
31312SOL     OW95942   7.920   5.565   3.046 -0.2664 -0.6055 -0.5732
31312SOL    HW195943   7.909   5.470   3.052 -1.1063 -0.5039 -0.4427
31312SOL    HW295944   7.900   5.586   2.955 -1.3846 -0.4029 -0.3011
31313SOL     OW95945   9.946   0.432   7.588  0.2275  0.1648 -0.5606
31313SOL    HW195946  10.007   0.446   7.660 -1.1458 -0.8449  0.8803
31313SOL    HW295947   9.966   0.500   7.525  0.3305  2.2278  1.5699
31314SOL     OW95948   9.470   0.579   4.270 -0.1333 -0.3587  0.1483
31314SOL    HW195949   9.432   0.548   4.352 -0.8886  0.7231  0.2289
31314SOL    HW295950   9.519   0.658   4.294  0.9451 -0.8993 -0.2046
31315SOL     OW95951   7.857   8.696   8.161 -0.0890 -0.6959 -0.2014
31315SOL    HW195952   7.775   8.727   8.200  0.2523  1.8322 -1.3114
31315SOL    HW295953   7.831   8.620   8.108 -1.5200 -0.5962  0.3034
31316SOL     OW95954   2.040   6.986   8.702 -0.1071  0.2272 -0.5212
31316SOL    HW195955   1.988   6.915   8.665 -0.8691  0.9000 -0.7645
31316SOL    HW295956   2.103   6.942   8.759 -2.8443 -0.4702  2.1984
31317SOL     OW95957  10.526  10.881   2.905  0.3417 -0.9894  0.3530
31317SOL    HW195958  10.548  10.835   2.824  1.7514 -2.9462  1.7429
31317SOL    HW295959  10.436  10.910   2.892  0.9253 -0.0865 -2.3675
31318SOL     OW95960   8.280   6.536   3.265  0.2829 -0.5461  0.1326
31318SOL    HW195961   8.200   6.576   3.231  0.0208  1.0237  2.4229
31318SOL    HW295962   8.346   6.605   3.261  0.7374 -0.9076  0.9899
31319SOL     OW95963   1.603   5.394   9.328  0.2096 -0.2173  0.3198
31319SOL    HW195964   1.556   5.373   9.248  1.0913  1.2130 -0.6085
31319SOL    HW295965   1.625   5.309   9.366 -1.4687 -0.9109 -0.1817
31320SOL     OW95966   8.571   3.027   4.157  0.1231 -0.2296  0.3072
31320SOL    HW195967   8.612   3.052   4.240  0.5113  1.9624 -0.4785
31320SOL    HW295968   8.644   2.997   4.103 -0.0032 -0.7929  0.4431
31321SOL     OW95969  10.198   3.813   6.483  0.3921  0.0057  0.3457
31321SOL    HW195970  10.229   3.723   6.468 -1.9127 -1.3558  2.8892
31321SOL    HW295971  10.261   3.850   6.544  0.5551 -0.3925  0.4251
31322SOL     OW95972   4.282   5.690   2.879 -0.4786  0.1246 -0.5533
31322SOL    HW195973   4.206   5.723   2.928 -0.7469 -1.9549  0.5019
31322SOL    HW295974   4.355   5.744   2.908 -1.2059  0.9491 -0.2115
31323SOL     OW95975   7.455   7.185   9.856 -0.2058 -0.2198  0.2354
31323SOL    HW195976   7.388   7.117   9.865 -1.2637  0.5545 -1.3433
31323SOL    HW295977   7.538   7.137   9.851 -0.8936 -1.3710 -0.4919
31324SOL     OW95978   6.640   5.089   6.080  0.2092  0.5571  0.7779
31324SOL    HW195979   6.717   5.045   6.043  1.2575  2.8812 -0.0520
31324SOL    HW295980   6.676   5.168   6.120 -1.5559  0.6894  2.2138
31325SOL     OW95981   4.919   2.770   2.491  0.5367 -0.5175 -0.4251
31325SOL    HW195982   4.945   2.839   2.552  3.2407 -1.1468 -0.7444
31325SOL    HW295983   4.900   2.695   2.548 -0.5622 -0.0852 -0.1936
31326SOL     OW95984   6.326   4.802   0.001  0.3721  0.2567  0.1734
31326SOL    HW195985   6.255   4.827   0.061 -0.7255  1.6571 -1.6018
31326SOL    HW295986   6.290   4.729  -0.049  0.2294  0.8032 -0.5508
31327SOL     OW95987   7.586   1.732   4.702  0.0681 -0.6129  0.0435
31327SOL    HW195988   7.534   1.655   4.677 -2.5734  1.5840 -1.7737
31327SOL    HW295989   7.640   1.750   4.625 -0.8657  0.4888 -0.3850
31328SOL     OW95990   6.344   1.331   9.524 -0.3095 -0.0619  0.3397
31328SOL    HW195991   6.401   1.305   9.597 -0.3059  0.6349  0.5894
31328SOL    HW295992   6.338   1.252   9.469 -0.1609 -0.5313  0.9917
31329SOL     OW95993   3.443   2.767  10.144  0.2153 -0.9681  0.3667
31329SOL    HW195994   3.504   2.817  10.198 -0.7024 -0.4439  0.9562
31329SOL    HW295995   3.358   2.780  10.186 -0.4671 -0.8641 -0.9795
31330SOL     OW95996   4.567   9.134   3.149 -0.2579  0.3024 -0.6853
31330SOL    HW195997   4.618   9.131   3.068 -1.1715  2.0697 -1.3734
31330SOL    HW295998   4.479   9.109   3.122 -1.2696  3.6786 -0.9257
31331SOL     OW95999   8.103   2.865   1.205  0.1248 -0.8799  0.7044
31331SOL    HW196000   8.152   2.872   1.286 -0.6973 -2.0437  1.3401
31331SOL    HW296001   8.067   2.952   1.190  1.3960 -0.3223  0.8529
31332SOL     OW96002   5.485  10.251   0.129  0.2224  0.2044 -0.6685
31332SOL    HW196003   5.451  10.190   0.194 -0.0973  1.0887  0.0138
31332SOL    HW296004   5.561  10.292   0.171  1.1829 -0.5904 -1.5778
31333SOL     OW96005   1.950   3.591   7.624  0.2985 -0.7522  0.0261
31333SOL    HW196006   1.885   3.522   7.638 -0.6460  0.3616  1.5091
31333SOL    HW296007   1.931   3.655   7.693  1.7852  0.5055 -0.6851
31334SOL     OW96008   5.446   4.142   8.518  0.1370  0.2205  0.5657
31334SOL    HW196009   5.480   4.185   8.597 -0.2102  1.4911  0.0509
31334SOL    HW296010   5.518   4.147   8.455 -0.1537  0.7178  0.2674
31335SOL     OW96011   9.426   3.687   2.363 -0.3848  0.5958  0.7228
31335SOL    HW196012   9.339   3.714   2.332 -0.7618  1.3809  2.3388
31335SOL    HW296013   9.476   3.768   2.368  0.0074  0.3361  1.0863
31336SOL     OW96014  10.333   2.585   9.108  0.4526 -0.3330 -0.1014
31336SOL    HW196015  10.338   2.600   9.203  1.4232  2.1283 -0.4562
31336SOL    HW296016  10.247   2.545   9.095 -0.6808  1.2895  1.6570
31337SOL     OW96017  10.244   3.364   3.049 -0.3492  0.4222  0.3834
31337SOL    HW196018  10.208   3.320   2.972  1.1488 -3.1752  1.5525
31337SOL    HW296019  10.168   3.378   3.106 -1.2084  1.6736 -0.9605
31338SOL     OW96020   4.732   3.169   9.574  0.4312 -0.3167 -0.3208
31338SOL    HW196021   4.680   3.247   9.552 -0.3442  0.0566  2.5386
31338SOL    HW296022   4.667   3.100   9.590  1.0343 -1.0440 -0.9057
31339SOL     OW96023   3.225   9.770  11.014  0.0523  1.6979  0.4108
31339SOL    HW196024   3.205   9.780  11.107 -1.1402 -1.7392  0.6881
31339SOL    HW296025   3.266   9.684  11.008 -0.7122  1.4448 -2.3194
31340SOL     OW96026  10.340   6.166   8.876  0.0164  0.7096  0.6168
31340SOL    HW196027  10.257   6.122   8.859  1.0963 -2.0341  1.9346
31340SOL    HW296028  10.366   6.203   8.791 -0.5144 -2.0818 -0.8511
31341SOL     OW96029   9.112   2.623   2.814 -0.3936 -0.0756  0.0484
31341SOL    HW196030   9.129   2.708   2.774  0.0787 -0.7966 -1.3082
31341SOL    HW296031   9.019   2.606   2.795 -0.8902  0.7386  1.5405
31342SOL     OW96032   0.870   3.165   2.918 -0.0725  0.0458  0.5963
31342SOL    HW196033   0.912   3.082   2.896  1.1043  0.3670  1.5217
31342SOL    HW296034   0.807   3.144   2.986  0.0315 -0.1336  0.6368
31343SOL     OW96035   7.818   0.287   3.709 -0.4041  0.7235 -0.8512
31343SOL    HW196036   7.748   0.331   3.758 -0.9882 -0.6265 -0.4208
31343SOL    HW296037   7.820   0.198   3.746  0.4445  0.2581 -1.9816
31344SOL     OW96038   3.664   5.043   9.092 -0.7084  0.7171  0.0240
31344SOL    HW196039   3.718   5.121   9.103  0.9955 -0.3540 -0.2790
31344SOL    HW296040   3.620   5.056   9.008 -0.1431  1.1757 -0.2066
31345SOL     OW96041   9.075   8.543   4.749 -0.3291 -0.3051  0.3742
31345SOL    HW196042   9.034   8.503   4.825 -0.7819 -0.1724  0.1999
31345SOL    HW296043   9.044   8.633   4.749  0.4510 -0.0276  0.5962
31346SOL     OW96044   4.147   1.474   2.877 -0.4410  0.1324  0.1189
31346SOL    HW196045   4.191   1.552   2.912 -0.7312  0.1695  0.4042
31346SOL    HW296046   4.219   1.413   2.858  0.0071  1.2247 -2.1076
31347SOL     OW96047   8.691   6.042   7.735  0.1624 -0.0863 -0.3139
31347SOL    HW196048   8.625   6.037   7.804 -0.1613  0.1227 -0.6086
31347SOL    HW296049   8.727   5.953   7.730 -0.8881 -0.4931 -0.9225
31348SOL     OW96050   8.003   7.506   8.070  0.2773  0.0050  0.2635
31348SOL    HW196051   8.019   7.418   8.036 -1.2730 -0.0683 -0.3311
31348SOL    HW296052   8.007   7.496   8.165 -1.1086 -0.9752  0.2343
31349SOL     OW96053   7.102  10.257   1.064 -0.0795 -0.1489 -0.8260
31349SOL    HW196054   7.035  10.194   1.038 -1.1763 -0.2841  1.9508
31349SOL    HW296055   7.183  10.206   1.071 -1.1137 -1.6027  2.1800
31350SOL     OW96056  10.282  10.808   7.666  0.4685 -0.0768 -0.1505
31350SOL    HW196057  10.200  10.765   7.642 -0.0022  0.6705  0.0991
31350SOL    HW296058  10.333  10.807   7.584  0.4813 -1.0988 -0.1518
31351SOL     OW96059   8.769   7.304   3.856  0.6994 -0.0711 -0.1404
31351SOL    HW196060   8.784   7.353   3.775  0.3153  1.0432  0.4444
31351SOL    HW296061   8.719   7.364   3.912  1.2373 -0.7011  1.0518
31352SOL     OW96062   3.765   0.019   5.517  0.6448 -0.3190 -0.4463
31352SOL    HW196063   3.841   0.073   5.494 -0.3863  1.3370 -0.1002
31352SOL    HW296064   3.796  -0.038   5.587  1.4309  0.7039  0.0582
31353SOL     OW96065   2.538  10.066   8.029 -0.3841 -0.8748 -0.4747
31353SOL    HW196066   2.580   9.999   7.976 -0.7989 -1.2890 -0.2815
31353SOL    HW296067   2.593  10.073   8.107  1.8304  1.6803 -2.0925
31354SOL     OW96068   5.504   5.847   5.489 -0.2046  0.2024 -0.7437
31354SOL    HW196069   5.542   5.759   5.489 -0.6089  0.0204 -1.7086
31354SOL    HW296070   5.417   5.835   5.527 -0.2118  0.1996 -0.7603
31355SOL     OW96071   8.340  10.248   8.220 -0.4628 -0.3783  0.3938
31355SOL    HW196072   8.358  10.190   8.146 -0.4868 -0.7312  0.6598
31355SOL    HW296073   8.248  10.232   8.242 -0.3877 -0.4558  0.6548
31356SOL     OW96074   1.070   3.699   5.850 -0.0472 -0.2032  0.3532
31356SOL    HW196075   1.020   3.633   5.898 -3.2064  1.5769 -0.2759
31356SOL    HW296076   1.096   3.654   5.769 -1.6960 -0.8734  0.1620
31357SOL     OW96077  10.069   7.306   2.766  0.1950  0.0359 -0.0922
31357SOL    HW196078  10.080   7.394   2.802 -0.5365  0.0304  0.1565
31357SOL    HW296079  10.041   7.253   2.840  1.6041 -0.6402 -0.0130
31358SOL     OW96080   2.529   2.436  10.605 -0.1865 -0.4498 -0.7681
31358SOL    HW196081   2.520   2.397  10.518 -0.6321 -0.1442 -0.8593
31358SOL    HW296082   2.589   2.509  10.594  1.0262 -1.3776 -0.5087
31359SOL     OW96083   1.474   2.721   2.650 -0.7949  0.1798 -0.1563
31359SOL    HW196084   1.435   2.770   2.577  0.4797 -0.4110 -1.2633
31359SOL    HW296085   1.409   2.728   2.720 -0.8647  3.0921 -0.3845
31360SOL     OW96086   7.495   7.571   4.334 -0.3683  0.5274  0.6861
31360SOL    HW196087   7.419   7.553   4.279 -0.3622  1.6583  0.2956
31360SOL    HW296088   7.523   7.659   4.309 -1.1311  1.6214  3.3861
31361SOL     OW96089   5.674   5.208   9.230  0.3321 -0.2122  0.1467
31361SOL    HW196090   5.764   5.235   9.214 -0.4593  2.2599 -0.5127
31361SOL    HW296091   5.633   5.209   9.143 -1.2053  2.3441  0.8056
31362SOL     OW96092   8.922  10.138  10.477  0.0410 -0.1469  0.3223
31362SOL    HW196093   8.861  10.103  10.542 -1.4852  0.3100 -0.7937
31362SOL    HW296094   8.947  10.224  10.511  1.7313 -1.1447  1.7783
31363SOL     OW96095   1.414   5.293   2.138 -0.7619  0.1151 -0.0662
31363SOL    HW196096   1.355   5.233   2.092  1.3218 -1.2652 -1.1006
31363SOL    HW296097   1.421   5.369   2.080 -1.5830  0.3456  0.1234
31364SOL     OW96098   6.033   3.875   8.338 -0.0808  0.4361 -0.2826
31364SOL    HW196099   6.028   3.925   8.257 -1.1443  0.7405 -0.0486
31364SOL    HW296100   5.941   3.856   8.361  0.2352 -0.3657  0.4020
31365SOL     OW96101   2.563   5.023   6.657  0.3264 -0.2659 -0.6902
31365SOL    HW196102   2.473   5.038   6.627 -0.6755 -1.0889  1.6572
31365SOL    HW296103   2.576   5.086   6.728  1.9546  0.4401 -1.5652
31366SOL     OW96104   6.983  10.835   6.602  0.7767  0.1767  0.5265
31366SOL    HW196105   7.066  10.820   6.557  0.1027 -1.4588 -0.2727
31366SOL    HW296106   6.929  10.880   6.537  0.1590 -1.2254  0.0290
31367SOL     OW96107   2.760   5.744   1.675  0.1354 -0.4715 -0.6315
31367SOL    HW196108   2.796   5.766   1.761  2.1665  1.3658 -1.8548
31367SOL    HW296109   2.689   5.808   1.661 -0.2187 -0.7933 -0.3311
31368SOL     OW96110   4.956   8.134   2.379  0.7167 -0.3715  0.5202
31368SOL    HW196111   4.991   8.111   2.465 -2.5532 -2.9984  1.3642
31368SOL    HW296112   4.893   8.204   2.396 -1.1166 -1.9700  0.6495
31369SOL     OW96113   1.648   3.979   6.740  1.0134  0.1470 -0.1531
31369SOL    HW196114   1.561   3.946   6.716  0.9536 -0.2624  0.5830
31369SOL    HW296115   1.682   4.018   6.660  0.7965 -1.0965 -0.8876
31370SOL     OW96116  10.081   1.952   5.741  0.0252 -0.1127  0.3145
31370SOL    HW196117  10.027   1.907   5.805 -0.0348  0.2162  0.4934
31370SOL    HW296118  10.043   2.040   5.734  1.1237  0.4612  1.1895
31371SOL     OW96119   9.733   3.358   0.414 -0.5295 -0.0261 -0.3442
31371SOL    HW196120   9.698   3.447   0.416 -1.1233 -0.1805 -2.0809
31371SOL    HW296121   9.761   3.345   0.323 -1.8350 -2.1083 -0.5222
31372SOL     OW96122   0.241  10.185   5.497 -0.0386 -0.3552  0.1905
31372SOL    HW196123   0.308  10.177   5.429  0.3476 -1.0468  0.6423
31372SOL    HW296124   0.280  10.144   5.574  1.1566  3.8366  2.0919
31373SOL     OW96125   8.426   0.058   6.178  0.2026 -0.6027 -0.4667
31373SOL    HW196126   8.413  -0.018   6.122 -1.8436 -0.5005 -0.1976
31373SOL    HW296127   8.445   0.130   6.118  0.7290 -1.0299 -0.8167
31374SOL     OW96128   1.701  10.738   7.567  0.3908 -0.6951 -0.0655
31374SOL    HW196129   1.633  10.793   7.606 -0.3961 -1.5622 -0.1655
31374SOL    HW296130   1.783  10.780   7.591 -0.0208 -1.1837  2.6113
31375SOL     OW96131   6.730   9.736   4.071 -0.4041 -0.3468  0.0018
31375SOL    HW196132   6.744   9.678   4.145  0.6132 -2.3102 -1.6198
31375SOL    HW296133   6.749   9.682   3.994 -0.9001  1.7276 -1.6843
31376SOL     OW96134   4.257   1.993   6.554 -0.6309 -0.0295  0.3577
31376SOL    HW196135   4.307   1.995   6.636  3.0335  1.0257 -1.6798
31376SOL    HW296136   4.235   2.084   6.537  0.1833 -0.0034 -0.6400
31377SOL     OW96137   6.764  11.216   3.195 -0.5687  0.0255  0.1538
31377SOL    HW196138   6.834  11.238   3.134 -0.2760  2.2161  1.1901
31377SOL    HW296139   6.806  11.216   3.281 -1.0159 -2.7716  0.4788
31378SOL     OW96140   2.541   5.998   8.664  0.3653 -0.3457 -0.3798
31378SOL    HW196141   2.577   5.972   8.748  2.6377 -2.9142 -1.9799
31378SOL    HW296142   2.617   6.033   8.616 -1.0365  1.8332 -1.1637
31379SOL     OW96143   8.165   9.804   2.600  1.0255 -0.6685 -0.3286
31379SOL    HW196144   8.141   9.897   2.602 -0.5954 -0.9846 -2.1920
31379SOL    HW296145   8.250   9.803   2.555  2.0162  0.0132  1.4177
31380SOL     OW96146   7.532   0.289   4.550 -0.3534  0.1557  0.8664
31380SOL    HW196147   7.465   0.256   4.491 -0.8731 -0.0018  1.5254
31380SOL    HW296148   7.562   0.212   4.598 -0.4851  0.3925  1.3386
31381SOL     OW96149   3.724   2.395   5.293 -0.3963  0.4887 -0.2149
31381SOL    HW196150   3.704   2.459   5.361  1.6867  0.4474  0.5120
31381SOL    HW296151   3.676   2.317   5.320 -1.0775  1.0261  0.1805
31382SOL     OW96152   7.156   0.238   1.340 -0.3140  0.0418 -0.3408
31382SOL    HW196153   7.081   0.229   1.397 -0.1990  3.1194  0.4665
31382SOL    HW296154   7.228   0.195   1.387 -1.3555 -2.4218 -0.8706
31383SOL     OW96155   3.649   2.623   2.635 -0.3073  0.0993  0.8178
31383SOL    HW196156   3.610   2.543   2.671 -0.4592  0.4178  1.3646
31383SOL    HW296157   3.685   2.595   2.551  0.4363 -0.7474  1.3979
31384SOL     OW96158   3.412   4.454   8.756  0.0540 -0.0496  0.5945
31384SOL    HW196159   3.456   4.478   8.675 -1.8755 -2.0264 -1.1689
31384SOL    HW296160   3.319   4.458   8.735 -0.4921 -3.4634  1.7161
31385SOL     OW96161   0.840   6.498   3.293  0.6158  0.5085 -0.7198
31385SOL    HW196162   0.890   6.486   3.213  0.9856  2.6299 -0.8524
31385SOL    HW296163   0.817   6.591   3.294 -1.0690  0.1387  0.6660
31386SOL     OW96164   7.658   7.243   1.951 -0.6288 -0.6432  0.1454
31386SOL    HW196165   7.745   7.227   1.915 -0.4656  0.8223 -0.1604
31386SOL    HW296166   7.648   7.338   1.948 -2.7360 -0.8521 -0.9877
31387SOL     OW96167   6.944   0.054   7.943 -0.5424  0.4561  0.3034
31387SOL    HW196168   6.982   0.128   7.896 -2.5519  2.1682  1.2044
31387SOL    HW296169   6.947  -0.018   7.880  0.2860  1.6582 -1.0960
31388SOL     OW96170  10.428   5.978   8.440 -0.0739 -0.2344 -0.1285
31388SOL    HW196171  10.480   6.045   8.484  2.3832 -1.3144 -1.1433
31388SOL    HW296172  10.430   5.903   8.500 -1.6575  0.1306  0.4114
31389SOL     OW96173   8.683   5.966   2.899  0.1941 -0.1724 -0.1075
31389SOL    HW196174   8.755   6.002   2.849 -2.5546 -0.3930 -4.8444
31389SOL    HW296175   8.624   6.040   2.915 -1.4976 -0.9208 -2.3290
31390SOL     OW96176  10.738   2.107   3.658  0.6073 -0.3852 -0.2203
31390SOL    HW196177  10.832   2.116   3.671  0.2308  2.3695  1.3292
31390SOL    HW296178  10.710   2.042   3.723  1.3552 -0.8214 -0.3301
31391SOL     OW96179  10.768   0.101   0.621 -0.0860 -0.1997  0.9872
31391SOL    HW196180  10.752   0.121   0.713 -1.0039 -2.0067  1.2542
31391SOL    HW296181  10.681   0.094   0.582  0.1327 -2.8852  0.8039
31392SOL     OW96182   6.247   8.669   7.738 -0.2656  0.0387  1.0932
31392SOL    HW196183   6.238   8.577   7.764  0.4418 -0.3169  0.1212
31392SOL    HW296184   6.334   8.695   7.767  0.0586 -0.0033  0.1882
31393SOL     OW96185   9.613   7.904   2.366 -0.3850 -0.4337 -0.1541
31393SOL    HW196186   9.549   7.864   2.425 -1.4817  1.0538 -0.2622
31393SOL    HW296187   9.675   7.948   2.424  0.1883 -1.3340 -0.0656
31394SOL     OW96188   9.036   1.335   8.139 -0.5275  0.0440  0.7200
31394SOL    HW196189   9.042   1.428   8.117  1.2593 -0.8892 -3.9255
31394SOL    HW296190   8.944   1.312   8.126 -0.7711  0.9194  0.8543
31395SOL     OW96191   4.657   5.223   6.202 -0.1914  0.1254  0.7231
31395SOL    HW196192   4.627   5.281   6.272 -0.0205  0.7301  0.2970
31395SOL    HW296193   4.704   5.280   6.142 -0.2517 -0.4090  0.1617
31396SOL     OW96194   2.514   8.992  11.095  0.0086  0.4938  0.0977
31396SOL    HW196195   2.593   9.023  11.139 -0.0812 -0.9706  1.3825
31396SOL    HW296196   2.537   8.905  11.063 -0.1607  1.2200 -2.2540
31397SOL     OW96197   2.195   4.427   6.812  0.2821 -0.0186  0.6634
31397SOL    HW196198   2.290   4.435   6.808  0.1748  2.2859  0.9902
31397SOL    HW296199   2.167   4.425   6.720  0.5700  1.1927  0.5329
31398SOL     OW96200   7.185   1.300   8.933  0.6757 -0.3299 -0.1679
31398SOL    HW196201   7.219   1.354   8.862 -1.6175  1.8756  0.2786
31398SOL    HW296202   7.244   1.317   9.006 -0.5375  2.5595  0.2725
31399SOL     OW96203   5.353   2.874   9.564  0.5104 -0.9786 -0.0054
31399SOL    HW196204   5.374   2.919   9.482  1.2887 -1.5483 -0.1210
31399SOL    HW296205   5.438   2.854   9.603  0.2164  1.2279  2.0475
31400SOL     OW96206  10.103   5.347   5.611  0.2451 -0.6454 -0.4134
31400SOL    HW196207  10.011   5.323   5.626  0.3551 -1.0925 -0.4480
31400SOL    HW296208  10.098   5.428   5.559 -0.1264 -0.4876 -0.1408
31401SOL     OW96209   9.136   4.123   5.543  0.1714 -0.2410 -0.0732
31401SOL    HW196210   9.046   4.108   5.513  0.0101 -0.9335  0.7177
31401SOL    HW296211   9.190   4.072   5.483  0.0187  0.0371 -0.4471
31402SOL     OW96212   5.581   0.686   2.039  0.5374  0.3054 -0.1495
31402SOL    HW196213   5.490   0.678   2.011  0.3800 -0.2722  0.4986
31402SOL    HW296214   5.633   0.670   1.959  0.1366 -2.4836  0.0453
31403SOL     OW96215  10.734   7.786   7.282 -0.3984 -0.3463 -0.0843
31403SOL    HW196216  10.729   7.780   7.377 -0.2369 -0.6068 -0.0898
31403SOL    HW296217  10.687   7.866   7.260 -0.3777 -0.2497  0.2197
31404SOL     OW96218   6.270  10.267  10.144 -0.1532 -0.1073  0.4006
31404SOL    HW196219   6.191  10.271  10.090  1.4414 -0.3659 -2.1206
31404SOL    HW296220   6.333  10.324  10.099  1.1595  0.0075  2.2584
31405SOL     OW96221   4.399   4.993   9.178  0.0145 -0.4190 -0.0474
31405SOL    HW196222   4.438   4.917   9.220 -0.2923  0.1220  1.2660
31405SOL    HW296223   4.365   4.960   9.095  2.1054 -1.1719 -0.6825
31406SOL     OW96224   7.001   9.287   2.290 -0.3940  0.3687  0.3149
31406SOL    HW196225   6.950   9.238   2.226 -0.4297  1.4057 -0.4781
31406SOL    HW296226   6.936   9.337   2.339 -0.6658 -2.3209  2.9834
31407SOL     OW96227  10.690   1.007   8.679  0.3444 -0.2476  0.6061
31407SOL    HW196228  10.671   0.929   8.730  1.1958 -0.0634  1.2259
31407SOL    HW296229  10.731   0.975   8.599  2.2734 -0.3896  1.5916
31408SOL     OW96230  10.165   1.278   8.779 -0.2971 -0.2293  0.4427
31408SOL    HW196231  10.220   1.342   8.734  1.6510 -1.5384  0.8752
31408SOL    HW296232  10.090   1.267   8.720  1.6210 -1.0419 -1.9981
31409SOL     OW96233  10.156   6.026   1.170 -0.3130  0.3503 -0.1372
31409SOL    HW196234  10.181   6.017   1.078  0.0118 -1.6010  0.0934
31409SOL    HW296235  10.061   6.022   1.170 -0.5505  3.6630 -0.6393
31410SOL     OW96236   4.964   6.288   9.351 -0.0340  0.3226 -0.2731
31410SOL    HW196237   4.953   6.220   9.284  3.8188 -1.2090  0.3596
31410SOL    HW296238   4.902   6.264   9.420 -0.6791 -0.9164 -1.2408
31411SOL     OW96239   6.762   7.931   7.274 -0.4256  0.8335  0.8798
31411SOL    HW196240   6.723   7.892   7.352  2.5546  0.2200  2.2047
31411SOL    HW296241   6.743   7.869   7.204 -2.1446  0.8173  1.3124
31412SOL     OW96242  11.153   7.656  10.541 -0.2688 -0.2211 -0.2627
31412SOL    HW196243  11.079   7.598  10.559 -1.2029  0.5886 -1.3264
31412SOL    HW296244  11.230   7.603  10.560 -1.1034 -0.5895  2.4192
31413SOL     OW96245   3.897   2.505  10.181 -0.6706  0.1920  0.7914
31413SOL    HW196246   3.887   2.594  10.146  2.1735  0.2763 -0.0328
31413SOL    HW296247   3.875   2.514  10.274  0.3190  1.9736  0.9039
31414SOL     OW96248   5.857   5.925   9.410  0.4789 -0.5180 -0.0160
31414SOL    HW196249   5.810   5.850   9.446 -1.1066  0.2152 -0.4622
31414SOL    HW296250   5.914   5.888   9.342  2.3561 -1.7199  2.0392
31415SOL     OW96251  10.044   6.733   9.646 -0.2506 -0.4982 -0.0194
31415SOL    HW196252  10.027   6.809   9.590 -1.6693 -0.5269  0.3394
31415SOL    HW296253  10.108   6.681   9.597  2.7458  2.0925  0.8044
31416SOL     OW96254  10.702  11.238   2.634  0.1182  0.5042 -0.8179
31416SOL    HW196255  10.647  11.259   2.559  0.8552  0.1395 -1.4713
31416SOL    HW296256  10.791  11.255   2.604  0.3072  2.8656  0.7956
31417SOL     OW96257  10.607  10.928   6.907  0.7257 -0.0088  0.0773
31417SOL    HW196258  10.655  10.920   6.825 -1.8484 -1.7540 -1.4008
31417SOL    HW296259  10.540  10.859   6.903  0.5968 -0.3001  3.7597
31418SOL     OW96260   5.380  10.095   1.308  0.1587  0.2892 -1.1456
31418SOL    HW196261   5.326  10.065   1.235 -1.8598  0.5969  0.1297
31418SOL    HW296262   5.368  10.029   1.376  0.8581  0.7062 -0.6010
31419SOL     OW96263   6.210   1.181   3.526  0.3364 -0.2374 -0.0293
31419SOL    HW196264   6.250   1.098   3.500  0.3633 -0.4587  0.7195
31419SOL    HW296265   6.255   1.206   3.606  2.9031  2.3381 -2.0329
31420SOL     OW96266   1.376   2.093   9.744 -0.6805  0.1606 -0.1646
31420SOL    HW196267   1.376   1.999   9.724 -0.9761  0.6708 -2.9782
31420SOL    HW296268   1.355   2.097   9.837  0.0576 -2.5702  0.2337
31421SOL     OW96269   0.658  10.517   6.855 -0.4225 -0.3712 -0.5811
31421SOL    HW196270   0.585  10.549   6.907  0.7777 -1.4696  1.9830
31421SOL    HW296271   0.733  10.567   6.886  0.2083 -0.3607 -2.0323
31422SOL     OW96272   2.423  10.173   7.726 -0.5044 -0.4918 -0.3690
31422SOL    HW196273   2.330  10.176   7.751 -0.8961  2.0689 -1.7789
31422SOL    HW296274   2.436  10.083   7.695 -2.4531 -0.9728  0.0746
31423SOL     OW96275   0.446  10.418   4.487  0.4221  0.1064 -0.0889
31423SOL    HW196276   0.491  10.501   4.504 -1.3578  1.0011  0.5501
31423SOL    HW296277   0.515  10.352   4.494  1.5588  1.3517  1.3585
31424SOL     OW96278   3.105   8.131   7.105 -0.0250  0.0563 -1.1748
31424SOL    HW196279   3.119   8.216   7.062  2.0212  0.2210 -0.2999
31424SOL    HW296280   3.174   8.075   7.071 -1.5733 -1.4460 -2.0220
31425SOL     OW96281   7.531  11.076   3.906 -0.4379  0.3591 -0.1613
31425SOL    HW196282   7.534  10.996   3.854 -0.1036 -0.1720  0.6584
31425SOL    HW296283   7.609  11.072   3.961 -1.5595  0.1278  1.4872
31426SOL     OW96284   2.630  10.743   3.512 -0.1343 -0.4038  0.4387
31426SOL    HW196285   2.539  10.750   3.481 -0.1963  0.5408  0.7961
31426SOL    HW296286   2.649  10.830   3.548  2.2690  0.8169 -3.1887
31427SOL     OW96287   4.468   7.671   7.168 -0.0019 -0.3039 -0.1847
31427SOL    HW196288   4.403   7.741   7.162 -0.7712 -0.4737  3.6565
31427SOL    HW296289   4.417   7.590   7.163  0.6117 -0.6204 -2.2047
31428SOL     OW96290   2.845   8.818   3.674 -0.1235 -0.1160  0.3568
31428SOL    HW196291   2.873   8.757   3.606 -2.3741 -3.4232  2.1301
31428SOL    HW296292   2.909   8.806   3.744 -0.5825 -0.5270  0.7164
31429SOL     OW96293   3.501  10.850   0.530 -0.1804  0.1040  0.5496
31429SOL    HW196294   3.459  10.906   0.465 -1.4373 -0.1059  1.1516
31429SOL    HW296295   3.555  10.789   0.479 -0.5022  0.4616 -0.2361
31430SOL     OW96296   9.920   7.305   1.839  0.1298  0.6948  0.4803
31430SOL    HW196297   9.942   7.219   1.876 -1.6344 -0.9068 -1.9047
31430SOL    HW296298   9.959   7.305   1.752  0.7367  2.6623  0.7080
31431SOL     OW96299   2.334   6.313   9.082  0.2897  0.0507  0.0172
31431SOL    HW196300   2.415   6.302   9.032 -0.0214  0.2200 -0.5371
31431SOL    HW296301   2.265   6.292   9.020 -0.0521 -1.8602  0.9791
31432SOL     OW96302   5.419   1.713   8.901  0.4996 -0.5597  0.3372
31432SOL    HW196303   5.506   1.748   8.918 -0.3319  2.4027 -0.9049
31432SOL    HW296304   5.418   1.697   8.806 -0.4314 -0.1070  0.2633
31433SOL     OW96305   8.453   5.267   7.512  0.0914  0.3827 -0.3564
31433SOL    HW196306   8.373   5.229   7.476  0.0879  0.6741 -0.6628
31433SOL    HW296307   8.457   5.354   7.472  1.1489 -0.0416 -1.2266
31434SOL     OW96308   1.716   6.022   0.932  0.7113  0.3632 -0.0065
31434SOL    HW196309   1.639   6.008   0.877  0.9043 -1.4217  0.1005
31434SOL    HW296310   1.775   6.075   0.879 -0.4802  1.5419 -0.1791
31435SOL     OW96311   4.066  11.121   2.775  0.1861 -0.5947  0.6267
31435SOL    HW196312   4.045  11.207   2.739  2.9220  0.3777  1.1208
31435SOL    HW296313   3.995  11.102   2.836 -0.4446  1.3656  0.5502
31436SOL     OW96314   7.685   2.438   4.756  0.0297 -0.0120 -0.4152
31436SOL    HW196315   7.741   2.502   4.800 -1.3397 -0.6328  2.5118
31436SOL    HW296316   7.738   2.358   4.753  1.7284  1.0371 -4.0437
31437SOL     OW96317   6.309   5.069   2.091 -0.7173  0.3775  0.1845
31437SOL    HW196318   6.275   5.158   2.087 -1.5195  0.0113 -1.9199
31437SOL    HW296319   6.298   5.034   2.003 -2.8762 -2.7124  1.4720
31438SOL     OW96320   2.522  11.197  10.002  0.0237 -0.5006  0.4573
31438SOL    HW196321   2.580  11.230   9.933 -0.4439 -0.5264  0.0472
31438SOL    HW296322   2.437  11.186   9.959 -0.1289 -1.0760  0.8880
31439SOL     OW96323   8.897   3.307   5.718 -0.7641  0.8076 -0.1927
31439SOL    HW196324   8.892   3.212   5.731  1.6769  0.5322 -0.7061
31439SOL    HW296325   8.879   3.344   5.804 -1.5907 -0.0992  0.0534
31440SOL     OW96326   8.671   4.292   7.606  0.1906 -0.2449  0.2155
31440SOL    HW196327   8.743   4.229   7.608  1.1154  0.7964  1.4766
31440SOL    HW296328   8.707   4.366   7.556  0.1544  0.4354  1.1768
31441SOL     OW96329  10.352   3.193   5.547  0.4096  0.3131  0.2342
31441SOL    HW196330  10.344   3.243   5.628  2.8922 -1.2065  1.5057
31441SOL    HW296331  10.267   3.205   5.504 -0.2484  2.9033  1.9887
31442SOL     OW96332  10.989   4.335   5.482  0.5124 -0.2867 -0.5224
31442SOL    HW196333  10.978   4.240   5.490  2.2956 -0.5714 -1.0363
31442SOL    HW296334  11.067   4.354   5.534  1.0508  0.6721 -1.6473
31443SOL     OW96335  11.184   5.477   5.105  1.0064 -0.4670 -0.6450
31443SOL    HW196336  11.267   5.464   5.151  0.8551  1.5400  0.2853
31443SOL    HW296337  11.121   5.426   5.156  1.4762 -1.2496 -0.8182
31444SOL     OW96338   1.133   7.754   3.224  0.2108 -0.3599  0.3083
31444SOL    HW196339   1.052   7.754   3.276 -0.6880 -2.4335 -0.9576
31444SOL    HW296340   1.123   7.826   3.163 -0.3415 -0.1320  0.6616
31445SOL     OW96341  10.424   4.143  10.831 -0.3106  0.3522  0.0526
31445SOL    HW196342  10.485   4.167  10.901 -1.1701  0.3753  0.8105
31445SOL    HW296343  10.440   4.050  10.817 -1.8092 -0.2715  2.0259
31446SOL     OW96344   0.073   3.847   1.326  0.4492 -0.4797 -0.5250
31446SOL    HW196345   0.100   3.904   1.254 -0.7472 -2.6157 -2.8274
31446SOL    HW296346   0.143   3.782   1.332  2.2935  1.5188  2.7167
31447SOL     OW96347   0.459   8.655   5.003 -0.0174  0.8649 -0.0876
31447SOL    HW196348   0.500   8.624   4.922  1.0223  0.6579  0.5074
31447SOL    HW296349   0.434   8.746   4.983 -1.0962  0.3646 -1.1082
31448SOL     OW96350   6.219   8.793  10.185 -0.1685  0.2772  0.3037
31448SOL    HW196351   6.151   8.738  10.224 -0.4546 -0.7760 -1.5559
31448SOL    HW296352   6.173   8.848  10.122  0.7878 -1.8953 -2.5310
31449SOL     OW96353   7.223   1.785   2.241 -0.2338 -0.6068 -0.1565
31449SOL    HW196354   7.230   1.742   2.326 -0.2110 -1.4062 -0.5529
31449SOL    HW296355   7.195   1.874   2.261 -0.7691 -0.9473  0.6527
31450SOL     OW96356  10.368   0.458   8.901  0.3127 -0.8310 -0.8793
31450SOL    HW196357  10.377   0.481   8.809 -1.5222 -0.8370 -1.0973
31450SOL    HW296358  10.344   0.541   8.944 -0.1451 -1.0869 -0.6370
31451SOL     OW96359   0.390   7.556   6.590 -0.0485 -0.3276  0.1381
31451SOL    HW196360   0.469   7.602   6.564  0.3533 -1.1721 -0.1646
31451SOL    HW296361   0.355   7.520   6.508  0.2156 -1.4264  0.4862
31452SOL     OW96362   3.652   6.771   0.808  0.2203 -0.4136 -0.3577
31452SOL    HW196363   3.586   6.703   0.820  0.1198 -0.0332  1.6550
31452SOL    HW296364   3.732   6.735   0.846 -0.1997  1.0464  2.1606
31453SOL     OW96365   0.051   3.480   6.080  0.4294 -1.0364  0.0877
31453SOL    HW196366   0.038   3.568   6.045 -2.3890 -1.5708 -0.3978
31453SOL    HW296367   0.110   3.493   6.155  1.6685  0.9444 -1.1472
31454SOL     OW96368   6.185   6.861   4.828 -1.2039  0.3906 -0.2286
31454SOL    HW196369   6.259   6.868   4.889 -2.4695  1.4480  1.2546
31454SOL    HW296370   6.159   6.769   4.832  1.2910 -0.5614 -2.4239
31455SOL     OW96371   8.127   3.941   4.327 -0.6018  0.0649  0.1840
31455SOL    HW196372   8.168   4.020   4.291  0.3830 -0.9074 -0.9242
31455SOL    HW296373   8.037   3.945   4.296 -0.4575  0.5560 -0.1918
31456SOL     OW96374   5.760   6.680   9.356  0.2492 -0.0023 -0.1562
31456SOL    HW196375   5.849   6.651   9.336 -0.1974  0.8750 -4.1747
31456SOL    HW296376   5.716   6.601   9.390  1.9336 -1.0304 -0.2567
31457SOL     OW96377  10.962  10.945   6.889 -0.0945  0.3952  0.1760
31457SOL    HW196378  10.959  10.850   6.881  2.2756  0.3531 -0.7847
31457SOL    HW296379  10.991  10.960   6.979  2.7626  0.0512 -0.5977
31458SOL     OW96380   3.289   6.577  10.353 -0.1109  1.3426  0.2212
31458SOL    HW196381   3.250   6.520  10.288 -1.3265  3.7399 -1.2794
31458SOL    HW296382   3.365   6.529  10.385 -0.1244 -0.3932 -2.1530
31459SOL     OW96383   3.990   0.900   2.421 -0.5685  0.3342  0.4635
31459SOL    HW196384   3.903   0.895   2.383 -0.7054  0.1476  0.7970
31459SOL    HW296385   4.023   0.986   2.395 -0.9035  0.4580  0.4465
31460SOL     OW96386   2.405   8.539   5.198  0.1587  0.0442  0.4448
31460SOL    HW196387   2.433   8.448   5.186 -1.1782 -0.1170 -2.5068
31460SOL    HW296388   2.311   8.537   5.184 -0.0060  1.8034  1.0415
31461SOL     OW96389   8.750   0.948   3.204 -0.5034 -0.6055  0.3301
31461SOL    HW196390   8.679   0.981   3.148  2.3109  1.7274 -2.1857
31461SOL    HW296391   8.795   0.883   3.151  1.3946  0.6260  0.3484
31462SOL     OW96392   1.247  10.128   6.094 -0.1003  0.3178 -0.6187
31462SOL    HW196393   1.215  10.207   6.138 -0.7253  0.1250 -0.7166
31462SOL    HW296394   1.174  10.100   6.039  1.1973  1.4557 -3.0389
31463SOL     OW96395   6.707   6.490   3.527 -0.1774 -0.0068  0.2040
31463SOL    HW196396   6.640   6.461   3.588  0.4520 -3.8695 -0.6951
31463SOL    HW296397   6.668   6.477   3.440  0.9819 -0.2719 -0.2979
31464SOL     OW96398   0.023   4.102   8.982 -0.7659  0.3059  0.1739
31464SOL    HW196399   0.082   4.157   8.930 -1.2730  0.3101 -0.4034
31464SOL    HW296400   0.046   4.013   8.956  0.3232  0.1968  1.3924
31465SOL     OW96401   8.064   7.260   0.226  0.0748 -0.0027  1.0025
31465SOL    HW196402   8.102   7.204   0.294  0.9215 -0.3095  0.2871
31465SOL    HW296403   8.139   7.293   0.177 -0.5352 -0.0056  0.0394
31466SOL     OW96404   3.012   7.562   9.724 -0.0641  0.2329  0.0755
31466SOL    HW196405   3.071   7.544   9.651 -0.7545  1.0424 -0.7077
31466SOL    HW296406   3.018   7.657   9.737 -0.4688  0.1886  0.6131
31467SOL     OW96407   4.299  10.375  10.278  0.4559 -0.0728 -0.2839
31467SOL    HW196408   4.232  10.307  10.274  1.3438 -0.9179 -1.7077
31467SOL    HW296409   4.305  10.408  10.188  0.9395  0.9931  0.1212
31468SOL     OW96410   8.664   4.269   9.746 -0.4678 -0.5491 -0.1266
31468SOL    HW196411   8.705   4.342   9.792  0.4003  0.7624 -2.7513
31468SOL    HW296412   8.580   4.256   9.789  0.2792  0.5620  1.7492
31469SOL     OW96413   5.157   5.872   7.998  0.1037  0.5957  0.2394
31469SOL    HW196414   5.150   5.886   7.903 -0.6689 -0.1714  0.1792
31469SOL    HW296415   5.113   5.789   8.014 -2.0676  1.9244  1.6212
31470SOL     OW96416   2.081   7.968   6.492  0.1413  0.1542  0.2204
31470SOL    HW196417   2.111   7.952   6.582  0.2713  3.1173  0.7954
31470SOL    HW296418   2.158   8.002   6.447  0.1244 -1.4903 -1.1379
31471SOL     OW96419   7.152   4.051   4.083 -0.4414 -0.1721  0.3811
31471SOL    HW196420   7.195   3.990   4.023 -1.7995 -1.4574  0.6449
31471SOL    HW296421   7.195   4.135   4.067 -0.3233 -0.6128 -1.9096
31472SOL     OW96422   5.206   5.682   2.034 -0.1476  0.2705 -0.6458
31472SOL    HW196423   5.207   5.721   1.947  0.6238  0.4385 -0.5629
31472SOL    HW296424   5.119   5.703   2.068 -0.3410  0.4732 -1.2493
31473SOL     OW96425   3.032  10.551   8.630  0.4915 -0.3111 -0.4389
31473SOL    HW196426   3.040  10.456   8.625  0.9449 -0.3397  0.5823
31473SOL    HW296427   2.994  10.577   8.546 -2.6982 -1.7178  0.4179
31474SOL     OW96428   9.973   5.872   3.591 -0.5727  0.2587  0.4353
31474SOL    HW196429  10.011   5.798   3.544 -1.9528 -0.6722  0.7263
31474SOL    HW296430   9.886   5.882   3.553 -0.9300  0.8073  1.3724
31475SOL     OW96431   4.247   2.615   0.543 -0.0067  0.3053 -0.0344
31475SOL    HW196432   4.255   2.636   0.450  0.8777  0.9637  0.1786
31475SOL    HW296433   4.241   2.519   0.545 -0.3272  0.3018 -0.7847
31476SOL     OW96434   3.367   2.715   3.790  0.0148 -0.1372  0.0271
31476SOL    HW196435   3.279   2.694   3.759 -1.3084  1.3568  2.4428
31476SOL    HW296436   3.421   2.642   3.760 -2.6349 -2.7434  1.0486
31477SOL     OW96437   7.733   7.092   9.722 -0.2174  0.2013 -0.3375
31477SOL    HW196438   7.821   7.108   9.687  1.0642 -0.2966  2.3671
31477SOL    HW296439   7.713   7.002   9.697  0.6142 -0.1063  0.0548
31478SOL     OW96440   9.387   5.830   4.635  0.5669 -0.0053  0.5697
31478SOL    HW196441   9.298   5.812   4.663  0.0225  0.8470 -0.5259
31478SOL    HW296442   9.435   5.849   4.716  0.2860 -2.4400  1.3877
31479SOL     OW96443   7.347   4.713   3.055 -0.5047 -0.2362 -0.4952
31479SOL    HW196444   7.386   4.655   3.120 -2.1547 -0.2764  0.5403
31479SOL    HW296445   7.305   4.654   2.993 -1.5958 -0.2132  0.1796
31480SOL     OW96446   3.557   0.024   5.016  0.1944  0.1690  0.1193
31480SOL    HW196447   3.636  -0.024   5.040  0.1361  0.2741  0.5286
31480SOL    HW296448   3.488  -0.043   5.015  0.6539 -0.3446 -2.3567
31481SOL     OW96449   1.065   2.685   6.788  0.9868  0.3158  0.1940
31481SOL    HW196450   1.098   2.695   6.878  0.6304 -2.0698  0.6384
31481SOL    HW296451   0.971   2.700   6.796  1.1030  1.2201 -0.0119
31482SOL     OW96452   5.682   3.644   8.885  0.4459 -0.1249  0.4386
31482SOL    HW196453   5.647   3.571   8.833 -0.1632  0.5169 -0.0769
31482SOL    HW296454   5.777   3.634   8.880  0.4522  0.6090 -1.8531
31483SOL     OW96455   2.746   4.694   6.184 -0.0700 -0.4115  0.1137
31483SOL    HW196456   2.762   4.780   6.145 -0.9110 -0.4955 -0.4270
31483SOL    HW296457   2.761   4.632   6.113  0.4098 -0.7165  0.4694
31484SOL     OW96458   5.017   9.581   2.981  0.8746  0.2842  0.7176
31484SOL    HW196459   5.055   9.568   3.068  1.4404 -0.7116  0.3508
31484SOL    HW296460   5.052   9.508   2.929 -1.0849 -0.3326  0.1947
31485SOL     OW96461   5.311   8.938  10.633  0.1428  0.0381 -0.6401
31485SOL    HW196462   5.266   8.905  10.711 -1.8848 -1.4221 -2.3396
31485SOL    HW296463   5.345   9.024  10.660  0.0237 -0.6515  1.9844
31486SOL     OW96464   3.924   0.479  10.550  0.0891  0.0127  0.5738
31486SOL    HW196465   3.879   0.408  10.595 -0.7486  0.4569  0.4460
31486SOL    HW296466   4.012   0.480  10.589  0.2906 -1.4220  0.2043
31487SOL     OW96467   8.390   5.968   5.307 -0.5471 -0.1654  0.4311
31487SOL    HW196468   8.318   6.007   5.257 -0.0880 -1.3841 -1.2606
31487SOL    HW296469   8.460   6.033   5.300  0.1766 -1.1009 -2.2744
31488SOL     OW96470   8.497   2.591   5.069 -0.1551 -0.3873  0.3177
31488SOL    HW196471   8.486   2.600   5.164  0.3320 -1.5068  0.5009
31488SOL    HW296472   8.554   2.514   5.059 -0.8852 -0.7961 -0.9073
31489SOL     OW96473   9.442   6.994   4.128 -0.0361  0.8214  0.9126
31489SOL    HW196474   9.353   6.994   4.094 -0.1285  3.3223  1.0042
31489SOL    HW296475   9.472   7.084   4.119  1.2777  0.8177  4.0126
31490SOL     OW96476   2.695   2.610   6.748 -0.1298 -0.1077  0.3036
31490SOL    HW196477   2.697   2.526   6.794  0.1500 -0.5425 -0.4788
31490SOL    HW296478   2.706   2.587   6.656 -2.1670  0.6116 -0.1805
31491SOL     OW96479   2.815   1.194   0.059  0.2686  0.2925  0.3176
31491SOL    HW196480   2.812   1.102   0.083  0.3326  0.1671 -0.1556
31491SOL    HW296481   2.859   1.236   0.134  3.8176 -0.6114 -1.0403
31492SOL     OW96482   3.338   9.834   9.046  0.3256 -0.1222  0.2786
31492SOL    HW196483   3.273   9.878   9.099  0.5851  0.5164  0.0693
31492SOL    HW296484   3.421   9.877   9.067  0.1762  1.5155 -2.0747
31493SOL     OW96485   2.200  10.460   0.432 -0.0325  0.1917 -0.0308
31493SOL    HW196486   2.231  10.502   0.352  0.9536 -0.1058  0.1848
31493SOL    HW296487   2.150  10.528   0.476  1.3623  1.1044  0.2113
31494SOL     OW96488   8.677   6.423   6.034  0.0909 -0.5156 -0.0892
31494SOL    HW196489   8.644   6.364   6.102 -0.6209 -1.7004 -1.4091
31494SOL    HW296490   8.609   6.422   5.966  1.7370 -1.1573 -1.8201
31495SOL     OW96491   7.700  10.014   7.038  0.5578  0.2513 -0.6547
31495SOL    HW196492   7.705   9.979   7.127  0.6924 -1.6190 -1.3475
31495SOL    HW296493   7.791  10.017   7.008  0.4690  0.3009 -0.9249
31496SOL     OW96494   1.831   0.615   8.841 -0.5607  0.1642  0.0727
31496SOL    HW196495   1.915   0.658   8.826  0.2558 -0.5912  2.0062
31496SOL    HW296496   1.826   0.549   8.772  1.2170 -0.8059  0.7899
31497SOL     OW96497   0.616   8.109  11.110 -0.2386  0.6321 -0.4584
31497SOL    HW196498   0.534   8.135  11.069 -0.7823 -2.8959 -2.0079
31497SOL    HW296499   0.676   8.094  11.037  1.1487  1.1342  0.5262
31498SOL     OW96500   2.334   6.547   7.191  0.3130 -0.2891  0.2737
31498SOL    HW196501   2.345   6.624   7.135  1.1897 -1.0749 -0.6999
31498SOL    HW296502   2.404   6.488   7.162 -0.1937 -1.3411  1.1657
31499SOL     OW96503   3.604   6.186   1.904 -0.2059 -0.3478 -0.3386
31499SOL    HW196504   3.586   6.234   1.985  1.7146  1.6778 -1.0280
31499SOL    HW296505   3.566   6.240   1.835 -2.4011 -2.3648 -0.8841
31500SOL     OW96506   7.862   7.994   1.645 -0.3349 -0.3385  0.5467
31500SOL    HW196507   7.772   8.021   1.662  0.6618  2.3966  1.9425
31500SOL    HW296508   7.879   7.924   1.708 -1.2325 -0.3733  0.7605
31501SOL     OW96509   3.251   8.453   7.573 -0.3716 -0.5678  0.1504
31501SOL    HW196510   3.316   8.465   7.504 -0.5123 -1.6884 -0.1898
31501SOL    HW296511   3.170   8.433   7.526 -0.6033 -0.7417  0.6176
31502SOL     OW96512   1.932   9.265   5.242  0.4523  0.4568 -0.2537
31502SOL    HW196513   1.853   9.300   5.199  0.4245  0.9067  0.1556
31502SOL    HW296514   1.923   9.292   5.333  1.6690  1.5685 -0.4355
31503SOL     OW96515   0.489   5.287   4.654 -0.2373 -0.2757  0.2687
31503SOL    HW196516   0.513   5.281   4.561 -1.4272  0.8119 -0.1452
31503SOL    HW296517   0.526   5.370   4.683 -0.5270 -0.2423  0.5503
31504SOL     OW96518   0.615  10.248   8.239  0.0661  0.1990 -0.6504
31504SOL    HW196519   0.566  10.276   8.162 -1.5009 -0.5026  0.0647
31504SOL    HW296520   0.657  10.328   8.271 -1.2990  0.9953 -0.8009
31505SOL     OW96521   6.148   2.773   3.525 -0.5218  0.3664  0.1804
31505SOL    HW196522   6.099   2.769   3.443 -0.4818  0.1049  0.1681
31505SOL    HW296523   6.094   2.828   3.582 -1.6247 -1.1692  0.6950
31506SOL     OW96524   6.501   3.720   1.658 -0.3567  0.7200 -0.0808
31506SOL    HW196525   6.411   3.743   1.638 -0.6699 -0.7335 -0.4918
31506SOL    HW296526   6.528   3.663   1.585  0.4652  0.1141  0.6701
31507SOL     OW96527   6.102   1.502   9.492 -0.0461 -0.0475 -0.2926
31507SOL    HW196528   6.163   1.430   9.475  2.4475  2.3386 -2.4600
31507SOL    HW296529   6.139   1.548   9.567 -1.1645 -0.4867  0.5575
31508SOL     OW96530   7.893   9.765   3.049 -0.4440 -0.1814  0.4687
31508SOL    HW196531   7.826   9.797   2.990  0.0744 -0.3678 -0.2281
31508SOL    HW296532   7.908   9.837   3.110 -1.2657 -0.1381  0.6312
31509SOL     OW96533   9.591  11.019   2.716 -0.0788  0.0478 -0.4238
31509SOL    HW196534   9.497  11.036   2.709 -0.2343 -0.5773  0.0545
31509SOL    HW296535   9.598  10.948   2.780  0.5277 -1.8618 -2.4919
31510SOL     OW96536   5.058   9.947   0.814  0.7019  0.2287 -0.5207
31510SOL    HW196537   4.989   9.974   0.753  1.1751 -0.7041 -1.4930
31510SOL    HW296538   5.122  10.017   0.812  0.5821  0.3264 -0.8827
31511SOL     OW96539   7.594   3.397  10.662  0.0626 -0.3708  0.1553
31511SOL    HW196540   7.507   3.423  10.693  0.0546  0.4960 -0.5672
31511SOL    HW296541   7.651   3.407  10.739 -0.2189  0.3621  0.2700
31512SOL     OW96542   8.386   5.494  10.109  0.3477 -0.0851  0.2035
31512SOL    HW196543   8.302   5.539  10.117  0.8741  1.6569 -2.5611
31512SOL    HW296544   8.451   5.564  10.111  1.5996 -1.2043  0.4239
31513SOL     OW96545   7.517   6.397  11.273 -0.4258  0.3810  0.3874
31513SOL    HW196546   7.545   6.376  11.184  1.3531  0.3493  0.9110
31513SOL    HW296547   7.438   6.450  11.262  1.0727  2.3966 -1.3248
31514SOL     OW96548   1.156  10.609   0.913 -0.2195 -0.9954 -0.5614
31514SOL    HW196549   1.162  10.563   0.997 -0.3618  3.1730  1.9755
31514SOL    HW296550   1.245  10.641   0.897 -0.7647  0.7265 -0.3546
31515SOL     OW96551  11.120   6.418  10.580 -0.0105  0.2634  0.5207
31515SOL    HW196552  11.034   6.417  10.620 -0.0551 -0.4203  0.4171
31515SOL    HW296553  11.110   6.366  10.500 -0.1903  2.4250 -0.9467
31516SOL     OW96554   4.840   9.704   3.333 -0.9267  0.4717 -0.3417
31516SOL    HW196555   4.795   9.626   3.302  2.2644 -0.8833 -2.1180
31516SOL    HW296556   4.845   9.693   3.428 -1.0916 -1.2011 -0.4986
31517SOL     OW96557   4.225   1.947   3.209  0.0774  0.0356  0.8034
31517SOL    HW196558   4.268   1.877   3.161  1.4337  1.4782 -0.2208
31517SOL    HW296559   4.134   1.944   3.180  0.3283 -0.6887  0.0469
31518SOL     OW96560   5.774   3.149   2.854  0.0653  0.2333  0.3220
31518SOL    HW196561   5.744   3.145   2.945  0.1368  0.1591  0.3431
31518SOL    HW296562   5.695   3.139   2.802  0.3994 -4.3849  0.2991
31519SOL     OW96563   6.803   0.268   5.583 -0.4096  0.0829  0.3297
31519SOL    HW196564   6.897   0.285   5.594 -0.3482  0.4342 -0.5963
31519SOL    HW296565   6.779   0.213   5.657  0.3149  0.8130  1.1248
31520SOL     OW96566   2.048   8.047   9.189  0.1905  0.3367  0.3187
31520SOL    HW196567   2.009   8.065   9.275 -0.0367 -2.5085  0.9039
31520SOL    HW296568   2.142   8.039   9.207  0.1664 -0.0684  0.2635
31521SOL     OW96569   9.768   7.998  10.841 -0.1543 -0.3451 -0.4873
31521SOL    HW196570   9.799   8.081  10.804 -1.3357  0.4492  0.1940
31521SOL    HW296571   9.847   7.955  10.874  0.2276  2.1596  2.3538
31522SOL     OW96572   9.810   6.984   6.637  0.3325  0.0214 -0.3138
31522SOL    HW196573   9.781   6.980   6.728 -1.3081 -1.4251 -0.8528
31522SOL    HW296574   9.900   7.016   6.642  0.3328 -0.1730  1.8200
31523SOL     OW96575   1.778   9.205   0.733 -0.3082  0.8041  0.5330
31523SOL    HW196576   1.714   9.248   0.675 -0.1735 -1.0239 -1.0503
31523SOL    HW296577   1.725   9.159   0.797 -0.5066  1.0670  0.5626
31524SOL     OW96578   1.727   1.208   3.749  0.0328  0.9051  0.1751
31524SOL    HW196579   1.667   1.204   3.823  1.2897 -3.1215  1.2533
31524SOL    HW296580   1.811   1.233   3.787  0.6072 -0.8379  0.1652
31525SOL     OW96581  10.349   7.828   2.466  0.4092  0.1998  0.8772
31525SOL    HW196582  10.398   7.762   2.514  2.2619  1.5295  0.9131
31525SOL    HW296583  10.383   7.912   2.498 -1.1311  1.1780  0.0943
31526SOL     OW96584   2.517   0.433   2.156  0.3785 -0.3200 -0.8379
31526SOL    HW196585   2.489   0.453   2.067  2.1150  0.5684 -1.2285
31526SOL    HW296586   2.437   0.440   2.209 -0.3556  0.8706 -2.0598
31527SOL     OW96587   0.292   9.995   8.319  0.2408 -0.0091 -0.1613
31527SOL    HW196588   0.284  10.088   8.297  1.1467  0.3703  1.0775
31527SOL    HW296589   0.344   9.992   8.399  0.4683 -1.6070 -0.3226
31528SOL     OW96590   0.289   0.544   7.940 -0.5414  0.4033  0.1720
31528SOL    HW196591   0.328   0.631   7.930  0.0580  0.0998 -0.1616
31528SOL    HW296592   0.250   0.546   8.028  4.2544 -0.7704  2.6932
31529SOL     OW96593   0.501   3.242   9.899  0.3032 -0.0833  0.4233
31529SOL    HW196594   0.531   3.315   9.953 -1.6718  1.2639 -0.1626
31529SOL    HW296595   0.474   3.175   9.961  0.4511  0.4086  1.0317
31530SOL     OW96596   1.239  11.095   4.712  0.0798  0.1281  0.6651
31530SOL    HW196597   1.245  11.125   4.803  2.4474  1.7306  0.0604
31530SOL    HW296598   1.240  11.175   4.660  0.6833 -0.8165 -0.8420
31531SOL     OW96599   9.027   4.225   4.370 -0.9565  0.0563  0.3693
31531SOL    HW196600   9.059   4.250   4.283 -1.6457 -0.5637 -0.0789
31531SOL    HW296601   9.088   4.158   4.400 -1.0784 -0.1876  0.0832
31532SOL     OW96602   2.785  10.409   7.377  0.4862  0.3824 -0.0886
31532SOL    HW196603   2.841  10.397   7.300 -4.5890  0.5483 -4.4282
31532SOL    HW296604   2.753  10.321   7.398 -0.0422  0.6380  0.1968
31533SOL     OW96605   7.940   1.254   5.713 -0.1453  0.1115  0.6562
31533SOL    HW196606   7.947   1.285   5.623  1.8086  0.7962  1.0005
31533SOL    HW296607   7.901   1.328   5.761 -1.1032 -0.2217  0.4164
31534SOL     OW96608   7.946   2.671   9.517 -0.5970 -0.0048 -0.4585
31534SOL    HW196609   7.962   2.665   9.423  0.0281 -1.5826 -0.2942
31534SOL    HW296610   7.907   2.757   9.530 -2.4949 -0.4976 -2.4015
31535SOL     OW96611   2.854   9.550   6.102 -1.0091  0.1170  0.6491
31535SOL    HW196612   2.901   9.494   6.041 -1.4127  1.1710 -0.6723
31535SOL    HW296613   2.783   9.495   6.134 -1.2842 -0.2116 -0.4685
31536SOL     OW96614   0.142   4.196   8.685  0.4248  0.2453  0.2982
31536SOL    HW196615   0.194   4.257   8.631  2.7367 -0.1931  1.9018
31536SOL    HW296616   0.188   4.112   8.677  1.3494  0.3235  3.4463
31537SOL     OW96617   9.844   9.431   4.724  0.2564 -0.4337 -0.7282
31537SOL    HW196618   9.923   9.478   4.750  0.3128 -0.2379 -1.2276
31537SOL    HW296619   9.803   9.405   4.806 -0.2183  1.2371 -0.3922
31538SOL     OW96620   6.202   3.805   1.873 -0.2422 -0.0564 -0.2914
31538SOL    HW196621   6.222   3.872   1.938 -0.8095 -0.2635  0.0980
31538SOL    HW296622   6.124   3.761   1.906 -1.8121  1.1928 -2.1091
31539SOL     OW96623   2.360   2.578  11.063 -0.3034 -0.1218 -0.3230
31539SOL    HW196624   2.352   2.551  10.971 -0.4838 -0.1276 -0.3056
31539SOL    HW296625   2.313   2.661  11.068  2.1774  1.4323 -0.8969
31540SOL     OW96626   9.535   2.946   7.800 -0.2256 -0.0442 -0.5449
31540SOL    HW196627   9.540   3.040   7.820 -0.5216 -0.2097  0.3383
31540SOL    HW296628   9.452   2.918   7.837 -0.2974 -0.5926 -1.1085
31541SOL     OW96629   8.598   5.550   9.706  0.4583  0.0006  0.0049
31541SOL    HW196630   8.590   5.455   9.694 -0.1099  0.0041  0.3361
31541SOL    HW296631   8.606   5.562   9.801  0.5747  0.2852 -0.0387
31542SOL     OW96632   6.303   1.433   1.734  0.1825 -0.2568  0.6656
31542SOL    HW196633   6.332   1.480   1.655 -2.0340 -0.2389 -0.2101
31542SOL    HW296634   6.319   1.341   1.714  1.8128 -0.1212  1.1980
31543SOL     OW96635   1.131   6.434   5.624 -0.1529  0.1332 -0.7573
31543SOL    HW196636   1.175   6.359   5.665  0.0489 -0.3556 -1.8170
31543SOL    HW296637   1.142   6.419   5.530 -2.5470  0.0085 -1.0851
31544SOL     OW96638  10.219   9.692   3.389 -0.0509  0.1499  0.6125
31544SOL    HW196639  10.223   9.681   3.294  0.6920  1.1927  0.5116
31544SOL    HW296640  10.163   9.620   3.419  0.5901 -0.8538 -0.5006
31545SOL     OW96641   4.604   4.590   5.394 -0.5382 -0.0562  0.0971
31545SOL    HW196642   4.529   4.532   5.396  1.0126 -2.1752  0.2930
31545SOL    HW296643   4.678   4.535   5.419  1.1503  1.8451 -0.4091
31546SOL     OW96644   7.262   7.945   8.132  0.1480  0.3681 -0.6360
31546SOL    HW196645   7.340   7.893   8.148 -0.2037 -0.1397 -0.5465
31546SOL    HW296646   7.193   7.901   8.182 -0.0467  1.2152 -0.1417
31547SOL     OW96647   5.995  11.246   5.002 -0.0155 -0.2817  0.5228
31547SOL    HW196648   6.016  11.263   5.094  1.4681  1.8303 -0.1370
31547SOL    HW296649   5.912  11.292   4.988  0.4117  0.5058  0.5124
31548SOL     OW96650   3.440   8.307   9.973 -0.4212  0.2003  0.0720
31548SOL    HW196651   3.393   8.386   9.948 -0.6441  0.3638  0.9585
31548SOL    HW296652   3.513   8.301   9.912 -1.6016 -0.0873 -1.3896
31549SOL     OW96653   7.478   8.842  11.280 -0.4156  0.7360 -0.2852
31549SOL    HW196654   7.400   8.837  11.336 -0.2376 -1.2522 -0.1579
31549SOL    HW296655   7.496   8.752  11.256  1.9250  1.1361 -0.2265
31550SOL     OW96656   3.379   8.573   3.318 -0.0669  0.5095  0.4206
31550SOL    HW196657   3.473   8.580   3.335 -0.2301 -0.2923  1.7677
31550SOL    HW296658   3.361   8.644   3.257  1.1711  1.5406  1.1912
31551SOL     OW96659   3.325   7.447   2.377 -0.4450 -0.6946 -0.2793
31551SOL    HW196660   3.371   7.423   2.297 -0.6633  0.3134 -0.7287
31551SOL    HW296661   3.303   7.540   2.365 -0.2353 -0.4449  1.0620
31552SOL     OW96662   8.795  10.011   8.429  0.2829 -0.5175 -0.5307
31552SOL    HW196663   8.700  10.001   8.417  0.0128  0.1588  0.8637
31552SOL    HW296664   8.828   9.922   8.431 -0.8045 -0.9591  2.2796
31553SOL     OW96665   6.945   0.624   9.387  0.0422  1.0112  0.3085
31553SOL    HW196666   6.872   0.584   9.340 -0.4527 -2.2077  3.3412
31553SOL    HW296667   7.023   0.596   9.338 -0.5458 -0.1782  0.0172
31554SOL     OW96668   4.916  10.832   1.609 -0.2143 -0.0145  0.9770
31554SOL    HW196669   4.898  10.755   1.662 -3.8897  0.1896  0.3196
31554SOL    HW296670   4.937  10.901   1.673 -3.4483 -0.0383  2.2646
31555SOL     OW96671   1.235   7.823   0.319 -0.6286 -0.0274 -0.0642
31555SOL    HW196672   1.235   7.758   0.249 -2.5496  0.0053 -0.1584
31555SOL    HW296673   1.228   7.771   0.399  0.6715 -0.0285  0.0613
31556SOL     OW96674   8.285   1.465  10.767 -0.0496 -0.1537  0.3571
31556SOL    HW196675   8.266   1.375  10.743 -0.8984  0.0963  0.0491
31556SOL    HW296676   8.364   1.460  10.821 -0.9781 -1.2483  1.6599
31557SOL     OW96677   8.019   6.036   2.621  0.9333 -0.3143 -0.0605
31557SOL    HW196678   8.107   6.059   2.591  0.7164  1.1573  0.3542
31557SOL    HW296679   7.986   5.977   2.554  1.4756  0.7421 -1.3032
31558SOL     OW96680   4.113   9.047   8.363  0.7240  0.5036  0.1578
31558SOL    HW196681   4.020   9.068   8.353  0.0764 -1.8159  0.7966
31558SOL    HW296682   4.120   8.954   8.343  2.6500  0.2807  1.5207
31559SOL     OW96683   1.858   7.109   9.331 -0.5738 -0.5153  0.2281
31559SOL    HW196684   1.830   7.120   9.422  2.4061 -0.4724  1.2270
31559SOL    HW296685   1.808   7.033   9.301 -1.8992 -0.3096  1.7592
31560SOL     OW96686   8.176   6.855   6.892 -0.1229 -0.6799 -0.9334
31560SOL    HW196687   8.156   6.763   6.873 -1.0405 -0.8381  0.6707
31560SOL    HW296688   8.271   6.858   6.897 -0.0730 -1.5005 -1.1900
31561SOL     OW96689   8.235   8.402   2.281 -0.6293 -0.6092  0.4177
31561SOL    HW196690   8.285   8.336   2.232 -0.1767  0.1970 -0.2374
31561SOL    HW296691   8.154   8.358   2.305 -1.1397 -0.8796 -1.6131
31562SOL     OW96692   5.733   9.178   0.981 -0.1318 -0.4845 -0.2180
31562SOL    HW196693   5.737   9.272   0.966  0.2129 -0.4104  0.3085
31562SOL    HW296694   5.823   9.153   1.004 -0.3716 -0.8044  0.4051
31563SOL     OW96695   1.104   8.164   2.173 -0.1986  0.4631  0.5787
31563SOL    HW196696   1.085   8.100   2.104  0.6405 -0.7061  1.3881
31563SOL    HW296697   1.124   8.245   2.127 -1.1656  0.1218 -0.4779
31564SOL     OW96698   5.626   6.660   0.341 -0.2396 -0.2841  0.1542
31564SOL    HW196699   5.578   6.715   0.279 -2.2751 -2.1964 -0.0516
31564SOL    HW296700   5.656   6.586   0.289 -1.5702 -1.6818  1.3020
31565SOL     OW96701   8.726   7.987   7.333  0.9919 -0.2546  0.0020
31565SOL    HW196702   8.682   8.017   7.253  0.6944 -0.2809  0.1538
31565SOL    HW296703   8.658   7.941   7.382 -0.1192  3.3653  2.2974
31566SOL     OW96704   4.134   9.404   3.339 -0.1372 -0.1868  0.1254
31566SOL    HW196705   4.205   9.431   3.398 -0.6962 -0.3653  0.9049
31566SOL    HW296706   4.054   9.425   3.388 -0.6058 -1.4811 -0.0441
31567SOL     OW96707   9.494  10.847   8.336 -0.8409  0.4904  0.4408
31567SOL    HW196708   9.415  10.843   8.389 -0.1347  0.8444  1.5648
31567SOL    HW296709   9.466  10.887   8.254 -2.2605 -1.4137 -0.0810
31568SOL     OW96710   6.787   6.371   5.107  0.0873  0.1343 -0.4654
31568SOL    HW196711   6.794   6.324   5.024  1.5986  0.8787 -0.7903
31568SOL    HW296712   6.755   6.458   5.083  1.6881  0.7611 -0.4583
31569SOL     OW96713   1.284  10.164   0.837 -0.3444 -0.4652 -0.0515
31569SOL    HW196714   1.261  10.222   0.910  0.9692 -2.7342  2.3032
31569SOL    HW296715   1.330  10.091   0.878 -2.7802 -3.7496 -2.6669
31570SOL     OW96716   5.309   2.840   8.728  0.5598 -0.0689 -0.1011
31570SOL    HW196717   5.287   2.787   8.651  0.6150 -0.6957  0.3033
31570SOL    HW296718   5.250   2.809   8.796  1.8176 -0.8974  0.6497
31571SOL     OW96719   4.382   2.410   4.745 -0.5372  0.0614 -0.4538
31571SOL    HW196720   4.404   2.365   4.663 -0.5296  0.7691 -0.8453
31571SOL    HW296721   4.421   2.355   4.813  1.3219  0.5718 -1.0354
31572SOL     OW96722   1.652   5.752   0.801  0.3370  0.1878 -0.0962
31572SOL    HW196723   1.733   5.793   0.828  1.1502 -1.7098  0.5183
31572SOL    HW296724   1.631   5.691   0.872 -0.2846 -1.1337 -1.3728
31573SOL     OW96725   8.679   5.417   3.805  0.6078  0.5809 -0.1913
31573SOL    HW196726   8.686   5.339   3.751  0.9362  0.3838  0.1361
31573SOL    HW296727   8.673   5.489   3.742  0.3374  0.3004 -0.4924
31574SOL     OW96728   5.426   4.259  10.719 -0.1678  0.0221  0.1050
31574SOL    HW196729   5.470   4.174  10.731  3.4806  1.7089  0.1004
31574SOL    HW296730   5.421   4.270  10.624 -0.2341 -0.0254  0.1038
31575SOL     OW96731   2.509   4.316   8.358 -0.2676 -0.0264 -0.2238
31575SOL    HW196732   2.447   4.360   8.299  1.0032  2.6846  0.3046
31575SOL    HW296733   2.457   4.294   8.435 -1.1349 -0.2354 -0.8502
31576SOL     OW96734   7.749   9.988   4.390  0.6615 -0.3795 -0.3382
31576SOL    HW196735   7.780   9.914   4.338 -1.4103 -0.1292 -2.0609
31576SOL    HW296736   7.741  10.060   4.328  0.5402  0.6904  0.8580
31577SOL     OW96737   9.087   8.479   3.507  0.1645 -0.2433 -0.1097
31577SOL    HW196738   9.059   8.454   3.419  1.1411 -1.3989 -0.1101
31577SOL    HW296739   9.139   8.559   3.493 -0.3471  0.0326 -0.4766
31578SOL     OW96740   6.552   9.951  11.102  0.6945  0.6967  0.2413
31578SOL    HW196741   6.586   9.863  11.118  0.1291 -0.0530 -2.1981
31578SOL    HW296742   6.495   9.969  11.177 -0.5455 -1.7767  0.0055
31579SOL     OW96743   9.799   8.557   3.991  0.0509  0.2067 -0.3141
31579SOL    HW196744   9.864   8.492   4.016 -0.6314  0.3154  1.9474
31579SOL    HW296745   9.850   8.635   3.969  0.8130 -0.7412 -2.0958
31580SOL     OW96746   6.706   9.554   0.996 -0.0148  0.0155  0.1835
31580SOL    HW196747   6.657   9.544   1.077  1.2925 -1.5868  0.8166
31580SOL    HW296748   6.653   9.509   0.930 -0.5932  0.4777  0.3219
31581SOL     OW96749   1.473   8.439   0.868 -1.0177  0.1783 -0.0311
31581SOL    HW196750   1.397   8.382   0.851 -1.1221 -0.1395  1.3784
31581SOL    HW296751   1.549   8.386   0.845 -1.1957  0.5324 -1.5504
31582SOL     OW96752   3.791   2.151   1.177 -0.2221  0.4441 -0.3298
31582SOL    HW196753   3.707   2.192   1.196 -0.1358  0.4291  0.0977
31582SOL    HW296754   3.801   2.160   1.083 -0.6377  0.5716 -0.3652
31583SOL     OW96755   9.849   7.269   4.895 -0.8823 -0.0083 -0.2915
31583SOL    HW196756   9.800   7.323   4.958 -0.8405 -0.9804  0.5982
31583SOL    HW296757   9.891   7.333   4.838 -0.0105  0.9834  1.3574
31584SOL     OW96758   5.502   6.397   9.238 -0.8237  0.6761 -0.3032
31584SOL    HW196759   5.506   6.307   9.207  1.6710  1.0909 -1.4671
31584SOL    HW296760   5.552   6.396   9.320 -0.4168  1.0641 -0.5428
31585SOL     OW96761   9.928   4.810   9.640 -0.0238 -0.3239  0.1524
31585SOL    HW196762  10.004   4.847   9.686  0.6649  1.6000 -2.2853
31585SOL    HW296763   9.966   4.754   9.572 -0.9905 -2.6849  1.4745
31586SOL     OW96764   0.584   3.276  10.257 -0.5698  0.2001  0.1218
31586SOL    HW196765   0.547   3.321  10.181  0.5265 -1.2887 -1.3451
31586SOL    HW296766   0.609   3.190  10.225  1.2695  0.0251  1.8037
31587SOL     OW96767   7.878   8.773   7.633 -0.1100 -0.4081  0.0754
31587SOL    HW196768   7.973   8.766   7.631 -0.1649 -1.4275  0.5501
31587SOL    HW296769   7.853   8.783   7.541  0.4634  0.0971 -0.0303
31588SOL     OW96770   2.786  11.025   3.383  0.0549  0.6999 -0.3586
31588SOL    HW196771   2.696  10.995   3.375  0.2366  0.4336 -1.5400
31588SOL    HW296772   2.837  10.944   3.395  0.1768  0.8230 -0.0220
31589SOL     OW96773   9.042   4.055   3.668  0.2730 -0.8796 -0.8571
31589SOL    HW196774   9.063   3.984   3.729 -1.9355 -0.3341  0.6497
31589SOL    HW296775   9.080   4.133   3.709 -0.5094 -0.6352 -0.5911
31590SOL     OW96776   8.178   0.197   9.907  0.1195  0.0103 -0.8664
31590SOL    HW196777   8.102   0.139   9.900 -0.7253  1.0039 -0.1854
31590SOL    HW296778   8.225   0.184   9.824  0.4579 -2.2899 -0.3650
31591SOL     OW96779   7.928   1.876   5.531 -0.4824 -0.4084  0.2043
31591SOL    HW196780   7.994   1.877   5.462 -0.9293 -0.2823 -0.2355
31591SOL    HW296781   7.855   1.927   5.494 -0.3739  0.4468  1.1335
31592SOL     OW96782   1.689  10.209   7.807 -0.4116 -0.2940 -0.2363
31592SOL    HW196783   1.642  10.259   7.873  1.2959 -0.0271  0.8580
31592SOL    HW296784   1.748  10.272   7.766  0.2376 -0.9570 -0.3455
31593SOL     OW96785   3.327  10.944   9.472 -0.6908 -0.3785 -0.2726
31593SOL    HW196786   3.271  10.893   9.530 -0.4671 -0.7513 -0.3834
31593SOL    HW296787   3.415  10.907   9.486 -0.9468 -1.9775 -2.4812
31594SOL     OW96788   9.086   8.546   3.828 -0.4472  0.7903  0.1576
31594SOL    HW196789   9.155   8.503   3.778 -0.1034 -2.4761  3.0707
31594SOL    HW296790   9.008   8.492   3.812 -1.0975  1.5616  0.6796
31595SOL     OW96791   7.196  10.087   1.887  0.8252  0.1927 -0.5929
31595SOL    HW196792   7.218  10.130   1.970  0.5193  0.4392 -0.6394
31595SOL    HW296793   7.129  10.023   1.911  2.1802 -1.1822 -0.2928
31596SOL     OW96794   0.211   8.629   0.937 -0.3541 -0.9839  0.5977
31596SOL    HW196795   0.146   8.654   0.872  0.0415 -3.4102 -0.8811
31596SOL    HW296796   0.212   8.701   1.000 -0.1649  1.9400 -2.4731
31597SOL     OW96797   9.145   1.576   2.842  0.5298  0.4286 -0.3100
31597SOL    HW196798   9.207   1.502   2.842  0.2936  0.2260 -0.6948
31597SOL    HW296799   9.182   1.638   2.904  1.2319  0.3940 -0.6831
31598SOL     OW96800   3.816   8.682   2.771  0.0277 -0.0530 -0.1312
31598SOL    HW196801   3.876   8.635   2.829  1.7819  1.2696 -0.7667
31598SOL    HW296802   3.742   8.623   2.758  0.3106 -1.0030  2.1874
31599SOL     OW96803  10.235   9.200   7.037  0.1250  0.1537 -0.0016
31599SOL    HW196804  10.242   9.260   6.963 -2.1457 -0.6586 -0.9643
31599SOL    HW296805  10.148   9.217   7.074  0.6428 -0.4662  1.5958
31600SOL     OW96806   6.662   5.180   7.301  0.4169  0.2683  0.3563
31600SOL    HW196807   6.584   5.235   7.313  0.0553  0.1155 -1.1068
31600SOL    HW296808   6.724   5.236   7.255 -0.0802 -0.6216 -1.4547
31601SOL     OW96809   7.452   9.439   4.105  0.6446  0.1236 -0.8082
31601SOL    HW196810   7.494   9.509   4.154 -1.5202  1.6148 -0.9515
31601SOL    HW296811   7.397   9.394   4.169 -2.0485  1.9623 -1.6789
31602SOL     OW96812   7.444  11.247   2.033 -0.6587 -0.2873 -0.5207
31602SOL    HW196813   7.358  11.287   2.018  0.0375  0.7839 -2.0021
31602SOL    HW296814   7.437  11.160   1.995 -0.4307  0.6518 -2.9310
31603SOL     OW96815   4.389   6.551   3.590  0.1834  0.0565 -0.3853
31603SOL    HW196816   4.382   6.593   3.676 -0.0076 -0.4273 -0.1574
31603SOL    HW296817   4.346   6.612   3.531 -0.7364 -0.1284  0.0599
31604SOL     OW96818   9.782   0.491   6.734  0.3575  0.1643 -0.0725
31604SOL    HW196819   9.785   0.399   6.706 -0.0622  0.6674 -1.8940
31604SOL    HW296820   9.748   0.487   6.824 -1.4203 -1.3580 -0.7294
31605SOL     OW96821   6.294   4.435   2.514  0.2467  0.0566  0.1460
31605SOL    HW196822   6.252   4.404   2.434 -0.3138 -0.9827  0.8215
31605SOL    HW296823   6.243   4.395   2.585  0.6872  1.0042  1.0320
31606SOL     OW96824   7.038   8.208   0.417 -0.2997 -0.1432 -0.5128
31606SOL    HW196825   7.064   8.299   0.430  0.4609 -0.4821  0.4321
31606SOL    HW296826   6.961   8.197   0.472  0.0316 -0.2557 -0.0648
31607SOL     OW96827   1.188   9.838   7.629 -0.3815  0.5664 -0.0999
31607SOL    HW196828   1.187   9.932   7.608 -0.8557  0.8589  1.1244
31607SOL    HW296829   1.198   9.835   7.724 -0.4044 -0.6329 -0.1206
31608SOL     OW96830   9.938   9.737   5.941  0.4529  0.1534  0.1069
31608SOL    HW196831   9.984   9.745   5.858 -1.3203 -0.1388 -0.9380
31608SOL    HW296832   9.925   9.643   5.952  1.9763  0.0534  1.4993
31609SOL     OW96833   5.844   8.807   1.109 -0.8603 -0.3326 -0.2636
31609SOL    HW196834   5.902   8.879   1.133 -0.7755 -0.3980 -0.2705
31609SOL    HW296835   5.767   8.849   1.071 -0.9552 -0.2353  0.0409
31610SOL     OW96836   5.537   2.382   8.133  0.1300 -0.0003  0.5606
31610SOL    HW196837   5.574   2.311   8.186 -0.5862 -1.6268 -0.9812
31610SOL    HW296838   5.575   2.369   8.046  0.4362  1.9073  0.3773
31611SOL     OW96839   4.706   4.369   0.602 -0.1737  0.2753  0.2155
31611SOL    HW196840   4.775   4.435   0.595  0.3269 -0.2444  0.1787
31611SOL    HW296841   4.743   4.291   0.559 -0.0610 -0.5832  1.7867
31612SOL     OW96842   9.174  11.151   2.073 -0.6296  0.5795 -0.4983
31612SOL    HW196843   9.231  11.162   2.149  0.2609  0.2058 -1.0988
31612SOL    HW296844   9.118  11.228   2.075 -1.1142  0.2285  0.9427
31613SOL     OW96845  11.018   1.448   0.907  0.1451 -0.0690 -0.6207
31613SOL    HW196846  11.064   1.373   0.944 -2.8621 -1.3312  0.8654
31613SOL    HW296847  10.954   1.409   0.846 -0.2314  1.4353 -1.2292
31614SOL     OW96848   1.721   2.155   2.123  0.3958  0.1678 -0.3020
31614SOL    HW196849   1.716   2.091   2.052  2.6683 -1.5218  0.9120
31614SOL    HW296850   1.694   2.107   2.201  1.6872  0.8023  0.5740
31615SOL     OW96851   1.077   7.986   5.418  0.4377 -0.0074  0.0235
31615SOL    HW196852   1.042   7.980   5.329 -0.3965 -0.2985  0.3651
31615SOL    HW296853   1.039   7.912   5.465  0.5488  0.3725  0.7333
31616SOL     OW96854   0.320   3.723   2.906 -0.2659  0.3343 -0.3356
31616SOL    HW196855   0.226   3.710   2.915 -0.2311  0.7042  0.6475
31616SOL    HW296856   0.353   3.722   2.996  0.6963  0.0185 -0.6803
31617SOL     OW96857  11.162   8.250   2.413 -0.5390  0.3848 -1.0647
31617SOL    HW196858  11.145   8.336   2.374 -0.0339  1.0688  0.1822
31617SOL    HW296859  11.190   8.269   2.503 -1.3185 -1.1216 -0.4638
31618SOL     OW96860   7.855   2.205  10.724 -0.5780 -0.5135  0.0143
31618SOL    HW196861   7.872   2.166  10.810  0.8883  0.7053  0.3086
31618SOL    HW296862   7.923   2.169  10.667  0.1234  0.7357  0.0312
31619SOL     OW96863   7.898   3.811   1.999 -0.5707  0.7363  0.5871
31619SOL    HW196864   7.841   3.884   1.976 -0.3623  0.4744 -0.8574
31619SOL    HW296865   7.976   3.851   2.037 -1.0914  1.1664  1.2210
31620SOL     OW96866   4.142   4.383   9.207  0.5588 -0.8012  0.2210
31620SOL    HW196867   4.174   4.350   9.123  0.0836 -1.0689  0.1465
31620SOL    HW296868   4.136   4.478   9.195 -1.2251 -0.9979 -0.6434
31621SOL     OW96869   6.379  11.045   9.781  0.2091 -0.3054  0.8637
31621SOL    HW196870   6.470  11.039   9.750 -0.4671 -1.6522 -1.0466
31621SOL    HW296871   6.327  11.020   9.705 -1.7599 -0.0468  2.0782
31622SOL     OW96872   7.296   8.271   0.900 -0.0431  0.6599 -0.2640
31622SOL    HW196873   7.211   8.311   0.917  0.6530  2.2610 -0.4045
31622SOL    HW296874   7.317   8.297   0.811 -0.1186 -1.1228 -0.8502
31623SOL     OW96875   1.724   7.710   4.848  0.0006  0.3180 -0.6208
31623SOL    HW196876   1.741   7.653   4.923  0.5245 -1.7766 -2.2529
31623SOL    HW296877   1.649   7.672   4.805 -0.6918  1.8743 -0.8619
31624SOL     OW96878   2.677   5.475   5.548  0.1204 -0.3497  0.0634
31624SOL    HW196879   2.757   5.523   5.568 -0.2064  0.7699 -1.2011
31624SOL    HW296880   2.702   5.383   5.557  1.4677 -0.0168 -0.0164
31625SOL     OW96881   1.820   5.935   7.468  0.4694  0.0733 -0.3265
31625SOL    HW196882   1.813   6.009   7.406 -1.8261  0.5079  0.3606
31625SOL    HW296883   1.813   5.976   7.554  2.0651 -0.6966  0.2002
31626SOL     OW96884   4.630   5.687  10.734 -0.1177  0.6843 -0.2836
31626SOL    HW196885   4.682   5.703  10.813 -0.9723  2.3286 -0.0131
31626SOL    HW296886   4.549   5.649  10.767 -0.3951  1.1904 -0.3689
31627SOL     OW96887  10.994   0.546   7.888  0.2243 -0.4113 -0.4713
31627SOL    HW196888  10.984   0.577   7.978  0.8073 -1.9155  0.1489
31627SOL    HW296889  11.014   0.453   7.897  1.1444 -0.4132 -2.1295
31628SOL     OW96890   5.290   6.681   6.634  0.0534  0.3035  0.3546
31628SOL    HW196891   5.243   6.644   6.708 -0.0806  1.7984  1.0578
31628SOL    HW296892   5.234   6.663   6.558  0.5766 -1.9578  0.4273
31629SOL     OW96893   3.119   8.421  10.683  0.2482  0.3453 -0.2345
31629SOL    HW196894   3.101   8.372  10.603 -0.6921 -0.1952  0.2915
31629SOL    HW296895   3.208   8.456  10.670  0.1609  0.1681 -1.4488
31630SOL     OW96896   8.953   8.236   6.431  0.0148  0.3491  0.1622
31630SOL    HW196897   8.963   8.145   6.458 -0.0731  0.5546  0.9006
31630SOL    HW296898   9.028   8.252   6.373  0.9516  0.2683  1.3185
31631SOL     OW96899   5.137   0.956   3.646  0.1636  0.1378  0.3773
31631SOL    HW196900   5.171   0.969   3.734 -0.1464  3.2819  0.1262
31631SOL    HW296901   5.059   1.011   3.642  0.0349 -0.1284 -1.7836
31632SOL     OW96902   4.243   6.561   4.614 -0.5474 -0.5670 -0.4381
31632SOL    HW196903   4.187   6.626   4.572 -1.0043 -0.5496  0.1846
31632SOL    HW296904   4.259   6.596   4.701  0.6890 -0.4266 -0.6970
31633SOL     OW96905   7.415   2.600   3.205 -0.1602  0.4389  0.0756
31633SOL    HW196906   7.438   2.578   3.115 -1.2920  0.5420 -0.2487
31633SOL    HW296907   7.383   2.690   3.201 -2.4778 -0.3098  0.1312
31634SOL     OW96908   6.688   7.328   4.340 -0.3427  0.2126  0.2310
31634SOL    HW196909   6.609   7.298   4.295  0.5470 -3.0016  0.5585
31634SOL    HW296910   6.755   7.265   4.315  1.7235  1.9127  1.2425
31635SOL     OW96911   0.303   0.890   4.861 -0.8969  0.4637 -0.0633
31635SOL    HW196912   0.342   0.953   4.800 -1.8483  0.9103 -0.2403
31635SOL    HW296913   0.211   0.918   4.868 -0.8894  0.2129  1.3088
31636SOL     OW96914  10.105   8.158   9.115 -0.1299 -0.1604 -0.3429
31636SOL    HW196915  10.016   8.173   9.147  0.3034 -1.4720  1.6576
31636SOL    HW296916  10.159   8.219   9.165  0.5069 -1.9552  1.3055
31637SOL     OW96917   7.713   1.667   8.825  0.3538  0.2006  0.2183
31637SOL    HW196918   7.791   1.695   8.875 -0.0399  0.9254  0.4393
31637SOL    HW296919   7.748   1.612   8.755  1.1292  0.9156  0.0205
31638SOL     OW96920   8.837   9.452   0.911  0.7273  0.3224  0.0091
31638SOL    HW196921   8.888   9.398   0.970  3.2658  1.8093 -0.6808
31638SOL    HW296922   8.773   9.496   0.967  1.1219 -0.5102  1.1390
31639SOL     OW96923  10.601   3.502   8.120 -0.0045 -0.0277  0.1455
31639SOL    HW196924  10.665   3.573   8.116 -0.5057  0.3768 -2.0953
31639SOL    HW296925  10.651   3.427   8.151  2.3161 -0.3412 -3.6707
31640SOL     OW96926   7.306   4.465   2.337  0.0570  0.2091  0.5608
31640SOL    HW196927   7.262   4.439   2.417 -1.8156  0.4927 -0.3119
31640SOL    HW296928   7.308   4.385   2.284  0.9327  0.1147  0.7303
31641SOL     OW96929   5.082   6.230   0.778 -0.3977 -0.8915 -0.4811
31641SOL    HW196930   5.112   6.321   0.778  1.2897 -1.3910  0.7909
31641SOL    HW296931   5.163   6.179   0.779 -1.2455 -2.4800 -3.0415
31642SOL     OW96932   0.367   7.223   1.354  1.0691  0.3134  0.0037
31642SOL    HW196933   0.396   7.271   1.276  0.7194 -0.5836 -0.7017
31642SOL    HW296934   0.304   7.159   1.321  1.0915 -0.2471  0.9940
31643SOL     OW96935   4.904   7.035   7.930  0.3846 -0.3489  0.2988
31643SOL    HW196936   4.917   7.052   7.837 -0.3532 -0.8464  0.0907
31643SOL    HW296937   4.901   7.122   7.970 -1.7146  0.0095 -0.5058
31644SOL     OW96938   9.027   7.884   6.765 -0.4773  0.1467  0.3706
31644SOL    HW196939   8.994   7.802   6.802 -0.3106  0.8196  2.1280
31644SOL    HW296940   9.115   7.863   6.734 -0.1698 -0.2032  1.4407
31645SOL     OW96941   1.141  10.838   1.786 -0.7366 -0.3225 -0.7314
31645SOL    HW196942   1.108  10.827   1.697 -0.5212  0.5445 -0.9304
31645SOL    HW296943   1.234  10.816   1.781 -1.3210 -3.2904 -0.0596
31646SOL     OW96944  10.782   7.162   5.843 -0.9736 -0.5005 -0.0835
31646SOL    HW196945  10.833   7.187   5.766 -0.6582 -0.4229  0.1497
31646SOL    HW296946  10.702   7.123   5.807 -0.2144 -1.7650 -0.4664
31647SOL     OW96947   4.242   2.989   0.324 -0.4001  0.6064 -0.7704
31647SOL    HW196948   4.243   3.052   0.252  0.7451  1.3167 -0.1711
31647SOL    HW296949   4.333   2.959   0.330 -0.6599 -0.0738 -0.1545
31648SOL     OW96950   2.622   3.287   1.744 -0.0685  0.4482  0.7812
31648SOL    HW196951   2.678   3.247   1.678 -1.8004 -0.0668 -0.4367
31648SOL    HW296952   2.613   3.219   1.811 -0.5709 -0.1004  0.1700
31649SOL     OW96953   5.316   1.341   7.031  0.5137 -0.5050 -0.0670
31649SOL    HW196954   5.255   1.357   6.959  0.4521  0.5248  0.2058
31649SOL    HW296955   5.282   1.263   7.075 -1.1915  0.5981  0.6805
31650SOL     OW96956   0.290   6.539   0.029  0.1437 -1.1973  0.7339
31650SOL    HW196957   0.256   6.472   0.089  1.9406 -1.2219  1.7967
31650SOL    HW296958   0.381   6.552   0.057  0.6274 -0.2090 -1.1394
31651SOL     OW96959   5.097   2.614   2.377 -0.6864 -0.0891  0.0015
31651SOL    HW196960   5.162   2.563   2.329 -1.7178 -0.4801 -1.0383
31651SOL    HW296961   5.144   2.649   2.452  0.5818 -0.7925 -0.4385
31652SOL     OW96962   6.091   3.385   9.046  0.1388 -0.2575 -0.2806
31652SOL    HW196963   6.105   3.392   9.141 -0.4641  1.0689 -0.2681
31652SOL    HW296964   6.091   3.291   9.029 -0.6836 -0.5535  1.1878
31653SOL     OW96965   1.480   2.429  10.755 -0.1399  0.2028  0.2636
31653SOL    HW196966   1.409   2.388  10.806 -2.1144  2.8835 -0.1061
31653SOL    HW296967   1.452   2.421  10.664  0.4079  0.6433  0.0516
31654SOL     OW96968  11.117  10.890   9.794  0.4942 -0.5477 -0.5494
31654SOL    HW196969  11.180  10.922   9.858 -0.9207  1.1318  0.0851
31654SOL    HW296970  11.085  10.808   9.831 -0.8070  0.7247  1.3455
31655SOL     OW96971   3.635   8.400   1.192  0.0034  0.3203  0.4201
31655SOL    HW196972   3.658   8.455   1.118  0.9885  1.0348  1.2379
31655SOL    HW296973   3.542   8.380   1.179  0.0757  0.7095 -0.8133
31656SOL     OW96974   2.442   4.872   3.614 -0.6102 -0.0274 -0.1056
31656SOL    HW196975   2.369   4.816   3.640  0.3496 -1.5432 -0.5861
31656SOL    HW296976   2.409   4.919   3.537 -0.8057 -1.3630 -0.8673
31657SOL     OW96977   4.119  10.290   1.627 -0.5322  0.1740  0.0476
31657SOL    HW196978   4.107  10.213   1.684 -0.7989  0.4486  0.3623
31657SOL    HW296979   4.199  10.331   1.660  0.3164 -0.6496 -0.9084
31658SOL     OW96980   7.386   4.246   5.193 -0.5180 -0.3436 -0.2834
31658SOL    HW196981   7.399   4.273   5.102 -0.7931  1.1972  0.1090
31658SOL    HW296982   7.467   4.271   5.238 -0.1529 -1.6109 -0.1925
31659SOL     OW96983  10.902   4.835  10.908 -0.3852 -0.5696 -0.9078
31659SOL    HW196984  10.966   4.906  10.910  1.0045 -1.7815 -0.6676
31659SOL    HW296985  10.850   4.851  10.829 -1.0232  1.4548 -0.1359
31660SOL     OW96986   4.917   3.492   6.638 -0.3494  0.5026 -0.1564
31660SOL    HW196987   4.991   3.432   6.629  0.1822  1.3324 -1.5292
31660SOL    HW296988   4.876   3.492   6.551 -3.5003 -1.8179  1.1142
31661SOL     OW96989   4.226   5.485  10.628  0.0429  0.8151 -0.3475
31661SOL    HW196990   4.158   5.498  10.694 -0.9222  0.6441 -1.2799
31661SOL    HW296991   4.228   5.568  10.581  1.5671  1.3657  0.6243
31662SOL     OW96992   5.868   0.062   6.427  0.3142  0.1996 -0.0242
31662SOL    HW196993   5.787   0.013   6.411  0.8826 -0.9122  0.3916
31662SOL    HW296994   5.938  -0.001   6.407  1.0727 -0.1617  3.2564
31663SOL     OW96995   2.749   4.718  10.188  0.3478 -0.0316 -0.0947
31663SOL    HW196996   2.832   4.671  10.177 -0.4303 -1.1840 -1.4186
31663SOL    HW296997   2.745   4.739  10.281  1.6353 -0.8873  0.1739
31664SOL     OW96998   2.932  11.068   6.350  0.4878 -0.0872  0.0168
31664SOL    HW196999   2.901  11.145   6.302 -2.2586 -0.0036  1.6841
31664SOL    HW297000   2.973  11.013   6.284 -2.4317  0.3177 -2.3366
31665SOL     OW97001   1.644   4.764   3.883  0.0978 -0.1372 -0.0393
31665SOL    HW197002   1.690   4.844   3.856  0.9394 -0.5010  0.2998
31665SOL    HW297003   1.709   4.714   3.932 -0.3539 -1.1392 -0.4325
31666SOL     OW97004   2.446  10.713   2.074  0.0879 -0.2713 -0.3352
31666SOL    HW197005   2.395  10.643   2.036 -2.0638  1.0786 -0.0945
31666SOL    HW297006   2.437  10.786   2.012  0.3368  0.5090  0.5229
31667SOL     OW97007   1.898   5.710   1.632  0.3765  0.1728  0.1836
31667SOL    HW197008   1.876   5.712   1.726 -0.6013  0.8498 -0.0521
31667SOL    HW297009   1.952   5.788   1.619 -0.1471  0.5084  0.0246
31668SOL     OW97010   5.400  11.274   8.673 -0.0513  0.4550  0.4517
31668SOL    HW197011   5.494  11.277   8.691  0.1348  0.5072 -0.4466
31668SOL    HW297012   5.376  11.365   8.654  0.3343  0.1113 -2.0835
31669SOL     OW97013   9.476   7.582  10.376  0.0083  0.2299  0.1140
31669SOL    HW197014   9.531   7.529  10.433  0.1382  0.4647  0.2112
31669SOL    HW297015   9.535   7.648  10.341 -0.2360  0.5721  0.3300
31670SOL     OW97016  10.276   3.970   3.262  0.4762 -0.4457 -0.6294
31670SOL    HW197017  10.355   4.015   3.293 -0.1989  1.1848 -1.1472
31670SOL    HW297018  10.204   4.018   3.302 -0.2924 -1.1372 -1.1422
31671SOL     OW97019   6.590   5.920   8.452 -0.1056 -0.2710 -0.0204
31671SOL    HW197020   6.651   5.993   8.462  0.1730 -0.5856  0.6526
31671SOL    HW297021   6.518   5.955   8.400  1.0195 -0.1122 -1.5526
31672SOL     OW97022   4.727   5.012   9.636  0.2147  0.3418  0.0353
31672SOL    HW197023   4.779   5.004   9.716  2.3156  2.3942 -1.0148
31672SOL    HW297024   4.788   4.992   9.566 -1.6051 -1.4548 -1.1462
31673SOL     OW97025   7.967   7.545   2.104  0.3899 -0.2094 -0.7088
31673SOL    HW197026   7.936   7.499   2.181  1.1781 -1.0016 -0.8502
31673SOL    HW297027   7.895   7.603   2.079 -0.8399 -1.7603 -0.8499
31674SOL     OW97028   6.083   6.031   5.553  0.3224 -0.1960  0.1372
31674SOL    HW197029   6.105   5.940   5.567  3.9846  0.2102 -1.6893
31674SOL    HW297030   6.064   6.037   5.459 -0.3391  0.8478  0.3163
31675SOL     OW97031   9.280   0.950   4.272 -0.6502  0.3525 -0.3304
31675SOL    HW197032   9.253   0.897   4.347  1.3587  0.2307  0.3547
31675SOL    HW297033   9.208   0.941   4.209 -2.2912  0.2749  1.4574
31676SOL     OW97034   0.914   7.796   8.108  0.1828  0.1257 -0.6875
31676SOL    HW197035   0.893   7.778   8.200  4.2637 -2.0882  0.0306
31676SOL    HW297036   0.850   7.744   8.058 -1.4808  0.6070  0.8210
31677SOL     OW97037   6.798   4.735   4.980  0.6554 -0.5404 -0.2143
31677SOL    HW197038   6.892   4.752   4.975  0.9706 -1.6165  1.1720
31677SOL    HW297039   6.784   4.709   5.072 -1.1053  0.2071 -0.2400
31678SOL     OW97040   6.409   0.095  10.091 -0.3043  0.2729 -0.2023
31678SOL    HW197041   6.453   0.179  10.081  0.4595  0.0635  1.1322
31678SOL    HW297042   6.326   0.117  10.135 -0.4773  0.4109 -0.5934
31679SOL     OW97043   3.435   6.185   0.936  0.1592 -0.3274 -0.4992
31679SOL    HW197044   3.400   6.235   1.010 -0.7977 -1.0669 -0.4302
31679SOL    HW297045   3.523   6.161   0.964 -0.2761 -0.8153  0.5381
31680SOL     OW97046   9.258  10.161   3.617 -0.0687 -0.0289  0.4522
31680SOL    HW197047   9.170  10.164   3.655 -0.3361  0.4753 -0.1848
31680SOL    HW297048   9.316  10.145   3.691 -0.9491 -3.8885  0.5234
31681SOL     OW97049   0.346   7.555  10.379  0.5924  0.0781 -0.0133
31681SOL    HW197050   0.368   7.631  10.433 -0.1361  0.9629 -0.9159
31681SOL    HW297051   0.329   7.485  10.441  0.4720  0.8764  0.8757
31682SOL     OW97052   0.652  11.062   6.606 -0.7160  0.0979  0.4293
31682SOL    HW197053   0.727  11.031   6.554 -1.6868  0.0557 -0.9932
31682SOL    HW297054   0.692  11.112   6.677  0.7066 -0.8461  0.3396
31683SOL     OW97055  10.102   3.140   4.092 -0.3588 -0.0023  0.2947
31683SOL    HW197056  10.079   3.055   4.053 -0.2794  0.8041 -1.6443
31683SOL    HW297057  10.018   3.187   4.095 -0.2374  0.2058  0.4031
31684SOL     OW97058   0.635   2.038   6.301 -0.7287 -0.0365  0.4269
31684SOL    HW197059   0.653   1.979   6.374 -2.1674  0.1376  0.9545
31684SOL    HW297060   0.609   2.121   6.342  1.1609  0.9939 -0.2963
31685SOL     OW97061  11.269   6.515   9.475 -0.3988 -0.4815 -0.5319
31685SOL    HW197062  11.361   6.543   9.470 -0.3690 -0.5169 -0.1947
31685SOL    HW297063  11.223   6.589   9.512 -0.4099 -0.6743 -0.1548
31686SOL     OW97064   1.086   2.846  11.012 -0.6743  0.2697 -0.4803
31686SOL    HW197065   1.172   2.871  10.977 -0.7582 -0.1484 -1.0044
31686SOL    HW297066   1.023   2.886  10.952 -0.8331  0.0760 -0.4431
31687SOL     OW97067   1.456   1.522   9.363 -0.0136  0.0835 -0.3378
31687SOL    HW197068   1.368   1.526   9.400 -0.2364  1.3003 -0.9245
31687SOL    HW297069   1.486   1.613   9.364  3.4569 -0.7294  4.8153
31688SOL     OW97070  10.994   4.507   8.082  0.0531 -0.2357  0.4665
31688SOL    HW197071  10.941   4.431   8.056 -1.8746  1.1420  0.1883
31688SOL    HW297072  10.931   4.574   8.106  1.7093  1.1641  1.1591
31689SOL     OW97073   9.172   4.939   3.959 -0.7601  1.2319  0.1506
31689SOL    HW197074   9.246   4.914   4.016 -1.4616  0.4701  0.7623
31689SOL    HW297075   9.113   4.863   3.962 -2.4947  2.5447  1.2388
31690SOL     OW97076   8.067   8.089   1.488 -0.0280 -0.0990 -0.2777
31690SOL    HW197077   8.098   8.040   1.411 -2.2896 -1.3630 -0.4754
31690SOL    HW297078   8.002   8.031   1.528  0.0759  1.1398  1.7984
31691SOL     OW97079  10.692   2.705  10.167  0.3691  0.1913 -0.3499
31691SOL    HW197080  10.606   2.701  10.125 -0.4874 -1.5349  1.4330
31691SOL    HW297081  10.673   2.711  10.261  2.1803 -0.6294  0.1139
31692SOL     OW97082   2.287   7.948   5.777  1.2607  0.5647 -0.4595
31692SOL    HW197083   2.306   7.946   5.871 -0.3967 -0.5444 -0.1027
31692SOL    HW297084   2.317   7.862   5.745  0.6337  0.4240 -0.6790
31693SOL     OW97085   9.225   0.163   3.417 -0.0759  0.0724 -0.5509
31693SOL    HW197086   9.145   0.137   3.371 -0.5969 -1.2125  0.9943
31693SOL    HW297087   9.200   0.163   3.510  1.9127 -1.2231  0.0362
31694SOL     OW97088   2.825   4.281  11.142  0.2581 -0.0172 -0.2752
31694SOL    HW197089   2.796   4.227  11.216  0.1734 -0.4504 -0.6205
31694SOL    HW297090   2.902   4.236  11.108  1.4235  1.1814  0.6958
31695SOL     OW97091  10.199  10.844   3.195 -0.3859  0.5520 -0.6216
31695SOL    HW197092  10.123  10.840   3.252  0.4566 -1.2571  0.4725
31695SOL    HW297093  10.170  10.895   3.119 -2.1636  1.2598  0.4865
31696SOL     OW97094   6.293   5.072   7.505  0.4891  0.4140 -0.0686
31696SOL    HW197095   6.336   5.126   7.572  1.0773 -0.0104 -0.1032
31696SOL    HW297096   6.335   5.097   7.423  1.4827 -0.8079  0.0409
31697SOL     OW97097   9.096   8.311   9.196 -0.0215 -0.0785 -0.2875
31697SOL    HW197098   9.073   8.230   9.151  0.6085 -0.0825 -0.6155
31697SOL    HW297099   9.016   8.336   9.242  0.0092 -1.3218  0.4871
31698SOL     OW97100   3.244   0.248   1.498  0.0432 -0.0865  0.2320
31698SOL    HW197101   3.215   0.219   1.585  1.1531  0.5726  0.8297
31698SOL    HW297102   3.241   0.168   1.445 -0.3821 -0.5510  0.9332
31699SOL     OW97103   5.380  10.888   4.921 -0.0680  0.2701 -0.5819
31699SOL    HW197104   5.336  10.906   5.004  0.4129 -0.6110 -0.1177
31699SOL    HW297105   5.452  10.951   4.918  0.3844 -0.1991  0.0557
31700SOL     OW97106   2.483   9.501   7.346  0.2602 -0.3143 -0.6777
31700SOL    HW197107   2.505   9.413   7.377  0.3173 -0.6952 -1.7605
31700SOL    HW297108   2.463   9.550   7.426  2.0228 -0.7952  0.1097
31701SOL     OW97109  11.126   2.621   9.665  0.3779  0.4011 -0.0637
31701SOL    HW197110  11.120   2.528   9.644 -0.0202  0.6668 -1.1824
31701SOL    HW297111  11.042   2.643   9.704  0.5692  0.2463  0.4514
31702SOL     OW97112   9.209   5.149   4.204  0.2500  1.0334  0.0240
31702SOL    HW197113   9.126   5.126   4.161 -0.4510  0.9597  1.3677
31702SOL    HW297114   9.270   5.082   4.174 -0.7018 -0.1334  0.5755
31703SOL     OW97115   1.984   4.524   2.398  0.1422 -0.1152 -0.6362
31703SOL    HW197116   1.929   4.537   2.475  0.5468  1.1806 -0.5476
31703SOL    HW297117   1.921   4.502   2.329 -0.3117 -0.4300 -0.1322
31704SOL     OW97118   5.767   6.286   4.988 -0.2343 -0.1694  0.0657
31704SOL    HW197119   5.825   6.209   4.989 -2.0902 -1.6294  1.6766
31704SOL    HW297120   5.801   6.341   5.058  0.4880  0.0387 -0.4270
31705SOL     OW97121  10.894  10.196   2.810 -0.6950  0.5236  0.3276
31705SOL    HW197122  10.837  10.123   2.832  0.9129 -0.3077  2.0248
31705SOL    HW297123  10.907  10.189   2.716 -1.7083 -0.5042  0.2385
31706SOL     OW97124   3.362   2.920   5.017  0.2267  0.4847  0.0860
31706SOL    HW197125   3.323   2.869   5.088 -0.6306  1.0759  0.0582
31706SOL    HW297126   3.396   2.854   4.956  1.1593 -0.0305  1.1237
31707SOL     OW97127   0.040   4.663   4.762 -0.1564  0.5006  0.6163
31707SOL    HW197128   0.125   4.687   4.801  0.7745 -0.0709 -0.9561
31707SOL    HW297129   0.020   4.736   4.703 -0.1394  0.0872  0.0861
31708SOL     OW97130   4.853   6.679   2.169  0.1860 -0.2021 -0.0045
31708SOL    HW197131   4.812   6.738   2.232  0.2279 -0.6843  0.4812
31708SOL    HW297132   4.814   6.703   2.085  0.9256  1.1800  0.0232
31709SOL     OW97133   9.767   3.083  10.564 -0.8276  0.9760 -0.2447
31709SOL    HW197134   9.684   3.048  10.533 -0.6930  1.7173 -1.4824
31709SOL    HW297135   9.762   3.075  10.660 -1.4703 -0.8579 -0.3882
31710SOL     OW97136  10.236   0.809   1.973 -0.6152 -0.0454  0.8198
31710SOL    HW197137  10.305   0.743   1.967 -1.2075 -0.8883  2.5990
31710SOL    HW297138  10.218   0.833   1.883  1.4125 -0.4083  0.2638
31711SOL     OW97139   3.574   1.697   8.345  0.5098 -0.3410  0.2842
31711SOL    HW197140   3.668   1.688   8.358  0.5206  0.5763  0.9745
31711SOL    HW297141   3.539   1.610   8.362  1.2389 -0.7090 -0.0623
31712SOL     OW97142   2.338  11.142   2.386  0.8782  0.1753  0.2492
31712SOL    HW197143   2.353  11.197   2.463  0.0528  1.2363 -0.3128
31712SOL    HW297144   2.300  11.202   2.321 -2.4760 -1.5331  0.4514
31713SOL     OW97145   5.129   7.836   1.248 -0.6915 -0.8591 -0.3309
31713SOL    HW197146   5.214   7.797   1.272  0.5954  1.8007 -0.1872
31713SOL    HW297147   5.072   7.817   1.323  1.4386  1.9040  2.2703
31714SOL     OW97148   5.648   4.200   8.307  0.3992 -0.9494  0.0403
31714SOL    HW197149   5.692   4.144   8.244  1.0098  1.3195 -1.6492
31714SOL    HW297150   5.603   4.266   8.255  0.3013  0.5892  1.9369
31715SOL     OW97151   7.196   7.448   8.964  0.3598  0.8642  0.5348
31715SOL    HW197152   7.136   7.377   8.991 -0.8026  2.2501  1.7971
31715SOL    HW297153   7.157   7.527   9.002  2.4408  1.9780  0.4521
31716SOL     OW97154   6.494   8.461   2.247 -0.2358 -0.1196 -0.4944
31716SOL    HW197155   6.575   8.444   2.295 -0.1880 -0.6895 -0.7791
31716SOL    HW297156   6.450   8.376   2.242  0.0205 -0.1881 -1.9429
31717SOL     OW97157   4.019  10.896   7.000  0.5008 -0.4534 -0.2322
31717SOL    HW197158   4.041  10.886   6.908  3.1126  2.2005 -0.0637
31717SOL    HW297159   3.961  10.973   7.002  0.4420 -0.5100  0.3337
31718SOL     OW97160   9.943   4.933   0.347 -0.4070 -0.5288 -0.4321
31718SOL    HW197161   9.982   5.014   0.379 -0.6531 -0.1859 -0.9879
31718SOL    HW297162   9.902   4.957   0.264  0.9873 -1.5899 -1.4876
31719SOL     OW97163   0.197   6.163   9.073 -0.0389 -0.2211 -0.2673
31719SOL    HW197164   0.148   6.085   9.100  0.6604 -0.3601  0.6651
31719SOL    HW297165   0.203   6.216   9.153  0.9103  0.0108 -0.4757
31720SOL     OW97166   2.180   2.759  10.046  0.1444  0.5827 -0.3233
31720SOL    HW197167   2.242   2.713  10.103  0.7911  0.1496 -1.3474
31720SOL    HW297168   2.133   2.688  10.000 -1.4470  0.8831  0.7517
31721SOL     OW97169   7.600  10.844   3.749 -0.1495 -0.0242  0.1444
31721SOL    HW197170   7.554  10.764   3.724 -1.0915  0.8178 -0.8847
31721SOL    HW297171   7.628  10.883   3.666  1.4192  0.0842  0.6901
31722SOL     OW97172  10.494   8.990   9.025  0.7956  1.0372 -0.1707
31722SOL    HW197173  10.484   9.085   9.037 -0.6643  0.7298  1.5566
31722SOL    HW297174  10.549   8.963   9.098 -0.9319  0.2378  0.8748
31723SOL     OW97175   6.419   1.090   2.916  0.3849 -0.0594 -0.0485
31723SOL    HW197176   6.385   1.101   2.827 -0.6015  1.0846  0.4328
31723SOL    HW297177   6.403   1.175   2.958  2.7674  0.1418  0.5936
31724SOL     OW97178   2.610  11.284  10.236  0.0431 -0.6553  0.5057
31724SOL    HW197179   2.614  11.378  10.216 -0.8566 -0.6102  0.5187
31724SOL    HW297180   2.593  11.242  10.151  2.3520 -0.9945  0.1446
31725SOL     OW97181   0.765  10.597   0.130  0.6251 -0.4668 -0.5236
31725SOL    HW197182   0.857  10.581   0.150  1.2043  1.3767 -1.5383
31725SOL    HW297183   0.752  10.690   0.147 -1.2533 -0.8196  0.2499
31726SOL     OW97184   7.530   6.578   1.665 -0.5345 -0.2113  0.5486
31726SOL    HW197185   7.510   6.524   1.589 -0.9973  1.1029 -0.3021
31726SOL    HW297186   7.446   6.613   1.694 -0.1492  0.8498  0.4489
31727SOL     OW97187   0.889   6.775   6.285 -0.0822  0.1735  0.0853
31727SOL    HW197188   0.914   6.701   6.340  0.0402 -1.3038 -1.8597
31727SOL    HW297189   0.802   6.753   6.252  0.4291  0.2922 -1.4393
31728SOL     OW97190   5.214   1.193   5.846  0.4801  0.2367  0.1475
31728SOL    HW197191   5.154   1.198   5.771  0.9270 -3.6814 -0.6751
31728SOL    HW297192   5.301   1.196   5.807  0.7793  0.9990  0.8455
31729SOL     OW97193   0.608   2.130   7.158  0.3697  0.1005  0.2522
31729SOL    HW197194   0.630   2.175   7.239  1.3160  1.7108 -0.8632
31729SOL    HW297195   0.692   2.108   7.118 -0.0801 -0.1268 -0.6033
31730SOL     OW97196   8.622   4.296   3.941 -1.0037  0.7183  0.6024
31730SOL    HW197197   8.705   4.329   3.977 -1.1912  1.2553  0.5554
31730SOL    HW297198   8.604   4.354   3.867 -0.4986 -0.5138 -0.5352
31731SOL     OW97199   5.453   4.446  10.206 -0.1571 -0.2045  0.2758
31731SOL    HW197200   5.504   4.407  10.134  0.8144 -2.0485  1.8742
31731SOL    HW297201   5.514   4.506  10.249  0.0300 -0.8752  0.9603
31732SOL     OW97202   0.708   3.765   3.321 -0.3640 -0.5053  0.3903
31732SOL    HW197203   0.777   3.817   3.280 -0.2105  1.2015  2.6474
31732SOL    HW297204   0.750   3.723   3.395 -1.8587  1.3865  2.4470
31733SOL     OW97205   4.539   6.549   0.358 -0.1779 -0.1267 -0.1593
31733SOL    HW197206   4.487   6.629   0.369 -1.4484 -0.9564  0.0881
31733SOL    HW297207   4.504   6.489   0.424 -0.4024 -1.4620 -1.4585
31734SOL     OW97208   1.409   2.561   9.498 -0.0496 -0.0146  0.4123
31734SOL    HW197209   1.322   2.540   9.465  0.8368 -2.6069 -0.5271
31734SOL    HW297210   1.418   2.510   9.579  0.2594  1.0069  1.0435
31735SOL     OW97211   4.722   1.317  10.758 -0.3015 -0.4491  0.3376
31735SOL    HW197212   4.642   1.357  10.793 -0.5766 -0.8111  0.1303
31735SOL    HW297213   4.705   1.309  10.664  0.1657 -0.1048  0.2182
31736SOL     OW97214   8.074   6.023   2.244 -0.7332  0.2041 -0.1328
31736SOL    HW197215   8.028   6.082   2.185 -0.0912  1.7171  0.8122
31736SOL    HW297216   8.162   6.016   2.208 -1.0537 -0.9633 -0.7492
31737SOL     OW97217   2.506   9.744   9.403  0.2652 -1.0315  0.1575
31737SOL    HW197218   2.591   9.723   9.365  0.4528  2.8882 -2.0242
31737SOL    HW297219   2.443   9.729   9.333 -0.3058 -0.1079  0.4500
31738SOL     OW97220   1.188   6.577   2.752 -0.8087  0.3610 -0.0311
31738SOL    HW197221   1.175   6.519   2.826 -0.2781  0.0481 -0.1755
31738SOL    HW297222   1.283   6.590   2.748 -0.8930  0.9895 -0.1868
31739SOL     OW97223   9.275   1.046   2.860  0.2386  0.5612  0.1389
31739SOL    HW197224   9.308   1.045   2.771 -0.6371  0.1848 -0.1947
31739SOL    HW297225   9.211   0.975   2.863  1.8431 -0.9193  1.6882
31740SOL     OW97226   3.065   7.203  10.376  0.1726  0.5265  0.2415
31740SOL    HW197227   3.120   7.236  10.305 -0.1308 -0.5308 -0.5157
31740SOL    HW297228   3.122   7.144  10.425 -0.0896 -0.1027 -0.1872
31741SOL     OW97229   6.944   8.516   5.845 -0.5165 -0.1803  0.2282
31741SOL    HW197230   7.017   8.555   5.894 -2.5200  2.5083  1.3422
31741SOL    HW297231   6.870   8.521   5.905 -1.9436 -1.5762 -1.3271
31742SOL     OW97232   3.278   7.056   2.221  0.1765 -0.0048 -0.6987
31742SOL    HW197233   3.262   7.071   2.314  1.0789  0.7665 -0.6478
31742SOL    HW297234   3.279   6.961   2.212  0.0082 -0.0874  0.0663
31743SOL     OW97235   4.176   3.390   9.079  0.7973 -0.4885  0.1703
31743SOL    HW197236   4.160   3.465   9.137  1.9837  0.6437 -0.8954
31743SOL    HW297237   4.263   3.358   9.103  1.1208 -0.2746 -0.6796
31744SOL     OW97238   8.362   9.726   7.173  0.6299  0.2392 -0.2204
31744SOL    HW197239   8.340   9.695   7.261  1.4549 -2.7017 -0.9460
31744SOL    HW297240   8.445   9.772   7.184  1.1884 -0.8752  0.4390
31745SOL     OW97241   9.690   3.365   9.214  0.4021 -0.0760 -0.2671
31745SOL    HW197242   9.706   3.276   9.182 -0.0458  0.2580 -1.4812
31745SOL    HW297243   9.665   3.354   9.305  1.8485 -1.0678  0.0441
31746SOL     OW97244   1.007   5.611  10.728 -0.2764 -0.2105 -0.7596
31746SOL    HW197245   0.988   5.594  10.636  1.2737  1.6766 -1.5024
31746SOL    HW297246   1.017   5.706  10.734  1.4025 -0.4261  0.9725
31747SOL     OW97247   5.930   3.447   5.887 -0.2530 -0.0636  0.0429
31747SOL    HW197248   5.951   3.483   5.800  0.7116  0.1874  0.3684
31747SOL    HW297249   5.859   3.503   5.919 -1.4629 -0.9101 -1.0692
31748SOL     OW97250   5.250   3.318   8.201  0.1748 -0.3511  0.4830
31748SOL    HW197251   5.288   3.292   8.285  1.5436  0.6053  0.1988
31748SOL    HW297252   5.301   3.394   8.174 -1.0671  0.1246 -0.6275
31749SOL     OW97253   7.316   8.296   4.105  0.2462 -0.9826  0.2401
31749SOL    HW197254   7.329   8.381   4.064  1.8498 -0.7315  1.1605
31749SOL    HW297255   7.224   8.295   4.131 -0.7183 -0.9770 -2.8516
31750SOL     OW97256   9.956   4.519   1.492 -0.1705  0.3820  0.0734
31750SOL    HW197257   9.906   4.588   1.536 -0.8428 -0.1217  0.1164
31750SOL    HW297258   9.961   4.448   1.556  2.9602  1.3867  1.1194
31751SOL     OW97259   5.618  10.557   6.567  0.5666  0.5643  0.5864
31751SOL    HW197260   5.619  10.653   6.558  1.9869  0.5244  0.1348
31751SOL    HW297261   5.576  10.526   6.487 -0.5762  0.8299  1.0708
31752SOL     OW97262   8.980   4.877   7.146 -0.4836 -0.6402  0.0442
31752SOL    HW197263   8.974   4.924   7.063 -1.4483 -2.8324 -1.1953
31752SOL    HW297264   9.052   4.815   7.134 -1.2600 -1.6473  0.4435
31753SOL     OW97265   7.686   0.444   1.051  0.3410 -1.3740 -0.4460
31753SOL    HW197266   7.715   0.516   0.995  2.6151 -1.4185  0.5775
31753SOL    HW297267   7.592   0.460   1.064  0.5764  0.8125 -1.0607
31754SOL     OW97268  10.494   7.506  10.091  0.3809  1.1241 -0.1852
31754SOL    HW197269  10.516   7.519  10.184 -0.4579  0.8222  0.0639
31754SOL    HW297270  10.407   7.467  10.093  1.4353 -1.4748 -0.9736
31755SOL     OW97271   3.301   0.801   9.516 -0.4555  0.5115 -0.3722
31755SOL    HW197272   3.373   0.830   9.571  0.1973  1.5560 -1.7054
31755SOL    HW297273   3.223   0.814   9.569  0.3463 -1.3644  1.3962
31756SOL     OW97274   6.585   3.382   8.779 -0.4557 -0.2313  0.5633
31756SOL    HW197275   6.663   3.424   8.817 -1.5487  0.7635  1.7856
31756SOL    HW297276   6.560   3.440   8.707  0.7742 -1.3576 -0.8362
31757SOL     OW97277  10.091   8.367   6.759 -0.0836 -0.9347  0.2859
31757SOL    HW197278  10.031   8.303   6.720 -1.9580 -0.0820  1.5740
31757SOL    HW297279  10.093   8.344   6.852  0.4728 -0.0889  0.4915
31758SOL     OW97280   1.953  10.037   9.355  0.0445 -0.4207 -0.6833
31758SOL    HW197281   1.868   9.999   9.374  1.0868 -2.5456  0.0164
31758SOL    HW297282   1.979  10.081   9.436 -0.7118  0.9551 -1.1615
31759SOL     OW97283   0.941   5.174   8.018  0.2235 -0.2504 -0.2542
31759SOL    HW197284   0.969   5.246   7.961  2.4169 -0.5415  0.3586
31759SOL    HW297285   0.967   5.201   8.106 -0.7889 -0.9222  0.2737
31760SOL     OW97286   2.629   0.647   1.834  0.9761  0.1712 -0.1278
31760SOL    HW197287   2.581   0.699   1.898  0.1050 -0.1033 -0.5471
31760SOL    HW297288   2.585   0.664   1.751 -0.2081 -2.2312 -0.0859
31761SOL     OW97289   9.871   9.278   2.394  0.0109  0.0142 -0.0288
31761SOL    HW197290   9.862   9.261   2.300 -1.1989 -0.9320  0.2277
31761SOL    HW297291   9.911   9.365   2.399 -2.2669  1.2595 -1.4566
31762SOL     OW97292   8.817   5.049   9.951 -0.5700  0.5264  1.3146
31762SOL    HW197293   8.900   5.053   9.998 -0.1487 -0.9077  0.7366
31762SOL    HW297294   8.778   4.966   9.978 -0.4383 -0.2121 -0.6493
31763SOL     OW97295   8.686   1.760   9.525  0.2379  0.2281  0.1806
31763SOL    HW197296   8.660   1.701   9.454  0.8187  1.9697 -1.5831
31763SOL    HW297297   8.640   1.727   9.602 -1.4431 -1.0162 -1.2669
31764SOL     OW97298   8.496   0.086   7.963  0.1618 -0.2039 -0.0222
31764SOL    HW197299   8.439   0.157   7.991 -1.7803 -0.4557 -2.8463
31764SOL    HW297300   8.499   0.026   8.038 -1.2512  1.0436  1.0856
31765SOL     OW97301   7.016   3.181   1.704 -0.5658  0.5661  0.4700
31765SOL    HW197302   7.019   3.090   1.733  1.6433  0.3079 -0.3756
31765SOL    HW297303   6.929   3.212   1.730 -2.6301 -2.6585 -1.8773
31766SOL     OW97304   4.453   1.047   3.546  0.1015 -0.2550 -0.3758
31766SOL    HW197305   4.390   1.079   3.481  0.5238  2.1587  0.3282
31766SOL    HW297306   4.536   1.042   3.500  0.2924  0.9633 -0.2035
31767SOL     OW97307   1.166   0.716   9.548 -0.1000  0.0064 -0.0148
31767SOL    HW197308   1.148   0.629   9.510 -2.4350  0.3821  0.1163
31767SOL    HW297309   1.082   0.761   9.546  0.7137  1.6950  1.4696
31768SOL     OW97310   2.341   3.238   1.042 -0.4484 -0.0595 -0.1061
31768SOL    HW197311   2.402   3.299   1.001 -0.3407  0.6965  1.1163
31768SOL    HW297312   2.290   3.292   1.102 -2.2723 -0.6983 -1.0302
31769SOL     OW97313   0.764  10.594   9.930  0.7029 -0.3115  0.2197
31769SOL    HW197314   0.809  10.674   9.904  0.5051  0.3240  1.7558
31769SOL    HW297315   0.676  10.602   9.894  1.3981 -1.0348 -1.8050
31770SOL     OW97316   4.877   4.391   1.534  0.0975  0.0974 -0.3817
31770SOL    HW197317   4.918   4.354   1.456 -0.5417  1.3225 -1.3445
31770SOL    HW297318   4.783   4.395   1.512 -0.2662 -0.6569  0.9304
31771SOL     OW97319   7.239  11.147   3.071 -0.0688 -0.1754 -0.1601
31771SOL    HW197320   7.151  11.185   3.065 -0.3593 -1.0023 -1.7683
31771SOL    HW297321   7.224  11.058   3.101  0.4801  0.4372  2.0950
31772SOL     OW97322   0.423   9.108   7.941 -0.4956 -0.0591 -0.3032
31772SOL    HW197323   0.439   9.155   8.022  0.5602  0.2881 -0.7033
31772SOL    HW297324   0.500   9.052   7.930  0.9661  2.1831 -2.6449
31773SOL     OW97325   1.681   5.506   7.859 -0.0762  0.4146 -0.0598
31773SOL    HW197326   1.762   5.555   7.873  1.8880 -1.8279 -2.5925
31773SOL    HW297327   1.612   5.568   7.881  2.2431  2.1596  3.1542
31774SOL     OW97328   5.588   0.631   1.076  0.5312  0.4874 -0.5260
31774SOL    HW197329   5.575   0.720   1.042  1.0073  0.6121 -0.3842
31774SOL    HW297330   5.677   0.608   1.050 -0.4158 -0.9388 -2.7766
31775SOL     OW97331  11.194   2.882   7.181 -0.4895 -0.0554 -0.0237
31775SOL    HW197332  11.248   2.826   7.126  1.8289  1.6605  0.3661
31775SOL    HW297333  11.242   2.888   7.264 -1.8941  0.6025  0.7772
31776SOL     OW97334   6.892   6.882   0.546 -0.4310  0.0973  0.5994
31776SOL    HW197335   6.960   6.857   0.483 -1.5989  0.7626 -0.9715
31776SOL    HW297336   6.828   6.811   0.542 -0.4444  0.0778  1.1450
31777SOL     OW97337  10.786   6.429   9.628  0.3325 -0.0665 -0.0466
31777SOL    HW197338  10.769   6.362   9.694  0.6263 -0.1700 -0.0773
31777SOL    HW297339  10.726   6.408   9.556  0.5290 -0.3840 -0.1191
31778SOL     OW97340   6.004   1.535   3.238 -0.1127 -0.7135  0.0081
31778SOL    HW197341   5.936   1.498   3.181 -0.2266 -1.1816  0.4376
31778SOL    HW297342   6.009   1.627   3.214 -1.6272 -0.4300  0.6874
31779SOL     OW97343   2.839   6.404  10.136 -0.3203 -0.6535  0.0490
31779SOL    HW197344   2.883   6.333  10.182 -1.0835 -0.2118  1.5183
31779SOL    HW297345   2.884   6.410  10.052  1.2987 -1.3046  0.8374
31780SOL     OW97346   9.007   9.744   7.584 -0.6150 -0.4261  1.0169
31780SOL    HW197347   8.937   9.714   7.525  0.6384 -1.9429  0.2251
31780SOL    HW297348   8.989   9.837   7.596 -2.7737 -0.7556  0.8567
31781SOL     OW97349   3.736   8.638   5.894  0.2440  0.0686  0.1334
31781SOL    HW197350   3.827   8.668   5.887  0.5213 -0.8429 -0.3100
31781SOL    HW297351   3.743   8.549   5.930 -0.4764  0.0098  0.1395
31782SOL     OW97352   7.011   8.012   4.625  0.0388 -0.2352  0.0499
31782SOL    HW197353   6.931   7.986   4.671 -1.0613 -1.2409 -2.2566
31782SOL    HW297354   7.071   8.040   4.694 -1.7478 -0.9411  1.9844
31783SOL     OW97355  10.661   1.767   1.672 -0.0955  0.1259 -0.0693
31783SOL    HW197356  10.631   1.803   1.755  0.8776 -0.4539  0.5536
31783SOL    HW297357  10.673   1.674   1.689  0.7174  0.1134 -0.6760
31784SOL     OW97358   4.044  10.153   1.868  0.1307  0.3045 -0.4931
31784SOL    HW197359   4.022  10.239   1.904  1.0785 -0.0424  1.0031
31784SOL    HW297360   4.002  10.091   1.927 -1.1253 -0.2875 -1.9544
31785SOL     OW97361   3.585   7.164   1.328  0.4651 -0.1202 -0.4051
31785SOL    HW197362   3.517   7.226   1.300  0.7315  0.9887  1.2636
31785SOL    HW297363   3.541   7.104   1.387  0.8258  0.3189  0.3206
31786SOL     OW97364   9.221   5.123   1.914 -0.9888  0.1904 -0.5576
31786SOL    HW197365   9.288   5.110   1.847  0.9655  0.4824  1.2280
31786SOL    HW297366   9.166   5.045   1.907 -2.1313  1.1510 -3.7907
31787SOL     OW97367   1.076   8.240   6.629 -0.0172 -0.2875  0.0708
31787SOL    HW197368   0.986   8.271   6.622 -0.1521 -0.2630  1.4885
31787SOL    HW297369   1.069   8.156   6.674  0.7051  0.0629  0.8726
31788SOL     OW97370  10.534   6.349   2.162  0.3924  0.1066 -0.1069
31788SOL    HW197371  10.601   6.400   2.116  0.4206  1.7575  1.6268
31788SOL    HW297372  10.583   6.291   2.219  0.3434 -0.2777 -0.4505
31789SOL     OW97373   0.015   6.957  11.104  0.0846 -0.5821 -0.3278
31789SOL    HW197374  -0.015   6.989  11.019 -1.0393  2.5246  1.0775
31789SOL    HW297375  -0.062   6.917  11.144  0.0078 -0.0640  0.0564
31790SOL     OW97376   3.901   3.286   7.940  0.3414 -0.0404 -0.3050
31790SOL    HW197377   3.991   3.318   7.928  0.8738 -2.1602 -2.7355
31790SOL    HW297378   3.905   3.194   7.917 -2.2752 -0.4772  0.6776
31791SOL     OW97379   0.699   5.388   5.165  0.0104 -0.4684  0.3024
31791SOL    HW197380   0.617   5.414   5.123  1.1459  0.0454 -1.7292
31791SOL    HW297381   0.694   5.427   5.253 -0.1864  3.2217 -1.1562
31792SOL     OW97382   1.373   0.900  10.207  0.0571 -0.0740  0.5753
31792SOL    HW197383   1.386   0.896  10.301  1.0982  0.6630  0.4863
31792SOL    HW297384   1.281   0.926  10.196  0.2226  0.9040  1.4090
31793SOL     OW97385   0.424   4.875   3.618 -0.2051 -0.3992 -0.7863
31793SOL    HW197386   0.519   4.869   3.630 -0.0683 -0.0376 -1.6145
31793SOL    HW297387   0.390   4.887   3.707  0.5165 -0.5596 -0.4747
31794SOL     OW97388   2.688   3.425   8.405  0.6175  0.5389  0.0933
31794SOL    HW197389   2.599   3.398   8.427  0.5171 -0.1496 -1.0645
31794SOL    HW297390   2.689   3.519   8.422  0.1326  0.3015  1.5400
31795SOL     OW97391   6.738   8.829   2.304  0.6932  0.4213 -0.0649
31795SOL    HW197392   6.801   8.828   2.376  1.0537 -1.7730 -0.3396
31795SOL    HW297393   6.786   8.870   2.232 -0.3048  4.5310  1.3133
31796SOL     OW97394   9.190   7.297   8.432 -0.4636 -0.0448 -0.2762
31796SOL    HW197395   9.103   7.330   8.411 -0.4996  0.4033  0.5658
31796SOL    HW297396   9.250   7.362   8.394 -0.5191  0.3618  0.3222
31797SOL     OW97397   8.188  10.156  10.577 -0.1126  0.0909  0.3455
31797SOL    HW197398   8.192  10.231  10.636  0.2202  0.1184  0.2957
31797SOL    HW297399   8.109  10.108  10.602  0.0559  0.0703  0.8482
31798SOL     OW97400   5.273   7.852  10.610 -0.2071  0.2777  0.1163
31798SOL    HW197401   5.197   7.818  10.658  2.0588 -2.5810  2.0423
31798SOL    HW297402   5.247   7.849  10.518 -2.7712  0.4464  0.7723
31799SOL     OW97403  10.028   7.844   3.829 -0.5153 -0.0063 -0.2854
31799SOL    HW197404   9.948   7.883   3.795 -1.2095 -1.4442 -0.4103
31799SOL    HW297405  10.039   7.764   3.777  0.0861 -0.6724  0.8246
31800SOL     OW97406   2.134   9.438   1.051  0.0939  0.4076 -0.0928
31800SOL    HW197407   2.207   9.500   1.058  1.5173 -0.9809 -1.5278
31800SOL    HW297408   2.080   9.473   0.981  1.2519 -0.2508 -1.3611
31801SOL     OW97409   8.512   2.503   6.132 -0.4136  0.1381 -0.2920
31801SOL    HW197410   8.422   2.477   6.151 -0.0774  0.5154  2.2103
31801SOL    HW297411   8.565   2.426   6.153 -0.0403  0.4367 -0.1136
31802SOL     OW97412   8.936   2.875   8.359 -0.2139 -0.1677 -0.1130
31802SOL    HW197413   8.958   2.857   8.450  2.2273 -0.4776 -0.7132
31802SOL    HW297414   8.863   2.816   8.340 -1.6100  0.7758  1.9485
31803SOL     OW97415   5.118   2.305   3.205  0.1824  0.3787  0.2603
31803SOL    HW197416   5.190   2.350   3.249 -0.5184 -0.0599  1.9246
31803SOL    HW297417   5.067   2.376   3.165 -0.3199  1.0255  1.9619
31804SOL     OW97418   9.882   0.755   0.332 -0.0454  1.0293  0.0280
31804SOL    HW197419   9.821   0.684   0.354  1.1837  0.0378  0.3744
31804SOL    HW297420   9.830   0.835   0.340 -1.6674  0.1475 -1.0775
31805SOL     OW97421  10.040   9.070  10.701  0.1502 -0.4376 -0.2482
31805SOL    HW197422   9.970   9.019  10.741  0.6680 -2.2482 -1.5423
31805SOL    HW297423  10.006   9.159  10.697 -1.7836 -1.1315 -0.1840
31806SOL     OW97424   5.091   1.120   3.949 -0.7527 -0.2869  0.3867
31806SOL    HW197425   5.052   1.037   3.977 -0.2857 -1.0116 -1.0225
31806SOL    HW297426   5.042   1.186   3.998 -1.9192 -1.3178  0.6903
31807SOL     OW97427  10.285   3.426   7.282  0.4940 -0.0476  0.1142
31807SOL    HW197428  10.201   3.385   7.303  1.8159 -2.6112  0.7418
31807SOL    HW297429  10.296   3.414   7.188  0.1746  0.3103  0.0279
31808SOL     OW97430   7.556   1.565   5.865 -0.1730 -0.2935 -0.0210
31808SOL    HW197431   7.543   1.660   5.863 -0.0491 -0.2893 -0.9809
31808SOL    HW297432   7.649   1.554   5.846 -0.5313 -0.6742 -1.6399
31809SOL     OW97433  10.354  10.124   2.053 -0.3475  0.4407 -0.4268
31809SOL    HW197434  10.350  10.162   2.141  2.2843 -0.0985  0.0313
31809SOL    HW297435  10.418  10.178   2.007  0.6564 -1.1339 -0.9613
31810SOL     OW97436   6.885   2.927   7.821  0.4127 -0.4116  0.3151
31810SOL    HW197437   6.920   2.838   7.824 -0.1756 -0.7584 -1.5325
31810SOL    HW297438   6.931   2.969   7.749 -0.7541  0.1036 -0.1643
31811SOL     OW97439   7.990   4.695   5.123 -0.6843 -0.1203  0.0903
31811SOL    HW197440   8.015   4.621   5.179 -1.1891 -1.4098 -1.3086
31811SOL    HW297441   8.052   4.691   5.050  0.1796  1.7312  0.6479
31812SOL     OW97442   1.075   6.867   6.045 -0.0209  0.3314 -0.6088
31812SOL    HW197443   1.029   6.842   6.125 -2.1115  0.8505 -1.5750
31812SOL    HW297444   1.101   6.784   6.005  0.8419  0.0623  0.4676
31813SOL     OW97445   2.108   5.496   1.526  0.4055  0.2356  0.1527
31813SOL    HW197446   2.091   5.404   1.546 -1.2173  0.5809  0.4982
31813SOL    HW297447   2.043   5.544   1.577 -0.2957  1.4643 -1.7891
31814SOL     OW97448   7.451   2.347   8.730  0.5620 -0.1263  0.5949
31814SOL    HW197449   7.383   2.397   8.684  1.5803  1.3408  0.6264
31814SOL    HW297450   7.404   2.274   8.769 -0.6474 -0.3571 -1.1805
31815SOL     OW97451   5.357   6.928   6.623  0.2283 -0.3253  0.2243
31815SOL    HW197452   5.302   6.850   6.633 -1.1644  0.4973 -0.6047
31815SOL    HW297453   5.358   6.943   6.528 -0.2421  1.1277  0.4324
31816SOL     OW97454   0.667   1.809  11.134 -0.4186  0.1400 -0.0412
31816SOL    HW197455   0.712   1.828  11.217 -0.4693  2.2501 -0.4332
31816SOL    HW297456   0.590   1.760  11.160 -0.0707  0.1515  1.0913
31817SOL     OW97457   8.117   0.786   5.237 -0.1669 -0.1057  0.2677
31817SOL    HW197458   8.083   0.768   5.325 -0.0517 -0.5742  0.2169
31817SOL    HW297459   8.200   0.830   5.251 -0.8669  1.2239  0.3967
31818SOL     OW97460   6.294   0.159   5.439 -0.8131 -0.5785 -0.3065
31818SOL    HW197461   6.366   0.154   5.502 -0.9976 -1.9181 -0.1799
31818SOL    HW297462   6.331   0.206   5.364 -0.3122  0.2034  0.4020
31819SOL     OW97463   7.340   2.140   0.214 -0.2848 -0.5622 -0.1837
31819SOL    HW197464   7.262   2.167   0.166 -0.5948 -3.2381 -1.4166
31819SOL    HW297465   7.409   2.199   0.184 -0.9561 -0.8028 -2.3713
31820SOL     OW97466   3.508   8.879   9.121  0.4889 -0.0596  0.3149
31820SOL    HW197467   3.424   8.889   9.075 -0.2851 -3.8848  0.5404
31820SOL    HW297468   3.574   8.878   9.052  0.2164  1.4325  0.0032
31821SOL     OW97469   1.062   1.292   0.534 -0.1360  0.1380 -0.5717
31821SOL    HW197470   1.136   1.281   0.473  1.0515 -0.6967  0.9590
31821SOL    HW297471   1.039   1.204   0.560 -0.3207  0.5002  0.5268
31822SOL     OW97472   2.246   8.013  10.901  0.0276 -0.3421 -0.1889
31822SOL    HW197473   2.167   8.066  10.885  0.1575 -0.2699 -0.6116
31822SOL    HW297474   2.262   8.021  10.994  0.5973  1.1355 -0.4049
31823SOL     OW97475   1.119  10.238   3.209 -0.5908 -0.4946  0.7933
31823SOL    HW197476   1.193  10.274   3.258  0.4317 -1.5233  0.0681
31823SOL    HW297477   1.152  10.229   3.120 -1.9947  0.1183  0.1917
31824SOL     OW97478   0.091   7.465   7.518 -0.4397  0.4242 -0.0154
31824SOL    HW197479   0.136   7.525   7.459  0.0585  0.7092  0.6318
31824SOL    HW297480  -0.000   7.494   7.517 -0.4582  0.3641 -0.7039
31825SOL     OW97481   9.971   0.728   7.597  0.5434 -0.4440  0.2128
31825SOL    HW197482   9.968   0.709   7.691  0.8423 -0.1675  0.2779
31825SOL    HW297483   9.896   0.786   7.583  1.0297  0.2465  0.4457
31826SOL     OW97484   6.582   1.487   0.624  0.5443 -0.3726  0.0265
31826SOL    HW197485   6.641   1.447   0.560  1.1990  0.7419 -0.0885
31826SOL    HW297486   6.609   1.449   0.708  1.6166  0.2990  0.0085
31827SOL     OW97487   1.289  10.700   5.571 -0.3478  0.7539  0.3398
31827SOL    HW197488   1.289  10.786   5.613 -0.1947 -0.5138  3.1728
31827SOL    HW297489   1.380  10.671   5.576 -0.5947 -0.0227  0.4936
31828SOL     OW97490   7.728   9.510   3.557  0.4403 -0.4707 -0.5630
31828SOL    HW197491   7.661   9.444   3.572  1.9208 -2.2285 -1.2353
31828SOL    HW297492   7.805   9.460   3.531  1.3806  1.5971 -2.0461
31829SOL     OW97493   4.407   3.488   4.066  0.0402 -0.3006  0.1918
31829SOL    HW197494   4.340   3.458   4.128  1.5063 -1.8070  1.1228
31829SOL    HW297495   4.363   3.556   4.015 -1.7103 -0.1164  1.8238
31830SOL     OW97496   8.415   7.698   4.725  0.0058 -0.2424  0.5411
31830SOL    HW197497   8.503   7.717   4.691 -0.3872  1.3465  0.3079
31830SOL    HW297498   8.422   7.611   4.764  1.4675 -0.4879 -0.2015
31831SOL     OW97499   8.744   3.362  10.012  0.4665 -0.9411 -0.0011
31831SOL    HW197500   8.741   3.446   9.966 -0.7503 -1.2721 -0.5477
31831SOL    HW297501   8.832   3.359  10.050 -0.7603  2.6025  3.9278
31832SOL     OW97502  10.575   1.998   8.740 -0.3244 -0.3885 -0.3254
31832SOL    HW197503  10.613   2.083   8.762 -0.8082  1.1010 -4.3422
31832SOL    HW297504  10.534   1.969   8.821  0.0091  3.1422  1.3152
31833SOL     OW97505   5.754   2.160   7.796 -0.1900 -0.3865  0.1198
31833SOL    HW197506   5.757   2.133   7.705 -2.5828 -0.3625 -0.0357
31833SOL    HW297507   5.742   2.079   7.845 -3.3466 -0.1326 -0.0247
31834SOL     OW97508   2.167   9.949  10.487 -0.3776  0.5478  0.5740
31834SOL    HW197509   2.077   9.923  10.467 -0.2884  1.1793 -0.7920
31834SOL    HW297510   2.179   9.926  10.579 -1.4235 -0.9710  0.3702
31835SOL     OW97511   2.487   8.017   8.151  0.0616  0.0012 -0.3688
31835SOL    HW197512   2.402   8.034   8.111 -0.7020  0.1952  1.2614
31835SOL    HW297513   2.469   7.953   8.220  1.6733 -1.8444 -1.5428
31836SOL     OW97514   7.492   1.640   0.452 -0.8505  0.1710  0.8317
31836SOL    HW197515   7.439   1.562   0.436 -0.3656  0.1176 -0.6730
31836SOL    HW297516   7.451   1.708   0.398  0.1065  0.3371  0.2971
31837SOL     OW97517   7.078   5.814  11.012 -0.0074 -0.1477  0.3612
31837SOL    HW197518   7.026   5.867  11.072 -3.8792 -2.2667 -0.7491
31837SOL    HW297519   7.144   5.874  10.977 -0.1649  2.1721  3.6099
31838SOL     OW97520   4.883   4.711   0.271  0.2554  0.1555  0.2669
31838SOL    HW197521   4.970   4.672   0.261  0.0115 -0.1563 -0.7579
31838SOL    HW297522   4.825   4.637   0.289 -0.2231 -0.0242 -1.7582
31839SOL     OW97523   8.061   6.068   1.700  0.0371 -0.8673 -0.7821
31839SOL    HW197524   8.039   6.008   1.629 -0.7110 -2.2991  0.6181
31839SOL    HW297525   7.984   6.125   1.708  0.9608  0.7665 -2.4787
31840SOL     OW97526   8.920   0.546   8.166 -0.3552  0.7958 -0.7575
31840SOL    HW197527   8.907   0.522   8.074 -1.4692  0.5690 -0.5537
31840SOL    HW297528   9.014   0.562   8.173  0.5141 -3.0306 -1.0593
31841SOL     OW97529   1.523   5.472   2.357  0.0788 -0.4472  0.4866
31841SOL    HW197530   1.543   5.470   2.263 -3.9955  0.3707 -0.5969
31841SOL    HW297531   1.582   5.538   2.393  0.7387  0.3058 -1.7914
31842SOL     OW97532  10.850   4.204   4.998  1.0644  0.2473 -0.4591
31842SOL    HW197533  10.778   4.252   5.039 -0.0933 -0.9279 -1.0668
31842SOL    HW297534  10.923   4.216   5.058 -0.9964 -2.9382  3.1231
31843SOL     OW97535   7.780   9.352   1.567 -0.3852  0.3578  0.0172
31843SOL    HW197536   7.691   9.351   1.602 -1.2767  0.1260 -2.0719
31843SOL    HW297537   7.835   9.330   1.641 -1.7493  3.3638  2.1182
31844SOL     OW97538   4.050   2.454   2.091 -0.1424 -0.2409  0.1380
31844SOL    HW197539   3.963   2.421   2.072 -1.0016  2.2508 -0.7205
31844SOL    HW297540   4.064   2.434   2.183 -2.5472  1.0924  0.8806
31845SOL     OW97541   6.532   5.822   0.662  0.1198  0.1862 -0.2922
31845SOL    HW197542   6.447   5.845   0.626 -0.0885 -0.3595 -0.1666
31845SOL    HW297543   6.538   5.870   0.744  0.0094  0.3616 -0.3857
31846SOL     OW97544   3.354   5.506   1.080 -1.0286 -0.3058  0.4383
31846SOL    HW197545   3.268   5.476   1.109 -0.8648 -2.9504 -1.4783
31846SOL    HW297546   3.408   5.427   1.077  1.2516  1.1319  0.7304
31847SOL     OW97547   0.740   9.126   0.590 -0.1847  0.0883  0.0050
31847SOL    HW197548   0.765   9.040   0.556  0.1907 -0.1623  0.9002
31847SOL    HW297549   0.823   9.168   0.611 -0.2767  1.2180 -1.6775
31848SOL     OW97550   2.921   3.303   2.576 -0.1928 -0.2452  0.7698
31848SOL    HW197551   2.871   3.278   2.653  0.4229 -3.0957  0.3601
31848SOL    HW297552   2.998   3.348   2.611 -0.8542  0.2018  1.6792
31849SOL     OW97553   1.866   1.551   2.509  0.6618 -0.1033  0.2495
31849SOL    HW197554   1.921   1.560   2.431 -0.3864  0.4063 -0.4470
31849SOL    HW297555   1.777   1.553   2.477  0.2007 -0.0781  1.4570
31850SOL     OW97556   1.749   0.698   9.885  0.0445 -0.5373 -0.1087
31850SOL    HW197557   1.781   0.788   9.889 -1.8805  0.1651  0.6962
31850SOL    HW297558   1.693   0.696   9.807  0.3025 -1.1290 -0.2836
31851SOL     OW97559   4.381   2.602   5.582  0.5693  0.0637  0.1690
31851SOL    HW197560   4.318   2.531   5.574 -0.8568  1.2336  0.5538
31851SOL    HW297561   4.416   2.593   5.671  1.8218 -1.2456 -0.4157
31852SOL     OW97562   1.049   1.285  10.405  0.3352  0.1380  0.4954
31852SOL    HW197563   0.968   1.278  10.354 -0.6447 -0.2354  2.0514
31852SOL    HW297564   1.075   1.194  10.421  1.3084  0.2511 -0.3299
31853SOL     OW97565   7.251   9.603   6.316  0.2676  0.6342  0.2414
31853SOL    HW197566   7.165   9.562   6.309 -0.4080  2.2977 -2.2807
31853SOL    HW297567   7.308   9.533   6.349 -1.6220 -1.0724  0.0879
31854SOL     OW97568   4.322   0.014  11.176  0.0876 -0.3564  0.9383
31854SOL    HW197569   4.389   0.002  11.242  0.8414  0.1593  0.2846
31854SOL    HW297570   4.368   0.053  11.102 -0.9265  0.0141  0.4819
31855SOL     OW97571   7.529   6.298  10.245  0.0068  0.8473  0.3963
31855SOL    HW197572   7.551   6.250  10.165  0.1856  0.9568  0.3781
31855SOL    HW297573   7.574   6.382  10.235  0.9400  0.4389  1.1203
31856SOL     OW97574  10.795   7.174   9.926  0.3246  0.1069  0.3357
31856SOL    HW197575  10.881   7.132   9.920  1.0584  1.2449  1.8707
31856SOL    HW297576  10.788   7.199  10.018 -2.2106 -1.0209  0.5270
31857SOL     OW97577  10.597   6.370   4.309 -0.1774  0.8650 -0.7493
31857SOL    HW197578  10.528   6.399   4.249 -0.4947 -0.1911 -0.9079
31857SOL    HW297579  10.564   6.393   4.396 -0.9984 -0.1347 -0.7801
31858SOL     OW97580   4.485   9.430   5.416 -0.3935 -0.1078 -0.2081
31858SOL    HW197581   4.554   9.450   5.353 -0.5305  1.1739  0.0052
31858SOL    HW297582   4.412   9.397   5.363 -0.6837  1.4174 -0.8061
31859SOL     OW97583   7.123   3.213   7.406 -0.1076  0.2818  0.6038
31859SOL    HW197584   7.051   3.260   7.447 -1.3448 -2.1286  1.3706
31859SOL    HW297585   7.094   3.197   7.317 -1.4695 -2.3191  1.4214
31860SOL     OW97586   7.473   5.022   8.205  0.3329  0.1003  0.4099
31860SOL    HW197587   7.560   5.020   8.166  0.9801 -0.4721  1.8038
31860SOL    HW297588   7.420   4.967   8.148  1.3908 -1.2221  0.6560
31861SOL     OW97589   0.961   4.128   6.951  0.2678  0.0442  0.0364
31861SOL    HW197590   0.943   4.222   6.955  0.6502  0.1671  4.7123
31861SOL    HW297591   0.893   4.089   7.005  0.6804 -2.3288 -1.0371
31862SOL     OW97592   2.829   7.463   1.197 -0.0802 -0.5935  0.1713
31862SOL    HW197593   2.815   7.547   1.241  0.8021 -0.7082  0.7177
31862SOL    HW297594   2.918   7.437   1.224  0.5036 -0.6830 -1.6815
31863SOL     OW97595   2.321   5.102   2.185  0.5642  0.1619  0.0087
31863SOL    HW197596   2.381   5.050   2.131  1.5389 -0.4112  1.5820
31863SOL    HW297597   2.239   5.053   2.183  0.8519 -0.3257 -0.2558
31864SOL     OW97598   1.791   1.029   7.079 -1.4192  0.2730  1.3445
31864SOL    HW197599   1.850   1.055   7.149  0.8146  0.0088 -0.3403
31864SOL    HW297600   1.762   1.111   7.039  0.3255  0.3930  0.2402
31865SOL     OW97601   3.033   4.987   5.793  0.7400 -0.3914 -0.2193
31865SOL    HW197602   3.112   5.019   5.836 -0.1155 -0.5942  1.5852
31865SOL    HW297603   2.976   5.064   5.787 -0.5863 -1.0490  2.4481
31866SOL     OW97604   9.788   4.396   5.371 -0.2537  0.4019  0.8049
31866SOL    HW197605   9.737   4.477   5.376  1.1514  1.6134 -2.0206
31866SOL    HW297606   9.875   4.424   5.345 -0.7157 -2.0049 -5.0724
31867SOL     OW97607   7.682   7.017   9.999 -0.6473  0.5353 -0.0282
31867SOL    HW197608   7.776   7.001   9.995 -0.7656  0.0528 -1.7524
31867SOL    HW297609   7.670   7.102   9.956 -1.0842  0.0404 -0.9222
31868SOL     OW97610   2.435   1.679   5.459 -0.2517  0.0295 -0.4353
31868SOL    HW197611   2.350   1.696   5.500 -0.6905  0.9847 -1.6987
31868SOL    HW297612   2.486   1.758   5.475  0.2591 -0.3551 -0.0968
31869SOL     OW97613   3.173   6.331   5.096 -0.2810 -0.0643 -0.6467
31869SOL    HW197614   3.185   6.339   5.191 -0.4981 -0.3881 -0.5889
31869SOL    HW297615   3.193   6.239   5.078 -1.2802 -0.2683 -0.7546
31870SOL     OW97616   2.854   8.277   7.004  0.5988  0.3432 -0.2155
31870SOL    HW197617   2.902   8.254   6.924  1.5757 -0.6102  0.6073
31870SOL    HW297618   2.860   8.199   7.059 -2.4394 -0.0346 -0.2611
31871SOL     OW97619   7.482   9.347   5.221 -1.0084  0.1126 -0.2672
31871SOL    HW197620   7.422   9.295   5.274  0.7181 -1.2343  0.4631
31871SOL    HW297621   7.516   9.414   5.282 -0.5950 -0.1300 -0.2237
31872SOL     OW97622   1.755   6.507   6.792  0.2860  0.2249  0.5528
31872SOL    HW197623   1.718   6.504   6.703 -1.3683 -0.0306  1.2077
31872SOL    HW297624   1.843   6.472   6.782  0.3890  0.8286 -1.0984
31873SOL     OW97625  10.613   5.061  11.198  0.5340  0.1478 -0.2031
31873SOL    HW197626  10.650   5.138  11.155  0.1428  0.4951  0.0801
31873SOL    HW297627  10.521   5.081  11.210 -0.1928 -1.4346 -2.5369
31874SOL     OW97628  11.077   6.021  10.271 -0.0390 -0.0883  0.2053
31874SOL    HW197629  11.047   5.966  10.343 -0.3059  0.2753  0.3707
31874SOL    HW297630  11.055   5.971  10.192 -1.1974  0.2173  0.3149
31875SOL     OW97631   0.808   0.328   2.714 -0.5221  0.0037 -0.5949
31875SOL    HW197632   0.824   0.269   2.787  1.2356  0.5178 -0.5098
31875SOL    HW297633   0.866   0.403   2.731 -1.7020  1.1473 -1.3824
31876SOL     OW97634   9.175   5.288   7.261 -0.4445 -0.2923 -0.4305
31876SOL    HW197635   9.092   5.284   7.309 -0.4633 -0.8740 -0.5070
31876SOL    HW297636   9.151   5.328   7.177 -0.9228 -1.6585 -0.9825
31877SOL     OW97637   6.509   6.917   3.022  0.2689 -0.4929 -0.1300
31877SOL    HW197638   6.447   6.867   2.968  0.2925  0.6286 -1.2590
31877SOL    HW297639   6.582   6.857   3.036  0.2567 -0.8392 -1.3698
31878SOL     OW97640   7.770   2.333   6.693 -0.3414  0.1381 -0.0656
31878SOL    HW197641   7.761   2.327   6.788 -2.2464  2.2472 -0.0098
31878SOL    HW297642   7.729   2.254   6.659  0.7824 -0.8633  0.8393
31879SOL     OW97643   9.020   5.402   4.644  0.2735  0.1260  0.3419
31879SOL    HW197644   9.096   5.346   4.657 -1.0395 -1.6200  0.8027
31879SOL    HW297645   9.026   5.431   4.553  1.3697 -0.1379  0.3196
31880SOL     OW97646   0.969   4.645   0.698  0.0794  0.1188  0.4436
31880SOL    HW197647   1.004   4.577   0.640  1.9172  1.4997 -0.1545
31880SOL    HW297648   1.001   4.620   0.785  1.1401  0.4290  0.1581
31881SOL     OW97649   9.501   0.567   7.513  0.0913  0.1332 -0.0140
31881SOL    HW197650   9.441   0.627   7.469  0.3788 -0.8800 -1.8872
31881SOL    HW297651   9.559   0.536   7.443  1.1330 -0.9059  1.2582
31882SOL     OW97652   7.961   7.713   1.293 -0.0968  0.1592 -0.6437
31882SOL    HW197653   7.901   7.738   1.223  0.5953 -0.6966 -1.5948
31882SOL    HW297654   7.928   7.628   1.324  0.8778 -0.5972 -1.5637
31883SOL     OW97655  10.100   1.839   0.055 -0.2052 -0.2033 -0.4386
31883SOL    HW197656  10.088   1.921   0.007 -1.8582  0.7923  1.4991
31883SOL    HW297657  10.183   1.850   0.102 -0.8163  0.7536  0.4560
31884SOL     OW97658   4.385   2.937   1.624  0.0341 -0.6208  0.2436
31884SOL    HW197659   4.346   2.947   1.537 -0.3436 -0.5860  0.4141
31884SOL    HW297660   4.341   2.862   1.662 -0.2958 -0.2200  0.6687
31885SOL     OW97661   0.887   5.212   9.268 -1.0042  0.3462 -0.0646
31885SOL    HW197662   0.900   5.280   9.202 -0.2653  2.0062  1.7269
31885SOL    HW297663   0.838   5.143   9.222  0.8580  0.6909 -2.7952
31886SOL     OW97664   1.301   4.477   3.922 -0.0946  1.0229 -0.0384
31886SOL    HW197665   1.331   4.449   4.008  0.7611  1.4645 -0.1823
31886SOL    HW297666   1.328   4.569   3.916 -0.7961  1.2100 -0.4913
31887SOL     OW97667   4.009   4.163   6.057 -0.2823 -0.4773 -0.1336
31887SOL    HW197668   4.011   4.255   6.082  0.5796  0.7510 -3.9787
31887SOL    HW297669   3.966   4.119   6.130  0.0759  2.7949  2.2660
31888SOL     OW97670   4.979   5.636   0.096 -0.9569 -0.0764 -0.1369
31888SOL    HW197671   4.957   5.730   0.093 -2.8004 -0.3622  1.7263
31888SOL    HW297672   5.024   5.619   0.014 -0.9585  2.3644 -0.7165
31889SOL     OW97673   7.024   1.879   3.746  0.5305  0.4303  0.3157
31889SOL    HW197674   6.955   1.937   3.776  1.7883  1.7503  0.7808
31889SOL    HW297675   7.098   1.937   3.728  2.6175 -1.1644  2.9800
31890SOL     OW97676   0.261   1.528   5.302 -0.3188 -0.2365  0.3453
31890SOL    HW197677   0.210   1.550   5.380 -1.2358  0.3901 -0.4236
31890SOL    HW297678   0.230   1.588   5.235 -0.8099 -1.9334 -1.0060
31891SOL     OW97679   6.261   3.191   3.161  0.3034 -0.5673 -0.2547
31891SOL    HW197680   6.316   3.205   3.238  0.3151 -1.0829 -0.1617
31891SOL    HW297681   6.172   3.203   3.192  0.3713  0.8058 -0.5261
31892SOL     OW97682   8.501   1.820   5.580  0.0182 -0.3718  0.6328
31892SOL    HW197683   8.459   1.858   5.503  2.7321 -0.4160 -0.9622
31892SOL    HW297684   8.569   1.883   5.604 -0.4724 -0.5728  2.7821
31893SOL     OW97685   6.356   5.243   8.727 -0.3373 -0.1253  0.3214
31893SOL    HW197686   6.309   5.235   8.810 -1.3333 -0.4207 -0.2460
31893SOL    HW297687   6.290   5.276   8.666  0.4515  0.3321 -0.2907
31894SOL     OW97688   7.723   2.577   6.592 -0.0247  0.1472 -0.2732
31894SOL    HW197689   7.742   2.533   6.509 -0.5194 -0.2603 -0.1804
31894SOL    HW297690   7.712   2.505   6.655  0.3638  0.4556  0.1493
31895SOL     OW97691   5.380   4.470   4.507 -0.5728 -0.1555  0.1799
31895SOL    HW197692   5.423   4.531   4.566  1.2511  0.9239 -2.1053
31895SOL    HW297693   5.399   4.384   4.543 -0.6496  0.4869  1.8303
31896SOL     OW97694   1.302   5.439   5.180 -0.0160 -0.7064 -0.3740
31896SOL    HW197695   1.299   5.527   5.217  1.7270 -0.6525 -0.2799
31896SOL    HW297696   1.214   5.404   5.193 -1.2842  1.6351 -2.0013
31897SOL     OW97697   8.501   0.720   9.423 -0.3770 -0.0946 -0.0976
31897SOL    HW197698   8.408   0.726   9.402 -0.6350  1.3641  1.3307
31897SOL    HW297699   8.521   0.800   9.471  2.0804  0.5524 -2.0111
31898SOL     OW97700   7.855   3.092   9.359  0.0843 -0.0076  0.0953
31898SOL    HW197701   7.945   3.091   9.391  0.0984  0.8231  0.1231
31898SOL    HW297702   7.862   3.131   9.272 -0.0834 -1.2650 -0.4892
31899SOL     OW97703  10.011   0.501  10.954 -0.1770 -0.1844 -0.3304
31899SOL    HW197704   9.983   0.588  10.983 -0.8926 -0.3901 -0.3853
31899SOL    HW297705  10.106   0.507  10.950 -0.2365  0.7462 -0.8022
31900SOL     OW97706   4.740   5.597   8.432  0.4508  0.0192 -0.3816
31900SOL    HW197707   4.651   5.587   8.398 -0.3068  2.5840  0.6650
31900SOL    HW297708   4.759   5.512   8.474 -1.6479 -0.4466 -0.2725
31901SOL     OW97709   4.416   6.166  11.141 -0.0260 -0.5705 -0.5920
31901SOL    HW197710   4.474   6.240  11.124  1.6556 -1.0847  2.2159
31901SOL    HW297711   4.411   6.161  11.237 -2.9042 -2.0072 -0.6911
31902SOL     OW97712   5.606   0.467  10.182 -0.1663  0.7928 -0.0320
31902SOL    HW197713   5.555   0.419  10.247  1.7052 -1.5998 -0.1694
31902SOL    HW297714   5.543   0.494  10.116 -1.4552 -1.0028  0.3933
31903SOL     OW97715   2.407   1.271   7.401  0.4510  0.2170  0.0576
31903SOL    HW197716   2.384   1.330   7.473  2.0947  2.6874 -1.3083
31903SOL    HW297717   2.502   1.271   7.400  0.4581 -0.6139 -1.4595
31904SOL     OW97718  11.234   1.538   5.000 -0.0978 -0.1623  0.9533
31904SOL    HW197719  11.229   1.482   5.077 -0.5557 -0.9071  0.4071
31904SOL    HW297720  11.167   1.502   4.941  2.0395 -1.3505 -0.8983
31905SOL     OW97721   6.994   1.531   7.990  0.2664  0.5597 -0.1724
31905SOL    HW197722   7.067   1.578   7.950 -1.1816  1.9001 -1.3745
31905SOL    HW297723   6.972   1.583   8.067  0.4137  0.2984  0.0468
31906SOL     OW97724   7.725   8.849   1.237 -1.3793 -0.4857  0.2411
31906SOL    HW197725   7.727   8.933   1.191  0.4466 -1.0269 -0.7504
31906SOL    HW297726   7.733   8.872   1.330 -2.2640  0.4750  0.1004
31907SOL     OW97727  10.133   3.314   1.805  0.5719  0.3731  0.5497
31907SOL    HW197728  10.144   3.352   1.718 -2.0300 -0.8383 -0.4000
31907SOL    HW297729  10.132   3.389   1.864 -0.9430  1.5340 -0.8614
31908SOL     OW97730   3.862   1.356   9.564  0.1904  0.0596 -0.6750
31908SOL    HW197731   3.816   1.407   9.497  1.7358 -0.2529 -2.0669
31908SOL    HW297732   3.795   1.300   9.603 -0.6357 -0.3483 -2.5708
31909SOL     OW97733   1.443  11.044   9.665  0.3091  0.2908  0.4066
31909SOL    HW197734   1.513  11.102   9.635 -0.1047  2.2031  2.8259
31909SOL    HW297735   1.474  11.009   9.749 -0.6214 -0.7863  0.3286
31910SOL     OW97736   8.154   0.060   3.919 -0.3194  0.2882  0.3266
31910SOL    HW197737   8.171   0.127   3.985 -0.9635 -0.7720  1.6179
31910SOL    HW297738   8.125  -0.017   3.969  0.1247 -0.8780 -1.1155
31911SOL     OW97739   8.829   4.839   8.181 -0.4479  0.5281 -0.2401
31911SOL    HW197740   8.908   4.833   8.235 -0.0859  1.2752 -0.6675
31911SOL    HW297741   8.854   4.800   8.098 -1.9244 -3.5783  1.0008
31912SOL     OW97742   5.229   2.070  10.625  0.2357  0.1302  0.7628
31912SOL    HW197743   5.193   2.151  10.589  1.0976  0.0020 -0.4838
31912SOL    HW297744   5.162   2.037  10.684 -1.4550  0.2075 -0.9965
31913SOL     OW97745   4.459   9.070   9.532 -0.0403 -0.4199 -0.6700
31913SOL    HW197746   4.384   9.104   9.580  1.9936  0.2396  2.2319
31913SOL    HW297747   4.531   9.069   9.595  1.7633 -3.6862 -2.4764
31914SOL     OW97748   9.676   8.412   9.415  0.5407  0.0088 -0.0002
31914SOL    HW197749   9.602   8.425   9.355 -0.3976 -2.2582  0.5474
31914SOL    HW297750   9.643   8.443   9.499  0.8447  0.6125 -0.1049
31915SOL     OW97751   1.682   2.931   6.702  0.0269  0.2974 -0.4702
31915SOL    HW197752   1.620   2.865   6.730  1.3549 -0.3868  1.0171
31915SOL    HW297753   1.646   3.014   6.735 -0.3832 -0.0077 -0.1457
31916SOL     OW97754   7.287  10.202   6.263 -0.3337  0.0608 -0.1818
31916SOL    HW197755   7.330  10.148   6.329  1.4205  1.6408  0.0289
31916SOL    HW297756   7.214  10.244   6.309  0.3840  0.5243  0.5456
31917SOL     OW97757   0.095   4.482   1.884  0.1588  0.3493 -0.9662
31917SOL    HW197758   0.050   4.462   1.966  1.2511  2.7966  0.3409
31917SOL    HW297759   0.031   4.530   1.832 -0.3398 -0.6836 -1.3352
31918SOL     OW97760   7.869   3.970   1.435 -0.1106  0.0858 -0.0693
31918SOL    HW197761   7.776   3.981   1.452  0.0689 -0.9660  1.8521
31918SOL    HW297762   7.912   3.992   1.517  1.3031  0.0241 -0.7592
31919SOL     OW97763   7.131   8.908   3.260 -0.7568 -0.0995  0.6491
31919SOL    HW197764   7.040   8.935   3.276 -0.1577  2.0600  0.6995
31919SOL    HW297765   7.128   8.867   3.174 -1.9924 -1.2921  1.2170
31920SOL     OW97766   5.807   3.152   3.725 -0.4753 -1.0042  0.4505
31920SOL    HW197767   5.864   3.201   3.666 -0.5590 -1.8749 -0.3693
31920SOL    HW297768   5.728   3.205   3.731  0.3158  0.1183  1.4445
31921SOL     OW97769   4.521   5.052  11.000 -0.1268 -0.9461 -0.1918
31921SOL    HW197770   4.453   5.018  10.942  1.2109 -1.4801 -1.5140
31921SOL    HW297771   4.531   5.144  10.974 -0.3363 -0.8723 -0.0084
31922SOL     OW97772   3.332  11.006   0.754 -0.1151  0.3870 -0.0310
31922SOL    HW197773   3.342  11.056   0.835  0.7510  1.9534 -1.0529
31922SOL    HW297774   3.414  10.957   0.747 -0.6758 -0.6889  0.6079
31923SOL     OW97775   2.063   4.763  10.183  0.2204  0.0340 -0.4059
31923SOL    HW197776   2.132   4.787  10.245 -1.4592 -1.0751  2.0975
31923SOL    HW297777   2.038   4.674  10.209 -2.8213  0.7513 -0.4636
31924SOL     OW97778   0.053   8.854   3.769  0.2640  0.5159 -0.1163
31924SOL    HW197779   0.105   8.843   3.849  0.2360  1.3984  0.0275
31924SOL    HW297780   0.102   8.806   3.702  0.2380 -0.3226  0.4396
31925SOL     OW97781  10.956   0.943   7.625 -0.2990  0.8487  0.0993
31925SOL    HW197782  10.984   0.852   7.637  0.6149  0.9747 -0.8685
31925SOL    HW297783  10.913   0.966   7.707  0.7601 -0.0002  0.9302
31926SOL     OW97784  10.476   1.332   0.656 -0.3373  0.5462  0.4611
31926SOL    HW197785  10.555   1.306   0.703 -0.3914 -0.0888  0.2158
31926SOL    HW297786  10.455   1.419   0.690  1.9640  1.9451 -1.3620
31927SOL     OW97787   7.192   3.122   0.107 -0.8154 -0.4816  0.0535
31927SOL    HW197788   7.218   3.200   0.057 -3.5907 -0.8835 -2.2901
31927SOL    HW297789   7.253   3.054   0.078  0.5549  0.3567  0.8435
31928SOL     OW97790   4.794   1.124   6.231 -0.1626  0.3108 -0.2593
31928SOL    HW197791   4.860   1.078   6.283 -0.2623  1.6074  1.1125
31928SOL    HW297792   4.842   1.196   6.189  0.1440 -1.3454 -2.9781
31929SOL     OW97793   4.872   8.946  10.963  0.0388  0.7065 -0.8189
31929SOL    HW197794   4.965   8.962  10.977 -0.0035 -0.5276  1.1768
31929SOL    HW297795   4.838   9.031  10.934  1.2687  2.0234  1.3304
31930SOL     OW97796   8.275   8.415   3.585  0.2496 -0.1857  0.2605
31930SOL    HW197797   8.273   8.510   3.594 -1.7026 -0.1241 -0.4252
31930SOL    HW297798   8.193   8.385   3.624 -1.0622 -1.1980 -2.9523
31931SOL     OW97799   6.810   0.103  10.634  0.1518  0.0341  0.0215
31931SOL    HW197800   6.767   0.025  10.600 -0.5344  0.0516  0.7983
31931SOL    HW297801   6.738   0.164  10.653  0.5791  0.3700  0.5947
31932SOL     OW97802   6.670   8.434   9.504  0.3102 -0.1064 -0.3773
31932SOL    HW197803   6.661   8.462   9.413 -1.6861 -2.6181 -1.0455
31932SOL    HW297804   6.586   8.395   9.527  1.0346 -0.3330  2.2969
31933SOL     OW97805   3.664   3.028   8.734 -0.4821 -0.0982  0.4518
31933SOL    HW197806   3.628   2.941   8.719 -0.5319  0.0164 -0.1202
31933SOL    HW297807   3.603   3.087   8.690 -1.0066  0.3220  1.6999
31934SOL     OW97808   3.471   9.477   5.218 -0.0924 -0.7759  0.3457
31934SOL    HW197809   3.548   9.533   5.229 -1.1770  1.3458 -1.8807
31934SOL    HW297810   3.505   9.397   5.178  1.2723 -1.1033  2.0178
31935SOL     OW97811   2.587   7.941   3.980  0.2685  0.9219 -0.3602
31935SOL    HW197812   2.607   7.962   4.071  1.0016  1.5013 -0.6490
31935SOL    HW297813   2.593   7.845   3.975  2.4320  1.0074 -0.2862
31936SOL     OW97814   3.788   8.206   6.418  0.1455  0.1494  0.4216
31936SOL    HW197815   3.711   8.263   6.428  0.4010  0.8981 -1.4827
31936SOL    HW297816   3.857   8.265   6.387  1.8158 -0.3237  2.9891
31937SOL     OW97817   6.171   9.776  11.022  0.5910 -0.1710  0.6313
31937SOL    HW197818   6.133   9.852  10.978 -0.1592 -1.2784 -0.7497
31937SOL    HW297819   6.230   9.738  10.956  0.7463 -0.9162  1.1882
31938SOL     OW97820   2.258   2.199   3.249  0.0850 -1.2135 -0.5856
31938SOL    HW197821   2.239   2.283   3.292 -2.4062 -2.4471  0.9532
31938SOL    HW297822   2.245   2.217   3.156  1.7119  0.5728 -0.5404
31939SOL     OW97823   7.732   2.192   7.519  0.0391  1.0685  0.3079
31939SOL    HW197824   7.746   2.173   7.611 -3.7592 -2.0928  0.4631
31939SOL    HW297825   7.780   2.123   7.473 -0.7129  0.6986  0.0733
31940SOL     OW97826   3.369  10.375   6.902 -0.4009 -0.0900 -0.2678
31940SOL    HW197827   3.408  10.414   6.980  0.5660  0.2711 -0.9112
31940SOL    HW297828   3.284  10.341   6.931 -1.3050  2.4514  0.3471
31941SOL     OW97829   2.151   9.451   6.204  0.5276 -0.2297  0.3362
31941SOL    HW197830   2.131   9.492   6.288 -0.9265 -2.2755  1.0785
31941SOL    HW297831   2.144   9.357   6.221 -3.1427 -0.7465 -2.7576
31942SOL     OW97832   6.276   4.349   6.726 -0.5543  0.0706 -0.1611
31942SOL    HW197833   6.247   4.390   6.645 -0.2074  2.0341  0.6494
31942SOL    HW297834   6.197   4.306   6.761 -1.0942  0.5875 -0.7383
31943SOL     OW97835   2.068   2.041   6.875  0.3068  0.1911  0.2168
31943SOL    HW197836   1.977   2.056   6.850 -0.2855 -0.9525  1.5917
31943SOL    HW297837   2.091   2.117   6.929  1.6213  2.7317 -3.4827
31944SOL     OW97838   3.851   5.826   0.282 -0.2957 -0.7793 -1.0223
31944SOL    HW197839   3.768   5.837   0.328  0.7145 -1.8296  1.1754
31944SOL    HW297840   3.893   5.753   0.326  0.7348 -1.9411 -3.7443
31945SOL     OW97841  10.373   1.261   5.840 -0.7827  0.2583 -0.0775
31945SOL    HW197842  10.467   1.247   5.825 -0.5982  1.7901 -0.5582
31945SOL    HW297843  10.331   1.183   5.805  0.2765 -0.1851 -0.4063
31946SOL     OW97844   6.569   7.103   4.848  0.2588  0.9755 -0.2965
31946SOL    HW197845   6.570   7.155   4.929  0.4322  1.0597 -0.3527
31946SOL    HW297846   6.479   7.109   4.817  0.0501  0.4789  0.1932
31947SOL     OW97847   9.005   3.107   0.666 -0.2629  0.1805  0.3391
31947SOL    HW197848   8.995   3.068   0.753 -3.4125  1.6499  0.7904
31947SOL    HW297849   9.099   3.122   0.657  0.5631 -2.9276  2.0800
31948SOL     OW97850   2.372  10.687   3.862 -0.3156 -0.6170 -0.3843
31948SOL    HW197851   2.344  10.596   3.861 -0.9727 -0.4092 -1.1364
31948SOL    HW297852   2.333  10.726   3.784 -1.9022  0.8624  1.0660
31949SOL     OW97853   2.307   6.336   1.685  0.0936  0.3019  0.1292
31949SOL    HW197854   2.385   6.391   1.696 -0.8739  1.6207  0.7071
31949SOL    HW297855   2.234   6.396   1.699 -1.0228 -1.1124  0.5650
31950SOL     OW97856  10.260   5.412   4.383  0.2530  0.4499 -0.1906
31950SOL    HW197857  10.236   5.348   4.317 -0.8699  1.1983 -0.5308
31950SOL    HW297858  10.356   5.412   4.383  0.2904  1.1694 -2.5408
31951SOL     OW97859   1.335   7.817   1.804  0.9142  0.1791  0.2004
31951SOL    HW197860   1.419   7.803   1.847  1.7355  0.9773 -1.0677
31951SOL    HW297861   1.357   7.855   1.719 -0.6500 -1.0304 -0.8193
31952SOL     OW97862   6.720   5.966   9.476 -0.0315 -0.0486  0.1967
31952SOL    HW197863   6.646   5.979   9.535 -0.4732 -0.4992 -0.2532
31952SOL    HW297864   6.691   6.003   9.393 -0.5362 -1.9987 -0.5498
31953SOL     OW97865   1.839   4.520   2.680 -0.5031  0.0387  0.2369
31953SOL    HW197866   1.756   4.485   2.650  0.2666 -0.9427 -0.8550
31953SOL    HW297867   1.828   4.615   2.678 -0.8981  0.0088 -2.1277
31954SOL     OW97868  10.369   2.734   8.833  0.1586 -0.1036 -0.1431
31954SOL    HW197869  10.311   2.720   8.759 -0.5251  0.5804  0.2549
31954SOL    HW297870  10.324   2.694   8.908  1.1443 -1.3902 -0.1901
31955SOL     OW97871  10.876   0.867   2.429 -0.3678  0.2850  0.2408
31955SOL    HW197872  10.882   0.866   2.525 -1.9329  0.4215  0.3649
31955SOL    HW297873  10.942   0.930   2.402  1.4696 -1.1662  1.0783
31956SOL     OW97874   3.284   9.503   6.481  0.2764  0.2679 -0.9844
31956SOL    HW197875   3.194   9.527   6.502  0.3574  0.1638 -0.4937
31956SOL    HW297876   3.276   9.432   6.417  0.0300  1.0729 -1.8609
31957SOL     OW97877   5.830   8.210   9.440  0.0429 -0.1853  0.7024
31957SOL    HW197878   5.820   8.244   9.351 -1.2180  0.7777  1.1788
31957SOL    HW297879   5.827   8.115   9.430 -0.2773 -0.0830 -0.2745
31958SOL     OW97880   5.461   4.259   6.389 -0.3893  0.0388  0.0955
31958SOL    HW197881   5.455   4.180   6.334 -0.1687  0.4861 -0.5877
31958SOL    HW297882   5.499   4.325   6.331  0.2515  0.4138  0.9228
31959SOL     OW97883   1.282  10.296   5.200  0.6346  0.3602  0.0356
31959SOL    HW197884   1.228  10.265   5.272  0.9289  1.3801  0.7175
31959SOL    HW297885   1.227  10.285   5.122  0.4199 -1.0147  0.3634
31960SOL     OW97886   8.596   7.820   1.375  0.7516 -0.0200 -0.5391
31960SOL    HW197887   8.535   7.873   1.325 -0.7902 -1.2615 -0.0588
31960SOL    HW297888   8.620   7.874   1.451 -1.0448 -0.0991  0.1211
31961SOL     OW97889   2.358   1.411   0.029 -0.4382  0.2443 -0.2421
31961SOL    HW197890   2.417   1.442  -0.040  0.9349  0.1884  0.8558
31961SOL    HW297891   2.323   1.492   0.068  0.0721  0.3315  0.0500
31962SOL     OW97892   2.644   6.025   1.777 -0.5764  0.4203  0.6211
31962SOL    HW197893   2.565   5.972   1.760 -0.0058 -0.8968  1.8604
31962SOL    HW297894   2.696   5.971   1.837  1.2322  1.3048 -0.0869
31963SOL     OW97895   8.601   1.017   6.953 -0.4061  0.5359  0.2949
31963SOL    HW197896   8.659   1.093   6.953 -1.1861  1.1515 -0.1025
31963SOL    HW297897   8.537   1.035   7.021  0.0875 -0.3340  1.0180
31964SOL     OW97898   1.828  10.421  11.130  0.4714 -0.1934 -0.0745
31964SOL    HW197899   1.843  10.343  11.184  1.1314 -0.4693 -0.6289
31964SOL    HW297900   1.901  10.420  11.067 -0.0743  0.3210 -0.7248
31965SOL     OW97901   3.526   0.163   5.429 -0.4108 -0.1969 -0.3182
31965SOL    HW197902   3.519   0.161   5.334  0.5847  1.1235 -0.4465
31965SOL    HW297903   3.601   0.106   5.449 -0.0572  0.2347 -0.4028
31966SOL     OW97904   6.895   7.253   1.849 -0.0067 -0.1686  0.3958
31966SOL    HW197905   6.962   7.256   1.780  1.3214  0.4024  1.6479
31966SOL    HW297906   6.934   7.200   1.918 -1.5282 -1.1646  0.5280
31967SOL     OW97907   0.025   0.407   7.636  0.0818 -0.2279  0.3348
31967SOL    HW197908   0.037   0.415   7.541  1.4533 -1.2043  0.3896
31967SOL    HW297909   0.066   0.323   7.658 -0.9024 -0.3742  1.6932
31968SOL     OW97910  10.253   5.835   2.619  0.2411  0.0275  0.1254
31968SOL    HW197911  10.235   5.926   2.640 -1.0909 -0.4120  1.0245
31968SOL    HW297912  10.319   5.808   2.683 -1.2015 -0.3081  1.5264
31969SOL     OW97913   0.076   0.192  10.970  0.5139 -0.1003  0.7986
31969SOL    HW197914   0.109   0.242  10.895 -0.8658  0.8509  0.8063
31969SOL    HW297915   0.137   0.213  11.041  0.6819  0.5529  0.4664
31970SOL     OW97916   4.754   8.282   6.650 -0.6019  0.3419  0.1498
31970SOL    HW197917   4.821   8.276   6.582 -1.3679 -0.4131 -0.5575
31970SOL    HW297918   4.785   8.351   6.708  0.7169  0.0967 -0.2413
31971SOL     OW97919   1.414  10.585   6.047  0.2863  0.2634 -0.5479
31971SOL    HW197920   1.470  10.537   5.986  0.1357 -0.8480  0.1603
31971SOL    HW297921   1.327  10.579   6.009 -0.2041 -2.2952  0.7802
31972SOL     OW97922   9.178   3.512   9.497  0.5238  0.1626 -0.3931
31972SOL    HW197923   9.237   3.568   9.547 -0.4375  0.8701 -0.0127
31972SOL    HW297924   9.160   3.438   9.555  1.9832 -0.6883 -0.9882
31973SOL     OW97925   6.546   9.223   5.237 -0.0771  0.3998  0.0535
31973SOL    HW197926   6.470   9.175   5.271  0.4542 -0.0604  0.6251
31973SOL    HW297927   6.546   9.204   5.144  1.2478 -2.4640  0.5036
31974SOL     OW97928  11.065   0.473   8.690 -0.3292 -0.5223 -0.3923
31974SOL    HW197929  11.112   0.391   8.707 -0.6179 -0.5438  0.3302
31974SOL    HW297930  10.976   0.455   8.718 -1.0700 -0.8246 -2.6857
31975SOL     OW97931   8.120   4.634   6.190  1.2188  0.0572  0.1924
31975SOL    HW197932   8.092   4.699   6.255 -0.4240 -1.1815  0.7833
31975SOL    HW297933   8.044   4.620   6.134  2.2726  0.2975 -1.3772
31976SOL     OW97934   1.040   4.545   7.389  0.5587  0.4036 -0.0686
31976SOL    HW197935   1.002   4.496   7.461 -0.5292  1.1980 -0.0842
31976SOL    HW297936   1.120   4.496   7.367  0.8555  0.0770  1.5752
31977SOL     OW97937  10.578   6.200   0.420 -0.7054 -0.4552 -0.1547
31977SOL    HW197938  10.639   6.170   0.487 -0.0412 -2.0028 -1.3739
31977SOL    HW297939  10.519   6.125   0.407 -0.6075 -0.3197 -1.5022
31978SOL     OW97940   1.158   8.647   0.002  0.4450 -0.1070 -0.3532
31978SOL    HW197941   1.099   8.574   0.021  0.4627  0.0885  0.4675
31978SOL    HW297942   1.123   8.721   0.051  1.4708 -0.0362  0.3065
31979SOL     OW97943   9.736   5.408   0.452  0.3034  0.2075 -0.1081
31979SOL    HW197944   9.797   5.391   0.380 -2.9404 -2.2018 -2.5959
31979SOL    HW297945   9.695   5.491   0.429  0.4064  0.2466 -0.1522
31980SOL     OW97946  10.424   7.980   3.313 -0.3464 -0.4311  0.0056
31980SOL    HW197947  10.406   8.068   3.349 -0.3770 -0.4364  0.0038
31980SOL    HW297948  10.498   7.948   3.365 -1.0977 -0.8922  0.8348
31981SOL     OW97949  11.141   8.186   0.021 -0.7214 -0.5713  0.2180
31981SOL    HW197950  11.094   8.201  -0.062  0.2126 -0.4419 -0.3055
31981SOL    HW297951  11.072   8.170   0.085 -1.5361  0.4915 -0.3464
31982SOL     OW97952   0.848   3.504   3.778 -0.3032  0.3692 -0.1120
31982SOL    HW197953   0.906   3.434   3.748 -1.4201 -1.9220  2.6175
31982SOL    HW297954   0.905   3.559   3.833  0.2697  0.8323 -1.1435
31983SOL     OW97955   9.752   2.845   5.336 -0.2866  0.3021  0.5188
31983SOL    HW197956   9.664   2.859   5.370 -1.0130  0.7119 -1.4486
31983SOL    HW297957   9.764   2.913   5.270  0.4911 -1.3111 -1.0861
31984SOL     OW97958   0.786   7.342  11.030  0.1748  0.4185  0.0768
31984SOL    HW197959   0.736   7.345  11.112  0.2361 -0.9590  0.1991
31984SOL    HW297960   0.798   7.248  11.014  2.0294  0.7045 -0.3867
31985SOL     OW97961   2.101   4.478   0.665 -0.0011 -0.5048  0.4326
31985SOL    HW197962   2.164   4.440   0.604 -1.7575 -1.1740 -1.0452
31985SOL    HW297963   2.112   4.427   0.746  0.1249 -1.8088 -0.3830
31986SOL     OW97964   0.897   9.984   2.845  0.0381 -0.1503  0.1780
31986SOL    HW197965   0.906   9.951   2.756  1.3657  1.0177 -0.1531
31986SOL    HW297966   0.982  10.023   2.865 -0.6705  0.8197  1.4517
31987SOL     OW97967  11.075   4.307   6.107  0.0815 -0.1471  0.5027
31987SOL    HW197968  11.118   4.310   6.193  1.4659 -0.9543 -0.1297
31987SOL    HW297969  11.052   4.215   6.095  0.7855 -0.2184 -0.3989
31988SOL     OW97970   3.023   4.277   0.690  0.6001  0.0409 -0.4894
31988SOL    HW197971   3.087   4.209   0.713 -0.4182 -0.7548  0.0498
31988SOL    HW297972   3.004   4.261   0.597  0.2959 -0.4757 -0.3407
31989SOL     OW97973   3.477   3.702   3.182 -0.0969 -0.1026 -0.2478
31989SOL    HW197974   3.437   3.630   3.231  1.8212  1.0418  3.3743
31989SOL    HW297975   3.544   3.660   3.128 -0.7583 -1.2681 -0.1966
31990SOL     OW97976  11.038  11.253   3.350  0.8195  0.1065 -0.4915
31990SOL    HW197977  10.990  11.171   3.337  0.8346 -0.1034  0.7326
31990SOL    HW297978  11.020  11.278   3.440  0.0326  1.9865 -1.1288
31991SOL     OW97979   7.542  10.228   9.402 -0.0924 -0.2044  0.1160
31991SOL    HW197980   7.624  10.227   9.452 -0.7174 -0.9065  1.1368
31991SOL    HW297981   7.550  10.306   9.347  1.1816 -0.1508  0.3303
31992SOL     OW97982  10.361   9.596   9.253 -0.2509  0.1179  0.0239
31992SOL    HW197983  10.421   9.586   9.326 -2.8251  0.4681  2.3525
31992SOL    HW297984  10.384   9.526   9.192  1.6043 -0.5606  1.4421
31993SOL     OW97985  10.337  10.354   3.524  0.1551  0.3575 -0.0886
31993SOL    HW197986  10.388  10.432   3.546  2.3128 -1.1109  0.4548
31993SOL    HW297987  10.329  10.358   3.428  1.8079  0.3628 -0.2503
31994SOL     OW97988   5.902   6.169  11.126  0.2643  0.0419  0.2016
31994SOL    HW197989   5.932   6.246  11.078  0.0835  1.0479  1.6436
31994SOL    HW297990   5.967   6.102  11.106  1.4077  1.0823  0.3021
31995SOL     OW97991   0.763   5.324   6.123 -0.3207  0.9032 -0.2084
31995SOL    HW197992   0.727   5.245   6.083 -1.4807  1.3885 -0.1706
31995SOL    HW297993   0.758   5.307   6.217 -0.7295  1.0771 -0.1954
31996SOL     OW97994   5.939   1.959   6.641  0.3148  0.4701 -0.1389
31996SOL    HW197995   5.949   1.958   6.546  1.8301 -0.5726  0.0069
31996SOL    HW297996   5.902   1.873   6.662  0.9759  0.2954  0.3124
31997SOL     OW97997   3.263   4.848   7.480  0.3026  0.1408 -0.0641
31997SOL    HW197998   3.173   4.819   7.465 -0.0023  0.7115  0.6044
31997SOL    HW297999   3.276   4.835   7.574  1.4680 -1.4384 -0.4009
31998SOL     OW98000   5.667   7.627   3.956 -1.0044 -0.5853  0.0245
31998SOL    HW198001   5.687   7.720   3.948 -1.0993 -0.6042 -0.4141
31998SOL    HW298002   5.695   7.605   4.045  0.4999 -0.4909 -0.3874
31999SOL     OW98003   2.543   4.305   3.935  0.0974 -0.0277  0.1043
31999SOL    HW198004   2.563   4.323   4.027 -1.8662  4.0630 -0.0804
31999SOL    HW298005   2.472   4.241   3.939  1.1705 -1.2193  1.2858
32000SOL     OW98006   5.232  10.549   2.923  0.3324  0.1605 -0.4942
32000SOL    HW198007   5.301  10.487   2.944  0.8535  1.1329  0.8299
32000SOL    HW298008   5.277  10.623   2.883  0.3987  1.6085  2.0390
32001SOL     OW98009   8.000   9.183   2.493 -0.1676  0.1303  0.6698
32001SOL    HW198010   8.022   9.245   2.563  1.3748 -1.0810  1.3325
32001SOL    HW298011   7.920   9.140   2.523  0.2324 -0.0564  1.5107
32002SOL     OW98012   4.180   4.697   0.055 -0.2064  0.8257 -0.4837
32002SOL    HW198013   4.216   4.746  -0.018  0.4895 -0.7878 -1.2756
32002SOL    HW298014   4.253   4.688   0.116 -0.9216  2.6276  0.7287
32003SOL     OW98015  11.029   9.887  11.212  0.2810 -0.8428 -0.0114
32003SOL    HW198016  11.119   9.858  11.227  0.5315 -0.3401 -0.4591
32003SOL    HW298017  11.013   9.869  11.119  0.2836 -0.0152 -0.1868
32004SOL     OW98018   3.107   0.753   9.025  0.1714  0.7206 -0.0073
32004SOL    HW198019   3.142   0.671   9.058  1.0598  1.1265  0.0762
32004SOL    HW298020   3.072   0.732   8.939 -1.5628 -0.2056  0.8685
32005SOL     OW98021   1.821  10.482   1.486 -0.3669 -0.1131  0.5956
32005SOL    HW198022   1.800  10.394   1.516  0.1975 -0.0863  1.0974
32005SOL    HW298023   1.820  10.477   1.391 -0.5507 -0.6061  0.6231
32006SOL     OW98024   1.718   2.512   4.670  0.3483 -0.4089  1.0117
32006SOL    HW198025   1.751   2.548   4.588 -0.2343 -0.6008  0.6848
32006SOL    HW298026   1.760   2.427   4.679  0.2482 -0.4807  0.8005
32007SOL     OW98027   3.503  10.556   3.377  0.2062 -0.0977 -0.2187
32007SOL    HW198028   3.542  10.517   3.455  0.1122  2.5321  1.2364
32007SOL    HW298029   3.567  10.538   3.307  0.4731 -2.1597  0.4783
32008SOL     OW98030  10.745   0.067   4.281  0.5202 -0.3332  0.2033
32008SOL    HW198031  10.788  -0.004   4.329  1.1191  0.2474  0.5447
32008SOL    HW298032  10.793   0.146   4.307  0.5796  0.0555 -1.0117
32009SOL     OW98033   8.869   3.376   1.585 -0.2554  0.9984 -0.0990
32009SOL    HW198034   8.853   3.309   1.651 -1.4042  1.7156  0.3799
32009SOL    HW298035   8.850   3.333   1.502 -0.5651  0.6034  0.1731
32010SOL     OW98036   7.771   0.220   7.309  0.1762  0.5841 -0.9817
32010SOL    HW198037   7.745   0.268   7.388 -2.0288  0.4095 -1.5377
32010SOL    HW298038   7.826   0.148   7.341  0.5190  1.3702  0.2299
32011SOL     OW98039   7.298   4.961   1.010  0.4625 -0.1218  0.0646
32011SOL    HW198040   7.289   4.990   1.101 -0.5531 -1.1853  0.3254
32011SOL    HW298041   7.237   4.888   1.002 -1.5707  1.6730 -2.2299
32012SOL     OW98042   2.449   8.692   8.637  0.2592  0.2073 -0.6118
32012SOL    HW198043   2.468   8.682   8.730 -0.1017  0.1946 -0.5403
32012SOL    HW298044   2.354   8.686   8.630 -0.0030  3.0059 -0.6253
32013SOL     OW98045   9.426   5.485   9.384 -0.0592 -0.5219  0.6598
32013SOL    HW198046   9.349   5.527   9.422 -0.4846 -0.4143 -0.3047
32013SOL    HW298047   9.394   5.401   9.352  0.0764 -0.2130 -0.3088
32014SOL     OW98048   6.127   8.942   1.957 -0.9074  0.0133 -0.4917
32014SOL    HW198049   6.105   8.984   1.873  1.1850  0.1395 -1.0202
32014SOL    HW298050   6.162   8.857   1.932 -0.8074 -0.1782  0.3028
32015SOL     OW98051   8.720   5.722   1.388 -0.2279  0.1051  0.1550
32015SOL    HW198052   8.762   5.754   1.308 -0.6558  1.1528  0.3301
32015SOL    HW298053   8.793   5.710   1.449 -0.0233  0.4550 -0.0163
32016SOL     OW98054   5.424   4.045   9.373 -0.2095  0.0980 -0.3433
32016SOL    HW198055   5.381   3.962   9.391  0.5438  0.1913  2.2805
32016SOL    HW298056   5.390   4.072   9.288 -1.3896 -2.2829 -0.6992
32017SOL     OW98057   6.167   1.077   6.437  0.0549 -0.6911  0.6593
32017SOL    HW198058   6.164   1.102   6.344 -1.9168 -0.3481  0.7794
32017SOL    HW298059   6.104   1.005   6.444  0.0163 -0.5544  1.7865
32018SOL     OW98060  11.244  10.240   2.332  0.0242 -0.1514  0.2620
32018SOL    HW198061  11.223  10.332   2.347 -1.2500 -0.4279  0.2962
32018SOL    HW298062  11.220  10.224   2.240  1.8148 -0.0524 -0.2596
32019SOL     OW98063   0.757  10.023   7.617 -0.1254 -0.1595  0.8311
32019SOL    HW198064   0.846  10.016   7.651  0.1631 -0.0961  0.1069
32019SOL    HW298065   0.705   9.965   7.672  0.3845 -0.2653  1.2020
32020SOL     OW98066   1.276   1.503   8.096 -0.4240 -0.4301 -0.1952
32020SOL    HW198067   1.222   1.461   8.029  0.8510 -0.9154 -0.9528
32020SOL    HW298068   1.224   1.496   8.176 -0.8062 -2.3052 -0.5669
32021SOL     OW98069   3.755   8.623   8.914  0.0476 -0.2807  0.2048
32021SOL    HW198070   3.818   8.571   8.864  0.7780 -0.6572  1.4704
32021SOL    HW298071   3.757   8.586   9.002  0.9300  2.1082  1.2902
32022SOL     OW98072   0.792   2.273   9.641  0.0812 -0.3323 -0.0428
32022SOL    HW198073   0.796   2.303   9.731  0.0171 -2.1669  0.6156
32022SOL    HW298074   0.874   2.305   9.601 -0.6878  2.0189  0.0907
32023SOL     OW98075   7.443  10.334   6.572 -0.5895 -0.0143 -0.3166
32023SOL    HW198076   7.423  10.251   6.528 -0.9801 -0.3874  0.5470
32023SOL    HW298077   7.509  10.311   6.637 -1.7472  0.0555  0.9214
32024SOL     OW98078   1.091  10.642   4.428 -0.3907  0.1976 -0.1563
32024SOL    HW198079   1.025  10.683   4.372 -3.3224 -0.9247  2.1700
32024SOL    HW298080   1.172  10.690   4.409 -2.2635  3.0162 -1.8152
32025SOL     OW98081   3.270   3.540   4.621 -0.4178  0.1472  0.0563
32025SOL    HW198082   3.334   3.481   4.661 -1.7672 -0.8803  0.7954
32025SOL    HW298083   3.318   3.584   4.551  1.4438  0.4558  1.4695
32026SOL     OW98084   7.410   2.597   4.342  0.2970 -0.2285 -0.3388
32026SOL    HW198085   7.481   2.593   4.278  1.0680  0.5708  0.4279
32026SOL    HW298086   7.375   2.508   4.345  1.3139 -0.6565 -0.6915
32027SOL     OW98087   4.833   0.001   4.752 -0.3011 -0.1122  0.4849
32027SOL    HW198088   4.899  -0.065   4.733 -0.6990 -0.0857 -1.1005
32027SOL    HW298089   4.806   0.034   4.667 -2.1701  0.0625  1.0952
32028SOL     OW98090   4.690   9.920   8.320 -0.0837  0.3232 -0.8471
32028SOL    HW198091   4.702   9.844   8.263 -0.4556  0.0706 -0.5997
32028SOL    HW298092   4.692   9.884   8.409 -4.6444 -0.2240 -0.6848
32029SOL     OW98093   3.378   1.425   6.127 -0.3726 -0.9853 -0.8115
32029SOL    HW198094   3.355   1.387   6.212  0.5302 -0.7183 -0.4325
32029SOL    HW298095   3.429   1.503   6.149  0.7376 -1.4712 -1.5957
32030SOL     OW98096   1.497   5.080   0.552  0.1543  0.0173  0.3603
32030SOL    HW198097   1.421   5.040   0.594  1.4558 -0.1719  2.6558
32030SOL    HW298098   1.552   5.109   0.624  0.4793  3.7805 -1.2056
32031SOL     OW98099   1.402  11.085   8.745  0.4766  0.5391 -0.3298
32031SOL    HW198100   1.322  11.066   8.795  0.3867  2.5268  0.3591
32031SOL    HW298101   1.437  11.164   8.785  0.7379  1.9027 -3.0396
32032SOL     OW98102   0.831   2.202   0.708  0.3959 -0.9786  0.5815
32032SOL    HW198103   0.908   2.228   0.658 -0.6345  1.8778  0.2902
32032SOL    HW298104   0.861   2.129   0.763  2.4719 -1.8834 -1.6076
32033SOL     OW98105   0.851   0.157   7.833  0.2630  0.1359 -0.1991
32033SOL    HW198106   0.912   0.112   7.892 -1.1277 -1.0299  0.4301
32033SOL    HW298107   0.906   0.216   7.782  1.7342  0.0483  1.1914
32034SOL     OW98108   8.779   6.032  10.582 -0.1859 -0.4465 -0.2213
32034SOL    HW198109   8.787   5.956  10.524  1.0096  0.8912 -1.9388
32034SOL    HW298110   8.690   6.028  10.616 -1.2377 -0.9122 -2.8021
32035SOL     OW98111   1.404   6.299   3.405 -0.7111 -0.3438  0.3292
32035SOL    HW198112   1.456   6.285   3.484 -0.1462 -0.1838 -0.0137
32035SOL    HW298113   1.333   6.357   3.434  0.4010  1.0543  0.3840
32036SOL     OW98114   9.215   4.256   6.622 -0.0352  0.3210 -0.0540
32036SOL    HW198115   9.297   4.230   6.664 -0.9217 -1.1361  0.8603
32036SOL    HW298116   9.237   4.268   6.530  1.5000  1.4398  0.4307
32037SOL     OW98117   2.243   1.649   3.367 -0.2202  0.5450 -0.2431
32037SOL    HW198118   2.248   1.716   3.436 -5.1299  0.9519  0.0349
32037SOL    HW298119   2.226   1.698   3.287 -1.7204 -0.2138 -0.4193
32038SOL     OW98120  10.965   9.917   8.185  0.2885 -0.5482 -0.1695
32038SOL    HW198121  11.000   9.947   8.270  1.9510 -1.0300 -0.6440
32038SOL    HW298122  10.973   9.994   8.128 -0.1679 -0.4341 -0.0851
32039SOL     OW98123  10.114   0.912  10.305 -0.4430 -0.6803  0.0381
32039SOL    HW198124  10.045   0.869  10.254 -1.4491 -0.3006  1.0415
32039SOL    HW298125  10.187   0.922  10.243 -2.1203  1.1537 -1.7978
32040SOL     OW98126   1.115   6.269   3.546 -0.4535 -0.2091 -0.3349
32040SOL    HW198127   1.040   6.231   3.592 -0.9859  0.5198 -0.5816
32040SOL    HW298128   1.191   6.228   3.587 -0.9981 -1.5839 -0.6377
32041SOL     OW98129   2.109   9.249   7.482  0.2463  0.5722 -0.0991
32041SOL    HW198130   2.021   9.214   7.494  0.1385  0.4701 -1.0829
32041SOL    HW298131   2.163   9.199   7.542 -0.3389  0.5346  0.4083
32042SOL     OW98132   1.610   7.341   1.066 -0.3205 -0.0868 -0.4575
32042SOL    HW198133   1.521   7.376   1.061  0.6882  2.8699  0.2089
32042SOL    HW298134   1.662   7.413   1.102  1.9223 -2.5602  1.6477
32043SOL     OW98135   4.078   0.501   7.256 -0.7204 -0.1322  0.0231
32043SOL    HW198136   4.017   0.449   7.204  0.5477 -0.0841 -1.6159
32043SOL    HW298137   4.159   0.450   7.258 -0.4012  0.3899  0.9937
32044SOL     OW98138   9.355   9.567  10.371 -0.0022 -0.0643  0.7969
32044SOL    HW198139   9.301   9.646  10.383 -0.9425 -0.5918  0.1385
32044SOL    HW298140   9.422   9.594  10.308 -1.4080 -0.2658 -0.8620
32045SOL     OW98141   1.118   6.803   5.396 -0.1728 -0.2730  0.1162
32045SOL    HW198142   1.065   6.766   5.467  0.0242  1.6084  1.3029
32045SOL    HW298143   1.103   6.745   5.322  2.3587 -4.6056  2.5407
32046SOL     OW98144   8.798  10.270   4.821 -0.1390  0.4805 -0.4701
32046SOL    HW198145   8.709  10.234   4.812  0.4148 -0.8814 -0.6906
32046SOL    HW298146   8.838  10.218   4.891  0.4713  1.1405 -0.3179
32047SOL     OW98147   9.489   6.472   9.462 -0.2807  0.8717 -1.0463
32047SOL    HW198148   9.473   6.452   9.554 -1.1273  1.4657 -1.0550
32047SOL    HW298149   9.570   6.523   9.463 -0.8276  1.7683 -0.5045
32048SOL     OW98150   1.753   0.435   2.400 -0.1111 -0.2066  0.0146
32048SOL    HW198151   1.695   0.375   2.447  0.8355 -0.9871  0.2056
32048SOL    HW298152   1.694   0.502   2.365 -0.9179  0.1182  1.8452
32049SOL     OW98153  10.884   1.687   7.981 -0.1983  0.1516 -0.1175
32049SOL    HW198154  10.932   1.695   8.063  0.9349 -1.8981 -0.4975
32049SOL    HW298155  10.938   1.627   7.928 -1.7553  0.0661 -1.6855
32050SOL     OW98156   8.164   5.662   8.702  0.1973 -0.0898  0.7202
32050SOL    HW198157   8.121   5.730   8.651  0.4057 -0.9660 -0.6803
32050SOL    HW298158   8.244   5.642   8.653 -0.5161 -2.2668  0.3165
32051SOL     OW98159   9.221   1.448   5.941 -0.2987 -0.8067 -0.3052
32051SOL    HW198160   9.134   1.425   5.974 -0.7610 -1.3375 -1.8202
32051SOL    HW298161   9.207   1.467   5.848  0.2155  4.5448  0.3851
32052SOL     OW98162   5.184   3.835   1.253 -0.3391 -0.3216  0.5203
32052SOL    HW198163   5.214   3.840   1.344 -2.5803 -0.5052  1.3353
32052SOL    HW298164   5.128   3.912   1.243  1.1378  0.5866 -1.2544
32053SOL     OW98165   2.215   7.673   5.970 -0.4356 -0.4310  0.1028
32053SOL    HW198166   2.211   7.692   5.876  1.1401  0.6870  0.2205
32053SOL    HW298167   2.304   7.640   5.984  0.4150  2.2514  1.6399
32054SOL     OW98168   2.465   7.691   4.307 -0.2846 -0.3056  0.9104
32054SOL    HW198169   2.406   7.640   4.363 -2.3806  0.9443 -0.0105
32054SOL    HW298170   2.470   7.777   4.349 -1.7404  0.5914 -0.6195
32055SOL     OW98171   8.481   1.524   4.619 -0.1539 -0.1224 -0.3498
32055SOL    HW198172   8.563   1.525   4.571 -1.4591  1.2570 -2.7131
32055SOL    HW298173   8.452   1.433   4.614 -0.1923 -0.0496 -2.1837
32056SOL     OW98174   0.819   0.863   5.520  0.6789  0.5974  0.2549
32056SOL    HW198175   0.819   0.947   5.473  2.3480 -1.0059 -2.9251
32056SOL    HW298176   0.729   0.853   5.551 -0.6490  1.7866 -2.7768
32057SOL     OW98177   4.336   5.592   6.978  0.1488  0.0678  0.8023
32057SOL    HW198178   4.417   5.625   7.016 -0.0001 -1.5503  2.6952
32057SOL    HW298179   4.276   5.585   7.052 -0.9836 -0.9264 -0.1574
32058SOL     OW98180   8.068   2.786   3.980 -0.0053 -0.5082  0.2083
32058SOL    HW198181   8.065   2.719   4.047  1.1397 -1.1648 -0.3661
32058SOL    HW298182   8.064   2.869   4.028  1.5417 -0.9467  1.1488
32059SOL     OW98183  10.367   9.613   6.273  0.1258  0.2539  0.6883
32059SOL    HW198184  10.389   9.663   6.352  3.5279  0.4653 -0.2467
32059SOL    HW298185  10.364   9.679   6.203 -1.1143 -0.1767  0.2948
32060SOL     OW98186  10.568   3.269   1.228 -0.4317 -0.0921 -0.0105
32060SOL    HW198187  10.638   3.214   1.263  1.1696  2.9862  2.0472
32060SOL    HW298188  10.492   3.212   1.224  1.3414 -2.6962  0.9627
32061SOL     OW98189   9.778   2.032   2.801 -0.4911  0.0636  0.0876
32061SOL    HW198190   9.793   2.112   2.750  1.4916 -0.2684  0.0508
32061SOL    HW298191   9.784   1.961   2.737  0.8041 -0.2788  0.5625
32062SOL     OW98192   6.782   6.414   9.822  0.2700 -0.5670  0.1850
32062SOL    HW198193   6.818   6.501   9.810 -3.2521  0.9422 -0.7657
32062SOL    HW298194   6.758   6.385   9.734 -1.5163 -1.0632  0.7837
32063SOL     OW98195   0.640   1.753   4.268 -0.5167  0.0836  0.2961
32063SOL    HW198196   0.554   1.787   4.244 -0.1252  0.2990 -0.8623
32063SOL    HW298197   0.677   1.719   4.186  0.5616  0.1379  0.7345
32064SOL     OW98198   8.411   5.268   7.976 -0.4315  0.7201 -0.9877
32064SOL    HW198199   8.417   5.295   7.885 -0.5858  1.7026 -0.7131
32064SOL    HW298200   8.496   5.228   7.995  0.5341  2.7070 -0.8772
32065SOL     OW98201   2.153   9.320   8.295  0.4318  0.0821 -0.2813
32065SOL    HW198202   2.126   9.322   8.203  0.2069 -2.2391 -0.3216
32065SOL    HW298203   2.189   9.232   8.308  0.1878  0.2443  1.9165
32066SOL     OW98204   8.925   7.674   6.888  0.2052 -0.0134  0.4087
32066SOL    HW198205   8.918   7.584   6.855  1.7938 -0.6787  1.7387
32066SOL    HW298206   8.850   7.683   6.948  1.1036 -1.1872  1.7810
32067SOL     OW98207   3.411   7.615   4.754 -0.1300 -0.4210 -0.1923
32067SOL    HW198208   3.344   7.625   4.687  0.7920 -2.3886 -1.5017
32067SOL    HW298209   3.493   7.611   4.705  0.6789 -0.8537  1.1518
32068SOL     OW98210   4.014   9.715  10.385  0.4934 -0.1999 -0.3860
32068SOL    HW198211   4.074   9.656  10.340 -0.8613 -1.6752 -0.3202
32068SOL    HW298212   3.937   9.662  10.406  0.1534  0.9951  1.7226
32069SOL     OW98213   2.308   8.727   8.313 -0.3376 -0.1788 -0.0364
32069SOL    HW198214   2.291   8.704   8.404 -2.7222  0.2611 -0.2866
32069SOL    HW298215   2.322   8.644   8.268 -1.5077 -0.5936  0.3421
32070SOL     OW98216   0.341   1.879   6.528  0.1376  0.4949  0.3588
32070SOL    HW198217   0.263   1.884   6.472 -0.5260 -0.0141  1.2190
32070SOL    HW298218   0.408   1.838   6.472 -1.0491 -1.7227  0.4727
32071SOL     OW98219  10.023   3.718   1.478 -0.2388  0.1522 -0.1295
32071SOL    HW198220  10.110   3.706   1.442 -0.6372  0.7878 -1.3743
32071SOL    HW298221   9.982   3.783   1.421 -1.6198 -0.3430  0.2480
32072SOL     OW98222   2.089   4.174   8.818  0.2507 -0.5164 -0.0728
32072SOL    HW198223   2.069   4.267   8.813  1.1714 -0.2293  1.0944
32072SOL    HW298224   2.148   4.158   8.744 -0.1543 -0.2419 -0.4558
32073SOL     OW98225   7.478   8.487   8.749  0.1899 -0.0596 -0.4526
32073SOL    HW198226   7.385   8.510   8.751 -0.0670 -1.1022  0.0885
32073SOL    HW298227   7.479   8.391   8.751  1.2487 -0.1026 -1.7047
32074SOL     OW98228   9.909   8.387   1.469 -0.1013  1.0032 -0.2251
32074SOL    HW198229   9.876   8.431   1.390 -1.7560 -0.5260 -0.4494
32074SOL    HW298230   9.863   8.430   1.541  0.0907  1.2318 -0.2374
32075SOL     OW98231   4.600   8.663   1.358  0.5146  0.0343  0.7112
32075SOL    HW198232   4.532   8.631   1.419 -1.8194 -0.0977 -1.7870
32075SOL    HW298233   4.585   8.757   1.352 -0.8392 -0.2656 -1.3521
32076SOL     OW98234   3.035   4.522   4.418  0.0795  0.0146  0.5063
32076SOL    HW198235   3.106   4.556   4.363  0.6519 -1.9612 -0.0526
32076SOL    HW298236   3.027   4.586   4.489  2.2798  0.4152  0.4640
32077SOL     OW98237   7.407   3.386   5.612  0.1689  0.0325 -0.2899
32077SOL    HW198238   7.350   3.431   5.550 -0.3110 -0.6561 -0.3580
32077SOL    HW298239   7.441   3.456   5.668 -1.1489  0.4138  0.0791
32078SOL     OW98240  10.493  10.994  10.018  0.2140 -0.0590 -0.0181
32078SOL    HW198241  10.546  10.916  10.028  1.2269  0.5422 -0.5560
32078SOL    HW298242  10.486  11.006   9.923  0.5142  0.7968  0.0642
32079SOL     OW98243   3.656   9.749   5.160 -0.2148  0.3356 -0.0659
32079SOL    HW198244   3.611   9.799   5.229 -0.3225 -0.6027  0.5553
32079SOL    HW298245   3.706   9.683   5.207 -1.0961 -0.9779 -0.9185
32080SOL     OW98246   0.509   9.286   1.156  0.1861 -0.3946 -0.2563
32080SOL    HW198247   0.461   9.276   1.074  0.5805 -2.2413 -0.2962
32080SOL    HW298248   0.449   9.334   1.213 -1.4932 -2.0458 -0.5238
32081SOL     OW98249   8.730   4.498   2.604 -0.1908  0.4797  0.2900
32081SOL    HW198250   8.691   4.421   2.562  0.8986 -0.2495  0.5815
32081SOL    HW298251   8.823   4.479   2.608 -0.1083  1.0393  1.9400
32082SOL     OW98252   7.452   1.680   5.356  0.1550  0.5621 -0.3841
32082SOL    HW198253   7.514   1.699   5.285 -0.0696 -1.8921 -1.3214
32082SOL    HW298254   7.461   1.586   5.371 -1.3296  0.6577  1.4363
32083SOL     OW98255   9.956   7.557   0.127  0.0529 -0.3160 -0.2402
32083SOL    HW198256   9.995   7.470   0.133 -0.1052 -0.7138 -3.5422
32083SOL    HW298257   9.870   7.543   0.088 -0.0925  1.2863 -0.5702
32084SOL     OW98258   0.736  10.767   6.594  0.3326 -0.1810 -0.7245
32084SOL    HW198259   0.796  10.698   6.623  0.4871 -0.8131 -2.4043
32084SOL    HW298260   0.679  10.784   6.669  0.0141 -2.4483 -0.3995
32085SOL     OW98261  10.526   6.027   3.999  0.4421  0.4535 -0.9730
32085SOL    HW198262  10.468   6.098   4.028  1.8758  1.5219 -0.6168
32085SOL    HW298263  10.506   6.016   3.906 -0.1266  0.9883 -0.9179
32086SOL     OW98264  11.046  10.907   1.480  0.2502 -0.2493 -0.2208
32086SOL    HW198265  10.963  10.917   1.528 -0.0283 -1.0674 -0.5255
32086SOL    HW298266  11.037  10.824   1.433  0.2335  0.8390 -2.2656
32087SOL     OW98267   1.468   0.739   1.020  0.4302 -0.0507 -0.0775
32087SOL    HW198268   1.417   0.819   1.033 -1.8155 -1.1427 -1.4458
32087SOL    HW298269   1.552   0.757   1.062 -0.8779  2.0496  1.9000
32088SOL     OW98270   5.395   8.166   7.779 -0.0404 -0.1683  0.0859
32088SOL    HW198271   5.319   8.189   7.833 -0.5100  0.2147 -0.7115
32088SOL    HW298272   5.441   8.249   7.767 -0.6218 -0.0032 -1.1160
32089SOL     OW98273  10.792   8.279   4.838 -0.4866 -0.1014 -0.2624
32089SOL    HW198274  10.699   8.302   4.845 -0.2894  0.9612 -0.9069
32089SOL    HW298275  10.818   8.310   4.751  0.6227  0.1747  0.1506
32090SOL     OW98276   1.445   5.405   1.604  0.5379 -0.4368  0.1761
32090SOL    HW198277   1.446   5.497   1.631 -1.3427 -0.3968  0.2714
32090SOL    HW298278   1.537   5.378   1.608  1.3133  1.7381 -0.9711
32091SOL     OW98279   3.166   7.896   1.538 -0.2832  0.0599  0.1215
32091SOL    HW198280   3.195   7.844   1.463 -2.2242 -0.1879 -0.5055
32091SOL    HW298281   3.116   7.836   1.592 -0.2774  0.6395  0.7969
32092SOL     OW98282  10.317   1.500   3.322 -0.3184 -0.1463  0.1888
32092SOL    HW198283  10.320   1.583   3.370  2.1172 -1.1234  1.9696
32092SOL    HW298284  10.304   1.434   3.390  1.5733 -1.4635 -0.6513
32093SOL     OW98285   7.264   2.552   6.840  0.4085 -0.0419  0.8221
32093SOL    HW198286   7.315   2.474   6.816  2.0288  1.4389 -0.8781
32093SOL    HW298287   7.330   2.615   6.869 -0.7509  1.0533  1.1567
32094SOL     OW98288   1.032   6.116   9.323 -0.5592  0.1531 -0.1256
32094SOL    HW198289   1.103   6.143   9.382 -2.3301  1.4630  1.5111
32094SOL    HW298290   1.031   6.021   9.329 -0.1557  0.2134  1.3181
32095SOL     OW98291   5.571   5.386   3.988  0.7119  0.0554  0.3072
32095SOL    HW198292   5.607   5.399   3.900  1.0343 -0.1379  0.4080
32095SOL    HW298293   5.545   5.473   4.017 -0.3916 -0.0230 -0.4027
32096SOL     OW98294   2.215   5.657   7.745 -0.2558 -0.1805  0.5168
32096SOL    HW198295   2.135   5.701   7.716 -0.3969  0.8773  2.3737
32096SOL    HW298296   2.225   5.682   7.837  2.2910 -0.1605  0.3094
32097SOL     OW98297   0.811  10.035   4.144 -0.3810 -0.3387  0.1459
32097SOL    HW198298   0.776  10.057   4.058 -1.3531 -0.1940  0.5705
32097SOL    HW298299   0.757   9.962   4.174 -1.3589  0.8824  1.4726
32098SOL     OW98300   2.185   6.363   9.794  0.3234  0.0093  0.2126
32098SOL    HW198301   2.250   6.429   9.815  0.2009  0.3502 -0.4597
32098SOL    HW298302   2.200   6.343   9.702  0.5773 -1.1464  0.4834
32099SOL     OW98303   6.371  11.012   4.819 -0.0468  0.1442  0.7796
32099SOL    HW198304   6.338  10.996   4.730  2.6109 -1.6691 -0.0080
32099SOL    HW298305   6.336  11.098   4.842 -0.3924  0.9546 -2.2654
32100SOL     OW98306   8.171   9.383   3.840  0.4972  0.3466 -0.3939
32100SOL    HW198307   8.147   9.291   3.849 -0.5680  0.6291 -0.2689
32100SOL    HW298308   8.088   9.430   3.840  0.8318  1.1056 -3.0760
32101SOL     OW98309  10.644  10.816   4.901  0.1836 -0.0333 -0.0300
32101SOL    HW198310  10.664  10.909   4.913  1.3622 -0.1085 -1.1256
32101SOL    HW298311  10.570  10.815   4.840 -0.6906  0.1954  1.0125
32102SOL     OW98312   8.982   5.690   4.416  0.1179 -0.7413 -0.7763
32102SOL    HW198313   9.037   5.645   4.352  2.2581 -0.7686  0.9884
32102SOL    HW298314   8.977   5.780   4.383 -2.7030 -1.6466 -3.3528
32103SOL     OW98315   3.972   3.566  10.143  0.3987  0.3828 -0.0130
32103SOL    HW198316   3.908   3.537  10.208 -0.4392 -0.7768 -1.2905
32103SOL    HW298317   4.023   3.488  10.122  0.5024  0.6751 -0.9034
32104SOL     OW98318   7.323   3.572   1.595 -0.7363 -0.6091  0.6503
32104SOL    HW198319   7.291   3.583   1.685  2.8158 -1.7148  2.2453
32104SOL    HW298320   7.270   3.501   1.559 -2.1527 -0.2352  1.9211
32105SOL     OW98321   9.550   1.003   0.257  0.3477  0.9561 -0.4415
32105SOL    HW198322   9.646   1.006   0.259  0.3944  0.4810 -1.2107
32105SOL    HW298323   9.527   0.936   0.322  0.5701  0.7311 -0.5894
32106SOL     OW98324   4.616   5.322   5.769  0.0035 -0.6631  0.3737
32106SOL    HW198325   4.603   5.268   5.848 -0.0697 -1.9508 -0.4835
32106SOL    HW298326   4.592   5.264   5.697  0.7885  0.2573 -0.6526
32107SOL     OW98327   2.511   8.138   8.528 -0.1589 -0.0966 -0.1408
32107SOL    HW198328   2.475   8.050   8.544 -0.3622 -0.2035 -1.0944
32107SOL    HW298329   2.455   8.174   8.459  0.2740  0.5672 -0.1538
32108SOL     OW98330  10.431   3.621   5.560  0.7763  0.0334  0.0419
32108SOL    HW198331  10.453   3.634   5.652  0.5546  1.0722 -0.0417
32108SOL    HW298332  10.346   3.576   5.562  0.6045  0.3709  0.3396
32109SOL     OW98333   0.720   7.447   4.248  0.2442  0.8881  0.0551
32109SOL    HW198334   0.723   7.365   4.198 -1.0629  1.0626 -0.3338
32109SOL    HW298335   0.806   7.487   4.233  0.0776  0.6960 -1.6320
32110SOL     OW98336   0.160   0.313   3.119 -0.6535  0.4964 -0.2961
32110SOL    HW198337   0.219   0.252   3.075 -2.7861 -0.7794 -1.5591
32110SOL    HW298338   0.183   0.305   3.212  0.6610 -0.4879 -0.6701
32111SOL     OW98339   4.210  10.188   2.888 -0.2296  0.6967  0.5430
32111SOL    HW198340   4.159  10.206   2.966 -0.3931  0.1927  0.5576
32111SOL    HW298341   4.151  10.209   2.815  0.0658  1.5631  0.5506
32112SOL     OW98342   7.947   6.683   9.889  0.4319  0.0591  0.2620
32112SOL    HW198343   8.018   6.620   9.901 -0.5804 -1.4356 -1.1669
32112SOL    HW298344   7.926   6.678   9.796 -2.3787 -0.5225  0.8326
32113SOL     OW98345   0.994   7.186   4.654 -0.2218  0.7138  0.7464
32113SOL    HW198346   1.053   7.192   4.729  3.7010 -2.4929 -1.6396
32113SOL    HW298347   1.022   7.257   4.596  0.3284  0.1256  0.2679
32114SOL     OW98348   2.154   8.722   8.692 -0.0913 -0.3526 -0.5399
32114SOL    HW198349   2.130   8.634   8.661  1.5041 -0.7224 -0.8272
32114SOL    HW298350   2.138   8.778   8.616 -1.2929 -0.3435 -0.2995
32115SOL     OW98351   8.721   7.759   5.359 -0.1300 -0.1010 -0.8106
32115SOL    HW198352   8.650   7.809   5.398 -0.5850 -0.1490 -1.5635
32115SOL    HW298353   8.719   7.675   5.404 -0.7393 -0.2039 -1.0180
32116SOL     OW98354   1.017   3.253   6.672 -0.2296  0.2984  0.8500
32116SOL    HW198355   1.055   3.289   6.753  0.5699 -1.5758  1.3679
32116SOL    HW298356   0.929   3.225   6.698 -0.8882  1.8769  0.4227
32117SOL     OW98357   1.594   3.171   2.235  0.5280 -0.5596  0.3257
32117SOL    HW198358   1.525   3.206   2.180  1.8642 -0.2104 -1.1923
32117SOL    HW298359   1.652   3.124   2.175  2.8291  1.0463  1.1663
32118SOL     OW98360   0.528   6.084   3.640  0.7281 -0.4519  0.2845
32118SOL    HW198361   0.577   6.161   3.669 -0.0708  0.4294 -0.6772
32118SOL    HW298362   0.445   6.090   3.687 -0.0289  0.2437 -1.0881
32119SOL     OW98363   5.418   2.487   3.010  0.0125  0.5649  0.0265
32119SOL    HW198364   5.378   2.455   3.091 -0.8719 -3.6512 -1.7913
32119SOL    HW298365   5.512   2.479   3.026 -0.1025  1.0510  1.0600
32120SOL     OW98366   0.058  10.394   8.451 -0.0472 -0.0610 -0.0229
32120SOL    HW198367   0.027  10.309   8.482  0.6222 -1.3259 -2.5685
32120SOL    HW298368   0.133  10.373   8.395  3.1400  2.5400  2.7781
32121SOL     OW98369   9.878   8.623   4.837  0.1766  0.0642 -0.6521
32121SOL    HW198370   9.844   8.534   4.840  0.2579  0.0214 -1.0509
32121SOL    HW298371   9.857   8.654   4.749  1.7692 -0.1903 -1.1343
32122SOL     OW98372   2.679   3.939   1.000  0.1112 -0.7262 -0.3307
32122SOL    HW198373   2.694   3.873   1.068  1.9006  0.7958  0.8437
32122SOL    HW298374   2.680   3.890   0.918  1.2243 -2.1842  0.5155
32123SOL     OW98375   8.199   6.040   7.620 -0.0770  0.8651  0.2208
32123SOL    HW198376   8.104   6.029   7.616  0.0634 -0.1173 -0.6215
32123SOL    HW298377   8.211   6.135   7.629 -1.1158  1.1294 -0.8908
32124SOL     OW98378   1.699   0.549   6.802  0.0769 -0.2297 -0.3660
32124SOL    HW198379   1.723   0.552   6.709 -0.6733 -0.1152 -0.5585
32124SOL    HW298380   1.727   0.634   6.836 -1.1331  0.3843 -0.8627
32125SOL     OW98381   9.713  11.116   0.623  0.5621  0.6763  0.2410
32125SOL    HW198382   9.681  11.184   0.683 -1.9191  1.2279 -1.5195
32125SOL    HW298383   9.666  11.134   0.541  0.3780 -2.7283 -0.5230
32126SOL     OW98384  10.226   9.217   0.437 -0.0530  0.6129 -0.3853
32126SOL    HW198385  10.283   9.260   0.501  0.5686 -0.4226 -0.2120
32126SOL    HW298386  10.260   9.245   0.352 -0.0786  0.9908 -0.2706
32127SOL     OW98387   7.625   5.813   8.323 -0.0097  0.1787 -0.6385
32127SOL    HW198388   7.534   5.800   8.297 -0.0484 -0.6226 -0.1341
32127SOL    HW298389   7.644   5.904   8.301 -1.3437  0.7547  0.4832
32128SOL     OW98390   6.707   1.480   7.482  0.2233 -0.1981 -0.1242
32128SOL    HW198391   6.680   1.400   7.437 -1.4792 -0.1085  0.6302
32128SOL    HW298392   6.624   1.521   7.508  1.0874  1.3158  0.3576
32129SOL     OW98393   3.301   0.043  10.271  0.0676 -0.4623  0.2734
32129SOL    HW198394   3.243   0.068  10.343 -1.0712 -0.2534 -0.6711
32129SOL    HW298395   3.310  -0.052  10.279  1.3912 -0.2444  1.7019
32130SOL     OW98396  10.237   3.903   4.553  0.6838 -0.1151 -0.3421
32130SOL    HW198397  10.326   3.872   4.536  0.9613  0.0252  0.7443
32130SOL    HW298398  10.181   3.828   4.531  1.2192 -0.8398  0.6409
32131SOL     OW98399   2.989   5.371   4.533  0.1196  0.2690 -0.0698
32131SOL    HW198400   3.025   5.351   4.447  1.5211  2.0259  0.0415
32131SOL    HW298401   2.912   5.426   4.515  0.3068  0.4874 -0.1991
32132SOL     OW98402   5.936   4.692   8.695 -0.7108 -0.1729  0.0260
32132SOL    HW198403   5.927   4.763   8.758 -0.7483 -0.5961  0.5046
32132SOL    HW298404   5.910   4.613   8.744  0.7938 -0.7388 -0.0248
32133SOL     OW98405   2.591   4.551   0.674 -0.2517  0.0015 -0.8086
32133SOL    HW198406   2.674   4.576   0.714 -0.1831 -0.1786 -0.8361
32133SOL    HW298407   2.615   4.493   0.602 -0.4737 -1.7150  0.4217
32134SOL     OW98408   7.722  10.136   0.053  0.2698 -0.3710 -0.4581
32134SOL    HW198409   7.758  10.050   0.075 -1.0240 -0.6435  0.7321
32134SOL    HW298410   7.799  10.194   0.049  1.0935 -1.4491 -0.6990
32135SOL     OW98411   2.556  11.137   9.059 -0.2350 -0.2500  0.0015
32135SOL    HW198412   2.572  11.202   9.127 -0.5152 -0.6275  0.4327
32135SOL    HW298413   2.476  11.093   9.087 -0.6906 -0.0097 -0.8780
32136SOL     OW98414   8.146   4.484   4.505 -0.2115  0.1785  0.1058
32136SOL    HW198415   8.071   4.459   4.559  0.1760 -0.3568  0.4036
32136SOL    HW298416   8.222   4.471   4.562  0.4387 -2.6164 -1.2681
32137SOL     OW98417   2.225   2.844   7.599  0.1008  0.7907 -0.3871
32137SOL    HW198418   2.265   2.867   7.683 -0.5739 -0.7174  0.3828
32137SOL    HW298419   2.133   2.829   7.620  0.0680 -0.2933 -1.2626
32138SOL     OW98420   1.722   5.550   6.805  0.2490  0.1501  0.1324
32138SOL    HW198421   1.652   5.538   6.870  0.3494 -0.4787  0.1351
32138SOL    HW298422   1.801   5.519   6.849  0.3111 -0.3247 -0.2946
32139SOL     OW98423   1.677   8.124   2.378  0.1082 -0.4268 -0.2808
32139SOL    HW198424   1.733   8.189   2.336 -0.1256 -0.5917 -0.8500
32139SOL    HW298425   1.619   8.176   2.434 -0.0698 -0.1470 -0.7211
32140SOL     OW98426   3.858   5.430   2.444  0.1881  0.0440 -0.7147
32140SOL    HW198427   3.798   5.355   2.446  0.5915 -0.2717  0.3249
32140SOL    HW298428   3.921   5.412   2.514  0.9236  0.8417 -1.1527
32141SOL     OW98429   9.505   5.442   3.273  0.2679  0.3384 -0.0624
32141SOL    HW198430   9.447   5.418   3.346 -0.8155 -0.6697 -1.2137
32141SOL    HW298431   9.518   5.360   3.226  1.1510  0.9363 -0.8849
32142SOL     OW98432   0.891   7.093   4.373  0.8124 -0.1649 -0.3122
32142SOL    HW198433   0.870   7.178   4.411  2.6761 -0.5218  1.7040
32142SOL    HW298434   0.936   7.046   4.442  1.2628 -2.2261 -1.8995
32143SOL     OW98435   5.943   1.821   9.369 -0.2574 -0.1339 -0.3431
32143SOL    HW198436   5.970   1.789   9.455  2.7291 -2.3681 -1.9293
32143SOL    HW298437   5.863   1.774   9.350  0.6677 -1.9406  0.0296
32144SOL     OW98438   5.177   4.369   0.990 -0.3068 -0.4439  1.0025
32144SOL    HW198439   5.219   4.424   1.057  1.9054  0.2113 -0.8131
32144SOL    HW298440   5.100   4.420   0.963  1.1532  1.4280  0.0591
32145SOL     OW98441   5.927   5.499   1.691  0.1315 -0.0957  0.3488
32145SOL    HW198442   5.917   5.409   1.723  2.1231 -0.5759 -0.2374
32145SOL    HW298443   5.963   5.547   1.766 -1.1248  0.3028  0.7272
32146SOL     OW98444   6.861   7.925   5.188  0.8618  0.0786 -0.2627
32146SOL    HW198445   6.782   7.876   5.211  1.5020 -0.5551  0.7011
32146SOL    HW298446   6.916   7.861   5.143  0.9022  0.4654 -0.7668
32147SOL     OW98447   0.884   1.649   8.421 -0.2170  0.3690 -0.7751
32147SOL    HW198448   0.795   1.669   8.449 -0.5329 -0.0247 -1.4872
32147SOL    HW298449   0.901   1.711   8.349  0.1921  0.6378 -0.4520
32148SOL     OW98450   6.895   1.250   0.217 -0.1078 -0.2486 -0.5139
32148SOL    HW198451   6.837   1.176   0.229 -1.1021  0.1159 -2.6672
32148SOL    HW298452   6.893   1.296   0.301 -1.5763 -1.1786 -0.0131
32149SOL     OW98453   5.564   7.959  10.733  0.7500  0.1923  0.0100
32149SOL    HW198454   5.519   8.037  10.764  0.9563  0.6681 -0.8565
32149SOL    HW298455   5.614   7.988  10.656  1.8965 -0.4894  0.4601
32150SOL     OW98456  11.201   4.220   6.635  0.7891 -0.7348 -0.1114
32150SOL    HW198457  11.226   4.305   6.671  0.1351  0.3612 -2.1023
32150SOL    HW298458  11.111   4.207   6.665  0.5690 -0.2754 -0.5625
32151SOL     OW98459   8.696   0.969   0.105 -0.9892 -0.0650  0.5735
32151SOL    HW198460   8.672   0.879   0.081 -2.7314  0.1058  1.4876
32151SOL    HW298461   8.791   0.968   0.109 -0.8695 -1.3889 -1.2233
32152SOL     OW98462   4.857   6.181   3.824 -0.3301 -0.6639  1.0507
32152SOL    HW198463   4.872   6.097   3.781 -1.2350  0.4508 -1.6020
32152SOL    HW298464   4.764   6.180   3.847 -0.7258  0.2091 -0.4352
32153SOL     OW98465   7.394   1.693   7.538 -0.3300 -0.0316  0.0998
32153SOL    HW198466   7.325   1.755   7.516  0.0467  0.8427  1.2595
32153SOL    HW298467   7.348   1.620   7.580 -0.5157  0.9443  1.6893
32154SOL     OW98468   9.807   8.374   0.616  0.2037  0.8680  0.1196
32154SOL    HW198469   9.847   8.427   0.546  1.2822 -0.1595 -0.0885
32154SOL    HW298470   9.881   8.349   0.672 -0.5087  0.8708  1.0866
32155SOL     OW98471   5.561   6.652   5.635  0.9030 -0.2021 -0.3137
32155SOL    HW198472   5.566   6.557   5.620 -0.8352 -0.6939  1.6591
32155SOL    HW298473   5.495   6.682   5.573  1.0218 -0.3928 -0.5342
32156SOL     OW98474  11.199   1.955   5.424 -0.1088 -0.1501  0.1433
32156SOL    HW198475  11.115   1.998   5.410  0.0418  0.0221 -0.2599
32156SOL    HW298476  11.179   1.880   5.480 -0.7464 -0.8505 -0.9786
32157SOL     OW98477   9.666   6.695   9.672 -0.0975  0.1144 -0.2224
32157SOL    HW198478   9.583   6.741   9.658 -0.6341 -0.8021 -0.1175
32157SOL    HW298479   9.685   6.707   9.765 -1.1511 -1.3422  0.2093
32158SOL     OW98480   2.480   4.520   5.732  0.6281  0.3285 -0.0121
32158SOL    HW198481   2.491   4.577   5.808  0.6755  0.0133  0.2182
32158SOL    HW298482   2.566   4.518   5.690  0.3114  1.4837 -0.7789
32159SOL     OW98483   0.822   3.844   1.439  0.2352  0.4794 -0.4519
32159SOL    HW198484   0.798   3.815   1.527  0.3858 -0.1565 -0.6128
32159SOL    HW298485   0.752   3.811   1.383  0.5719  0.1543 -0.6832
32160SOL     OW98486  10.235   6.836   2.144  0.1982 -0.5843  0.1210
32160SOL    HW198487  10.281   6.856   2.063 -0.4198 -0.1776 -0.1395
32160SOL    HW298488  10.251   6.743   2.158  1.8726 -0.2491  0.5563
32161SOL     OW98489   8.545   7.933   7.541  0.3499 -0.3689  0.1762
32161SOL    HW198490   8.621   7.987   7.561  2.0017 -2.6490  0.4185
32161SOL    HW298491   8.494   7.933   7.622  0.7077  0.1895  0.4089
32162SOL     OW98492   0.559   1.477   6.439  0.2264 -0.5771 -0.4802
32162SOL    HW198493   0.478   1.427   6.431 -1.2402  1.7344 -0.9962
32162SOL    HW298494   0.578   1.507   6.350  2.1874 -1.7782 -0.5351
32163SOL     OW98495   1.498   1.749   6.035 -0.4707  0.0090  0.1031
32163SOL    HW198496   1.464   1.699   6.109 -1.4548 -0.3636 -0.5804
32163SOL    HW298497   1.593   1.746   6.045 -0.5716 -0.6386  0.9466
32164SOL     OW98498   4.750   7.780   2.965  0.3459  0.0244 -0.3144
32164SOL    HW198499   4.694   7.855   2.946 -1.5397 -1.9207 -3.1705
32164SOL    HW298500   4.799   7.765   2.884  1.8690 -0.9024  0.7212
32165SOL     OW98501  10.434   0.334  10.172 -0.8676 -0.0931  0.5333
32165SOL    HW198502  10.402   0.245  10.156  0.0234 -0.6576  1.7044
32165SOL    HW298503  10.356   0.389  10.168 -1.1468 -0.5565 -2.5448
32166SOL     OW98504   2.237   4.520   5.009  0.8723  0.4649 -0.8894
32166SOL    HW198505   2.205   4.581   4.943  1.0662  0.2652 -1.1713
32166SOL    HW298506   2.159   4.490   5.054  0.8112  1.2725 -0.4322
32167SOL     OW98507   7.054  10.442   9.705 -0.2521 -0.0951  0.3691
32167SOL    HW198508   7.061  10.534   9.730 -0.7684  0.1888 -0.5124
32167SOL    HW298509   7.144  10.410   9.707 -0.0635  0.4352  0.6252
32168SOL     OW98510   9.639   6.727   4.585 -0.6218 -0.8552  0.7634
32168SOL    HW198511   9.662   6.647   4.538 -0.0543 -0.4798  0.3978
32168SOL    HW298512   9.658   6.797   4.524  1.8209 -0.2165  2.1444
32169SOL     OW98513   6.345   6.299  10.411 -0.2465 -0.0907 -0.0386
32169SOL    HW198514   6.422   6.353  10.392 -0.8187  0.6693 -0.2512
32169SOL    HW298515   6.271   6.360  10.405 -0.9009 -0.8888 -0.2165
32170SOL     OW98516   6.819   1.002   0.933  0.7709 -0.3563 -1.0373
32170SOL    HW198517   6.793   1.078   0.881 -2.1786 -0.8446 -0.4506
32170SOL    HW298518   6.738   0.952   0.945  1.6037 -1.1540  2.5373
32171SOL     OW98519   0.285  11.152   3.959 -0.3557  0.2712  0.2513
32171SOL    HW198520   0.235  11.167   4.039  0.0012 -0.2489  0.5774
32171SOL    HW298521   0.227  11.099   3.904  0.1293 -1.0613  0.9690
32172SOL     OW98522   8.421   9.270   9.143  0.4757 -0.5153  0.5005
32172SOL    HW198523   8.381   9.236   9.063 -1.5714  1.2008  0.6849
32172SOL    HW298524   8.371   9.230   9.214 -2.5020  3.0740  0.7154
32173SOL     OW98525   6.755   9.906   1.679 -0.2279 -0.1939  0.4717
32173SOL    HW198526   6.821   9.958   1.724 -2.7820  2.6421  1.2260
32173SOL    HW298527   6.696   9.875   1.749 -0.4896 -1.5502 -0.3018
32174SOL     OW98528   2.721   5.246  10.109  0.0780  0.1101 -0.3772
32174SOL    HW198529   2.775   5.210  10.039  0.8196  1.2208 -0.4088
32174SOL    HW298530   2.777   5.242  10.187 -0.9003 -1.5413  0.2872
32175SOL     OW98531   6.529  10.349   1.934  0.5969 -0.3380 -0.5608
32175SOL    HW198532   6.501  10.264   1.901  1.6071 -0.3554 -1.4385
32175SOL    HW298533   6.451  10.405   1.929  0.6838 -0.3065 -3.1437
32176SOL     OW98534   3.171   7.630   3.485 -0.6239 -0.0495 -0.1628
32176SOL    HW198535   3.174   7.717   3.446 -2.1798 -0.2710 -0.8571
32176SOL    HW298536   3.256   7.619   3.527  0.7777  0.6182 -2.6088
32177SOL     OW98537  10.198   8.904   0.987  0.6835 -0.0058 -0.0364
32177SOL    HW198538  10.186   8.900   1.082 -1.6457 -0.2819 -0.2687
32177SOL    HW298539  10.214   8.813   0.962 -2.9043 -0.7192 -0.2511
32178SOL     OW98540   5.708   2.484   3.957 -0.1365  0.1662  0.0774
32178SOL    HW198541   5.675   2.444   3.876 -1.4654  0.2812  0.5571
32178SOL    HW298542   5.686   2.577   3.949  1.7409  0.6150 -0.4156
32179SOL     OW98543   0.583   8.270  10.770  0.2290 -0.4078 -0.3264
32179SOL    HW198544   0.619   8.219  10.697  1.0565 -1.7584  0.9697
32179SOL    HW298545   0.660   8.300  10.819 -0.3290 -0.3466  0.5319
32180SOL     OW98546   1.889   4.536  10.037  0.2889 -0.2966  1.2994
32180SOL    HW198547   1.875   4.630  10.023  1.4700  0.2438  3.3665
32180SOL    HW298548   1.945   4.509   9.964 -0.2009  0.5392  0.5943
32181SOL     OW98549   4.991  10.925   2.778  0.2900 -0.1018 -0.0864
32181SOL    HW198550   4.957  11.012   2.800  2.6699  1.2773 -1.3880
32181SOL    HW298551   4.924  10.887   2.721 -0.0159  1.6248 -0.9389
32182SOL     OW98552   6.581   4.868   5.380  0.0356 -0.8703 -0.3174
32182SOL    HW198553   6.571   4.891   5.288  2.0706 -0.4389 -0.4905
32182SOL    HW298554   6.675   4.875   5.396 -0.1798 -1.7207  1.5994
32183SOL     OW98555   7.162   4.575   2.573  0.0298  0.1668 -0.1745
32183SOL    HW198556   7.257   4.579   2.584  0.2409  0.4303 -1.8644
32183SOL    HW298557   7.130   4.542   2.657  1.7851 -2.0149 -0.2603
32184SOL     OW98558   1.464   7.531  10.146  0.1537  0.0823  0.0066
32184SOL    HW198559   1.405   7.464  10.111  0.8144 -0.9171  0.7681
32184SOL    HW298560   1.483   7.587  10.070 -2.2329  0.8294 -0.1373
32185SOL     OW98561   4.572   8.940   6.588 -0.1559 -0.1119 -0.6175
32185SOL    HW198562   4.667   8.929   6.596  0.0668 -0.4847 -3.1080
32185SOL    HW298563   4.542   8.952   6.678  2.2927  0.4467  0.2043
32186SOL     OW98564   6.552   9.835   1.829  0.1961 -0.4622  0.1686
32186SOL    HW198565   6.474   9.857   1.777  0.8134 -0.6435 -0.8608
32186SOL    HW298566   6.534   9.748   1.863  1.3327 -2.0755 -2.9640
32187SOL     OW98567   2.519  10.733  10.136 -0.3950  0.1735 -0.2867
32187SOL    HW198568   2.549  10.818  10.166 -2.1319  1.7785 -2.7575
32187SOL    HW298569   2.568  10.717  10.055 -0.1883 -1.1531  0.0679
32188SOL     OW98570   7.523   7.801   8.626 -0.5007 -0.1520 -0.2032
32188SOL    HW198571   7.500   7.712   8.601  0.9260 -0.4668 -0.4992
32188SOL    HW298572   7.573   7.834   8.550 -1.2720  1.0031 -0.2280
32189SOL     OW98573   8.550   5.248   0.648  0.8907  0.1049  0.3797
32189SOL    HW198574   8.491   5.284   0.713  0.7883  1.1501 -0.2660
32189SOL    HW298575   8.518   5.159   0.633 -0.4569  0.6138  0.1231
32190SOL     OW98576   2.543   9.911   8.907  0.0345  0.2349 -0.0603
32190SOL    HW198577   2.470   9.957   8.867 -0.3431 -0.1383  0.1939
32190SOL    HW298578   2.581   9.975   8.968 -0.8001  0.0541  0.6672
32191SOL     OW98579   5.793   9.964   9.569 -0.3294  0.0229  0.3596
32191SOL    HW198580   5.846   9.902   9.618 -0.5656 -0.2390  0.2860
32191SOL    HW298581   5.740  10.008   9.635 -0.8532 -0.5303  0.3171
32192SOL     OW98582   4.125   9.989   8.719  0.8443  0.0841 -0.0695
32192SOL    HW198583   4.202   9.939   8.690 -0.0151 -1.3930  0.1073
32192SOL    HW298584   4.055   9.924   8.727 -0.4176  1.3744 -0.1291
32193SOL     OW98585   7.389   4.427   2.654 -0.1989 -0.0800  0.9106
32193SOL    HW198586   7.326   4.361   2.686 -0.0355 -0.7188 -0.0321
32193SOL    HW298587   7.463   4.421   2.715 -1.2696  1.1117  2.4049
32194SOL     OW98588  11.201   0.378  10.584  0.1096  0.2590 -0.3893
32194SOL    HW198589  11.268   0.397  10.650 -0.6788 -0.4383  0.6537
32194SOL    HW298590  11.130   0.440  10.603 -0.0959  0.0932 -0.6129
32195SOL     OW98591   0.315   2.239   1.327  0.1167  0.3805 -0.1300
32195SOL    HW198592   0.396   2.272   1.366 -0.0469 -0.1226  0.6502
32195SOL    HW298593   0.343   2.198   1.245  0.8718 -1.0348  0.7922
32196SOL     OW98594  10.993   1.644   4.328 -0.3887 -0.0320  0.2509
32196SOL    HW198595  10.911   1.635   4.375  0.2954  1.0255  1.7260
32196SOL    HW298596  11.020   1.735   4.343  0.2479  0.1380 -1.5769
32197SOL     OW98597   0.140   4.785  10.748 -0.6632  0.1602  0.3080
32197SOL    HW198598   0.216   4.796  10.691 -2.4476  0.9652 -2.0804
32197SOL    HW298599   0.171   4.730  10.819  1.4901 -1.7453 -1.9182
32198SOL     OW98600   3.435   4.041   7.322 -0.2626  0.1492 -0.0861
32198SOL    HW198601   3.502   3.981   7.290  2.0719  2.4341  0.2419
32198SOL    HW298602   3.447   4.043   7.417  0.4485  1.8683 -0.1708
32199SOL     OW98603   3.874   9.187   0.368 -0.0409  0.1617 -0.4779
32199SOL    HW198604   3.870   9.262   0.428  0.6163  0.5071 -0.8451
32199SOL    HW298605   3.901   9.225   0.284  1.2975 -0.5968 -0.4305
32200SOL     OW98606  10.283   5.357  10.642  0.4985  0.5655 -0.7880
32200SOL    HW198607  10.373   5.335  10.666  0.2280 -0.3882 -0.6158
32200SOL    HW298608  10.243   5.274  10.618 -0.2890  1.0019 -1.0356
32201SOL     OW98609   2.979   4.861   0.662  0.1602  0.6681 -0.4527
32201SOL    HW198610   2.909   4.895   0.717 -0.2421  0.2027 -0.6706
32201SOL    HW298611   3.058   4.905   0.694 -0.3304  1.7484 -0.6728
32202SOL     OW98612   6.818   9.906   8.829 -0.1404 -0.3696  0.8142
32202SOL    HW198613   6.820   9.986   8.882 -0.6055  0.1151  0.1280
32202SOL    HW298614   6.739   9.916   8.775 -0.2487 -1.3373  0.7851
32203SOL     OW98615   4.864  11.006   4.670 -0.0742 -0.5627 -0.3508
32203SOL    HW198616   4.774  10.977   4.652 -0.0255 -1.3130  0.5397
32203SOL    HW298617   4.894  10.948   4.740  0.8289  0.1995 -0.0890
32204SOL     OW98618   8.155   2.831   7.149 -0.2411 -0.3707 -0.0475
32204SOL    HW198619   8.070   2.797   7.120 -0.6415  0.2502  0.3849
32204SOL    HW298620   8.152   2.924   7.128  0.4728 -0.4050 -0.3392
32205SOL     OW98621   9.653  10.594   9.027 -0.4708  0.4255  0.3442
32205SOL    HW198622   9.600  10.617   8.950 -0.6701  0.9372  0.6308
32205SOL    HW298623   9.631  10.662   9.092 -0.5375 -0.1783  0.9586
32206SOL     OW98624   1.613   3.667   9.960  0.0833  0.3052 -0.0873
32206SOL    HW198625   1.542   3.717   9.919  0.0177  1.1025  0.9581
32206SOL    HW298626   1.595   3.672  10.054  2.0585  1.3654  0.2854
32207SOL     OW98627   0.097   4.329  10.055 -0.0582 -0.4944 -0.3417
32207SOL    HW198628   0.151   4.381   9.996 -2.0632  0.0287 -1.8290
32207SOL    HW298629   0.051   4.267   9.998 -0.5402 -1.3772  0.9393
32208SOL     OW98630  10.647   3.295   5.485  0.7314  0.2257  0.6316
32208SOL    HW198631  10.571   3.278   5.540  1.6145  0.5874  2.0346
32208SOL    HW298632  10.614   3.352   5.416 -0.8835 -1.9915 -0.5515
32209SOL     OW98633   9.141   1.602  11.042 -0.5113 -0.2572  0.3165
32209SOL    HW198634   9.213   1.551  11.080 -0.4564 -1.5422 -1.3996
32209SOL    HW298635   9.114   1.661  11.112 -0.8552 -2.9004  2.5780
32210SOL     OW98636   1.981   5.867   0.715 -0.2707 -0.1325 -0.1671
32210SOL    HW198637   1.910   5.915   0.672  0.3353  0.9565  0.0188
32210SOL    HW298638   2.015   5.809   0.647  0.9109  1.8034 -1.3361
32211SOL     OW98639   2.587   5.121   8.719  0.5753 -0.4136 -0.4067
32211SOL    HW198640   2.636   5.196   8.754 -0.0566  0.2798 -0.9709
32211SOL    HW298641   2.619   5.046   8.769  3.3363 -0.2614 -1.7205
32212SOL     OW98642   6.476  11.257   3.422  0.2346 -0.4169 -0.1322
32212SOL    HW198643   6.517  11.341   3.398  1.8117 -0.7733  1.1093
32212SOL    HW298644   6.525  11.229   3.499 -0.0732 -2.6314 -0.6989
32213SOL     OW98645   5.340   4.612  11.147 -0.1468 -0.4291  0.7521
32213SOL    HW198646   5.301   4.586  11.063  0.6935 -3.1902  1.1371
32213SOL    HW298647   5.431   4.630  11.126  0.0845 -1.2095  1.0607
32214SOL     OW98648   6.685   3.205   5.814 -0.0902  0.1371  0.4230
32214SOL    HW198649   6.626   3.141   5.852 -0.4829 -0.2118 -0.7320
32214SOL    HW298650   6.765   3.156   5.793 -0.2445  0.1093 -0.1040
32215SOL     OW98651   3.531  10.400   6.177  0.0042  0.0083 -0.1039
32215SOL    HW198652   3.531  10.396   6.081  1.7575 -3.0757 -0.1168
32215SOL    HW298653   3.452  10.353   6.203  1.1567 -2.1493 -0.1756
32216SOL     OW98654   8.691  10.810  10.082  0.3128 -0.0284  0.0960
32216SOL    HW198655   8.662  10.820   9.991 -3.2727 -1.3669  0.9176
32216SOL    HW298656   8.766  10.751  10.078  1.4852  1.5003 -2.0871
32217SOL     OW98657   7.930   0.369  11.014 -0.1777  0.3495 -0.1756
32217SOL    HW198658   8.024   0.387  11.012 -0.3238  1.3091  0.8762
32217SOL    HW298659   7.890   0.447  10.976 -0.5182 -0.6451 -2.0064
32218SOL     OW98660   6.741   9.791   1.440  0.2705  0.1288 -0.5233
32218SOL    HW198661   6.778   9.842   1.368 -1.7587 -0.8428 -2.3488
32218SOL    HW298662   6.741   9.852   1.514  0.9790  1.6957 -1.7397
32219SOL     OW98663   6.480   1.618   9.849  0.2181  0.3193  0.0369
32219SOL    HW198664   6.453   1.709   9.835 -2.5217  0.2893  3.5049
32219SOL    HW298665   6.514   1.617   9.939  2.2970 -1.7524 -0.6800
32220SOL     OW98666   9.136   1.439   5.389  0.1516 -0.1491  0.0943
32220SOL    HW198667   9.191   1.509   5.354  0.4415  0.0255  0.8866
32220SOL    HW298668   9.189   1.398   5.457 -0.0117 -1.1600 -0.3761
32221SOL     OW98669   8.148   8.745   8.498  0.0680  0.3577 -0.0254
32221SOL    HW198670   8.190   8.668   8.460  1.5246  1.1328 -0.0258
32221SOL    HW298671   8.124   8.798   8.423  1.8888  1.3405  0.0473
32222SOL     OW98672   8.127   3.632   2.992 -0.1140 -0.1451 -0.2457
32222SOL    HW198673   8.069   3.602   3.061 -1.0216  1.0057 -0.4877
32222SOL    HW298674   8.171   3.709   3.028 -0.3356  0.2577 -0.8147
32223SOL     OW98675   1.517  11.188   8.329  0.2299  0.5200 -0.2014
32223SOL    HW198676   1.529  11.163   8.238 -1.7655  1.0834 -0.6648
32223SOL    HW298677   1.539  11.109   8.379 -1.5511 -0.7832 -1.3643
32224SOL     OW98678   8.731   7.432   0.671  0.6949 -0.0672 -0.1169
32224SOL    HW198679   8.700   7.408   0.758  0.6043  1.5235  0.3173
32224SOL    HW298680   8.823   7.406   0.670  0.1915 -2.0009 -0.3222
32225SOL     OW98681   1.218  11.238   1.853  0.2292  0.3835  0.2755
32225SOL    HW198682   1.298  11.187   1.869 -0.3386 -1.1874 -1.6591
32225SOL    HW298683   1.150  11.173   1.838 -0.8165  1.6960 -0.9110
32226SOL     OW98684   1.389   7.206   4.444  0.3246  0.2955 -0.2168
32226SOL    HW198685   1.453   7.259   4.395  1.5634 -1.5910 -0.7461
32226SOL    HW298686   1.401   7.233   4.535  1.4579  0.4442 -0.3890
32227SOL     OW98687   4.813   9.188   4.050  0.1310 -0.0104  0.2657
32227SOL    HW198688   4.732   9.138   4.047 -0.7861  1.4743 -1.0761
32227SOL    HW298689   4.867   9.151   3.981 -0.1293  0.1443 -0.0252
32228SOL     OW98690   3.083   8.906  10.248  0.1127 -0.0830 -0.2197
32228SOL    HW198691   3.084   8.961  10.169 -0.3890  0.9636  0.4690
32228SOL    HW298692   3.006   8.851  10.238  1.0572 -1.2746 -1.2907
32229SOL     OW98693   1.779   4.098   6.210  0.3415  0.1301 -0.2441
32229SOL    HW198694   1.773   4.176   6.154 -3.1452  0.7642  0.7586
32229SOL    HW298695   1.694   4.056   6.202  1.5462 -2.7077  0.5846
32230SOL     OW98696   0.502   5.135   3.973 -0.0248 -0.2868 -0.1207
32230SOL    HW198697   0.573   5.198   3.962  0.2047 -0.7500 -1.4456
32230SOL    HW298698   0.434   5.183   4.021 -0.6387  1.6154 -2.6952
32231SOL     OW98699  10.232   3.732   9.987  0.2107 -1.3420 -0.3115
32231SOL    HW198700  10.150   3.764   9.949  0.9791 -0.1548 -1.0438
32231SOL    HW298701  10.299   3.755   9.922  1.4563 -0.1240  1.3138
32232SOL     OW98702   3.464   5.965   3.818 -0.2286 -0.8039 -0.1003
32232SOL    HW198703   3.467   6.004   3.906 -1.6229 -1.2896  0.1726
32232SOL    HW298704   3.531   5.896   3.821 -1.4453 -1.9825  1.1685
32233SOL     OW98705   1.001   9.968   1.562 -0.3176  0.5238  0.4416
32233SOL    HW198706   0.975  10.038   1.502  2.3049  1.0520 -0.2080
32233SOL    HW298707   0.962   9.889   1.526  0.0660  1.0500 -1.1907
32234SOL     OW98708   2.314   0.217   4.784  0.7084 -0.7166 -0.8720
32234SOL    HW198709   2.244   0.178   4.731  1.1213 -2.3214 -0.3040
32234SOL    HW298710   2.340   0.295   4.737 -0.9407 -0.5124 -1.4963
32235SOL     OW98711   2.227   8.671  10.808 -0.4949 -0.0132 -0.0857
32235SOL    HW198712   2.316   8.704  10.803 -0.8739  1.9579  3.2507
32235SOL    HW298713   2.235   8.585  10.851 -0.2409  1.0045  2.0188
32236SOL     OW98714   1.041   1.341   3.052  0.5124  0.0202  0.5793
32236SOL    HW198715   1.043   1.252   3.087  0.3487  0.6914  2.4242
32236SOL    HW298716   0.991   1.391   3.117 -1.3026  1.0455 -1.4826
32237SOL     OW98717  10.970   9.158   7.150  0.8180  0.2092  0.5408
32237SOL    HW198718  10.971   9.070   7.111  1.5307  0.3342  0.2693
32237SOL    HW298719  10.945   9.143   7.241  1.6544 -0.3658  0.6872
32238SOL     OW98720   6.095   0.793   6.807 -0.8374  0.2966  0.9439
32238SOL    HW198721   6.015   0.817   6.761 -2.0301 -0.7423  2.3721
32238SOL    HW298722   6.094   0.697   6.809  1.3422  0.1725 -0.4589
32239SOL     OW98723   4.498   0.063   5.695 -0.2303 -0.0616  0.0712
32239SOL    HW198724   4.405   0.087   5.700 -1.1535 -2.8973 -1.1239
32239SOL    HW298725   4.516   0.018   5.777  0.8443  2.4300  1.3143
32240SOL     OW98726   5.680   3.401   9.825  0.0337 -0.4263  0.3517
32240SOL    HW198727   5.691   3.492   9.854 -0.0233 -0.4735  0.5230
32240SOL    HW298728   5.588   3.381   9.844  0.2475 -0.7721  1.0294
32241SOL     OW98729   3.258   1.499   3.657  0.1899 -0.3232 -0.7111
32241SOL    HW198730   3.214   1.450   3.588  0.3428 -4.2729  1.6613
32241SOL    HW298731   3.188   1.523   3.718  0.3207  1.2064 -1.1311
32242SOL     OW98732   4.309   3.602   3.168  0.0225 -0.3523 -0.3870
32242SOL    HW198733   4.296   3.622   3.076 -1.7903 -0.8482 -0.2800
32242SOL    HW298734   4.367   3.671   3.200 -1.0352  1.0624 -1.4081
32243SOL     OW98735   7.295   9.066   0.701  0.3342  0.3486 -0.9036
32243SOL    HW198736   7.344   9.148   0.697  1.3841 -0.2091 -0.0253
32243SOL    HW298737   7.319   9.028   0.786 -1.6055  0.0278 -0.4423
32244SOL     OW98738   0.731   6.801   8.714 -0.3668 -0.4316 -0.2124
32244SOL    HW198739   0.652   6.831   8.757  0.5194 -0.7257  1.7050
32244SOL    HW298740   0.701   6.733   8.653 -1.5937 -0.4746  0.4161
32245SOL     OW98741   1.373   5.244   5.455  0.0144  0.5113  0.1176
32245SOL    HW198742   1.438   5.181   5.425  0.6975  1.2297  0.0605
32245SOL    HW298743   1.417   5.329   5.448 -0.8422  0.9794  0.3223
32246SOL     OW98744   7.039   7.475   5.229  0.3725  0.2150  0.4066
32246SOL    HW198745   6.974   7.410   5.254 -1.3852  1.8806  0.4326
32246SOL    HW298746   7.117   7.424   5.205 -1.6075 -2.0415 -1.8234
32247SOL     OW98747   2.761  10.713   5.822  0.3202 -0.8073  0.3091
32247SOL    HW198748   2.695  10.649   5.850 -0.1916 -0.5600 -0.3062
32247SOL    HW298749   2.725  10.797   5.847  1.1805 -0.7674  1.4854
32248SOL     OW98750   9.279  10.186   1.662 -0.5349 -0.1440 -0.2513
32248SOL    HW198751   9.201  10.235   1.690 -0.4183  0.1478 -0.4399
32248SOL    HW298752   9.252  10.143   1.581 -0.5955 -0.2838 -0.1564
32249SOL     OW98753   1.761   1.607   9.513  0.7506  0.1486 -0.5475
32249SOL    HW198754   1.829   1.544   9.489  0.6746  0.4085 -1.4462
32249SOL    HW298755   1.763   1.672   9.444 -0.0189  0.4767 -0.2643
32250SOL     OW98756  10.475  10.107   5.511 -0.1897  0.1637 -0.4049
32250SOL    HW198757  10.538  10.154   5.565  0.4311  1.2281 -1.9623
32250SOL    HW298758  10.500  10.015   5.518 -0.3885  0.2224  1.4015
32251SOL     OW98759   6.036   5.025   9.641  0.0117  0.3136  0.4463
32251SOL    HW198760   6.092   5.047   9.566 -1.0240  0.8589 -0.1838
32251SOL    HW298761   6.000   4.939   9.619  1.1190 -0.3604  1.1748
32252SOL     OW98762   3.812  10.352   9.411 -0.2763  0.6927  0.2919
32252SOL    HW198763   3.894  10.345   9.461 -0.6891 -0.3753  0.8514
32252SOL    HW298764   3.809  10.272   9.359 -0.9401  0.7533  0.2325
32253SOL     OW98765   3.489   3.148   5.035  0.0732 -0.2309 -0.1835
32253SOL    HW198766   3.499   3.161   4.941 -1.1781 -0.6711 -0.3889
32253SOL    HW298767   3.448   3.063   5.044 -1.9108  0.7584  0.6406
32254SOL     OW98768   6.846   5.300   2.925 -0.2893  0.1059  0.7272
32254SOL    HW198769   6.927   5.350   2.914 -0.8865  1.3907  1.9906
32254SOL    HW298770   6.872   5.224   2.976  0.0462  0.7705  1.5669
32255SOL     OW98771   8.867  10.743  10.683 -0.6857  0.0128 -0.3950
32255SOL    HW198772   8.789  10.794  10.706 -2.9664 -3.6418  0.7286
32255SOL    HW298773   8.843  10.696  10.604  0.0981 -1.5942  0.2698
32256SOL     OW98774   7.997   6.791   1.152 -0.3931 -0.7557  0.2622
32256SOL    HW198775   7.938   6.829   1.218  1.1386 -1.3399  2.0760
32256SOL    HW298776   8.041   6.867   1.114  0.5996 -0.4889  1.8382
32257SOL     OW98777   2.582   3.806   8.752 -0.2362 -0.0179  0.4330
32257SOL    HW198778   2.651   3.804   8.686  1.5214  0.2999  2.1602
32257SOL    HW298779   2.554   3.715   8.761 -0.6568 -0.0325 -0.8598
32258SOL     OW98780  10.745   7.802   8.947 -0.1366  0.5068  0.1179
32258SOL    HW198781  10.669   7.859   8.940 -0.3982 -0.0258 -2.1502
32258SOL    HW298782  10.712   7.724   8.992 -0.8113  0.4720 -0.4279
32259SOL     OW98783   0.178   8.134   8.502  0.4750  0.4835 -0.7885
32259SOL    HW198784   0.246   8.074   8.470 -0.9486 -2.1648  0.8051
32259SOL    HW298785   0.227   8.210   8.533  3.1220 -2.1259  2.2351
32260SOL     OW98786   3.470   9.208   1.945 -0.0890  0.2099  0.6796
32260SOL    HW198787   3.390   9.253   1.973 -0.3403  1.2455 -1.5084
32260SOL    HW298788   3.441   9.145   1.879  0.8132  0.0030  0.4661
32261SOL     OW98789   8.613   8.681   1.377  0.0845  0.1290  0.5153
32261SOL    HW198790   8.568   8.728   1.447 -2.1659 -0.8206 -0.2011
32261SOL    HW298791   8.568   8.710   1.297 -1.8203 -3.4947  0.0631
32262SOL     OW98792   5.068   0.428   7.499 -1.0264  0.3061 -0.5357
32262SOL    HW198793   5.005   0.362   7.472 -1.3790  0.8926 -1.1887
32262SOL    HW298794   5.098   0.468   7.416 -1.0663  1.1801 -0.1437
32263SOL     OW98795   2.388   9.066   2.074 -0.5168 -0.6738 -0.4117
32263SOL    HW198796   2.438   9.132   2.026 -0.0254 -0.5840  0.2175
32263SOL    HW298797   2.363   9.002   2.007  1.6364 -1.4701 -0.5239
32264SOL     OW98798   2.087   1.352   0.215 -0.2069  0.1893  0.1365
32264SOL    HW198799   2.052   1.440   0.230  1.8063  1.3033 -1.3212
32264SOL    HW298800   2.163   1.365   0.159  0.4605 -2.4585  0.2927
32265SOL     OW98801   3.097   6.606   4.970  0.4340  0.0114 -0.5568
32265SOL    HW198802   3.162   6.636   5.034 -1.5690  1.0982  1.0871
32265SOL    HW298803   3.063   6.525   5.007 -2.3707  1.7828  1.1455
32266SOL     OW98804   8.847   9.404   4.246  0.3565 -0.7549 -0.2938
32266SOL    HW198805   8.811   9.321   4.218  0.9780 -0.8468 -0.8593
32266SOL    HW298806   8.774   9.466   4.240 -0.8092 -1.7134  2.5683
32267SOL     OW98807  10.216   9.646   0.936  0.5218  0.2693  0.1365
32267SOL    HW198808  10.124   9.673   0.942  1.3122  3.0361  1.1542
32267SOL    HW298809  10.231   9.596   1.015  0.0796  0.4657  0.3526
32268SOL     OW98810   8.755  10.760   4.914 -0.2606 -0.1577  1.0876
32268SOL    HW198811   8.821  10.806   4.862  0.1868 -1.5594  0.3805
32268SOL    HW298812   8.714  10.829   4.967  0.7069  0.9699  0.4094
32269SOL     OW98813  10.154   6.164   6.557 -0.0524 -0.2659 -0.5625
32269SOL    HW198814  10.193   6.085   6.519 -0.8115 -0.1041 -1.7384
32269SOL    HW298815  10.092   6.131   6.622 -0.6992 -0.6815 -1.3672
32270SOL     OW98816   7.425   8.396   2.013  0.0963  0.0779  0.3165
32270SOL    HW198817   7.405   8.310   2.050  0.1190 -0.0635  0.0028
32270SOL    HW298818   7.365   8.405   1.939  1.2028 -0.3633 -0.6506
32271SOL     OW98819   7.293   4.633   3.392 -0.1467 -0.8245 -0.3957
32271SOL    HW198820   7.248   4.598   3.315 -0.0034  0.0109 -0.8799
32271SOL    HW298821   7.223   4.665   3.449 -0.4541 -3.8824  1.1487
32272SOL     OW98822   7.857   0.141   9.903 -0.1693  0.0608  0.1251
32272SOL    HW198823   7.787   0.138   9.838 -0.4326  1.8173  0.2857
32272SOL    HW298824   7.901   0.225   9.887  1.2453 -0.5272  0.7081
32273SOL     OW98825   6.003   1.720   8.884  0.0145  0.2601 -0.3410
32273SOL    HW198826   6.015   1.633   8.923 -3.0590  0.0088  0.3643
32273SOL    HW298827   6.030   1.708   8.793  0.5173 -1.1984 -0.0370
32274SOL     OW98828   3.961   7.442   8.775 -0.0530 -0.5493  0.6770
32274SOL    HW198829   3.987   7.418   8.686  2.5688  1.0939  0.8864
32274SOL    HW298830   3.961   7.537   8.776 -0.5642 -0.5294  2.2991
32275SOL     OW98831   1.702   6.905   1.962  0.2739  0.7238  0.7526
32275SOL    HW198832   1.716   6.914   2.056  2.2075  0.8424  0.4890
32275SOL    HW298833   1.772   6.846   1.933 -1.6523 -1.2244 -0.2804
32276SOL     OW98834  10.703   1.784   3.598  0.1811 -0.0419  0.4101
32276SOL    HW198835  10.665   1.843   3.663  0.3461  0.1834  0.3064
32276SOL    HW298836  10.791   1.819   3.583  0.6644 -0.9147  1.1016
32277SOL     OW98837   7.698   5.355   8.444 -0.9353 -0.0788  0.2872
32277SOL    HW198838   7.671   5.447   8.450 -3.4009 -0.7528  0.6871
32277SOL    HW298839   7.653   5.312   8.517  1.3742 -1.4028  1.0414
32278SOL     OW98840   4.697   9.078  10.535 -1.2026 -0.1769 -0.5802
32278SOL    HW198841   4.732   9.148  10.590 -1.9797  0.8710 -1.3630
32278SOL    HW298842   4.674   9.122  10.453 -0.9174 -1.5213 -1.4074
32279SOL     OW98843  10.578  11.201   7.720  0.1248 -1.0354 -0.4573
32279SOL    HW198844  10.496  11.226   7.677  0.6772  0.2254 -0.8440
32279SOL    HW298845  10.626  11.151   7.655 -0.2984 -1.7097 -0.2561
32280SOL     OW98846   3.769   9.298   2.535 -0.1234  0.6947  0.4826
32280SOL    HW198847   3.763   9.357   2.610 -0.9907  0.9043  0.2644
32280SOL    HW298848   3.678   9.274   2.517 -0.1306  2.0102 -1.5501
32281SOL     OW98849   7.934   7.770   3.604  0.4316  0.0092 -0.3882
32281SOL    HW198850   7.923   7.825   3.682 -1.4592 -1.0468  0.1512
32281SOL    HW298851   7.921   7.830   3.531 -1.6020  0.3622  0.1906
32282SOL     OW98852   5.844   3.256   9.979 -0.3948 -0.4302  1.0591
32282SOL    HW198853   5.772   3.279   9.921  0.5018  0.4357  0.2461
32282SOL    HW298854   5.916   3.233   9.919  0.1301 -0.8816  1.8436
32283SOL     OW98855   4.970   1.081   7.229 -0.6488 -0.0548 -0.0821
32283SOL    HW198856   4.901   1.048   7.172  1.5547  0.4960 -3.3722
32283SOL    HW298857   4.953   1.175   7.235  0.7594  0.4399 -2.5706
32284SOL     OW98858   3.822   5.642   9.267 -0.3916 -0.0393 -0.5372
32284SOL    HW198859   3.756   5.622   9.333  0.2727 -3.2818 -0.6464
32284SOL    HW298860   3.885   5.570   9.274  1.3002  1.1035 -2.7007
32285SOL     OW98861   3.427  11.199   9.919  0.0645 -0.0769  0.1103
32285SOL    HW198862   3.475  11.277   9.946 -2.5316  1.2695  1.2868
32285SOL    HW298863   3.491  11.128   9.921  1.8604  1.4792  1.9745
32286SOL     OW98864   3.181  10.100   2.778 -0.5124 -0.2637 -0.0843
32286SOL    HW198865   3.213  10.188   2.756 -1.5361 -0.2505 -1.6910
32286SOL    HW298866   3.251  10.062   2.831  0.9857  0.7158 -1.2687
32287SOL     OW98867   7.618   6.281   3.906 -0.0214  0.5289 -0.3718
32287SOL    HW198868   7.656   6.366   3.926 -1.4863  1.1233  0.0299
32287SOL    HW298869   7.689   6.218   3.921  0.0691  1.2854  3.1584
32288SOL     OW98870   9.290   6.830   3.739 -0.4487  0.3158  0.1381
32288SOL    HW198871   9.346   6.868   3.806  0.5863 -0.5931 -0.1804
32288SOL    HW298872   9.201   6.837   3.775  0.1523 -0.9824  2.0568
32289SOL     OW98873   7.540   9.219   0.598  0.7400 -0.0189  0.3014
32289SOL    HW198874   7.554   9.147   0.660  2.6211  0.1163  0.0991
32289SOL    HW298875   7.582   9.189   0.517 -3.1272 -0.9349 -1.5994
32290SOL     OW98876   8.743   5.814   9.973 -0.5534 -0.1529  0.7320
32290SOL    HW198877   8.743   5.904  10.008  1.4425  0.1137  0.1162
32290SOL    HW298878   8.751   5.825   9.879  2.0235 -0.9510  0.7839
32291SOL     OW98879   0.041   9.975   3.902  0.6626 -0.0069 -0.4551
32291SOL    HW198880  -0.019   9.998   3.972  1.5338  2.0856 -0.3466
32291SOL    HW298881   0.002  10.012   3.823  1.9421  1.7186 -0.3244
32292SOL     OW98882   0.046   0.122   5.296 -0.3754 -0.3299  0.3310
32292SOL    HW198883   0.080   0.109   5.207 -0.3555 -2.8530  0.6511
32292SOL    HW298884   0.124   0.130   5.350 -0.3219 -1.3191  0.4231
32293SOL     OW98885   5.194   5.068  10.833  0.4017 -0.5689 -0.3914
32293SOL    HW198886   5.243   5.142  10.868  0.5593 -0.6300 -0.4815
32293SOL    HW298887   5.154   5.028  10.910  0.0034 -0.1665 -0.3811
32294SOL     OW98888   2.021   1.204  10.338 -0.6406  0.0542 -0.2964
32294SOL    HW198889   1.943   1.178  10.289 -0.8741  0.5405 -0.1877
32294SOL    HW298890   2.085   1.135  10.319 -1.9766 -1.9674  1.9299
32295SOL     OW98891   6.967   0.886   3.260 -0.1067  0.2731 -0.3964
32295SOL    HW198892   6.921   0.909   3.341  3.4656  3.6502  0.9830
32295SOL    HW298893   6.952   0.959   3.201  0.5615 -0.2686 -1.2701
32296SOL     OW98894   1.731   1.083   4.337  0.1549 -0.1193 -0.0041
32296SOL    HW198895   1.705   1.167   4.373  0.3658 -0.1988  0.3303
32296SOL    HW298896   1.699   1.018   4.400 -1.2132 -0.3818 -0.9195
32297SOL     OW98897   9.338   5.320   5.554 -0.5641  1.1517  0.0692
32297SOL    HW198898   9.283   5.341   5.479 -0.9659  3.6545  0.9777
32297SOL    HW298899   9.397   5.395   5.563  0.1012  0.4916  1.6904
32298SOL     OW98900   8.319   4.543   7.785 -0.1510 -0.5866  0.3366
32298SOL    HW198901   8.273   4.528   7.703  1.1376  0.6194 -0.6715
32298SOL    HW298902   8.251   4.564   7.849 -1.0830 -0.1479 -0.7801
32299SOL     OW98903   0.390   6.989   2.901  0.2415  0.5684 -0.1233
32299SOL    HW198904   0.396   7.053   2.972 -2.3727  1.3747 -0.4884
32299SOL    HW298905   0.386   7.043   2.822  0.0877 -0.1428 -0.6039
32300SOL     OW98906   2.003   6.152  11.056  0.1803 -0.1730  0.1793
32300SOL    HW198907   1.911   6.173  11.045 -0.1458 -1.2206  0.7197
32300SOL    HW298908   2.035   6.134  10.967  0.5757  2.7659 -0.3643
32301SOL     OW98909  10.936   1.939   8.574  0.2340 -0.2143  0.3987
32301SOL    HW198910  10.870   1.920   8.641  0.0228  1.7324  0.7906
32301SOL    HW298911  10.929   2.033   8.560  1.5518 -0.3039 -1.0400
32302SOL     OW98912   6.624  10.709   6.412 -0.6824 -0.5679 -0.7311
32302SOL    HW198913   6.684  10.773   6.374 -0.0794 -1.2611 -0.9586
32302SOL    HW298914   6.615  10.735   6.503  1.5614 -1.6056 -0.1582
32303SOL     OW98915   0.137   3.235   3.855 -0.4258 -0.2346 -0.4894
32303SOL    HW198916   0.226   3.240   3.821 -1.0584  0.3558 -2.1199
32303SOL    HW298917   0.107   3.326   3.857 -0.8581 -0.3851  0.4673
32304SOL     OW98918   3.697  10.144   8.777  0.0290 -0.0119  0.3755
32304SOL    HW198919   3.751  10.090   8.719 -3.2219 -2.3904 -0.7191
32304SOL    HW298920   3.718  10.234   8.752  0.5034 -0.8981 -2.8552
32305SOL     OW98921   7.167   3.935   5.837  0.0590  1.1007 -0.0417
32305SOL    HW198922   7.177   4.017   5.887  0.2743  1.3358 -0.4650
32305SOL    HW298923   7.255   3.899   5.833 -0.3244 -0.2517  1.9551
32306SOL     OW98924   8.129   0.712   1.970 -0.3164  0.3018  0.2330
32306SOL    HW198925   8.067   0.747   2.034  1.1164  0.8523  1.3995
32306SOL    HW298926   8.183   0.787   1.946 -0.2762 -0.1007 -0.9762
32307SOL     OW98927   4.935   9.583  10.243  0.0380 -0.2006 -0.2781
32307SOL    HW198928   4.915   9.491  10.262 -0.8268  0.0827  0.2536
32307SOL    HW298929   4.935   9.589  10.147 -0.4163 -0.6500 -0.3086
32308SOL     OW98930   0.173   7.662   6.052 -0.1656 -0.3665  0.0924
32308SOL    HW198931   0.211   7.575   6.066  0.7837  0.0697  0.2561
32308SOL    HW298932   0.197   7.684   5.962 -2.0611 -1.0706 -0.6501
32309SOL     OW98933   8.964   7.682   8.905 -0.4086  0.0003  0.1400
32309SOL    HW198934   8.949   7.588   8.890 -0.2592 -0.1750  1.0636
32309SOL    HW298935   8.940   7.723   8.822 -0.5275 -0.8513 -0.2576
32310SOL     OW98936   3.868   8.301   9.122 -1.0116  0.3735  0.0939
32310SOL    HW198937   3.866   8.288   9.027 -2.9817 -0.6104  0.2157
32310SOL    HW298938   3.815   8.230   9.157  0.8042 -0.1070  2.0741
32311SOL     OW98939   0.536   0.957   2.614  0.0339 -0.0605  0.4694
32311SOL    HW198940   0.472   1.017   2.652 -2.4175 -1.2429 -1.5552
32311SOL    HW298941   0.582   0.920   2.690 -1.9944  0.5020  2.0531
32312SOL     OW98942   2.988   6.459   9.126  0.0832  0.7140 -0.3526
32312SOL    HW198943   3.065   6.515   9.118  0.0574  0.5332 -2.4989
32312SOL    HW298944   3.010   6.397   9.195  1.4977  1.2439 -0.2975
32313SOL     OW98945   1.829   3.074   6.083 -0.0219  0.0440  0.9000
32313SOL    HW198946   1.866   3.162   6.087  1.4684 -0.5304  0.4559
32313SOL    HW298947   1.744   3.085   6.041  0.9064  1.0633 -0.8371
32314SOL     OW98948   5.632   3.133   6.980 -0.1170  1.0360  0.4571
32314SOL    HW198949   5.653   3.160   7.069 -2.8853  1.4375  1.0798
32314SOL    HW298950   5.687   3.057   6.964  0.7622  1.2250  2.3230
32315SOL     OW98951   0.736   3.892   2.241 -0.3470  0.2360  0.4507
32315SOL    HW198952   0.778   3.834   2.177  0.2134  1.2567 -0.1456
32315SOL    HW298953   0.718   3.836   2.317 -0.3236 -0.8232 -0.3071
32316SOL     OW98954   2.649  10.055   9.484  0.6738 -0.3406  0.9907
32316SOL    HW198955   2.676  10.145   9.468 -3.6030  1.0592  0.4155
32316SOL    HW298956   2.660  10.043   9.578  1.9039  0.4920  0.9766
32317SOL     OW98957   0.301   8.046   4.511  0.1697  0.3788 -0.0800
32317SOL    HW198958   0.287   8.131   4.470  0.5641  0.4663 -0.0331
32317SOL    HW298959   0.230   8.039   4.576 -0.3918  0.2840 -0.6944
32318SOL     OW98960   6.187   7.240   3.167  0.0884 -0.1103  0.3340
32318SOL    HW198961   6.093   7.223   3.164 -0.0773  0.0398  2.9861
32318SOL    HW298962   6.226   7.154   3.182  0.2353  0.0614  0.9475
32319SOL     OW98963  10.729   0.140   9.255  0.4723 -0.4588  0.4724
32319SOL    HW198964  10.670   0.215   9.247  0.5941 -0.2217  1.6011
32319SOL    HW298965  10.672   0.064   9.243  0.1361 -0.2026  0.4324
32320SOL     OW98966   5.343   2.846   7.945  0.6147 -0.5987  0.1222
32320SOL    HW198967   5.322   2.756   7.923 -1.0022 -0.9715  2.8140
32320SOL    HW298968   5.303   2.860   8.031  1.2986  2.5138  0.0436
32321SOL     OW98969   0.437   7.605   9.460  0.1078 -0.0558 -0.8099
32321SOL    HW198970   0.515   7.661   9.463  0.6524 -0.8033 -0.3178
32321SOL    HW298971   0.376   7.645   9.522  0.9539 -0.6286  0.4524
32322SOL     OW98972   8.082  10.982   2.511 -0.0369 -0.3374 -0.6059
32322SOL    HW198973   8.157  11.041   2.506 -0.8702  0.8236  0.0261
32322SOL    HW298974   8.059  10.963   2.420  1.6099 -1.5060 -0.8035
32323SOL     OW98975   6.463   1.435   5.479 -0.5321 -0.3237  0.3747
32323SOL    HW198976   6.485   1.342   5.469 -1.2936 -0.4469 -0.3091
32323SOL    HW298977   6.544   1.476   5.508  0.2184 -0.9530 -0.7666
32324SOL     OW98978   5.115   0.256   2.369  0.2532 -0.1296  0.4861
32324SOL    HW198979   5.120   0.277   2.275  0.1224 -0.1906  0.4649
32324SOL    HW298980   5.026   0.223   2.381 -0.8025  2.7342  1.2118
32325SOL     OW98981   9.524   9.709   8.486 -0.4570 -0.1626 -0.6487
32325SOL    HW198982   9.437   9.668   8.490 -0.0989 -0.9568 -0.6979
32325SOL    HW298983   9.562   9.691   8.572 -0.7301  1.0934 -0.2490
32326SOL     OW98984   4.206   0.057  10.194 -0.5820  0.0171  0.2818
32326SOL    HW198985   4.258   0.135  10.212  0.7767 -0.9564  0.7870
32326SOL    HW298986   4.173   0.030  10.279  0.7187 -1.1181  0.4645
32327SOL     OW98987   2.975   5.626   1.567  0.3448 -0.4001 -0.2758
32327SOL    HW198988   2.984   5.553   1.628 -0.4038  1.5125  2.3175
32327SOL    HW298989   2.894   5.669   1.594 -0.1420  0.4516 -2.8290
32328SOL     OW98990   3.811   6.337   9.863  0.3572 -0.4183 -0.2497
32328SOL    HW198991   3.794   6.417   9.912 -0.8252 -0.8377  0.0522
32328SOL    HW298992   3.892   6.355   9.815  0.5673  0.6381  0.4746
32329SOL     OW98993   3.981   2.418   6.483  0.4418 -0.2484 -0.3947
32329SOL    HW198994   4.046   2.357   6.449 -0.1133 -1.1847  0.2051
32329SOL    HW298995   3.919   2.430   6.411 -0.1762 -1.4395 -0.0763
32330SOL     OW98996   5.286   0.618  10.559  0.4422 -0.0796 -0.3517
32330SOL    HW198997   5.196   0.586  10.570  0.5723 -0.3907 -0.1881
32330SOL    HW298998   5.277   0.693  10.501  0.0953 -0.2224 -0.4881
32331SOL     OW98999   3.120   2.718   1.445 -0.0636 -0.0395  0.5870
32331SOL    HW199000   3.057   2.713   1.373  0.6882  0.8844 -0.1639
32331SOL    HW299001   3.200   2.678   1.410  0.7012  1.5570  0.4382
32332SOL     OW99002   3.864   5.173   3.279 -0.0249 -0.3450 -0.8777
32332SOL    HW199003   3.913   5.101   3.319 -0.0995  0.8184  1.4947
32332SOL    HW299004   3.931   5.228   3.239  0.3121 -0.2462 -0.1790
32333SOL     OW99005   2.165   1.396   5.524  0.3376  0.2646  0.3630
32333SOL    HW199006   2.241   1.340   5.509 -0.8364 -0.9807 -1.3321
32333SOL    HW299007   2.151   1.441   5.441 -0.9297  0.2639  0.5530
32334SOL     OW99008   0.498   6.387   8.340 -0.5879  0.5520 -0.0732
32334SOL    HW199009   0.447   6.406   8.261 -0.8225  1.5962  0.3157
32334SOL    HW299010   0.435   6.397   8.412 -0.1742  0.4554  0.3050
32335SOL     OW99011   8.379   0.397   5.181 -0.0268  0.7639  0.1110
32335SOL    HW199012   8.346   0.374   5.094  0.9229  1.3149 -0.4221
32335SOL    HW299013   8.455   0.339   5.193  1.2031  2.1959 -0.4158
32336SOL     OW99014   4.143   2.256   8.045  0.1817 -0.1203 -0.7579
32336SOL    HW199015   4.135   2.186   7.981  1.3904  0.3745 -1.4799
32336SOL    HW299016   4.058   2.258   8.090 -0.0468 -1.6764 -1.0843
32337SOL     OW99017   0.160   8.120   8.903 -0.6115  0.1245  0.2608
32337SOL    HW199018   0.110   8.084   8.830 -0.4308  0.1432  0.1262
32337SOL    HW299019   0.184   8.043   8.956 -0.3174  0.0559  0.0314
32338SOL     OW99020   6.398  10.117   2.353 -0.2703  0.0867 -0.7908
32338SOL    HW199021   6.477  10.076   2.388 -0.2648  0.8937  0.1630
32338SOL    HW299022   6.368  10.056   2.285 -0.3936 -1.6294  0.7172
32339SOL     OW99023   3.987   9.798   8.559 -0.1801 -0.3720 -0.0547
32339SOL    HW199024   4.023   9.803   8.470  0.4365 -0.4286  0.1839
32339SOL    HW299025   4.040   9.731   8.602 -0.5685 -0.4442  0.3163
32340SOL     OW99026   8.849   9.049   1.923  0.4513 -0.1660 -0.5032
32340SOL    HW199027   8.874   9.044   1.831  0.4310 -0.4928 -0.4931
32340SOL    HW299028   8.796   8.971   1.938  0.3160 -0.0291 -0.2550
32341SOL     OW99029   2.629   9.585   1.688  0.0629 -0.4444  0.6386
32341SOL    HW199030   2.564   9.517   1.673  0.3378 -0.9956  1.8253
32341SOL    HW299031   2.614   9.649   1.619 -1.9189 -0.4186  1.0347
32342SOL     OW99032   3.168   8.243   9.007 -0.2654  0.4524  0.0811
32342SOL    HW199033   3.193   8.315   8.949  0.3195 -0.4734 -0.8558
32342SOL    HW299034   3.251   8.210   9.041 -0.4589 -0.2986 -0.1566
32343SOL     OW99035   4.454   8.254   1.675  0.0285 -0.2314 -0.3103
32343SOL    HW199036   4.533   8.211   1.705  1.0880  1.8058  0.0273
32343SOL    HW299037   4.436   8.320   1.742 -0.2146  1.3306 -1.8306
32344SOL     OW99038   5.536   6.728   8.165  0.0695 -0.9835 -0.9340
32344SOL    HW199039   5.463   6.719   8.226  0.1378 -0.1331 -0.7074
32344SOL    HW299040   5.520   6.813   8.122  2.3250  0.5666  1.0416
32345SOL     OW99041   2.965   0.032   7.052  0.4514 -0.2152 -0.0571
32345SOL    HW199042   2.979   0.125   7.033  0.6281 -0.2902 -0.2921
32345SOL    HW299043   2.909   0.032   7.130 -1.6766  0.1189 -1.4995
32346SOL     OW99044   1.089   9.435   4.692  0.7225  0.3861  0.0122
32346SOL    HW199045   1.146   9.453   4.767  0.3254  1.2208  0.1169
32346SOL    HW299046   1.138   9.468   4.616 -0.6384  3.5191  0.3467
32347SOL     OW99047   5.630   4.489   0.684 -0.7647  0.8817  0.6275
32347SOL    HW199048   5.652   4.413   0.737  2.0028 -0.1774 -1.7550
32347SOL    HW299049   5.562   4.458   0.624  0.7410 -0.0112 -0.7078
32348SOL     OW99050   9.408   7.432   3.536  0.0432 -0.1779  0.1116
32348SOL    HW199051   9.360   7.387   3.605  0.4647 -0.0824  0.4725
32348SOL    HW299052   9.349   7.503   3.509 -0.6427 -0.9583 -0.4971
32349SOL     OW99053   0.265   7.939   2.296  0.2323 -0.2297  0.1419
32349SOL    HW199054   0.338   7.989   2.332  0.1294 -0.5983  0.8645
32349SOL    HW299055   0.302   7.853   2.276  0.2926 -0.0324 -0.6610
32350SOL     OW99056   5.288   7.274   1.607  0.1944 -0.0257  0.3288
32350SOL    HW199057   5.320   7.203   1.663 -1.3814  0.1872  1.5620
32350SOL    HW299058   5.214   7.311   1.655 -1.3396  0.0727 -1.9429
32351SOL     OW99059   4.145   8.747   1.697  0.2021 -0.2176  0.0942
32351SOL    HW199060   4.167   8.825   1.749 -1.0031  0.1621  0.0553
32351SOL    HW299061   4.130   8.678   1.762  1.6429 -0.5385  0.1157
32352SOL     OW99062   8.179   5.909   8.863  0.5565  0.3366  0.8224
32352SOL    HW199063   8.115   5.978   8.847 -0.1627 -0.3644  0.6642
32352SOL    HW299064   8.249   5.953   8.913  0.3003  1.2648  0.3846
32353SOL     OW99065   5.048   2.863   1.100  0.5062  0.1141  0.4644
32353SOL    HW199066   4.982   2.846   1.033  0.9592 -1.0276  0.2709
32353SOL    HW299067   5.127   2.820   1.066  1.9426  3.0620 -0.2445
32354SOL     OW99068   1.946   5.297   9.894  0.5374 -0.3469 -0.4419
32354SOL    HW199069   1.883   5.244   9.943  2.8242 -1.3718  1.5899
32354SOL    HW299070   1.956   5.376   9.946  2.2235 -0.9860  0.2507
32355SOL     OW99071   7.690   6.786   1.551 -0.7266 -0.1515  0.2142
32355SOL    HW199072   7.655   6.697   1.563 -1.1458  0.1339  1.2115
32355SOL    HW299073   7.641   6.821   1.477  1.3084 -1.6663 -1.9932
32356SOL     OW99074   3.104   1.383   1.342 -0.1804  0.4048 -0.6861
32356SOL    HW199075   3.137   1.471   1.358  2.3203 -0.4249 -0.8901
32356SOL    HW299076   3.178   1.336   1.302 -1.4760 -1.7404 -0.7244
32357SOL     OW99077   9.622   7.132   9.475 -0.2017  0.4970  0.5770
32357SOL    HW199078   9.703   7.161   9.517  0.1305  0.0364  0.2487
32357SOL    HW299079   9.649   7.065   9.413 -0.7522  0.8442 -0.0462
32358SOL     OW99080   8.559   6.089   9.824  0.4033 -0.1400  0.4961
32358SOL    HW199081   8.568   6.004   9.783  2.2065  0.1108  0.3168
32358SOL    HW299082   8.472   6.120   9.797  1.0960 -0.4106 -2.3267
32359SOL     OW99083   3.776   1.446   3.519 -0.1554 -0.1746  0.1819
32359SOL    HW199084   3.749   1.535   3.496 -2.1700 -0.7715  0.0588
32359SOL    HW299085   3.855   1.458   3.573 -1.1290  1.7559  1.2723
32360SOL     OW99086   7.866   2.384  10.256 -0.5917 -0.1809  0.1013
32360SOL    HW199087   7.838   2.409  10.168  1.1994  0.7673 -0.2455
32360SOL    HW299088   7.785   2.367  10.303 -1.5925 -1.5177 -1.9427
32361SOL     OW99089   5.977   1.459   6.613 -0.6523 -0.2343 -0.2258
32361SOL    HW199090   5.997   1.399   6.684  2.8358 -0.0725 -0.8847
32361SOL    HW299091   5.930   1.406   6.548  0.9489 -1.8857 -0.1086
32362SOL     OW99092   9.974  10.494   5.033  0.3372 -0.4119  0.1846
32362SOL    HW199093  10.063  10.494   5.069  0.8032 -3.2515 -0.7036
32362SOL    HW299094   9.985  10.472   4.941 -1.2429  0.7022 -0.3190
32363SOL     OW99095   4.549   4.046   3.423 -0.0807 -0.1242 -0.8571
32363SOL    HW199096   4.481   3.995   3.465  1.8232 -0.7070  1.7660
32363SOL    HW299097   4.502   4.108   3.367 -2.6962 -0.8102  0.4326
32364SOL     OW99098   5.089   3.950   6.086  0.1067 -0.4415 -1.0720
32364SOL    HW199099   5.181   3.942   6.110 -0.5279  0.6542  2.2448
32364SOL    HW299100   5.046   3.880   6.135 -1.0259  0.0805 -1.2994
32365SOL     OW99101   7.062   7.024   6.067 -0.6769 -0.3921 -0.4612
32365SOL    HW199102   6.970   7.045   6.080 -0.2400  0.5852  1.5663
32365SOL    HW299103   7.109   7.102   6.099  0.8477 -0.8835 -1.3916
32366SOL     OW99104   9.686   0.223   5.628 -0.1317 -0.5728  0.7168
32366SOL    HW199105   9.614   0.284   5.613  0.3458 -0.2725 -0.5453
32366SOL    HW299106   9.650   0.157   5.688 -1.0172  0.2982  1.1772
32367SOL     OW99107   9.099   3.196   1.253 -0.1154 -0.3118 -0.5494
32367SOL    HW199108   9.157   3.149   1.194 -0.5488 -1.2625 -0.2388
32367SOL    HW299109   9.125   3.168   1.341  2.0749  2.8146 -0.0354
32368SOL     OW99110   3.207   4.460  10.294  0.4000 -0.0645 -0.5288
32368SOL    HW199111   3.270   4.398  10.259  1.1761  0.9220 -0.9299
32368SOL    HW299112   3.161   4.412  10.362 -0.2926 -1.6470 -2.0504
32369SOL     OW99113   2.193   2.812   1.040 -0.0318  0.1969 -0.1258
32369SOL    HW199114   2.206   2.788   1.132 -0.1548  2.0963  0.4256
32369SOL    HW299115   2.142   2.739   1.004 -2.5859  0.7253  2.0901
32370SOL     OW99116   7.281   9.171   6.016  0.4609 -0.0767 -0.0443
32370SOL    HW199117   7.216   9.213   6.074  0.3102  0.3627 -0.5180
32370SOL    HW299118   7.364   9.182   6.062  0.0512 -1.8087  1.1997
32371SOL     OW99119   8.718   4.554   5.022 -0.6431  0.2106  0.4219
32371SOL    HW199120   8.748   4.479   5.074  1.4330  1.0413  0.5173
32371SOL    HW299121   8.631   4.528   4.991 -1.4623 -0.8292  3.2408
32372SOL     OW99122   4.093   9.148   6.966 -0.2002  0.2145  0.2513
32372SOL    HW199123   4.005   9.171   6.996 -0.2069  2.2828 -1.1318
32372SOL    HW299124   4.104   9.198   6.885  1.8287 -0.8975 -0.2139
32373SOL     OW99125   8.496  10.265   7.570  0.1217  0.3144 -0.0680
32373SOL    HW199126   8.516  10.200   7.503 -0.6928 -0.7424  0.6783
32373SOL    HW299127   8.428  10.319   7.530  0.7128  0.6458 -0.6450
32374SOL     OW99128   9.764   1.765   2.333 -0.8227 -0.7338 -0.1153
32374SOL    HW199129   9.845   1.794   2.292 -1.0645  1.6770  0.9443
32374SOL    HW299130   9.710   1.845   2.339 -2.5879 -1.9204  0.7316
32375SOL     OW99131   8.101  10.194   5.120  0.8258 -0.4227  0.7572
32375SOL    HW199132   8.031  10.247   5.159 -0.1860 -1.0161 -0.1960
32375SOL    HW299133   8.168  10.258   5.097 -0.1265  0.4066  0.1489
32376SOL     OW99134   7.836   5.996   0.087 -0.1157  0.6303  0.1539
32376SOL    HW199135   7.811   6.085   0.063 -1.2664 -0.3155 -2.5092
32376SOL    HW299136   7.770   5.940   0.046  1.8720 -1.5807 -0.2473
32377SOL     OW99137   0.524   0.119   3.232  0.1736 -0.1176  0.4205
32377SOL    HW199138   0.585   0.176   3.279  1.9984 -2.2015  0.6947
32377SOL    HW299139   0.503   0.050   3.295 -2.4588  0.4609  0.2997
32378SOL     OW99140   3.668   2.368  10.032 -0.7427 -0.4469  0.4997
32378SOL    HW199141   3.738   2.348  10.093 -1.1437 -1.1131  0.7465
32378SOL    HW299142   3.609   2.425  10.081  1.1393  2.7600 -0.6488
32379SOL     OW99143   7.807   9.643   9.465  0.5017  0.0401 -0.7846
32379SOL    HW199144   7.893   9.599   9.466  0.8814  0.7651 -0.7654
32379SOL    HW299145   7.821   9.723   9.516  0.0336  0.5770 -1.4899
32380SOL     OW99146   3.170   4.585  10.604 -0.3810  0.2840 -0.2877
32380SOL    HW199147   3.088   4.624  10.632  0.7207  0.7570  2.7127
32380SOL    HW299148   3.184   4.513  10.665  1.8823  0.8564 -0.0313
32381SOL     OW99149   2.127   6.483   6.376  0.4487 -0.2429 -0.3353
32381SOL    HW199150   2.137   6.467   6.282 -0.1357 -0.0928 -0.4207
32381SOL    HW299151   2.082   6.405   6.409  1.6045 -0.7909  0.0101
32382SOL     OW99152   2.325   5.642  10.483 -0.3432 -0.5362  0.0521
32382SOL    HW199153   2.338   5.707  10.414 -1.3755  0.2884  0.6052
32382SOL    HW299154   2.307   5.694  10.562  2.2694 -1.3933  1.3136
32383SOL     OW99155   5.346   3.437   0.213 -0.4884  0.5165  0.4493
32383SOL    HW199156   5.397   3.515   0.192  2.0524 -0.8011  1.3567
32383SOL    HW299157   5.378   3.370   0.152 -2.7139  0.1519 -0.4076
32384SOL     OW99158  10.859   7.554   1.009  0.2835 -0.3158 -0.4415
32384SOL    HW199159  10.785   7.564   0.949  0.0659 -0.1441 -0.1493
32384SOL    HW299160  10.892   7.466   0.992 -0.4776 -0.6918 -0.0214
32385SOL     OW99161   2.888   9.204   3.801 -0.5637  0.1974 -0.4936
32385SOL    HW199162   2.818   9.207   3.737 -0.3402  0.4517 -0.7269
32385SOL    HW299163   2.961   9.249   3.759  0.1717 -1.2183 -0.7815
32386SOL     OW99164   0.125   7.305   7.812 -0.0742  0.7192 -0.9018
32386SOL    HW199165   0.080   7.361   7.875 -0.0715 -0.9796  0.7103
32386SOL    HW299166   0.056   7.267   7.758 -0.3805 -0.0290 -0.0061
32387SOL     OW99167   0.870   9.884   0.657 -0.1247  0.9608 -0.5570
32387SOL    HW199168   0.843   9.975   0.656  0.3470  1.1107 -1.4933
32387SOL    HW299169   0.950   9.882   0.710 -1.3752  0.6800  1.3968
32388SOL     OW99170   9.245   9.396   7.660 -0.0968 -0.2583  1.0443
32388SOL    HW199171   9.281   9.336   7.594 -0.5140  0.4900  0.1275
32388SOL    HW299172   9.230   9.340   7.737 -2.1760 -1.7486 -0.3563
32389SOL     OW99173   6.480   6.002   8.056  0.3119 -0.1001 -0.1655
32389SOL    HW199174   6.552   5.946   8.084  1.4650  1.3326 -0.1697
32389SOL    HW299175   6.424   6.010   8.133 -0.5983 -2.2413 -0.5111
32390SOL     OW99176   1.001   8.522   1.035 -0.0625 -0.7085  0.0424
32390SOL    HW199177   1.095   8.531   1.048  0.3103 -3.6353  0.1089
32390SOL    HW299178   0.988   8.531   0.941  0.0817  0.8921  0.1598
32391SOL     OW99179   7.812   5.647   7.957 -0.5483 -0.1180  0.0490
32391SOL    HW199180   7.777   5.602   7.881 -2.0615  0.4151  0.4004
32391SOL    HW299181   7.874   5.710   7.921  0.9043 -1.7861 -0.5030
32392SOL     OW99182   8.303   5.923   8.606 -0.2302 -0.7069 -0.3204
32392SOL    HW199183   8.398   5.923   8.618 -0.0198 -0.0636 -1.8047
32392SOL    HW299184   8.269   5.909   8.694  1.2129  0.8042  0.5613
32393SOL     OW99185   1.429   6.657   8.336 -0.0187  0.3553 -0.0883
32393SOL    HW199186   1.369   6.583   8.338 -1.3155  1.3769  0.2709
32393SOL    HW299187   1.403   6.712   8.410  0.8870  1.1930 -0.3579
32394SOL     OW99188   9.028   6.114   2.063 -0.8270 -0.3553 -0.4113
32394SOL    HW199189   9.115   6.087   2.091 -1.0129 -0.0692  0.4613
32394SOL    HW299190   9.008   6.057   1.989  0.2195 -0.2161 -0.8208
32395SOL     OW99191   7.011   4.557   9.845 -0.4541  0.3288  0.1956
32395SOL    HW199192   7.073   4.601   9.902 -0.8598  0.0129  0.8876
32395SOL    HW299193   6.938   4.533   9.902 -1.0131  0.3057 -0.5202
32396SOL     OW99194   3.444   1.241   7.587  0.6794  0.4994 -0.1711
32396SOL    HW199195   3.514   1.288   7.542 -1.8667  3.1279 -1.7287
32396SOL    HW299196   3.402   1.189   7.519  2.3522 -3.0347  1.1949
32397SOL     OW99197   2.013   6.031  10.778 -0.4592 -0.1624  0.0724
32397SOL    HW199198   1.963   6.109  10.801  0.2406 -0.2393  2.0731
32397SOL    HW299199   1.948   5.961  10.776 -0.7172  0.0418  0.8389
32398SOL     OW99200   4.773  10.610   7.204  0.3513 -0.4803 -0.6449
32398SOL    HW199201   4.800  10.646   7.289  1.9104  0.2018 -1.3948
32398SOL    HW299202   4.800  10.518   7.209 -1.2307 -0.9397  0.2579
32399SOL     OW99203   3.558   3.838   6.815 -0.2330  0.4138 -1.0838
32399SOL    HW199204   3.508   3.757   6.823  0.2063  0.1139 -1.2916
32399SOL    HW299205   3.639   3.821   6.863 -0.5828  1.1210 -0.2028
32400SOL     OW99206   5.178  10.974   3.879  0.3364 -0.3533 -0.0984
32400SOL    HW199207   5.267  11.006   3.897  0.9129 -0.7370 -1.9622
32400SOL    HW299208   5.190  10.880   3.863 -0.4572 -0.4625 -0.0659
32401SOL     OW99209   0.936   8.535   5.329  0.0463  0.1463 -0.0335
32401SOL    HW199210   0.944   8.603   5.396 -0.5032 -0.0883  0.2821
32401SOL    HW299211   0.849   8.548   5.292 -1.5675 -2.4644  2.4159
32402SOL     OW99212   4.867   4.752  10.224 -0.3721  0.2162 -0.3523
32402SOL    HW199213   4.851   4.683  10.159 -1.1769 -0.9424  1.0151
32402SOL    HW299214   4.929   4.713  10.286  0.0874  1.1568 -0.2060
32403SOL     OW99215  10.604   9.886  10.860  0.4387  0.0396  0.0684
32403SOL    HW199216  10.674   9.882  10.794  2.2124 -1.3318  1.9019
32403SOL    HW299217  10.570   9.796  10.863  0.9182 -0.1144  1.5273
32404SOL     OW99218   5.674   8.080  10.510  0.6162 -0.0696  1.1298
32404SOL    HW199219   5.600   8.094  10.452  1.7517  1.5227 -0.0251
32404SOL    HW299220   5.734   8.024  10.460  0.6193 -0.5638  1.6759
32405SOL     OW99221   3.744   1.544   1.653 -0.3108 -0.1201 -0.3807
32405SOL    HW199222   3.743   1.598   1.574 -2.0081  0.1606 -0.2184
32405SOL    HW299223   3.817   1.578   1.704 -3.6991  5.4001  1.8376
32406SOL     OW99224   7.684   8.254   5.689  0.5079 -0.5497  0.7357
32406SOL    HW199225   7.751   8.320   5.671  1.3731 -1.9209 -1.5524
32406SOL    HW299226   7.730   8.170   5.680 -1.3029 -1.5154 -0.0631
32407SOL     OW99227   0.220   8.126   3.969 -0.0759 -0.1339  0.1668
32407SOL    HW199228   0.225   8.188   4.042 -0.4846  0.0468  0.0474
32407SOL    HW299229   0.160   8.058   3.999  0.2994 -0.4261  0.2618
32408SOL     OW99230  11.101   4.422  10.219  0.3657  0.1793 -0.3423
32408SOL    HW199231  11.038   4.352  10.235 -0.0096 -0.0157 -2.4144
32408SOL    HW299232  11.186   4.378  10.218  0.3821  0.1547  0.6071
32409SOL     OW99233   4.241   4.427   6.690 -1.1439 -0.1261  0.2635
32409SOL    HW199234   4.290   4.421   6.608 -0.5421 -0.4475  0.6400
32409SOL    HW299235   4.265   4.348   6.738  0.5565  1.2892  1.8670
32410SOL     OW99236   3.220   0.482   4.799  0.3492 -0.1432  0.7298
32410SOL    HW199237   3.268   0.405   4.768 -0.3796  0.2994 -1.6205
32410SOL    HW299238   3.128   0.459   4.791  0.1222  0.8638  0.2969
32411SOL     OW99239   2.111   2.795   5.347 -0.2217  0.0839  0.1515
32411SOL    HW199240   2.155   2.719   5.310  1.0817  0.3791  1.0244
32411SOL    HW299241   2.182   2.848   5.384 -1.2840  0.6166  1.5305
32412SOL     OW99242   0.922   2.855   2.009  0.4995  0.0409  0.4615
32412SOL    HW199243   0.838   2.843   2.053 -0.3956  0.6648 -1.0000
32412SOL    HW299244   0.934   2.774   1.959 -0.5090  0.9178 -1.3025
32413SOL     OW99245  10.879   0.580   5.346  0.0152 -0.0409  0.3352
32413SOL    HW199246  10.959   0.559   5.298 -0.6740 -0.8169 -0.4979
32413SOL    HW299247  10.837   0.649   5.295 -0.5853 -0.6820 -0.0570
32414SOL     OW99248   2.126   4.323   7.064 -0.5211 -0.1441  0.6532
32414SOL    HW199249   2.118   4.346   6.972 -0.3801  3.6222  1.4151
32414SOL    HW299250   2.220   4.307   7.077 -0.6659 -1.5950 -0.0046
32415SOL     OW99251   7.353   7.596   3.281 -0.3901  0.2859  0.0714
32415SOL    HW199252   7.315   7.511   3.304  1.3857 -1.1352 -1.8762
32415SOL    HW299253   7.447   7.585   3.295 -0.2200  2.4041  0.9813
32416SOL     OW99254   2.352   9.685   4.458 -0.0434 -0.1699 -0.2366
32416SOL    HW199255   2.421   9.749   4.477  0.1133  0.6050 -2.9701
32416SOL    HW299256   2.392   9.600   4.475  0.9230  0.3386  0.1029
32417SOL     OW99257   8.970   3.328   5.085  0.1638 -0.4375 -0.0537
32417SOL    HW199258   9.011   3.245   5.111 -0.0188 -0.4219  0.2773
32417SOL    HW299259   8.986   3.387   5.158 -1.4579 -0.7668  0.6189
32418SOL     OW99260  10.830   1.185   6.107  0.1915 -0.4083  0.5281
32418SOL    HW199261  10.761   1.122   6.089  0.3790 -1.0052  1.7907
32418SOL    HW299262  10.795   1.269   6.077 -0.8098 -0.8113  0.5349
32419SOL     OW99263   3.281   7.096  10.982  0.9137 -0.5098  0.1589
32419SOL    HW199264   3.306   7.113  11.072  0.0477 -0.8291  0.4671
32419SOL    HW299265   3.310   7.173  10.934 -0.9811  0.8870  1.1518
32420SOL     OW99266   0.432   2.849   0.513 -0.0367  0.4994 -0.5776
32420SOL    HW199267   0.452   2.775   0.455  0.6077 -1.4882  1.9984
32420SOL    HW299268   0.343   2.831   0.543  1.3031 -1.4201  2.8329
32421SOL     OW99269   8.436   9.605   2.727  0.9564  0.6929  0.5430
32421SOL    HW199270   8.475   9.574   2.645 -0.9002  0.0563 -0.1522
32421SOL    HW299271   8.452   9.699   2.728  4.0192  0.2639  1.1924
32422SOL     OW99272   5.585   1.110   4.775  0.4541 -0.0845 -0.8671
32422SOL    HW199273   5.574   1.173   4.847  0.9598 -1.0355  0.0694
32422SOL    HW299274   5.514   1.047   4.788 -0.3660  0.5393 -2.1037
32423SOL     OW99275   1.617   2.013   5.394  0.1050 -0.0712  0.2697
32423SOL    HW199276   1.678   2.055   5.333  1.4761 -0.5659  1.2603
32423SOL    HW299277   1.633   2.056   5.478 -1.2677  0.1109  0.4610
32424SOL     OW99278   9.544   3.944   6.948  0.5340 -0.2283 -0.3326
32424SOL    HW199279   9.499   3.860   6.937 -2.4305  1.2399 -0.2358
32424SOL    HW299280   9.531   3.966   7.041  1.2261  0.4019 -0.3733
32425SOL     OW99281  10.849   8.018  10.180 -0.5904  0.3009 -0.3289
32425SOL    HW199282  10.940   8.020  10.209 -0.0835 -0.9912 -1.6869
32425SOL    HW299283  10.826   8.109  10.164  0.3769  0.6590  0.2312
32426SOL     OW99284  10.084   2.495   8.245  0.2367 -0.4359  0.1131
32426SOL    HW199285  10.055   2.513   8.155  0.1163 -0.6345  0.1110
32426SOL    HW299286  10.130   2.412   8.239 -0.2472 -0.7241  0.3302
32427SOL     OW99287   1.417   2.314   2.984  0.1276  0.3887  0.4311
32427SOL    HW199288   1.392   2.356   3.066 -0.9852  0.1075  0.2472
32427SOL    HW299289   1.499   2.268   3.005  1.9658  3.3858  0.3837
32428SOL     OW99290   9.142  11.136   5.293 -0.1512  0.0648  0.0398
32428SOL    HW199291   9.229  11.175   5.286  0.0644 -0.1299  1.3138
32428SOL    HW299292   9.084  11.198   5.249  0.6056  0.3041 -0.6253
32429SOL     OW99293   4.366   9.114   3.858  0.4873  0.1829  0.5067
32429SOL    HW199294   4.365   9.184   3.923  0.2013  0.9674 -0.3286
32429SOL    HW299295   4.382   9.034   3.909 -1.1694  0.5825  1.7090
32430SOL     OW99296   3.491   9.187   2.517 -0.1847  0.0022  0.4082
32430SOL    HW199297   3.408   9.181   2.563 -0.9424  3.1692 -0.3487
32430SOL    HW299298   3.471   9.160   2.428  0.0612 -1.0027  0.6453
32431SOL     OW99299   2.751   6.526  10.697  0.2451  0.5326 -0.7290
32431SOL    HW199300   2.774   6.466  10.768 -0.8879 -1.9502 -2.3226
32431SOL    HW299301   2.834   6.549  10.656  0.7088  0.0688 -0.0703
32432SOL     OW99302   0.967  11.063  11.092  0.0411  0.5250 -0.2247
32432SOL    HW199303   0.904  11.048  11.022  1.1236  0.5095 -1.2277
32432SOL    HW299304   0.920  11.118  11.155 -0.4071  2.0713 -1.8157
32433SOL     OW99305   9.133   1.019   4.667 -0.0204 -0.1920 -0.2677
32433SOL    HW199306   9.140   0.936   4.714 -1.2397  0.2591  0.7572
32433SOL    HW299307   9.116   0.993   4.576  0.2085 -1.0666 -0.0705
32434SOL     OW99308   6.255   0.982   2.016  0.4210  0.0118 -0.4689
32434SOL    HW199309   6.302   0.899   2.006  2.4029  0.9952  0.1276
32434SOL    HW299310   6.208   0.973   2.099  1.0458 -0.3470 -0.1432
32435SOL     OW99311   7.610   8.774   6.259 -0.2870 -0.6240  0.5010
32435SOL    HW199312   7.700   8.761   6.229 -0.2520  1.5384 -0.5696
32435SOL    HW299313   7.556   8.724   6.198  0.1140 -0.6216  0.1454
32436SOL     OW99314   0.189  10.737   5.658  0.5479  0.2248  0.0878
32436SOL    HW199315   0.274  10.714   5.622 -0.2196 -0.7075 -1.2412
32436SOL    HW299316   0.162  10.815   5.610  1.3152  1.5119  1.6475
32437SOL     OW99317   4.864  11.228   5.019  0.3297 -0.0629  0.4457
32437SOL    HW199318   4.841  11.272   4.937  0.1376 -2.8232 -1.1109
32437SOL    HW299319   4.847  11.136   5.002  2.4024 -1.0154  2.8623
32438SOL     OW99320   2.646   4.720   8.589  0.4008 -0.7781  0.2735
32438SOL    HW199321   2.568   4.698   8.641 -0.8205 -1.2276 -1.6575
32438SOL    HW299322   2.688   4.635   8.573 -0.2903 -0.9131 -1.0127
32439SOL     OW99323   5.888   3.665   2.941 -0.4794 -0.1703  0.1267
32439SOL    HW199324   5.829   3.740   2.945 -0.6554 -0.3538  1.2558
32439SOL    HW299325   5.837   3.597   2.898 -0.2749  0.3809 -1.0257
32440SOL     OW99326   7.000   9.034   6.692  0.1561 -0.7011 -0.3947
32440SOL    HW199327   6.957   8.974   6.753 -1.0118 -0.3746 -0.8591
32440SOL    HW299328   6.945   9.113   6.693  0.1368 -0.6691 -1.7989
32441SOL     OW99329   1.221   1.476   0.849  0.1947  0.0094  0.2278
32441SOL    HW199330   1.304   1.437   0.822 -0.8387 -2.4787  0.2954
32441SOL    HW299331   1.239   1.514   0.935  1.5331  0.6366 -0.3036
32442SOL     OW99332   9.362   1.888   7.517  0.9458  0.7533  0.1048
32442SOL    HW199333   9.324   1.964   7.562 -0.3081  0.6891 -0.7955
32442SOL    HW299334   9.306   1.875   7.441  1.7190 -0.4965 -0.2754
32443SOL     OW99335   2.069   7.730   6.760 -0.5192  1.1263 -0.1130
32443SOL    HW199336   1.995   7.780   6.795 -0.7926  0.4912  0.2358
32443SOL    HW299337   2.029   7.661   6.707 -0.1757  0.7365  0.1301
32444SOL     OW99338   0.108   1.731   2.715 -0.0571  0.6420  0.2693
32444SOL    HW199339   0.177   1.798   2.710 -0.2891  0.9296  0.8726
32444SOL    HW299340   0.126   1.673   2.641 -0.4492  1.9302 -0.8581
32445SOL     OW99341   4.158   7.057   3.946 -0.2096 -0.3391 -0.1319
32445SOL    HW199342   4.217   7.052   3.871  0.0596 -0.9478  0.1145
32445SOL    HW299343   4.079   7.012   3.918 -0.4614  0.2429 -0.3687
32446SOL     OW99344   9.968   8.408  10.128 -0.0489  0.6543 -0.0374
32446SOL    HW199345   9.886   8.359  10.133 -0.0826  0.3732 -2.2794
32446SOL    HW299346   9.942   8.500  10.133 -0.1967  0.5542  1.8792
32447SOL     OW99347   4.396   7.493   3.032 -0.4282 -0.2237  0.3865
32447SOL    HW199348   4.423   7.535   2.951  0.6212 -0.6111  0.5148
32447SOL    HW299349   4.325   7.433   3.007  1.5306 -2.2404 -0.7484
32448SOL     OW99350   4.976  11.100   6.648 -0.4336  0.1951  0.0758
32448SOL    HW199351   5.065  11.130   6.632 -0.4182  0.1659  0.1069
32448SOL    HW299352   4.923  11.148   6.583 -0.6408  1.5368  1.1840
32449SOL     OW99353   7.301   1.836   5.922  0.3225 -0.9910 -0.6365
32449SOL    HW199354   7.211   1.856   5.947  0.6242 -2.2769  1.7076
32449SOL    HW299355   7.307   1.741   5.926  2.2323 -0.8468  1.0620
32450SOL     OW99356   5.456   5.258   5.273 -0.0615  0.0319  0.1471
32450SOL    HW199357   5.450   5.340   5.224 -0.1892  1.4756  2.4575
32450SOL    HW299358   5.365   5.231   5.286 -0.0677  0.2636  0.5787
32451SOL     OW99359   0.783   6.442   1.189  0.0105 -0.1990 -0.3756
32451SOL    HW199360   0.698   6.477   1.164  1.0437  1.2703 -2.0395
32451SOL    HW299361   0.801   6.479   1.275 -0.4792  0.4960 -0.5704
32452SOL     OW99362  11.209   6.699   4.982  0.3523  0.0358 -0.5072
32452SOL    HW199363  11.220   6.727   4.891 -0.8170 -3.2416 -1.8179
32452SOL    HW299364  11.292   6.658   5.005  0.4286  0.2935 -0.3226
32453SOL     OW99365  10.637  10.122   1.867 -0.8782 -0.2905 -0.4730
32453SOL    HW199366  10.618  10.213   1.890  0.0344 -0.2032 -0.0259
32453SOL    HW299367  10.639  10.122   1.771  0.0207  0.3570 -0.4626
32454SOL     OW99368   3.708   2.403   7.949  0.3908 -0.3369  0.2575
32454SOL    HW199369   3.689   2.312   7.971  1.4684 -0.9636 -1.2589
32454SOL    HW299370   3.621   2.444   7.940 -0.1012 -1.1215  1.2214
32455SOL     OW99371   5.949   1.806   1.244  0.3174 -0.1530  0.3074
32455SOL    HW199372   5.975   1.812   1.336  1.0151  1.9421  0.0122
32455SOL    HW299373   5.854   1.796   1.246  0.2657  0.4885  1.2400
32456SOL     OW99374  10.917   8.062   3.587  0.3229  0.2886  0.1542
32456SOL    HW199375  10.974   8.107   3.649 -0.2915 -0.5197  1.3507
32456SOL    HW299376  10.832   8.058   3.631  0.3916 -2.1748  0.1882
32457SOL     OW99377   3.506   3.682   1.763  0.8149  0.5025 -0.1376
32457SOL    HW199378   3.466   3.761   1.727 -0.4090  0.3149  0.7472
32457SOL    HW299379   3.432   3.629   1.793  1.6651 -0.5309  0.1965
32458SOL     OW99380   9.227   6.848   2.259  0.1214 -0.0109 -0.5785
32458SOL    HW199381   9.280   6.834   2.181  2.2198  0.6483  0.6575
32458SOL    HW299382   9.234   6.942   2.278 -0.2527 -0.1669  0.4521
32459SOL     OW99383   0.845   2.627   9.146 -0.1092  0.0798 -0.4115
32459SOL    HW199384   0.827   2.637   9.052  0.0489 -0.7928 -0.5424
32459SOL    HW299385   0.775   2.570   9.177 -2.5206  3.3929  0.8358
32460SOL     OW99386   9.443   3.598   4.008 -0.3442 -0.1866  0.4705
32460SOL    HW199387   9.428   3.597   4.103  0.1931  1.4586  0.5977
32460SOL    HW299388   9.405   3.681   3.979  3.1394  1.4153 -0.0665
32461SOL     OW99389   8.074   0.754   0.994 -0.1003 -0.5676 -0.7753
32461SOL    HW199390   8.069   0.698   0.917 -0.4393 -0.5603 -0.7594
32461SOL    HW299391   7.988   0.796   0.999 -0.0799 -0.5701 -0.3926
32462SOL     OW99392   7.230   3.416   5.344  0.3680  0.1147  0.6076
32462SOL    HW199393   7.221   3.368   5.427 -0.0889 -0.4971  0.2186
32462SOL    HW299394   7.140   3.423   5.312 -0.0301  3.8334  2.0381
32463SOL     OW99395   2.959   9.254   4.975 -0.0532 -0.1439 -0.2055
32463SOL    HW199396   2.880   9.205   4.952  0.2616 -0.4180 -0.7204
32463SOL    HW299397   2.927   9.343   4.992 -0.5161 -0.3291 -0.0854
32464SOL     OW99398   1.663   7.801   2.624 -0.1710  0.0935 -0.0760
32464SOL    HW199399   1.614   7.871   2.581  0.8924 -0.0286 -1.5662
32464SOL    HW299400   1.703   7.842   2.700 -1.1194  0.6270  0.1379
32465SOL     OW99401   9.759   5.037   6.416 -0.3088  0.0760  0.7862
32465SOL    HW199402   9.669   5.018   6.389  0.1461 -1.5725  0.2935
32465SOL    HW299403   9.751   5.113   6.473 -2.1991 -0.8617  1.8892
32466SOL     OW99404   6.246   7.307   1.172  0.0554  0.1459  0.1325
32466SOL    HW199405   6.291   7.274   1.250  1.1491 -0.6530 -0.7926
32466SOL    HW299406   6.315   7.311   1.105 -0.9308  0.4481 -0.8918
32467SOL     OW99407   8.189   0.356   4.716  0.1432 -0.0431  0.1843
32467SOL    HW199408   8.211   0.272   4.675 -0.9159 -0.7691  1.0733
32467SOL    HW299409   8.179   0.417   4.642  1.4308 -0.5507 -0.4388
32468SOL     OW99410   1.342   0.007   3.990  0.4307  0.3721 -0.4515
32468SOL    HW199411   1.364  -0.085   4.004  0.1636  0.5252  1.1724
32468SOL    HW299412   1.420   0.055   4.018 -0.9993  0.8125  3.3634
32469SOL     OW99413   3.360   9.773   5.159 -0.2363  0.2458  0.3326
32469SOL    HW199414   3.343   9.729   5.242 -1.7596 -0.9996 -0.6049
32469SOL    HW299415   3.384   9.703   5.098  0.6305  1.1132 -0.3625
32470SOL     OW99416  10.087   2.047   6.267 -0.5817  0.2820 -0.5710
32470SOL    HW199417  10.152   1.983   6.295  0.3296  2.7166  3.8641
32470SOL    HW299418  10.135   2.129   6.262 -2.2929  1.2654 -3.0963
32471SOL     OW99419   5.160  10.447   7.948  0.0168 -0.7695 -0.8829
32471SOL    HW199420   5.171  10.361   7.989  0.9621 -0.2130  0.0893
32471SOL    HW299421   5.182  10.433   7.856  1.2724 -1.3656 -0.5162
32472SOL     OW99422   1.744   4.298   8.988 -0.4816 -0.4656  0.1769
32472SOL    HW199423   1.729   4.254   9.072 -2.5832 -0.6011 -0.1991
32472SOL    HW299424   1.697   4.244   8.925  0.0541  0.3020 -0.8936
32473SOL     OW99425   5.942  10.636   7.954 -0.1321 -0.3534  0.2103
32473SOL    HW199426   5.910  10.727   7.956  1.1244  0.1116  1.6116
32473SOL    HW299427   6.006  10.635   7.883  1.1839  0.3959  1.3262
32474SOL     OW99428   6.856   8.846   8.042 -0.0670  0.4694  0.2745
32474SOL    HW199429   6.881   8.934   8.014 -1.6304  0.7077 -0.5150
32474SOL    HW299430   6.936   8.794   8.034  0.0953  1.0249 -2.6764
32475SOL     OW99431   1.749   8.224  11.057  0.0833 -0.1136 -0.4329
32475SOL    HW199432   1.719   8.303  11.013  2.1400  0.2626 -1.2868
32475SOL    HW299433   1.834   8.249  11.095 -1.4077 -0.4415  3.7161
32476SOL     OW99434   1.999   2.013   0.543 -0.2930 -0.4148  0.6043
32476SOL    HW199435   2.014   1.919   0.540  0.0779 -0.3369 -0.4518
32476SOL    HW299436   2.055   2.044   0.613 -1.7156 -1.1847  2.1421
32477SOL     OW99437   1.866   3.751   2.015 -0.4391 -0.1549  0.5786
32477SOL    HW199438   1.886   3.669   2.060  2.6666  0.6846  0.9265
32477SOL    HW299439   1.939   3.808   2.036 -2.8260  3.0200  0.9418
32478SOL     OW99440   3.754   9.576   7.482  0.0414 -0.1022  0.1122
32478SOL    HW199441   3.664   9.604   7.494  0.3516  0.2950  1.7097
32478SOL    HW299442   3.756   9.537   7.394 -1.7780 -0.5393  0.2356
32479SOL     OW99443   2.501   0.323  10.828  0.3473  0.1048  0.3821
32479SOL    HW199444   2.506   0.228  10.814  1.4328  0.3247 -0.8597
32479SOL    HW299445   2.472   0.358  10.744 -3.1227  0.6947  1.6393
32480SOL     OW99446   4.156   9.890   3.869 -0.4784  1.1788 -0.0788
32480SOL    HW199447   4.065   9.891   3.899 -0.9609  0.9469 -1.4793
32480SOL    HW299448   4.168   9.803   3.831  0.4891  1.0322  0.5147
32481SOL     OW99449  10.139   2.243  10.108 -0.2596 -0.0233 -0.4585
32481SOL    HW199450  10.129   2.329  10.149 -1.0725  0.2793 -1.2350
32481SOL    HW299451  10.168   2.185  10.178 -1.6483  0.4556  0.5648
32482SOL     OW99452   9.693   0.547  10.606  0.0816 -0.3958 -0.2769
32482SOL    HW199453   9.714   0.514  10.693  0.1287 -0.7331 -0.4140
32482SOL    HW299454   9.779   0.565  10.566  0.0495  0.1510 -0.1069
32483SOL     OW99455   1.945   8.541   7.618 -0.7394 -0.0865  0.3300
32483SOL    HW199456   1.932   8.510   7.528  0.8564 -0.9487  0.3653
32483SOL    HW299457   1.939   8.636   7.612 -1.3531 -0.1676 -0.5478
32484SOL     OW99458   4.621   2.591  11.267 -0.2671  0.6728 -0.6048
32484SOL    HW199459   4.651   2.584  11.358 -0.3133  0.9995 -0.5659
32484SOL    HW299460   4.699   2.570  11.215 -0.1406  0.8715 -0.4954
32485SOL     OW99461   6.721   8.506  10.370 -0.3174  0.3844 -0.1145
32485SOL    HW199462   6.714   8.580  10.311 -1.1559  0.0038 -0.5151
32485SOL    HW299463   6.779   8.536  10.440 -0.3025  1.2604 -0.4908
32486SOL     OW99464   2.573   7.919   9.501  0.1566  0.5062  0.7074
32486SOL    HW199465   2.525   7.846   9.462 -0.4507  0.7074  1.0656
32486SOL    HW299466   2.543   7.922   9.592  0.6678  0.7905  0.8718
32487SOL     OW99467   3.301   7.700   6.446 -0.3301  0.3024 -0.3741
32487SOL    HW199468   3.247   7.779   6.435  0.5074  0.7831 -1.1707
32487SOL    HW299469   3.278   7.644   6.372  1.5538  1.3038 -1.7867
32488SOL     OW99470   1.252   2.007   0.149  0.2882  0.5485 -0.1781
32488SOL    HW199471   1.225   1.917   0.166  1.9332 -0.0684 -0.6332
32488SOL    HW299472   1.191   2.038   0.082  0.2409 -0.5483 -0.6642
32489SOL     OW99473   2.918  11.280   8.773  0.1092 -0.5657 -0.7504
32489SOL    HW199474   2.874  11.286   8.858 -0.0371  1.8126 -0.9099
32489SOL    HW299475   2.885  11.199   8.734 -3.1150  0.3477 -0.2477
32490SOL     OW99476   6.020   1.161  11.094  0.0316 -0.5624  0.1421
32490SOL    HW199477   5.935   1.181  11.055  0.2993  1.0215  0.3262
32490SOL    HW299478   6.048   1.080  11.049  0.0657  0.8228 -2.5618
32491SOL     OW99479   4.636  11.005  10.694 -0.0668 -0.0254 -0.2985
32491SOL    HW199480   4.611  10.914  10.712 -0.6586  0.2476  0.3240
32491SOL    HW299481   4.727  11.000  10.667  0.3206 -0.6796  1.0186
32492SOL     OW99482   5.622   0.961   9.789  0.1435 -0.3610  0.3899
32492SOL    HW199483   5.651   0.956   9.880  0.6202 -1.1663  0.2080
32492SOL    HW299484   5.538   0.917   9.788  0.4310 -0.9148  0.3305
32493SOL     OW99485   6.091   9.719  10.667 -0.6928  0.0459 -0.4798
32493SOL    HW199486   6.054   9.806  10.655  0.9781  0.6550 -1.5796
32493SOL    HW299487   6.184   9.729  10.647 -0.1328 -1.6687  0.9106
32494SOL     OW99488   4.333   9.551   9.513 -0.2952  0.0749 -0.3642
32494SOL    HW199489   4.358   9.558   9.420  1.9213 -1.3939  0.0370
32494SOL    HW299490   4.238   9.561   9.513 -0.4261 -0.4556 -2.8715
32495SOL     OW99491   5.261   1.994   6.663  0.0121 -0.2907  1.0073
32495SOL    HW199492   5.356   1.995   6.677  0.3876 -0.7541 -1.1290
32495SOL    HW299493   5.232   2.082   6.689  1.8091  1.5595 -2.5544
32496SOL     OW99494  10.192   5.164   6.699 -0.3519  0.0495 -0.0382
32496SOL    HW199495  10.127   5.234   6.698 -2.3831 -1.7407 -0.5893
32496SOL    HW299496  10.162   5.105   6.769  1.3215 -0.2833  0.4446
32497SOL     OW99497   3.797   3.769   7.666 -0.3196 -0.1016 -0.4228
32497SOL    HW199498   3.726   3.794   7.724  0.5581  1.4789  0.0237
32497SOL    HW299499   3.757   3.708   7.604 -2.2105  1.2410 -0.5878
32498SOL     OW99500   6.316   7.407   8.644 -0.2703  0.5668 -0.2478
32498SOL    HW199501   6.394   7.384   8.595 -0.3347  0.4281 -0.2839
32498SOL    HW299502   6.349   7.433   8.731  0.0857  3.1059 -1.0572
32499SOL     OW99503   3.981   8.559   6.971  0.1525 -0.1458 -0.3238
32499SOL    HW199504   3.890   8.557   6.941 -0.1209  3.5832 -0.2722
32499SOL    HW299505   4.031   8.522   6.899 -1.3671 -3.3200  0.0844
32500SOL     OW99506   3.238   6.907  10.709  0.1194  0.0975 -0.1015
32500SOL    HW199507   3.158   6.854  10.701 -1.1111  1.9583 -0.9113
32500SOL    HW299508   3.211   6.982  10.762  1.0604  1.2326 -1.1681
32501SOL     OW99509  10.175   2.165   5.390 -0.1680  0.4423  0.1356
32501SOL    HW199510  10.206   2.078   5.415 -1.1107  0.6093  2.0733
32501SOL    HW299511  10.091   2.150   5.346  0.1539  0.3158 -0.4397
32502SOL     OW99512   9.009   0.983   4.388 -0.2678  0.3284 -0.2238
32502SOL    HW199513   9.026   0.898   4.429  0.0912  0.3300 -0.3641
32502SOL    HW299514   8.989   0.962   4.297 -0.8033  0.3462 -0.1123
32503SOL     OW99515   6.307   3.299   4.221 -0.2234  0.0052  0.5767
32503SOL    HW199516   6.270   3.216   4.188  0.9024 -0.2906 -0.0120
32503SOL    HW299517   6.323   3.283   4.314  2.1507 -1.3152  0.0247
32504SOL     OW99518   2.807   0.533   2.211  0.3273 -0.4119 -0.0680
32504SOL    HW199519   2.733   0.481   2.180 -0.8131  0.7287  0.6302
32504SOL    HW299520   2.882   0.501   2.160 -0.5796 -1.7689 -0.6164
32505SOL     OW99521   3.109   9.497   2.846 -0.1195  0.2463  1.2665
32505SOL    HW199522   3.156   9.419   2.818 -1.6370 -0.2154 -0.1645
32505SOL    HW299523   3.018   9.481   2.820 -0.4894  2.4301  1.0240
32506SOL     OW99524   5.592   0.844   4.196  0.0397 -0.7924  0.6087
32506SOL    HW199525   5.660   0.788   4.160  3.4424  1.6686  2.6166
32506SOL    HW299526   5.556   0.795   4.270 -0.6447 -2.2053 -0.6071
32507SOL     OW99527   9.629   3.387   1.269 -0.0503  0.0998 -0.3072
32507SOL    HW199528   9.691   3.434   1.326 -0.8545  0.0550  0.6277
32507SOL    HW299529   9.645   3.295   1.288 -0.7112  0.0999  0.2905
32508SOL     OW99530   5.794  11.238   8.171 -0.0634 -0.0503  0.9428
32508SOL    HW199531   5.829  11.293   8.101 -1.4350 -1.2283 -0.7754
32508SOL    HW299532   5.870  11.193   8.207  0.5548 -0.5360 -0.8530
32509SOL     OW99533   4.552   6.078   8.939  0.2287 -0.3911 -0.4485
32509SOL    HW199534   4.483   6.142   8.954  1.4397  0.8707 -0.1243
32509SOL    HW299535   4.512   6.013   8.881 -1.0404  0.6157 -0.7359
32510SOL     OW99536   3.225  10.013   1.228  0.5972  0.0996  0.3989
32510SOL    HW199537   3.135  10.047   1.231  0.0447 -1.0614 -1.5423
32510SOL    HW299538   3.270  10.072   1.168  1.0408  0.3870  0.9963
32511SOL     OW99539   1.392   7.222   9.472  0.1459  0.1109  0.2673
32511SOL    HW199540   1.481   7.240   9.503 -0.2593  1.2167  0.8270
32511SOL    HW299541   1.403   7.153   9.407  1.1568 -1.5790  2.1078
32512SOL     OW99542   5.933   0.335   6.275  0.3656 -0.1913  0.3144
32512SOL    HW199543   5.884   0.254   6.261  0.7855 -0.3465 -0.3811
32512SOL    HW299544   5.882   0.402   6.230  0.6878 -0.3218 -0.2622
32513SOL     OW99545   9.380   8.793   7.087 -0.6599 -0.3555 -0.3879
32513SOL    HW199546   9.453   8.853   7.070 -0.8343 -0.3317 -1.0969
32513SOL    HW299547   9.392   8.723   7.023 -0.3726 -1.1628  0.5374
32514SOL     OW99548   7.501  10.734   9.560  0.0692 -0.1062  0.2736
32514SOL    HW199549   7.472  10.643   9.568  0.8969 -0.8375 -3.2907
32514SOL    HW299550   7.457  10.779   9.632 -1.6721 -3.0065  1.2103
32515SOL     OW99551   6.372  10.104   5.343 -0.0806  0.0295 -0.3251
32515SOL    HW199552   6.362  10.156   5.423 -1.2608  0.5508 -0.7828
32515SOL    HW299553   6.328  10.156   5.276 -0.7915 -1.3028 -0.9178
32516SOL     OW99554   6.448   2.356   2.265 -0.3115  0.2367  0.4920
32516SOL    HW199555   6.498   2.284   2.226 -1.1887  0.2532 -0.7499
32516SOL    HW299556   6.478   2.361   2.355  0.8146 -0.7344  0.1917
32517SOL     OW99557   8.192   7.630   5.437  1.1363  0.6367  0.0018
32517SOL    HW199558   8.199   7.710   5.386 -0.8512  0.2176 -1.0524
32517SOL    HW299559   8.216   7.560   5.376  0.5145  0.2618  0.1765
32518SOL     OW99560   1.113   3.276  10.459  0.2528 -1.0239  0.2530
32518SOL    HW199561   1.113   3.251  10.551 -0.8305  0.3524  0.6670
32518SOL    HW299562   1.202   3.309  10.443  1.0436 -3.0722  0.2427
32519SOL     OW99563   8.858  10.422   9.400  0.7293 -0.2055 -0.4240
32519SOL    HW199564   8.898  10.508   9.406  3.5221 -1.4928  1.0187
32519SOL    HW299565   8.881  10.391   9.312 -0.5955  0.5738 -1.0893
32520SOL     OW99566   0.625   1.571   6.942 -0.0273 -0.0638 -0.0554
32520SOL    HW199567   0.653   1.628   6.870 -0.5799  1.7525  1.0960
32520SOL    HW299568   0.541   1.607   6.970 -0.7344 -1.8839  0.3182
32521SOL     OW99569   9.404   6.921   6.635  0.0758 -0.1048 -0.2403
32521SOL    HW199570   9.472   6.895   6.573  0.8030  0.3560  0.3383
32521SOL    HW299571   9.368   6.839   6.668  0.4735 -0.3601 -0.4328
32522SOL     OW99572   2.732   1.854   6.460 -0.3267  0.2344  0.6192
32522SOL    HW199573   2.783   1.808   6.527 -0.2640  0.5270  0.7722
32522SOL    HW299574   2.663   1.792   6.436  0.7211 -0.6080 -0.3635
32523SOL     OW99575   1.293   3.462   6.739  0.4889 -0.3197 -0.3997
32523SOL    HW199576   1.332   3.548   6.725  1.7579 -0.7795  0.2015
32523SOL    HW299577   1.342   3.424   6.812 -1.8377 -0.4838  1.2183
32524SOL     OW99578  10.246   5.133  10.840  0.6279  0.1993 -0.3242
32524SOL    HW199579  10.280   5.087  10.763 -1.9448 -0.8787 -0.9400
32524SOL    HW299580  10.272   5.079  10.914  0.3736 -0.5240 -0.7510
32525SOL     OW99581   6.949   9.099   7.942  0.2910 -0.1968 -0.2089
32525SOL    HW199582   6.909   9.185   7.940  2.3200  0.8101 -0.0365
32525SOL    HW299583   6.958   9.075   7.849 -1.2639 -0.7708 -0.2512
32526SOL     OW99584   1.910   2.053   6.123 -0.3260 -0.0202 -0.6115
32526SOL    HW199585   1.950   1.967   6.138  1.6714  0.7460 -1.1915
32526SOL    HW299586   1.822   2.033   6.089 -1.1759 -1.7778  2.2515
32527SOL     OW99587   6.907   3.980  10.383 -0.2637 -0.3645 -0.1780
32527SOL    HW199588   6.968   3.967  10.456  0.3446 -1.7404 -0.8745
32527SOL    HW299589   6.954   3.945  10.307 -1.5380 -0.5244 -0.9187
32528SOL     OW99590   4.346   8.266   2.825 -0.3407 -0.0554 -0.6201
32528SOL    HW199591   4.430   8.303   2.852 -0.2170  0.3163 -1.4757
32528SOL    HW299592   4.345   8.275   2.729 -1.8786  1.0859 -0.5342
32529SOL     OW99593   5.601   1.447   0.005 -0.5728  0.0228 -0.6857
32529SOL    HW199594   5.571   1.538   0.001 -2.8834 -0.5035  1.6068
32529SOL    HW299595   5.696   1.453   0.015 -0.2699  1.9953 -3.6471
32530SOL     OW99596   4.242   0.225   8.911  0.3768  0.9619 -0.4091
32530SOL    HW199597   4.285   0.299   8.868 -0.4316  0.8454 -1.4452
32530SOL    HW299598   4.201   0.176   8.840 -2.0684  1.4604  0.5484
32531SOL     OW99599   3.482   6.088   5.133 -0.5146  0.0126 -0.1604
32531SOL    HW199600   3.528   6.162   5.093 -1.2477  0.8130  0.4385
32531SOL    HW299601   3.402   6.078   5.081 -0.0517 -0.8793 -0.7252
32532SOL     OW99602   1.822   0.814  10.916  0.3213  0.6792 -0.4933
32532SOL    HW199603   1.758   0.850  10.854 -0.7254 -0.8843 -0.3812
32532SOL    HW299604   1.887   0.771  10.860  0.3716  0.8308 -0.5535
32533SOL     OW99605   2.469   0.156   2.308  0.2562  0.3089 -0.2098
32533SOL    HW199606   2.423   0.171   2.226  0.6286 -0.3960 -0.5603
32533SOL    HW299607   2.412   0.193   2.375 -0.7372 -0.3732 -0.6481
32534SOL     OW99608   8.474   2.193   1.517 -0.4448 -0.4402  0.1329
32534SOL    HW199609   8.558   2.151   1.497  0.6087  0.7854  1.7505
32534SOL    HW299610   8.471   2.268   1.457  0.6206  0.6679  1.3830
32535SOL     OW99611  10.876   8.851   3.884 -0.8556  0.4503  0.4842
32535SOL    HW199612  10.879   8.784   3.953 -1.5592 -0.6997 -0.5646
32535SOL    HW299613  10.802   8.825   3.829 -1.7987  2.6867  0.6124
32536SOL     OW99614   1.260   6.069   3.671  0.1444 -0.1739 -0.4384
32536SOL    HW199615   1.256   5.993   3.730 -0.7081  0.7094  0.7032
32536SOL    HW299616   1.280   6.032   3.585  1.3863 -1.5201  0.3785
32537SOL     OW99617   3.309   4.502   0.845  0.9692 -0.0527 -0.5812
32537SOL    HW199618   3.321   4.487   0.938  0.3533 -2.1056 -0.7721
32537SOL    HW299619   3.215   4.520   0.835  0.8738 -0.6701 -0.8734
32538SOL     OW99620   7.202   8.481   1.182  0.3043  0.1366 -0.4288
32538SOL    HW199621   7.189   8.500   1.089 -0.4416 -0.3117 -0.4193
32538SOL    HW299622   7.189   8.566   1.225  0.8371  0.3858 -0.7426
32539SOL     OW99623  11.252   0.993   8.635 -0.3889 -0.0878  0.2880
32539SOL    HW199624  11.277   1.032   8.718  0.1756  1.4731 -0.5695
32539SOL    HW299625  11.188   0.926   8.658  2.3770 -2.2736  2.2920
32540SOL     OW99626   4.875   1.006   2.189  0.0230  0.6523 -0.5115
32540SOL    HW199627   4.803   1.069   2.191  0.1699  0.8094  0.4404
32540SOL    HW299628   4.941   1.046   2.132  0.7039  2.0504  1.1760
32541SOL     OW99629   7.213   2.424   7.786 -0.1273 -0.2500 -0.4304
32541SOL    HW199630   7.301   2.461   7.787  1.3760 -3.4784  0.1894
32541SOL    HW299631   7.176   2.446   7.871 -0.9215  2.9939 -1.4730
32542SOL     OW99632   3.371   0.516   3.467  0.2180  0.6894  1.2645
32542SOL    HW199633   3.423   0.490   3.542 -0.5681 -2.0002  0.9580
32542SOL    HW299634   3.431   0.507   3.392 -0.6953 -3.1168  0.8151
32543SOL     OW99635   1.766  10.647   0.849  0.3622  0.2945  0.1994
32543SOL    HW199636   1.771  10.735   0.887 -0.7495  0.8543 -0.8700
32543SOL    HW299637   1.845  10.603   0.879  0.5554  1.4035  1.3886
32544SOL     OW99638  10.919  10.612   6.530  0.1116  0.3953  0.3594
32544SOL    HW199639  10.929  10.535   6.586  0.2950  0.0625 -0.1238
32544SOL    HW299640  10.977  10.596   6.456 -2.1287 -0.4577 -1.3115
32545SOL     OW99641  10.370   8.236   7.214 -0.0815  0.8476  0.0588
32545SOL    HW199642  10.362   8.328   7.238 -0.2819  1.3804 -1.8676
32545SOL    HW299643  10.462   8.225   7.188 -0.3379  0.8530 -0.9129
32546SOL     OW99644   1.735   8.215   1.469 -0.3929  0.5911  0.3059
32546SOL    HW199645   1.662   8.227   1.531  0.0254 -0.5156  1.0323
32546SOL    HW299646   1.788   8.294   1.481 -1.3741  1.3562 -0.1372
32547SOL     OW99647   9.376  10.171   2.533 -0.4257 -0.2041  0.1987
32547SOL    HW199648   9.288  10.162   2.569  0.2562 -0.5150  1.8897
32547SOL    HW299649   9.363  10.174   2.439 -2.3275  0.8045  0.4503
32548SOL     OW99650   4.945   9.817  10.944  0.8945  0.1539 -0.0010
32548SOL    HW199651   4.981   9.732  10.971  1.1252  0.0620 -0.5837
32548SOL    HW299652   4.895   9.798  10.865 -1.0822  0.1583  1.1935
32549SOL     OW99653   0.646   6.429  10.301  0.3021  0.3200  0.1154
32549SOL    HW199654   0.621   6.486  10.228  0.6060 -0.0333 -0.2723
32549SOL    HW299655   0.602   6.466  10.377  2.4785  2.5819  0.3801
32550SOL     OW99656  10.059   1.020   1.855  0.1733  0.1010 -0.1853
32550SOL    HW199657  10.074   1.008   1.948  0.3056  0.7675 -0.1171
32550SOL    HW299658  10.135   1.070   1.824 -1.1871  2.3936 -0.0783
32551SOL     OW99659   6.970   5.170   7.250 -0.0766 -0.5692 -0.1500
32551SOL    HW199660   6.983   5.094   7.193 -0.9085 -2.3015  1.8530
32551SOL    HW299661   7.006   5.144   7.334 -1.1029  0.9729  0.8148
32552SOL     OW99662   3.141   6.817  10.194 -0.0601  0.2410  0.0838
32552SOL    HW199663   3.212   6.874  10.163 -1.0663  2.4160  1.5539
32552SOL    HW299664   3.185   6.754  10.252  0.8316  0.8200  0.0597
32553SOL     OW99665   9.968   5.143   2.213  0.0518 -0.3931 -0.0644
32553SOL    HW199666   9.877   5.120   2.230 -0.6445  2.6864  0.9873
32553SOL    HW299667   9.965   5.203   2.138  1.3155 -0.8583 -0.5237
32554SOL     OW99668   6.596   0.429   2.536 -0.2365  0.2870  0.5416
32554SOL    HW199669   6.657   0.463   2.602 -0.1407  0.3604  0.4150
32554SOL    HW299670   6.509   0.452   2.570 -0.1538  1.1211  0.1982
32555SOL     OW99671   4.569   4.592   3.329 -0.2130  0.6556 -0.2693
32555SOL    HW199672   4.512   4.525   3.366  0.5914 -1.3682 -2.4525
32555SOL    HW299673   4.628   4.615   3.401  1.2224 -2.9937 -0.0383
32556SOL     OW99674   1.212   7.976   5.912 -0.4919 -0.2252  0.2164
32556SOL    HW199675   1.156   8.050   5.937  0.5274  0.8336 -0.5558
32556SOL    HW299676   1.269   7.962   5.988  0.6066  1.0573 -0.3427
32557SOL     OW99677   8.188   6.031   4.836  0.1594 -0.7111  0.3649
32557SOL    HW199678   8.119   6.046   4.901  0.5400  2.6356  0.1669
32557SOL    HW299679   8.265   6.007   4.888  0.0164  0.1855  1.0123
32558SOL     OW99680   0.501   8.734   0.037 -0.7342  0.1486  0.3741
32558SOL    HW199681   0.496   8.737   0.133 -0.6450 -0.5247  0.4042
32558SOL    HW299682   0.476   8.644   0.015 -2.4816  0.7824 -0.3550
32559SOL     OW99683   3.119  10.168   7.444 -0.4004  0.1420  0.0915
32559SOL    HW199684   3.144  10.253   7.405 -2.3026  0.6283 -0.1540
32559SOL    HW299685   3.175  10.160   7.521  0.1732  1.3852 -0.1655
32560SOL     OW99686   7.403  10.146   4.884  0.0074 -0.1480  0.1595
32560SOL    HW199687   7.357  10.136   4.801  0.5197 -0.3114 -0.1094
32560SOL    HW299688   7.447  10.230   4.877 -0.3543  0.0692  0.4697
32561SOL     OW99689   9.106   6.624   7.397 -0.4028  0.0938 -0.5613
32561SOL    HW199690   9.047   6.591   7.464 -0.9114  0.0326 -1.0319
32561SOL    HW299691   9.194   6.611   7.434 -0.6270 -0.9483 -0.3577
32562SOL     OW99692   1.583   4.782  11.042 -0.5007  0.1361 -0.2452
32562SOL    HW199693   1.658   4.814  10.990  0.7115 -0.7849  0.8757
32562SOL    HW299694   1.617   4.707  11.090 -2.2851 -0.5700  0.0020
32563SOL     OW99695   3.053   4.009   6.876 -0.6851 -0.0367 -0.3966
32563SOL    HW199696   3.140   3.980   6.902 -1.7469 -2.2420  1.0271
32563SOL    HW299697   3.045   4.098   6.910 -0.0343 -0.8985  2.1847
32564SOL     OW99698   3.675  10.282   5.615 -0.5353 -0.3310 -0.0814
32564SOL    HW199699   3.623  10.332   5.678 -0.5073 -1.5196  0.9137
32564SOL    HW299700   3.695  10.345   5.545 -0.1598  1.1550  1.3077
32565SOL     OW99701   1.182  10.382   7.679  0.4297  0.1270 -0.0188
32565SOL    HW199702   1.143  10.459   7.637  0.6833 -0.3275 -1.1372
32565SOL    HW299703   1.247  10.418   7.739  0.1967  0.8055 -0.1652
32566SOL     OW99704   1.900   4.928   1.268  0.2493 -0.7055 -0.3543
32566SOL    HW199705   1.914   4.849   1.216  0.5183 -0.8066 -0.1252
32566SOL    HW299706   1.985   4.947   1.307 -0.2573 -1.4044  1.1676
32567SOL     OW99707   8.547   8.226   5.675 -0.0822  0.2209  0.7968
32567SOL    HW199708   8.539   8.225   5.579  0.3167 -1.1199  0.7625
32567SOL    HW299709   8.487   8.296   5.703 -1.7461 -0.6824 -0.3038
32568SOL     OW99710   9.019   5.980   0.720 -0.6895 -0.7044  0.1885
32568SOL    HW199711   9.023   5.949   0.630 -0.3388  1.1593 -0.4690
32568SOL    HW299712   9.107   6.012   0.739 -0.9730 -0.3221  0.9160
32569SOL     OW99713   3.682   5.363   4.757  0.0110  0.2748 -0.7248
32569SOL    HW199714   3.662   5.410   4.838  0.5698 -2.7323  1.3023
32569SOL    HW299715   3.777   5.372   4.748  0.0178  0.1677 -0.7568
32570SOL     OW99716   0.675   8.553   5.463  0.2174  0.3006 -0.5612
32570SOL    HW199717   0.624   8.634   5.468 -2.6013 -1.2414 -1.8185
32570SOL    HW299718   0.613   8.488   5.428  1.8985 -2.7686  1.6648
32571SOL     OW99719   3.714   2.863  11.243  0.4587  0.3208  0.4282
32571SOL    HW199720   3.669   2.853  11.327 -0.3044 -1.7814 -0.1939
32571SOL    HW299721   3.731   2.957  11.237 -0.8525  0.7319  2.2174
32572SOL     OW99722   2.732   3.280   5.886 -0.0570 -0.3947  1.0397
32572SOL    HW199723   2.752   3.211   5.823  0.1719 -1.1041  1.8688
32572SOL    HW299724   2.816   3.321   5.905 -0.2471  0.3954  0.2514
32573SOL     OW99725   4.134   7.666   5.799  0.6732  0.0524 -0.3232
32573SOL    HW199726   4.142   7.642   5.891  0.9458 -1.6570 -0.7473
32573SOL    HW299727   4.057   7.618   5.769  1.3319 -0.4547 -1.2687
32574SOL     OW99728  10.503   4.927   2.310  0.2634  0.1518  0.3848
32574SOL    HW199729  10.429   4.978   2.278 -1.0783 -2.4203 -0.9425
32574SOL    HW299730  10.565   4.927   2.238  0.0160 -0.5196  0.1685
32575SOL     OW99731   7.676   9.716   2.480 -0.2238 -0.3539 -0.2077
32575SOL    HW199732   7.688   9.785   2.546  2.7547 -1.1054  0.1707
32575SOL    HW299733   7.621   9.651   2.523 -1.4540  0.8684  0.1375
32576SOL     OW99734   9.656   3.982   3.354  1.3645  0.8400 -0.1712
32576SOL    HW199735   9.583   3.960   3.412  2.9921 -0.9940  1.3353
32576SOL    HW299736   9.656   4.078   3.351 -0.2594  0.9127  0.8792
32577SOL     OW99737   5.322  10.292   4.729  0.1920 -0.2666 -0.2251
32577SOL    HW199738   5.329  10.197   4.718  0.4772 -0.2122 -0.5470
32577SOL    HW299739   5.399  10.327   4.683 -0.4052  0.1706 -0.9178
32578SOL     OW99740   5.210   1.600   6.891 -0.4549  0.6232  0.1635
32578SOL    HW199741   5.204   1.613   6.796  0.5240 -1.0040 -0.1532
32578SOL    HW299742   5.120   1.610   6.923 -0.9466  0.2164 -1.0646
32579SOL     OW99743   3.937   8.823  10.991 -0.0640  0.2998  0.4996
32579SOL    HW199744   3.981   8.902  11.022 -0.4186  0.9313 -0.5799
32579SOL    HW299745   3.845   8.835  11.018  0.1240 -0.3737  1.5067
32580SOL     OW99746  10.790  10.754   7.933 -0.2403 -0.1185 -0.2348
32580SOL    HW199747  10.767  10.680   7.878  1.4520 -0.0513 -1.1003
32580SOL    HW299748  10.871  10.788   7.896  0.3648  0.6412  1.6272
32581SOL     OW99749   7.367   0.623   8.381 -0.2770 -0.2731 -0.0386
32581SOL    HW199750   7.449   0.657   8.347 -1.3664  1.9871 -0.6173
32581SOL    HW299751   7.310   0.615   8.304 -0.8549 -1.0738  0.4448
32582SOL     OW99752   4.277   0.840   1.105  0.8449 -0.0059 -0.1074
32582SOL    HW199753   4.364   0.826   1.143  0.5673 -1.5690  0.0462
32582SOL    HW299754   4.293   0.897   1.030  2.0535 -0.4195 -0.2017
32583SOL     OW99755   6.916   1.946  10.313  0.0718 -0.2720 -0.5542
32583SOL    HW199756   6.957   2.017  10.262  0.1844  0.3316  0.3508
32583SOL    HW299757   6.932   1.867  10.261  1.3916  0.1152 -0.7892
32584SOL     OW99758   5.502  10.635   4.808  0.4329 -0.4248  0.1751
32584SOL    HW199759   5.474  10.725   4.825  3.0680  0.0028  3.3496
32584SOL    HW299760   5.423  10.582   4.818 -0.4386  1.1862  2.6284
32585SOL     OW99761   7.407   6.201   5.581  0.5635  1.0161  0.0068
32585SOL    HW199762   7.485   6.211   5.635  0.0576  2.5584  0.4981
32585SOL    HW299763   7.417   6.266   5.512  0.1906  0.5111 -0.5321
32586SOL     OW99764   8.265   8.217   2.673  0.1367  0.0229 -0.1703
32586SOL    HW199765   8.297   8.194   2.585  0.5398  1.8603 -0.5580
32586SOL    HW299766   8.298   8.147   2.729  1.0399 -0.4896 -1.2761
32587SOL     OW99767   7.203   0.729   6.308  0.1126  0.1046  0.3975
32587SOL    HW199768   7.189   0.651   6.254  2.0619 -0.9157  1.2734
32587SOL    HW299769   7.231   0.797   6.246 -0.3902 -0.2360 -0.2126
32588SOL     OW99770   4.932   9.720   6.935 -0.6583  0.4756 -0.1039
32588SOL    HW199771   4.882   9.758   7.008 -1.4148 -1.1234  0.2550
32588SOL    HW299772   4.960   9.634   6.967 -0.6107 -0.0731 -1.5416
32589SOL     OW99773   6.309   6.672   4.001 -0.4116  0.1209 -0.4420
32589SOL    HW199774   6.321   6.661   4.096  1.6233 -2.3355 -0.8849
32589SOL    HW299775   6.321   6.766   3.986 -1.5870  0.7081  1.7760
32590SOL     OW99776   0.825   0.579   7.530  0.4150 -0.4098 -0.0092
32590SOL    HW199777   0.767   0.629   7.472 -2.2254 -3.5241 -0.3360
32590SOL    HW299778   0.772   0.564   7.609  2.0906 -0.5660  1.1350
32591SOL     OW99779   5.777   0.032  10.955  0.0539 -0.8879 -0.2483
32591SOL    HW199780   5.716   0.027  11.028 -1.0168  0.5551 -0.9904
32591SOL    HW299781   5.724   0.064  10.882  1.7868  0.8397 -0.8203
32592SOL     OW99782   1.220   9.190   1.131 -0.3410 -0.7625  0.1844
32592SOL    HW199783   1.169   9.111   1.115 -2.2241 -0.1441  2.6001
32592SOL    HW299784   1.159   9.250   1.175  2.0292  0.6170  1.8396
32593SOL     OW99785   0.047   4.495   5.899  0.1399 -0.0117 -0.2133
32593SOL    HW199786  -0.000   4.418   5.867 -1.9602  1.3948 -0.7262
32593SOL    HW299787   0.135   4.486   5.864  0.0872 -2.3907  0.1370
32594SOL     OW99788   8.608   7.201   7.871 -0.1150  0.6265  0.6047
32594SOL    HW199789   8.520   7.207   7.908  0.3908  0.0144  1.9810
32594SOL    HW299790   8.645   7.122   7.909  0.7062  0.3568 -0.7023
32595SOL     OW99791   4.844   9.062   9.351 -0.5793  0.3541  0.0763
32595SOL    HW199792   4.802   8.977   9.364  0.8029 -0.1402  1.5792
32595SOL    HW299793   4.777   9.126   9.376 -0.9863 -0.3551  0.8144
32596SOL     OW99794  10.347   2.868   6.555  0.4243 -0.1608  0.6528
32596SOL    HW199795  10.432   2.906   6.579  0.4357  0.8836 -0.9198
32596SOL    HW299796  10.303   2.855   6.639  1.6026  0.5780  1.4230
32597SOL     OW99797   7.691   3.591   8.946  0.3094 -0.3779 -0.4889
32597SOL    HW199798   7.749   3.582   9.022 -1.5499  0.0883  1.0881
32597SOL    HW299799   7.745   3.632   8.879  3.0599 -3.9454 -0.7637
32598SOL     OW99800   9.404   7.713   5.166 -0.5247  0.4322 -1.0255
32598SOL    HW199801   9.395   7.619   5.176 -1.6052  0.7087  1.2846
32598SOL    HW299802   9.318   7.742   5.134  0.0182  0.5796 -2.3898
32599SOL     OW99803   9.318   9.753   3.909 -0.0714 -0.6075 -0.1258
32599SOL    HW199804   9.353   9.743   3.821  0.1829  1.2704 -0.2765
32599SOL    HW299805   9.380   9.812   3.953 -0.2268 -1.4407  1.2987
32600SOL     OW99806   4.578   2.660   3.350  0.1214 -0.3369  0.1134
32600SOL    HW199807   4.629   2.696   3.278  0.3141 -1.4276 -0.3201
32600SOL    HW299808   4.493   2.639   3.311 -0.6991  1.4814  0.8328
32601SOL     OW99809   9.623   8.243   3.639  0.2236 -0.3772  0.0404
32601SOL    HW199810   9.663   8.305   3.701  0.2394 -0.0423 -0.3042
32601SOL    HW299811   9.552   8.203   3.689  2.8568 -3.3414  1.8053
32602SOL     OW99812  10.739   8.197   6.506 -0.1530 -0.2008 -0.5197
32602SOL    HW199813  10.716   8.244   6.586  0.8976 -0.0117 -0.3059
32602SOL    HW299814  10.659   8.152   6.480 -0.3741 -0.7091  0.9393
32603SOL     OW99815   2.317   0.079   5.324  0.6868  0.4906  0.1641
32603SOL    HW199816   2.354   0.133   5.394  0.6097  0.4739  0.2190
32603SOL    HW299817   2.254   0.136   5.281  1.6831  0.9322 -0.7427
32604SOL     OW99818  10.593   4.871   8.848  0.1894  0.7086 -0.2379
32604SOL    HW199819  10.518   4.834   8.801 -0.9519  1.3416  1.0322
32604SOL    HW299820  10.650   4.796   8.864 -1.4681 -0.3212  1.1656
32605SOL     OW99821   6.892   8.891   9.268 -0.3480  1.0314 -0.0990
32605SOL    HW199822   6.809   8.938   9.274 -0.8998  0.0060  0.5462
32605SOL    HW299823   6.903   8.849   9.353  0.6809  0.8793 -0.2853
32606SOL     OW99824   9.368  11.124  10.884 -0.5706  0.2228  0.2751
32606SOL    HW199825   9.326  11.038  10.896 -0.2926  0.0956  0.3533
32606SOL    HW299826   9.303  11.176  10.837 -0.0093 -0.6535 -1.6128
32607SOL     OW99827   0.172   1.590   3.603  0.1235  0.1785 -0.2394
32607SOL    HW199828   0.184   1.664   3.663  0.1013  3.0071 -3.3999
32607SOL    HW299829   0.255   1.543   3.605  1.0939  1.8398 -0.0247
32608SOL     OW99830   4.294   0.936   8.405  0.0970 -0.5303  0.1600
32608SOL    HW199831   4.299   0.937   8.501 -0.3664 -1.8211  0.2171
32608SOL    HW299832   4.293   0.843   8.382 -0.0175 -0.2354 -1.0878
32609SOL     OW99833  11.176   6.654   2.830 -0.4116 -0.2048 -0.0680
32609SOL    HW199834  11.214   6.665   2.743 -2.4605  1.8415 -0.8269
32609SOL    HW299835  11.232   6.706   2.888  0.2632 -0.5840 -0.3706
32610SOL     OW99836   7.917   4.551   3.654  0.2451 -0.6305 -0.9784
32610SOL    HW199837   7.897   4.541   3.561 -0.2268 -0.7737 -0.8649
32610SOL    HW299838   7.855   4.493   3.698  1.0655 -1.2532 -0.6238
32611SOL     OW99839   3.438   5.486   8.458 -0.6765  0.7948  0.0960
32611SOL    HW199840   3.431   5.391   8.454 -1.6599  0.8633 -0.0745
32611SOL    HW299841   3.512   5.502   8.517  0.0743 -0.0732 -0.5690
32612SOL     OW99842   1.385   0.494  10.819  0.8596  0.5438  0.8835
32612SOL    HW199843   1.380   0.583  10.855  1.2995  0.7150  0.5313
32612SOL    HW299844   1.295   0.472  10.797  0.7003  0.7676  1.2881
32613SOL     OW99845   0.480   3.045   5.331  0.1487  1.2056  0.3721
32613SOL    HW199846   0.564   3.013   5.364  0.4342  1.8922  0.3145
32613SOL    HW299847   0.475   3.012   5.242  0.6008  1.6176  0.1955
32614SOL     OW99848   9.053  10.002   9.605  0.0417 -0.1810  0.6898
32614SOL    HW199849   9.130  10.011   9.662  0.6320  0.3440 -0.1553
32614SOL    HW299850   9.069  10.065   9.534 -0.7197 -0.7439  0.0045
32615SOL     OW99851   0.004   7.466   3.947 -0.2090 -0.1433  0.2832
32615SOL    HW199852   0.025   7.534   4.011 -0.4994 -0.5429  0.8131
32615SOL    HW299853   0.038   7.499   3.864  2.4850 -0.7052  1.0652
32616SOL     OW99854   6.575   8.540   2.962 -0.2815 -0.4809 -0.3426
32616SOL    HW199855   6.523   8.617   2.985 -1.4644 -1.4639  0.3583
32616SOL    HW299856   6.654   8.548   3.016 -1.7145 -1.2432  2.0046
32617SOL     OW99857   6.535   8.428   0.614 -0.4658 -0.0740 -0.3941
32617SOL    HW199858   6.562   8.519   0.624 -1.1833 -0.0329  1.5124
32617SOL    HW299859   6.443   8.433   0.588 -0.8421 -0.2287  0.8388
32618SOL     OW99860   4.704   0.772   8.842 -0.0834 -0.0006  0.3524
32618SOL    HW199861   4.725   0.721   8.921 -1.5656 -0.3634  0.5465
32618SOL    HW299862   4.662   0.851   8.875  0.6304  0.5419 -0.0268
32619SOL     OW99863   8.733   2.149  11.147  0.0998  0.4456 -1.0314
32619SOL    HW199864   8.807   2.208  11.162  0.0347  0.5403 -1.0799
32619SOL    HW299865   8.765   2.086  11.082  0.1899  0.3908 -0.9336
32620SOL     OW99866   2.183   3.772   1.615  0.1671 -0.5544  1.0548
32620SOL    HW199867   2.200   3.787   1.522  0.1788 -0.3454  1.0895
32620SOL    HW299868   2.204   3.680   1.629 -1.1276 -0.9419  0.5606
32621SOL     OW99869   9.486   3.063   6.724  0.1785 -0.3532  0.4839
32621SOL    HW199870   9.533   3.087   6.644 -0.8110  0.0374  0.0074
32621SOL    HW299871   9.554   3.026   6.780  0.5924 -2.4570 -1.2619
32622SOL     OW99872   5.628   8.887   0.498  0.5966  0.7024 -0.1304
32622SOL    HW199873   5.571   8.870   0.573  0.0801 -0.7103 -0.8004
32622SOL    HW299874   5.570   8.923   0.431  0.9322  1.3297 -0.0978
32623SOL     OW99875   7.211   1.392   6.710 -0.4057  0.2339  0.1029
32623SOL    HW199876   7.134   1.436   6.676  0.2658  0.9519 -0.5204
32623SOL    HW299877   7.273   1.462   6.731  0.4392 -0.3541 -0.3136
32624SOL     OW99878   7.242   6.644   2.000  0.0520 -0.0610  0.2555
32624SOL    HW199879   7.274   6.561   1.967  1.1509  1.0048 -1.5468
32624SOL    HW299880   7.321   6.691   2.029 -0.4367  0.7243  0.3706
32625SOL     OW99881  10.648   9.253  11.059 -0.5198 -0.1275  0.8489
32625SOL    HW199882  10.737   9.285  11.073 -0.7177  1.6938 -1.5261
32625SOL    HW299883  10.616   9.232  11.147  1.4570  1.3580  1.9970
32626SOL     OW99884   9.515   6.998   0.394 -0.4356 -0.2818 -0.0371
32626SOL    HW199885   9.535   7.091   0.387 -0.4152 -0.2264  0.6534
32626SOL    HW299886   9.528   6.978   0.487 -0.6859 -0.9164 -0.1344
32627SOL     OW99887  10.958   1.956   9.541 -0.0674  0.4708  0.3885
32627SOL    HW199888  10.905   1.930   9.466  0.2170  1.2518 -0.0957
32627SOL    HW299889  11.045   1.920   9.523  0.2190  1.3758 -0.0796
32628SOL     OW99890  10.171   0.293   4.588 -0.5005  0.2594  0.0012
32628SOL    HW199891  10.253   0.332   4.556 -0.1222  0.4500  1.1764
32628SOL    HW299892  10.174   0.304   4.683 -1.6790 -0.1570  0.1037
32629SOL     OW99893   4.353   9.265   2.336  0.5495 -0.0027 -0.1681
32629SOL    HW199894   4.361   9.281   2.430 -0.9682 -0.4744  0.0759
32629SOL    HW299895   4.442   9.273   2.302  1.4397 -1.6096  1.5948
32630SOL     OW99896   7.998   6.177   5.914 -0.5028 -0.3965 -0.6529
32630SOL    HW199897   8.006   6.272   5.920 -1.7094 -0.2418 -1.1344
32630SOL    HW299898   8.083   6.144   5.943 -0.9194  0.7162  2.1465
32631SOL     OW99899   5.749   7.016  10.505  0.3099 -0.4150 -0.1972
32631SOL    HW199900   5.761   7.106  10.475  0.5111  0.1705  1.5297
32631SOL    HW299901   5.791   6.962  10.438  3.2453  0.9576  0.4138
32632SOL     OW99902   3.005   0.019   0.462 -0.4566  0.2398 -0.3970
32632SOL    HW199903   2.969  -0.068   0.440 -0.2774  0.1705 -0.4141
32632SOL    HW299904   3.061   0.003   0.538  1.3027 -0.0488 -1.6926
32633SOL     OW99905   8.859   8.755   1.045  0.1021 -0.5755 -0.0435
32633SOL    HW199906   8.791   8.821   1.030  1.1520  0.4989 -0.2227
32633SOL    HW299907   8.902   8.745   0.961  1.0881 -0.1696  0.3943
32634SOL     OW99908   1.678   8.436   9.132  0.2811  0.6356  0.3873
32634SOL    HW199909   1.635   8.402   9.053  0.9112  0.1750  0.2341
32634SOL    HW299910   1.754   8.484   9.100  0.0022  1.2774  0.6686
32635SOL     OW99911   6.562   8.108  10.992  0.4157  0.3069  0.3038
32635SOL    HW199912   6.561   8.031  10.934  1.8703 -0.5222  1.3012
32635SOL    HW299913   6.622   8.169  10.949  1.9703 -0.5496  1.1530
32636SOL     OW99914   9.966   9.226   5.762  0.0327  0.1659  0.1431
32636SOL    HW199915   9.904   9.296   5.743  0.3703  0.5335  0.3850
32636SOL    HW299916   9.986   9.188   5.677 -1.5502 -0.8543  0.1689
32637SOL     OW99917   2.543   5.845   6.397  0.3094  0.0132 -0.3625
32637SOL    HW199918   2.555   5.846   6.492  1.0981 -0.0410 -0.4589
32637SOL    HW299919   2.563   5.755   6.371 -0.1684 -0.0414 -0.5503
32638SOL     OW99920   5.406   4.455   5.180 -0.0136  0.4821 -0.4279
32638SOL    HW199921   5.313   4.465   5.161 -0.5349 -2.9007 -0.2958
32638SOL    HW299922   5.410   4.440   5.275  0.6981  0.8610 -0.3898
32639SOL     OW99923   7.559   1.046   7.468  0.5478 -0.5288 -0.3378
32639SOL    HW199924   7.550   1.073   7.560  1.2554  0.3772 -0.5254
32639SOL    HW299925   7.509   1.110   7.419 -0.7028 -1.6119 -0.5235
32640SOL     OW99926  10.969   5.141   7.674 -0.2682 -0.2221  0.2067
32640SOL    HW199927  11.024   5.065   7.656  2.7612  1.2937  2.2039
32640SOL    HW299928  11.002   5.209   7.616 -1.5973  0.1591 -0.1400
32641SOL     OW99929   8.563   6.127   1.440  0.7074 -0.0271  0.0541
32641SOL    HW199930   8.505   6.051   1.435  0.4335  0.2417 -2.6923
32641SOL    HW299931   8.504   6.202   1.438  1.0435  0.2426 -2.1310
32642SOL     OW99932   6.344   8.687   1.056 -0.4022  0.0895 -0.2033
32642SOL    HW199933   6.375   8.634   0.982  0.6226  3.2466 -2.2273
32642SOL    HW299934   6.250   8.694   1.043 -0.3943 -0.3418 -0.5185
32643SOL     OW99935   0.620   6.267   7.314 -0.0111 -0.1794  0.5606
32643SOL    HW199936   0.623   6.362   7.320 -1.1094 -0.1799  1.5875
32643SOL    HW299937   0.594   6.249   7.223  0.8081  0.4658  0.1918
32644SOL     OW99938   5.356   8.393   8.845  0.2623 -0.2563 -0.5762
32644SOL    HW199939   5.275   8.427   8.808  0.0261  0.9190  0.9226
32644SOL    HW299940   5.390   8.335   8.778 -0.6726  0.9525 -2.1783
32645SOL     OW99941   8.236   8.888   5.339 -1.2392  0.6990 -0.0239
32645SOL    HW199942   8.313   8.945   5.337 -1.2259  0.7922  1.7151
32645SOL    HW299943   8.255   8.824   5.407 -2.2126 -0.0096 -0.3980
32646SOL     OW99944   1.755   7.167   4.900  0.5055  0.2063  0.1552
32646SOL    HW199945   1.736   7.179   4.807  2.1911 -0.3949 -0.3043
32646SOL    HW299946   1.712   7.241   4.943  1.0224  1.3950 -1.2802
32647SOL     OW99947   0.017   2.307   0.173  0.3478 -0.3204  0.5325
32647SOL    HW199948   0.076   2.241   0.209  0.1725  0.1594  1.7582
32647SOL    HW299949   0.072   2.384   0.162 -0.2506  0.5544  2.9586
32648SOL     OW99950   6.778   3.000   5.007 -0.5824 -0.8435  0.5659
32648SOL    HW199951   6.716   2.944   4.959  0.0452 -1.8698  0.9268
32648SOL    HW299952   6.742   3.004   5.096 -0.6194 -0.6799  0.5435
32649SOL     OW99953   9.859   2.166   9.015 -0.3204 -0.5971  0.0734
32649SOL    HW199954   9.794   2.183   9.083 -0.2868 -0.3600  0.0477
32649SOL    HW299955   9.814   2.109   8.953 -0.5687 -0.2683 -0.0479
32650SOL     OW99956   8.827   0.397   9.446 -0.4462 -0.5260  0.1631
32650SOL    HW199957   8.842   0.487   9.474 -1.5845 -0.5462  0.8948
32650SOL    HW299958   8.853   0.396   9.353  0.6281  0.2589  0.4334
32651SOL     OW99959   9.934   1.550   2.946 -0.1311  0.2084 -0.2961
32651SOL    HW199960   9.990   1.613   2.991  1.8347  0.0938 -2.3400
32651SOL    HW299961   9.986   1.469   2.943 -1.9651 -1.0893  0.9257
32652SOL     OW99962   2.371   3.992   0.717 -0.2736 -0.1996  0.3258
32652SOL    HW199963   2.435   3.921   0.717 -1.2762 -1.1598 -0.6811
32652SOL    HW299964   2.422   4.071   0.735  1.2560 -0.8722 -0.7860
32653SOL     OW99965   5.921   5.572   0.577 -0.1570  0.2715 -0.0794
32653SOL    HW199966   5.915   5.643   0.513 -0.8583 -0.5754 -0.9670
32653SOL    HW299967   5.953   5.615   0.657  0.4932  1.3846 -0.9103
32654SOL     OW99968   5.152   4.954   6.153 -0.2246 -0.3220  0.3516
32654SOL    HW199969   5.074   5.007   6.166  0.5569  0.9501  0.0208
32654SOL    HW299970   5.124   4.884   6.094 -1.3935 -0.6050  1.1972
32655SOL     OW99971   2.235   0.212   9.531 -0.0518 -0.1949  0.1022
32655SOL    HW199972   2.244   0.133   9.478  0.5201  0.5041 -0.8601
32655SOL    HW299973   2.282   0.280   9.483  1.8214  0.1396  2.2194
32656SOL     OW99974   2.338   8.287   9.541 -0.2820  0.3083 -0.1553
32656SOL    HW199975   2.301   8.336   9.468  1.7308  0.1346 -1.3693
32656SOL    HW299976   2.289   8.318   9.618 -1.2200  1.8498 -1.3086
32657SOL     OW99977   4.279   4.646   3.914 -0.3959  0.4031  0.3257
32657SOL    HW199978   4.206   4.625   3.855  1.1207  0.6005 -1.7174
32657SOL    HW299979   4.332   4.566   3.915 -0.3240  0.4526  1.3515
32658SOL     OW99980   5.273   8.543   9.077  0.2166 -0.4094 -0.5763
32658SOL    HW199981   5.328   8.503   9.009 -2.2071 -2.6188 -1.4089
32658SOL    HW299982   5.216   8.603   9.028  2.3305  2.5910  0.3896
32659SOL     OW99983  10.048   5.683   6.013 -0.1322 -1.1096 -0.5448
32659SOL    HW199984   9.970   5.627   6.018  0.9312 -2.5762  0.8495
32659SOL    HW299985  10.021   5.765   6.053 -0.4551 -2.2920  1.8342
32660SOL     OW99986   4.108  10.208  10.218  0.7703  0.5071  0.3814
32660SOL    HW199987   4.104  10.118  10.249  0.1572  0.6314  0.6822
32660SOL    HW299988   4.109  10.201  10.123 -0.2395  0.2024  0.3824
32661SOL     OW99989   4.441  10.029  10.514  0.2282 -0.5796 -0.2052
32661SOL    HW199990   4.358  10.011  10.470 -0.9288  0.3496  1.4858
32661SOL    HW299991   4.469  10.113  10.479 -0.8414  0.3015  0.9670
32662SOL     OW99992   9.320   2.763  11.268 -0.1303  0.1911  0.5654
32662SOL    HW199993   9.369   2.799  11.342  0.0520 -3.6837  2.6331
32662SOL    HW299994   9.239   2.728  11.308 -1.5721  0.7756 -1.6817
32663SOL     OW99995   1.532   0.999   5.021 -0.7564  0.0093 -0.5407
32663SOL    HW199996   1.524   0.909   5.052 -1.2338  0.9018  2.2304
32663SOL    HW299997   1.615   1.001   4.973 -1.2308 -2.0918 -1.5609
32664SOL     OW99998   0.694   0.360  11.150  0.1003 -0.0576  0.3264
32664SOL    HW199999   0.677   0.346  11.057 -3.3470 -0.8413  0.9560
32664SOL    HW2    0   0.749   0.439  11.153 -0.4717  0.5176 -2.3259
32665SOL     OW    1   4.320   6.499   2.914  0.0840 -0.0516  0.6885
32665SOL    HW1    2   4.324   6.561   2.987  1.9941 -0.3271  0.8789
32665SOL    HW2    3   4.339   6.414   2.953  0.6568 -0.2704 -0.0432
32666SOL     OW    4   2.443  10.567   7.648 -0.0881  0.3783 -0.0076
32666SOL    HW1    5   2.448  10.659   7.675  0.4306  1.2090 -2.6604
32666SOL    HW2    6   2.524  10.528   7.682  0.4441  1.2933 -0.1754
32667SOL     OW    7   7.251   9.277   7.314  0.7376  0.3651  0.2960
32667SOL    HW1    8   7.244   9.265   7.409  0.4873  0.8201  0.3354
32667SOL    HW2    9   7.245   9.188   7.279 -1.9488  0.3564  0.5472
32668SOL     OW   10   9.816   0.831   8.248 -0.2409  0.2021  0.1565
32668SOL    HW1   11   9.882   0.772   8.213  0.9464  1.4232  0.2561
32668SOL    HW2   12   9.804   0.897   8.180 -1.0346  0.2380  0.3213
32669SOL     OW   13   8.159   9.266   6.815 -0.3740  0.2780  0.1252
32669SOL    HW1   14   8.118   9.339   6.862  0.6912  0.9596  0.0198
32669SOL    HW2   15   8.147   9.191   6.874 -1.5035  0.5066  0.2227
32670SOL     OW   16   9.057   5.616   0.013  0.1621  0.0646  0.2654
32670SOL    HW1   17   9.142   5.572   0.010 -0.3986 -1.0490  0.2847
32670SOL    HW2   18   9.032   5.613   0.105  0.1509  0.4860  0.2755
32671SOL     OW   19  10.907   6.529   5.781 -0.3135 -0.0781 -0.9502
32671SOL    HW1   20  10.967   6.591   5.739  0.4615 -0.4863 -0.4472
32671SOL    HW2   21  10.829   6.582   5.800  0.3393  0.7536 -0.5071
32672SOL     OW   22   2.002   5.068   3.233  0.4093 -0.1285 -0.3700
32672SOL    HW1   23   2.032   5.010   3.303  0.0162  0.6588  0.4677
32672SOL    HW2   24   2.051   5.149   3.245  1.5696 -0.5142 -2.0375
32673SOL     OW   25   8.861   1.825   1.843  0.3607 -0.0626 -0.2185
32673SOL    HW1   26   8.889   1.846   1.754 -2.1085 -1.8269 -1.5146
32673SOL    HW2   27   8.836   1.733   1.839 -1.4569  0.2608  1.8494
32674SOL     OW   28   4.529   6.385   6.066  0.1717 -0.1120  0.1744
32674SOL    HW1   29   4.487   6.436   5.997  0.1984  0.6947  0.7453
32674SOL    HW2   30   4.457   6.349   6.117  0.1352  1.2905  1.1672
32675SOL     OW   31  10.145  10.168   1.060  0.0469 -0.6874  0.4028
32675SOL    HW1   32  10.051  10.175   1.076  0.2045  2.2544  0.5090
32675SOL    HW2   33  10.166  10.244   1.006  2.1398 -2.1555 -1.0031
32676SOL     OW   34   0.924  10.496   0.756 -0.1432  0.4619 -0.0943
32676SOL    HW1   35   0.906  10.543   0.675  0.4167  0.0275 -0.4808
32676SOL    HW2   36   1.016  10.516   0.775 -0.2053  0.3790  0.3097
32677SOL     OW   37   5.823   7.648   2.812  0.1308  0.3966  0.0968
32677SOL    HW1   38   5.748   7.700   2.842  0.1924  0.2227  0.5593
32677SOL    HW2   39   5.823   7.571   2.869  0.7690  0.4800  0.2173
32678SOL     OW   40   8.047  10.289   6.649  0.1085 -0.1947  0.3637
32678SOL    HW1   41   8.001  10.214   6.610 -0.7079 -0.1000  1.1186
32678SOL    HW2   42   8.048  10.270   6.743 -2.5672  1.9484  0.9639
32679SOL     OW   43   2.464   7.489   8.725 -0.0698  0.4238  0.2253
32679SOL    HW1   44   2.555   7.461   8.713  0.1540  1.2243 -0.0210
32679SOL    HW2   45   2.424   7.477   8.640 -0.5303 -1.0516  0.6238
32680SOL     OW   46   4.181  10.601   9.459  0.0949 -0.2561 -0.2281
32680SOL    HW1   47   4.231  10.679   9.432 -1.7168  1.2906  0.6512
32680SOL    HW2   48   4.132  10.630   9.535 -0.5403 -2.3481  0.2138
32681SOL     OW   49   4.482   3.203   7.170  0.2755  0.1000 -0.1093
32681SOL    HW1   50   4.497   3.141   7.241 -1.1668 -0.7686 -0.5369
32681SOL    HW2   51   4.513   3.158   7.091  0.5798  0.5145 -0.2350
32682SOL     OW   52   9.143   3.242   9.112 -0.3000 -0.3284  0.0422
32682SOL    HW1   53   9.182   3.155   9.118 -0.6755 -0.5123 -0.1716
32682SOL    HW2   54   9.128   3.256   9.019  0.2512  0.1903  0.0214
32683SOL     OW   55   7.752   8.987   2.245  0.4006  0.4363 -0.1583
32683SOL    HW1   56   7.703   8.915   2.284  0.3914  1.0072  0.9202
32683SOL    HW2   57   7.819   8.945   2.191  1.8778 -0.4683  2.2211
32684SOL     OW   58   3.967   0.661   7.923 -0.3188  0.2485 -0.1718
32684SOL    HW1   59   4.036   0.672   7.858 -1.0646  0.5299 -0.9439
32684SOL    HW2   60   3.894   0.713   7.889 -0.9896 -0.2339  0.4949
32685SOL     OW   61   8.735   5.051   2.413 -0.5388 -0.6066  0.4503
32685SOL    HW1   62   8.741   4.978   2.351 -2.6701  0.0434 -0.5982
32685SOL    HW2   63   8.647   5.087   2.400  0.9318  3.2109 -0.2867
32686SOL     OW   64  10.403   0.338   7.140 -0.6800 -0.3655  0.0679
32686SOL    HW1   65  10.343   0.316   7.069  0.9724 -0.5701 -1.3361
32686SOL    HW2   66  10.426   0.254   7.180 -0.4456 -0.4009 -0.1419
32687SOL     OW   67   3.480   1.070   4.610  0.0440 -0.2205  0.3909
32687SOL    HW1   68   3.485   1.165   4.623 -2.9911 -0.2368  2.7953
32687SOL    HW2   69   3.461   1.035   4.697 -1.0956 -2.8092 -0.8026
32688SOL     OW   70  10.413  10.739  10.157  0.0161 -0.0787 -0.0296
32688SOL    HW1   71  10.354  10.808  10.186  0.6928  1.1253 -1.4100
32688SOL    HW2   72  10.438  10.693  10.238 -2.0922 -0.0855  0.6757
32689SOL     OW   73   0.149   5.230   6.974 -0.1905  0.8487  0.8893
32689SOL    HW1   74   0.087   5.192   7.035  1.5295  0.3951  2.4570
32689SOL    HW2   75   0.127   5.323   6.971 -0.8567  0.7092  1.5028
32690SOL     OW   76   9.128   9.660   0.431  0.0854 -0.6389  0.3456
32690SOL    HW1   77   9.186   9.696   0.364 -1.0059  0.1492 -0.2208
32690SOL    HW2   78   9.059   9.726   0.440 -0.1808 -1.0864  1.7144
32691SOL     OW   79   0.141  10.372   2.619  0.4874 -0.2862  0.0232
32691SOL    HW1   80   0.227  10.367   2.662  1.2004  2.1411 -0.9271
32691SOL    HW2   81   0.101  10.451   2.657 -1.0584 -1.0185 -0.0369
32692SOL     OW   82   1.807   1.269   0.997  0.0855 -0.3382 -0.6803
32692SOL    HW1   83   1.776   1.232   1.080 -0.7105  1.1662 -0.2604
32692SOL    HW2   84   1.748   1.231   0.931 -0.8656  0.3228 -0.2345
32693SOL     OW   85   0.552  10.082  11.118 -0.3913 -0.4115  0.0644
32693SOL    HW1   86   0.630  10.047  11.076 -1.0685 -3.9490  1.4316
32693SOL    HW2   87   0.579  10.168  11.152  3.2757 -1.9194  1.3803
32694SOL     OW   88   4.443  10.048   2.995 -0.2925 -0.2342 -1.0640
32694SOL    HW1   89   4.433   9.992   3.072  1.0582  0.1690 -0.5642
32694SOL    HW2   90   4.354  10.069   2.969 -0.7917 -1.2636 -0.2655
32695SOL     OW   91   8.157   6.509   5.299 -0.1099 -0.2599  0.1298
32695SOL    HW1   92   8.202   6.427   5.321 -0.1419 -0.1840  0.4947
32695SOL    HW2   93   8.227   6.566   5.266 -0.0699 -0.3979 -0.0261
32696SOL     OW   94   5.345   8.450  10.690  0.4688  0.5933  0.9006
32696SOL    HW1   95   5.438   8.472  10.697  0.6422 -0.3007  1.6857
32696SOL    HW2   96   5.344   8.358  10.664 -0.2265  1.7309 -4.0162
32697SOL     OW   97   8.982   4.707   9.532 -0.0398  0.0724 -0.0265
32697SOL    HW1   98   8.998   4.727   9.439  0.8512  0.0331  0.1160
32697SOL    HW2   99   8.976   4.612   9.535  2.0560 -0.0882  0.2644
32698SOL     OW  100   4.547  11.061   2.055 -0.6335 -0.4075  0.0106
32698SOL    HW1  101   4.593  11.082   1.974 -2.2649  0.5273 -0.7197
32698SOL    HW2  102   4.512  10.973   2.040  0.7730 -1.0885  0.5382
32699SOL     OW  103   8.120   8.639   3.064 -0.3537  0.7080 -0.2465
32699SOL    HW1  104   8.075   8.640   3.149  0.4742 -0.3971  0.2225
32699SOL    HW2  105   8.160   8.553   3.059 -0.1498  0.8680 -1.6512
32700SOL     OW  106  10.749   1.725  11.277  0.6584 -0.1397  0.0586
32700SOL    HW1  107  10.690   1.789  11.316  2.5990  1.5041  0.4180
32700SOL    HW2  108  10.786   1.679  11.352  0.8704 -0.2248 -0.0976
32701SOL     OW  109   0.866  11.056   1.230 -0.1946  0.2349 -0.2092
32701SOL    HW1  110   0.922  11.092   1.299  1.9129  0.3075 -1.8614
32701SOL    HW2  111   0.804  11.000   1.276 -2.0847  3.9358  2.2760
32702SOL     OW  112   6.877   9.057   3.970 -0.0855 -0.0048  0.0439
32702SOL    HW1  113   6.964   9.093   3.951  1.2500 -2.0635  1.7359
32702SOL    HW2  114   6.876   8.973   3.924 -0.7549 -0.4729  0.8992
32703SOL     OW  115   9.758   5.831   8.196 -0.2390 -0.4674 -0.1803
32703SOL    HW1  116   9.784   5.923   8.202 -2.7337  0.2964  0.0406
32703SOL    HW2  117   9.840   5.784   8.181  1.1192  1.7648 -0.2259
32704SOL     OW  118   3.751   6.520   6.603 -0.3233 -0.3442 -0.0022
32704SOL    HW1  119   3.830   6.467   6.613  0.4746  1.0043  1.2735
32704SOL    HW2  120   3.758   6.559   6.516 -0.7905 -2.0495 -0.8503
32705SOL     OW  121   3.879   7.315   4.079 -0.4396  0.4953  0.1668
32705SOL    HW1  122   3.952   7.295   4.138  0.6380 -0.9201 -1.5709
32705SOL    HW2  123   3.897   7.404   4.048  0.4702  0.2139 -0.1296
32706SOL     OW  124   3.374   2.016   7.790 -0.0593 -0.0965  0.4490
32706SOL    HW1  125   3.359   2.014   7.884 -0.6360 -0.8535  0.3465
32706SOL    HW2  126   3.464   1.984   7.780 -0.6636 -1.9211  0.6189
32707SOL     OW  127   1.487   7.610   1.551  0.1416 -0.7377 -0.0422
32707SOL    HW1  128   1.432   7.687   1.564 -0.4896 -1.4708  2.0711
32707SOL    HW2  129   1.482   7.563   1.635  2.4467 -1.8189 -0.4397
32708SOL     OW  130   8.743  10.549   1.528 -0.6365  0.2394 -0.0511
32708SOL    HW1  131   8.827  10.547   1.574 -0.3613  0.5611 -0.5262
32708SOL    HW2  132   8.714  10.640   1.536 -0.2485  0.4639 -1.1000
32709SOL     OW  133   2.512   4.072   3.452 -0.6299 -0.9121  0.1042
32709SOL    HW1  134   2.437   4.024   3.415 -0.6207 -0.6651 -0.2396
32709SOL    HW2  135   2.559   4.007   3.504 -1.6291 -0.8440  1.1380
32710SOL     OW  136   8.833   4.952   6.517  0.3354  0.1284  0.8378
32710SOL    HW1  137   8.840   4.856   6.523 -4.1771 -0.6234 -1.8315
32710SOL    HW2  138   8.769   4.975   6.584 -0.6534  0.8449 -0.3322
32711SOL     OW  139   9.858   5.343   3.153 -0.1653  0.0979  0.5721
32711SOL    HW1  140   9.890   5.266   3.106  0.6896  0.5323  0.4216
32711SOL    HW2  141   9.815   5.307   3.230  4.0602 -0.5614  2.9666
32712SOL     OW  142   4.912   8.093   7.202  0.1724 -0.2377  0.9858
32712SOL    HW1  143   4.984   8.039   7.234  1.8119  0.5777 -1.0840
32712SOL    HW2  144   4.902   8.162   7.267  1.7470  0.0181  0.9784
32713SOL     OW  145   3.370   6.301   9.529  0.2255  0.1521 -0.1991
32713SOL    HW1  146   3.434   6.370   9.509  0.3647  0.5110  1.3414
32713SOL    HW2  147   3.412   6.251   9.599 -0.2367 -1.0074 -0.7344
32714SOL     OW  148   7.273   9.852   6.427 -0.3612 -0.4949  0.2180
32714SOL    HW1  149   7.272   9.779   6.365 -1.6227  0.2848 -0.7436
32714SOL    HW2  150   7.317   9.818   6.505 -1.6751 -2.5487  0.1194
32715SOL     OW  151  10.979   6.173   4.881  0.3916  0.6350 -0.5744
32715SOL    HW1  152  10.994   6.253   4.830 -0.7425  0.8807 -0.5410
32715SOL    HW2  153  11.065   6.131   4.884  1.1902  2.2118  0.0202
32716SOL     OW  154   2.363   3.357   3.646 -0.2713 -0.1702  0.1807
32716SOL    HW1  155   2.298   3.399   3.702 -1.1602  2.7121 -2.7084
32716SOL    HW2  156   2.407   3.295   3.704 -4.0107 -0.6793  2.8763
32717SOL     OW  157   3.493   8.745   4.867 -0.0773 -0.3961 -0.4110
32717SOL    HW1  158   3.398   8.752   4.857 -0.1353 -1.2527 -0.6138
32717SOL    HW2  159   3.517   8.669   4.813  0.3573 -1.8470  1.7063
32718SOL     OW  160   1.545   8.494   0.591 -0.0178  0.3393 -0.9300
32718SOL    HW1  161   1.491   8.540   0.655  1.4720 -0.7660  1.2884
32718SOL    HW2  162   1.485   8.470   0.521 -2.2257 -0.1630  1.0098
32719SOL     OW  163   1.114   9.126   3.907 -0.1307 -0.4453 -0.7885
32719SOL    HW1  164   1.159   9.161   3.984  1.7240 -0.4701 -1.7864
32719SOL    HW2  165   1.074   9.045   3.936 -1.4442  0.6664  0.6806
32720SOL     OW  166  10.604   2.398   5.710 -0.5068 -0.6353  0.0062
32720SOL    HW1  167  10.592   2.304   5.720  2.1338 -1.1350 -0.7722
32720SOL    HW2  168  10.593   2.433   5.799  1.3924 -2.1131  0.8944
32721SOL     OW  169   6.387   0.353  10.301  0.6777  0.4496 -0.5640
32721SOL    HW1  170   6.334   0.373  10.224 -1.2128  2.9577  1.2025
32721SOL    HW2  171   6.443   0.431  10.312  3.0870 -1.1147 -0.9760
32722SOL     OW  172   2.521   1.191   0.361  0.9904  0.0616 -0.4910
32722SOL    HW1  173   2.549   1.230   0.444 -0.3169 -0.8553  0.4218
32722SOL    HW2  174   2.532   1.097   0.374 -2.6953 -0.4334  0.0933
32723SOL     OW  175   6.041   2.386   5.293 -0.6462 -0.2419  0.1854
32723SOL    HW1  176   5.967   2.399   5.233 -0.3540  1.8862  0.2133
32723SOL    HW2  177   6.117   2.382   5.236 -0.6577 -1.2982  0.2328
32724SOL     OW  178   2.593   7.402   1.318  0.0256  0.4389  0.3931
32724SOL    HW1  179   2.568   7.485   1.358 -1.0720  1.7816 -2.7818
32724SOL    HW2  180   2.677   7.419   1.276  0.1323 -0.2782  0.2982
32725SOL     OW  181   3.380   3.232   8.978 -0.5482  0.4008  0.2405
32725SOL    HW1  182   3.333   3.163   8.931 -1.0847  0.1190  1.1644
32725SOL    HW2  183   3.391   3.302   8.913 -0.9439 -0.1238 -0.4051
32726SOL     OW  184  10.310   5.356   9.938 -0.2030 -0.0862 -0.2879
32726SOL    HW1  185  10.308   5.264   9.911  1.1433 -0.6167  1.2392
32726SOL    HW2  186  10.223   5.373   9.974  0.8151 -2.2625  3.7914
32727SOL     OW  187   2.949   0.445   4.796  0.4897 -0.5924 -0.0001
32727SOL    HW1  188   2.927   0.532   4.763 -0.1674 -1.2395 -1.3672
32727SOL    HW2  189   2.892   0.432   4.872 -0.4629 -0.3887 -0.6641
32728SOL     OW  190   8.193   7.068   6.349 -0.6533  0.1570 -0.1343
32728SOL    HW1  191   8.157   7.013   6.279  0.7823 -2.4130  1.0031
32728SOL    HW2  192   8.144   7.042   6.427 -1.1632  1.8584  0.1583
32729SOL     OW  193  10.840  11.046   2.263 -0.0145  0.3672  0.3216
32729SOL    HW1  194  10.776  11.116   2.248 -0.3068  0.3226  1.2721
32729SOL    HW2  195  10.806  10.972   2.214  0.1883  0.8203 -0.5253
32730SOL     OW  196   0.773   9.041   2.948  0.7945  0.8068 -0.5314
32730SOL    HW1  197   0.790   8.951   2.975  1.2382 -0.0329 -3.2828
32730SOL    HW2  198   0.733   9.082   3.024 -1.0849 -2.2170  0.2842
32731SOL     OW  199   7.417   2.535   1.989  0.7214 -0.1114 -1.1100
32731SOL    HW1  200   7.416   2.549   1.894  1.8642 -1.5668 -1.3711
32731SOL    HW2  201   7.331   2.496   2.008  1.1397 -1.4750 -1.8645
32732SOL     OW  202   7.411   0.897   9.655  0.5838  0.1731  0.6649
32732SOL    HW1  203   7.362   0.866   9.579  2.1316  0.0058 -0.3126
32732SOL    HW2  204   7.346   0.943   9.708 -0.5715  0.1831 -0.6839
32733SOL     OW  205  10.953   7.257   1.888  0.3712  0.4396 -0.0321
32733SOL    HW1  206  10.953   7.213   1.973 -3.7856  1.6450  0.8181
32733SOL    HW2  207  10.945   7.350   1.909 -0.0461  0.8254 -1.7541
32734SOL     OW  208   0.210   4.097   5.749 -1.1236 -0.0290 -0.4322
32734SOL    HW1  209   0.162   4.035   5.694 -2.3603 -0.2651  0.8723
32734SOL    HW2  210   0.159   4.104   5.829  0.4889  0.5082  0.6139
32735SOL     OW  211   2.284   7.723  10.999  0.2155 -0.0159 -0.8053
32735SOL    HW1  212   2.216   7.733  11.066 -0.3689 -0.5400 -1.3102
32735SOL    HW2  213   2.243   7.754  10.918  0.3104 -1.0470 -1.2625
32736SOL     OW  214   6.378   8.520   4.178 -0.5324 -0.4321 -1.1023
32736SOL    HW1  215   6.443   8.499   4.245 -0.4036  0.1622 -1.0366
32736SOL    HW2  216   6.395   8.611   4.155 -2.4724  0.3323  0.2228
32737SOL     OW  217  10.772   1.289   1.955  0.3996  0.0083 -0.2065
32737SOL    HW1  218  10.800   1.197   1.950  1.2745  0.1623  1.3052
32737SOL    HW2  219  10.705   1.289   2.023 -0.0796  0.3982 -0.6707
32738SOL     OW  220   4.330   1.325   4.674  0.4706  0.2986 -0.4531
32738SOL    HW1  221   4.375   1.262   4.729  0.8265  0.9723  0.0473
32738SOL    HW2  222   4.399   1.361   4.618  0.4810  1.0171  0.0116
32739SOL     OW  223   5.875   0.555   3.129  0.3466  0.5913 -0.1592
32739SOL    HW1  224   5.867   0.593   3.041 -0.6480 -2.0834 -1.3219
32739SOL    HW2  225   5.968   0.533   3.137  0.5845  1.5260 -0.2044
32740SOL     OW  226  10.411  10.440   8.524  0.6754 -0.1818 -0.9596
32740SOL    HW1  227  10.370  10.441   8.610  0.9004 -0.3867 -0.8496
32740SOL    HW2  228  10.503  10.461   8.540  0.5754  0.5003 -1.2306
32741SOL     OW  229   3.919   5.837   4.505  0.5531 -0.7857 -0.1716
32741SOL    HW1  230   3.963   5.835   4.420 -1.0475  0.7224 -1.0847
32741SOL    HW2  231   3.944   5.922   4.542 -0.4367 -0.5379 -0.0675
32742SOL     OW  232  10.977   6.622   6.728  0.1306 -0.1229 -0.0726
32742SOL    HW1  233  11.040   6.616   6.656 -3.1342  2.7302 -3.6157
32742SOL    HW2  234  10.895   6.590   6.691 -1.5850  0.8225  2.6243
32743SOL     OW  235   0.127   2.049   5.594 -0.3215  0.1258 -0.0968
32743SOL    HW1  236   0.119   2.138   5.628  0.0188 -1.1783  3.9702
32743SOL    HW2  237   0.041   2.029   5.557 -1.3509  1.2331  1.5595
32744SOL     OW  238   8.864   5.485   8.583 -0.3192 -0.1462 -0.1023
32744SOL    HW1  239   8.799   5.479   8.513 -0.8200  0.3747  0.3089
32744SOL    HW2  240   8.905   5.398   8.585 -1.0139 -0.4875 -0.3508
32745SOL     OW  241   2.872  10.518   9.254  0.3710 -0.1752  0.7602
32745SOL    HW1  242   2.955  10.478   9.229 -0.5253 -2.7921  1.6315
32745SOL    HW2  243   2.854  10.583   9.186  2.7200 -0.0928  0.1497
32746SOL     OW  244   2.449   5.334   0.785 -0.2796 -0.1752  0.5853
32746SOL    HW1  245   2.483   5.279   0.714  1.0711  0.7482  0.4732
32746SOL    HW2  246   2.526   5.379   0.819 -1.0748  0.2156  1.9324
32747SOL     OW  247  10.748   1.678   6.439 -0.0394  0.0416 -0.0488
32747SOL    HW1  248  10.842   1.677   6.452 -0.1082 -2.2197  0.6005
32747SOL    HW2  249  10.711   1.661   6.525 -1.0429  0.3580 -0.3951
32748SOL     OW  250   7.702   9.714   8.410 -0.0251  0.4040 -0.1469
32748SOL    HW1  251   7.617   9.739   8.374 -0.2076  0.2042  0.1444
32748SOL    HW2  252   7.692   9.622   8.435 -0.0697  0.6651  0.8723
32749SOL     OW  253   1.566   6.353   7.172  0.4706 -0.6661 -0.6784
32749SOL    HW1  254   1.507   6.425   7.195  1.9143  0.4069 -0.2296
32749SOL    HW2  255   1.530   6.278   7.218 -0.8193 -0.1588 -0.8063
32750SOL     OW  256   2.374   3.906   4.666  0.3763  0.3628 -0.3697
32750SOL    HW1  257   2.425   3.906   4.747 -1.3942 -1.9716  0.8666
32750SOL    HW2  258   2.283   3.905   4.696 -0.3606  0.8591 -2.4453
32751SOL     OW  259   3.252   9.083   2.383  0.1401  0.2094  0.2324
32751SOL    HW1  260   3.227   9.062   2.473 -1.5539  1.1744  0.0316
32751SOL    HW2  261   3.215   9.169   2.367  2.1080  0.9327 -0.7727
32752SOL     OW  262   1.165  10.278  10.440  0.0863  0.0522 -0.1474
32752SOL    HW1  263   1.137  10.344  10.377 -0.9373  0.3192  0.5490
32752SOL    HW2  264   1.212  10.328  10.508 -0.9501  0.1433  0.5342
32753SOL     OW  265   5.025   7.265  10.827  0.3476  0.0926  0.2418
32753SOL    HW1  266   4.937   7.298  10.846  1.4560  2.5511  1.5782
32753SOL    HW2  267   5.034   7.273  10.732 -0.3340  1.3865  0.2693
32754SOL     OW  268   9.111   4.370   6.133  0.3994 -0.1559  0.2261
32754SOL    HW1  269   9.144   4.294   6.180 -0.5285 -0.4294  0.4478
32754SOL    HW2  270   9.026   4.343   6.099  0.0252  0.7934  0.3589
32755SOL     OW  271   2.775  10.178  10.517  0.0106 -0.0231  0.2306
32755SOL    HW1  272   2.772  10.087  10.489  0.5703 -0.2601  0.9215
32755SOL    HW2  273   2.860  10.188  10.559 -0.2968  0.6493  0.7198
32756SOL     OW  274   0.061  10.081   4.883  0.0759  0.3815  0.6447
32756SOL    HW1  275   0.062   9.986   4.895 -0.2270  0.4997  1.7357
32756SOL    HW2  276   0.128  10.098   4.818 -0.9630 -0.7286 -0.7839
32757SOL     OW  277  10.957   3.680   1.659  0.2526  0.3745  0.4440
32757SOL    HW1  278  10.966   3.658   1.752  1.1660 -1.9355 -0.1094
32757SOL    HW2  279  11.045   3.705   1.632  0.0172  0.8981  0.1560
32758SOL     OW  280  11.173   7.433   2.959 -0.4709  0.0750 -0.2730
32758SOL    HW1  281  11.088   7.476   2.969  0.4013  2.2040 -1.4212
32758SOL    HW2  282  11.154   7.353   2.909 -2.1134 -0.9597  1.8154
32759SOL     OW  283   1.068   7.574   8.567 -0.8410 -0.1886 -0.2191
32759SOL    HW1  284   1.118   7.635   8.621 -0.8605  0.9037 -1.3953
32759SOL    HW2  285   1.111   7.576   8.482 -0.7195 -1.9885 -0.2444
32760SOL     OW  286   3.148   9.262   3.649  0.2923 -0.6940 -0.7306
32760SOL    HW1  287   3.169   9.253   3.556 -1.9707  0.9184 -1.4957
32760SOL    HW2  288   3.175   9.180   3.688  3.1168 -0.6913 -2.4239
32761SOL     OW  289   9.378   9.303   0.299  0.3794  0.1579 -0.0550
32761SOL    HW1  290   9.306   9.355   0.265  0.5193  1.7050  1.8551
32761SOL    HW2  291   9.455   9.333   0.250  0.4677  1.8586  1.0606
32762SOL     OW  292   5.800   5.082   8.081  0.2212 -0.0723  1.1665
32762SOL    HW1  293   5.862   5.085   8.008 -0.7705  0.1793  0.3111
32762SOL    HW2  294   5.722   5.127   8.048 -1.8146 -3.4755  0.8736
32763SOL     OW  295   9.157   0.380   9.850 -0.0614 -0.9379 -0.2161
32763SOL    HW1  296   9.159   0.470   9.816 -0.8048  0.1865  2.4631
32763SOL    HW2  297   9.218   0.332   9.794 -1.2485  0.6854 -3.1058
32764SOL     OW  298   8.920   9.305   3.661 -1.0681 -0.1326  0.1458
32764SOL    HW1  299   8.931   9.330   3.569  1.9511 -0.3738  0.3507
32764SOL    HW2  300   8.999   9.256   3.682 -2.5759 -1.7822  2.3854
32765SOL     OW  301   8.751   9.491   5.024 -0.4869  0.2511  0.3588
32765SOL    HW1  302   8.786   9.499   5.113 -0.0723 -0.4944  0.2664
32765SOL    HW2  303   8.828   9.483   4.968 -0.7611  0.0142  0.0086
32766SOL     OW  304  10.248   6.256   2.242  0.1833 -0.3356 -0.4071
32766SOL    HW1  305  10.326   6.293   2.199 -1.7382 -1.1507 -5.1635
32766SOL    HW2  306  10.227   6.320   2.310  3.7649  0.9699 -0.2954
32767SOL     OW  307   5.393   9.677   8.432  0.1521  0.0190 -0.0942
32767SOL    HW1  308   5.390   9.740   8.503  2.0016 -0.8547  0.8262
32767SOL    HW2  309   5.457   9.612   8.460 -0.4845 -1.4007 -1.7227
32768SOL     OW  310   8.686   2.051  10.109 -0.2279  0.0082 -0.8229
32768SOL    HW1  311   8.717   2.140  10.089  0.6885 -0.7644 -3.1415
32768SOL    HW2  312   8.634   2.026  10.032 -1.4853 -1.0565  0.3183
32769SOL     OW  313   2.782   5.708   9.169  1.0761 -0.1345  0.0545
32769SOL    HW1  314   2.870   5.687   9.202  0.8550 -0.6530  0.3258
32769SOL    HW2  315   2.733   5.626   9.178  0.3846  0.3186  0.4988
32770SOL     OW  316   1.142   4.196  10.301 -0.4083 -0.3428 -0.4228
32770SOL    HW1  317   1.225   4.178  10.258 -0.5963 -1.3227 -0.3877
32770SOL    HW2  318   1.165   4.255  10.373 -0.2214  2.2395 -2.4081
32771SOL     OW  319  10.303   0.884   6.555 -0.3967  0.1188 -0.0382
32771SOL    HW1  320  10.308   0.968   6.600  3.0914  2.1016 -3.5534
32771SOL    HW2  321  10.210   0.869   6.542 -1.2039  2.6380  2.0471
32772SOL     OW  322   1.060   1.382   7.996  0.0734  0.4481 -0.0090
32772SOL    HW1  323   1.072   1.306   7.939  0.1519  1.2816 -1.1472
32772SOL    HW2  324   0.977   1.365   8.042 -0.6955  0.3545 -1.3776
32773SOL     OW  325   4.942   6.698   0.142  0.2452 -0.2135  0.1797
32773SOL    HW1  326   4.929   6.626   0.080  2.9549 -1.7312  1.2122
32773SOL    HW2  327   4.918   6.662   0.227  0.1202  0.6569  0.5275
32774SOL     OW  328   6.405   5.272   7.340 -0.6303 -0.0102 -0.3958
32774SOL    HW1  329   6.325   5.308   7.378 -1.5800 -0.3483 -1.9896
32774SOL    HW2  330   6.404   5.304   7.250 -0.2520 -2.0557 -1.1571
32775SOL     OW  331   1.137   6.277   4.879  0.2038 -0.1522 -0.1749
32775SOL    HW1  332   1.099   6.336   4.814  2.5760  0.9679 -0.6607
32775SOL    HW2  333   1.196   6.333   4.931  1.7524 -1.8665  0.0295
32776SOL     OW  334   6.218  10.328   7.365  0.4073  0.4827 -0.0528
32776SOL    HW1  335   6.230  10.373   7.282  2.7202  0.4978  0.2426
32776SOL    HW2  336   6.284  10.259   7.365  0.7450  0.7616  1.9677
32777SOL     OW  337   6.891   4.982   5.465 -0.1037 -0.1286  0.3433
32777SOL    HW1  338   6.870   4.890   5.481 -0.3655  0.0965  1.3182
32777SOL    HW2  339   6.983   4.981   5.438  0.7812 -0.4266  3.0983
32778SOL     OW  340   3.146   4.709   8.846  0.6101 -0.1238  0.5398
32778SOL    HW1  341   3.125   4.619   8.820  0.7982 -0.7506  2.4173
32778SOL    HW2  342   3.115   4.763   8.773  0.6200 -1.7078 -0.6943
32779SOL     OW  343   8.778   5.320   1.115  0.0621  0.3670  0.1036
32779SOL    HW1  344   8.748   5.410   1.104  0.8015  0.5850 -0.1984
32779SOL    HW2  345   8.699   5.271   1.138 -0.1631  1.2755  1.3405
32780SOL     OW  346   4.431  10.050   3.625 -0.3300  0.2594 -0.0470
32780SOL    HW1  347   4.349  10.089   3.656 -0.5913  0.6612 -1.2288
32780SOL    HW2  348   4.450   9.982   3.690 -2.7658 -1.3653 -0.8942
32781SOL     OW  349   6.932   8.254   2.860  0.0830  0.1861 -1.0916
32781SOL    HW1  350   6.869   8.215   2.800 -2.0055  0.0200  1.0299
32781SOL    HW2  351   6.998   8.295   2.804  0.0363 -2.6461 -3.4185
32782SOL     OW  352   2.126   9.722   3.164 -0.6167 -0.1291  0.2628
32782SOL    HW1  353   2.134   9.635   3.125 -3.3553  0.3290 -1.5861
32782SOL    HW2  354   2.091   9.706   3.252 -0.4718 -0.8908  0.1900
32783SOL     OW  355   2.148   5.558   7.343 -0.3273  0.2080 -0.6473
32783SOL    HW1  356   2.105   5.585   7.424 -0.5717 -0.2118 -0.6356
32783SOL    HW2  357   2.156   5.463   7.349 -0.2190  0.1853 -1.0538
32784SOL     OW  358   8.821   5.111   1.750  0.2471  0.3721  0.0910
32784SOL    HW1  359   8.868   5.146   1.826 -1.0255 -0.5354  1.3459
32784SOL    HW2  360   8.751   5.175   1.735 -0.6009 -0.3541  0.8527
32785SOL     OW  361   2.334  11.099   4.588  0.5385  0.1919  0.1402
32785SOL    HW1  362   2.428  11.082   4.583  0.4756  0.2336 -2.4098
32785SOL    HW2  363   2.325  11.191   4.565 -0.1436  0.1788  0.3206
32786SOL     OW  364   8.972  10.477   3.843  0.4308  0.1754  0.1585
32786SOL    HW1  365   8.901  10.443   3.897 -0.3406 -0.3718 -1.1480
32786SOL    HW2  366   8.985  10.411   3.776  2.0902  0.3430  0.2635
32787SOL     OW  367   8.104   4.790   2.475  0.2354 -0.4710 -0.2583
32787SOL    HW1  368   8.116   4.705   2.517  0.2520 -0.2140  0.2761
32787SOL    HW2  369   8.169   4.791   2.405  0.8765 -0.5385  0.3183
32788SOL     OW  370   5.058   6.832   8.248 -0.4727  0.1610  0.1025
32788SOL    HW1  371   4.979   6.828   8.195  0.4934 -0.8955 -1.3146
32788SOL    HW2  372   5.026   6.827   8.339 -1.9227 -2.9322 -0.4724
32789SOL     OW  373   9.198   1.686   9.908  0.6637 -0.5247 -0.1861
32789SOL    HW1  374   9.281   1.731   9.921  0.8332 -1.1270  1.0137
32789SOL    HW2  375   9.150   1.701   9.990  0.8154 -2.6610  0.3673
32790SOL     OW  376   1.892   4.559   4.881  0.7696 -1.1223  0.6025
32790SOL    HW1  377   1.879   4.603   4.966 -0.3381 -2.8714  1.3969
32790SOL    HW2  378   1.983   4.530   4.883  0.6793 -1.3878  1.3264
32791SOL     OW  379   3.655   3.803   5.994 -0.1582  0.2395 -0.0634
32791SOL    HW1  380   3.598   3.727   6.007  0.7437 -0.3010  0.8646
32791SOL    HW2  381   3.595   3.877   5.989 -0.9253 -0.1012  2.5024
32792SOL     OW  382   2.768   1.024   8.919  0.0592 -0.2919  0.1590
32792SOL    HW1  383   2.841   0.966   8.943  0.2058 -0.4667 -0.6813
32792SOL    HW2  384   2.770   1.093   8.985 -0.1375 -1.2503  1.2094
32793SOL     OW  385   3.998   5.147   1.118  0.5063  0.1409 -0.5936
32793SOL    HW1  386   4.081   5.185   1.087  1.0031  0.4843  1.0599
32793SOL    HW2  387   3.931   5.199   1.075  1.1729  1.3750 -0.2025
32794SOL     OW  388   2.744   7.028   7.543  0.2733  0.0392 -0.3114
32794SOL    HW1  389   2.708   7.070   7.621  1.7318 -2.3090  1.7836
32794SOL    HW2  390   2.794   7.096   7.499 -0.3602  1.3553  0.9402
32795SOL     OW  391   2.671   6.985   6.095 -0.5842 -0.4440  0.3744
32795SOL    HW1  392   2.584   6.958   6.123 -0.6309  1.0033  1.7814
32795SOL    HW2  393   2.657   7.025   6.009 -1.6523  1.3277  1.3056
32796SOL     OW  394   0.593   0.170   7.190  0.3731  0.2141  0.3204
32796SOL    HW1  395   0.540   0.248   7.211  1.1471  0.5367  1.1430
32796SOL    HW2  396   0.633   0.190   7.106  2.0900  1.5734  1.3864
32797SOL     OW  397  11.192   6.358  10.016 -0.3629  0.4749  0.0834
32797SOL    HW1  398  11.275   6.315   9.996 -0.7563  0.3018 -1.2383
32797SOL    HW2  399  11.204   6.448   9.985 -1.4299 -0.1264 -2.3232
32798SOL     OW  400   2.494  10.859   4.029 -0.1335  0.0578 -0.2204
32798SOL    HW1  401   2.446  10.819   3.957  0.4027  0.3932 -0.7756
32798SOL    HW2  402   2.517  10.785   4.087  1.1202 -0.5167 -1.3914
32799SOL     OW  403  10.976   7.503   5.748 -0.1629 -0.0400 -0.1425
32799SOL    HW1  404  10.987   7.575   5.685 -0.7847  0.1071 -0.0880
32799SOL    HW2  405  11.007   7.426   5.701 -0.4175  0.1056 -0.5551
32800SOL     OW  406   0.917   3.436   2.773  0.4124  0.1010 -0.4096
32800SOL    HW1  407   0.991   3.395   2.728  1.2588 -1.0060  1.8141
32800SOL    HW2  408   0.873   3.363   2.818 -1.6671  0.8331 -1.1234
32801SOL     OW  409   7.850   0.688   8.957  0.0054  0.2350 -0.2236
32801SOL    HW1  410   7.757   0.678   8.940  0.2628  0.0349 -1.6121
32801SOL    HW2  411   7.873   0.613   9.012 -1.0911  1.5494  2.1793
32802SOL     OW  412   0.830   1.725  10.825  0.3327  0.1964  0.1422
32802SOL    HW1  413   0.768   1.669  10.871 -0.7526  0.9324 -0.3887
32802SOL    HW2  414   0.842   1.684  10.740  1.7142 -0.7258  0.7573
32803SOL     OW  415   0.084   3.611   2.118 -0.2805 -0.9481  0.1923
32803SOL    HW1  416   0.006   3.579   2.164  0.5674 -2.0846  0.9301
32803SOL    HW2  417   0.157   3.567   2.163  0.7486 -0.2712 -0.7660
32804SOL     OW  418   1.179   0.610   7.992 -0.4188  0.1862  0.5129
32804SOL    HW1  419   1.121   0.677   7.954  0.4617  0.6314 -0.0767
32804SOL    HW2  420   1.267   0.647   7.984  0.1692 -1.3420 -0.5183
32805SOL     OW  421   4.605   3.283  10.568  0.6153  0.4563 -0.5111
32805SOL    HW1  422   4.690   3.249  10.597  0.5827  0.1137 -0.8054
32805SOL    HW2  423   4.606   3.272  10.473 -0.0467 -0.2200 -0.4511
32806SOL     OW  424   0.516  11.118   4.518 -0.3795 -0.9060  0.5826
32806SOL    HW1  425   0.483  11.029   4.529 -0.1851 -1.0565 -0.0378
32806SOL    HW2  426   0.516  11.154   4.607 -0.3248 -1.5713  0.8604
32807SOL     OW  427   9.010   0.760   7.398  0.2477  0.1749 -0.3900
32807SOL    HW1  428   9.018   0.794   7.309  0.4186  1.5859  0.1370
32807SOL    HW2  429   9.003   0.665   7.387 -0.9422  0.3986 -1.9829
32808SOL     OW  430  10.038   0.185   8.325  0.3937 -0.2356 -0.5712
32808SOL    HW1  431  10.108   0.125   8.299  0.7446  0.4287 -1.2058
32808SOL    HW2  432  10.007   0.151   8.409  2.0037 -0.1198  0.1008
32809SOL     OW  433   8.967   2.767   4.730  0.2584  0.2643  0.6693
32809SOL    HW1  434   9.062   2.780   4.739  0.0154  0.9202  2.7077
32809SOL    HW2  435   8.931   2.855   4.721 -0.0474 -0.0550 -2.5070
32810SOL     OW  436   7.613   6.895   7.559  0.2322  0.2466 -0.0394
32810SOL    HW1  437   7.638   6.831   7.626  2.6457  0.7737 -0.3594
32810SOL    HW2  438   7.591   6.842   7.482  0.5200 -0.2599  0.2230
32811SOL     OW  439   0.646   8.045   7.603 -0.1549  0.0996  0.1888
32811SOL    HW1  440   0.690   8.114   7.652 -1.0715 -0.1760  1.4544
32811SOL    HW2  441   0.717   7.988   7.572  0.4669  0.4854  0.9006
32812SOL     OW  442   9.387  10.791   9.059  0.5535  0.6571 -0.1173
32812SOL    HW1  443   9.302  10.749   9.049  1.3223 -1.0499  0.2550
32812SOL    HW2  444   9.395  10.808   9.153  0.1372  1.9363 -0.2926
32813SOL     OW  445   6.866  10.564  10.393  0.0186  0.5159  0.6347
32813SOL    HW1  446   6.923  10.510  10.338 -1.5731 -0.4762 -0.1205
32813SOL    HW2  447   6.792  10.507  10.415 -1.6394  2.2836 -0.0349
32814SOL     OW  448   4.087   2.236   2.992 -0.6543 -0.3145 -0.5446
32814SOL    HW1  449   4.075   2.324   2.957 -0.3316 -0.6779 -1.6228
32814SOL    HW2  450   4.178   2.233   3.021 -1.5098  0.7088  2.5374
32815SOL     OW  451   6.121   4.891   8.912  0.1443 -0.4028 -0.2350
32815SOL    HW1  452   6.163   4.943   8.844  1.4626 -0.9977  0.0934
32815SOL    HW2  453   6.168   4.808   8.911 -1.4867 -1.3659 -0.3077
32816SOL     OW  454   4.164   4.694   9.314 -0.1082  0.2669  0.5987
32816SOL    HW1  455   4.252   4.689   9.277 -0.0505 -2.7407  0.8934
32816SOL    HW2  456   4.171   4.762   9.382  2.0288  0.0373  0.6900
32817SOL     OW  457   2.593   4.122   3.175  0.6370  0.2042  0.3760
32817SOL    HW1  458   2.589   4.052   3.239 -0.1921  0.4931  0.6465
32817SOL    HW2  459   2.560   4.199   3.221  1.4948  0.7716  0.0692
32818SOL     OW  460   7.872   7.891   3.827  0.4266 -0.2233 -0.5308
32818SOL    HW1  461   7.777   7.892   3.833  0.5056 -0.1839  1.6865
32818SOL    HW2  462   7.899   7.973   3.868  1.4239  0.1643 -1.8889
32819SOL     OW  463   1.264   0.265   3.189  0.9425  0.7022 -0.5112
32819SOL    HW1  464   1.326   0.304   3.251  1.2417 -0.1180 -0.2798
32819SOL    HW2  465   1.184   0.253   3.240  1.2223 -0.0736 -0.2347
32820SOL     OW  466   2.980   9.951   1.658  0.4274 -0.1597  0.6490
32820SOL    HW1  467   3.042  10.022   1.642 -0.4408  0.4317 -0.1414
32820SOL    HW2  468   3.032   9.871   1.647  0.9076  0.3118 -0.6054
32821SOL     OW  469   6.435   9.398   5.613  0.4118 -0.2809 -0.5788
32821SOL    HW1  470   6.395   9.315   5.640  1.4043 -0.5768  0.0165
32821SOL    HW2  471   6.508   9.372   5.556 -0.2322  0.2552 -1.6743
32822SOL     OW  472  10.518   0.439   3.967 -0.2356  0.3939  0.1979
32822SOL    HW1  473  10.426   0.465   3.966 -0.6825 -1.1402 -0.6649
32822SOL    HW2  474  10.520   0.359   4.019  0.5786  0.2681 -0.0126
32823SOL     OW  475   7.917  10.956   2.740  0.3211  0.0404 -0.7500
32823SOL    HW1  476   7.836  10.980   2.695  0.3417 -1.0444 -1.4037
32823SOL    HW2  477   7.985  10.961   2.672  1.0715  2.1922  0.0714
32824SOL     OW  478   2.669   1.678   3.758  0.0112 -1.0612  0.2773
32824SOL    HW1  479   2.702   1.767   3.747 -1.0802 -0.6637  0.0935
32824SOL    HW2  480   2.730   1.637   3.820 -0.6419  0.4840  2.0326
32825SOL     OW  481   3.744   6.380   2.364 -0.6808 -0.4270  0.1449
32825SOL    HW1  482   3.760   6.299   2.317  1.5183 -0.0563  0.1486
32825SOL    HW2  483   3.786   6.367   2.449 -0.9248  0.4415  0.4109
32826SOL     OW  484  11.045   4.078   9.083  0.1089 -0.1342 -0.4284
32826SOL    HW1  485  11.137   4.103   9.072  0.4388 -1.1131  0.0226
32826SOL    HW2  486  11.032   4.007   9.020 -0.7425  0.9158 -1.4951
32827SOL     OW  487  10.674   9.948   6.553 -0.4370 -0.6344 -0.0070
32827SOL    HW1  488  10.757   9.969   6.510  0.7286 -0.3499  2.2425
32827SOL    HW2  489  10.673  10.004   6.631 -2.5138 -1.0166  0.2739
32828SOL     OW  490   4.584   4.899  10.177  0.1135  0.0183 -0.3696
32828SOL    HW1  491   4.626   4.909  10.092 -2.0798 -0.0719 -1.5550
32828SOL    HW2  492   4.588   4.805  10.195  0.8699  0.0793 -0.2096
32829SOL     OW  493   2.358   5.034   7.841  0.4129 -0.0052 -0.3930
32829SOL    HW1  494   2.289   5.037   7.775  1.5381  0.1829 -1.6086
32829SOL    HW2  495   2.355   4.944   7.875 -1.2092  0.3493  0.4694
32830SOL     OW  496   5.516   6.963   7.444 -0.3504 -0.3779  1.1878
32830SOL    HW1  497   5.533   7.056   7.464 -2.2067  0.5569 -1.0944
32830SOL    HW2  498   5.421   6.959   7.433 -0.2183 -2.4319  0.5249
32831SOL     OW  499   3.382   9.007   0.772  0.3910 -0.7460  0.3315
32831SOL    HW1  500   3.405   8.932   0.827  0.8573  0.3582  1.6992
32831SOL    HW2  501   3.446   9.074   0.795 -1.6042  0.9831  1.1134
32832SOL     OW  502   3.780   8.789   3.872  0.2494 -0.0517  0.3772
32832SOL    HW1  503   3.775   8.881   3.900  0.2542 -0.0820  0.4780
32832SOL    HW2  504   3.704   8.748   3.912  0.3076 -0.1160  0.4210
32833SOL     OW  505   0.239   8.716   1.813  0.3038  0.1540  0.4762
32833SOL    HW1  506   0.294   8.728   1.891 -0.3581 -0.7040  1.0887
32833SOL    HW2  507   0.212   8.624   1.817 -1.0511  0.5195  0.1040
32834SOL     OW  508   1.991   1.741  10.864  0.3626  0.0405 -0.3042
32834SOL    HW1  509   1.912   1.792  10.881 -0.3210 -0.6901 -1.2237
32834SOL    HW2  510   2.018   1.767  10.776 -0.7159 -2.0736 -1.3143
32835SOL     OW  511   9.027   1.323   3.719  0.0570  0.5744 -0.3090
32835SOL    HW1  512   9.074   1.254   3.674 -1.2549 -1.9251  1.8234
32835SOL    HW2  513   9.091   1.362   3.778  0.5651  0.4686 -0.7893
32836SOL     OW  514   3.286   4.180   9.606  0.3818 -0.9405  0.1345
32836SOL    HW1  515   3.243   4.169   9.691  0.2754 -2.0595 -0.0515
32836SOL    HW2  516   3.346   4.254   9.619 -0.8784  0.0301  0.6744
32837SOL     OW  517   1.750   5.928  10.442  0.2244  0.5545 -0.1364
32837SOL    HW1  518   1.686   5.875  10.395  0.1916  0.9484 -0.5374
32837SOL    HW2  519   1.759   5.884  10.527 -2.9224  2.1792  1.1911
32838SOL     OW  520   9.978   6.118   9.034  0.3155 -0.0593 -0.5273
32838SOL    HW1  521  10.048   6.101   9.096  1.5529  1.0813 -1.5592
32838SOL    HW2  522  10.011   6.087   8.950 -1.0586 -0.9420 -0.7859
32839SOL     OW  523   8.743   0.913   6.344 -0.3580  0.2156 -0.2064
32839SOL    HW1  524   8.709   0.984   6.291  0.5826  0.9863  0.1778
32839SOL    HW2  525   8.699   0.835   6.312 -1.0163  0.8978 -0.9974
32840SOL     OW  526   4.370  11.197   5.529  0.1110  0.6877 -0.1201
32840SOL    HW1  527   4.399  11.108   5.544  2.2790  1.1541 -1.1226
32840SOL    HW2  528   4.402  11.247   5.604  0.2904  0.8926 -0.3298
32841SOL     OW  529   4.908   0.328   6.398 -0.1212 -0.3853  0.1491
32841SOL    HW1  530   4.980   0.377   6.359  0.0052 -0.1913  0.6144
32841SOL    HW2  531   4.937   0.311   6.488 -0.5374 -0.5425  0.2557
32842SOL     OW  532   2.912   4.482   9.033 -0.1204 -0.0300 -0.0764
32842SOL    HW1  533   2.872   4.468   8.948 -1.0952  1.2108  0.1383
32842SOL    HW2  534   2.982   4.417   9.038 -0.5736 -0.6679 -1.4656
32843SOL     OW  535   0.535   8.209   7.306  0.1927  0.0173  0.3043
32843SOL    HW1  536   0.529   8.304   7.294 -0.0360  0.3526  2.6143
32843SOL    HW2  537   0.602   8.197   7.374  0.9490 -1.5588 -0.6639
32844SOL     OW  538   4.059  10.998   2.078 -0.1641  0.3968  0.6316
32844SOL    HW1  539   3.976  11.008   2.031 -0.9793  1.4380  2.2060
32844SOL    HW2  540   4.039  10.937   2.148  1.4146 -2.3031 -1.0770
32845SOL     OW  541  10.171   6.637   6.628  0.3203 -0.2620 -0.0415
32845SOL    HW1  542  10.217   6.555   6.609  1.3303 -0.3612  2.4322
32845SOL    HW2  543  10.192   6.656   6.720 -1.0469  2.0364 -0.1132
32846SOL     OW  544   7.019   1.694   8.223 -0.3286 -0.3535 -0.5096
32846SOL    HW1  545   7.020   1.633   8.297  1.5094  0.4985  0.2482
32846SOL    HW2  546   7.020   1.781   8.264  2.5517  0.1525 -1.4167
32847SOL     OW  547   9.374   8.428  10.146 -0.0320  0.4885 -1.1899
32847SOL    HW1  548   9.338   8.364  10.084 -0.1353 -0.9370  0.2774
32847SOL    HW2  549   9.315   8.424  10.221  1.9738 -0.3854  0.4336
32848SOL     OW  550   9.791   3.796   5.568  0.9453  0.9410 -0.2483
32848SOL    HW1  551   9.833   3.712   5.552 -2.0290 -0.4249 -1.4294
32848SOL    HW2  552   9.863   3.853   5.598  3.0963 -1.8765  0.3472
32849SOL     OW  553   9.457   9.773   7.340  0.4310 -0.1467  0.6033
32849SOL    HW1  554   9.386   9.738   7.395 -0.4616 -0.1807 -0.5332
32849SOL    HW2  555   9.427   9.861   7.317  1.6021  0.5305  1.5558
32850SOL     OW  556   7.866   4.687   0.550 -0.0266 -0.0680 -0.3922
32850SOL    HW1  557   7.937   4.629   0.523  0.5005  0.6511 -0.5865
32850SOL    HW2  558   7.803   4.683   0.478  0.1845 -0.1045 -0.5759
32851SOL     OW  559   4.235   7.286   0.893  0.2835  0.2589 -0.3002
32851SOL    HW1  560   4.323   7.277   0.930 -0.7613  0.4043  2.4495
32851SOL    HW2  561   4.186   7.212   0.928 -1.2032  1.2938 -0.0902
32852SOL     OW  562   6.924   4.525   4.506 -0.6375  1.1313 -0.4232
32852SOL    HW1  563   6.853   4.589   4.518 -1.2199  0.4773 -0.2988
32852SOL    HW2  564   6.922   4.473   4.587 -0.4223  0.7141 -0.6863
32853SOL     OW  565   9.504   6.421   6.287 -0.2962  0.0501  0.0839
32853SOL    HW1  566   9.472   6.332   6.271 -1.3721 -0.0351  2.3417
32853SOL    HW2  567   9.426   6.470   6.313  0.1511  1.8907 -1.7849
32854SOL     OW  568   3.253   2.882   0.660  0.0212  0.2903 -0.2154
32854SOL    HW1  569   3.247   2.964   0.710  0.2916  0.3724 -0.3134
32854SOL    HW2  570   3.211   2.817   0.716  2.0390 -0.0323  1.0446
32855SOL     OW  571   5.681  10.057   6.977 -0.2428  0.0786 -0.6240
32855SOL    HW1  572   5.752  10.121   6.981  1.4995 -1.8291  1.2341
32855SOL    HW2  573   5.606  10.106   6.943  0.9988  3.0605  0.6309
32856SOL     OW  574   5.507   7.649   7.513  0.1213  0.3724 -0.9014
32856SOL    HW1  575   5.483   7.565   7.552  0.5396 -0.7644 -2.9295
32856SOL    HW2  576   5.435   7.708   7.538 -0.7538 -0.8754 -0.3484
32857SOL     OW  577  10.052   9.244  10.285  0.4015 -0.3020 -0.5998
32857SOL    HW1  578  10.115   9.199  10.341 -0.2922 -1.3780 -0.6523
32857SOL    HW2  579  10.105   9.281  10.214  0.9337 -1.7867 -1.0226
32858SOL     OW  580   6.542   3.192   2.188 -0.1565  0.4415  0.5321
32858SOL    HW1  581   6.616   3.132   2.180 -1.4576 -1.2162  0.5655
32858SOL    HW2  582   6.482   3.149   2.249 -1.6627  1.2105 -0.3642
32859SOL     OW  583   2.822   9.378   8.257  0.1681  0.0335 -0.4256
32859SOL    HW1  584   2.729   9.376   8.233  0.5504  1.4776 -2.1986
32859SOL    HW2  585   2.831   9.455   8.313  0.5538  0.8756 -1.6059
32860SOL     OW  586   1.868   3.036   0.901  0.7051  0.1733  0.1253
32860SOL    HW1  587   1.959   3.046   0.930  0.4329  2.6151  0.3367
32860SOL    HW2  588   1.871   3.051   0.806  0.6166 -0.6294 -0.0137
32861SOL     OW  589   0.541  10.511   7.813 -0.3469  0.3046 -0.3376
32861SOL    HW1  590   0.567  10.419   7.812  1.7805  0.8095  1.0689
32861SOL    HW2  591   0.581  10.548   7.734  1.0157  0.5043  0.4106
32862SOL     OW  592   1.990   5.935   2.315 -0.1460  0.1245 -0.3953
32862SOL    HW1  593   2.065   5.903   2.265  1.0545  0.3705  1.1693
32862SOL    HW2  594   2.002   6.030   2.317  0.6091  0.0398  1.4439
32863SOL     OW  595   5.204  10.176   5.159 -0.3628 -0.3381 -0.6557
32863SOL    HW1  596   5.273  10.148   5.098  0.6945  0.2459  0.2374
32863SOL    HW2  597   5.239  10.254   5.201 -0.7288 -1.1526  1.2696
32864SOL     OW  598   3.917   2.703   3.398 -0.5337 -0.2661 -0.0106
32864SOL    HW1  599   3.977   2.659   3.458 -1.3240  1.4875  2.1681
32864SOL    HW2  600   3.911   2.793   3.430 -2.7910  0.1421 -1.3405
32865SOL     OW  601   6.524   2.274  10.515  0.3728 -0.2244 -0.1316
32865SOL    HW1  602   6.458   2.332  10.553 -0.2436  0.0725 -1.5875
32865SOL    HW2  603   6.605   2.297  10.560 -0.5068 -0.6989  1.8087
32866SOL     OW  604   9.274   0.553  10.692  0.0852  0.5101  0.3574
32866SOL    HW1  605   9.283   0.459  10.675 -0.1463  0.7711 -1.3756
32866SOL    HW2  606   9.333   0.594  10.629  0.4402  1.5471  1.3251
32867SOL     OW  607   9.573   4.912   3.875  0.4025  0.4589 -0.1314
32867SOL    HW1  608   9.598   4.868   3.793 -0.2260  0.5314 -0.3616
32867SOL    HW2  609   9.656   4.944   3.910  0.3941  3.2088 -2.3075
32868SOL     OW  610   2.544   3.935   1.386 -0.1803 -0.0086 -1.1186
32868SOL    HW1  611   2.524   3.936   1.479  0.5048 -0.4219 -0.9694
32868SOL    HW2  612   2.461   3.911   1.344 -0.5835  0.5299 -0.6513
32869SOL     OW  613   8.599   8.874   0.785  0.7497  0.0495 -0.1230
32869SOL    HW1  614   8.602   8.790   0.740  1.9663  0.8350 -1.6254
32869SOL    HW2  615   8.603   8.939   0.715  0.2552  1.3625  1.0180
32870SOL     OW  616   9.917   8.931   9.832 -0.5906 -0.3480  0.1017
32870SOL    HW1  617   9.822   8.936   9.845 -0.4930  1.6814  0.2716
32870SOL    HW2  618   9.954   8.977   9.907  0.5390 -0.7229 -0.2057
32871SOL     OW  619   3.405   6.792   5.414 -0.0661 -0.0654 -0.2374
32871SOL    HW1  620   3.455   6.838   5.347 -0.2464 -2.3422 -2.0825
32871SOL    HW2  621   3.314   6.817   5.398 -0.0149  0.1157 -0.2416
32872SOL     OW  622   0.227   1.694   1.703 -0.1760 -0.1306  0.1515
32872SOL    HW1  623   0.180   1.690   1.620  0.5694  0.9878 -0.3469
32872SOL    HW2  624   0.250   1.786   1.714  1.5280 -0.5646  0.5758
32873SOL     OW  625   5.643   9.876  10.600  0.7945 -0.4587 -0.1076
32873SOL    HW1  626   5.654   9.914  10.687  0.5905 -0.5727 -0.0319
32873SOL    HW2  627   5.579   9.806  10.613 -0.0863  0.2436 -0.5575
32874SOL     OW  628   9.057   8.846   5.027  0.0056 -0.3356  0.4921
32874SOL    HW1  629   9.021   8.839   4.939 -0.5478  0.0191  0.6856
32874SOL    HW2  630   9.146   8.811   5.020  0.4580  0.9488 -0.4953
32875SOL     OW  631   8.780   9.726   0.521 -0.6834  0.3488 -0.2781
32875SOL    HW1  632   8.810   9.763   0.604  0.4717 -0.0271 -0.5160
32875SOL    HW2  633   8.726   9.795   0.482 -0.5876  0.8242  0.4188
32876SOL     OW  634   1.079   4.068   7.905  0.5239  0.2908 -0.1653
32876SOL    HW1  635   1.127   4.149   7.887  0.6089  0.2471 -0.1372
32876SOL    HW2  636   1.146   4.007   7.934  0.5946 -0.0723 -1.0616
32877SOL     OW  637  10.331   3.612   3.159  0.7415 -0.5320  0.8647
32877SOL    HW1  638  10.325   3.554   3.082 -0.4617  0.0361  0.5038
32877SOL    HW2  639  10.280   3.567   3.226  0.7738 -0.4452  0.9472
32878SOL     OW  640   3.461  10.795   9.019  0.1619  0.4003  0.5156
32878SOL    HW1  641   3.398  10.849   9.066  1.1884  1.1649  1.0472
32878SOL    HW2  642   3.437  10.804   8.927  0.9335  2.6110  0.4910
32879SOL     OW  643   8.499   9.836   2.943  0.4404  0.1343  0.1465
32879SOL    HW1  644   8.589   9.836   2.974 -0.2575  0.9434  2.4112
32879SOL    HW2  645   8.502   9.879   2.858  2.4003 -1.4949 -0.6884
32880SOL     OW  646   8.165   2.059   7.225 -0.3590 -0.2332 -0.2890
32880SOL    HW1  647   8.178   2.142   7.179 -1.8811 -0.0224 -0.4093
32880SOL    HW2  648   8.253   2.022   7.235  0.1791  0.4986 -1.9102
32881SOL     OW  649  10.004   9.814  10.411  0.1790 -0.4802 -0.0288
32881SOL    HW1  650  10.098   9.805  10.396 -0.0790 -0.5050 -1.8794
32881SOL    HW2  651   9.991   9.906  10.433  0.4548 -0.0152 -1.6684
32882SOL     OW  652  10.531   4.793   5.748 -0.1737  0.0425  0.2530
32882SOL    HW1  653  10.600   4.830   5.693 -0.6172 -0.5449 -0.7065
32882SOL    HW2  654  10.532   4.700   5.730  0.0503 -0.2668  1.6827
32883SOL     OW  655   9.801   8.538   8.732  0.0513 -0.3557 -0.2198
32883SOL    HW1  656   9.848   8.512   8.652  2.4588 -0.2794  1.0621
32883SOL    HW2  657   9.802   8.459   8.787  1.2212  0.4163  0.9312
32884SOL     OW  658   4.636   3.137   4.122 -0.2779 -0.1623  0.5322
32884SOL    HW1  659   4.621   3.176   4.208  0.5054 -1.5577  1.3474
32884SOL    HW2  660   4.628   3.043   4.137  0.7888 -0.4847 -0.7263
32885SOL     OW  661   7.184  10.670  10.257 -0.2106  0.5845  0.7378
32885SOL    HW1  662   7.197  10.580  10.288 -0.9848  0.2368  0.1106
32885SOL    HW2  663   7.192  10.724  10.336  0.0930 -0.0517  1.1523
32886SOL     OW  664   3.036   1.642   2.838  0.7051  0.1608 -0.3621
32886SOL    HW1  665   3.028   1.588   2.760 -1.4067  1.3013 -1.0203
32886SOL    HW2  666   3.012   1.583   2.910 -2.2362  0.2338 -1.1339
32887SOL     OW  667   6.602   9.077   4.537 -0.0607 -0.6082  1.3158
32887SOL    HW1  668   6.516   9.036   4.546 -0.6784  0.6403  1.3013
32887SOL    HW2  669   6.590   9.143   4.469  0.9135 -0.4045  1.3220
32888SOL     OW  670   6.242   0.210   3.892 -0.4021 -0.4332  0.4624
32888SOL    HW1  671   6.324   0.221   3.938  0.0903 -0.9835 -0.2558
32888SOL    HW2  672   6.200   0.136   3.935 -0.0915 -0.7400  0.2453
32889SOL     OW  673   4.925   2.096  10.545 -0.0467 -0.0095 -0.0105
32889SOL    HW1  674   4.914   2.040  10.468  0.3899  0.9313 -0.7810
32889SOL    HW2  675   4.941   2.184  10.509 -3.4149  1.2353  1.1303
32890SOL     OW  676   4.521   5.193   1.069 -0.5843 -0.1940  0.6898
32890SOL    HW1  677   4.536   5.253   1.142  0.7277  1.1295 -0.6036
32890SOL    HW2  678   4.539   5.245   0.991  1.2774 -2.4312 -0.4911
32891SOL     OW  679   8.156   8.090   4.286  0.5179  0.5543  0.1220
32891SOL    HW1  680   8.156   8.003   4.244 -1.6919  1.0765 -1.1382
32891SOL    HW2  681   8.246   8.121   4.276  1.1206 -1.1715 -0.3077
32892SOL     OW  682   6.838   8.175  11.129  0.3489 -0.1672 -0.1765
32892SOL    HW1  683   6.760   8.124  11.153  0.5740 -1.5611 -2.1594
32892SOL    HW2  684   6.805   8.262  11.109 -0.6253 -0.5925 -0.4790
32893SOL     OW  685  10.019   7.217   8.378 -0.1911 -0.8930 -0.1056
32893SOL    HW1  686   9.966   7.286   8.338 -0.7250 -1.3199 -0.1394
32893SOL    HW2  687  10.084   7.195   8.311 -2.5296 -3.2844 -1.7587
32894SOL     OW  688  10.858   4.798   7.379 -0.2323 -0.0624  0.3614
32894SOL    HW1  689  10.920   4.726   7.393 -0.6994 -1.0744 -2.3207
32894SOL    HW2  690  10.797   4.791   7.453  1.5416 -0.3699  1.8866
32895SOL     OW  691   8.704   8.511   4.572 -0.2827 -0.1017 -0.5442
32895SOL    HW1  692   8.785   8.482   4.532 -0.0978 -1.2155  0.5543
32895SOL    HW2  693   8.731   8.564   4.647 -0.5833  0.3376 -0.7423
32896SOL     OW  694   6.847   8.306   7.097  0.1329  0.6864 -0.2121
32896SOL    HW1  695   6.771   8.279   7.046  1.0948  0.7826 -1.7493
32896SOL    HW2  696   6.892   8.225   7.118  0.6180  0.7517 -0.9632
32897SOL     OW  697   1.037   4.632   4.965 -0.2417  0.0390 -1.3315
32897SOL    HW1  698   0.973   4.582   4.915  0.0379  1.0576 -2.7646
32897SOL    HW2  699   1.082   4.686   4.900  1.4549  0.0207 -0.2431
32898SOL     OW  700   0.666   6.791   3.832  0.1181 -0.1546  0.2872
32898SOL    HW1  701   0.730   6.776   3.902  1.2832 -1.0169 -0.9078
32898SOL    HW2  702   0.718   6.828   3.761 -0.3877 -2.2271 -1.2459
32899SOL     OW  703   0.165   8.625   6.491  0.4626  0.4386 -0.0459
32899SOL    HW1  704   0.223   8.553   6.512  0.6483  0.8252  0.8316
32899SOL    HW2  705   0.223   8.695   6.461  0.5940  1.1636  1.7633
32900SOL     OW  706   3.064   2.243   0.240 -0.7466 -0.5482 -0.0013
32900SOL    HW1  707   3.006   2.239   0.164 -0.4455 -0.7098 -0.2240
32900SOL    HW2  708   3.084   2.336   0.249  0.5321 -0.6779 -1.1357
32901SOL     OW  709   7.982   2.426   0.013  0.3303  0.1548 -0.6061
32901SOL    HW1  710   7.943   2.492   0.070 -2.0869 -0.3139 -1.5692
32901SOL    HW2  711   7.979   2.345   0.065  0.1586  0.1588 -0.6082
32902SOL     OW  712   0.062   8.898   6.158  0.4237  0.1480 -0.0971
32902SOL    HW1  713  -0.032   8.913   6.160  0.3147 -0.5318  0.7064
32902SOL    HW2  714   0.072   8.806   6.134  0.8880  0.2404 -0.2820
32903SOL     OW  715   1.620   1.436   6.448  0.3749  0.5314  0.0245
32903SOL    HW1  716   1.610   1.343   6.426 -0.7998  0.0499  2.2609
32903SOL    HW2  717   1.656   1.475   6.369  1.3247 -1.8990 -0.8537
32904SOL     OW  718   3.377   6.335   1.176 -0.0583 -0.9969  0.1578
32904SOL    HW1  719   3.282   6.348   1.178 -0.0335 -0.2376 -1.7758
32904SOL    HW2  720   3.412   6.406   1.230 -0.5348 -0.1188 -0.6449
32905SOL     OW  721   3.277  11.014   7.099 -0.1062 -0.0717 -0.0211
32905SOL    HW1  722   3.181  11.007   7.098 -0.2080  0.9423  1.1301
32905SOL    HW2  723   3.306  10.930   7.136 -0.5509 -0.3050 -0.1867
32906SOL     OW  724   0.929  10.081   4.514 -0.2379 -0.1734 -0.0750
32906SOL    HW1  725   0.932  10.164   4.467 -2.2960  0.4512  0.7434
32906SOL    HW2  726   0.845  10.084   4.560  0.9511 -1.4205  2.3437
32907SOL     OW  727   5.281   1.340   9.045 -0.1798  0.7915 -0.8251
32907SOL    HW1  728   5.333   1.300   8.975 -2.3910  0.8986 -2.6514
32907SOL    HW2  729   5.253   1.424   9.009  3.2884  3.6577  2.4394
32908SOL     OW  730   2.864  10.029  11.056  0.4302 -0.1534 -0.3062
32908SOL    HW1  731   2.912  10.103  11.019 -1.0726  0.1046 -1.8379
32908SOL    HW2  732   2.913   9.952  11.029  0.8835  0.1772 -0.4307
32909SOL     OW  733   1.014   6.404   9.501 -0.2866 -0.2033  0.1359
32909SOL    HW1  734   1.031   6.337   9.569 -1.6081 -0.5379  0.1717
32909SOL    HW2  735   1.073   6.381   9.429 -0.3423 -1.0944  0.3647
32910SOL     OW  736   6.235   3.543   7.364 -0.2648  0.2244  0.0236
32910SOL    HW1  737   6.318   3.496   7.356 -0.1308  0.5488 -0.5094
32910SOL    HW2  738   6.234   3.574   7.455  1.1358  1.9435 -0.5028
32911SOL     OW  739   0.691   1.893   4.856  0.1597 -0.2883  0.5831
32911SOL    HW1  740   0.600   1.883   4.885  0.0856 -1.3615  0.0097
32911SOL    HW2  741   0.698   1.840   4.777  1.4044 -0.5916  0.8702
32912SOL     OW  742   7.746   3.340   3.304 -0.5646  0.4732 -0.4571
32912SOL    HW1  743   7.726   3.341   3.398  3.1658  2.3256  0.4829
32912SOL    HW2  744   7.825   3.286   3.297 -1.3108 -0.4443 -2.7535
32913SOL     OW  745   0.717   9.504   5.259 -0.2747 -0.0055 -0.8079
32913SOL    HW1  746   0.689   9.440   5.193 -0.7108  0.2523 -0.8810
32913SOL    HW2  747   0.640   9.514   5.315 -0.3580  0.7693 -1.0508
32914SOL     OW  748   8.977   3.909   4.055  0.7536  0.1942 -0.8484
32914SOL    HW1  749   8.898   3.940   4.012 -0.7858 -1.6001  0.4977
32914SOL    HW2  750   9.001   3.830   4.007 -0.5639 -1.4145  0.9711
32915SOL     OW  751   1.599   0.931   5.521  0.6135 -0.5373  0.3930
32915SOL    HW1  752   1.689   0.907   5.500  0.8107 -0.0572  0.6635
32915SOL    HW2  753   1.552   0.924   5.438  0.8410 -1.0492  0.3056
32916SOL     OW  754   7.331  10.694   5.800 -0.7032  0.8193  0.4682
32916SOL    HW1  755   7.323  10.618   5.858  1.0562  0.1889 -0.0524
32916SOL    HW2  756   7.262  10.753   5.829 -0.3494  0.2145  2.7526
32917SOL     OW  757   4.733   7.159  11.244  0.1385  0.2595  0.0536
32917SOL    HW1  758   4.673   7.134  11.174  2.3008 -3.1764 -0.7700
32917SOL    HW2  759   4.699   7.115  11.322  0.0775  0.6194  0.2343
32918SOL     OW  760   6.753   3.779   0.394  0.5890  0.4792 -0.4904
32918SOL    HW1  761   6.845   3.801   0.379  0.3134  2.6003  0.5223
32918SOL    HW2  762   6.709   3.803   0.312  0.8725 -0.2567 -0.8685
32919SOL     OW  763   9.413   4.966   1.409 -0.2001  0.5099  0.5542
32919SOL    HW1  764   9.424   5.059   1.386  2.3930 -0.0450 -0.8502
32919SOL    HW2  765   9.471   4.953   1.484  0.7529 -0.2903 -0.2905
32920SOL     OW  766  11.156   2.152   3.966 -0.7098 -0.4505 -0.1180
32920SOL    HW1  767  11.116   2.096   3.900 -2.9177  1.9324 -0.9835
32920SOL    HW2  768  11.094   2.225   3.977  2.1539  2.1256  0.4849
32921SOL     OW  769   0.232   0.479   6.656  0.0153  0.3784 -0.7257
32921SOL    HW1  770   0.247   0.559   6.605 -0.4299  0.1446 -1.2358
32921SOL    HW2  771   0.316   0.462   6.698  0.0088  1.3292 -0.2957
32922SOL     OW  772   3.683   9.890   6.545 -0.2208 -0.2772 -0.0878
32922SOL    HW1  773   3.645   9.900   6.632  2.6876 -0.8535  1.3458
32922SOL    HW2  774   3.705   9.979   6.518 -1.0058 -0.1112 -0.2080
32923SOL     OW  775   7.152  11.222  10.518 -0.0127  0.4123  0.5251
32923SOL    HW1  776   7.236  11.214  10.564 -0.4510  0.4106  1.3431
32923SOL    HW2  777   7.125  11.312  10.532  0.2480  0.6533 -0.4537
32924SOL     OW  778   5.692  10.111   2.044  0.0722  0.2774 -0.1992
32924SOL    HW1  779   5.609  10.159   2.046 -0.6601 -0.9641  0.2215
32924SOL    HW2  780   5.746  10.159   1.981 -1.4479  0.3332 -1.5155
32925SOL     OW  781   3.477   5.694   0.734 -0.1505 -0.1348  0.1772
32925SOL    HW1  782   3.449   5.785   0.745 -0.1411 -0.2396  1.2094
32925SOL    HW2  783   3.399   5.642   0.757  0.5091 -0.4070  1.9612
32926SOL     OW  784   2.961   7.490   3.573 -0.4101 -0.1490 -0.1901
32926SOL    HW1  785   2.903   7.562   3.597  0.1335  0.0286  0.6316
32926SOL    HW2  786   3.044   7.532   3.551 -0.0975 -0.5232  0.2593
32927SOL     OW  787   3.849   2.810   2.385  0.2095  0.1811 -0.5435
32927SOL    HW1  788   3.817   2.815   2.295 -0.9831 -0.3087 -0.1677
32927SOL    HW2  789   3.939   2.843   2.381  1.3215 -2.6937 -2.4800
32928SOL     OW  790   0.942   7.843   4.225  0.8474  0.2864 -0.1906
32928SOL    HW1  791   0.868   7.782   4.229  1.0945 -0.1220 -1.4382
32928SOL    HW2  792   0.934   7.895   4.304  0.4450 -1.1567  0.7604
32929SOL     OW  793   3.623  10.590   1.883 -0.0015 -0.0070  0.0147
32929SOL    HW1  794   3.694  10.654   1.883 -0.3192  0.3433 -0.0336
32929SOL    HW2  795   3.667  10.506   1.898  0.4649  0.1629 -0.3631
32930SOL     OW  796   9.904   1.824   6.754  0.2336  0.2048  0.1258
32930SOL    HW1  797   9.868   1.910   6.776 -0.3263 -0.0719  0.2923
32930SOL    HW2  798   9.871   1.806   6.666 -0.1354 -0.1058  0.3289
32931SOL     OW  799   3.749   7.549   0.029 -0.4340 -0.1766  0.4242
32931SOL    HW1  800   3.829   7.504   0.001 -0.5739  0.1578 -0.5477
32931SOL    HW2  801   3.701   7.565  -0.051 -2.5514 -2.2750  1.1667
32932SOL     OW  802   8.637   6.738   6.776 -0.2536  0.0886  0.0916
32932SOL    HW1  803   8.709   6.691   6.818 -0.7645 -0.0981  0.7912
32932SOL    HW2  804   8.602   6.794   6.846 -1.0896 -0.1848 -0.0933
32933SOL     OW  805   4.731   6.996   2.201 -0.0589 -0.1555 -0.0422
32933SOL    HW1  806   4.759   7.043   2.279 -2.6927  1.0597  0.2605
32933SOL    HW2  807   4.691   6.916   2.234  1.3727 -1.0499 -0.3735
32934SOL     OW  808   0.428  10.195   9.165 -0.0767 -0.1361 -0.3052
32934SOL    HW1  809   0.367  10.176   9.094  1.1456 -0.7178 -1.2434
32934SOL    HW2  810   0.417  10.288   9.182 -0.9435 -0.1553 -0.7229
32935SOL     OW  811   9.227   8.888  10.230 -0.1996 -0.1079 -0.6255
32935SOL    HW1  812   9.317   8.917  10.248  0.0039 -0.5008 -0.9951
32935SOL    HW2  813   9.173   8.964  10.250  0.0035 -0.5047  1.6250
32936SOL     OW  814   3.288   3.780   8.704 -0.1720  0.1599  0.5826
32936SOL    HW1  815   3.347   3.842   8.746 -0.0198  0.8868 -0.6409
32936SOL    HW2  816   3.214   3.834   8.674 -0.1489 -0.2679 -0.2867
32937SOL     OW  817   3.811  11.144   6.024  0.4988 -0.3127  0.0598
32937SOL    HW1  818   3.768  11.135   5.939 -0.0367  0.9274  0.1788
32937SOL    HW2  819   3.861  11.063   6.034  0.2818 -0.6363 -1.2653
32938SOL     OW  820  10.646   4.014   6.457 -0.6454 -0.0873  0.0149
32938SOL    HW1  821  10.586   3.943   6.435  0.5425 -1.0964 -0.1149
32938SOL    HW2  822  10.628   4.033   6.549 -2.5282  1.0406 -0.5324
32939SOL     OW  823   7.448   8.853   3.921 -0.6738 -0.3638 -0.0892
32939SOL    HW1  824   7.413   8.900   3.845  1.7149  0.8958 -0.4984
32939SOL    HW2  825   7.499   8.781   3.884 -0.5702 -0.5283  0.3733
32940SOL     OW  826   3.798   4.497  10.050  0.4791  0.5541  0.3135
32940SOL    HW1  827   3.808   4.461   9.962  0.6341  2.3266 -0.4432
32940SOL    HW2  828   3.751   4.580  10.036  2.1325  1.7848  1.6720
32941SOL     OW  829   3.015   1.390   9.515  0.2166  0.0750  0.1568
32941SOL    HW1  830   3.040   1.344   9.595 -2.6076 -1.2623  0.3619
32941SOL    HW2  831   3.039   1.330   9.444 -1.6017 -0.8877  0.3141
32942SOL     OW  832   8.213   1.521   0.973 -0.5636 -0.2182  0.5266
32942SOL    HW1  833   8.121   1.503   0.989 -1.3531  2.4242 -0.5404
32942SOL    HW2  834   8.252   1.528   1.060 -1.6675 -0.0190  1.0095
32943SOL     OW  835   0.825   8.427   6.161  0.7058  0.0265  0.1199
32943SOL    HW1  836   0.737   8.393   6.179  2.0332 -3.5952  0.5566
32943SOL    HW2  837   0.875   8.407   6.240  2.6336 -0.7775 -1.2280
32944SOL     OW  838   0.707   0.991   5.819  0.1873  0.5945 -0.1821
32944SOL    HW1  839   0.760   0.914   5.839 -0.5355  0.5885  1.9750
32944SOL    HW2  840   0.702   1.039   5.902 -0.4248  2.3223 -1.1598
32945SOL     OW  841   4.429   9.129   1.597  0.1191  0.3668 -0.1914
32945SOL    HW1  842   4.460   9.041   1.618  2.6187  1.4349  1.0229
32945SOL    HW2  843   4.397   9.165   1.680  0.3814  1.0467 -0.3704
32946SOL     OW  844   8.365   0.201   8.850  0.8607  0.8750 -0.7581
32946SOL    HW1  845   8.400   0.212   8.762  2.8149  1.8985  0.0772
32946SOL    HW2  846   8.425   0.140   8.892 -0.4200 -0.1183 -0.2791
32947SOL     OW  847   4.153   5.573   7.227  0.1944 -0.0912  0.3552
32947SOL    HW1  848   4.131   5.659   7.191  2.1101  0.0730 -0.5727
32947SOL    HW2  849   4.175   5.590   7.319 -0.9791  0.1293  0.6064
32948SOL     OW  850   9.306   2.893   6.438 -0.7263 -0.7953 -0.2135
32948SOL    HW1  851   9.222   2.916   6.398 -0.6096  0.5047  0.2366
32948SOL    HW2  852   9.308   2.943   6.520  0.9478  0.1141 -0.7480
32949SOL     OW  853   6.340   5.424   6.001  0.1470  0.2888  0.0543
32949SOL    HW1  854   6.413   5.468   6.044  1.0402  1.3951 -2.3898
32949SOL    HW2  855   6.360   5.331   6.010 -0.1911  0.3974  2.6880
32950SOL     OW  856   7.549  10.843   6.261  0.5063 -0.3249 -0.4051
32950SOL    HW1  857   7.493  10.846   6.183  1.0869 -1.0843 -0.8645
32950SOL    HW2  858   7.550  10.750   6.286  1.1297 -0.2360 -0.0828
32951SOL     OW  859   6.601   1.193   9.264 -0.2235  0.3165  0.9212
32951SOL    HW1  860   6.620   1.277   9.306 -1.7332  1.4239 -0.5060
32951SOL    HW2  861   6.533   1.154   9.318 -0.6775  0.7763  0.6876
32952SOL     OW  862   5.415   6.432   7.884 -0.1086 -0.2922 -0.4828
32952SOL    HW1  863   5.358   6.506   7.904 -1.9534 -2.2478  2.1654
32952SOL    HW2  864   5.357   6.365   7.851  0.4510 -2.4625  2.5620
32953SOL     OW  865   4.446   6.482   2.274 -0.2031  0.3674 -0.0139
32953SOL    HW1  866   4.467   6.566   2.316  1.0422  0.6865 -1.2092
32953SOL    HW2  867   4.406   6.430   2.344  3.3329  0.2343  2.1688
32954SOL     OW  868   8.764   3.982   1.691  0.5043  0.2802 -0.0450
32954SOL    HW1  869   8.838   4.040   1.672  0.8960 -0.4057 -0.6614
32954SOL    HW2  870   8.723   3.966   1.606 -1.0170  1.4816  0.4046
32955SOL     OW  871   7.063   0.647   1.442  0.0623  0.6031  0.1260
32955SOL    HW1  872   7.103   0.609   1.364  0.0379  1.8890 -0.5456
32955SOL    HW2  873   7.105   0.603   1.515 -1.0117 -1.7571 -0.5774
32956SOL     OW  874   9.443   6.265   0.828 -0.6182  0.1984 -0.1748
32956SOL    HW1  875   9.414   6.307   0.908 -2.2788  2.9642 -2.0521
32956SOL    HW2  876   9.538   6.276   0.827 -0.8443  2.5588  0.2166
32957SOL     OW  877   1.550   3.767   2.130  0.2441 -0.4413 -0.6188
32957SOL    HW1  878   1.569   3.850   2.086  0.2429 -0.6448 -1.0052
32957SOL    HW2  879   1.619   3.708   2.101 -0.6920 -1.0543 -1.6690
32958SOL     OW  880  10.166   1.127   6.963 -0.1477  0.3379 -0.0280
32958SOL    HW1  881  10.237   1.084   7.010  0.8731  2.0861  0.1020
32958SOL    HW2  882  10.092   1.126   7.025  0.7233  1.2587  1.0642
32959SOL     OW  883   9.704   2.334   3.743 -0.1969 -0.2046 -0.0808
32959SOL    HW1  884   9.758   2.256   3.752  1.1205  0.8867  2.4954
32959SOL    HW2  885   9.767   2.405   3.730 -1.0421  0.9360  1.7454
32960SOL     OW  886   8.177  11.016   2.045  0.5008  0.1160 -0.1402
32960SOL    HW1  887   8.223  10.933   2.059  0.8502 -0.0279 -1.9208
32960SOL    HW2  888   8.239  11.070   1.996  0.3962  1.5866  1.2518
32961SOL     OW  889   0.832   7.061   9.931  0.0844 -0.3133 -0.4769
32961SOL    HW1  890   0.873   6.976   9.913  0.8620  0.0299 -0.3283
32961SOL    HW2  891   0.834   7.068  10.026  1.7946  0.7297 -0.5590
32962SOL     OW  892   0.112   4.563   5.526 -0.6283 -0.1697  0.0942
32962SOL    HW1  893   0.123   4.491   5.464  0.2152  1.4708 -1.7914
32962SOL    HW2  894   0.172   4.631   5.494 -0.1598  0.7626  2.7601
32963SOL     OW  895   5.809   1.390   3.126  0.0951 -0.3081  0.7156
32963SOL    HW1  896   5.762   1.318   3.168 -1.1526  0.1390  0.1466
32963SOL    HW2  897   5.743   1.458   3.114  0.9236  0.3973  0.0008
32964SOL     OW  898   6.907   7.362   9.199 -0.3075 -0.7286  0.1878
32964SOL    HW1  899   6.973   7.335   9.135  0.2889  0.7989  0.1221
32964SOL    HW2  900   6.876   7.279   9.238  1.3179 -1.5089 -0.0966
32965SOL     OW  901   4.493   5.187   0.691  0.1239 -0.3614 -0.3962
32965SOL    HW1  902   4.523   5.203   0.601 -0.2506  1.3366 -0.2514
32965SOL    HW2  903   4.493   5.273   0.732 -0.9730 -0.9214  0.8565
32966SOL     OW  904   1.818   4.149   2.210  0.9206  0.2499  0.8319
32966SOL    HW1  905   1.757   4.147   2.284 -0.7624  1.5207 -0.4458
32966SOL    HW2  906   1.771   4.104   2.139  1.5632  1.0298 -0.1126
32967SOL     OW  907   2.181   2.100   9.398 -0.8643  0.7559  0.7004
32967SOL    HW1  908   2.193   2.108   9.492  3.6026  2.4608  0.2360
32967SOL    HW2  909   2.212   2.012   9.377 -0.5508  0.8651  0.7015
32968SOL     OW  910   5.233   2.655   8.497  0.3467 -0.1821 -0.0881
32968SOL    HW1  911   5.252   2.575   8.449  1.7092  0.4538 -0.6722
32968SOL    HW2  912   5.227   2.723   8.429 -2.6008 -0.0080  0.1857
32969SOL     OW  913   0.062   2.127   1.366 -0.2501  0.0587  0.6374
32969SOL    HW1  914  -0.013   2.183   1.386 -0.4486  0.9871 -2.2555
32969SOL    HW2  915   0.136   2.187   1.358  0.2551 -0.5263  0.8028
32970SOL     OW  916   6.259   6.311   0.604  0.4224 -0.3748  0.1565
32970SOL    HW1  917   6.300   6.395   0.625  0.3492 -0.4104  0.4445
32970SOL    HW2  918   6.200   6.294   0.678  0.2882 -0.5819  0.0012
32971SOL     OW  919   3.755   2.703   4.300  0.3602 -0.9057  0.1038
32971SOL    HW1  920   3.735   2.610   4.289  0.2222 -0.8574 -0.0689
32971SOL    HW2  921   3.838   2.715   4.253  0.6515 -1.0493  0.5828
32972SOL     OW  922   6.512   5.652   7.210  0.6144 -0.6613  0.0043
32972SOL    HW1  923   6.437   5.597   7.186 -2.8216  2.4451  2.3440
32972SOL    HW2  924   6.500   5.733   7.160  1.2134  0.6396  1.8335
32973SOL     OW  925   5.574   1.863  11.119  0.3895  0.4854  0.2948
32973SOL    HW1  926   5.663   1.830  11.123 -0.3591 -1.7488 -0.0414
32973SOL    HW2  927   5.534   1.816  11.046 -1.3911  0.5316  1.1835
32974SOL     OW  928   6.011  10.216   2.467 -0.3224 -0.1244 -0.3998
32974SOL    HW1  929   5.942  10.273   2.502 -0.3155 -0.3123 -0.0786
32974SOL    HW2  930   5.969  10.130   2.459  0.3794 -0.6952  1.5528
32975SOL     OW  931  11.030  10.644   9.874 -0.3288  0.1992  0.0891
32975SOL    HW1  932  11.103  10.595   9.835  0.2323  0.6399  0.5763
32975SOL    HW2  933  11.018  10.604   9.960 -0.1807  0.6038  0.3002
32976SOL     OW  934   6.517  11.087   4.385  0.4383 -0.1636 -0.1634
32976SOL    HW1  935   6.467  11.164   4.410 -0.6871 -1.4373  1.7203
32976SOL    HW2  936   6.604  11.101   4.422  0.8163  0.9662 -1.3919
32977SOL     OW  937   9.565   9.312   7.227 -0.1360  0.2570  0.1248
32977SOL    HW1  938   9.480   9.268   7.238  1.6270 -3.3764  0.6957
32977SOL    HW2  939   9.600   9.319   7.316  1.0123 -0.2447 -0.2707
32978SOL     OW  940  11.038   5.613  10.625 -0.1981 -0.2421  0.2561
32978SOL    HW1  941  11.132   5.622  10.641  0.0383  0.0987 -1.1238
32978SOL    HW2  942  11.031   5.615  10.529 -1.5927 -0.4852  0.3429
32979SOL     OW  943   1.258   3.293  11.177  0.3639 -0.2197 -0.1324
32979SOL    HW1  944   1.269   3.205  11.214  0.8239 -0.5136 -0.9387
32979SOL    HW2  945   1.340   3.310  11.130  0.2589  0.6209 -0.0246
32980SOL     OW  946  11.128   5.037   4.638  0.3983  0.1128  0.0439
32980SOL    HW1  947  11.191   4.983   4.591 -0.2881 -2.0772  1.4829
32980SOL    HW2  948  11.181   5.102   4.684  1.1179  2.0717 -3.2119
32981SOL     OW  949  10.806   2.190   6.476 -0.1262 -0.0118 -0.7311
32981SOL    HW1  950  10.899   2.206   6.460 -0.3550  0.0948 -2.0927
32981SOL    HW2  951  10.800   2.169   6.569  1.2702 -0.1281 -0.6581
32982SOL     OW  952   0.400   0.402   7.703 -0.3671  0.4938  0.2925
32982SOL    HW1  953   0.326   0.434   7.754 -0.5735  0.1266  0.2286
32982SOL    HW2  954   0.478   0.436   7.747 -0.5733  0.8269  0.3959
32983SOL     OW  955   9.339  10.727  10.280 -1.1029  0.2503  0.3069
32983SOL    HW1  956   9.357  10.749  10.189 -0.6547  1.1555  0.6056
32983SOL    HW2  957   9.415  10.676  10.308 -3.4231 -4.7271 -1.2802
32984SOL     OW  958   0.100   4.265   4.860 -0.2092 -0.2413 -0.1873
32984SOL    HW1  959   0.155   4.188   4.871  0.2083 -0.1221 -1.2738
32984SOL    HW2  960   0.016   4.231   4.829  0.5017 -0.2089 -2.3759
32985SOL     OW  961   9.318   2.398   2.456  0.1664  0.2334  0.3574
32985SOL    HW1  962   9.268   2.388   2.537  0.0267 -0.0581  0.2393
32985SOL    HW2  963   9.355   2.311   2.440 -1.7582 -0.4048 -1.1488
32986SOL     OW  964   8.300   0.868   4.931 -0.6034 -0.3288 -0.5074
32986SOL    HW1  965   8.320   0.945   4.984  1.4717 -1.5056  0.5667
32986SOL    HW2  966   8.354   0.878   4.852  1.3761 -1.6083  0.5938
32987SOL     OW  967   5.740   3.316   2.501  0.0063  0.2044  0.2021
32987SOL    HW1  968   5.747   3.315   2.406  0.8548  0.6357  0.2488
32987SOL    HW2  969   5.828   3.340   2.531 -0.8364  2.5147  1.0308
32988SOL     OW  970   3.825   4.140   1.137  0.3790  0.2085  0.1270
32988SOL    HW1  971   3.889   4.128   1.067 -0.1714 -0.0581 -0.3367
32988SOL    HW2  972   3.789   4.228   1.121 -0.7976 -0.4224 -0.8122
32989SOL     OW  973   9.967   6.467  11.140 -0.6456 -0.3237  0.6743
32989SOL    HW1  974   9.949   6.443  11.231 -1.5886 -1.2849  0.2605
32989SOL    HW2  975   9.974   6.562  11.142 -1.1942 -0.2845  1.6687
32990SOL     OW  976   1.071   2.994   1.663  0.6003  0.1634 -0.4664
32990SOL    HW1  977   1.074   2.925   1.598  0.3560  0.3773 -0.7074
32990SOL    HW2  978   1.066   3.075   1.612  2.8303  0.5029 -0.2456
32991SOL     OW  979   4.495   1.434   8.990  0.3143  0.2744  0.8277
32991SOL    HW1  980   4.452   1.464   9.070  0.4726 -2.0260  1.8454
32991SOL    HW2  981   4.586   1.461   9.001  0.3499 -0.0831  1.4584
32992SOL     OW  982   2.519   1.624   6.812  0.6414  0.0260  0.5909
32992SOL    HW1  983   2.614   1.631   6.796  0.2341  1.5310 -1.6289
32992SOL    HW2  984   2.500   1.695   6.874  0.6805  1.2298 -0.7167
32993SOL     OW  985   7.174   9.677   0.921 -0.4124 -0.3787  0.1758
32993SOL    HW1  986   7.180   9.748   0.985  1.2354  0.9117 -1.3168
32993SOL    HW2  987   7.136   9.604   0.970  0.2620  0.7084  2.4678
32994SOL     OW  988   0.827   2.358   9.925 -0.2344 -0.4676 -0.3482
32994SOL    HW1  989   0.751   2.388   9.975 -0.7059 -0.1778 -1.2184
32994SOL    HW2  990   0.900   2.361   9.987 -0.7566  0.1438  0.2459
32995SOL     OW  991   6.380   3.761  10.320  0.2685 -0.2784 -0.1452
32995SOL    HW1  992   6.408   3.734  10.233  1.4880 -0.0921  0.1694
32995SOL    HW2  993   6.457   3.802  10.359 -0.8971  1.7284  0.1952
32996SOL     OW  994   4.994   4.553   8.662 -0.0646  0.5506 -0.0618
32996SOL    HW1  995   5.087   4.561   8.682 -0.2011 -0.2309  0.9870
32996SOL    HW2  996   4.953   4.528   8.745 -1.2461  1.0609 -0.4582
32997SOL     OW  997   8.338  10.700   3.134 -0.1356  0.2301  0.1112
32997SOL    HW1  998   8.416  10.715   3.187  1.2581  1.1495 -2.0536
32997SOL    HW2  999   8.298  10.622   3.172  1.3892  0.1729  1.7635
32998SOL     OW 1000  10.476   9.475  11.030  0.3886 -0.1988  0.4067
32998SOL    HW1 1001  10.544   9.409  11.021  0.1569 -0.5035  0.8573
32998SOL    HW2 1002  10.464   9.484  11.125  1.3515  1.4510  0.4102
32999SOL     OW 1003   6.068  11.143   8.195 -0.3159 -0.1266 -0.2617
32999SOL    HW1 1004   6.091  11.050   8.191  2.3180  0.3635  0.8689
32999SOL    HW2 1005   6.138  11.187   8.147 -0.7891  1.3344  0.3249
33000SOL     OW 1006  10.520   8.722   0.277 -0.8175  0.3448 -0.7263
33000SOL    HW1 1007  10.521   8.656   0.346 -1.5679  0.7619 -0.3034
33000SOL    HW2 1008  10.606   8.716   0.237  0.6102  1.8316  1.8873
33001SOL     OW 1009  10.411   7.789   5.877  0.0391 -0.5256 -1.1143
33001SOL    HW1 1010  10.496   7.811   5.839  0.2526 -1.0113 -0.9293
33001SOL    HW2 1011  10.347   7.819   5.812  0.4248 -2.1824 -2.3311
33002SOL     OW 1012   0.310   0.556   4.044  0.1026  0.1495 -0.5384
33002SOL    HW1 1013   0.268   0.501   4.109  0.5298  2.5585  1.9394
33002SOL    HW2 1014   0.240   0.580   3.983 -1.3277  1.0949  1.3949
33003SOL     OW 1015   1.379   8.441  10.252  0.2534 -0.0567  1.2706
33003SOL    HW1 1016   1.423   8.410  10.173 -3.1828  0.3645 -1.0314
33003SOL    HW2 1017   1.422   8.524  10.273  2.0447 -0.7796  0.6810
33004SOL     OW 1018  11.153   8.399   6.994 -0.4758  0.2518  0.5043
33004SOL    HW1 1019  11.134   8.492   6.983  0.0188  0.3204  0.1586
33004SOL    HW2 1020  11.171   8.368   6.905 -3.1345 -0.7623  0.2239
33005SOL     OW 1021   8.226   9.651   7.428 -0.3523 -0.2146  0.3841
33005SOL    HW1 1022   8.179   9.644   7.511 -2.5068  1.0635 -0.6145
33005SOL    HW2 1023   8.203   9.572   7.380 -1.2412  0.2233  0.0555
33006SOL     OW 1024   7.650   1.153   5.388 -0.5617  0.5015  0.6372
33006SOL    HW1 1025   7.608   1.095   5.452  0.5236 -0.0460  0.8803
33006SOL    HW2 1026   7.744   1.141   5.403 -0.2981  0.9504 -0.5406
33007SOL     OW 1027   8.025  10.787  10.236  0.1032  0.6201  0.3170
33007SOL    HW1 1028   8.061  10.765  10.150 -2.1677  0.4943 -0.6834
33007SOL    HW2 1029   8.090  10.844  10.276  1.4553  0.2641 -1.2714
33008SOL     OW 1030   5.872   7.220   2.542 -0.9948 -1.0960  0.4157
33008SOL    HW1 1031   5.879   7.310   2.576 -1.2452 -0.5233 -0.9945
33008SOL    HW2 1032   5.924   7.168   2.604  1.2019  0.3960 -0.0573
33009SOL     OW 1033   8.073   3.722   3.871 -0.4982  0.0325  0.0794
33009SOL    HW1 1034   8.077   3.635   3.910 -0.3969  0.2073  0.4581
33009SOL    HW2 1035   7.983   3.751   3.888 -0.4768  0.0777  0.1123
33010SOL     OW 1036   8.892   3.425   8.372 -0.3538 -0.0631  0.2198
33010SOL    HW1 1037   8.966   3.409   8.313  1.6151  3.9127  1.3217
33010SOL    HW2 1038   8.909   3.369   8.448 -0.3606 -1.6645 -0.9030
33011SOL     OW 1039   8.654   0.384   5.838  0.0385 -0.1968  0.1014
33011SOL    HW1 1040   8.612   0.461   5.800  0.3040 -0.2179 -0.2332
33011SOL    HW2 1041   8.732   0.370   5.784 -0.3095 -1.0386 -0.2013
33012SOL     OW 1042   1.396   8.928   2.401  0.1163 -0.4742 -0.0900
33012SOL    HW1 1043   1.467   8.985   2.432 -0.5286 -0.2783  1.0802
33012SOL    HW2 1044   1.316   8.975   2.424 -0.4026 -0.8892 -1.0148
33013SOL     OW 1045  10.366   5.496  10.982 -0.1719  0.1601 -0.2378
33013SOL    HW1 1046  10.301   5.511  11.050  0.0043 -0.8969  0.1688
33013SOL    HW2 1047  10.343   5.411  10.944  0.9328 -0.1993 -0.1303
33014SOL     OW 1048   1.922   1.127   0.020 -0.2537  0.2472  0.2097
33014SOL    HW1 1049   1.953   1.068   0.089  0.1387  1.1405  0.8065
33014SOL    HW2 1050   1.959   1.090  -0.060  1.0206  0.3662  0.7182
33015SOL     OW 1051   9.077   8.187   0.117 -0.0675  0.1658  0.2886
33015SOL    HW1 1052   9.137   8.148   0.053  0.7355  0.4816  0.8236
33015SOL    HW2 1053   9.130   8.197   0.196 -1.2091 -0.7772  1.2109
33016SOL     OW 1054   6.056   1.146   0.136 -0.3189  0.3084 -0.4674
33016SOL    HW1 1055   6.053   1.129   0.230 -0.5815 -2.7991 -0.9129
33016SOL    HW2 1056   5.964   1.150   0.109 -0.2751 -0.9551 -0.8604
33017SOL     OW 1057   5.400   9.070  10.912 -0.1792 -0.2014  0.1613
33017SOL    HW1 1058   5.363   9.149  10.872 -0.1692 -0.4968 -0.4293
33017SOL    HW2 1059   5.324   9.021  10.942 -0.3663 -1.2751 -1.9109
33018SOL     OW 1060   3.513   7.210   3.905  0.1294  0.1972 -0.0106
33018SOL    HW1 1061   3.450   7.228   3.835  0.0761 -0.2976 -0.0942
33018SOL    HW2 1062   3.460   7.181   3.978  0.3882 -5.1945 -1.5620
33019SOL     OW 1063   1.220   0.021   6.853 -0.2294  0.3197 -0.1355
33019SOL    HW1 1064   1.301   0.069   6.870 -0.6676  1.3499 -0.8899
33019SOL    HW2 1065   1.198   0.042   6.762 -0.1295 -1.7896 -0.6912
33020SOL     OW 1066   2.037   7.136   8.106 -0.8022  0.1635  0.5094
33020SOL    HW1 1067   2.075   7.069   8.049 -2.3606  0.9494 -1.5944
33020SOL    HW2 1068   2.111   7.188   8.134  0.0629 -0.4062 -0.6288
33021SOL     OW 1069   5.997   5.047   9.950  0.5303 -0.2104 -0.5368
33021SOL    HW1 1070   6.000   5.009   9.862  1.6568 -0.7346 -0.2839
33021SOL    HW2 1071   6.005   5.141   9.935  0.2656 -0.2596 -1.0219
33022SOL     OW 1072   0.259   5.764   5.400 -0.2180  0.4972 -0.5408
33022SOL    HW1 1073   0.318   5.735   5.331 -0.1320 -3.1704  0.8368
33022SOL    HW2 1074   0.174   5.770   5.358  0.3227  1.2094 -1.5549
33023SOL     OW 1075   7.600   3.079   6.384  0.2112 -0.1043  0.0910
33023SOL    HW1 1076   7.577   3.065   6.476 -0.5575 -2.3929 -0.3607
33023SOL    HW2 1077   7.695   3.085   6.383  0.3002 -1.0446  0.9696
33024SOL     OW 1078   9.340   6.589   6.704 -0.5125  0.0429  0.5185
33024SOL    HW1 1079   9.284   6.557   6.634 -2.5025 -2.7909  3.1491
33024SOL    HW2 1080   9.282   6.641   6.759  0.7977  1.4944  0.6013
33025SOL     OW 1081   7.078   8.961   3.534  0.6134  0.0279 -0.6268
33025SOL    HW1 1082   7.057   9.052   3.514 -3.8579 -1.1147 -2.3363
33025SOL    HW2 1083   7.118   8.926   3.455  2.1645  0.3717 -0.0324
33026SOL     OW 1084   9.738   1.349   6.957 -0.1657 -0.0593 -0.0785
33026SOL    HW1 1085   9.720   1.328   6.865 -1.4447 -0.6259  0.2877
33026SOL    HW2 1086   9.785   1.433   6.953 -0.5525  0.1252 -1.2246
33027SOL     OW 1087   2.780   1.305   2.639 -0.0776  0.3341  0.7177
33027SOL    HW1 1088   2.873   1.322   2.652  0.1046 -0.1991  0.1858
33027SOL    HW2 1089   2.756   1.359   2.563  0.9246 -2.8619 -2.1373
33028SOL     OW 1090   0.802   6.391   3.542  0.1617  0.4818  0.6812
33028SOL    HW1 1091   0.795   6.386   3.447 -0.3108  1.2012  0.6721
33028SOL    HW2 1092   0.896   6.404   3.558  0.4127 -0.8481  0.3881
33029SOL     OW 1093   5.841   8.441   9.224 -0.1548  0.2283 -0.2641
33029SOL    HW1 1094   5.791   8.456   9.144 -1.8558 -1.4459  0.4208
33029SOL    HW2 1095   5.931   8.430   9.194 -0.7068 -0.0668 -1.9124
33030SOL     OW 1096   8.336   2.238   0.744 -0.1966 -0.3442  0.0478
33030SOL    HW1 1097   8.390   2.279   0.676 -0.0811  0.0528  0.3691
33030SOL    HW2 1098   8.274   2.306   0.769 -0.4690 -0.6088  0.0871
33031SOL     OW 1099   6.603   7.928   1.622 -0.2585  0.3786 -0.2866
33031SOL    HW1 1100   6.526   7.980   1.647 -1.3663 -0.3541 -2.0002
33031SOL    HW2 1101   6.643   7.903   1.706 -0.5367  2.6916  0.6103
33032SOL     OW 1102   5.052   8.316   3.189  0.0686  0.4325 -0.1152
33032SOL    HW1 1103   5.061   8.278   3.102 -1.1134 -0.3346  0.0654
33032SOL    HW2 1104   4.972   8.276   3.224 -0.8006  2.5173  0.4080
33033SOL     OW 1105  10.490   6.547   8.836  0.5178 -0.2198  0.8399
33033SOL    HW1 1106  10.519   6.624   8.787  1.6172 -0.6509  0.7871
33033SOL    HW2 1107  10.436   6.498   8.774 -2.2872  1.6660  1.5865
33034SOL     OW 1108   5.784   3.585   3.876  0.6173 -0.5130 -0.7600
33034SOL    HW1 1109   5.752   3.605   3.788 -0.4467 -0.2442 -0.3294
33034SOL    HW2 1110   5.771   3.491   3.885  0.1047 -0.4325 -0.6495
33035SOL     OW 1111   1.891   5.866   1.881  0.0075  0.2511  0.2704
33035SOL    HW1 1112   1.963   5.928   1.872  1.0575 -0.9505  0.0808
33035SOL    HW2 1113   1.815   5.910   1.842  1.8274 -0.4667 -4.7999
33036SOL     OW 1114   8.538  11.241   2.627  0.0375 -0.3481 -0.0582
33036SOL    HW1 1115   8.599  11.231   2.553  0.1390 -0.1959  0.0038
33036SOL    HW2 1116   8.528  11.152   2.662 -0.2325 -0.4672 -0.4285
33037SOL     OW 1117   2.765   0.064   3.304  0.2286  0.4074  0.5187
33037SOL    HW1 1118   2.707   0.090   3.376  0.3780  0.4866  0.6101
33037SOL    HW2 1119   2.792  -0.025   3.326 -0.2233  0.1963  0.2434
33038SOL     OW 1120   4.583   9.574   1.616 -0.4870  0.2242 -0.1013
33038SOL    HW1 1121   4.508   9.574   1.675 -0.8023  1.2097 -0.4759
33038SOL    HW2 1122   4.554   9.525   1.539 -0.0508 -1.1241  0.5672
33039SOL     OW 1123   3.214   5.659   4.415 -0.4580  0.7339 -0.3103
33039SOL    HW1 1124   3.144   5.717   4.384 -0.1427  1.5390  0.4488
33039SOL    HW2 1125   3.263   5.712   4.478 -0.1527 -0.3615  0.3947
33040SOL     OW 1126   9.605   6.655   3.873 -0.2139  0.5674 -0.3622
33040SOL    HW1 1127   9.513   6.635   3.887  0.3089 -1.0526  1.1047
33040SOL    HW2 1128   9.613   6.748   3.896 -1.6333  1.0482 -1.5939
33041SOL     OW 1129   3.125   7.734   1.328 -0.1630 -0.0612 -0.0303
33041SOL    HW1 1130   3.123   7.646   1.291 -0.7955 -0.6632  1.3581
33041SOL    HW2 1131   3.053   7.735   1.390 -1.8969  2.3307 -1.9068
33042SOL     OW 1132   2.633   6.635   8.922 -0.0991  0.6194 -0.0591
33042SOL    HW1 1133   2.586   6.553   8.904 -0.8457  1.2703 -1.1393
33042SOL    HW2 1134   2.657   6.628   9.015 -1.0335 -0.3847  0.1312
33043SOL     OW 1135   6.319   3.302   3.582 -0.5837 -0.6013  0.2181
33043SOL    HW1 1136   6.326   3.229   3.644  1.4059 -1.5670 -1.0186
33043SOL    HW2 1137   6.279   3.373   3.632  1.6702 -1.0456  2.9020
33044SOL     OW 1138   1.903   6.805   8.552 -0.2684 -0.7711 -1.0871
33044SOL    HW1 1139   1.813   6.827   8.528 -0.0745 -0.2287 -1.3404
33044SOL    HW2 1140   1.949   6.797   8.469  0.0069 -0.6461 -0.9475
33045SOL     OW 1141   0.337   3.587  11.252  0.0231 -0.0860 -0.2433
33045SOL    HW1 1142   0.249   3.555  11.273 -0.5523  0.6743 -1.3955
33045SOL    HW2 1143   0.395   3.518  11.282 -0.8893 -0.1301  1.5182
33046SOL     OW 1144   2.664   0.977   9.973  0.4938  0.4469  1.1083
33046SOL    HW1 1145   2.606   0.974   9.897  0.5438  3.0075  0.8552
33046SOL    HW2 1146   2.605   0.975  10.048  0.2334  0.7269  0.9122
33047SOL     OW 1147   8.557   6.224   2.979  0.1078 -0.3198 -0.2014
33047SOL    HW1 1148   8.528   6.258   3.064 -0.6057  1.0029 -0.9438
33047SOL    HW2 1149   8.497   6.263   2.916  0.1124 -1.9321 -1.2609
33048SOL     OW 1150   7.380   7.564   1.126 -0.9149 -0.3092  0.7451
33048SOL    HW1 1151   7.466   7.603   1.111 -0.2903 -1.7735  0.4290
33048SOL    HW2 1152   7.393   7.470   1.115 -3.2201 -0.4174 -2.8389
33049SOL     OW 1153   8.641   4.838  11.071 -0.5509 -0.6385 -0.5712
33049SOL    HW1 1154   8.687   4.851  11.154  2.5962 -0.8169 -2.1320
33049SOL    HW2 1155   8.636   4.926  11.032  0.7065 -0.9250 -1.4427
33050SOL     OW 1156  10.461   8.754   8.886  0.0245 -0.1408  1.0115
33050SOL    HW1 1157  10.500   8.690   8.945  0.3899  0.2216  1.1723
33050SOL    HW2 1158  10.472   8.838   8.931 -2.3936 -0.1746  1.8236
33051SOL     OW 1159   8.390  10.388   1.706  0.6155  0.2816  0.1083
33051SOL    HW1 1160   8.334  10.427   1.640  0.4944 -2.1048 -1.2848
33051SOL    HW2 1161   8.330  10.346   1.767  0.8076 -0.8781 -0.4802
33052SOL     OW 1162   4.167   7.288   9.910  0.3314 -0.2946  0.4294
33052SOL    HW1 1163   4.244   7.344   9.896 -0.5768  0.8798 -0.0412
33052SOL    HW2 1164   4.095   7.336   9.869 -0.4102 -2.0350 -0.3854
33053SOL     OW 1165   3.433   3.902  10.170  0.4766 -0.5122  0.0368
33053SOL    HW1 1166   3.390   3.983  10.145  1.0999 -0.0602  0.4128
33053SOL    HW2 1167   3.437   3.905  10.266 -0.2378 -1.3745  0.1134
33054SOL     OW 1168   2.251   6.433   6.926  0.0218  0.2689  0.5169
33054SOL    HW1 1169   2.200   6.356   6.951 -1.5793  1.8073  2.3278
33054SOL    HW2 1170   2.200   6.474   6.856 -1.1280  1.5706  2.0324
33055SOL     OW 1171   4.548   6.272   7.889 -0.2780 -0.3591  0.8989
33055SOL    HW1 1172   4.526   6.185   7.855 -2.4484 -0.4637  2.3450
33055SOL    HW2 1173   4.619   6.256   7.951  0.5431 -0.8160 -0.1252
33056SOL     OW 1174   7.574   3.177   1.588 -0.1752  0.5056 -0.9190
33056SOL    HW1 1175   7.531   3.108   1.639 -2.8309  3.4526  1.1674
33056SOL    HW2 1176   7.645   3.208   1.645 -0.3170  0.8724 -0.9412
33057SOL     OW 1177   7.149   7.843   9.854 -0.3497  0.2084  0.3620
33057SOL    HW1 1178   7.092   7.807   9.785  0.2842  1.5010 -0.8901
33057SOL    HW2 1179   7.088   7.881   9.917 -0.9217  0.0013 -0.0519
33058SOL     OW 1180   7.063   6.656   4.018  1.0150  0.1782  0.5068
33058SOL    HW1 1181   7.102   6.677   4.103  1.1447 -0.1233  0.5227
33058SOL    HW2 1182   7.113   6.580   3.987  0.7338  0.0656  0.3250
33059SOL     OW 1183   8.445   2.999   1.546 -0.0480  0.2162 -0.4168
33059SOL    HW1 1184   8.450   2.999   1.641 -0.1395 -0.9777 -0.3983
33059SOL    HW2 1185   8.536   3.002   1.517 -0.0304  0.9887 -0.3085
33060SOL     OW 1186  10.416   5.720   5.556 -0.2524  0.9252  0.3081
33060SOL    HW1 1187  10.370   5.804   5.563 -1.0583  0.7142 -1.6783
33060SOL    HW2 1188  10.408   5.696   5.463 -0.9652 -1.8610  0.9890
33061SOL     OW 1189   0.597   7.205   2.806  0.5434  0.1936  0.2648
33061SOL    HW1 1190   0.682   7.165   2.819  1.1275  1.4249  0.4070
33061SOL    HW2 1191   0.555   7.204   2.892  1.1835  1.2439  0.6049
33062SOL     OW 1192   2.750   8.387   0.115 -0.4073 -0.4654 -1.4015
33062SOL    HW1 1193   2.749   8.351   0.204  1.5415  4.0536  0.7470
33062SOL    HW2 1194   2.843   8.399   0.095 -0.8225 -0.8873 -3.9036
33063SOL     OW 1195   0.586   6.136   8.266 -0.8001 -0.3374  0.3665
33063SOL    HW1 1196   0.547   6.214   8.307  1.3848  0.2654  1.4525
33063SOL    HW2 1197   0.640   6.171   8.195  2.9367 -0.3351  2.9266
33064SOL     OW 1198   1.979   4.804   2.090 -0.4985  0.0881  0.0195
33064SOL    HW1 1199   2.013   4.885   2.127 -0.7548 -0.0172  0.4941
33064SOL    HW2 1200   2.022   4.734   2.140  0.1082 -0.0874 -0.7214
33065SOL     OW 1201   5.620   2.667  10.516  0.1414 -0.1599 -0.4015
33065SOL    HW1 1202   5.683   2.633  10.453  0.6497 -0.6949  0.3803
33065SOL    HW2 1203   5.672   2.720  10.577  0.1101 -1.7239  1.0673
33066SOL     OW 1204   3.847   4.603   0.922  0.1869 -0.1021  0.0662
33066SOL    HW1 1205   3.850   4.691   0.959  0.1966 -1.3581  3.4038
33066SOL    HW2 1206   3.758   4.594   0.888  0.2669  1.2197 -0.5753
33067SOL     OW 1207   8.379   0.840   5.276 -0.5319  0.2378  0.4451
33067SOL    HW1 1208   8.428   0.758   5.266  0.3109  0.8521 -0.7507
33067SOL    HW2 1209   8.406   0.873   5.361 -0.4904 -0.4759  0.7227
33068SOL     OW 1210   6.092   7.347   2.784  0.7007 -0.0193 -0.5997
33068SOL    HW1 1211   6.105   7.290   2.708  0.8475  0.3533 -0.8566
33068SOL    HW2 1212   6.012   7.313   2.825  2.3951 -2.3381  1.0161
33069SOL     OW 1213  10.947   4.815   4.662 -0.1213 -0.0251 -0.1261
33069SOL    HW1 1214  11.011   4.884   4.648 -0.1537  0.1174  0.3932
33069SOL    HW2 1215  10.994   4.734   4.644 -0.4435  0.1766 -2.0391
33070SOL     OW 1216   4.463   5.229   4.657  0.1033  0.3811 -0.0156
33070SOL    HW1 1217   4.390   5.213   4.598  0.6964  0.2733 -0.7426
33070SOL    HW2 1218   4.536   5.178   4.619  0.0456 -1.1349  1.7826
33071SOL     OW 1219   0.074   3.001   8.059 -0.0752  0.1337  0.4651
33071SOL    HW1 1220   0.170   3.006   8.068 -0.0447 -0.5328  0.5612
33071SOL    HW2 1221   0.047   2.942   8.130 -0.5969  0.5765  0.6398
33072SOL     OW 1222   5.343   7.648   8.615  0.9875 -0.1318 -0.1348
33072SOL    HW1 1223   5.291   7.568   8.605 -0.1772  0.6875 -0.9718
33072SOL    HW2 1224   5.416   7.623   8.671  1.9480 -2.3972 -2.1919
33073SOL     OW 1225   0.444   9.453   3.923  0.4065 -0.2060 -0.4154
33073SOL    HW1 1226   0.525   9.463   3.873  0.8310 -1.2598  0.0334
33073SOL    HW2 1227   0.382   9.513   3.881  1.4412  0.6732 -0.7115
33074SOL     OW 1228   6.879   3.043   4.356 -0.4896  0.5874 -0.3127
33074SOL    HW1 1229   6.938   3.022   4.428 -1.8180  0.7642  0.8870
33074SOL    HW2 1230   6.887   3.138   4.345 -1.1718  0.7457  0.4524
33075SOL     OW 1231   2.346   3.398   9.179 -0.1697  0.3467  0.0849
33075SOL    HW1 1232   2.424   3.401   9.124  0.1259 -1.1355  0.3728
33075SOL    HW2 1233   2.339   3.485   9.217 -0.1176  1.2643 -1.9077
33076SOL     OW 1234   0.052   9.413   2.024 -0.0319 -0.3598  0.7868
33076SOL    HW1 1235   0.096   9.480   1.972  0.0650 -1.1967 -0.2456
33076SOL    HW2 1236  -0.019   9.459   2.068 -0.1494  0.3638 -0.1386
33077SOL     OW 1237   7.112   4.600   5.468  0.0371 -0.1619 -0.3760
33077SOL    HW1 1238   7.203   4.629   5.462 -0.9086  3.0796 -1.3403
33077SOL    HW2 1239   7.102   4.569   5.557  1.5245  1.7757  0.5497
33078SOL     OW 1240   8.528   7.437   1.299 -0.9465  0.0672  0.6548
33078SOL    HW1 1241   8.568   7.497   1.363  0.1020  2.0156 -1.6761
33078SOL    HW2 1242   8.436   7.464   1.296 -0.6155  1.2212  0.0840
33079SOL     OW 1243   1.650   1.210   0.704  0.3870  0.6466 -0.2187
33079SOL    HW1 1244   1.736   1.192   0.665  0.0499  1.0729 -1.2073
33079SOL    HW2 1245   1.593   1.223   0.628 -0.9457 -1.3056  0.3590
33080SOL     OW 1246   2.331   3.087   6.077 -0.1818  0.3044 -0.5780
33080SOL    HW1 1247   2.335   3.010   6.021  1.6022 -0.0839  0.0070
33080SOL    HW2 1248   2.269   3.145   6.033  0.4490 -0.3635 -2.4733
33081SOL     OW 1249   8.210   0.458   1.558  0.0566 -0.1707 -0.5529
33081SOL    HW1 1250   8.122   0.459   1.595 -0.2777 -1.7043 -1.2327
33081SOL    HW2 1251   8.232   0.365   1.550  1.2953  0.1704 -1.4311
33082SOL     OW 1252  10.742   8.829   8.164 -0.6768 -0.1983 -0.4407
33082SOL    HW1 1253  10.695   8.875   8.094 -1.2651 -0.5254 -0.2713
33082SOL    HW2 1254  10.680   8.762   8.194  0.3871 -1.5451 -1.1347
33083SOL     OW 1255   4.227  10.228   3.941  0.0647  0.3797 -0.5440
33083SOL    HW1 1256   4.178  10.146   3.940  0.9709 -0.1835 -0.3992
33083SOL    HW2 1257   4.242  10.249   3.849  3.0390 -1.6505 -0.6626
33084SOL     OW 1258  10.890   4.040   3.252 -0.4120 -0.2731  0.8649
33084SOL    HW1 1259  10.954   4.050   3.322 -0.4770  0.0686  0.8775
33084SOL    HW2 1260  10.827   3.976   3.285  0.2243 -1.0378  0.6347
33085SOL     OW 1261  10.134   8.575   7.822 -0.4169  0.2134  0.7227
33085SOL    HW1 1262  10.227   8.599   7.815 -0.5239  0.2207 -1.2520
33085SOL    HW2 1263  10.126   8.495   7.771 -2.1757  2.4653 -3.0272
33086SOL     OW 1264  10.296   6.808   8.080  0.0692  0.5478 -0.1481
33086SOL    HW1 1265  10.298   6.854   7.996 -0.1504 -0.8789 -0.9877
33086SOL    HW2 1266  10.203   6.791   8.095  0.2029 -0.3990 -0.3275
33087SOL     OW 1267   0.416   9.574   2.276 -0.3678  0.1254 -0.2790
33087SOL    HW1 1268   0.389   9.596   2.187  1.2482 -0.5855 -0.9769
33087SOL    HW2 1269   0.447   9.657   2.312 -3.4904  1.0520  0.6588
33088SOL     OW 1270  10.416   3.058   3.166 -0.1829  0.0169 -0.1553
33088SOL    HW1 1271  10.489   2.998   3.182  0.1449  0.2470 -0.7710
33088SOL    HW2 1272  10.338   3.002   3.166  0.4095 -1.2301 -4.8608
33089SOL     OW 1273  10.372   6.169   7.380 -0.0768  0.1686 -0.5030
33089SOL    HW1 1274  10.299   6.127   7.426  0.7266  0.5799  1.2169
33089SOL    HW2 1275  10.410   6.100   7.326 -0.0240 -0.8093  0.7423
33090SOL     OW 1276   2.166   7.929   1.727  0.5533 -0.1367 -0.2462
33090SOL    HW1 1277   2.143   7.939   1.819  0.8067 -1.7025  0.0071
33090SOL    HW2 1278   2.089   7.960   1.680  0.1889  0.1127  0.4944
33091SOL     OW 1279   8.335   7.534   7.549  0.4597  0.5222 -0.8053
33091SOL    HW1 1280   8.280   7.493   7.483 -0.0435 -1.3974  0.7065
33091SOL    HW2 1281   8.413   7.478   7.554 -1.0287 -1.5739  2.5776
33092SOL     OW 1282   4.938   1.302   8.637 -0.4285 -0.4535 -0.6120
33092SOL    HW1 1283   4.954   1.322   8.545  0.4996 -0.3114 -0.4282
33092SOL    HW2 1284   4.912   1.210   8.637 -0.6870 -0.3827 -1.0398
33093SOL     OW 1285   7.892   3.748   3.215 -0.0884  0.0422 -0.3090
33093SOL    HW1 1286   7.834   3.755   3.291 -0.7523 -0.9488 -0.6948
33093SOL    HW2 1287   7.880   3.830   3.169 -1.6168 -0.3239 -0.6398
33094SOL     OW 1288   7.593   7.018   4.922  0.0098 -0.1734  0.4719
33094SOL    HW1 1289   7.609   7.105   4.883  0.9822 -0.0671  1.0791
33094SOL    HW2 1290   7.566   7.037   5.012 -3.2234 -0.3684 -0.3477
33095SOL     OW 1291   2.713  10.864   5.236  0.1359 -0.7277  0.1404
33095SOL    HW1 1292   2.791  10.811   5.250  0.3390 -0.3457  0.4920
33095SOL    HW2 1293   2.652  10.836   5.304  0.2474 -0.5104  0.3334
33096SOL     OW 1294   2.994  11.085  11.157 -0.2371  0.2233  0.0315
33096SOL    HW1 1295   3.044  11.135  11.221 -1.3918  0.1612  1.0169
33096SOL    HW2 1296   2.905  11.120  11.163 -0.8488 -1.2526  0.0406
33097SOL     OW 1297   5.206   6.558   6.404  0.5817  0.2663  0.0915
33097SOL    HW1 1298   5.160   6.484   6.443  0.0621  1.1350  1.1905
33097SOL    HW2 1299   5.281   6.519   6.359 -0.6491 -1.0686 -0.8737
33098SOL     OW 1300   7.158   2.203   7.572 -0.0490  0.2584 -0.1422
33098SOL    HW1 1301   7.224   2.136   7.591  0.3695 -0.0268 -2.3991
33098SOL    HW2 1302   7.140   2.243   7.657  2.3230 -0.2962  0.6970
33099SOL     OW 1303   1.783   5.299   8.411  0.1533 -0.0203  0.5044
33099SOL    HW1 1304   1.736   5.334   8.336  0.5432  1.1840  0.8098
33099SOL    HW2 1305   1.867   5.345   8.412  0.7782 -1.1176  0.7990
33100SOL     OW 1306   8.870   5.631   0.292  0.3221  0.0066  0.2075
33100SOL    HW1 1307   8.923   5.709   0.278  0.6321 -0.1046  0.7295
33100SOL    HW2 1308   8.868   5.620   0.387 -0.6160 -0.0043  0.1959
33101SOL     OW 1309   0.423  11.089   9.710  0.2392  0.4098 -0.7670
33101SOL    HW1 1310   0.331  11.111   9.700 -0.0722 -1.0634 -1.4870
33101SOL    HW2 1311   0.470  11.159   9.664 -0.5322  1.0152 -0.6433
33102SOL     OW 1312  10.253  10.424   9.565 -0.0923  0.3113  0.4976
33102SOL    HW1 1313  10.207  10.432   9.482  0.0317 -2.7456  0.0559
33102SOL    HW2 1314  10.313  10.499   9.566 -1.1035  1.2263 -1.4656
33103SOL     OW 1315   9.640   4.605   1.322 -0.0051 -0.1640  0.1880
33103SOL    HW1 1316   9.551   4.569   1.322  0.7825 -2.3138 -0.2879
33103SOL    HW2 1317   9.664   4.609   1.414 -0.6971  0.7486  0.3395
33104SOL     OW 1318   4.182  10.217   3.668 -0.1340 -0.0669  0.5934
33104SOL    HW1 1319   4.152  10.198   3.580 -0.4621 -3.2942  1.2861
33104SOL    HW2 1320   4.130  10.293   3.695 -1.4846 -0.2709 -1.2359
33105SOL     OW 1321   9.335   6.363   4.528  0.8158 -0.5207 -0.6054
33105SOL    HW1 1322   9.272   6.351   4.457  0.5134 -1.5686 -0.1794
33105SOL    HW2 1323   9.362   6.275   4.552  1.6489 -0.1303 -0.0636
33106SOL     OW 1324   3.599  11.015   5.153  0.2145  0.2255  0.3122
33106SOL    HW1 1325   3.579  10.923   5.133  0.2018 -0.4331  2.9687
33106SOL    HW2 1326   3.513  11.057   5.161 -0.0018 -0.5154  2.8846
33107SOL     OW 1327   7.600   4.197   3.899 -0.0119  0.5751  0.8255
33107SOL    HW1 1328   7.599   4.289   3.927 -0.8754  0.4102  1.3485
33107SOL    HW2 1329   7.568   4.148   3.974 -0.5881 -0.0505  0.1842
33108SOL     OW 1330   8.521   4.908   0.507 -0.0044 -0.1937  0.1104
33108SOL    HW1 1331   8.511   4.930   0.415  0.3540 -1.1495 -0.1625
33108SOL    HW2 1332   8.432   4.909   0.542 -0.0154  1.6091  0.1063
33109SOL     OW 1333   5.664   4.242  10.864  0.7122  0.7198 -0.3609
33109SOL    HW1 1334   5.597   4.302  10.831 -1.4397 -0.7504  1.0400
33109SOL    HW2 1335   5.633   4.217  10.951  1.9222 -1.7362 -0.5358
33110SOL     OW 1336  10.544   3.829   0.696  0.0130 -0.0846 -0.2371
33110SOL    HW1 1337  10.621   3.775   0.712  0.5303  0.4539 -0.8494
33110SOL    HW2 1338  10.532   3.826   0.601 -1.0416 -0.5902 -0.1008
33111SOL     OW 1339   4.765   8.011   6.798 -0.0148  0.4381  0.3441
33111SOL    HW1 1340   4.851   7.972   6.814  0.0564  0.8574  1.0616
33111SOL    HW2 1341   4.777   8.066   6.721 -0.2912 -1.4610 -1.1198
33112SOL     OW 1342   8.245   8.528   8.368 -0.1222 -0.0769 -0.0755
33112SOL    HW1 1343   8.237   8.504   8.276  0.7214  0.0272 -0.1829
33112SOL    HW2 1344   8.339   8.526   8.386  0.0944  3.4127 -0.1616
33113SOL     OW 1345   1.791   4.470   9.673  0.1090  0.1762  0.8116
33113SOL    HW1 1346   1.849   4.407   9.717  0.9540  0.0870 -0.4044
33113SOL    HW2 1347   1.798   4.448   9.580  0.4350  2.0779  0.3485
33114SOL     OW 1348   3.511   7.018   5.265 -0.0620 -0.5581 -0.0142
33114SOL    HW1 1349   3.544   7.085   5.205  2.9822 -0.9071  1.1135
33114SOL    HW2 1350   3.423   7.048   5.287  0.0903  1.5014 -1.8034
33115SOL     OW 1351   4.607   3.154   3.850 -0.6475 -0.0272  0.2929
33115SOL    HW1 1352   4.703   3.149   3.843 -0.6053 -1.0018  1.2028
33115SOL    HW2 1353   4.590   3.149   3.944 -1.5392  1.9129  0.2760
33116SOL     OW 1354   2.123   3.749  10.097 -0.1105  0.5087  0.6289
33116SOL    HW1 1355   2.032   3.775  10.109 -0.6528  0.0630 -1.9375
33116SOL    HW2 1356   2.149   3.788  10.013  1.6501 -0.4082  0.6935
33117SOL     OW 1357   6.464  10.526   3.940 -0.4443  0.3442 -0.7362
33117SOL    HW1 1358   6.452  10.620   3.948  2.5307  1.0271 -2.8113
33117SOL    HW2 1359   6.486  10.496   4.028  0.2103  1.8952 -0.3523
33118SOL     OW 1360   9.482   3.322   5.958 -0.4889 -0.5470  0.3923
33118SOL    HW1 1361   9.537   3.323   6.036  0.0031 -0.8340  0.0523
33118SOL    HW2 1362   9.437   3.237   5.962  2.6469 -2.5431 -1.7450
33119SOL     OW 1363   5.684   3.423   8.749  0.4167 -0.3927 -0.3599
33119SOL    HW1 1364   5.653   3.357   8.686  1.3053 -2.4805  1.2539
33119SOL    HW2 1365   5.666   3.385   8.835 -0.3872  2.1863  0.7010
33120SOL     OW 1366   0.054   1.522   4.135  0.2757  0.3829  0.7479
33120SOL    HW1 1367  -0.028   1.500   4.090  1.4810  0.4292 -1.6441
33120SOL    HW2 1368   0.035   1.509   4.228 -1.6109 -2.3961  0.1047
33121SOL     OW 1369  10.875   3.609   8.141  0.7534 -0.0801  0.0138
33121SOL    HW1 1370  10.880   3.551   8.065  0.0221  0.0515 -0.1463
33121SOL    HW2 1371  10.898   3.554   8.216  2.0933 -0.0535 -0.3704
33122SOL     OW 1372   4.182   1.739   6.638 -0.1801  0.4510  0.1598
33122SOL    HW1 1373   4.249   1.735   6.706 -1.0246 -0.9429  0.9520
33122SOL    HW2 1374   4.183   1.831   6.609  1.1903  0.7386  1.0177
33123SOL     OW 1375   5.052   2.108   5.317 -0.0099 -0.0515 -0.8439
33123SOL    HW1 1376   5.084   2.033   5.368  0.3103  1.0150  0.5583
33123SOL    HW2 1377   4.958   2.110   5.334  0.5097  2.3728  2.6873
33124SOL     OW 1378  10.369   0.784   6.831  0.8885 -0.5700  0.0747
33124SOL    HW1 1379  10.335   0.874   6.827  2.2800  0.0084  0.5274
33124SOL    HW2 1380  10.414   0.772   6.748 -0.8293 -1.5393 -0.7686
33125SOL     OW 1381   8.614   9.122   4.398  0.1280  0.3483 -0.3583
33125SOL    HW1 1382   8.574   9.161   4.321 -1.0372 -0.2106 -0.0548
33125SOL    HW2 1383   8.699   9.090   4.367 -0.2200  0.3547 -1.3543
33126SOL     OW 1384  10.238  10.813   0.790  0.4868 -0.5346 -0.9208
33126SOL    HW1 1385  10.259  10.889   0.735 -1.7283 -1.5728 -3.4550
33126SOL    HW2 1386  10.183  10.848   0.860  1.2171  0.4609 -0.8158
33127SOL     OW 1387   0.701   1.168   9.292 -0.2260  0.1974 -0.0223
33127SOL    HW1 1388   0.690   1.224   9.214 -1.9171  0.3393  0.2820
33127SOL    HW2 1389   0.720   1.230   9.363 -1.1128  0.3218  0.1227
33128SOL     OW 1390   0.757   7.408   1.714 -0.0116 -0.5148  0.6166
33128SOL    HW1 1391   0.828   7.407   1.650  0.5792 -3.3643  1.1818
33128SOL    HW2 1392   0.679   7.384   1.663  0.2239 -1.4876  0.6903
33129SOL     OW 1393   1.516   5.502   3.058  0.2380  0.1046  0.8647
33129SOL    HW1 1394   1.568   5.580   3.037 -0.2217  0.3922  0.7917
33129SOL    HW2 1395   1.516   5.451   2.976 -2.5233  1.7732 -0.3146
33130SOL     OW 1396   6.307   4.789   1.370  0.5637 -0.3434  0.1257
33130SOL    HW1 1397   6.348   4.703   1.372 -0.6791 -0.9534  1.3587
33130SOL    HW2 1398   6.267   4.795   1.284  2.0367 -0.2836 -0.5933
33131SOL     OW 1399  10.689   1.937   7.310  0.5530  0.2211 -0.4760
33131SOL    HW1 1400  10.616   1.983   7.268 -0.4477 -1.5623 -0.7748
33131SOL    HW2 1401  10.744   2.007   7.344  1.1548  1.8247 -4.1875
33132SOL     OW 1402  10.939   7.370   5.187 -0.5690 -0.2411 -0.2077
33132SOL    HW1 1403  10.855   7.411   5.170 -0.1232  0.1154 -1.7216
33132SOL    HW2 1404  10.950   7.307   5.116  0.5480 -0.0806 -0.1992
33133SOL     OW 1405   3.611   3.404   7.903 -0.1569  0.0986  0.3421
33133SOL    HW1 1406   3.656   3.385   7.821 -1.3192 -0.6981 -0.1488
33133SOL    HW2 1407   3.522   3.372   7.889 -0.7361  1.1352  1.4622
33134SOL     OW 1408   6.534   8.498   5.149 -1.1805 -0.1226  0.1584
33134SOL    HW1 1409   6.554   8.404   5.147 -1.8804 -0.2662 -0.3964
33134SOL    HW2 1410   6.599   8.538   5.091  0.0181 -0.0664  1.4699
33135SOL     OW 1411   0.981   6.819   1.036  0.8284 -0.7225 -0.0544
33135SOL    HW1 1412   0.894   6.857   1.051  1.1137 -0.4657  1.0155
33135SOL    HW2 1413   1.023   6.879   0.974  0.5640 -0.3615  0.1124
33136SOL     OW 1414   1.783   5.233   1.503  0.3531  0.1067  0.6797
33136SOL    HW1 1415   1.778   5.260   1.412 -3.4314  0.7737  0.9358
33136SOL    HW2 1416   1.737   5.149   1.506  0.1829  0.2216  1.9961
33137SOL     OW 1417   0.540   9.711   4.465  0.5970 -0.1493 -0.3987
33137SOL    HW1 1418   0.636   9.703   4.468  0.7889  0.3236 -2.7038
33137SOL    HW2 1419   0.517   9.680   4.377 -1.4789 -1.0208  0.3995
33138SOL     OW 1420   9.693   7.429   7.333  0.1461  0.2987 -0.1407
33138SOL    HW1 1421   9.753   7.359   7.307  1.3873  1.0399  0.6002
33138SOL    HW2 1422   9.670   7.473   7.251  0.5555 -0.0587 -0.4488
33139SOL     OW 1423   8.363   4.077   1.005  0.5192  0.6005 -0.3202
33139SOL    HW1 1424   8.307   4.132   1.060 -0.4554  0.5664 -1.2429
33139SOL    HW2 1425   8.394   4.009   1.064  1.3488  1.8298  0.7273
33140SOL     OW 1426   8.192   7.829   7.132 -0.0964 -0.1681  0.1272
33140SOL    HW1 1427   8.216   7.885   7.206 -0.7612  1.3329 -0.7502
33140SOL    HW2 1428   8.096   7.835   7.127 -0.1089 -0.7492 -0.4773
33141SOL     OW 1429   3.741   0.297   8.583 -0.1448  0.1174 -0.1330
33141SOL    HW1 1430   3.654   0.330   8.604  0.0228  0.8162 -0.5179
33141SOL    HW2 1431   3.738   0.205   8.609 -0.1373  0.7544  2.3009
33142SOL     OW 1432   1.080   2.567   6.409  0.6980  0.4156 -0.3333
33142SOL    HW1 1433   0.996   2.522   6.407 -0.0687  1.8254 -0.2142
33142SOL    HW2 1434   1.101   2.584   6.318  1.0210 -0.1978 -0.3831
33143SOL     OW 1435   4.020   3.429   1.440 -0.0131  0.1680  0.2886
33143SOL    HW1 1436   4.045   3.514   1.477 -1.5391 -0.3255  2.7217
33143SOL    HW2 1437   3.945   3.447   1.384  1.5385  0.7559 -1.7257
33144SOL     OW 1438   7.531   6.202   8.539  0.4091 -0.0361  0.1276
33144SOL    HW1 1439   7.450   6.192   8.489 -0.4386  1.8646  1.0613
33144SOL    HW2 1440   7.528   6.290   8.574  2.4503 -0.2497  1.0032
33145SOL     OW 1441  10.379   2.925   8.236 -0.2102  0.0353 -0.1947
33145SOL    HW1 1442  10.322   2.949   8.163  0.6945 -0.5865 -1.1320
33145SOL    HW2 1443  10.422   3.008   8.260  0.8676 -0.0640 -1.6223
33146SOL     OW 1444   1.117   5.286  11.144 -0.1297 -0.0064 -0.0825
33146SOL    HW1 1445   1.135   5.367  11.096 -0.9665  0.2679  0.0597
33146SOL    HW2 1446   1.024   5.289  11.163 -0.2206 -1.1127 -0.2615
33147SOL     OW 1447   0.649   3.373   0.278 -0.5633  0.6558 -0.5767
33147SOL    HW1 1448   0.575   3.434   0.290 -0.8250  0.6938 -2.2262
33147SOL    HW2 1449   0.715   3.404   0.340 -0.9135  2.2833 -0.9641
33148SOL     OW 1450   0.547   3.569  10.454 -0.4100 -0.7741 -0.0209
33148SOL    HW1 1451   0.494   3.558  10.375  2.3657  0.1978 -2.1879
33148SOL    HW2 1452   0.627   3.520  10.436  0.9956  0.8386  1.4503
33149SOL     OW 1453   9.822   0.028  10.665 -0.3177  0.0393  0.7526
33149SOL    HW1 1454   9.866  -0.049  10.630  0.2627  1.0837 -0.9553
33149SOL    HW2 1455   9.751  -0.007  10.718  0.0989 -1.6686  0.2503
33150SOL     OW 1456  10.197   7.002  10.310 -0.3591 -0.1434  0.4136
33150SOL    HW1 1457  10.102   7.004  10.300 -0.5815 -1.1525  2.0644
33150SOL    HW2 1458  10.213   6.938  10.379  1.7375 -2.4204 -1.9642
33151SOL     OW 1459   9.764   9.671  10.468 -0.7175  0.5801 -0.3509
33151SOL    HW1 1460   9.707   9.733  10.422  0.6865  2.6027  0.4776
33151SOL    HW2 1461   9.853   9.700  10.446 -0.0048 -0.5697  0.8618
33152SOL     OW 1462   0.785   6.963   2.517 -0.4748  1.0845 -0.0069
33152SOL    HW1 1463   0.880   6.962   2.509 -0.3563  1.0189  1.2947
33152SOL    HW2 1464   0.759   7.049   2.483 -0.0244  0.8704 -0.9372
33153SOL     OW 1465   7.765  10.010   2.951  0.3048 -0.5154  0.4318
33153SOL    HW1 1466   7.816  10.003   3.032 -0.4206 -0.3466  0.9101
33153SOL    HW2 1467   7.694  10.070   2.972 -0.7318 -1.5901  0.0966
33154SOL     OW 1468   1.154   7.054   6.409 -0.6532 -0.5420  0.2800
33154SOL    HW1 1469   1.182   6.968   6.441 -0.8013 -0.4547  0.6520
33154SOL    HW2 1470   1.229   7.111   6.425 -0.7015 -0.5140  0.4100
33155SOL     OW 1471  10.334   6.611   2.467 -0.0871 -0.3583  0.3752
33155SOL    HW1 1472  10.426   6.594   2.485  0.3784  1.9563  0.4822
33155SOL    HW2 1473  10.333   6.647   2.379 -0.8808 -0.3437  0.3827
33156SOL     OW 1474   5.994   4.407   2.070  0.3499  0.2704  0.6310
33156SOL    HW1 1475   5.938   4.332   2.050  0.1586  0.6007 -0.0835
33156SOL    HW2 1476   5.938   4.483   2.054  1.1147  0.6154 -0.4415
33157SOL     OW 1477   1.066   1.699   5.837 -0.2429  0.1756  0.4077
33157SOL    HW1 1478   1.068   1.786   5.877 -0.1997 -0.8326  2.6894
33157SOL    HW2 1479   0.996   1.653   5.882  1.9105 -2.0703  1.7348
33158SOL     OW 1480   8.242   2.861   2.574 -0.5456  0.3257 -0.2487
33158SOL    HW1 1481   8.158   2.863   2.620 -0.0706  0.0761  0.6660
33158SOL    HW2 1482   8.251   2.948   2.536 -0.7157  0.7270  0.6015
33159SOL     OW 1483   2.353   7.834  10.150  0.3349  0.7262  0.1938
33159SOL    HW1 1484   2.340   7.779  10.073 -1.8478  1.2411  0.1025
33159SOL    HW2 1485   2.429   7.798  10.194  1.7063  0.4478 -2.2152
33160SOL     OW 1486  10.403   5.259   2.457 -0.6396 -0.1822  0.3190
33160SOL    HW1 1487  10.494   5.236   2.437 -0.0874  2.5681 -0.7123
33160SOL    HW2 1488  10.355   5.243   2.376 -0.8161 -0.3433  0.4527
33161SOL     OW 1489   5.888   1.556   7.611 -0.1026 -0.3026  0.3143
33161SOL    HW1 1490   5.933   1.608   7.544  1.1492 -0.1031  1.2599
33161SOL    HW2 1491   5.810   1.607   7.633  0.3670  0.4828  0.2054
33162SOL     OW 1492   4.553   3.719   0.861 -0.3122  0.6044  0.5068
33162SOL    HW1 1493   4.589   3.699   0.947  0.9395 -0.5256 -0.2362
33162SOL    HW2 1494   4.588   3.806   0.841  1.3227 -0.0674  0.2180
33163SOL     OW 1495   6.239   1.879   1.958 -0.2965 -0.9161 -0.2026
33163SOL    HW1 1496   6.330   1.902   1.938 -0.8815  0.2190 -1.7973
33163SOL    HW2 1497   6.232   1.786   1.936 -0.0098 -0.5267 -2.1189
33164SOL     OW 1498   6.899  10.290   2.629  0.2635 -0.5149  0.3503
33164SOL    HW1 1499   6.832  10.346   2.589  0.5533 -0.9202 -0.7398
33164SOL    HW2 1500   6.864  10.267   2.715  0.1631  1.3848  0.8514
33165SOL     OW 1501   7.856   5.705   9.271  0.0105 -0.2577 -0.4763
33165SOL    HW1 1502   7.821   5.786   9.306  0.1317 -0.4735  0.1605
33165SOL    HW2 1503   7.779   5.653   9.246 -0.1545 -0.8073  1.0861
33166SOL     OW 1504  10.302   5.232   8.304  0.3031  0.7642 -0.1226
33166SOL    HW1 1505  10.261   5.254   8.388 -0.2490  0.2406 -0.2434
33166SOL    HW2 1506  10.396   5.235   8.321  0.3291 -3.0859  1.6105
33167SOL     OW 1507   8.518   0.498   2.127  0.1574  0.0263  0.1809
33167SOL    HW1 1508   8.438   0.518   2.079  0.3126 -1.0556 -0.5794
33167SOL    HW2 1509   8.491   0.435   2.194  0.6522 -2.0245 -1.4183
33168SOL     OW 1510   5.501   0.552   9.443 -0.3217  0.4139  0.1177
33168SOL    HW1 1511   5.408   0.533   9.454 -0.0961 -0.3668  0.7605
33168SOL    HW2 1512   5.504   0.626   9.382 -1.3070 -0.4440 -0.9872
33169SOL     OW 1513   1.416   2.762   4.980 -0.0920 -0.6288 -0.0270
33169SOL    HW1 1514   1.391   2.832   5.039  0.4979 -1.1734  0.8965
33169SOL    HW2 1515   1.448   2.807   4.901 -0.2599  0.1201  0.3260
33170SOL     OW 1516   1.309  11.075  10.520 -0.2416  0.1123  0.2159
33170SOL    HW1 1517   1.252  11.117  10.584  1.2723  1.4542  0.7589
33170SOL    HW2 1518   1.395  11.076  10.561  0.5042 -0.2569 -1.2822
33171SOL     OW 1519   5.868   7.562   1.917 -0.0260  0.1786  0.3174
33171SOL    HW1 1520   5.878   7.476   1.958  1.8457  0.7231  1.1187
33171SOL    HW2 1521   5.829   7.544   1.832  0.6078 -1.4963  0.3487
33172SOL     OW 1522   5.360   2.486   6.585  0.3579 -0.0551 -0.0977
33172SOL    HW1 1523   5.346   2.580   6.578  1.5531  0.0585 -1.6284
33172SOL    HW2 1524   5.370   2.457   6.494 -0.6013 -1.7743  0.3075
33173SOL     OW 1525   0.109   7.359   9.718 -0.4790  0.2745  0.0870
33173SOL    HW1 1526   0.205   7.368   9.721 -0.5311  0.8121  2.7040
33173SOL    HW2 1527   0.091   7.279   9.767 -1.3890  0.7598  0.5850
33174SOL     OW 1528   6.606   2.501  10.927  0.1384 -0.3701 -0.0386
33174SOL    HW1 1529   6.636   2.522  11.015  2.2105  2.2193 -1.1992
33174SOL    HW2 1530   6.623   2.581  10.876 -0.5482 -1.8762 -2.8797
33175SOL     OW 1531   9.544   3.458   6.225 -0.3686 -1.0138 -0.0312
33175SOL    HW1 1532   9.533   3.546   6.260 -2.0965 -1.0495 -0.4303
33175SOL    HW2 1533   9.618   3.422   6.274 -1.4147 -0.3426  2.1341
33176SOL     OW 1534   8.787   7.388   2.840 -0.6304  0.3089 -0.5635
33176SOL    HW1 1535   8.741   7.422   2.917  1.9658 -1.9187  2.2357
33176SOL    HW2 1536   8.869   7.436   2.838 -0.1839 -0.4541 -1.2512
33177SOL     OW 1537   7.123  10.595   8.708  0.4105 -0.2014 -0.5404
33177SOL    HW1 1538   7.053  10.622   8.768  0.4966  1.1810 -1.0478
33177SOL    HW2 1539   7.176  10.673   8.695  0.7853 -0.6516 -1.9058
33178SOL     OW 1540  10.374   5.141   8.635  0.3782 -0.3443 -0.1715
33178SOL    HW1 1541  10.301   5.079   8.629 -0.3274  0.5878 -2.0116
33178SOL    HW2 1542  10.362   5.184   8.719 -0.1632 -1.4289  0.3290
33179SOL     OW 1543   3.531   7.654   5.188 -0.3521 -0.5213 -0.8147
33179SOL    HW1 1544   3.511   7.685   5.276 -0.0426 -1.7809 -0.2660
33179SOL    HW2 1545   3.602   7.590   5.201 -0.4372 -0.8744 -1.9484
33180SOL     OW 1546   7.240   1.291   4.344 -0.3546  0.0394 -0.5774
33180SOL    HW1 1547   7.241   1.318   4.436  1.5552  0.6971 -0.7613
33180SOL    HW2 1548   7.157   1.326   4.310 -0.1836  1.4845  0.4129
33181SOL     OW 1549   6.339  10.684   9.537 -0.2002  0.7138 -0.2858
33181SOL    HW1 1550   6.395  10.721   9.605 -0.3928  0.8085 -0.1780
33181SOL    HW2 1551   6.399  10.636   9.480 -0.0190  0.7587 -0.1338
33182SOL     OW 1552   3.420   4.756   3.388  0.6318  0.4030  0.2485
33182SOL    HW1 1553   3.363   4.679   3.382  2.1076 -1.0140  2.6961
33182SOL    HW2 1554   3.360   4.828   3.407 -0.6491 -0.3516 -0.7048
33183SOL     OW 1555   1.577  10.081  10.563  0.5092 -0.7059 -0.3596
33183SOL    HW1 1556   1.489  10.080  10.525  1.4325 -1.9566 -2.6707
33183SOL    HW2 1557   1.565  10.052  10.653 -1.3544 -1.7998 -0.9105
33184SOL     OW 1558   1.759  10.982   3.231 -0.4408 -0.7375 -0.2534
33184SOL    HW1 1559   1.707  11.056   3.263 -2.4877 -1.2951 -2.0414
33184SOL    HW2 1560   1.847  11.000   3.262 -0.7846  2.5828 -0.7878
33185SOL     OW 1561   4.785   4.381   9.191 -0.3285  0.2494  1.0606
33185SOL    HW1 1562   4.819   4.466   9.221  1.1312  0.5232 -1.2156
33185SOL    HW2 1563   4.696   4.401   9.162 -0.3469  0.7976  1.4674
33186SOL     OW 1564  10.182   0.040   5.205 -0.4384 -0.1250  0.3270
33186SOL    HW1 1565  10.128  -0.011   5.267 -0.6391 -2.5526 -1.6700
33186SOL    HW2 1566  10.168   0.131   5.230 -2.7379 -0.8636  2.0662
33187SOL     OW 1567   0.702   1.430   2.870 -0.3329 -0.2948 -0.1774
33187SOL    HW1 1568   0.748   1.355   2.909 -1.4531 -0.6532  0.4975
33187SOL    HW2 1569   0.660   1.473   2.944 -1.3510 -0.1624 -0.8202
33188SOL     OW 1570   4.893   6.142   5.587 -0.4592 -0.4955 -0.1681
33188SOL    HW1 1571   4.978   6.120   5.550 -0.2829 -3.3269  1.5534
33188SOL    HW2 1572   4.844   6.182   5.515  2.5853  2.2043 -0.9328
33189SOL     OW 1573   5.667   6.721   2.479  0.0092 -0.1015 -0.0827
33189SOL    HW1 1574   5.580   6.749   2.454  0.3784 -0.6294 -2.1253
33189SOL    HW2 1575   5.659   6.627   2.496 -0.4063  0.3599  2.8657
33190SOL     OW 1576   9.425   8.939   8.737  0.3433 -0.1040  0.0896
33190SOL    HW1 1577   9.450   9.003   8.805  1.1044  0.3443 -0.5953
33190SOL    HW2 1578   9.491   8.870   8.744 -0.9756 -1.2854  1.4093
33191SOL     OW 1579   2.223  10.796   6.879 -0.6683 -0.3292  0.2289
33191SOL    HW1 1580   2.191  10.883   6.858 -0.5066 -0.2263  0.4106
33191SOL    HW2 1581   2.151  10.754   6.927 -1.8173 -1.2421 -2.1221
33192SOL     OW 1582   6.014   8.137   9.853 -0.1684 -0.5317  0.2660
33192SOL    HW1 1583   6.030   8.144   9.759 -2.5981  1.4711 -0.1062
33192SOL    HW2 1584   6.006   8.228   9.882 -2.5990 -1.1188  1.7312
33193SOL     OW 1585   3.035  10.080   6.477 -0.6374  0.3694  0.0755
33193SOL    HW1 1586   3.073   9.996   6.505  0.8204  0.9097 -0.2324
33193SOL    HW2 1587   3.069  10.144   6.539  1.9652  1.4544 -2.2581
33194SOL     OW 1588   9.272   7.811   1.230 -0.3836 -0.4501  0.5779
33194SOL    HW1 1589   9.243   7.720   1.231 -0.9592 -0.4084 -2.2149
33194SOL    HW2 1590   9.214   7.854   1.167  0.4712  1.6356  1.1321
33195SOL     OW 1591   2.202   2.387   0.969 -0.0506 -0.0842  0.1872
33195SOL    HW1 1592   2.236   2.308   0.927 -1.3387 -1.1804  1.1058
33195SOL    HW2 1593   2.277   2.425   1.014  0.0778 -2.4545  2.2172
33196SOL     OW 1594   6.508   5.211   6.388  0.4378 -0.1263  0.2353
33196SOL    HW1 1595   6.491   5.235   6.479  1.6182 -1.4674  0.8381
33196SOL    HW2 1596   6.601   5.192   6.385  0.4143 -0.1019 -1.2695
33197SOL     OW 1597   4.736   2.068   1.701 -0.2888 -0.3215  0.3867
33197SOL    HW1 1598   4.663   2.127   1.680 -1.4048 -1.2282  1.5837
33197SOL    HW2 1599   4.707   2.020   1.778  0.9345 -1.8801 -0.0789
33198SOL     OW 1600   4.705   7.651   2.627  0.6724 -0.5148  0.1022
33198SOL    HW1 1601   4.643   7.719   2.656  0.5243  0.2213 -1.7815
33198SOL    HW2 1602   4.715   7.667   2.533  2.5210 -1.6174  0.0747
33199SOL     OW 1603   5.603   4.859   5.986 -0.1584 -0.2377  0.4788
33199SOL    HW1 1604   5.511   4.858   6.013 -0.0509 -1.1612  0.8399
33199SOL    HW2 1605   5.625   4.952   5.981 -1.6740  0.1069 -1.6129
33200SOL     OW 1606   5.314   2.663   3.951  0.2659 -0.6848  0.4124
33200SOL    HW1 1607   5.389   2.720   3.935 -0.2545 -0.0303  0.2522
33200SOL    HW2 1608   5.245   2.723   3.980 -0.0928 -1.3224  0.8862
33201SOL     OW 1609  10.867   2.449   5.965 -0.6324  0.4115 -0.0993
33201SOL    HW1 1610  10.826   2.397   5.896 -0.7386 -1.5042  1.3434
33201SOL    HW2 1611  10.810   2.438   6.040 -0.1113  1.8495  0.5480
33202SOL     OW 1612   5.904   7.508   2.558  0.0778  0.2169  0.5307
33202SOL    HW1 1613   5.890   7.544   2.471 -0.2334 -1.1271  0.0065
33202SOL    HW2 1614   5.880   7.579   2.618 -1.1490  0.6560 -0.4534
33203SOL     OW 1615  10.333   6.442   8.007  0.3841  0.2157  0.4052
33203SOL    HW1 1616  10.416   6.394   8.009 -0.9386 -2.2600  0.9163
33203SOL    HW2 1617  10.335   6.496   8.086  1.0693 -0.6504  1.0038
33204SOL     OW 1618  11.164   3.226   1.072  0.2049  0.0084  0.2271
33204SOL    HW1 1619  11.121   3.235   1.157  1.2281  2.1248  0.5771
33204SOL    HW2 1620  11.111   3.161   1.025  0.0615 -1.8443  2.7212
33205SOL     OW 1621   2.979   8.976   5.615 -0.6847 -0.0769 -0.2000
33205SOL    HW1 1622   2.973   9.017   5.528 -1.1096  1.2788  0.4457
33205SOL    HW2 1623   3.056   9.016   5.655  0.5430 -1.9662 -0.5620
33206SOL     OW 1624   5.231   0.487   9.500  0.0982 -0.2746 -0.3753
33206SOL    HW1 1625   5.200   0.405   9.539 -0.8455 -1.0064 -2.4912
33206SOL    HW2 1626   5.161   0.549   9.517  0.2872 -0.2283  0.2309
33207SOL     OW 1627   7.612   8.284  10.806 -0.3481 -0.4392  0.6287
33207SOL    HW1 1628   7.628   8.281  10.712 -0.0015  0.4803  0.6455
33207SOL    HW2 1629   7.625   8.194  10.836  2.1620 -0.3004  0.1893
33208SOL     OW 1630   8.961   9.933   3.358 -0.1785  0.2993  0.4258
33208SOL    HW1 1631   9.054   9.918   3.375  0.6911  0.1654 -3.5988
33208SOL    HW2 1632   8.951  10.028   3.362  0.2867  0.3583  0.2362
33209SOL     OW 1633  10.034   1.345   2.442 -0.8785 -0.2618 -0.3320
33209SOL    HW1 1634  10.118   1.389   2.454 -0.8967 -0.0269 -1.0419
33209SOL    HW2 1635   9.971   1.403   2.485 -0.9824  0.7155 -1.7424
33210SOL     OW 1636   4.556   2.926   8.043 -0.1230 -0.5106 -0.4124
33210SOL    HW1 1637   4.551   2.930   8.139 -0.7277 -0.2756 -0.4490
33210SOL    HW2 1638   4.645   2.952   8.023  0.1904 -1.1397  0.1182
33211SOL     OW 1639   2.645   5.100   3.620 -0.3210  0.7107  0.0923
33211SOL    HW1 1640   2.563   5.053   3.605 -0.9727  2.3310 -1.7168
33211SOL    HW2 1641   2.668   5.080   3.711 -1.5425 -1.5249 -0.0396
33212SOL     OW 1642   5.375   4.664   2.743 -0.0048 -0.3300  0.1065
33212SOL    HW1 1643   5.358   4.644   2.835  0.7297  1.2295  0.6083
33212SOL    HW2 1644   5.288   4.676   2.705 -0.2810  0.6662  1.0034
33213SOL     OW 1645   1.795  11.089   1.239  0.3609 -0.4711  0.4636
33213SOL    HW1 1646   1.805  11.098   1.145  1.1799 -0.3403  0.5563
33213SOL    HW2 1647   1.728  11.022   1.250 -0.0701 -0.1602 -0.2082
33214SOL     OW 1648   2.379   4.862   7.419 -0.9988 -0.2312 -0.2219
33214SOL    HW1 1649   2.448   4.823   7.473 -0.6145  0.6753 -0.0283
33214SOL    HW2 1650   2.426   4.905   7.347 -1.3093  0.8379  0.1947
33215SOL     OW 1651   0.669   0.285   3.407 -0.1921 -0.0650 -0.1743
33215SOL    HW1 1652   0.639   0.296   3.497 -1.4811  0.6531 -0.6710
33215SOL    HW2 1653   0.748   0.232   3.414 -1.9639 -2.7430  1.1378
33216SOL     OW 1654   4.788   6.148   1.090  0.3618 -0.0573  0.7332
33216SOL    HW1 1655   4.828   6.064   1.114 -0.1184  0.0277  1.8532
33216SOL    HW2 1656   4.862   6.207   1.077  0.6931 -0.5835  0.1596
33217SOL     OW 1657   0.836   4.605   1.476  0.5048  0.3130 -0.0544
33217SOL    HW1 1658   0.803   4.515   1.485 -0.9156  0.9449  1.5910
33217SOL    HW2 1659   0.818   4.628   1.385 -1.2311 -0.3052  0.0918
33218SOL     OW 1660   8.824   4.497   0.930  0.1433 -0.1635  0.1202
33218SOL    HW1 1661   8.768   4.429   0.969 -0.7368 -0.9462 -2.3382
33218SOL    HW2 1662   8.763   4.563   0.899  0.4739 -1.0009 -2.5411
33219SOL     OW 1663   2.009   8.530   5.867 -0.0049  0.0976 -0.7057
33219SOL    HW1 1664   1.936   8.491   5.819 -1.1681  0.5806  0.5932
33219SOL    HW2 1665   2.015   8.620   5.834  0.9510 -0.3433 -1.8075
33220SOL     OW 1666   6.006   3.855   9.606 -0.0905  0.3591  0.4761
33220SOL    HW1 1667   5.946   3.789   9.569  1.5431 -1.5324  1.0222
33220SOL    HW2 1668   6.036   3.905   9.531 -0.2219 -0.5120 -0.1690
33221SOL     OW 1669   5.075   2.255   1.396  0.3266  0.3421  0.1003
33221SOL    HW1 1670   5.141   2.187   1.409  1.3780  1.3536  0.2479
33221SOL    HW2 1671   5.031   2.231   1.314  0.0922 -0.9574  0.5809
33222SOL     OW 1672   5.518   6.943  10.634  0.0292  0.3494  0.7774
33222SOL    HW1 1673   5.605   6.975  10.607 -0.4611  2.5449  1.5825
33222SOL    HW2 1674   5.528   6.848  10.639  1.3848  0.1784 -2.5809
33223SOL     OW 1675   0.556   1.098   0.977  0.0936 -0.0351  1.1468
33223SOL    HW1 1676   0.554   1.140   0.891 -0.6097 -2.9815 -0.4241
33223SOL    HW2 1677   0.464   1.090   1.001  0.0132 -2.5153  0.3106
33224SOL     OW 1678   9.559   8.603   6.426  0.3127 -0.1825 -0.5693
33224SOL    HW1 1679   9.606   8.597   6.343  0.2684  0.7453 -0.6624
33224SOL    HW2 1680   9.628   8.616   6.491  0.3342 -0.7510 -0.4691
33225SOL     OW 1681   7.070   9.878   6.240  0.3380 -0.2402 -0.2984
33225SOL    HW1 1682   7.014   9.913   6.170 -1.5446 -2.4668 -0.0142
33225SOL    HW2 1683   7.159   9.886   6.205 -0.3343  1.0958 -1.8505
33226SOL     OW 1684   3.898   5.257   2.210 -0.0141 -0.5368 -0.0045
33226SOL    HW1 1685   3.918   5.350   2.202 -0.2772 -0.4879 -0.1257
33226SOL    HW2 1686   3.809   5.249   2.174  0.5551 -1.0719 -1.3907
33227SOL     OW 1687   1.172   7.943   3.592  0.2682 -0.2747  0.2547
33227SOL    HW1 1688   1.180   7.852   3.562  2.1340 -0.3628  0.8413
33227SOL    HW2 1689   1.224   7.994   3.530  0.6291  0.1306  0.8732
33228SOL     OW 1690   6.127   7.421   2.366 -0.3999  0.5818 -0.7049
33228SOL    HW1 1691   6.032   7.426   2.370 -0.6283 -1.7545 -1.4328
33228SOL    HW2 1692   6.146   7.327   2.366  1.8675  0.9731 -1.2541
33229SOL     OW 1693   7.822  10.459   7.147  0.1492 -0.2306  0.4469
33229SOL    HW1 1694   7.790  10.502   7.069  0.6452  1.8596  1.3390
33229SOL    HW2 1695   7.756  10.392   7.167 -0.9884  0.5509 -0.6096
33230SOL     OW 1696  10.978   3.555   8.596 -1.1012 -0.3726  0.0610
33230SOL    HW1 1697  10.923   3.625   8.562 -1.6283 -2.0001 -2.7678
33230SOL    HW2 1698  11.064   3.595   8.607 -1.6033  0.9384 -0.5477
33231SOL     OW 1699  11.099   9.882   2.084 -0.3142 -0.5112 -0.0225
33231SOL    HW1 1700  11.171   9.925   2.130 -0.6862  0.5738 -0.4273
33231SOL    HW2 1701  11.081   9.939   2.010 -1.5768 -0.7842  0.0631
33232SOL     OW 1702   5.384  11.192   3.579 -0.0361 -0.1362  0.5571
33232SOL    HW1 1703   5.463  11.213   3.529  1.5046  0.2276  2.9489
33232SOL    HW2 1704   5.344  11.277   3.597 -0.9713 -0.3129 -0.5566
33233SOL     OW 1705   4.362   2.486   6.549  0.1334 -1.0896  0.0177
33233SOL    HW1 1706   4.412   2.438   6.615  0.6125 -1.8046 -0.8493
33233SOL    HW2 1707   4.427   2.513   6.484 -0.3748 -0.6540 -0.3191
33234SOL     OW 1708   1.754   3.891   9.113 -0.0803  0.1513 -0.2397
33234SOL    HW1 1709   1.822   3.949   9.081  0.0080  1.3356  1.9082
33234SOL    HW2 1710   1.686   3.949   9.147 -0.7790 -0.9884  0.4083
33235SOL     OW 1711   2.987   3.828   8.027  0.0855  0.6258 -0.1037
33235SOL    HW1 1712   2.996   3.904   7.969  1.1630  0.8561  0.3424
33235SOL    HW2 1713   2.940   3.763   7.974 -1.1031  1.6762 -0.4052
33236SOL     OW 1714   7.296   9.330   8.777  0.3175  0.1950 -0.3645
33236SOL    HW1 1715   7.201   9.324   8.779  0.2843  0.6180  1.4475
33236SOL    HW2 1716   7.327   9.243   8.803  0.2554  1.1676  3.6427
33237SOL     OW 1717   4.673   0.192   6.360  0.1076 -0.1899 -0.2876
33237SOL    HW1 1718   4.685   0.146   6.277  0.8503 -1.4480  0.4914
33237SOL    HW2 1719   4.752   0.246   6.369 -0.3039  0.4946 -0.7282
33238SOL     OW 1720   2.866   9.344   4.546 -0.1820 -0.0953 -0.0050
33238SOL    HW1 1721   2.819   9.261   4.536 -0.4136 -0.0547  0.6779
33238SOL    HW2 1722   2.957   9.318   4.565  0.1149 -0.1744 -1.4462
33239SOL     OW 1723   5.109  11.025   4.249 -0.1511  0.0353 -0.2938
33239SOL    HW1 1724   5.091  11.000   4.158  1.2958  0.2818 -0.6759
33239SOL    HW2 1725   5.182  10.969   4.275  0.8481  1.4063 -0.0106
33240SOL     OW 1726   8.979   9.224   1.359 -0.0319 -0.6693 -0.0053
33240SOL    HW1 1727   8.958   9.282   1.432 -1.4616 -1.0689 -0.0542
33240SOL    HW2 1728   9.074   9.229   1.350  0.0927 -0.0561  1.4131
33241SOL     OW 1729   0.042   2.491   1.421 -0.6061  0.6464 -0.2382
33241SOL    HW1 1730  -0.024   2.426   1.445 -0.1851  0.9736  2.0418
33241SOL    HW2 1731  -0.007   2.561   1.379 -1.3053 -0.3118 -1.0616
33242SOL     OW 1732   2.546   5.649   7.102  0.0736 -1.0193  0.0362
33242SOL    HW1 1733   2.582   5.702   7.173 -0.1029 -1.3377  0.3643
33242SOL    HW2 1734   2.583   5.562   7.116  0.5118 -0.9477 -0.6099
33243SOL     OW 1735   4.151   4.853   7.398  1.0917  0.1677 -0.5454
33243SOL    HW1 1736   4.200   4.824   7.475  2.4114  1.0446 -1.0208
33243SOL    HW2 1737   4.192   4.936   7.373 -0.5824  0.8952 -1.0457
33244SOL     OW 1738   4.821   1.139   5.226 -0.1416  0.3266 -0.0436
33244SOL    HW1 1739   4.757   1.068   5.225 -1.3362  1.3439 -2.3412
33244SOL    HW2 1740   4.792   1.195   5.298 -1.6091  0.5375 -0.7702
33245SOL     OW 1741   3.461   9.380   6.695 -0.3004 -0.1583 -0.3947
33245SOL    HW1 1742   3.537   9.339   6.655 -1.8223 -4.1128  0.3189
33245SOL    HW2 1743   3.411   9.414   6.621  0.7173 -0.1892 -1.1149
33246SOL     OW 1744  11.216   4.383   2.123  0.5727  0.5768 -0.4224
33246SOL    HW1 1745  11.175   4.468   2.140 -0.1115  0.3964 -1.0929
33246SOL    HW2 1746  11.294   4.383   2.178  0.6489  1.6900 -0.4938
33247SOL     OW 1747   6.318   1.745   1.049  0.5742  0.3671  0.2586
33247SOL    HW1 1748   6.410   1.730   1.072  0.6284 -0.1460 -0.2696
33247SOL    HW2 1749   6.320   1.821   0.991  0.8723 -0.6820 -1.1549
33248SOL     OW 1750   2.418   1.090   2.156  0.0662  0.0133  0.3606
33248SOL    HW1 1751   2.453   1.001   2.164  1.0744  0.5350  2.8176
33248SOL    HW2 1752   2.469   1.130   2.087 -0.0058 -1.1338 -0.3800
33249SOL     OW 1753   9.338   6.616   8.526 -0.8689 -0.2058  0.1860
33249SOL    HW1 1754   9.320   6.575   8.611  1.2752 -1.6416  0.0226
33249SOL    HW2 1755   9.352   6.542   8.467  0.6030  0.7568 -0.7167
33250SOL     OW 1756   0.603   8.112   0.282  0.0712 -0.3942 -0.4057
33250SOL    HW1 1757   0.686   8.098   0.237  0.5037 -0.1842  0.3014
33250SOL    HW2 1758   0.539   8.127   0.212  0.7858  0.2672 -0.9256
33251SOL     OW 1759   0.325  10.907   7.895 -0.6454  0.2225 -0.0339
33251SOL    HW1 1760   0.369  10.974   7.947  0.5153 -1.7844  1.6650
33251SOL    HW2 1761   0.231  10.925   7.908 -0.3632  1.4517  0.4333
33252SOL     OW 1762   1.822   2.597   3.037  0.7387 -0.1680 -0.2178
33252SOL    HW1 1763   1.754   2.664   3.046  0.5634 -0.1126 -1.6168
33252SOL    HW2 1764   1.888   2.639   2.981  1.4217 -0.5984  0.2535
33253SOL     OW 1765   2.081   0.992   4.267  0.2364  0.0593  0.2718
33253SOL    HW1 1766   2.044   1.076   4.238 -0.5513  0.1536  1.4747
33253SOL    HW2 1767   2.166   1.016   4.305  1.0708 -0.0105 -1.4493
33254SOL     OW 1768   0.204   0.347   3.859  0.0375  0.0908 -0.1671
33254SOL    HW1 1769   0.251   0.326   3.939  0.8343  2.9312  0.2381
33254SOL    HW2 1770   0.112   0.351   3.884  0.2678  0.8026  0.6162
33255SOL     OW 1771   0.800   6.774   5.748 -0.1730  0.2970 -0.5406
33255SOL    HW1 1772   0.839   6.861   5.737  2.3351 -0.7107 -0.2958
33255SOL    HW2 1773   0.739   6.784   5.821 -0.9525  2.1204 -1.3758
33256SOL     OW 1774   2.332   1.645   7.128 -0.1774  0.4913 -0.3919
33256SOL    HW1 1775   2.340   1.736   7.099  1.7679  0.1713 -0.9615
33256SOL    HW2 1776   2.249   1.615   7.090 -0.1734  1.6145 -1.3446
33257SOL     OW 1777   3.112  10.298   8.591 -0.1480  0.1741 -0.6852
33257SOL    HW1 1778   3.145  10.257   8.511  1.3468 -0.0764  0.0294
33257SOL    HW2 1779   3.083  10.225   8.645 -0.1838  0.2682 -0.5774
33258SOL     OW 1780   7.507   1.996   2.035 -0.1235 -0.2367 -0.4076
33258SOL    HW1 1781   7.500   2.015   2.129 -1.2605 -0.3647 -0.4446
33258SOL    HW2 1782   7.457   1.915   2.024 -0.5183  0.1080 -1.2210
33259SOL     OW 1783   9.200   4.460  10.994 -0.0723  0.5129 -0.4016
33259SOL    HW1 1784   9.123   4.510  10.968 -0.8159  1.7261  3.4762
33259SOL    HW2 1785   9.195   4.457  11.090  2.7764 -2.5596 -0.1787
33260SOL     OW 1786   6.994   4.261   1.421 -0.0992  0.2688  0.5796
33260SOL    HW1 1787   7.081   4.290   1.449 -0.8309  1.4110  1.8290
33260SOL    HW2 1788   6.945   4.343   1.408 -1.8224 -0.3481  2.7284
33261SOL     OW 1789   4.758   6.650   0.628  0.0878  0.9217  0.1621
33261SOL    HW1 1790   4.780   6.655   0.721 -0.6520 -2.2200  0.6175
33261SOL    HW2 1791   4.678   6.702   0.620 -1.6930 -1.2947  2.0580
33262SOL     OW 1792   1.996  10.578   0.624  0.1119  0.2934 -0.0875
33262SOL    HW1 1793   2.041  10.520   0.686  4.0454  0.4367 -2.4645
33262SOL    HW2 1794   2.023  10.666   0.650  0.7438  0.4300 -1.1108
33263SOL     OW 1795   5.447   7.238   3.609 -0.1146 -0.8660  0.3393
33263SOL    HW1 1796   5.536   7.267   3.624 -0.0116 -1.8137  1.7406
33263SOL    HW2 1797   5.412   7.219   3.697 -0.9629 -2.5740 -0.3138
33264SOL     OW 1798   6.419   7.886   0.513 -1.1757 -0.0127  0.0723
33264SOL    HW1 1799   6.493   7.891   0.451 -1.8236  1.0878 -0.6460
33264SOL    HW2 1800   6.461   7.880   0.599 -0.2518 -0.5980 -0.4004
33265SOL     OW 1801   3.575   3.702   2.565 -0.5941  0.1609 -0.3012
33265SOL    HW1 1802   3.535   3.616   2.578 -0.3245 -0.0640 -0.9068
33265SOL    HW2 1803   3.613   3.697   2.477 -0.6379  0.9224 -0.3681
33266SOL     OW 1804   9.018   7.627   3.309  0.3087 -0.3470 -0.6578
33266SOL    HW1 1805   8.991   7.548   3.357 -1.7482  0.3461 -0.5583
33266SOL    HW2 1806   9.087   7.665   3.363 -0.6337 -0.6089  0.7870
33267SOL     OW 1807   5.806   6.809   7.743  0.9667  0.6013 -0.1932
33267SOL    HW1 1808   5.860   6.732   7.761  1.6000  1.3654  1.4787
33267SOL    HW2 1809   5.779   6.840   7.830 -2.0355  0.3885 -0.9311
33268SOL     OW 1810   1.494   0.049   3.659 -0.3633 -0.1807  0.8392
33268SOL    HW1 1811   1.530   0.121   3.711 -1.0781 -0.9231  2.4485
33268SOL    HW2 1812   1.555  -0.023   3.673  1.0014  0.3632 -1.7163
33269SOL     OW 1813   0.486  10.970   9.945 -0.1792  0.6665  0.1142
33269SOL    HW1 1814   0.447  11.011   9.868  2.8269  1.9771 -0.8238
33269SOL    HW2 1815   0.507  11.043  10.003 -0.3382 -0.1204  1.1841
33270SOL     OW 1816   4.841   4.154   0.478  0.2930  0.2685  0.1583
33270SOL    HW1 1817   4.854   4.112   0.393 -0.1044  0.0258  0.2135
33270SOL    HW2 1818   4.859   4.086   0.543  1.6677  0.7454  0.3091
33271SOL     OW 1819   0.105   7.369   5.524  0.0352  0.2261 -0.7469
33271SOL    HW1 1820   0.112   7.357   5.618 -2.3054 -0.6827 -0.6126
33271SOL    HW2 1821   0.173   7.432   5.502  1.5349 -0.5698  1.3071
33272SOL     OW 1822  10.605   9.738   5.714 -0.3609 -0.5040  0.1758
33272SOL    HW1 1823  10.656   9.814   5.687 -0.2728 -0.0892  1.4803
33272SOL    HW2 1824  10.543   9.724   5.642  0.2027  0.2546 -0.4685
33273SOL     OW 1825   0.941   8.904   3.243  0.2659 -0.0899 -0.4076
33273SOL    HW1 1826   0.872   8.971   3.248  1.3691  1.0011  2.1971
33273SOL    HW2 1827   0.899   8.823   3.271  0.1039  0.7224  1.9259
33274SOL     OW 1828   1.390   5.579   7.554  0.0982  0.1627  0.1719
33274SOL    HW1 1829   1.444   5.654   7.530 -0.4460  0.1807 -1.0641
33274SOL    HW2 1830   1.304   5.598   7.515 -0.7113 -0.0352  1.7672
33275SOL     OW 1831   5.565   7.037   9.549  0.3012 -0.3508 -0.1913
33275SOL    HW1 1832   5.552   7.088   9.469 -0.0662  0.1366  0.1770
33275SOL    HW2 1833   5.509   6.960   9.538 -1.8561  0.9854  0.7162
33276SOL     OW 1834   9.284   5.652   2.544  0.3896  0.2788  0.2166
33276SOL    HW1 1835   9.254   5.675   2.456 -0.6410 -0.8001  0.2634
33276SOL    HW2 1836   9.368   5.608   2.530  0.5414  0.6825 -0.1615
33277SOL     OW 1837   6.461   2.134   2.065  0.4527  0.7027  0.2619
33277SOL    HW1 1838   6.418   2.187   1.998  2.5822 -0.2447 -2.0242
33277SOL    HW2 1839   6.464   2.046   2.028  0.9727 -0.0609  1.9904
33278SOL     OW 1840   0.437   8.489   6.447 -0.0474  0.3587 -0.3529
33278SOL    HW1 1841   0.445   8.446   6.533 -2.2596 -0.5809 -0.5285
33278SOL    HW2 1842   0.446   8.582   6.466  2.0605  0.0357  0.4812
33279SOL     OW 1843   3.176   0.491   6.703 -0.0093 -0.4296  0.2103
33279SOL    HW1 1844   3.256   0.438   6.707 -0.2274 -0.6772  1.5349
33279SOL    HW2 1845   3.187   0.542   6.623  2.3386  0.8854  1.2506
33280SOL     OW 1846   8.918   6.640   1.064  0.1233 -0.5728  0.4922
33280SOL    HW1 1847   8.940   6.672   1.152  2.0324 -0.6298  0.0763
33280SOL    HW2 1848   8.887   6.551   1.078  2.2439 -1.2901  0.9973
33281SOL     OW 1849   0.977  10.510   8.990  0.1618  0.2084  0.1535
33281SOL    HW1 1850   0.957  10.594   8.948  0.7356  0.4443  0.3409
33281SOL    HW2 1851   0.898  10.458   8.978 -0.0083  0.5877 -0.4339
33282SOL     OW 1852   8.629   9.154   2.446  0.5698  0.5482 -0.4621
33282SOL    HW1 1853   8.541   9.125   2.424 -0.0348  1.3078  0.8830
33282SOL    HW2 1854   8.620   9.202   2.528  2.3496  0.0167  0.1050
33283SOL     OW 1855   2.931   8.657   0.014 -0.0028 -0.5457  0.4112
33283SOL    HW1 1856   2.901   8.597   0.082  0.8888 -0.1850  1.1494
33283SOL    HW2 1857   3.024   8.636   0.003  0.6666  1.5242  1.6089
33284SOL     OW 1858   9.391   2.231   9.738  0.8080 -0.3173  0.3946
33284SOL    HW1 1859   9.449   2.163   9.771  3.1142  0.9965 -0.6659
33284SOL    HW2 1860   9.304   2.194   9.745  1.8748 -3.0067  0.7150
33285SOL     OW 1861   0.383  11.205   2.098 -0.0625 -0.0433  0.4846
33285SOL    HW1 1862   0.311  11.186   2.037 -0.7636 -0.0228  1.2911
33285SOL    HW2 1863   0.366  11.296   2.126  1.6655  0.8590 -1.1842
33286SOL     OW 1864   8.469  10.181   4.698  0.2815  0.2886  0.0768
33286SOL    HW1 1865   8.396  10.142   4.650 -1.2954 -1.0958  3.3412
33286SOL    HW2 1866   8.466  10.274   4.674  0.0978 -0.3758 -2.9212
33287SOL     OW 1867   9.156   9.375   6.119  0.2754  0.5471  0.0946
33287SOL    HW1 1868   9.149   9.303   6.182  1.6557  1.8071  1.7785
33287SOL    HW2 1869   9.234   9.353   6.067  1.1611  1.1556  1.1234
33288SOL     OW 1870   0.519   6.350   3.972  0.6416 -1.2344 -0.8771
33288SOL    HW1 1871   0.566   6.381   4.050 -1.5683 -0.3632  0.1836
33288SOL    HW2 1872   0.476   6.428   3.937  0.4151 -1.9019 -2.1264
33289SOL     OW 1873   1.765   7.143   1.739  0.4461  0.2576  0.1305
33289SOL    HW1 1874   1.724   7.072   1.689  0.1317 -0.4978  1.4077
33289SOL    HW2 1875   1.748   7.120   1.831  1.0471  1.5721  0.5889
33290SOL     OW 1876  10.989  10.528   3.373 -0.2734  0.5635  0.0541
33290SOL    HW1 1877  11.053  10.507   3.305  0.9906  3.1829  0.3224
33290SOL    HW2 1878  11.031  10.499   3.455 -1.1020 -1.0990 -0.0595
33291SOL     OW 1879   3.684   3.185   4.501 -0.5184 -0.2668  0.0809
33291SOL    HW1 1880   3.646   3.097   4.493  0.0417 -0.6990  1.8339
33291SOL    HW2 1881   3.631   3.239   4.442 -1.3659 -1.6147 -0.4451
33292SOL     OW 1882   4.568  11.037   2.682  0.7287 -0.1363  0.1893
33292SOL    HW1 1883   4.608  11.115   2.719 -0.0900  0.8225 -0.8567
33292SOL    HW2 1884   4.632  11.003   2.620  0.8523  0.0472  0.2176
33293SOL     OW 1885   2.541   5.604   2.484  0.9268  0.4536  0.3382
33293SOL    HW1 1886   2.620   5.567   2.523  0.0737  0.3569  2.0771
33293SOL    HW2 1887   2.485   5.528   2.467  1.8532  0.3273 -2.5930
33294SOL     OW 1888   3.281   0.470   8.324  0.3305 -0.5522  0.1557
33294SOL    HW1 1889   3.274   0.375   8.337 -1.1771 -0.5005 -0.0864
33294SOL    HW2 1890   3.221   0.488   8.251 -1.0144  0.8593  1.5328
33295SOL     OW 1891   3.154   2.337   6.631 -0.0148 -0.2171 -0.1399
33295SOL    HW1 1892   3.128   2.381   6.713  0.4228  0.8404 -0.5506
33295SOL    HW2 1893   3.230   2.387   6.601 -0.1239 -0.6524 -1.1497
33296SOL     OW 1894   1.138   6.479  10.932 -0.2141  0.0680 -0.6330
33296SOL    HW1 1895   1.179   6.556  10.893 -0.4620 -0.4582 -2.0133
33296SOL    HW2 1896   1.044   6.494  10.923 -0.2877  0.0605  0.0473
33297SOL     OW 1897   5.880   3.908   9.840 -0.5658 -0.2025 -0.3121
33297SOL    HW1 1898   5.922   3.992   9.858 -2.0390  1.0025 -2.0850
33297SOL    HW2 1899   5.935   3.867   9.773 -0.1129 -0.4186  0.1935
33298SOL     OW 1900  10.020   6.024  11.002 -0.1238  0.2251 -0.2821
33298SOL    HW1 1901  10.085   5.971  10.956  0.9939  0.7393  0.6479
33298SOL    HW2 1902  10.049   6.023  11.093 -1.6792  0.1239  0.2410
33299SOL     OW 1903   4.006   8.188  11.285 -0.8590  0.2444  0.2004
33299SOL    HW1 1904   4.030   8.152  11.370  0.6769 -2.3226 -1.1797
33299SOL    HW2 1905   4.090   8.206  11.242 -1.3857 -2.1132 -2.1004
33300SOL     OW 1906   2.492  10.576   3.261 -0.1767  0.5117  0.0429
33300SOL    HW1 1907   2.442  10.549   3.184  0.7526  1.0087 -0.7663
33300SOL    HW2 1908   2.559  10.508   3.271 -0.1714  0.5519  0.2884
33301SOL     OW 1909   5.332   8.000   2.239  0.5231  0.7922 -0.4411
33301SOL    HW1 1910   5.359   7.916   2.203 -0.7258 -0.2672  0.9204
33301SOL    HW2 1911   5.291   7.977   2.323 -2.3152  2.4407 -1.2510
33302SOL     OW 1912  10.295   7.196   4.585  0.2632 -0.1223  0.0454
33302SOL    HW1 1913  10.244   7.190   4.665 -0.5953 -2.5081 -0.5960
33302SOL    HW2 1914  10.347   7.116   4.583  2.2673  1.1077 -0.5394
33303SOL     OW 1915  10.680   5.877   2.111 -0.2031 -0.1521 -0.2294
33303SOL    HW1 1916  10.697   5.968   2.083 -0.8803  0.0732  0.0758
33303SOL    HW2 1917  10.588   5.863   2.090 -0.1420 -0.7199 -0.1135
33304SOL     OW 1918   2.380   6.919   6.129 -0.0258  0.5159  0.1201
33304SOL    HW1 1919   2.303   6.922   6.187  0.3513 -1.6130  0.8458
33304SOL    HW2 1920   2.346   6.943   6.043 -1.2643  0.7577  0.6526
33305SOL     OW 1921   8.832   4.647   1.617 -0.2612 -0.0449  0.3102
33305SOL    HW1 1922   8.889   4.720   1.595 -1.6226  1.2123  0.8226
33305SOL    HW2 1923   8.791   4.672   1.700  1.4887 -2.7347  2.1620
33306SOL     OW 1924   0.500   5.361   6.778 -0.0131  0.2655 -0.4287
33306SOL    HW1 1925   0.569   5.423   6.801 -0.6998  1.0251 -0.4027
33306SOL    HW2 1926   0.479   5.317   6.860 -0.4066  0.8973 -0.1840
33307SOL     OW 1927  11.139   7.271   5.414  0.0005  0.4061  0.0848
33307SOL    HW1 1928  11.133   7.347   5.355  0.0680 -0.7757 -1.5253
33307SOL    HW2 1929  11.227   7.277   5.452  0.0271  1.1145 -0.0798
33308SOL     OW 1930   1.161   6.359   6.859 -0.9314  0.0171 -0.1155
33308SOL    HW1 1931   1.233   6.321   6.909 -0.1094 -0.8255 -1.8832
33308SOL    HW2 1932   1.086   6.354   6.918  0.0070 -0.9007  1.0447
33309SOL     OW 1933   6.550   4.505   4.820 -0.2139  0.4486 -0.0683
33309SOL    HW1 1934   6.635   4.466   4.841 -0.3649 -0.1863 -0.6187
33309SOL    HW2 1935   6.531   4.562   4.894  1.3366  1.6846 -0.5670
33310SOL     OW 1936   6.360  11.002   2.839 -0.5121 -0.2158  0.4507
33310SOL    HW1 1937   6.383  10.914   2.810  0.2361 -0.1387  0.7807
33310SOL    HW2 1938   6.315  11.041   2.764 -1.7134 -1.2022  0.6459
33311SOL     OW 1939   0.357   5.691   3.755 -0.1760 -0.0434  0.1464
33311SOL    HW1 1940   0.342   5.749   3.830 -1.6945  0.6635 -0.6532
33311SOL    HW2 1941   0.447   5.709   3.728 -0.6558  2.1109 -0.1896
33312SOL     OW 1942   1.714  10.049   8.484 -0.2692  0.3374  0.5207
33312SOL    HW1 1943   1.653  10.043   8.557  0.5685  0.1448  1.2222
33312SOL    HW2 1944   1.790  10.095   8.520 -0.2032  1.0350 -0.4719
33313SOL     OW 1945   0.981   4.032   8.350 -0.1300 -0.9750 -0.2863
33313SOL    HW1 1946   0.917   4.008   8.283  1.5004 -0.3401 -2.1898
33313SOL    HW2 1947   0.976   4.127   8.355  1.0385 -0.8600 -0.9189
33314SOL     OW 1948  10.144   3.214   2.731  0.0650  0.1923  0.4958
33314SOL    HW1 1949  10.215   3.165   2.689 -0.4324 -0.0623 -0.0717
33314SOL    HW2 1950  10.074   3.150   2.742  0.4000  0.1011  2.3274
33315SOL     OW 1951   3.944   3.313   7.035 -0.1486 -0.1213  0.3683
33315SOL    HW1 1952   3.888   3.288   7.108  0.7754  1.2147  1.5768
33315SOL    HW2 1953   4.032   3.286   7.062  0.1465 -0.0236 -0.4614
33316SOL     OW 1954   3.509   4.086   4.554  0.5676 -0.6196  0.1385
33316SOL    HW1 1955   3.573   4.155   4.534  1.4124 -1.2807  0.5413
33316SOL    HW2 1956   3.542   4.008   4.510  1.1054 -1.4640  1.9571
33317SOL     OW 1957  10.007   6.116   1.879 -0.0793 -0.1407 -0.3593
33317SOL    HW1 1958  10.081   6.177   1.880 -0.5562  0.5040  1.9975
33317SOL    HW2 1959  10.044   6.033   1.850  0.8445  0.9185 -2.4070
33318SOL     OW 1960   3.237   3.039   8.128 -0.1445  0.1386 -0.6137
33318SOL    HW1 1961   3.316   3.092   8.122  0.3385 -0.6356 -1.4554
33318SOL    HW2 1962   3.267   2.949   8.112 -1.1272 -0.2282 -0.4887
33319SOL     OW 1963   6.753  10.362   7.983  0.5786  0.1289 -0.3149
33319SOL    HW1 1964   6.762  10.394   8.072  0.6050 -0.9299  0.0726
33319SOL    HW2 1965   6.663  10.330   7.978  1.4017 -2.4873  0.2613
33320SOL     OW 1966   6.864   1.064   4.376 -0.1482  0.2007  0.2342
33320SOL    HW1 1967   6.958   1.049   4.384  0.3649  3.3106  1.4372
33320SOL    HW2 1968   6.824   0.991   4.424  1.6272 -1.0323 -0.0635
33321SOL     OW 1969   5.717   2.089   4.162 -0.5102  0.5966 -0.1465
33321SOL    HW1 1970   5.665   2.139   4.226  0.3322  1.5855 -0.2047
33321SOL    HW2 1971   5.796   2.142   4.149 -1.6313  1.6537 -3.7407
33322SOL     OW 1972   9.389   6.442   5.069  0.3895  0.0182 -0.5460
33322SOL    HW1 1973   9.458   6.496   5.109  0.8969 -2.0713  1.6187
33322SOL    HW2 1974   9.327   6.427   5.139  0.7628 -2.9599 -0.7311
33323SOL     OW 1975   1.302   6.225   5.749  0.5587 -0.3466 -0.1221
33323SOL    HW1 1976   1.336   6.180   5.826  2.5988 -0.5232 -1.0489
33323SOL    HW2 1977   1.302   6.158   5.680 -0.7069 -0.0560 -0.4327
33324SOL     OW 1978   6.768   9.138  10.769  0.3120 -1.1147  0.1430
33324SOL    HW1 1979   6.846   9.133  10.825  0.7378 -0.0377 -0.3290
33324SOL    HW2 1980   6.698   9.161  10.830  0.3602 -2.0107  0.5591
33325SOL     OW 1981  10.601   5.718   9.987 -0.6181  0.5521  0.1313
33325SOL    HW1 1982  10.639   5.673   9.911 -1.0349  0.8925 -0.2875
33325SOL    HW2 1983  10.506   5.706   9.975 -0.6598 -0.1947  1.0967
33326SOL     OW 1984  10.047   3.239   9.400 -0.1583  0.3321 -0.3916
33326SOL    HW1 1985  10.108   3.203   9.464  0.0352  0.2224 -0.6356
33326SOL    HW2 1986  10.055   3.181   9.324  0.9305  1.4852 -1.1898
33327SOL     OW 1987   5.507  10.623   5.685  0.2238  1.4036  0.1092
33327SOL    HW1 1988   5.472  10.582   5.764  1.7998  2.6688  1.5535
33327SOL    HW2 1989   5.462  10.707   5.679 -0.4259  1.0071 -0.7967
33328SOL     OW 1990   3.283   9.697   9.784 -0.0290 -0.6183 -0.0300
33328SOL    HW1 1991   3.227   9.691   9.861 -1.3210 -0.8301 -0.9466
33328SOL    HW2 1992   3.369   9.720   9.818 -0.5586 -0.7733  1.4680
33329SOL     OW 1993   9.014  10.267   1.807 -0.2683  0.5149 -0.2559
33329SOL    HW1 1994   9.022  10.351   1.763 -1.2929  0.3153 -0.8530
33329SOL    HW2 1995   8.956  10.284   1.882  0.4688  0.5836  0.3115
33330SOL     OW 1996   3.363   7.425   4.082  0.1360  0.3327  0.2509
33330SOL    HW1 1997   3.288   7.379   4.043  1.9351  0.7680 -4.3513
33330SOL    HW2 1998   3.334   7.515   4.092 -0.1863  0.3888 -1.0097
33331SOL     OW 1999   4.805   3.953  10.989  0.1995 -0.0102 -0.2160
33331SOL    HW1 2000   4.797   3.961  11.084 -1.0395  1.6455 -0.4245
33331SOL    HW2 2001   4.888   3.906  10.976 -0.2975 -1.5264  1.6833
33332SOL     OW 2002   2.461  10.728  11.238 -0.1064  0.5537  0.3015
33332SOL    HW1 2003   2.444  10.724  11.144  1.3883  0.4696  0.0030
33332SOL    HW2 2004   2.495  10.642  11.260  1.1677  1.0901  0.5413
33333SOL     OW 2005  10.829   6.983   1.129 -0.0140  0.1246 -0.0704
33333SOL    HW1 2006  10.908   6.933   1.152 -0.2293  0.4570  1.5281
33333SOL    HW2 2007  10.857   7.074   1.128 -0.4512  0.2921  1.0089
33334SOL     OW 2008   2.219   3.555   5.734 -0.1768  0.1322 -0.1552
33334SOL    HW1 2009   2.256   3.514   5.656  0.2484 -0.9346  0.5885
33334SOL    HW2 2010   2.294   3.583   5.786 -0.4432  0.2022  0.2013
33335SOL     OW 2011   0.851  11.097   7.988 -0.1276 -0.1442  0.1366
33335SOL    HW1 2012   0.765  11.134   7.972 -0.5858 -1.3806 -0.3978
33335SOL    HW2 2013   0.912  11.153   7.939 -0.4538  1.4271  1.4439
33336SOL     OW 2014   0.283  10.836   6.904 -0.0890  0.4369 -0.0927
33336SOL    HW1 2015   0.256  10.925   6.928 -2.7539  0.0712 -1.3475
33336SOL    HW2 2016   0.268  10.832   6.809  1.6620 -0.8471 -0.3622
33337SOL     OW 2017   1.176   8.394   3.508  0.0079 -0.2214  0.2786
33337SOL    HW1 2018   1.263   8.353   3.516 -0.8831 -2.7100 -1.4511
33337SOL    HW2 2019   1.195   8.485   3.487  2.2539 -0.8369 -0.7469
33338SOL     OW 2020   0.213   0.992   7.366 -0.1336  0.0726 -0.1842
33338SOL    HW1 2021   0.287   0.935   7.386 -1.7152 -2.3034 -0.7354
33338SOL    HW2 2022   0.213   1.056   7.437  1.6707 -0.6146  0.5027
33339SOL     OW 2023   5.571   1.656   0.187 -0.3971  0.0501 -0.2436
33339SOL    HW1 2024   5.582   1.751   0.187 -1.4446  0.2088  1.4668
33339SOL    HW2 2025   5.656   1.622   0.215  0.6049  0.3146 -2.6835
33340SOL     OW 2026   7.988   7.778   4.571  0.5134 -0.5384  0.1202
33340SOL    HW1 2027   7.910   7.733   4.539  0.7129 -0.9222  0.1599
33340SOL    HW2 2028   7.968   7.797   4.663  0.2156 -0.0572 -0.0395
33341SOL     OW 2029   4.170   9.320   2.122 -0.4577  0.0237  0.5764
33341SOL    HW1 2030   4.199   9.411   2.115 -2.0246  0.6989  2.0194
33341SOL    HW2 2031   4.220   9.285   2.196  0.1142 -0.3004  0.0478
33342SOL     OW 2032   0.947   2.162   0.269 -0.4704  0.4294 -0.1197
33342SOL    HW1 2033   1.010   2.093   0.247 -0.6461 -0.0870  0.9561
33342SOL    HW2 2034   1.001   2.240   0.284 -0.0815  0.0167  0.6871
33343SOL     OW 2035   4.979   4.484   1.907  0.6516  0.0085 -0.0409
33343SOL    HW1 2036   4.923   4.415   1.872  1.6421 -0.7432 -0.1930
33343SOL    HW2 2037   4.988   4.463   2.000  1.4265 -0.4275 -0.2020
33344SOL     OW 2038   2.777  10.736   6.148  0.1446 -0.4544  0.0569
33344SOL    HW1 2039   2.743  10.656   6.107 -3.2328  0.2412  1.1239
33344SOL    HW2 2040   2.702  10.796   6.148  2.3465  2.5335 -0.0850
33345SOL     OW 2041   0.689   4.557   5.607  0.0930 -0.7707 -0.6796
33345SOL    HW1 2042   0.676   4.479   5.662  0.6076 -1.2260 -1.1984
33345SOL    HW2 2043   0.669   4.528   5.518  0.5546 -0.3837 -0.9141
33346SOL     OW 2044   4.008   2.099   8.571 -0.2665 -0.1694 -0.0244
33346SOL    HW1 2045   3.963   2.167   8.621  2.8756  0.4260  2.2752
33346SOL    HW2 2046   4.049   2.146   8.499  3.6609  1.0696  2.7068
33347SOL     OW 2047   5.831   2.698   4.189 -0.5181 -0.2438  0.0527
33347SOL    HW1 2048   5.743   2.709   4.226  0.1045 -0.6664  1.7527
33347SOL    HW2 2049   5.887   2.681   4.265  1.6618  3.3253 -0.5389
33348SOL     OW 2050   4.672   6.092   5.251 -0.2371 -0.5733  0.6654
33348SOL    HW1 2051   4.608   6.064   5.316  0.2360  0.3391  1.5548
33348SOL    HW2 2052   4.726   6.157   5.297  1.6040 -1.6274  0.0979
33349SOL     OW 2053   2.637   4.863   4.273 -0.0770  0.6240 -0.0252
33349SOL    HW1 2054   2.699   4.905   4.334 -1.8872  1.8483  1.0721
33349SOL    HW2 2055   2.584   4.806   4.328  0.8047 -1.4005 -1.1520
33350SOL     OW 2056   2.983   7.372   7.689  0.2203 -0.1970  0.1663
33350SOL    HW1 2057   2.917   7.423   7.641  0.7294 -0.3406 -0.7032
33350SOL    HW2 2058   2.998   7.296   7.634 -0.5186 -1.3105  1.4508
33351SOL     OW 2059   0.600   2.795   9.222  0.1544  0.6564 -0.1166
33351SOL    HW1 2060   0.616   2.717   9.276  0.8643  2.1570  1.9784
33351SOL    HW2 2061   0.684   2.812   9.180 -0.2296 -0.1535 -1.2537
33352SOL     OW 2062   0.792   2.499   6.423 -0.2788 -0.1067 -0.1248
33352SOL    HW1 2063   0.702   2.532   6.420 -0.1013  0.4519  0.3705
33352SOL    HW2 2064   0.787   2.420   6.478 -0.7020 -0.9162 -1.2930
33353SOL     OW 2065   4.023   2.440   7.169  0.4442 -0.6163 -0.0455
33353SOL    HW1 2066   4.028   2.511   7.106 -3.3310  2.0104  2.2236
33353SOL    HW2 2067   4.107   2.443   7.215  0.5637  2.1438 -0.2958
33354SOL     OW 2068   0.422   1.461   3.879  1.0767 -0.4791  0.1955
33354SOL    HW1 2069   0.389   1.518   3.948 -0.0881 -0.7512 -0.1119
33354SOL    HW2 2070   0.418   1.514   3.800  1.0795 -0.6078  0.1075
33355SOL     OW 2071   8.273   5.001   0.182 -0.6270  0.6732  0.6272
33355SOL    HW1 2072   8.365   4.979   0.195 -0.5381  1.1679  0.8458
33355SOL    HW2 2073   8.267   5.029   0.091 -0.2707  2.0616  1.0150
33356SOL     OW 2074   3.722   0.523   1.342 -0.3241 -0.3501  0.7652
33356SOL    HW1 2075   3.638   0.569   1.341 -1.0200 -1.5706  0.7924
33356SOL    HW2 2076   3.704   0.441   1.388 -0.4213 -2.9305 -3.3361
33357SOL     OW 2077   1.594   8.518   0.242 -0.1060  0.5889 -0.0772
33357SOL    HW1 2078   1.506   8.549   0.263  0.0038  1.1221 -0.3964
33357SOL    HW2 2079   1.590   8.498   0.148 -0.0993 -0.1098  0.0680
33358SOL     OW 2080   7.225   4.632   7.952 -0.4058  0.2358  0.5341
33358SOL    HW1 2081   7.134   4.618   7.978 -0.6025  0.6126  0.0581
33358SOL    HW2 2082   7.230   4.597   7.863 -0.5221  1.7564 -0.0900
33359SOL     OW 2083   3.778   0.624   3.130  0.0486  0.3602 -0.2623
33359SOL    HW1 2084   3.843   0.602   3.196  0.6516 -1.2367 -1.2950
33359SOL    HW2 2085   3.812   0.702   3.087  2.2500 -1.3098 -1.8433
33360SOL     OW 2086   2.208   8.344   9.338 -0.0017  0.3588 -0.2440
33360SOL    HW1 2087   2.114   8.355   9.348 -0.0079  0.0109  0.1004
33360SOL    HW2 2088   2.223   8.345   9.244 -0.2108  1.5519 -0.2840
33361SOL     OW 2089   2.556   0.896   2.321 -0.1854  0.1503  0.1751
33361SOL    HW1 2090   2.605   0.829   2.367  0.9702  0.9264  0.1192
33361SOL    HW2 2091   2.529   0.958   2.389 -0.1238  0.3043  0.0608
33362SOL     OW 2092   0.578   8.131   5.596  0.1221 -0.3203  0.1703
33362SOL    HW1 2093   0.550   8.174   5.515 -0.2934 -0.6107  0.1592
33362SOL    HW2 2094   0.596   8.204   5.656  0.0695 -0.1122 -0.0625
33363SOL     OW 2095   4.199   5.238   9.140  0.0949  0.2320  0.8238
33363SOL    HW1 2096   4.261   5.167   9.154  1.5520  0.8692 -1.8460
33363SOL    HW2 2097   4.221   5.302   9.208  1.6351 -0.0332  0.6059
33364SOL     OW 2098   3.067   2.588   9.481 -0.4590 -0.0350  0.4169
33364SOL    HW1 2099   3.104   2.508   9.519 -0.7618  0.0510  0.9047
33364SOL    HW2 2100   3.038   2.562   9.393  0.4359 -0.1859  0.1594
33365SOL     OW 2101   1.059   7.282   6.671 -0.7278 -0.0128 -0.2770
33365SOL    HW1 2102   1.060   7.293   6.766 -1.8520  0.9040 -0.3466
33365SOL    HW2 2103   1.054   7.187   6.657 -4.4635 -0.1160  0.7029
33366SOL     OW 2104   4.477   9.770   1.833 -0.1070  0.1418  0.4222
33366SOL    HW1 2105   4.565   9.808   1.831  0.3345 -0.8107  1.1423
33366SOL    HW2 2106   4.474   9.712   1.757  0.1255 -0.3419  0.7828
33367SOL     OW 2107   0.178   7.056   7.552 -0.4247  0.1703  0.4611
33367SOL    HW1 2108   0.090   7.041   7.517 -1.1277  3.6992  0.3700
33367SOL    HW2 2109   0.167   7.126   7.617  2.0611 -0.6973  1.9683
33368SOL     OW 2110   3.186   0.494   1.377 -0.1717 -0.0030 -0.0218
33368SOL    HW1 2111   3.179   0.425   1.444  2.2635  1.0247  1.3895
33368SOL    HW2 2112   3.241   0.456   1.309 -0.3382 -0.0618 -0.1259
33369SOL     OW 2113   5.922   4.624   1.220 -0.3130 -0.2307  0.5099
33369SOL    HW1 2114   6.010   4.604   1.253 -0.3967 -1.5538 -0.0109
33369SOL    HW2 2115   5.869   4.549   1.247 -1.4745  0.8749  1.4423
33370SOL     OW 2116   2.689  10.901   6.516 -0.4775 -0.1304  0.2325
33370SOL    HW1 2117   2.761  10.840   6.498 -1.2226 -1.0539  0.2847
33370SOL    HW2 2118   2.721  10.986   6.486  0.6570 -0.5105  0.3221
33371SOL     OW 2119  10.092   0.558   1.293 -0.6064  0.2018  0.2518
33371SOL    HW1 2120  10.099   0.647   1.327 -2.4457  0.4620  0.0647
33371SOL    HW2 2121  10.103   0.502   1.370 -3.0175  0.7435  1.0815
33372SOL     OW 2122   3.194   3.191   1.170 -0.1150  0.0859  0.3013
33372SOL    HW1 2123   3.136   3.142   1.112  1.0866  1.6391 -2.3707
33372SOL    HW2 2124   3.135   3.247   1.221 -1.1300 -0.1789 -0.5535
33373SOL     OW 2125  11.089   7.742   6.834  0.4629 -0.3621  0.1835
33373SOL    HW1 2126  11.181   7.767   6.845 -0.0115  0.8700  1.6247
33373SOL    HW2 2127  11.075   7.670   6.895  0.0317  0.7090  1.4019
33374SOL     OW 2128   7.145   2.782   0.740  0.2520 -0.4045 -0.0163
33374SOL    HW1 2129   7.081   2.820   0.801 -0.1049 -0.7830 -0.1506
33374SOL    HW2 2130   7.186   2.711   0.790  0.3593 -0.3522 -0.0295
33375SOL     OW 2131   4.763  10.848   5.575  0.7238 -0.0794  0.4727
33375SOL    HW1 2132   4.703  10.895   5.518  1.1218  1.4337  1.2584
33375SOL    HW2 2133   4.782  10.767   5.528 -2.1275 -0.7630  0.3186
33376SOL     OW 2134   2.123   0.562   4.429  0.5897  0.4061  0.1358
33376SOL    HW1 2135   2.102   0.536   4.518 -0.3544  0.2138 -0.1287
33376SOL    HW2 2136   2.195   0.625   4.438  0.9369 -0.1010  0.9754
33377SOL     OW 2137  11.143  10.422   1.325 -0.3235  0.4123 -0.1650
33377SOL    HW1 2138  11.193  10.433   1.406  1.4354  2.2484 -1.4098
33377SOL    HW2 2139  11.122  10.511   1.297 -0.8756 -0.1840 -1.7618
33378SOL     OW 2140   4.770   7.591   1.558 -0.8770 -0.9507 -0.2090
33378SOL    HW1 2141   4.804   7.537   1.629 -1.6152 -1.0509  0.0856
33378SOL    HW2 2142   4.692   7.633   1.595 -0.9151 -0.5086 -0.7637
33379SOL     OW 2143   4.891   1.736   5.121 -0.3189  0.1050  0.4846
33379SOL    HW1 2144   4.820   1.780   5.074 -0.0869 -0.0442 -0.0214
33379SOL    HW2 2145   4.919   1.666   5.061 -0.1708 -0.2410  0.9495
33380SOL     OW 2146   8.609   0.615   5.205 -0.1474  0.1926  0.3063
33380SOL    HW1 2147   8.615   0.599   5.300 -1.1240 -0.9327  0.2147
33380SOL    HW2 2148   8.582   0.530   5.169  2.6901 -0.1550 -1.3047
33381SOL     OW 2149   0.385  10.053   0.059  0.4203 -0.3319 -0.2299
33381SOL    HW1 2150   0.371  10.148   0.065  1.1912 -0.0577 -1.9985
33381SOL    HW2 2151   0.435  10.042  -0.022  1.9672 -2.0778  0.8873
33382SOL     OW 2152   1.480   8.745   4.499  0.1819 -0.4369  0.9179
33382SOL    HW1 2153   1.433   8.828   4.508  0.6042 -0.1337  0.3653
33382SOL    HW2 2154   1.439   8.703   4.424  1.4778  0.3143 -0.2537
33383SOL     OW 2155   0.830   7.252  10.709 -0.6734 -0.9387 -0.1555
33383SOL    HW1 2156   0.761   7.312  10.736 -0.6353 -0.8054 -0.3514
33383SOL    HW2 2157   0.804   7.167  10.745 -1.4243 -1.0903 -0.9984
33384SOL     OW 2158   0.662   7.136   1.982 -0.2228  0.4797 -0.2806
33384SOL    HW1 2159   0.591   7.122   2.044  0.4067  1.2840  0.6489
33384SOL    HW2 2160   0.647   7.070   1.914 -0.6425 -0.7711  0.9634
33385SOL     OW 2161   5.134   8.895  10.397  0.8831 -0.2379 -0.2306
33385SOL    HW1 2162   5.195   8.894  10.471  1.4266  2.4787 -0.5625
33385SOL    HW2 2163   5.188   8.872  10.321  0.8960 -0.3955 -0.1755
33386SOL     OW 2164   1.588   0.548   3.775  0.3442 -0.4302  0.3962
33386SOL    HW1 2165   1.524   0.477   3.780 -1.7774  1.3862  0.8112
33386SOL    HW2 2166   1.573   0.587   3.689  0.9340  0.0001  0.4841
33387SOL     OW 2167   4.854   1.481   3.832 -0.1787 -0.2364  0.4766
33387SOL    HW1 2168   4.759   1.488   3.843 -0.1132  2.2812 -0.0905
33387SOL    HW2 2169   4.881   1.566   3.798  2.2337 -1.0749  0.1153
33388SOL     OW 2170  10.424   1.145   4.106  0.5620  0.1296  0.0911
33388SOL    HW1 2171  10.458   1.068   4.061 -0.9038  0.1689 -1.1865
33388SOL    HW2 2172  10.368   1.109   4.176  2.0869  0.0706  1.3279
33389SOL     OW 2173   7.456   4.549   0.936  0.0147 -0.3672 -0.1774
33389SOL    HW1 2174   7.422   4.518   1.020 -1.5915 -3.1010 -1.6400
33389SOL    HW2 2175   7.529   4.491   0.917 -0.2641 -0.4514 -1.0629
33390SOL     OW 2176  11.236   4.981  10.726  0.0581 -0.3050 -0.1614
33390SOL    HW1 2177  11.281   5.058  10.692  0.0571 -0.4130 -0.4053
33390SOL    HW2 2178  11.299   4.910  10.716  0.5351 -0.1133  1.2013
33391SOL     OW 2179   8.402   9.488   5.118 -0.3825 -0.5631  0.8615
33391SOL    HW1 2180   8.481   9.478   5.172 -0.8688  0.6409  1.8540
33391SOL    HW2 2181   8.433   9.535   5.040  0.1436 -1.4111  0.5508
33392SOL     OW 2182   7.373  10.148   1.661 -0.3427  0.7796 -0.0851
33392SOL    HW1 2183   7.346  10.105   1.742 -0.2834 -0.0350 -0.4893
33392SOL    HW2 2184   7.339  10.237   1.669 -2.3536  0.0624 -0.1552
33393SOL     OW 2185   0.499   5.440   7.075  0.3097  0.6486  0.5885
33393SOL    HW1 2186   0.582   5.474   7.109 -0.3481  2.4424  0.5138
33393SOL    HW2 2187   0.445   5.426   7.153  1.2106 -2.3021  0.8251
33394SOL     OW 2188   9.042   3.791   8.307 -0.8622 -0.1834  0.4421
33394SOL    HW1 2189   9.030   3.883   8.330 -2.2125 -0.4032  0.7248
33394SOL    HW2 2190   8.986   3.744   8.368  1.6811 -1.4362  1.9727
33395SOL     OW 2191   8.671   4.653   0.604  0.4189 -0.5092 -0.2225
33395SOL    HW1 2192   8.598   4.713   0.618 -1.9284 -3.3133  0.7156
33395SOL    HW2 2193   8.748   4.699   0.639 -1.3221  1.6622  1.0036
33396SOL     OW 2194   6.201   8.931   1.305 -0.3724  0.7017  0.5353
33396SOL    HW1 2195   6.270   8.968   1.251 -1.0814  0.6790 -0.4076
33396SOL    HW2 2196   6.214   8.836   1.301  0.5714  0.7561  1.7765
33397SOL     OW 2197   5.469   9.082   1.543  0.5044  0.1777 -0.1840
33397SOL    HW1 2198   5.525   9.044   1.610  3.4147  2.8017 -0.8784
33397SOL    HW2 2199   5.523   9.083   1.464 -1.4247  0.6896 -1.5839
33398SOL     OW 2200   9.089   1.648   1.166  0.4515  0.6040  0.1582
33398SOL    HW1 2201   9.007   1.608   1.194  0.0505  0.3888 -1.2820
33398SOL    HW2 2202   9.157   1.597   1.210 -0.0614 -1.2989 -1.1571
33399SOL     OW 2203   4.024   9.219   3.842  0.0368 -0.2588 -0.3412
33399SOL    HW1 2204   4.071   9.142   3.874  1.0794 -0.1407 -1.5068
33399SOL    HW2 2205   4.027   9.281   3.915 -2.7592 -2.0354  1.4711
33400SOL     OW 2206   4.057   0.676   2.569  0.0171 -0.0261  0.2032
33400SOL    HW1 2207   4.050   0.747   2.505 -0.3139 -0.9863 -0.8585
33400SOL    HW2 2208   4.093   0.603   2.520 -1.3154 -1.1331  0.8188
33401SOL     OW 2209   7.676   7.105   0.450  0.0199 -0.2135 -0.5722
33401SOL    HW1 2210   7.710   7.053   0.378  4.2288  0.2818  0.7654
33401SOL    HW2 2211   7.728   7.078   0.526 -4.4554 -1.0973  2.6208
33402SOL     OW 2212   6.186   0.123   2.093 -0.4453  0.1084 -0.5755
33402SOL    HW1 2213   6.155   0.213   2.099  1.7465  1.0145 -1.7494
33402SOL    HW2 2214   6.201   0.109   1.999  1.7083 -0.5384 -0.1841
33403SOL     OW 2215   8.901   1.374  11.244  0.1468  0.3422  0.2045
33403SOL    HW1 2216   8.970   1.356  11.309 -0.4122 -0.8536  0.4999
33403SOL    HW2 2217   8.833   1.420  11.292  0.4340  0.9177  0.0710
33404SOL     OW 2218   7.260   6.093   3.033  0.0898  0.3400 -0.4700
33404SOL    HW1 2219   7.328   6.083   3.100 -0.9809  0.3114  0.6355
33404SOL    HW2 2220   7.289   6.037   2.961  0.1582 -1.3681  0.8412
33405SOL     OW 2221   3.547   5.497   4.365 -0.3865 -0.2352 -0.2051
33405SOL    HW1 2222   3.526   5.500   4.272 -2.5438 -0.3744  0.2221
33405SOL    HW2 2223   3.583   5.583   4.384 -3.7724  1.3860 -0.4114
33406SOL     OW 2224   3.428   6.601   2.500 -0.1164  0.1735 -0.0792
33406SOL    HW1 2225   3.378   6.638   2.572  1.1638  0.1965  0.8263
33406SOL    HW2 2226   3.459   6.516   2.533  0.2663  0.0687 -0.6908
33407SOL     OW 2227  10.334   8.730   1.296 -0.1180 -0.4886  0.5835
33407SOL    HW1 2228  10.261   8.789   1.273  1.5589  1.3185 -0.3798
33407SOL    HW2 2229  10.292   8.659   1.345 -2.3024  1.3217  1.5309
33408SOL     OW 2230  10.377   7.115  11.196  0.0094  0.1077 -0.1190
33408SOL    HW1 2231  10.283   7.125  11.211  0.1275  0.2165  0.6276
33408SOL    HW2 2232  10.384   7.048  11.129 -0.5822 -0.6158  0.5167
33409SOL     OW 2233   9.583   2.523   6.833 -0.1597  0.3699  0.1922
33409SOL    HW1 2234   9.562   2.476   6.914 -2.5310  1.3586  0.2182
33409SOL    HW2 2235   9.535   2.476   6.765  2.1813 -0.7339 -0.8156
33410SOL     OW 2236   8.467   6.036   8.223  0.0028 -0.1021 -0.3176
33410SOL    HW1 2237   8.410   5.967   8.256 -1.2129  1.8571  1.9515
33410SOL    HW2 2238   8.521   6.060   8.297 -0.2160  1.9414 -0.7667
33411SOL     OW 2239   3.343   3.499  10.523  0.3685  0.5374 -0.0406
33411SOL    HW1 2240   3.434   3.512  10.551  0.9310 -0.3642 -1.3412
33411SOL    HW2 2241   3.311   3.429  10.579  0.4620  0.8505  0.4169
33412SOL     OW 2242   8.279  11.142   0.788 -0.1954 -0.2765 -0.8509
33412SOL    HW1 2243   8.300  11.116   0.698  0.4350  1.4437 -1.2404
33412SOL    HW2 2244   8.319  11.228   0.798 -1.5203  0.2177  0.5938
33413SOL     OW 2245   2.810   2.640   4.225 -0.1014 -0.7431 -0.4705
33413SOL    HW1 2246   2.868   2.712   4.202  2.7263 -2.2678  1.3460
33413SOL    HW2 2247   2.842   2.566   4.174 -0.4125 -1.6309  0.5890
33414SOL     OW 2248   2.233   4.606   9.862 -0.0634  0.0516 -0.0124
33414SOL    HW1 2249   2.274   4.676   9.912 -0.7563  1.1026 -0.8625
33414SOL    HW2 2250   2.306   4.562   9.818  0.3084  0.7977 -0.1563
33415SOL     OW 2251   9.112   0.428   8.757 -0.1375  0.1108  0.1334
33415SOL    HW1 2252   9.188   0.384   8.720  0.4335  1.9434 -0.9690
33415SOL    HW2 2253   9.079   0.367   8.824 -1.2201 -3.3829 -3.2202
33416SOL     OW 2254   9.582   5.814  10.523 -0.5507 -0.3065  0.3713
33416SOL    HW1 2255   9.609   5.757  10.595 -1.2638 -0.4005  0.5647
33416SOL    HW2 2256   9.641   5.889  10.529 -0.5473 -0.3562  0.9940
33417SOL     OW 2257   8.768   9.277   3.362 -0.1630 -0.4449 -0.4335
33417SOL    HW1 2258   8.788   9.197   3.314  1.2659 -0.8823  0.8199
33417SOL    HW2 2259   8.705   9.323   3.307 -0.2643 -1.9630 -1.6409
33418SOL     OW 2260   1.805   9.050   6.994 -0.2824  0.9124 -0.4532
33418SOL    HW1 2261   1.803   9.029   7.088  1.5350  3.2514  0.2003
33418SOL    HW2 2262   1.725   9.100   6.980 -0.9052 -0.0246 -0.3352
33419SOL     OW 2263   1.110   2.235   5.799  0.1426  0.5056 -0.1026
33419SOL    HW1 2264   1.117   2.143   5.826 -0.0351  0.6460  0.4243
33419SOL    HW2 2265   1.113   2.284   5.880  3.5379  1.1931 -0.4767
33420SOL     OW 2266   4.772   0.050   4.486 -0.5559  0.9397  1.0395
33420SOL    HW1 2267   4.809   0.014   4.405  0.3582  0.5773  1.6123
33420SOL    HW2 2268   4.681   0.018   4.486  0.1925 -1.3949  1.5095
33421SOL     OW 2269   8.792   6.680   7.072  0.4103  0.0064 -0.0278
33421SOL    HW1 2270   8.819   6.623   7.000 -1.3313 -1.6142  0.5269
33421SOL    HW2 2271   8.756   6.621   7.138 -1.9365  1.7647  0.3888
33422SOL     OW 2272   2.379  10.603   1.545 -0.1883  0.1071  0.0111
33422SOL    HW1 2273   2.285  10.608   1.560 -0.1845  0.7216 -0.1116
33422SOL    HW2 2274   2.418  10.653   1.617  0.1575 -1.5121  1.0028
33423SOL     OW 2275   5.495  11.152   7.970  0.1082 -0.0353 -0.1534
33423SOL    HW1 2276   5.528  11.156   7.881 -1.7601  0.4691 -0.8876
33423SOL    HW2 2277   5.525  11.068   8.004 -0.1577 -0.7982 -1.7121
33424SOL     OW 2278   9.332   8.577   2.863  0.0226 -0.3046 -0.3232
33424SOL    HW1 2279   9.394   8.590   2.934  0.9615  0.0745 -1.1892
33424SOL    HW2 2280   9.345   8.486   2.836  2.6683  0.6362 -2.6910
33425SOL     OW 2281   7.409   0.576   3.071 -0.3366 -0.4159 -0.5446
33425SOL    HW1 2282   7.481   0.611   3.018 -0.9389 -0.2295 -1.2494
33425SOL    HW2 2283   7.379   0.499   3.023  0.4315 -1.4492  0.5702
33426SOL     OW 2284   2.770   9.077  11.152  0.7912  0.0917  0.5066
33426SOL    HW1 2285   2.728   9.160  11.176  0.7580  0.0342  0.6520
33426SOL    HW2 2286   2.854   9.102  11.113  0.5790  0.2146  0.1175
33427SOL     OW 2287   7.774   4.553   3.392  0.4744  0.2397 -0.0054
33427SOL    HW1 2288   7.754   4.461   3.377  1.9258 -0.4781  2.0372
33427SOL    HW2 2289   7.794   4.588   3.305  0.8630 -1.6158 -0.7072
33428SOL     OW 2290  10.439   6.703   9.520  0.3986 -0.0451 -0.5223
33428SOL    HW1 2291  10.475   6.749   9.445 -0.6462 -2.8832 -2.9708
33428SOL    HW2 2292  10.429   6.613   9.490 -2.1352 -0.8675  2.3037
33429SOL     OW 2293   1.214   0.327   2.878 -0.0917  0.3069  0.3118
33429SOL    HW1 2294   1.240   0.305   2.967  0.9386  0.8527  0.1602
33429SOL    HW2 2295   1.148   0.262   2.855  0.2267 -0.3319  1.1767
33430SOL     OW 2296   4.012   1.430   2.241 -0.0735  0.0811  0.3606
33430SOL    HW1 2297   4.081   1.476   2.194 -0.5605  0.8603  0.3900
33430SOL    HW2 2298   3.986   1.490   2.312 -1.0209 -0.0325  0.1308
33431SOL     OW 2299   1.203   5.777   6.428  0.1228 -0.1838 -0.7498
33431SOL    HW1 2300   1.213   5.755   6.521  0.5705 -0.2516 -0.8108
33431SOL    HW2 2301   1.119   5.822   6.422  0.2908  0.2036 -0.2422
33432SOL     OW 2302  10.855   2.274   1.040 -0.2611  0.4277  0.5656
33432SOL    HW1 2303  10.848   2.322   0.958  0.8764 -2.8228 -1.6289
33432SOL    HW2 2304  10.798   2.198   1.028 -1.3379  0.6300  3.5229
33433SOL     OW 2305   7.326   9.742   9.636 -0.1739  0.4273 -0.0835
33433SOL    HW1 2306   7.309   9.654   9.672  1.3464  1.2110  2.8438
33433SOL    HW2 2307   7.393   9.727   9.569 -0.0527 -0.6680  0.2511
33434SOL     OW 2308   3.258   6.056   1.590 -0.9464 -0.0262 -0.3072
33434SOL    HW1 2309   3.260   6.022   1.501 -0.5053  0.2541 -0.4030
33434SOL    HW2 2310   3.347   6.043   1.623 -1.0942 -0.0874  0.0793
33435SOL     OW 2311   6.805   4.712   2.189 -0.6460  0.0584  0.2267
33435SOL    HW1 2312   6.811   4.787   2.248  0.4114 -0.1834  0.4531
33435SOL    HW2 2313   6.830   4.747   2.104  1.0603 -0.2626  0.5595
33436SOL     OW 2314   8.498   6.349   0.482  0.3885 -0.0704  0.0014
33436SOL    HW1 2315   8.454   6.295   0.547  0.5716 -0.0246  0.1641
33436SOL    HW2 2316   8.566   6.293   0.445  0.5902  0.0508  0.1824
33437SOL     OW 2317   0.663   2.887   1.544 -0.8484 -0.5908 -0.1909
33437SOL    HW1 2318   0.584   2.868   1.596 -1.2561  1.9518  0.2796
33437SOL    HW2 2319   0.721   2.813   1.560 -2.0370 -1.1782  1.7688
33438SOL     OW 2320   7.381   8.796   6.739  0.2134 -0.3876 -0.1877
33438SOL    HW1 2321   7.444   8.757   6.678 -0.1423  1.5705 -1.9473
33438SOL    HW2 2322   7.323   8.848   6.683 -0.8122  0.6572  1.7350
33439SOL     OW 2323   6.967   9.505   2.706  0.2136 -0.4986 -0.0207
33439SOL    HW1 2324   6.926   9.525   2.790 -0.1311 -1.8270  0.1404
33439SOL    HW2 2325   7.030   9.436   2.725  0.8502 -0.1177 -0.6903
33440SOL     OW 2326   7.556   2.914   4.398  0.8318  0.7405  0.1754
33440SOL    HW1 2327   7.461   2.921   4.387  0.8350 -0.5357 -0.9988
33440SOL    HW2 2328   7.568   2.899   4.492 -0.0544  1.6615  0.4571
33441SOL     OW 2329   2.550   5.410   6.189  0.5684 -0.3327  0.2511
33441SOL    HW1 2330   2.541   5.383   6.280 -3.5813 -0.2943  0.0754
33441SOL    HW2 2331   2.615   5.480   6.190  0.3782 -0.0843  3.2418
33442SOL     OW 2332   2.909   3.689   4.524  0.2222 -0.4060 -0.3839
33442SOL    HW1 2333   2.832   3.678   4.467 -0.8849  1.0533  0.7474
33442SOL    HW2 2334   2.903   3.617   4.586  0.0295 -0.5651 -0.5826
33443SOL     OW 2335   4.697  10.958   9.698  0.4598 -0.0737  0.1013
33443SOL    HW1 2336   4.673  10.918   9.615 -0.3869  0.3189  0.1459
33443SOL    HW2 2337   4.753  11.032   9.673 -0.2765  0.3983 -0.1592
33444SOL     OW 2338   5.481   0.748   3.488 -0.3418 -0.0786  0.4098
33444SOL    HW1 2339   5.477   0.833   3.531 -1.0345 -1.3100  2.9814
33444SOL    HW2 2340   5.452   0.765   3.398 -0.7460  2.3251  0.9236
33445SOL     OW 2341   8.462   0.303   0.697  0.3523 -0.1135 -0.2227
33445SOL    HW1 2342   8.424   0.224   0.735  1.5453 -1.4595 -1.6886
33445SOL    HW2 2343   8.423   0.375   0.747 -0.6286 -1.6173  1.2834
33446SOL     OW 2344   6.155  10.860   7.382 -0.4771  0.0536 -0.6143
33446SOL    HW1 2345   6.094  10.901   7.320  0.1491  1.9091 -0.0692
33446SOL    HW2 2346   6.235  10.845   7.331  0.4301  2.6081 -0.0807
33447SOL     OW 2347   6.819   0.516   7.225 -0.1614  0.1932 -0.1363
33447SOL    HW1 2348   6.741   0.572   7.228 -0.4378 -0.2277  0.7915
33447SOL    HW2 2349   6.797   0.441   7.280  0.8436 -0.0098  0.0083
33448SOL     OW 2350   8.120   9.534  11.154 -0.0373 -0.3424 -0.2103
33448SOL    HW1 2351   8.068   9.547  11.074 -0.0462 -0.4364 -0.2197
33448SOL    HW2 2352   8.170   9.615  11.163 -3.0126  1.4643  1.9468
33449SOL     OW 2353   5.919   3.296   0.388 -0.6508 -0.1707  0.1175
33449SOL    HW1 2354   5.895   3.291   0.481 -1.0213 -0.4278  0.0118
33449SOL    HW2 2355   5.973   3.374   0.381 -2.3570  1.0645  0.1689
33450SOL     OW 2356   5.050   1.778   9.222  0.5156  1.2734  0.1313
33450SOL    HW1 2357   5.105   1.699   9.216 -2.8678 -1.3591  0.8149
33450SOL    HW2 2358   5.021   1.780   9.313 -1.2544  1.9492 -0.4105
33451SOL     OW 2359  10.678   7.635   8.005  0.3564 -0.2984 -0.1198
33451SOL    HW1 2360  10.646   7.691   7.934  1.2944 -2.0600 -2.0278
33451SOL    HW2 2361  10.605   7.632   8.067 -0.2781  1.7747 -0.6767
33452SOL     OW 2362   6.476   8.101   7.411 -0.0772 -0.2293  0.5150
33452SOL    HW1 2363   6.384   8.075   7.407  0.2513 -1.3564 -2.0141
33452SOL    HW2 2364   6.523   8.020   7.431  0.5150 -0.3771 -1.2578
33453SOL     OW 2365  10.350   1.281   2.783  0.6037 -0.2026  0.5408
33453SOL    HW1 2366  10.313   1.338   2.850  1.2011 -0.8817  1.4734
33453SOL    HW2 2367  10.426   1.329   2.750  0.7228 -0.1652  0.8610
33454SOL     OW 2368   4.557   8.023  10.914 -0.2173  0.8903 -0.8080
33454SOL    HW1 2369   4.515   7.946  10.953 -0.5435  2.3076  1.9032
33454SOL    HW2 2370   4.519   8.030  10.826 -0.8819 -1.4583 -0.7761
33455SOL     OW 2371   6.712   2.463   0.953 -0.6388 -0.2497 -0.5914
33455SOL    HW1 2372   6.725   2.422   1.039  1.8054  2.1805  0.3429
33455SOL    HW2 2373   6.619   2.486   0.952 -0.8072 -0.6445  1.2440
33456SOL     OW 2374   2.626   9.038   6.841  0.0387  0.5917  0.5063
33456SOL    HW1 2375   2.689   9.039   6.769  1.2969  0.0405  1.5675
33456SOL    HW2 2376   2.540   9.042   6.798  0.6060 -2.6753 -1.2160
33457SOL     OW 2377   2.503   3.072   5.051 -0.1425  0.0268  0.0330
33457SOL    HW1 2378   2.549   3.128   4.989 -1.6233  0.4226 -0.7644
33457SOL    HW2 2379   2.565   3.002   5.071  1.5722  1.6640  0.7038
33458SOL     OW 2380  10.453   7.473   6.838  0.5476 -0.1696  0.3266
33458SOL    HW1 2381  10.479   7.394   6.885 -2.5596 -1.2877  0.4336
33458SOL    HW2 2382  10.359   7.482   6.857  0.2385  2.0951 -1.7643
33459SOL     OW 2383   0.800   1.716   0.711  0.0478  0.1722  0.2021
33459SOL    HW1 2384   0.737   1.721   0.784 -1.7905 -1.4169 -1.1608
33459SOL    HW2 2385   0.862   1.648   0.738 -0.6716 -0.4730  0.2661
33460SOL     OW 2386   6.629   0.377   8.989  0.6564 -0.3748 -0.3685
33460SOL    HW1 2387   6.703   0.328   8.953  0.1630 -0.4297 -1.3491
33460SOL    HW2 2388   6.558   0.362   8.926  0.2956  1.0406 -0.3256
33461SOL     OW 2389   9.035   0.064   7.136 -0.2811  0.1325  0.0876
33461SOL    HW1 2390   9.063   0.152   7.112 -0.3794  0.1323 -0.0298
33461SOL    HW2 2391   9.070   0.007   7.068  1.0388 -0.1210  0.9373
33462SOL     OW 2392   0.777   4.478   6.322  0.3212  0.1318 -0.2883
33462SOL    HW1 2393   0.774   4.520   6.408  3.2737 -0.8349  0.4232
33462SOL    HW2 2394   0.797   4.549   6.261  2.3954  0.2824  0.4890
33463SOL     OW 2395   8.697   0.507   0.963  0.7569  0.0161 -0.5760
33463SOL    HW1 2396   8.672   0.595   0.989  1.2310  0.8939 -2.9106
33463SOL    HW2 2397   8.775   0.518   0.909 -1.2693 -1.3301 -4.1146
33464SOL     OW 2398   5.327   0.435   8.748  0.3366  0.1911  0.0462
33464SOL    HW1 2399   5.398   0.408   8.805 -1.3679 -1.8037  1.3494
33464SOL    HW2 2400   5.320   0.530   8.761  2.0501  0.2603  0.6542
33465SOL     OW 2401   9.698   5.340   6.653  0.7874  0.0034 -0.0639
33465SOL    HW1 2402   9.651   5.362   6.573  0.2488 -4.6533 -1.3223
33465SOL    HW2 2403   9.790   5.338   6.627  0.8848  0.9605  0.1691
33466SOL     OW 2404   8.290   4.123   9.359 -0.2971  0.1866  0.4669
33466SOL    HW1 2405   8.206   4.117   9.404  0.1322 -0.9248  1.1657
33466SOL    HW2 2406   8.291   4.046   9.301 -1.5282  2.3788 -2.7499
33467SOL     OW 2407   1.271   7.009   5.297 -0.3437 -0.0007  0.7087
33467SOL    HW1 2408   1.212   6.949   5.343  0.4879 -2.0975 -0.7947
33467SOL    HW2 2409   1.359   6.976   5.316  0.0814 -0.0513 -1.1552
33468SOL     OW 2410   7.338   1.146   0.141  0.0810 -0.3002  0.1379
33468SOL    HW1 2411   7.314   1.099   0.221  2.1239  1.1160  1.7046
33468SOL    HW2 2412   7.276   1.220   0.138  0.1619 -0.2070  0.5897
33469SOL     OW 2413   1.416   0.653  10.090 -0.1041  0.3730  0.0284
33469SOL    HW1 2414   1.433   0.667   9.996 -1.9581  0.5414 -0.3184
33469SOL    HW2 2415   1.417   0.741  10.127 -0.4706  0.4073 -0.0417
33470SOL     OW 2416   1.616   1.432   9.901 -0.1658  0.3262  0.1178
33470SOL    HW1 2417   1.629   1.460   9.810 -0.2572 -0.7513 -0.2506
33470SOL    HW2 2418   1.681   1.363   9.914  0.7195  1.3423  1.3061
33471SOL     OW 2419   7.480  10.017   0.014 -0.2510 -0.6783  0.0231
33471SOL    HW1 2420   7.562  10.055   0.045 -0.6215 -1.9589  2.8604
33471SOL    HW2 2421   7.490  10.014  -0.081  1.7893  1.7842  0.0590
33472SOL     OW 2422   1.908   8.429   4.118  0.3337  0.4413  1.1064
33472SOL    HW1 2423   1.962   8.353   4.137 -0.2784  0.0555  1.3523
33472SOL    HW2 2424   1.843   8.397   4.056  1.0120  1.1582 -0.0104
33473SOL     OW 2425   3.704   7.249   0.184  0.1627  0.1101 -0.6991
33473SOL    HW1 2426   3.754   7.253   0.102  0.7324 -2.8889 -0.6095
33473SOL    HW2 2427   3.771   7.249   0.252 -0.2245  0.8676 -0.3174
33474SOL     OW 2428   3.625   3.906   6.315  0.0027 -0.3276  0.1143
33474SOL    HW1 2429   3.690   3.884   6.248  0.1325  0.6298 -0.0925
33474SOL    HW2 2430   3.578   3.981   6.278  0.3811  0.5050  1.2959
33475SOL     OW 2431   8.981   1.672   3.673  0.0599 -0.0784  0.0673
33475SOL    HW1 2432   8.898   1.716   3.657  0.7271  0.7625 -1.2225
33475SOL    HW2 2433   9.020   1.662   3.586  1.4052 -0.2570  0.6695
33476SOL     OW 2434   5.273   0.991   8.675  0.2671 -0.9349 -0.2206
33476SOL    HW1 2435   5.181   0.974   8.696  0.4102 -0.0498  1.2290
33476SOL    HW2 2436   5.319   0.915   8.709  0.2032 -0.7929  0.1833
33477SOL     OW 2437   8.451   0.315   4.113 -0.5862 -0.5803 -0.3373
33477SOL    HW1 2438   8.543   0.292   4.108  0.3309  2.5792 -0.1357
33477SOL    HW2 2439   8.417   0.265   4.188  1.1177 -1.3051 -0.0144
33478SOL     OW 2440   7.989   2.302   1.781  0.0813 -0.2638  0.0139
33478SOL    HW1 2441   7.938   2.360   1.838 -0.7450 -0.3615 -0.6078
33478SOL    HW2 2442   7.935   2.292   1.702 -0.7024 -3.3866  0.8280
33479SOL     OW 2443   7.924   9.917   8.832 -0.1487 -0.2289  0.1299
33479SOL    HW1 2444   7.876   9.931   8.751 -1.6805 -0.6443  0.9127
33479SOL    HW2 2445   7.904   9.827   8.857  1.5356 -0.6215  0.2084
33480SOL     OW 2446   0.341   3.121   4.704 -0.8613  0.0890  0.4038
33480SOL    HW1 2447   0.287   3.196   4.676 -0.7747  0.5958  1.5308
33480SOL    HW2 2448   0.298   3.089   4.783  0.6768  0.7488  1.5635
33481SOL     OW 2449   0.027   6.183   9.369 -0.1240  0.1332  0.0630
33481SOL    HW1 2450   0.019   6.125   9.445 -2.3274 -0.4775 -0.5772
33481SOL    HW2 2451  -0.031   6.256   9.388 -0.7759 -0.0730 -1.0583
33482SOL     OW 2452   9.896   8.036   0.810  0.4932 -0.7338  0.6343
33482SOL    HW1 2453   9.804   8.061   0.813  0.5890 -0.4287  2.3287
33482SOL    HW2 2454   9.942   8.115   0.783  0.1640 -1.3312 -1.8903
33483SOL     OW 2455  10.872  10.134   3.779 -0.7002  0.1248 -0.7540
33483SOL    HW1 2456  10.785  10.166   3.801  0.3945  2.0063  1.2491
33483SOL    HW2 2457  10.912  10.205   3.729  0.3754  0.2606  0.2387
33484SOL     OW 2458   1.225   2.116   0.406 -0.7938  0.0491  0.5280
33484SOL    HW1 2459   1.261   2.086   0.323  0.9711  0.3139  1.1525
33484SOL    HW2 2460   1.191   2.204   0.387 -0.2975  0.1522  0.0941
33485SOL     OW 2461  10.095   2.601  10.785 -0.2270  0.3415  0.3161
33485SOL    HW1 2462  10.082   2.510  10.759  3.3358 -0.0809 -0.5110
33485SOL    HW2 2463  10.108   2.648  10.702  3.1001  0.5169  0.8080
33486SOL     OW 2464  10.101  10.350   2.258 -0.1651  0.4321  0.1594
33486SOL    HW1 2465  10.126  10.418   2.195 -1.7249 -0.1781 -1.2161
33486SOL    HW2 2466  10.091  10.271   2.205  1.4132 -0.8801  1.6872
33487SOL     OW 2467   7.254   3.545   2.119  0.3902 -0.1010 -0.0197
33487SOL    HW1 2468   7.347   3.525   2.116  0.0449 -1.7271 -0.7303
33487SOL    HW2 2469   7.211   3.460   2.131 -0.9632  0.7119  1.2905
33488SOL     OW 2470   3.044   4.181   1.386 -0.0908  0.1757  0.1583
33488SOL    HW1 2471   2.966   4.125   1.393 -0.3213  0.5685  0.8414
33488SOL    HW2 2472   3.010   4.265   1.356  0.3077 -0.1446 -1.2958
33489SOL     OW 2473   1.858   3.833   9.970  0.3804 -0.2224  0.0574
33489SOL    HW1 2474   1.823   3.904  10.024 -0.6122  1.3296 -2.4247
33489SOL    HW2 2475   1.788   3.768   9.968 -0.4473  0.6447 -0.9061
33490SOL     OW 2476   4.219   8.435   3.072 -0.2440 -0.2222 -0.2937
33490SOL    HW1 2477   4.216   8.385   3.153 -1.4569 -1.1231 -0.8713
33490SOL    HW2 2478   4.176   8.379   3.007  0.5560  0.5495 -1.5223
33491SOL     OW 2479   4.685   6.427   0.160 -0.3881  0.0723 -0.0227
33491SOL    HW1 2480   4.643   6.474   0.232 -2.6006  1.3243 -2.0130
33491SOL    HW2 2481   4.659   6.335   0.174 -1.6306  0.4443  0.2725
33492SOL     OW 2482   7.415   7.183   3.599  0.4148  0.1551  0.1692
33492SOL    HW1 2483   7.477   7.111   3.605 -2.5232 -2.7020 -0.4503
33492SOL    HW2 2484   7.330   7.140   3.588 -1.5260  3.7724 -0.6067
33493SOL     OW 2485   0.570   1.907   1.169  0.2971 -0.1567  0.2168
33493SOL    HW1 2486   0.536   1.973   1.229 -0.2555 -0.0032 -0.2566
33493SOL    HW2 2487   0.654   1.881   1.207 -0.0137 -0.0143  1.0113
33494SOL     OW 2488   0.897   4.533   7.976  0.0779 -0.1821  0.3891
33494SOL    HW1 2489   0.984   4.572   7.973  0.1894 -0.5014 -2.3616
33494SOL    HW2 2490   0.889   4.499   8.066  2.3594  0.7202  0.9935
33495SOL     OW 2491   6.589   4.680   3.220 -0.2957 -0.3959 -1.0140
33495SOL    HW1 2492   6.640   4.655   3.297 -0.6670 -0.2151 -0.7067
33495SOL    HW2 2493   6.637   4.641   3.147  2.2846  2.6800 -1.1615
33496SOL     OW 2494   7.743  10.951   2.312  0.2353  0.2886  0.1511
33496SOL    HW1 2495   7.827  10.930   2.271  1.0084 -0.4187  1.9753
33496SOL    HW2 2496   7.766  11.000   2.391 -1.2227  2.0738 -0.4652
33497SOL     OW 2497  10.201   7.592   2.840 -0.1525 -0.0233  0.2501
33497SOL    HW1 2498  10.178   7.684   2.856 -1.2722 -0.2713  0.0959
33497SOL    HW2 2499  10.219   7.557   2.927 -0.1372  0.2271  0.3495
33498SOL     OW 2500   8.744   4.288   5.066 -0.4830 -0.1792  0.1339
33498SOL    HW1 2501   8.804   4.298   4.992  0.7681  0.0857  1.1439
33498SOL    HW2 2502   8.757   4.197   5.094 -0.3450 -0.0447  0.5162
33499SOL     OW 2503   8.406   8.262  10.313 -0.1933 -0.2077 -0.7217
33499SOL    HW1 2504   8.329   8.214  10.284  0.8883 -2.1862 -0.4930
33499SOL    HW2 2505   8.461   8.269  10.235 -0.0748  0.1502 -0.6106
33500SOL     OW 2506   1.806   4.447   7.629 -0.4920 -0.3896  0.4061
33500SOL    HW1 2507   1.856   4.508   7.575 -2.5074 -0.6720 -1.9514
33500SOL    HW2 2508   1.729   4.497   7.657 -0.9079 -1.1006  0.5700
33501SOL     OW 2509  10.225   1.628  11.204 -0.2363 -0.2877 -0.0775
33501SOL    HW1 2510  10.172   1.680  11.143 -0.1173 -0.5907 -0.4412
33501SOL    HW2 2511  10.183   1.642  11.289 -0.1689  0.4526 -0.1533
33502SOL     OW 2512   5.130   0.066   6.356 -0.1556 -0.4265 -0.0432
33502SOL    HW1 2513   5.103  -0.010   6.304  0.8980 -0.2526 -0.8810
33502SOL    HW2 2514   5.048   0.101   6.391 -0.6755 -1.8813  0.2852
33503SOL     OW 2515   2.391   1.476   9.917 -0.3917 -0.3440 -0.4814
33503SOL    HW1 2516   2.373   1.514  10.003 -1.3477 -3.0671  0.6233
33503SOL    HW2 2517   2.307   1.474   9.873 -0.8587 -2.9447  0.3355
33504SOL     OW 2518   0.898   0.327  10.577 -0.2906  0.1050 -0.2839
33504SOL    HW1 2519   0.920   0.234  10.586 -0.3940  0.1200  0.1790
33504SOL    HW2 2520   0.938   0.354  10.495 -0.1846 -0.3295 -0.3762
33505SOL     OW 2521   6.429   5.721   8.196 -0.0145  0.2958  0.5490
33505SOL    HW1 2522   6.503   5.659   8.195  0.5270  0.9169 -1.2899
33505SOL    HW2 2523   6.470   5.807   8.200 -0.4438  0.7713 -2.6967
33506SOL     OW 2524   4.160   4.341   3.066 -0.5629  0.1247 -0.1139
33506SOL    HW1 2525   4.111   4.388   2.999 -0.1272 -2.9294 -2.7995
33506SOL    HW2 2526   4.227   4.292   3.018  0.8507 -1.0129  2.7484
33507SOL     OW 2527   8.660   2.913   9.815 -0.0231  0.2423 -0.1536
33507SOL    HW1 2528   8.751   2.942   9.828  0.5508 -1.4561 -0.1769
33507SOL    HW2 2529   8.644   2.927   9.722  0.6435 -0.5436 -0.4042
33508SOL     OW 2530   5.674   3.490   3.156 -0.0105  0.4727 -0.2868
33508SOL    HW1 2531   5.770   3.483   3.163 -0.0640  0.9197  1.4543
33508SOL    HW2 2532   5.651   3.555   3.222 -1.5431  0.2393 -0.5691
33509SOL     OW 2533   0.460   6.195   8.919 -0.4582 -0.3001 -0.4407
33509SOL    HW1 2534   0.387   6.187   8.981 -0.3676  0.4781 -0.2312
33509SOL    HW2 2535   0.519   6.259   8.959  0.6376 -1.3436 -0.3359
33510SOL     OW 2536   3.681   0.349   0.925 -0.3338 -0.3907 -0.3878
33510SOL    HW1 2537   3.599   0.393   0.948 -0.4918 -0.7873 -0.1908
33510SOL    HW2 2538   3.743   0.376   0.992 -0.0025  0.7666 -1.1302
33511SOL     OW 2539   1.591   4.820   0.430 -1.0068 -0.4686  0.1928
33511SOL    HW1 2540   1.610   4.909   0.459  4.9671 -1.3430  0.2640
33511SOL    HW2 2541   1.564   4.774   0.510  1.2544  0.2081  1.4218
33512SOL     OW 2542   0.343   4.321   7.351  0.0425 -0.2586 -0.1800
33512SOL    HW1 2543   0.426   4.328   7.304 -0.0158  1.8503 -0.0766
33512SOL    HW2 2544   0.367   4.287   7.437  0.7332 -0.0812 -0.2970
33513SOL     OW 2545   7.991   4.216   4.692  0.3214  0.6954  0.0060
33513SOL    HW1 2546   8.029   4.129   4.683  0.0213  0.7454 -3.2622
33513SOL    HW2 2547   8.066   4.276   4.688  0.3545  0.6242 -0.6464
33514SOL     OW 2548  10.902   6.273   3.433 -0.1502  0.0844  0.0434
33514SOL    HW1 2549  10.938   6.290   3.346  1.6740 -2.7213  0.1356
33514SOL    HW2 2550  10.855   6.190   3.424 -0.5079  0.0879  1.5887
33515SOL     OW 2551   0.771   1.337   8.422  0.0272  0.1139 -0.1555
33515SOL    HW1 2552   0.735   1.423   8.445  0.7111  0.4106 -0.1882
33515SOL    HW2 2553   0.709   1.275   8.460 -1.3210  0.6048 -1.4622
33516SOL     OW 2554   3.808   0.406   2.439 -0.4961  0.1893 -0.6300
33516SOL    HW1 2555   3.884   0.372   2.393 -0.2243 -0.0738 -0.0039
33516SOL    HW2 2556   3.777   0.479   2.385  0.3130  0.4212 -0.7882
33517SOL     OW 2557   1.314   6.262   9.126  0.4433 -0.3215  0.0281
33517SOL    HW1 2558   1.340   6.172   9.145  1.4481 -0.6196 -2.3821
33517SOL    HW2 2559   1.388   6.315   9.155 -0.8878  0.0440  3.1842
33518SOL     OW 2560   2.896   7.036   4.455 -0.6611  0.9903 -0.3183
33518SOL    HW1 2561   2.890   7.082   4.539 -1.4800  0.7601 -0.2364
33518SOL    HW2 2562   2.968   6.974   4.466 -1.2717  0.3992  0.5118
33519SOL     OW 2563   7.031   8.365   3.920  0.3508  0.0283 -0.0852
33519SOL    HW1 2564   7.028   8.270   3.913  0.9013 -0.2241  2.1958
33519SOL    HW2 2565   6.939   8.392   3.916  0.2412 -0.4746 -1.6009
33520SOL     OW 2566   9.976   3.233   0.476  0.2768 -0.0060 -0.1215
33520SOL    HW1 2567   9.882   3.251   0.474  0.1359 -0.4776  1.1631
33520SOL    HW2 2568  10.015   3.299   0.419 -0.6171  1.6115  1.0700
33521SOL     OW 2569   6.061   9.716   3.208  0.6556 -0.5239  0.2551
33521SOL    HW1 2570   5.983   9.691   3.257 -1.1499  2.0676 -1.0763
33521SOL    HW2 2571   6.043   9.686   3.119  0.4495  1.4251 -0.3887
33522SOL     OW 2572   1.782   9.017   9.411 -0.3128 -0.0777 -0.1185
33522SOL    HW1 2573   1.713   9.079   9.434  1.3845  0.6827  3.7642
33522SOL    HW2 2574   1.826   9.055   9.335 -2.4476  0.7543 -0.9932
33523SOL     OW 2575   5.323   1.548   7.190 -0.0358  0.1089  0.0759
33523SOL    HW1 2576   5.389   1.578   7.127 -0.8910  1.4437 -0.2148
33523SOL    HW2 2577   5.303   1.458   7.163  2.0758 -0.5707  0.5442
33524SOL     OW 2578   0.285   1.586   9.932 -0.3597  0.6677 -0.3159
33524SOL    HW1 2579   0.326   1.649   9.873  0.1709 -0.1397 -0.8371
33524SOL    HW2 2580   0.252   1.517   9.874 -2.7001  1.3778  0.0555
33525SOL     OW 2581   1.885   7.110   7.278  0.0109 -0.6437  0.3913
33525SOL    HW1 2582   1.976   7.126   7.301 -0.1213  0.5346  0.1369
33525SOL    HW2 2583   1.880   7.015   7.263  1.0966 -0.7690  0.7752
33526SOL     OW 2584   9.358   1.522   1.236 -0.7948  0.0245  0.2285
33526SOL    HW1 2585   9.354   1.609   1.195  0.8412 -0.1163 -0.2778
33526SOL    HW2 2586   9.375   1.540   1.329  1.4206  0.2514 -0.1764
33527SOL     OW 2587  11.063   9.558  11.135  0.1502  0.2657 -0.2501
33527SOL    HW1 2588  11.067   9.625  11.067 -0.3303  1.9110  1.2698
33527SOL    HW2 2589  11.154   9.548  11.163  0.1445  0.7832 -0.0347
33528SOL     OW 2590   9.075   3.974  11.241  0.3851 -0.0627  0.0772
33528SOL    HW1 2591   9.087   3.943  11.151 -0.6036 -1.0490  0.2744
33528SOL    HW2 2592   9.158   4.018  11.261  1.0261 -0.7342 -0.9524
33529SOL     OW 2593   8.144   9.407   8.157  0.6193  0.6941 -0.0171
33529SOL    HW1 2594   8.192   9.328   8.182  0.4324  0.3816 -0.6125
33529SOL    HW2 2595   8.181   9.477   8.211  1.1591  0.3018  0.1272
33530SOL     OW 2596   1.584   1.089   8.740 -0.1495 -0.8569  0.2706
33530SOL    HW1 2597   1.555   1.167   8.694 -0.6377 -2.2232 -1.8827
33530SOL    HW2 2598   1.610   1.120   8.827 -1.1214  1.5270 -0.2275
33531SOL     OW 2599  10.242   9.729  10.680  0.8169  0.0461 -0.1838
33531SOL    HW1 2600  10.336   9.716  10.692  0.8008  0.7035  0.7825
33531SOL    HW2 2601  10.232   9.748  10.587  1.7711  0.9902 -0.1070
33532SOL     OW 2602   7.503   3.499   4.992 -1.0440 -0.4539 -0.5357
33532SOL    HW1 2603   7.526   3.563   4.925 -0.5960 -0.3899 -0.3194
33532SOL    HW2 2604   7.446   3.546   5.052 -1.5700 -0.5502 -0.9422
33533SOL     OW 2605   2.247   7.725   0.118  0.3213  0.5296  0.0663
33533SOL    HW1 2606   2.326   7.682   0.150  0.8518  1.0869 -0.4600
33533SOL    HW2 2607   2.241   7.806   0.168 -2.5503 -1.5246  3.5539
33534SOL     OW 2608   1.836   6.051   5.455  0.4605 -0.6669  0.4029
33534SOL    HW1 2609   1.755   6.000   5.456  0.2576 -0.4022  2.3699
33534SOL    HW2 2610   1.826   6.110   5.380 -1.7949  0.2611  1.3209
33535SOL     OW 2611  11.226   6.100   9.762  0.1237 -0.2702  0.1890
33535SOL    HW1 2612  11.147   6.047   9.754 -1.2975  1.9357 -1.5278
33535SOL    HW2 2613  11.196   6.182   9.802  1.3223  0.9631 -1.3153
33536SOL     OW 2614   1.469  10.339   2.629  0.0549  0.3348  0.3508
33536SOL    HW1 2615   1.496  10.319   2.540  1.7715 -0.7746  1.0674
33536SOL    HW2 2616   1.490  10.260   2.679 -0.6820  1.0030  1.7841
33537SOL     OW 2617   7.678  11.048   8.741 -0.0732 -0.0319  1.2834
33537SOL    HW1 2618   7.715  11.077   8.657 -0.5099  2.3101  1.8358
33537SOL    HW2 2619   7.688  11.123   8.799  1.7601 -2.1026  3.9194
33538SOL     OW 2620  11.259   4.701   2.998  0.9109 -0.2336 -0.2277
33538SOL    HW1 2621  11.318   4.697   3.073  1.4960 -2.0989 -0.7450
33538SOL    HW2 2622  11.251   4.611   2.969 -1.6069  0.0547 -0.6548
33539SOL     OW 2623   0.300   6.926   3.991  0.0799  0.3893 -0.2838
33539SOL    HW1 2624   0.300   6.970   4.076  0.9511 -0.4634  0.1752
33539SOL    HW2 2625   0.302   6.998   3.927  2.0936  1.0727  0.4504
33540SOL     OW 2626  11.042   0.504   4.208  0.2775  0.0001  0.3154
33540SOL    HW1 2627  11.136   0.508   4.187  0.0553  2.3152 -0.5820
33540SOL    HW2 2628  10.998   0.503   4.123 -0.5308 -0.9059  0.7295
33541SOL     OW 2629   3.282  11.276   4.755  0.8039  0.4771  0.4192
33541SOL    HW1 2630   3.288  11.350   4.816  1.2915 -0.2711  1.3191
33541SOL    HW2 2631   3.246  11.205   4.808 -1.1995  0.4844 -0.8491
33542SOL     OW 2632   8.087   2.950   3.056 -0.5222 -0.5118 -0.5318
33542SOL    HW1 2633   8.070   2.928   2.965  0.8918 -1.9478 -0.4741
33542SOL    HW2 2634   8.143   3.028   3.052  1.4330 -1.8864 -0.9869
33543SOL     OW 2635  11.236   0.384   6.695 -0.1165 -0.2030 -0.7587
33543SOL    HW1 2636  11.232   0.293   6.726 -2.4668 -0.0597 -0.4577
33543SOL    HW2 2637  11.329   0.404   6.694  0.3906 -1.0352  4.0036
33544SOL     OW 2638   3.816   8.528   8.292 -0.0598 -0.7645 -0.2981
33544SOL    HW1 2639   3.769   8.554   8.214 -0.5630 -0.3357  0.1406
33544SOL    HW2 2640   3.794   8.595   8.357  0.8531 -0.7588  0.0241
33545SOL     OW 2641   5.761   5.831   4.209  0.4020 -0.6945  0.0282
33545SOL    HW1 2642   5.761   5.926   4.218 -1.5712 -0.4589 -1.8585
33545SOL    HW2 2643   5.852   5.809   4.187  0.8973  0.7116  0.5582
33546SOL     OW 2644   3.242   5.963   3.414 -0.3152  0.2910 -0.0754
33546SOL    HW1 2645   3.228   5.902   3.342 -1.0805 -0.5537  0.7439
33546SOL    HW2 2646   3.244   5.907   3.492 -2.6499  1.3839  0.9012
33547SOL     OW 2647   2.004   5.513   0.491 -0.0188  0.1146 -0.1454
33547SOL    HW1 2648   2.050   5.477   0.567 -0.7607  1.9042  1.2088
33547SOL    HW2 2649   2.066   5.503   0.418  1.5645  0.3303  1.1319
33548SOL     OW 2650   8.692   6.767   0.171  0.8002 -0.1071 -0.0402
33548SOL    HW1 2651   8.609   6.728   0.199  1.6792 -2.2337 -0.1977
33548SOL    HW2 2652   8.744   6.693   0.140  2.2226  1.3605 -1.3440
33549SOL     OW 2653   4.133   7.889   7.333  0.8842  0.1897  0.7399
33549SOL    HW1 2654   4.057   7.849   7.376  0.3125  2.3165  1.8445
33549SOL    HW2 2655   4.202   7.822   7.340 -0.7994 -1.7573 -0.2018
33550SOL     OW 2656   2.449   4.576   8.733  0.1965  0.0990 -0.2512
33550SOL    HW1 2657   2.412   4.554   8.648 -1.6796  0.2045  0.4979
33550SOL    HW2 2658   2.377   4.565   8.795  1.4807  0.1099  1.3299
33551SOL     OW 2659   8.562   4.084   1.851 -0.0681  0.1515 -0.2588
33551SOL    HW1 2660   8.521   4.130   1.778  0.4684 -1.8544 -1.9187
33551SOL    HW2 2661   8.637   4.039   1.812 -0.1549 -1.5267  1.3668
33552SOL     OW 2662   5.226   5.137   0.658 -0.1569 -0.0398 -0.1260
33552SOL    HW1 2663   5.233   5.046   0.628  2.1022  0.2751 -0.7204
33552SOL    HW2 2664   5.167   5.132   0.733  1.6822 -2.4201  1.3224
33553SOL     OW 2665   7.929   2.137   1.294 -0.6555  0.2102 -0.2312
33553SOL    HW1 2666   7.865   2.081   1.338 -1.9718 -0.2342 -2.5567
33553SOL    HW2 2667   7.885   2.165   1.214  0.2990  3.8620  0.3705
33554SOL     OW 2668   6.981   8.618   9.980 -0.2373  0.9012 -0.5083
33554SOL    HW1 2669   6.985   8.600  10.074 -0.1791 -2.1564 -0.9709
33554SOL    HW2 2670   6.888   8.629   9.962 -0.8199 -2.8950 -0.6112
33555SOL     OW 2671   8.067   4.459   5.241  0.3448 -0.8951  0.9301
33555SOL    HW1 2672   8.092   4.377   5.197  0.9674 -1.2287  1.8790
33555SOL    HW2 2673   8.099   4.449   5.331 -0.2148  0.0981  1.2533
33556SOL     OW 2674   0.605  11.214   5.538 -0.3919  0.1154 -0.5260
33556SOL    HW1 2675   0.629  11.181   5.451 -1.4118  1.2493 -1.2772
33556SOL    HW2 2676   0.510  11.206   5.541 -0.4390  0.7830  0.1829
33557SOL     OW 2677   2.640   8.637   8.308  0.0405 -0.7654 -0.6109
33557SOL    HW1 2678   2.678   8.621   8.395  1.0519  0.3008 -0.8393
33557SOL    HW2 2679   2.651   8.554   8.262 -1.0312 -1.5288  0.4512
33558SOL     OW 2680   6.120   1.523   7.315  0.2979  0.1640  0.3212
33558SOL    HW1 2681   6.189   1.587   7.334 -0.7803  1.5147 -0.1187
33558SOL    HW2 2682   6.159   1.464   7.251  1.3659  0.2954  0.8277
33559SOL     OW 2683   3.723   8.045   6.960  0.2476  0.0200 -0.1062
33559SOL    HW1 2684   3.786   7.989   7.006  0.2604  1.2382  1.4369
33559SOL    HW2 2685   3.753   8.044   6.869  2.9888  1.0942  0.6635
33560SOL     OW 2686   2.439   1.943   7.903 -0.7370  0.1592  0.0428
33560SOL    HW1 2687   2.427   1.852   7.877 -1.0714 -0.2384  1.4781
33560SOL    HW2 2688   2.357   1.987   7.879 -0.9194 -0.1244  0.1430
33561SOL     OW 2689   0.274   7.864   2.888  0.3614 -0.5224 -0.5252
33561SOL    HW1 2690   0.294   7.891   2.799 -2.9095  1.4980 -0.7708
33561SOL    HW2 2691   0.180   7.850   2.889 -0.0146  1.1853  2.9662
33562SOL     OW 2692   3.275   0.980   5.665  0.4440  0.7774  0.0761
33562SOL    HW1 2693   3.212   0.910   5.647 -0.6510  1.1032  2.3444
33562SOL    HW2 2694   3.345   0.938   5.714  0.9942  0.8347 -0.6364
33563SOL     OW 2695   3.759  10.826   6.022  0.5620  0.4444  0.3338
33563SOL    HW1 2696   3.773  10.858   6.111  0.3598  2.4374 -0.3072
33563SOL    HW2 2697   3.823  10.756   6.011  1.8421  1.3974  1.4427
33564SOL     OW 2698   3.639   3.922   0.354 -0.0192  0.2807  0.5785
33564SOL    HW1 2699   3.552   3.961   0.359 -0.3361 -0.4500  0.9932
33564SOL    HW2 2700   3.652   3.883   0.441  1.9325  2.8439  1.5625
33565SOL     OW 2701   7.102   3.321   2.958 -0.0222  0.5963 -0.6295
33565SOL    HW1 2702   7.012   3.329   2.990  0.8049 -0.9708  2.5684
33565SOL    HW2 2703   7.154   3.364   3.026  1.7751 -0.6191 -1.1778
33566SOL     OW 2704   9.721   7.472   9.551  0.2710  0.4392  0.0613
33566SOL    HW1 2705   9.693   7.544   9.494  0.5499  0.9936  0.6070
33566SOL    HW2 2706   9.663   7.400   9.530 -0.5107  1.0656  0.0423
33567SOL     OW 2707  11.267   8.005   2.338 -0.1741 -0.0878  0.3545
33567SOL    HW1 2708  11.250   8.089   2.380 -0.9924  0.5380 -1.1881
33567SOL    HW2 2709  11.362   7.995   2.343 -0.0738  0.9077  0.5806
33568SOL     OW 2710   4.154   6.153   3.389  0.2452 -0.6955  0.6380
33568SOL    HW1 2711   4.143   6.060   3.370 -0.9565 -1.1206  3.0167
33568SOL    HW2 2712   4.067   6.182   3.416 -0.0461  1.8086 -2.3746
33569SOL     OW 2713   6.582   0.800   9.999 -0.0687  1.0139 -0.0402
33569SOL    HW1 2714   6.624   0.857   9.935  0.4377  1.3000  0.5315
33569SOL    HW2 2715   6.496   0.838  10.012 -0.2126  0.8946 -0.6233
33570SOL     OW 2716   7.803  10.259   0.396 -0.3868 -0.1980  0.7340
33570SOL    HW1 2717   7.758  10.305   0.467 -3.4648  0.1237 -1.2042
33570SOL    HW2 2718   7.885  10.307   0.384 -1.5711  2.1663  1.5181
33571SOL     OW 2719   1.260   3.793   0.438  0.1859  0.2852  0.4146
33571SOL    HW1 2720   1.169   3.806   0.465 -0.4447  0.0790 -1.4459
33571SOL    HW2 2721   1.298   3.880   0.437 -0.1852  0.4505  0.5868
33572SOL     OW 2722   3.162   7.402   6.565 -0.2923  0.2488 -0.1787
33572SOL    HW1 2723   3.158   7.470   6.497  0.3739 -0.4451 -0.9496
33572SOL    HW2 2724   3.250   7.411   6.602 -1.3515  2.0050  2.1308
33573SOL     OW 2725   7.181   0.213   0.234 -0.0422  0.2825  0.3039
33573SOL    HW1 2726   7.111   0.239   0.295  0.1420 -0.1040  0.6859
33573SOL    HW2 2727   7.197   0.121   0.255 -0.0035  0.1383 -0.3649
33574SOL     OW 2728   1.755   4.476   3.978 -0.1908  0.6285 -0.0467
33574SOL    HW1 2729   1.739   4.446   3.888  0.0532  0.9488 -0.1980
33574SOL    HW2 2730   1.674   4.455   4.025 -0.1615  0.0665 -0.2370
33575SOL     OW 2731  10.086   7.370   9.394 -0.2344 -0.6307 -0.1577
33575SOL    HW1 2732  10.107   7.282   9.363 -0.5466 -1.1136  0.9452
33575SOL    HW2 2733  10.027   7.356   9.468 -1.7758  0.5788 -1.0917
33576SOL     OW 2734   6.424   7.344   3.652 -0.1539 -0.1164 -0.0004
33576SOL    HW1 2735   6.357   7.395   3.698  0.6050  2.6666 -1.7021
33576SOL    HW2 2736   6.381   7.317   3.570  0.5895  1.3138 -0.9038
33577SOL     OW 2737   7.935   5.540   5.739 -0.1316 -0.7868  0.7600
33577SOL    HW1 2738   7.909   5.593   5.814  0.8672 -0.8371  1.1599
33577SOL    HW2 2739   7.866   5.474   5.732  0.8442 -2.2233  3.1092
33578SOL     OW 2740   1.685  10.488   0.369 -0.1401  0.4331 -0.2998
33578SOL    HW1 2741   1.764  10.535   0.343  0.6841  0.4608  1.9860
33578SOL    HW2 2742   1.686  10.492   0.465 -2.1955 -0.7644 -0.1775
33579SOL     OW 2743   2.955   8.634  10.843 -0.5023 -0.8270 -0.1386
33579SOL    HW1 2744   2.980   8.698  10.777  0.2149 -0.7113  0.2325
33579SOL    HW2 2745   2.998   8.553  10.816 -0.7899 -0.9622 -0.1967
33580SOL     OW 2746   5.492  10.287   0.908  0.0531 -0.2249 -0.0531
33580SOL    HW1 2747   5.516  10.216   0.968 -1.1873  0.3919  1.2322
33580SOL    HW2 2748   5.412  10.324   0.945  0.3449  1.4783 -1.0138
33581SOL     OW 2749   8.353   2.565   2.475  0.6674 -0.2826  0.2921
33581SOL    HW1 2750   8.338   2.650   2.516 -0.7772 -1.1009  1.5856
33581SOL    HW2 2751   8.268   2.520   2.481  1.0440 -1.3267 -1.5615
33582SOL     OW 2752   6.927   6.349   3.849 -0.2799  0.0990 -0.5990
33582SOL    HW1 2753   6.863   6.362   3.919 -0.4444 -2.7208 -0.0830
33582SOL    HW2 2754   6.875   6.338   3.770 -0.2007  1.2279 -0.8258
33583SOL     OW 2755   2.830   7.030   9.414  0.4847  0.2963 -0.2385
33583SOL    HW1 2756   2.887   7.063   9.483  0.7253 -3.0236  1.2991
33583SOL    HW2 2757   2.742   7.036   9.451  0.3081  0.9277 -0.7298
33584SOL     OW 2758   0.213   5.939  10.557  0.0871 -0.2401 -0.0764
33584SOL    HW1 2759   0.191   5.852  10.590 -0.0484 -0.4152 -0.6053
33584SOL    HW2 2760   0.280   5.922  10.490 -0.1563  0.0345 -0.3906
33585SOL     OW 2761   5.400  10.635   1.636 -0.3607 -0.4366  0.0079
33585SOL    HW1 2762   5.446  10.551   1.628 -1.2497 -0.9799  0.4705
33585SOL    HW2 2763   5.364  10.651   1.549  1.8999  0.7408 -0.7972
33586SOL     OW 2764   9.545   5.291  10.658 -0.1028  0.1172  0.1667
33586SOL    HW1 2765   9.635   5.306  10.628  0.8137 -1.4043  1.9293
33586SOL    HW2 2766   9.539   5.196  10.668 -1.3835  0.3108  1.5961
33587SOL     OW 2767   7.063   9.189   9.942 -0.2590 -0.4544  0.2865
33587SOL    HW1 2768   7.009   9.115   9.970  1.7759 -3.4702 -2.7949
33587SOL    HW2 2769   7.003   9.247   9.896 -1.7212 -0.7862  1.7004
33588SOL     OW 2770   5.605   8.288   7.625  0.6764 -0.6828 -0.0432
33588SOL    HW1 2771   5.646   8.285   7.712  1.5377 -1.8926 -0.4585
33588SOL    HW2 2772   5.626   8.374   7.591  0.1882 -0.1281  1.0063
33589SOL     OW 2773  10.714   2.607   1.308  0.3686 -0.1007  0.2061
33589SOL    HW1 2774  10.781   2.543   1.328  1.4230  1.0798  0.5821
33589SOL    HW2 2775  10.727   2.676   1.373 -0.8036  0.4465 -0.1137
33590SOL     OW 2776   7.879   5.721   3.379  0.2683  0.8023  0.0462
33590SOL    HW1 2777   7.866   5.687   3.468 -1.0057  2.0921  0.3747
33590SOL    HW2 2778   7.818   5.794   3.371  1.3723  1.6302 -1.4042
33591SOL     OW 2779   7.930   4.317  10.565  0.4216  0.3256  0.8909
33591SOL    HW1 2780   7.913   4.223  10.570 -1.5489  0.5144 -0.9851
33591SOL    HW2 2781   7.877   4.355  10.634  0.3039  0.1607  0.8898
33592SOL     OW 2782   2.591   4.940   0.960  0.3959  0.3303  0.4790
33592SOL    HW1 2783   2.639   4.877   1.014 -0.7573 -2.0534 -1.0920
33592SOL    HW2 2784   2.644   4.949   0.881 -0.3708 -0.2627 -0.1305
33593SOL     OW 2785   9.391   1.743   1.100 -1.0751  0.0680  0.0863
33593SOL    HW1 2786   9.459   1.776   1.159 -1.1230  0.0469  0.1542
33593SOL    HW2 2787   9.440   1.705   1.026 -1.0172  0.2085  0.0522
33594SOL     OW 2788   4.528   1.341   1.413 -0.1812 -0.2124  0.0055
33594SOL    HW1 2789   4.475   1.269   1.380  2.6864 -2.1520 -0.7850
33594SOL    HW2 2790   4.558   1.386   1.334 -1.3986  1.5271  0.4710
33595SOL     OW 2791   3.793   8.102   9.411  0.5235  0.4693 -0.2360
33595SOL    HW1 2792   3.869   8.046   9.428  0.6335 -0.0437 -2.1722
33595SOL    HW2 2793   3.778   8.094   9.317 -2.6023 -0.2678  0.2309
33596SOL     OW 2794  11.174   2.626   0.387 -0.1280 -0.0062 -0.2422
33596SOL    HW1 2795  11.129   2.645   0.305 -0.9808 -0.6495  0.0499
33596SOL    HW2 2796  11.262   2.599   0.361 -0.8047 -1.5751 -1.0731
33597SOL     OW 2797   4.490   5.470   4.357  0.0239  0.1936 -0.6427
33597SOL    HW1 2798   4.400   5.439   4.353 -0.4027  1.1838  0.7869
33597SOL    HW2 2799   4.484   5.562   4.382  1.4810 -0.3513  2.0583
33598SOL     OW 2800   3.523   5.957   3.462 -0.5763  0.0697  0.1594
33598SOL    HW1 2801   3.429   5.973   3.471 -0.4626  0.0612  1.6320
33598SOL    HW2 2802   3.541   5.970   3.369 -2.0787 -0.2017 -0.1969
33599SOL     OW 2803   2.753   5.525   4.509  0.4789  0.0243 -0.4611
33599SOL    HW1 2804   2.773   5.554   4.598  1.4722 -0.4510 -0.5170
33599SOL    HW2 2805   2.792   5.593   4.453  0.0640  0.1986 -0.5412
33600SOL     OW 2806   9.575   7.945   0.521 -0.1115  0.8392 -0.4787
33600SOL    HW1 2807   9.590   7.984   0.434  0.6286 -0.1163 -0.7972
33600SOL    HW2 2808   9.645   7.881   0.530 -1.2849 -0.3945  0.0460
33601SOL     OW 2809   3.442   5.384   1.854 -0.2628 -0.1817  0.0159
33601SOL    HW1 2810   3.467   5.444   1.784  2.1393 -0.7142  0.3407
33601SOL    HW2 2811   3.437   5.439   1.933  0.0966 -0.1025 -0.0170
33602SOL     OW 2812   0.195   3.240   2.197  0.2091 -0.4019 -0.1512
33602SOL    HW1 2813   0.251   3.242   2.274  1.0329  1.3243 -0.7574
33602SOL    HW2 2814   0.252   3.210   2.126  0.2864  0.9559 -0.6880
33603SOL     OW 2815   6.862   9.544   1.884 -0.2514 -0.4661 -0.3336
33603SOL    HW1 2816   6.952   9.577   1.893  1.2108 -3.9166 -0.4461
33603SOL    HW2 2817   6.854   9.522   1.791 -0.5538 -1.7471 -0.0224
33604SOL     OW 2818   3.612   0.745   7.078  0.5764 -0.3241  0.8936
33604SOL    HW1 2819   3.563   0.685   7.134 -0.9130 -0.2095 -0.2398
33604SOL    HW2 2820   3.688   0.694   7.049  0.6611 -0.8109  1.9309
33605SOL     OW 2821   6.381   9.543   1.509  0.1381 -0.2578 -0.6745
33605SOL    HW1 2822   6.368   9.448   1.506 -1.6422 -0.0402 -3.2518
33605SOL    HW2 2823   6.458   9.558   1.454 -0.8007 -0.1498 -2.0412
33606SOL     OW 2824   0.422   8.773  10.408 -0.7698 -0.2108 -0.1112
33606SOL    HW1 2825   0.474   8.790  10.486 -0.2619  0.5949 -0.6032
33606SOL    HW2 2826   0.430   8.679  10.393 -0.5738 -0.3101  0.5972
33607SOL     OW 2827   3.881   4.058   1.385  0.2477 -0.1094  0.0651
33607SOL    HW1 2828   3.836   4.091   1.307  0.8714 -0.2934 -0.3778
33607SOL    HW2 2829   3.973   4.057   1.361  0.6518  1.4370  1.4038
33608SOL     OW 2830   3.073   0.598   8.105 -0.0985 -0.7943  0.0461
33608SOL    HW1 2831   3.052   0.691   8.106 -2.0253 -1.1367 -1.6722
33608SOL    HW2 2832   3.039   0.564   8.187 -0.3281 -0.1585  0.2144
33609SOL     OW 2833   7.648   9.118   5.234 -0.3808 -0.0280 -0.1990
33609SOL    HW1 2834   7.566   9.165   5.221 -0.2824 -0.0159 -0.8215
33609SOL    HW2 2835   7.642   9.043   5.174  0.5853  0.6568 -1.1916
33610SOL     OW 2836   8.769  10.585   2.560 -0.5644  0.3615 -0.2061
33610SOL    HW1 2837   8.819  10.504   2.557 -0.7477  0.1886  0.9853
33610SOL    HW2 2838   8.714  10.577   2.638 -0.2888  1.7853  0.1695
33611SOL     OW 2839   4.129   7.731   3.182 -0.7525  0.3095 -0.0415
33611SOL    HW1 2840   4.037   7.745   3.204 -0.1633  4.2470  0.6896
33611SOL    HW2 2841   4.173   7.725   3.267 -0.0222  1.8999 -0.2665
33612SOL     OW 2842   4.079  10.458   3.606 -0.1395 -0.2812 -0.1790
33612SOL    HW1 2843   4.043  10.452   3.518 -0.7120 -0.1652  0.0412
33612SOL    HW2 2844   4.133  10.537   3.605 -2.6074  1.5157  0.4169
33613SOL     OW 2845   6.092   5.286   7.677  0.2007 -0.4062 -0.1766
33613SOL    HW1 2846   6.153   5.351   7.712 -1.4159  0.3204  1.4582
33613SOL    HW2 2847   6.031   5.338   7.623 -2.4707  0.0109  2.9032
33614SOL     OW 2848   0.352   9.682   0.773  0.6351 -0.0368 -0.2099
33614SOL    HW1 2849   0.367   9.683   0.679  0.8068 -0.3334 -0.1886
33614SOL    HW2 2850   0.439   9.693   0.812  0.5622  0.1104 -0.0859
33615SOL     OW 2851   3.970   3.788   8.797 -0.3755  0.6488  0.6110
33615SOL    HW1 2852   3.965   3.695   8.820 -0.3858  0.7274  0.9345
33615SOL    HW2 2853   4.031   3.791   8.723 -0.1823  0.4148  0.7596
33616SOL     OW 2854   3.773   0.172   8.268 -0.2743 -0.5216 -0.3837
33616SOL    HW1 2855   3.769   0.208   8.357 -0.2436  1.0082 -0.9738
33616SOL    HW2 2856   3.794   0.080   8.281  0.4074 -0.1856  1.1773
33617SOL     OW 2857   6.913   0.305   3.333  0.5630  0.4014  0.0360
33617SOL    HW1 2858   6.931   0.392   3.297  1.6595  0.9366  1.7647
33617SOL    HW2 2859   6.992   0.255   3.314 -0.2042 -0.3651 -1.2670
33618SOL     OW 2860   9.819   6.167   3.335 -0.7242  0.5006 -0.1489
33618SOL    HW1 2861   9.895   6.171   3.392  0.8483 -0.0618 -2.1108
33618SOL    HW2 2862   9.768   6.092   3.368  1.0268 -0.9004 -0.4635
33619SOL     OW 2863   2.943  10.614   1.719 -0.5134 -0.8993 -0.4503
33619SOL    HW1 2864   3.001  10.537   1.725  1.5146  0.5282 -0.8422
33619SOL    HW2 2865   2.937  10.646   1.809  0.3633 -0.3482 -0.5708
33620SOL     OW 2866   0.032   6.549  10.703 -0.5828  0.3136 -0.7443
33620SOL    HW1 2867   0.060   6.490  10.773  2.4461 -1.2370 -3.0067
33620SOL    HW2 2868  -0.035   6.500  10.655 -0.5123  0.1323 -0.6583
33621SOL     OW 2869   6.990   9.943  11.140 -1.1645 -0.2680 -0.4428
33621SOL    HW1 2870   7.000   9.914  11.230 -0.5115 -1.5700 -0.9173
33621SOL    HW2 2871   6.926  10.015  11.145  1.1326  1.8381  1.4461
33622SOL     OW 2872   1.919   7.704   7.357  0.0866 -0.1059 -0.7286
33622SOL    HW1 2873   1.900   7.798   7.359  0.0859 -0.0464 -2.0925
33622SOL    HW2 2874   1.837   7.663   7.328  0.1107 -0.5158 -0.2226
33623SOL     OW 2875   1.727   2.177   8.303 -0.5052 -0.5799 -0.4696
33623SOL    HW1 2876   1.717   2.265   8.266  3.7646  0.4345  0.2573
33623SOL    HW2 2877   1.718   2.190   8.398 -0.3915 -1.0237 -0.3961
33624SOL     OW 2878   4.645   7.912   8.928  0.0809  0.0129 -0.4113
33624SOL    HW1 2879   4.572   7.973   8.920 -0.1567 -0.0404  1.0249
33624SOL    HW2 2880   4.715   7.964   8.967  0.5568 -0.1262 -1.0810
33625SOL     OW 2881   2.694   5.436   9.085 -0.3488  0.0813  0.3630
33625SOL    HW1 2882   2.769   5.381   9.106  0.9859  1.7714  0.3029
33625SOL    HW2 2883   2.619   5.388   9.118  0.8097 -1.4326  0.9219
33626SOL     OW 2884   8.118   7.501   3.264  0.3498  0.2706  0.3285
33626SOL    HW1 2885   8.139   7.516   3.356 -0.3008 -1.4362  0.7900
33626SOL    HW2 2886   8.031   7.541   3.252  0.8500  1.3606  0.1644
33627SOL     OW 2887   7.226   6.842   1.022 -0.5199 -0.6260 -0.4184
33627SOL    HW1 2888   7.149   6.854   1.076 -0.1097 -1.0711  0.2841
33627SOL    HW2 2889   7.193   6.842   0.932 -0.9200  2.7386 -0.4009
33628SOL     OW 2890   3.241   4.335   0.189  0.1530 -0.5714  0.5780
33628SOL    HW1 2891   3.183   4.284   0.133 -1.2338 -1.3884  2.6301
33628SOL    HW2 2892   3.307   4.273   0.219 -0.3424 -0.6737  1.4766
33629SOL     OW 2893   4.307   3.949   2.150 -0.1459 -0.2346  0.1337
33629SOL    HW1 2894   4.240   3.883   2.134 -0.4665  0.2964 -0.7493
33629SOL    HW2 2895   4.390   3.901   2.146 -0.4281 -0.7768  0.6218
33630SOL     OW 2896   1.227   9.103  11.126  0.3343 -0.4697 -0.6697
33630SOL    HW1 2897   1.211   9.104  11.032  0.2832 -2.0099 -0.6966
33630SOL    HW2 2898   1.322   9.094  11.135  0.2420 -1.4607 -0.5978
33631SOL     OW 2899   4.318   2.219   5.499 -0.8695  0.5028 -0.2127
33631SOL    HW1 2900   4.263   2.182   5.429 -0.0608  0.7436 -1.0019
33631SOL    HW2 2901   4.405   2.183   5.483  0.0499  2.9286 -1.2322
33632SOL     OW 2902   6.818   7.669   2.657  0.0889  0.0537  0.0683
33632SOL    HW1 2903   6.783   7.724   2.587  1.4244  0.5779 -0.2328
33632SOL    HW2 2904   6.794   7.714   2.738  0.7012  0.8083 -0.1605
33633SOL     OW 2905   9.604   4.866   6.648  0.0190  0.3555  0.1687
33633SOL    HW1 2906   9.535   4.896   6.589  0.3993 -1.7583 -1.4640
33633SOL    HW2 2907   9.566   4.789   6.691  1.0954 -0.4294 -0.2481
33634SOL     OW 2908   6.387   2.517  10.667 -0.3024 -0.0658 -0.9511
33634SOL    HW1 2909   6.469   2.564  10.685 -0.2923 -0.3886 -0.1036
33634SOL    HW2 2910   6.385   2.447  10.732 -1.8367  0.6752 -0.1447
33635SOL     OW 2911   4.422   9.760   6.828 -0.1548  0.8886 -0.2569
33635SOL    HW1 2912   4.373   9.704   6.767 -1.3078  1.2224  0.3198
33635SOL    HW2 2913   4.371   9.756   6.910  2.9099 -1.9577  1.7275
33636SOL     OW 2914   6.191   2.500   0.074  0.0727  0.3892 -0.8197
33636SOL    HW1 2915   6.151   2.582   0.104  2.0787  1.5107 -0.9920
33636SOL    HW2 2916   6.266   2.487   0.132  0.0941 -1.0550 -1.1328
33637SOL     OW 2917   9.801   0.153   8.086 -0.4815  0.3522  0.5987
33637SOL    HW1 2918   9.848   0.076   8.054 -0.4784  0.7295 -0.3475
33637SOL    HW2 2919   9.853   0.185   8.159  0.6508  0.6547 -0.3042
33638SOL     OW 2920   0.457   6.550   2.729 -0.5547  0.0680  0.3811
33638SOL    HW1 2921   0.504   6.619   2.682  0.9415 -0.7168  0.6724
33638SOL    HW2 2922   0.455   6.580   2.820 -4.1489  1.9744 -0.1329
33639SOL     OW 2923  10.748   6.452   6.985 -0.3335  0.0330  0.1025
33639SOL    HW1 2924  10.842   6.445   6.968 -0.2621  1.3824 -0.2099
33639SOL    HW2 2925  10.727   6.543   6.964 -1.7645 -0.3119 -0.0536
33640SOL     OW 2926   0.810   4.962   6.454  0.4318 -0.5597  0.1472
33640SOL    HW1 2927   0.888   4.927   6.412  0.3838  1.2663 -1.6208
33640SOL    HW2 2928   0.843   5.020   6.523  1.3241  5.1859 -4.2966
33641SOL     OW 2929   9.045   0.824   4.145 -0.1405  0.2226 -0.3754
33641SOL    HW1 2930   8.995   0.799   4.067 -1.2984 -1.0235  0.7291
33641SOL    HW2 2931   9.110   0.754   4.156 -0.3927  0.0675  0.1397
33642SOL     OW 2932  10.498   3.995   7.534 -0.1703 -0.0451  0.5828
33642SOL    HW1 2933  10.560   4.068   7.542  1.1804 -1.0662 -0.0911
33642SOL    HW2 2934  10.459   3.987   7.621  0.6271  0.6464  1.0207
33643SOL     OW 2935   4.694   9.425   6.286 -0.0468  0.5068  0.2657
33643SOL    HW1 2936   4.658   9.463   6.366 -0.7508  3.2201 -1.2268
33643SOL    HW2 2937   4.779   9.467   6.275  0.5841 -0.7535  0.1940
33644SOL     OW 2938   4.820   4.944   0.653  0.3396  0.3024  0.3380
33644SOL    HW1 2939   4.780   4.985   0.576 -1.5206  0.1771  1.1762
33644SOL    HW2 2940   4.762   4.872   0.675  1.1277  0.0021  1.5535
33645SOL     OW 2941   7.409   5.601   8.572  0.2813  0.2866  0.0130
33645SOL    HW1 2942   7.375   5.686   8.542  0.7617  0.0937 -1.1047
33645SOL    HW2 2943   7.500   5.600   8.544 -0.0493 -1.1153 -1.1287
33646SOL     OW 2944   2.144   1.432   2.270 -0.0458 -0.4124 -0.7244
33646SOL    HW1 2945   2.156   1.464   2.359 -1.3116  2.0850 -1.3705
33646SOL    HW2 2946   2.146   1.336   2.278  0.7160 -0.2504  1.8118
33647SOL     OW 2947   8.064   8.207   7.241 -1.2987 -0.5714 -0.2937
33647SOL    HW1 2948   8.033   8.167   7.159 -0.6624 -0.0328 -0.8077
33647SOL    HW2 2949   8.096   8.293   7.215 -1.9962  0.0061  0.6876
33648SOL     OW 2950   0.598  10.596   4.964 -0.1184 -0.5083 -0.0986
33648SOL    HW1 2951   0.674  10.650   4.988 -0.3342 -0.0227 -0.4877
33648SOL    HW2 2952   0.531  10.622   5.027  0.0928 -1.0836  0.3733
33649SOL     OW 2953   2.905   9.619   1.648 -0.2386 -0.0408  0.0654
33649SOL    HW1 2954   2.811   9.624   1.667 -0.0131 -1.0653  1.6145
33649SOL    HW2 2955   2.914   9.540   1.594 -0.2499 -0.0493  0.0765
33650SOL     OW 2956   0.786   0.056   5.687  0.3622  0.3819  0.8350
33650SOL    HW1 2957   0.708   0.033   5.638 -0.3298  1.9897  1.1106
33650SOL    HW2 2958   0.798  -0.016   5.749  0.1729 -0.7546 -0.4052
33651SOL     OW 2959   8.277   2.706   2.912 -0.2507  0.3975  0.8208
33651SOL    HW1 2960   8.303   2.678   2.999  1.8918 -0.0510  0.0907
33651SOL    HW2 2961   8.181   2.700   2.913 -0.1638 -3.5709  1.8801
33652SOL     OW 2962  10.964   4.782   1.222  0.6828 -0.0476  0.2749
33652SOL    HW1 2963  11.014   4.702   1.241  1.9779  0.2936 -1.4582
33652SOL    HW2 2964  10.888   4.752   1.173  0.8154 -0.2848  0.2104
33653SOL     OW 2965   0.412   6.462   0.736 -0.7013 -0.5644 -0.4309
33653SOL    HW1 2966   0.386   6.528   0.800 -0.0121 -2.3699  1.8622
33653SOL    HW2 2967   0.400   6.378   0.781  2.8929 -1.8138 -1.4414
33654SOL     OW 2968   1.196   8.758   1.957 -0.5056 -0.0494  0.4016
33654SOL    HW1 2969   1.192   8.766   1.862 -1.3184  0.1836  0.4481
33654SOL    HW2 2970   1.192   8.848   1.989  3.6240  0.2661  0.5993
33655SOL     OW 2971   9.262   0.299  10.077  1.2083 -0.3636  0.0837
33655SOL    HW1 2972   9.353   0.312  10.051  1.0157 -0.9204 -0.9382
33655SOL    HW2 2973   9.212   0.310   9.996  0.2483  0.9837  0.8124
33656SOL     OW 2974   7.112   7.312   1.663  0.2448  0.1601 -0.3442
33656SOL    HW1 2975   7.087   7.318   1.571  4.1264  0.1335 -1.5704
33656SOL    HW2 2976   7.127   7.402   1.691  0.1542  0.0928 -0.0667
33657SOL     OW 2977   4.145   2.738   7.322 -0.2330  0.4949 -0.0166
33657SOL    HW1 2978   4.050   2.749   7.314 -0.2712 -0.4407 -1.2028
33657SOL    HW2 2979   4.173   2.809   7.379 -1.8024  0.0888  1.3474
33658SOL     OW 2980   1.660   2.309   7.884  0.1289  0.1674 -0.2992
33658SOL    HW1 2981   1.714   2.286   7.808 -1.4269 -1.2259 -1.0646
33658SOL    HW2 2982   1.676   2.239   7.947 -0.7857 -0.2978 -0.5600
33659SOL     OW 2983   3.180   6.832   5.740 -0.2721 -0.3100 -0.2347
33659SOL    HW1 2984   3.109   6.807   5.681 -0.2799  0.6041 -0.6220
33659SOL    HW2 2985   3.136   6.873   5.814 -0.2301 -1.0100  0.1844
33660SOL     OW 2986   5.236   5.633   7.833  0.5622  0.2468  0.2955
33660SOL    HW1 2987   5.325   5.617   7.801  0.7961  2.3906 -0.2226
33660SOL    HW2 2988   5.199   5.696   7.771 -0.5445  1.0636  1.7400
33661SOL     OW 2989   1.617   4.598  10.154  0.2278  0.0186  0.4809
33661SOL    HW1 2990   1.622   4.524  10.094  1.5379 -1.8391  2.7297
33661SOL    HW2 2991   1.606   4.559  10.241  0.1443  2.4920  1.6877
33662SOL     OW 2992   6.080   0.586   5.461  0.0862  0.5767 -0.3538
33662SOL    HW1 2993   6.117   0.511   5.508 -0.2815  0.4202 -0.3100
33662SOL    HW2 2994   6.020   0.547   5.397  0.9329  0.7618 -1.2825
33663SOL     OW 2995   0.481   7.190   4.589  0.2186  0.8916 -0.5775
33663SOL    HW1 2996   0.513   7.271   4.628 -1.0047  1.0069  0.2546
33663SOL    HW2 2997   0.387   7.205   4.577  0.5478  0.9912 -3.9619
33664SOL     OW 2998   2.920   2.278   3.143  0.7288  0.7518 -0.3054
33664SOL    HW1 2999   2.960   2.203   3.099  1.4617  1.6437 -1.2015
33664SOL    HW2 3000   2.986   2.347   3.138  0.6505  1.0375  1.8158
33665SOL     OW 3001   0.259   6.849   6.208  0.6211 -0.1273  0.0410
33665SOL    HW1 3002   0.250   6.931   6.160  0.3814  0.1833  0.6065
33665SOL    HW2 3003   0.340   6.810   6.175  0.5152  0.1317 -0.5323
33666SOL     OW 3004   0.834  10.419   1.436  0.6532  0.3040  0.5524
33666SOL    HW1 3005   0.812  10.512   1.443 -1.1490 -0.0088 -0.3142
33666SOL    HW2 3006   0.814  10.397   1.346  2.4533 -0.6280  0.3435
33667SOL     OW 3007  10.249  10.891   5.214 -0.0940 -1.1688 -0.2325
33667SOL    HW1 3008  10.230  10.803   5.183 -1.1270 -0.6364 -1.1858
33667SOL    HW2 3009  10.209  10.949   5.148  1.0970  0.0112  0.0473
33668SOL     OW 3010   7.636  11.259   2.867  0.2249 -0.3619 -0.1322
33668SOL    HW1 3011   7.709  11.318   2.883 -0.1919 -0.0963  0.9104
33668SOL    HW2 3012   7.610  11.231   2.955 -0.2760 -1.2447 -0.5543
33669SOL     OW 3013   8.968   8.343   7.764 -0.7145 -0.7348  0.0691
33669SOL    HW1 3014   9.024   8.415   7.792  0.4905 -1.2943 -0.8237
33669SOL    HW2 3015   8.998   8.268   7.815  0.6302 -1.4605 -1.6970
33670SOL     OW 3016   2.694   0.216   7.473  0.1246  0.2962  0.6117
33670SOL    HW1 3017   2.665   0.206   7.563 -1.0678  1.0527  0.3476
33670SOL    HW2 3018   2.625   0.175   7.421  1.2189 -0.9094  0.0542
33671SOL     OW 3019   8.641   8.055   2.552 -0.2636  0.0901 -0.1156
33671SOL    HW1 3020   8.660   8.148   2.535  2.9027  0.2162  2.8645
33671SOL    HW2 3021   8.586   8.057   2.631 -0.9048 -0.6032 -0.5353
33672SOL     OW 3022   1.400   6.186   4.668 -0.1418  0.0676  0.7138
33672SOL    HW1 3023   1.481   6.226   4.700 -0.1760 -0.1786  1.1110
33672SOL    HW2 3024   1.348   6.172   4.747 -0.2168 -0.5702  0.5513
33673SOL     OW 3025   6.903   6.204   0.433  0.0978 -0.0843  0.0691
33673SOL    HW1 3026   6.895   6.115   0.467  1.5289 -0.3301 -0.1765
33673SOL    HW2 3027   6.928   6.257   0.508  0.1946 -0.0622  0.0212
33674SOL     OW 3028  11.232   1.100   4.160 -0.3265  0.2999 -0.0224
33674SOL    HW1 3029  11.242   1.024   4.219 -1.4551  0.9488  1.0609
33674SOL    HW2 3030  11.312   1.100   4.108  0.1050 -1.1117  0.5730
33675SOL     OW 3031  11.013   3.043   9.532 -0.2297  0.8217 -0.4001
33675SOL    HW1 3032  10.966   2.992   9.598 -0.4374 -0.6844 -1.6523
33675SOL    HW2 3033  11.088   2.987   9.508  0.1962  1.6267 -0.9894
33676SOL     OW 3034   2.401   2.725   9.135  0.5899 -0.4219 -0.0856
33676SOL    HW1 3035   2.449   2.677   9.068  2.8086  0.4969  0.7424
33676SOL    HW2 3036   2.336   2.663   9.167 -0.3729 -0.9732 -2.8400
33677SOL     OW 3037   3.670   7.143   4.153  0.0319 -0.0545 -0.0052
33677SOL    HW1 3038   3.758   7.180   4.143 -0.1453  0.3609 -0.0203
33677SOL    HW2 3039   3.657   7.091   4.074 -0.0511  0.5241 -0.3703
33678SOL     OW 3040   4.578   9.632   9.632 -0.4274 -0.3203 -0.1102
33678SOL    HW1 3041   4.600   9.549   9.589  0.4771  0.0772 -0.4310
33678SOL    HW2 3042   4.488   9.649   9.606  0.0888 -0.0978 -1.8579
33679SOL     OW 3043   5.229  11.161   0.225  0.0208  0.4019 -0.5943
33679SOL    HW1 3044   5.250  11.231   0.286  1.7583  0.9253 -1.6904
33679SOL    HW2 3045   5.311  11.147   0.176 -0.8269 -1.0923 -1.6782
33680SOL     OW 3046   3.510   5.287   9.718 -0.2074 -0.4419 -0.6272
33680SOL    HW1 3047   3.458   5.221   9.764 -0.8706 -0.7831 -1.8154
33680SOL    HW2 3048   3.448   5.357   9.698  0.5003  0.6018  0.6586
33681SOL     OW 3049   2.965   6.266   2.646  0.8424 -0.2688 -0.0023
33681SOL    HW1 3050   2.899   6.202   2.674  1.5208 -0.8429  0.3389
33681SOL    HW2 3051   2.991   6.310   2.726  1.5906 -0.7504  0.0296
33682SOL     OW 3052   2.051   7.984   4.294  0.8056 -0.0316  0.0991
33682SOL    HW1 3053   1.978   7.975   4.233 -0.2642 -2.7193  1.6134
33682SOL    HW2 3054   2.116   7.921   4.264  1.0900  0.0015  0.6337
33683SOL     OW 3055  10.567  10.736   3.863  0.0210  0.1232 -0.4539
33683SOL    HW1 3056  10.612  10.803   3.812 -1.3901  0.5771 -1.1413
33683SOL    HW2 3057  10.637  10.690   3.909  1.0678  1.6711 -0.4399
33684SOL     OW 3058   5.322   6.442   7.263  0.1963 -0.1178  0.4070
33684SOL    HW1 3059   5.333   6.416   7.354 -1.4863  0.7558  0.9002
33684SOL    HW2 3060   5.345   6.535   7.261  0.3055 -0.1502 -0.0800
33685SOL     OW 3061   2.465  10.293   8.950 -0.1730 -0.0092 -0.2103
33685SOL    HW1 3062   2.551  10.285   8.992 -1.2823 -1.9874  1.8769
33685SOL    HW2 3063   2.404  10.251   9.011 -2.4252 -0.0256 -2.3230
33686SOL     OW 3064   0.174   5.616   9.271 -0.0674  0.1903  0.2963
33686SOL    HW1 3065   0.243   5.658   9.220  0.1687 -2.4841 -1.7571
33686SOL    HW2 3066   0.220   5.559   9.332 -0.4185 -0.1998  0.2063
33687SOL     OW 3067  10.557   3.509   3.949  0.3724 -0.1887  0.0355
33687SOL    HW1 3068  10.556   3.415   3.930 -1.1348  0.3373 -3.1962
33687SOL    HW2 3069  10.619   3.545   3.886 -1.1562  1.2436 -0.7150
33688SOL     OW 3070   1.456   8.035   0.259  0.8905 -0.2956  0.3613
33688SOL    HW1 3071   1.472   8.095   0.332 -2.4149  1.5468 -0.1999
33688SOL    HW2 3072   1.366   8.005   0.272  0.1752  0.0499 -2.8039
33689SOL     OW 3073   8.447   5.565   3.478 -0.3301  0.4919 -0.2194
33689SOL    HW1 3074   8.458   5.576   3.384  0.5714  0.0872 -0.1693
33689SOL    HW2 3075   8.536   5.565   3.513 -0.6055 -0.3746  0.5219
33690SOL     OW 3076   9.358   6.641   1.298  0.3743  0.2601 -0.1815
33690SOL    HW1 3077   9.388   6.556   1.266  0.3484  0.7822 -1.6847
33690SOL    HW2 3078   9.275   6.656   1.251  0.1493  0.9024  0.4065
33691SOL     OW 3079  10.077   7.126   7.263  0.0729  0.0074  0.1167
33691SOL    HW1 3080  10.136   7.066   7.218 -0.5355 -0.2252 -0.3879
33691SOL    HW2 3081  10.135   7.190   7.305  0.6969  1.4721 -2.6765
33692SOL     OW 3082   8.324   2.414   9.506 -0.3017  0.8642 -0.0265
33692SOL    HW1 3083   8.238   2.418   9.549  0.2378 -2.0125  1.5753
33692SOL    HW2 3084   8.342   2.320   9.498  3.2816  1.3459  0.8918
33693SOL     OW 3085   4.799   1.082   4.532  0.1245 -0.7189  0.1871
33693SOL    HW1 3086   4.708   1.064   4.508 -0.2448  1.4583 -0.2672
33693SOL    HW2 3087   4.804   1.062   4.625 -1.4080  1.0344  0.7046
33694SOL     OW 3088   8.323   0.848   8.014  0.2068 -0.3474  0.1404
33694SOL    HW1 3089   8.240   0.809   8.042  0.4925 -0.9249  0.1743
33694SOL    HW2 3090   8.349   0.903   8.089  0.0796 -0.5114  0.3065
33695SOL     OW 3091  10.102   3.077   3.345 -0.0222  0.2302 -0.6861
33695SOL    HW1 3092  10.124   3.015   3.276 -1.4266 -2.1609  0.8826
33695SOL    HW2 3093  10.015   3.109   3.323 -0.8533 -1.2071  0.3269
33696SOL     OW 3094   3.075   8.467   7.817  0.7102  0.0774  0.0753
33696SOL    HW1 3095   3.113   8.450   7.731 -1.3471  0.8055 -1.0395
33696SOL    HW2 3096   3.042   8.557   7.811  1.6465  0.6034  2.0795
33697SOL     OW 3097   4.003   2.584   1.579  0.0583 -0.7126 -0.5778
33697SOL    HW1 3098   3.988   2.523   1.507 -0.7625 -0.2203 -0.8305
33697SOL    HW2 3099   3.921   2.586   1.627  0.2643 -0.2389 -0.2363
33698SOL     OW 3100   9.357   2.549   2.222  0.4226 -0.0760 -0.6069
33698SOL    HW1 3101   9.372   2.477   2.283  2.3983 -1.3186 -2.4324
33698SOL    HW2 3102   9.264   2.542   2.200  0.5065 -1.8985 -0.5196
33699SOL     OW 3103   8.774  10.484   5.010  0.4701 -0.5669  0.1184
33699SOL    HW1 3104   8.802  10.412   4.954  3.7034  1.6744 -1.5240
33699SOL    HW2 3105   8.763  10.558   4.950 -0.6626  0.8386  1.9368
33700SOL     OW 3106   3.527   7.432   2.178 -0.3678  0.1078 -0.1077
33700SOL    HW1 3107   3.586   7.495   2.136 -0.3203  0.0983 -0.0566
33700SOL    HW2 3108   3.580   7.394   2.249 -0.4563  0.1439 -0.0232
33701SOL     OW 3109  10.583   4.229   5.399  0.5090  0.0222 -0.0369
33701SOL    HW1 3110  10.650   4.189   5.455  1.0619 -0.3834 -0.9659
33701SOL    HW2 3111  10.508   4.243   5.457  0.4386 -1.9943  0.4276
33702SOL     OW 3112   2.302   0.469   0.897  0.7254 -0.4360 -0.1194
33702SOL    HW1 3113   2.259   0.509   0.821 -2.5624 -2.0347  0.7001
33702SOL    HW2 3114   2.360   0.403   0.859  1.9079  1.1529 -1.2541
33703SOL     OW 3115   7.007   6.842   3.734 -1.0942 -0.1238 -0.3915
33703SOL    HW1 3116   7.084   6.786   3.745  0.3770  1.6465 -1.0603
33703SOL    HW2 3117   6.934   6.782   3.730  0.0896 -1.8388  1.5007
33704SOL     OW 3118   3.384   9.686   1.466  0.3715  0.6903 -0.1805
33704SOL    HW1 3119   3.423   9.670   1.379  1.0462  0.6678  0.1230
33704SOL    HW2 3120   3.345   9.773   1.459  1.9172  1.4276  0.0134
33705SOL     OW 3121  10.053   2.668   9.017 -0.4832  0.6617  0.5590
33705SOL    HW1 3122   9.973   2.623   9.044  1.5646 -2.5181  1.9594
33705SOL    HW2 3123  10.072   2.635   8.930  1.4396 -2.1797  1.8851
33706SOL     OW 3124   9.686   6.639   8.385 -0.4502 -0.2482 -0.9235
33706SOL    HW1 3125   9.679   6.686   8.302 -0.8571 -0.9882 -1.3205
33706SOL    HW2 3126   9.596   6.630   8.415 -0.3853 -0.8469 -0.9004
33707SOL     OW 3127   2.033   2.457   5.797  0.2907 -0.4937 -0.3092
33707SOL    HW1 3128   2.070   2.369   5.785 -1.2108 -1.0117 -1.5362
33707SOL    HW2 3129   1.991   2.454   5.883  3.6602  0.4030  1.5659
33708SOL     OW 3130  10.840   9.609  10.579 -0.3165  0.0196 -0.0730
33708SOL    HW1 3131  10.799   9.619  10.665 -1.9841 -0.0513 -0.8140
33708SOL    HW2 3132  10.771   9.633  10.517  1.6157  2.7683 -1.3686
33709SOL     OW 3133   4.679   3.638   1.746 -0.0871  0.1968  0.0702
33709SOL    HW1 3134   4.680   3.707   1.679 -1.8874  1.3551  1.1565
33709SOL    HW2 3135   4.589   3.606   1.746  0.4362 -1.3323  0.4419
33710SOL     OW 3136  10.640   4.744   0.731 -0.0352  0.0932 -0.7738
33710SOL    HW1 3137  10.632   4.781   0.643  4.2541  2.2767 -0.5010
33710SOL    HW2 3138  10.614   4.816   0.789  2.9963  0.9285 -0.3079
33711SOL     OW 3139   1.414   7.931   1.573 -0.1522  0.0568 -0.5087
33711SOL    HW1 3140   1.337   7.985   1.556 -0.6904 -0.9958 -1.6663
33711SOL    HW2 3141   1.474   7.953   1.502 -0.7035 -1.3623 -1.4823
33712SOL     OW 3142   6.688   7.687   3.321 -0.2300 -0.1734  0.1030
33712SOL    HW1 3143   6.670   7.598   3.353  0.6816 -1.0024 -1.5511
33712SOL    HW2 3144   6.783   7.692   3.317 -0.2937  0.5556 -0.6603
33713SOL     OW 3145   5.236   0.019   4.282  0.1080 -0.4694 -0.0366
33713SOL    HW1 3146   5.208  -0.070   4.261  0.3872 -0.6442  0.3232
33713SOL    HW2 3147   5.172   0.051   4.345  0.2389 -0.5653  0.1464
33714SOL     OW 3148   6.117  10.746   6.519  0.0155  0.2358  0.2890
33714SOL    HW1 3149   6.165  10.789   6.447 -0.8342 -0.2547 -0.5959
33714SOL    HW2 3150   6.183  10.696   6.566  0.1610 -1.8719 -1.9726
33715SOL     OW 3151   8.257   1.916   8.248 -0.6528 -0.5300 -0.1326
33715SOL    HW1 3152   8.259   1.826   8.280 -0.7493 -0.4231  0.1721
33715SOL    HW2 3153   8.290   1.969   8.321 -0.1684 -0.3621 -0.4589
33716SOL     OW 3154  11.204   5.974   3.742 -0.0452  0.2809  0.3454
33716SOL    HW1 3155  11.142   6.041   3.712  1.3867  1.9695  1.0239
33716SOL    HW2 3156  11.266   5.965   3.670  0.8105  1.0414  0.9756
33717SOL     OW 3157  10.535   4.063   2.213  0.3383 -0.6123  0.0819
33717SOL    HW1 3158  10.582   4.132   2.259  0.4604  0.0263 -0.9802
33717SOL    HW2 3159  10.450   4.057   2.258  0.5279 -0.1446  0.5065
33718SOL     OW 3160   5.015   6.881   5.930  0.3183  0.5019  0.1745
33718SOL    HW1 3161   5.108   6.866   5.914 -0.1126 -1.2702 -0.8999
33718SOL    HW2 3162   4.983   6.923   5.850 -0.6268 -2.9370 -1.4345
33719SOL     OW 3163   7.421   3.509   8.942  0.3365 -0.2767  0.4355
33719SOL    HW1 3164   7.373   3.536   8.864  1.1800  2.1460  0.6655
33719SOL    HW2 3165   7.512   3.500   8.913  0.2704 -1.9017  0.6306
33720SOL     OW 3166   1.935   4.731  10.461  0.5420 -0.2783  0.0474
33720SOL    HW1 3167   1.933   4.643  10.422  2.6295 -1.1734  1.7716
33720SOL    HW2 3168   2.026   4.758  10.454 -0.2016  2.2708 -1.3394
33721SOL     OW 3169   8.018   5.107   4.853 -0.1341  0.1994 -0.9395
33721SOL    HW1 3170   7.957   5.142   4.788 -2.4754  1.3913  1.6899
33721SOL    HW2 3171   7.974   5.028   4.886  0.4540  0.2496 -0.0126
33722SOL     OW 3172   3.867   4.536   8.470 -0.9399 -0.1422  0.0384
33722SOL    HW1 3173   3.925   4.465   8.443  0.8246  1.3174 -0.1801
33722SOL    HW2 3174   3.918   4.585   8.534 -2.3680  0.5794  0.6576
33723SOL     OW 3175   8.912   2.058   2.569 -0.0783 -0.6022 -0.0112
33723SOL    HW1 3176   8.855   1.997   2.523  1.1720 -0.0151 -2.5408
33723SOL    HW2 3177   8.870   2.143   2.558  0.1655 -0.4774  0.0156
33724SOL     OW 3178   7.506   8.766  10.338  0.4356  0.1807  0.2315
33724SOL    HW1 3179   7.549   8.719  10.409  1.3499  1.2611  0.4218
33724SOL    HW2 3180   7.578   8.794  10.281 -0.0284  1.7991  0.4065
33725SOL     OW 3181   8.523  11.091  10.315  0.8766  0.2902  0.1403
33725SOL    HW1 3182   8.447  11.149  10.321  0.6265  0.1908 -1.5883
33725SOL    HW2 3183   8.505  11.035  10.240  1.1159 -2.0605  1.7001
33726SOL     OW 3184   9.184  10.027   8.516  0.2086 -0.6259 -0.2823
33726SOL    HW1 3185   9.171   9.954   8.576  1.2820 -0.8899 -0.3438
33726SOL    HW2 3186   9.272  10.012   8.479  0.6230  0.9118  0.0191
33727SOL     OW 3187  10.274   4.974   4.886  0.1273  0.3170  0.0077
33727SOL    HW1 3188  10.229   5.033   4.946 -0.4302  0.4858 -0.5734
33727SOL    HW2 3189  10.365   4.976   4.915 -0.0308  0.8479  0.4830
33728SOL     OW 3190   6.623   5.524   9.047  0.2706  0.3834 -0.2869
33728SOL    HW1 3191   6.634   5.509   8.953  2.3179 -0.7781  0.0874
33728SOL    HW2 3192   6.624   5.619   9.057  0.2276  0.5111 -1.4000
33729SOL     OW 3193   2.592   6.273   9.699 -0.2850  0.1786 -0.3832
33729SOL    HW1 3194   2.583   6.250   9.791 -0.3232  3.2899  0.4819
33729SOL    HW2 3195   2.562   6.195   9.652 -2.1410 -0.8127  2.2123
33730SOL     OW 3196   5.738   5.455   5.254  0.5440  0.0561 -0.5613
33730SOL    HW1 3197   5.833   5.443   5.263  0.4680  0.6108  1.8074
33730SOL    HW2 3198   5.729   5.541   5.213  1.0369 -0.5078 -1.9067
33731SOL     OW 3199   0.359   6.399  10.114  0.1118  0.1899 -0.3334
33731SOL    HW1 3200   0.318   6.486  10.122 -0.3515 -0.0423 -0.1642
33731SOL    HW2 3201   0.432   6.401  10.176  0.0816  0.4489 -0.3044
33732SOL     OW 3202   8.173  10.270   8.687  1.0880  0.2603 -0.6646
33732SOL    HW1 3203   8.209  10.341   8.739  1.9229 -0.4760 -0.2093
33732SOL    HW2 3204   8.186  10.298   8.596 -3.2312  3.0108 -0.6665
33733SOL     OW 3205   0.397   1.332   5.849  0.2510  0.5030 -0.2480
33733SOL    HW1 3206   0.347   1.408   5.879 -0.6245 -0.4871  0.8855
33733SOL    HW2 3207   0.481   1.339   5.893 -0.4356 -0.0651  1.2011
33734SOL     OW 3208   0.167   9.120   4.441 -0.1272  0.7145  0.1820
33734SOL    HW1 3209   0.241   9.179   4.424 -0.9887  1.9617  0.6130
33734SOL    HW2 3210   0.094   9.178   4.462 -1.7559 -0.3946 -2.0163
33735SOL     OW 3211   0.905   0.941  10.600  0.4228 -0.7588  0.1913
33735SOL    HW1 3212   0.865   0.915  10.517  0.5277  2.2538 -0.9000
33735SOL    HW2 3213   0.916   0.858  10.648 -0.0599 -2.5477 -2.5738
33736SOL     OW 3214   8.894   7.676   9.233 -0.4221 -0.5128 -0.4208
33736SOL    HW1 3215   8.962   7.701   9.171  0.2009  0.6942  0.6972
33736SOL    HW2 3216   8.923   7.592   9.267  1.1565  0.4750  0.8509
33737SOL     OW 3217  10.856   9.866   9.820  0.2982  0.2290  0.8081
33737SOL    HW1 3218  10.768   9.863   9.784  0.4972  0.6411  0.2663
33737SOL    HW2 3219  10.859   9.949   9.869  0.6700  0.6867  0.0350
33738SOL     OW 3220   6.697   6.674  11.154  0.1070  0.6025 -0.2918
33738SOL    HW1 3221   6.666   6.583  11.148 -1.5846  0.8666  2.5190
33738SOL    HW2 3222   6.788   6.666  11.181  0.5020 -0.2153 -1.7611
33739SOL     OW 3223  11.143   5.455   0.134 -0.7445 -0.2957  0.0891
33739SOL    HW1 3224  11.228   5.448   0.090  0.8914 -2.0782  3.1525
33739SOL    HW2 3225  11.146   5.539   0.180 -1.6299  0.6614 -1.5412
33740SOL     OW 3226  10.399   5.984   0.447  0.2146 -0.5415 -0.1123
33740SOL    HW1 3227  10.367   5.940   0.368 -1.0487  1.1204 -0.5751
33740SOL    HW2 3228  10.324   6.036   0.477  0.4250 -1.6027  2.5743
33741SOL     OW 3229  10.871   1.400  10.665  0.4196  0.4410 -0.3376
33741SOL    HW1 3230  10.912   1.351  10.735  3.4874  1.6227 -1.1578
33741SOL    HW2 3231  10.940   1.411  10.599 -0.5767  4.2254 -0.9845
33742SOL     OW 3232   3.190  10.901   3.148  0.4955 -0.0002 -0.1310
33742SOL    HW1 3233   3.150  10.848   3.079  1.9176 -0.2728 -0.7932
33742SOL    HW2 3234   3.233  10.837   3.205 -0.3970  0.2484  0.8551
33743SOL     OW 3235   9.824  10.949  10.959  0.0784 -0.1297  0.7029
33743SOL    HW1 3236   9.865  10.959  10.873 -0.3557  1.3725  0.6379
33743SOL    HW2 3237   9.880  10.998  11.018 -0.9154  0.9330  0.8184
33744SOL     OW 3238   9.187   0.922   5.090 -0.4424  0.1746  0.1006
33744SOL    HW1 3239   9.270   0.904   5.045  1.4532  1.3830  2.8114
33744SOL    HW2 3240   9.190   1.016   5.110 -2.1083  0.0795  0.9800
33745SOL     OW 3241   6.706   0.094   0.136 -0.3854 -0.2597  0.7009
33745SOL    HW1 3242   6.733   0.109   0.227 -2.2832  0.8352  1.1347
33745SOL    HW2 3243   6.633   0.033   0.142 -2.8541  2.4166  0.3391
33746SOL     OW 3244   4.921   8.619   2.406  0.5886  0.9170 -0.3978
33746SOL    HW1 3245   4.883   8.665   2.482  0.4312  0.4029 -0.1609
33746SOL    HW2 3246   4.991   8.677   2.376 -0.6631  2.1262 -1.1330
33747SOL     OW 3247   8.837   8.937   1.464  1.0196  0.9048  0.3279
33747SOL    HW1 3248   8.782   8.867   1.430 -0.2504  1.7898  0.4804
33747SOL    HW2 3249   8.926   8.909   1.445  0.6424 -1.4801  1.8150
33748SOL     OW 3250  10.667   4.557  11.161 -0.3576  0.4876  0.1718
33748SOL    HW1 3251  10.615   4.504  11.221 -0.2183  1.9098  1.6246
33748SOL    HW2 3252  10.628   4.541  11.075  0.5354 -2.9783  0.2710
33749SOL     OW 3253   5.620   0.240  10.812 -0.3333  0.5950 -0.3713
33749SOL    HW1 3254   5.679   0.313  10.830  0.4078  0.1855 -1.0849
33749SOL    HW2 3255   5.619   0.233  10.717 -1.1828  0.3035 -0.3482
33750SOL     OW 3256   0.595   3.439  11.273  0.3475  0.5989  0.2575
33750SOL    HW1 3257   0.660   3.378  11.309 -1.5563 -1.9999 -0.4647
33750SOL    HW2 3258   0.566   3.398  11.191 -1.9051  1.8603  0.3502
33751SOL     OW 3259   0.605  10.251   7.573 -0.1597 -0.3012 -0.0163
33751SOL    HW1 3260   0.621  10.265   7.479 -1.6709 -1.2996 -0.4646
33751SOL    HW2 3261   0.668  10.183   7.598  2.2287  1.9105  0.4504
33752SOL     OW 3262   8.535   0.037   6.961 -0.2825  0.0566 -0.2817
33752SOL    HW1 3263   8.625   0.022   6.934  0.2592 -0.8874  1.9119
33752SOL    HW2 3264   8.509   0.116   6.913  1.6099  0.2185 -1.1254
33753SOL     OW 3265   5.459   8.336   6.285  0.3562 -0.2768  0.7983
33753SOL    HW1 3266   5.529   8.271   6.284 -0.4161 -1.1079 -0.4952
33753SOL    HW2 3267   5.419   8.331   6.199 -1.6071 -0.1385  1.6570
33754SOL     OW 3268   5.972   7.338   1.448  0.1343  0.1490  0.5127
33754SOL    HW1 3269   5.900   7.401   1.446  1.4368  1.7796  1.6869
33754SOL    HW2 3270   6.044   7.387   1.488  0.8510 -2.4611  2.7156
33755SOL     OW 3271   1.379   5.279   6.469  0.3143  0.2831 -0.2242
33755SOL    HW1 3272   1.451   5.338   6.447  0.0961  0.9066  0.6732
33755SOL    HW2 3273   1.300   5.333   6.463 -0.3641 -0.8583 -3.1498
33756SOL     OW 3274   4.836   0.709   2.632 -0.5496  0.2236 -0.1795
33756SOL    HW1 3275   4.778   0.645   2.673  2.6040 -1.2734  2.3130
33756SOL    HW2 3276   4.888   0.658   2.569  1.0577  0.5329  0.8444
33757SOL     OW 3277   0.497   6.850   8.846  0.3339  0.2910 -0.2865
33757SOL    HW1 3278   0.464   6.874   8.933  0.2213  2.9224 -0.9636
33757SOL    HW2 3279   0.448   6.771   8.823 -0.0305 -0.1395  1.8064
33758SOL     OW 3280   9.544   8.639   3.030  0.0047  0.3853 -0.1999
33758SOL    HW1 3281   9.623   8.598   3.065  0.9946 -0.2540 -2.9453
33758SOL    HW2 3282   9.573   8.724   2.997 -0.2025 -0.1978 -1.9983
33759SOL     OW 3283   1.116   4.243   2.855  0.0593  0.4454  0.3741
33759SOL    HW1 3284   1.048   4.306   2.879  1.0623  1.2839  1.1330
33759SOL    HW2 3285   1.088   4.161   2.895 -0.4521  0.8107  0.7802
33760SOL     OW 3286   6.709   5.204  10.589  0.6952  0.1156 -0.8146
33760SOL    HW1 3287   6.668   5.149  10.523 -1.3223 -2.0756  2.0395
33760SOL    HW2 3288   6.775   5.149  10.629  0.4952  0.6920  0.3401
33761SOL     OW 3289   0.106   2.852   9.333 -0.1451 -0.0609  0.0249
33761SOL    HW1 3290   0.138   2.942   9.341  0.5506 -0.4375  2.4796
33761SOL    HW2 3291   0.180   2.804   9.295  0.1651  0.0895  0.4274
33762SOL     OW 3292   0.296   1.863   2.211 -0.6703 -0.5481 -0.2046
33762SOL    HW1 3293   0.326   1.947   2.246  0.2994 -0.9840  0.0557
33762SOL    HW2 3294   0.236   1.830   2.278 -0.2338 -0.5466  0.1896
33763SOL     OW 3295   8.197   7.675   2.202 -0.4398  0.2892 -0.2059
33763SOL    HW1 3296   8.171   7.621   2.128 -0.1097  0.1780 -0.2443
33763SOL    HW2 3297   8.293   7.666   2.205 -0.3819  0.8858 -0.2245
33764SOL     OW 3298   0.289   6.785   9.660 -0.5722 -0.2330 -0.2762
33764SOL    HW1 3299   0.252   6.851   9.718  0.3660 -0.3337  0.4651
33764SOL    HW2 3300   0.379   6.814   9.645 -0.9814  0.1325 -2.2256
33765SOL     OW 3301   8.696   4.730   7.018  0.4067 -0.0154  0.1177
33765SOL    HW1 3302   8.675   4.686   7.101 -1.2645  3.0424  1.4576
33765SOL    HW2 3303   8.782   4.769   7.034 -0.1299  0.9897  0.6600
33766SOL     OW 3304   1.715   3.559   1.079  0.5453 -0.2889 -0.3873
33766SOL    HW1 3305   1.726   3.653   1.061  1.0560 -0.3403 -0.3300
33766SOL    HW2 3306   1.664   3.527   1.004 -0.3207  0.1852 -0.0263
33767SOL     OW 3307   9.461   8.093   1.960 -0.1778 -0.7071  0.7064
33767SOL    HW1 3308   9.397   8.025   1.940 -1.2286 -0.0785  1.8082
33767SOL    HW2 3309   9.414   8.155   2.015  1.4782 -0.4085  1.8782
33768SOL     OW 3310   9.722  10.934   1.340  0.5617  0.2186  0.2791
33768SOL    HW1 3311   9.732  10.932   1.245 -0.8047  0.7812  0.1073
33768SOL    HW2 3312   9.761  10.851   1.370  0.5039 -0.2221 -0.8170
33769SOL     OW 3313   5.958   1.290   5.044  0.0007  0.0014  0.3407
33769SOL    HW1 3314   5.882   1.325   5.091  0.9338  2.6865  0.0165
33769SOL    HW2 3315   5.921   1.241   4.970 -1.4106  0.4673  0.7143
33770SOL     OW 3316   1.192   9.635   5.804  0.2085 -0.4399  0.3909
33770SOL    HW1 3317   1.184   9.718   5.850  2.2211  0.6865 -1.1182
33770SOL    HW2 3318   1.108   9.591   5.819 -0.4526  1.2961  2.2475
33771SOL     OW 3319   9.665   8.451   3.393 -0.2679  0.0679  0.1015
33771SOL    HW1 3320   9.623   8.419   3.473 -2.2212  2.1370 -0.0018
33771SOL    HW2 3321   9.622   8.403   3.322 -2.2747  1.8245  0.0319
33772SOL     OW 3322   0.469  11.111   5.178 -0.0013  0.4865 -0.1262
33772SOL    HW1 3323   0.548  11.064   5.154 -1.5052 -1.6901 -1.0682
33772SOL    HW2 3324   0.446  11.163   5.101 -0.4929 -0.3258 -0.5314
33773SOL     OW 3325   6.182   6.653   1.401  0.0619  0.1234  0.3033
33773SOL    HW1 3326   6.242   6.717   1.363 -1.4075  0.5048 -1.5621
33773SOL    HW2 3327   6.130   6.702   1.464 -0.4279  0.5715 -0.4355
33774SOL     OW 3328   3.355   5.003   7.810  0.7114 -0.1581  0.2275
33774SOL    HW1 3329   3.372   5.085   7.763  1.6424  0.1076  0.9841
33774SOL    HW2 3330   3.441   4.961   7.817  0.3930 -0.7594  0.6347
33775SOL     OW 3331  10.128   0.258   5.864  0.5739 -0.4825 -0.4247
33775SOL    HW1 3332  10.158   0.174   5.829 -1.3002 -2.8945  3.1202
33775SOL    HW2 3333  10.194   0.281   5.931  1.5078  1.4342 -1.9021
33776SOL     OW 3334   1.911   5.020   8.580 -0.2022  0.4366 -0.3155
33776SOL    HW1 3335   1.966   5.048   8.507  3.8821 -0.7628  1.9935
33776SOL    HW2 3336   1.934   5.079   8.651 -0.0797 -1.5630  1.3938
33777SOL     OW 3337   6.277   5.984   8.776 -0.0986  0.0833  0.1822
33777SOL    HW1 3338   6.236   5.931   8.707 -0.1097 -0.9201  0.9360
33777SOL    HW2 3339   6.303   6.065   8.732 -0.9399 -0.1522 -0.7949
33778SOL     OW 3340  10.242   4.114  10.313  0.7279 -0.1426 -0.5023
33778SOL    HW1 3341  10.191   4.194  10.304  0.4565 -0.3326 -0.6533
33778SOL    HW2 3342  10.210   4.057  10.244  1.8971  0.1354 -1.2984
33779SOL     OW 3343   4.705   0.885   5.261  0.3729 -0.4519 -0.1454
33779SOL    HW1 3344   4.734   0.824   5.193 -0.5126  0.8064 -1.7234
33779SOL    HW2 3345   4.636   0.838   5.308 -0.1128 -0.7939 -1.1646
33780SOL     OW 3346  10.088   9.028   8.434  0.0912 -0.5974  0.3285
33780SOL    HW1 3347  10.182   9.014   8.426 -0.1939 -2.1428 -0.6159
33780SOL    HW2 3348  10.067   9.092   8.366  0.6339  0.7774  1.4074
33781SOL     OW 3349   5.045   2.004   2.130 -0.5122  0.1027  0.0875
33781SOL    HW1 3350   5.113   1.938   2.142 -2.1952 -1.4185  2.1038
33781SOL    HW2 3351   5.049   2.026   2.037  2.2042 -0.4218 -0.0224
33782SOL     OW 3352   7.310   0.314  11.035 -0.6055 -0.1146 -0.3144
33782SOL    HW1 3353   7.362   0.350  10.962  0.0522 -2.4885 -1.0988
33782SOL    HW2 3354   7.374   0.301  11.105 -1.0729  1.2982  0.4238
33783SOL     OW 3355   5.610   7.212   2.945 -0.2477  0.3041  0.3924
33783SOL    HW1 3356   5.571   7.217   2.858  0.0481 -0.9956  0.1533
33783SOL    HW2 3357   5.545   7.165   2.997  0.1049 -0.0483  0.5258
33784SOL     OW 3358   5.832   9.752   4.930 -0.1335  0.3234  0.2806
33784SOL    HW1 3359   5.741   9.763   4.903 -0.8684  2.4748  3.1642
33784SOL    HW2 3360   5.829   9.684   4.998  0.7646 -0.9186 -0.8654
33785SOL     OW 3361   1.550   2.357   9.171  0.2972 -0.9637 -0.4596
33785SOL    HW1 3362   1.521   2.284   9.226  0.4599  0.1569  1.2101
33785SOL    HW2 3363   1.616   2.402   9.224  1.4670 -0.5866 -2.1601
33786SOL     OW 3364   2.234  11.229   0.259 -0.0070  0.1977 -0.0227
33786SOL    HW1 3365   2.264  11.225   0.168  0.1555 -1.1394  0.0748
33786SOL    HW2 3366   2.280  11.306   0.295  1.0301 -0.0793 -0.6909
33787SOL     OW 3367   7.564   9.556  10.786  0.1495  0.2630  1.1215
33787SOL    HW1 3368   7.621   9.483  10.810  1.2989  0.7807  0.0866
33787SOL    HW2 3369   7.623   9.623  10.751 -1.1486  0.5324 -0.7382
33788SOL     OW 3370   7.135   1.024   4.380  0.6452 -0.1048 -0.0735
33788SOL    HW1 3371   7.188   0.970   4.321  0.4054 -1.5630  0.9792
33788SOL    HW2 3372   7.177   1.109   4.380  1.6305 -0.5695 -1.0367
33789SOL     OW 3373   7.174   6.523   5.118  0.0012  0.3176  0.6839
33789SOL    HW1 3374   7.140   6.462   5.184  2.4434 -0.6355  1.1516
33789SOL    HW2 3375   7.216   6.593   5.169 -0.6189  1.1288  0.1193
33790SOL     OW 3376   9.862   1.837   2.598 -0.1010  0.8460  0.2245
33790SOL    HW1 3377   9.801   1.781   2.646  0.1318  1.3527  1.1390
33790SOL    HW2 3378   9.815   1.861   2.518 -0.3688 -0.2756  0.0398
33791SOL     OW 3379   0.357   4.812   6.046  0.1065 -0.0652  0.1328
33791SOL    HW1 3380   0.276   4.774   6.079  0.2681  0.5105  1.2313
33791SOL    HW2 3381   0.414   4.817   6.122  0.9988  0.0127 -0.5214
33792SOL     OW 3382   1.645   9.445  10.480  0.0012  0.4324  0.0172
33792SOL    HW1 3383   1.567   9.481  10.439  0.2802  1.0453  0.0198
33792SOL    HW2 3384   1.648   9.354  10.449 -0.1601  0.6870 -0.7723
33793SOL     OW 3385   4.456   3.053   5.632  0.2662 -0.4888  0.6385
33793SOL    HW1 3386   4.431   3.019   5.546 -0.9663  0.6864  0.5007
33793SOL    HW2 3387   4.464   2.976   5.687  0.0216 -1.1750 -0.2679
33794SOL     OW 3388   2.301   4.156   8.636 -0.3098  0.1056 -0.2274
33794SOL    HW1 3389   2.316   4.249   8.652  0.3673 -0.3273  2.0733
33794SOL    HW2 3390   2.241   4.153   8.562 -2.6471  2.4942  1.3839
33795SOL     OW 3391   7.830   0.528   0.337 -0.4444 -0.2206 -0.1642
33795SOL    HW1 3392   7.856   0.440   0.311 -0.5656 -0.0285 -0.9543
33795SOL    HW2 3393   7.912   0.577   0.341 -0.2885 -0.5303  0.9826
33796SOL     OW 3394   1.935   3.044   5.516  0.2085 -0.0435  0.1137
33796SOL    HW1 3395   1.996   3.003   5.455  0.4100 -1.9025  1.4759
33796SOL    HW2 3396   1.923   2.979   5.585 -1.1173  1.4146  1.3318
33797SOL     OW 3397   6.455   3.360   6.478  0.3987  0.3667  0.9899
33797SOL    HW1 3398   6.473   3.267   6.492 -1.7754 -0.8979 -3.0841
33797SOL    HW2 3399   6.360   3.368   6.487  0.3603  1.8145 -0.2882
33798SOL     OW 3400   3.989   6.181  10.836  0.2953  0.2950 -0.0636
33798SOL    HW1 3401   3.928   6.130  10.782  0.5591 -0.2425  0.1383
33798SOL    HW2 3402   4.029   6.117  10.894 -1.3680  1.1143  2.1349
33799SOL     OW 3403   6.914   4.221   8.490 -0.5543 -0.4582 -0.2685
33799SOL    HW1 3404   6.860   4.170   8.549  0.8526 -1.0159  0.5771
33799SOL    HW2 3405   6.972   4.157   8.448 -0.2497  0.1728 -0.8367
33800SOL     OW 3406   0.381   7.499   0.875  0.1494 -0.5123  0.0238
33800SOL    HW1 3407   0.316   7.445   0.829  1.5353 -0.1136 -2.5814
33800SOL    HW2 3408   0.395   7.573   0.817  3.0105 -0.6450  0.4266
33801SOL     OW 3409  10.552   9.177   8.061  0.3774 -0.3120 -0.6282
33801SOL    HW1 3410  10.631   9.134   8.030  1.1884  3.5953 -5.1909
33801SOL    HW2 3411  10.480   9.126   8.023  0.9689 -0.9959 -0.8337
33802SOL     OW 3412   5.059   3.358  11.005 -0.0975 -0.3273  0.9492
33802SOL    HW1 3413   5.119   3.399  10.942  1.6896 -0.2262  2.6324
33802SOL    HW2 3414   5.058   3.266  10.979  1.3691 -0.4697  1.2810
33803SOL     OW 3415   7.148   8.292   8.229  0.6559 -0.7398 -0.1049
33803SOL    HW1 3416   7.160   8.319   8.138  2.6666  1.2505  0.6777
33803SOL    HW2 3417   7.073   8.342   8.260  1.8048  0.8875  0.1386
33804SOL     OW 3418   6.116   8.198   1.972 -0.5228  0.1552  0.3868
33804SOL    HW1 3419   6.097   8.243   2.055  0.4622 -2.9632  2.4813
33804SOL    HW2 3420   6.039   8.144   1.956  0.9580 -2.6425  1.8605
33805SOL     OW 3421   4.352   1.865   4.130  0.5364 -0.4147 -0.3230
33805SOL    HW1 3422   4.352   1.794   4.194 -0.5131 -0.1457 -0.0040
33805SOL    HW2 3423   4.300   1.831   4.056 -0.8355  0.3501  0.2469
33806SOL     OW 3424   7.868   5.417   9.110 -0.3210  0.6805 -0.6466
33806SOL    HW1 3425   7.860   5.455   9.198 -0.4201  0.0677 -0.3845
33806SOL    HW2 3426   7.948   5.364   9.114  1.1086  2.6471 -1.7041
33807SOL     OW 3427   4.611   3.999  10.530  0.2819  0.0475 -0.0729
33807SOL    HW1 3428   4.634   3.922  10.582  0.8289 -0.8385 -1.5849
33807SOL    HW2 3429   4.581   3.964  10.446  0.7756  1.4756 -0.8814
33808SOL     OW 3430   8.876   1.907   8.065  0.4818 -0.3175 -0.0744
33808SOL    HW1 3431   8.944   1.944   8.009  0.6141 -1.1343 -0.4576
33808SOL    HW2 3432   8.922   1.873   8.141  1.2150 -4.8831 -2.2202
33809SOL     OW 3433   4.327   2.285   9.120 -0.6704 -0.1867  0.0683
33809SOL    HW1 3434   4.272   2.278   9.041 -0.1774  0.8183 -0.3942
33809SOL    HW2 3435   4.267   2.316   9.188 -0.7372  0.7781 -0.4012
33810SOL     OW 3436   8.883   8.358   3.888 -0.0606  0.1919  0.2506
33810SOL    HW1 3437   8.911   8.267   3.891  0.4376  0.3562  1.9102
33810SOL    HW2 3438   8.790   8.355   3.914  0.6051  0.3186  2.9622
33811SOL     OW 3439  10.602   8.517   1.645 -0.2099 -0.0902 -0.2652
33811SOL    HW1 3440  10.600   8.449   1.713  0.5989 -0.7235 -0.8604
33811SOL    HW2 3441  10.653   8.588   1.684 -1.7543  0.5438  0.6726
33812SOL     OW 3442   4.549   2.187   9.414 -0.4977 -0.0743 -0.6919
33812SOL    HW1 3443   4.615   2.215   9.350  0.2990 -0.2955  0.0172
33812SOL    HW2 3444   4.565   2.093   9.425  1.9354  0.5826  2.6565
33813SOL     OW 3445  10.450   5.710  10.687 -0.3637  0.3559 -0.1847
33813SOL    HW1 3446  10.509   5.664  10.746 -0.7723  1.9396  1.5718
33813SOL    HW2 3447  10.507   5.744  10.618  0.1780 -1.2434 -0.5561
33814SOL     OW 3448   3.293   6.407   9.061 -0.2026  0.5570 -0.1823
33814SOL    HW1 3449   3.270   6.354   9.138  1.4135  1.0180  0.6812
33814SOL    HW2 3450   3.266   6.496   9.085 -1.1761  0.4582 -0.8484
33815SOL     OW 3451   0.167   7.089   9.378 -0.3480 -0.5346 -0.2920
33815SOL    HW1 3452   0.124   7.147   9.441  0.6870 -0.3809  0.2944
33815SOL    HW2 3453   0.223   7.147   9.326  0.4296 -0.9568  0.0671
33816SOL     OW 3454   3.960   6.030   1.028  0.6556 -0.4083  0.0582
33816SOL    HW1 3455   3.938   6.102   1.087 -0.1502  0.0328 -0.7399
33816SOL    HW2 3456   4.035   5.987   1.068  1.2096  0.9304  0.5132
33817SOL     OW 3457   0.445   1.905  10.256 -0.4017 -0.3751 -0.2779
33817SOL    HW1 3458   0.494   1.826  10.231  1.1286  0.9685 -1.8834
33817SOL    HW2 3459   0.489   1.975  10.208 -2.7677  1.2265 -0.2567
33818SOL     OW 3460   0.575  10.893   1.686 -0.0799 -0.1373  0.0819
33818SOL    HW1 3461   0.563  10.944   1.766  0.7700 -0.0729  0.1776
33818SOL    HW2 3462   0.625  10.816   1.715  0.1655 -0.1482 -0.3686
33819SOL     OW 3463   8.236   2.060   0.937 -0.9778  0.3278  0.8091
33819SOL    HW1 3464   8.275   2.114   0.869  1.3385 -0.3717  1.4712
33819SOL    HW2 3465   8.180   2.120   0.986 -0.1912  1.6031  0.2120
33820SOL     OW 3466  11.139   8.251  10.974  0.3195 -0.3994  0.1430
33820SOL    HW1 3467  11.174   8.163  10.962  1.5169 -0.0905  1.1234
33820SOL    HW2 3468  11.084   8.266  10.897  0.8478 -1.6492 -0.5081
33821SOL     OW 3469   9.955   8.803   8.856 -0.0633  0.2738 -0.1648
33821SOL    HW1 3470  10.038   8.775   8.895 -0.0236  0.9208  0.2215
33821SOL    HW2 3471   9.936   8.736   8.790  0.4903 -0.1700  0.1155
33822SOL     OW 3472   2.834   1.652   9.114  0.1228  0.8484  0.0398
33822SOL    HW1 3473   2.900   1.584   9.131 -1.7059 -1.2747 -0.8909
33822SOL    HW2 3474   2.814   1.688   9.200  0.1759 -0.7406  0.7418
33823SOL     OW 3475   9.299  10.414   6.259  0.0581  0.3951 -1.0029
33823SOL    HW1 3476   9.282  10.489   6.202 -1.1408  0.9278 -0.0061
33823SOL    HW2 3477   9.248  10.432   6.338  2.0360 -0.0809  0.4635
33824SOL     OW 3478   4.364   5.972   4.714 -0.0548 -0.1103  0.7853
33824SOL    HW1 3479   4.322   5.887   4.701  0.2204  0.0108 -1.1812
33824SOL    HW2 3480   4.446   5.952   4.758  0.6418 -1.0648 -0.8402
33825SOL     OW 3481   7.853   1.123   0.014 -0.2015  0.1919  0.6481
33825SOL    HW1 3482   7.813   1.201  -0.024 -1.1869 -0.3578  0.5127
33825SOL    HW2 3483   7.787   1.055   0.003  1.0316 -0.9099 -0.1251
33826SOL     OW 3484   9.750   5.373  10.894  0.2687  0.3823  0.7907
33826SOL    HW1 3485   9.806   5.445  10.923  0.2868  0.0634  1.5579
33826SOL    HW2 3486   9.684   5.416  10.838  0.8272  0.8557  0.4864
33827SOL     OW 3487   9.169   8.914   5.367 -0.2817  0.0872 -0.1260
33827SOL    HW1 3488   9.114   8.982   5.329  2.0641  2.0987 -0.1507
33827SOL    HW2 3489   9.134   8.903   5.456  0.5996  3.0357  0.6950
33828SOL     OW 3490   9.999   1.682   1.056 -0.2672 -0.1933 -0.2345
33828SOL    HW1 3491   9.933   1.616   1.035  0.0124 -0.1091 -1.4525
33828SOL    HW2 3492  10.075   1.632   1.086 -0.3579 -0.3817 -0.3190
33829SOL     OW 3493   8.446   5.754   4.271  0.0194 -0.0020  0.4757
33829SOL    HW1 3494   8.497   5.703   4.334  1.1442 -2.2261 -2.0458
33829SOL    HW2 3495   8.512   5.801   4.219 -0.7975  0.7920  0.1328
33830SOL     OW 3496   2.498   7.490   5.201 -0.6787 -0.7275 -0.2970
33830SOL    HW1 3497   2.450   7.471   5.281  1.0904  1.3249  1.3788
33830SOL    HW2 3498   2.585   7.515   5.230 -1.0993  4.3801 -2.3509
33831SOL     OW 3499   9.133   3.154   7.332 -0.2360  0.0972 -0.3689
33831SOL    HW1 3500   9.109   3.246   7.319 -2.0296 -0.3551 -0.4704
33831SOL    HW2 3501   9.177   3.153   7.418 -1.0268  0.9129  0.0588
33832SOL     OW 3502   2.327   2.133   0.437 -0.6164  0.2532 -0.0894
33832SOL    HW1 3503   2.352   2.068   0.503 -2.4200 -0.6451 -0.2231
33832SOL    HW2 3504   2.275   2.084   0.374 -0.6879  1.5293 -1.0630
33833SOL     OW 3505   8.996   1.790   6.285  0.0421 -0.0889 -0.8175
33833SOL    HW1 3506   8.944   1.726   6.334 -0.7065  0.2751 -1.1203
33833SOL    HW2 3507   9.004   1.754   6.197 -2.6040  1.3492 -1.7757
33834SOL     OW 3508   5.101   7.059   0.719 -0.4976 -0.0852  0.5630
33834SOL    HW1 3509   5.085   6.965   0.704  1.1823 -0.5885  1.6042
33834SOL    HW2 3510   5.056   7.103   0.647  0.0316 -1.8045 -0.8842
33835SOL     OW 3511  11.005  10.594   4.201  0.2065  0.4578  0.3653
33835SOL    HW1 3512  11.001  10.511   4.154  0.6643 -0.0328  1.1863
33835SOL    HW2 3513  11.086  10.590   4.252  0.7159  1.7915 -0.2833
33836SOL     OW 3514   5.339  10.279   3.030 -0.6209  0.2123  0.6046
33836SOL    HW1 3515   5.400  10.260   2.959 -2.0170 -1.1421 -0.3260
33836SOL    HW2 3516   5.392  10.320   3.098  1.0943  0.0295 -0.5585
33837SOL     OW 3517  10.995  10.048  10.363  0.5401 -0.1165  0.3771
33837SOL    HW1 3518  11.039  10.018  10.443  0.4959  1.8557  1.2002
33837SOL    HW2 3519  10.907  10.011  10.369 -0.3532  2.0915  2.6457
33838SOL     OW 3520   3.632   6.690   8.378 -0.5902  0.4191  0.8163
33838SOL    HW1 3521   3.663   6.656   8.294 -1.8251 -0.1102  0.5496
33838SOL    HW2 3522   3.711   6.709   8.427  0.1481  0.0479 -0.1956
33839SOL     OW 3523   2.067   3.767   8.011  0.1070  0.2035 -0.5480
33839SOL    HW1 3524   1.986   3.776   7.961  0.8242  2.1109 -1.4915
33839SOL    HW2 3525   2.057   3.831   8.082 -0.3049 -1.4810  0.9824
33840SOL     OW 3526   4.982   1.120   1.016 -0.3388 -0.7243  0.0658
33840SOL    HW1 3527   5.046   1.189   0.997 -1.4614  0.0266 -1.1340
33840SOL    HW2 3528   5.034   1.050   1.057  0.6791  1.1832  2.3074
33841SOL     OW 3529   9.597  11.079   1.598 -0.6230 -0.5047 -0.0261
33841SOL    HW1 3530   9.641  11.053   1.517 -0.5204 -1.1684  0.2349
33841SOL    HW2 3531   9.524  11.134   1.570 -1.6594 -2.1536 -0.7051
33842SOL     OW 3532   3.746   5.895   4.851 -0.8337 -0.4149 -0.1553
33842SOL    HW1 3533   3.705   5.866   4.769 -4.5370 -0.5636  1.5396
33842SOL    HW2 3534   3.719   5.830   4.916 -0.1989  1.0676  1.6758
33843SOL     OW 3535   7.316   7.837   1.203 -0.1326  0.3749  0.1463
33843SOL    HW1 3536   7.362   7.756   1.186 -0.4250  0.0780  0.7281
33843SOL    HW2 3537   7.351   7.868   1.286  0.3375  1.1100 -0.3150
33844SOL     OW 3538   4.644   2.834   7.296 -0.9007 -0.2592 -0.4109
33844SOL    HW1 3539   4.727   2.791   7.275 -1.1626 -0.9899 -0.0221
33844SOL    HW2 3540   4.634   2.821   7.391 -2.0944 -1.3963 -0.6599
33845SOL     OW 3541   2.414  11.045   7.305  0.2415  0.0082 -0.1081
33845SOL    HW1 3542   2.362  11.037   7.225 -1.0415  0.7183  0.6349
33845SOL    HW2 3543   2.466  10.965   7.308 -1.9895 -1.4866 -0.0221
33846SOL     OW 3544   2.733  10.000   2.703  0.5885  0.4322 -0.3556
33846SOL    HW1 3545   2.796   9.930   2.719 -1.2593 -1.0984  0.5985
33846SOL    HW2 3546   2.747  10.062   2.775  1.1571  0.2374 -0.2965
33847SOL     OW 3547   1.394   2.743   8.350 -0.0197  0.0357 -0.5286
33847SOL    HW1 3548   1.333   2.705   8.413  0.5712  0.6463  0.4410
33847SOL    HW2 3549   1.402   2.677   8.281 -2.0169  0.0854 -0.8626
33848SOL     OW 3550   4.655   3.352   6.945 -0.6797 -0.4997 -0.4253
33848SOL    HW1 3551   4.564   3.341   6.914 -1.1316  0.7389  0.3843
33848SOL    HW2 3552   4.708   3.306   6.880 -1.9136 -1.5614 -0.7209
33849SOL     OW 3553   8.153   4.992   4.142 -0.6070 -0.3016  0.2229
33849SOL    HW1 3554   8.199   4.909   4.129 -0.8476 -0.4908  0.5778
33849SOL    HW2 3555   8.065   4.967   4.168 -0.2379  0.0646  1.9064
33850SOL     OW 3556   1.531   9.951   5.820  0.1118 -0.2890  0.5988
33850SOL    HW1 3557   1.472   9.995   5.882  0.7055  0.6865  0.4948
33850SOL    HW2 3558   1.553   9.868   5.862  1.2416  0.7496  2.1649
33851SOL     OW 3559   5.142   6.902   9.280  0.2873 -0.2223 -0.3020
33851SOL    HW1 3560   5.100   6.835   9.226 -0.3065  1.3387 -1.8802
33851SOL    HW2 3561   5.165   6.971   9.218  1.3877  0.7916  1.1855
33852SOL     OW 3562   4.375   2.096   2.089  0.8229  0.1430  0.0315
33852SOL    HW1 3563   4.330   2.164   2.040 -0.8701  0.2018  1.5541
33852SOL    HW2 3564   4.462   2.132   2.107  1.2663  0.3618 -2.2863
33853SOL     OW 3565   9.556   8.334   3.085  0.0331 -0.0128 -0.1266
33853SOL    HW1 3566   9.562   8.376   2.999  0.8832 -2.3058 -1.2892
33853SOL    HW2 3567   9.465   8.346   3.112 -0.0779  1.3174 -1.0251
33854SOL     OW 3568   0.745   2.951   5.812 -0.3668  0.2897 -0.0166
33854SOL    HW1 3569   0.702   2.871   5.841 -1.2118  0.6368 -0.2525
33854SOL    HW2 3570   0.672   3.011   5.794  0.2502  1.0945  0.1290
33855SOL     OW 3571   0.367   5.591  10.050 -0.5107  0.2717  0.0859
33855SOL    HW1 3572   0.391   5.546   9.969 -1.3632  0.3648 -0.2265
33855SOL    HW2 3573   0.400   5.680  10.039  1.8630 -0.4051  1.0181
33856SOL     OW 3574  10.593   6.028   9.583 -0.2661 -0.0010 -0.1599
33856SOL    HW1 3575  10.570   6.068   9.667 -0.6741 -0.5888  0.0179
33856SOL    HW2 3576  10.652   5.956   9.606 -1.7207 -1.2556 -0.1815
33857SOL     OW 3577   4.701   7.536   7.408 -0.2616 -0.2380 -0.3967
33857SOL    HW1 3578   4.651   7.582   7.476  1.0424  1.9063 -0.8065
33857SOL    HW2 3579   4.777   7.501   7.454  0.1727  0.4527 -0.5852
33858SOL     OW 3580   2.233   5.521   4.270  0.2139  0.1428  0.0921
33858SOL    HW1 3581   2.172   5.587   4.236 -0.5201  0.3823  1.7552
33858SOL    HW2 3582   2.222   5.526   4.365  1.1677 -1.4209  0.3125
33859SOL     OW 3583   4.185  10.444  11.051 -0.1446 -0.2074 -0.2503
33859SOL    HW1 3584   4.098  10.430  11.013  0.9196 -0.0430 -2.9349
33859SOL    HW2 3585   4.185  10.390  11.130 -2.1752 -1.4060 -0.9747
33860SOL     OW 3586   1.189   8.766   9.529  0.6492 -0.4037  0.1431
33860SOL    HW1 3587   1.246   8.830   9.572  0.4088 -0.6263  0.7986
33860SOL    HW2 3588   1.102   8.783   9.564  0.5974 -1.1526  0.4079
33861SOL     OW 3589   3.787   9.823   1.663  0.5223 -0.6258  0.0017
33861SOL    HW1 3590   3.880   9.820   1.689  0.7467 -1.7256 -0.8734
33861SOL    HW2 3591   3.743   9.768   1.728  0.3729  0.3752  0.7736
33862SOL     OW 3592   8.725   3.158   1.809 -0.0744  0.4704 -0.2625
33862SOL    HW1 3593   8.736   3.215   1.885 -1.7986  0.3469  0.1080
33862SOL    HW2 3594   8.654   3.098   1.833  0.0651 -0.2722 -1.5672
33863SOL     OW 3595   8.521   7.488  11.277  0.4537 -0.4426  0.3639
33863SOL    HW1 3596   8.555   7.507  11.364 -1.3753  0.9955  0.8197
33863SOL    HW2 3597   8.537   7.394  11.265  0.6140 -0.6968  2.3056
33864SOL     OW 3598  10.903   1.640   5.181  0.1980  1.0668  0.5600
33864SOL    HW1 3599  10.969   1.659   5.248  2.2326 -1.9334 -0.4004
33864SOL    HW2 3600  10.862   1.559   5.210  0.1036  0.4935 -1.0851
33865SOL     OW 3601   4.475   2.289   6.706 -0.2184 -0.4439  0.4074
33865SOL    HW1 3602   4.547   2.238   6.669 -1.5545 -2.7693  0.8551
33865SOL    HW2 3603   4.516   2.342   6.774  1.1240 -1.4683  0.4421
33866SOL     OW 3604   7.705  11.104   4.123 -0.0293 -0.1474 -0.6457
33866SOL    HW1 3605   7.783  11.049   4.127  0.1803  0.0124 -2.1867
33866SOL    HW2 3606   7.717  11.168   4.193  0.3921 -1.1705  0.2434
33867SOL     OW 3607   0.736   9.612   3.864 -0.4899  0.2561  0.3208
33867SOL    HW1 3608   0.802   9.674   3.832 -0.2834  0.6962  1.5409
33867SOL    HW2 3609   0.653   9.645   3.829 -0.1246 -0.0753 -0.9008
33868SOL     OW 3610  10.267   2.056   9.192 -0.1124 -0.4903  0.0831
33868SOL    HW1 3611  10.220   1.992   9.139 -0.1173 -0.2160 -0.2452
33868SOL    HW2 3612  10.199   2.098   9.245 -0.2553 -0.0473 -0.4390
33869SOL     OW 3613   5.988   2.075   2.384 -0.3108  0.7151  0.7827
33869SOL    HW1 3614   6.062   2.073   2.324 -0.1460  0.3260  0.9932
33869SOL    HW2 3615   5.958   1.984   2.388  1.2475  0.1967  3.2008
33870SOL     OW 3616   1.668   7.424   1.845  0.3376  0.4209  0.3278
33870SOL    HW1 3617   1.604   7.380   1.788  0.8269 -1.3142  1.0438
33870SOL    HW2 3618   1.750   7.418   1.797  0.3164  0.9932  0.2197
33871SOL     OW 3619   7.173   6.017   6.493 -0.0809  0.0962 -0.4861
33871SOL    HW1 3620   7.159   5.922   6.490  0.3410  0.0465 -3.5022
33871SOL    HW2 3621   7.268   6.027   6.495 -0.1305  0.5035  1.5898
33872SOL     OW 3622   2.836   8.394   2.665  0.3179 -0.8104 -0.4588
33872SOL    HW1 3623   2.746   8.414   2.691  1.3577  1.6959  1.6245
33872SOL    HW2 3624   2.869   8.337   2.735  0.5359 -1.3286 -0.9691
33873SOL     OW 3625   6.480   6.133   1.367 -0.0536 -0.6971  0.4305
33873SOL    HW1 3626   6.413   6.166   1.307  0.1662 -0.0992  0.5037
33873SOL    HW2 3627   6.480   6.196   1.439  1.2502 -0.1314 -0.0290
33874SOL     OW 3628   2.789   5.681   6.503  0.1055  0.2205 -0.4620
33874SOL    HW1 3629   2.835   5.711   6.581 -0.8171  1.2606 -0.2880
33874SOL    HW2 3630   2.850   5.620   6.461  0.6273 -0.3264  1.0345
33875SOL     OW 3631   5.054   5.970   2.037  1.0773  0.2979  0.8008
33875SOL    HW1 3632   5.034   6.053   1.993  0.2310 -0.8920 -1.2044
33875SOL    HW2 3633   5.047   5.990   2.130  1.0903  2.5109  0.3827
33876SOL     OW 3634   5.426   6.127   7.366  0.2311 -0.1977 -0.1225
33876SOL    HW1 3635   5.406   6.207   7.415  5.1244  0.2349  1.6975
33876SOL    HW2 3636   5.438   6.060   7.433  1.0691 -1.1710 -1.1982
33877SOL     OW 3637   2.551   0.672   0.529 -0.1810  0.3732 -1.2545
33877SOL    HW1 3638   2.460   0.671   0.557 -0.2666  0.7054 -1.5146
33877SOL    HW2 3639   2.591   0.598   0.575 -0.7387 -0.2007 -1.6764
33878SOL     OW 3640   4.169   6.145   0.405 -0.2667 -0.0749  0.4958
33878SOL    HW1 3641   4.216   6.153   0.488  0.0371  0.6848  0.2521
33878SOL    HW2 3642   4.083   6.109   0.430  0.6894 -2.3011  0.8579
33879SOL     OW 3643   8.901  10.138   8.833  0.7846 -0.3659 -0.3338
33879SOL    HW1 3644   8.814  10.097   8.833  1.4629 -1.8907 -0.1312
33879SOL    HW2 3645   8.908  10.180   8.748 -0.5850  0.7857  0.0850
33880SOL     OW 3646   5.338   0.897   9.705 -0.0216 -0.1314  0.4067
33880SOL    HW1 3647   5.375   0.894   9.617  1.6112  0.5975  1.0397
33880SOL    HW2 3648   5.303   0.986   9.714 -2.7001 -0.9937 -0.4249
33881SOL     OW 3649   5.470   4.090   3.080  0.4582  0.2925 -0.0543
33881SOL    HW1 3650   5.550   4.143   3.077  0.2310  0.5904 -1.3954
33881SOL    HW2 3651   5.399   4.154   3.075  0.1706 -0.0800 -0.8506
33882SOL     OW 3652  11.263   7.472   7.226 -0.4020  0.1634 -0.1103
33882SOL    HW1 3653  11.355   7.499   7.232 -0.2901 -0.1208 -0.5231
33882SOL    HW2 3654  11.253   7.404   7.293 -0.6045  0.9824  0.7162
33883SOL     OW 3655   7.931   7.457   2.372  0.0267 -0.7098 -0.5383
33883SOL    HW1 3656   8.014   7.483   2.331  0.6229 -1.1022  0.3937
33883SOL    HW2 3657   7.931   7.502   2.457 -0.3746 -1.2932 -0.2232
33884SOL     OW 3658   6.278   0.035   6.481  0.3961 -0.4069  0.6241
33884SOL    HW1 3659   6.264  -0.025   6.407  2.3456  0.4780 -0.5461
33884SOL    HW2 3660   6.215   0.105   6.467 -0.5253 -1.1778  0.8647
33885SOL     OW 3661   2.379   6.688   3.788  0.8309  0.3399 -0.6064
33885SOL    HW1 3662   2.438   6.614   3.800 -0.1743 -0.2114  1.1988
33885SOL    HW2 3663   2.435   6.765   3.799  1.4521 -0.1645 -0.2144
33886SOL     OW 3664   8.707   1.461  10.209  0.6444  0.2434 -0.5505
33886SOL    HW1 3665   8.666   1.385  10.167  0.3061  0.7000 -1.0622
33886SOL    HW2 3666   8.683   1.454  10.301 -2.9573  1.9217 -1.1831
33887SOL     OW 3667   2.580   6.599   7.747 -0.4645 -0.7956  1.1952
33887SOL    HW1 3668   2.534   6.600   7.663 -0.1310  1.8836  0.9411
33887SOL    HW2 3669   2.602   6.507   7.761  0.0886 -1.2774 -1.9869
33888SOL     OW 3670  11.228   9.920   0.751 -0.6424  0.0930 -1.2955
33888SOL    HW1 3671  11.256   9.834   0.780 -0.2456 -0.3132 -2.7654
33888SOL    HW2 3672  11.201   9.966   0.830  1.1432 -0.6372 -0.2131
33889SOL     OW 3673   3.477   1.258   9.781  0.2664 -0.5429 -0.2951
33889SOL    HW1 3674   3.531   1.181   9.803  0.5976  0.1876  1.6831
33889SOL    HW2 3675   3.387   1.228   9.796  0.3793 -0.6372  0.2316
33890SOL     OW 3676  10.060  10.366   9.926  0.7323 -0.5859 -0.2886
33890SOL    HW1 3677  10.136  10.421   9.907  0.2281  0.3814  0.4073
33890SOL    HW2 3678  10.048  10.374  10.021 -0.1177 -0.8723 -0.3660
33891SOL     OW 3679  11.046   3.234   0.541 -0.5273 -0.0577  0.1115
33891SOL    HW1 3680  11.053   3.192   0.455  0.0682  2.2566 -1.0439
33891SOL    HW2 3681  11.052   3.161   0.603 -0.5567 -1.7674 -1.7699
33892SOL     OW 3682   8.402   0.362   3.522 -0.9202 -0.8783  0.0687
33892SOL    HW1 3683   8.373   0.280   3.561  1.9145 -2.7970 -1.4760
33892SOL    HW2 3684   8.494   0.347   3.500 -0.6024  2.3244 -1.4079
33893SOL     OW 3685   6.347   2.276   2.819  0.2404  0.3819 -0.5737
33893SOL    HW1 3686   6.302   2.356   2.847 -1.0103 -0.4395 -0.1510
33893SOL    HW2 3687   6.327   2.269   2.725 -1.0806 -0.2974 -0.2674
33894SOL     OW 3688  10.381   7.282   1.541  0.0908 -0.0379  0.5851
33894SOL    HW1 3689  10.293   7.319   1.538 -0.7283 -1.9611 -0.1989
33894SOL    HW2 3690  10.382   7.228   1.620  0.2327 -0.8276  0.0449
33895SOL     OW 3691   7.493   5.324   0.769  0.3583  0.3100 -1.0764
33895SOL    HW1 3692   7.469   5.403   0.722  0.8910 -0.0169 -1.9127
33895SOL    HW2 3693   7.584   5.338   0.795  0.0216  0.5571  0.0185
33896SOL     OW 3694   9.068  10.376   9.041  0.4337  0.3078  0.0177
33896SOL    HW1 3695   9.094  10.336   8.958 -2.8898  0.9719 -1.5057
33896SOL    HW2 3696   9.035  10.303   9.094 -0.5842  0.2678 -0.6350
33897SOL     OW 3697   3.255   2.323   4.592  0.5150 -0.0821  0.2243
33897SOL    HW1 3698   3.248   2.336   4.686 -4.1453 -0.9638  0.2257
33897SOL    HW2 3699   3.269   2.229   4.581 -0.8471 -0.2953  0.1112
33898SOL     OW 3700   8.877   2.123   3.681  0.0627 -0.3315  0.5721
33898SOL    HW1 3701   8.962   2.119   3.638  0.5968  2.5180  1.1427
33898SOL    HW2 3702   8.868   2.038   3.724  1.4649 -1.6231 -1.5010
33899SOL     OW 3703   0.102   0.830   7.963  0.5201 -0.3068 -0.0176
33899SOL    HW1 3704   0.122   0.909   7.913  1.1100 -0.6469 -0.3403
33899SOL    HW2 3705   0.045   0.779   7.906 -0.4398  0.1930  0.4773
33900SOL     OW 3706   6.759   9.848   1.070  0.4721  0.5118 -0.2584
33900SOL    HW1 3707   6.765   9.764   1.025  0.0224  1.2637 -1.7921
33900SOL    HW2 3708   6.665   9.865   1.076  0.4800 -0.0056  1.8588
33901SOL     OW 3709   7.290   5.868   8.513  0.8241  0.0515  0.2755
33901SOL    HW1 3710   7.358   5.930   8.487 -0.0665  0.0641 -2.3571
33901SOL    HW2 3711   7.234   5.859   8.435 -1.5032 -0.8727  1.9144
33902SOL     OW 3712   3.063   0.590   3.634  0.9852  0.5792 -0.3328
33902SOL    HW1 3713   3.015   0.508   3.651  0.0840  0.9407 -1.0315
33902SOL    HW2 3714   3.117   0.570   3.558  2.5475 -0.0514  0.8925
33903SOL     OW 3715   9.277  10.975   7.292  0.0084 -0.2301 -0.1487
33903SOL    HW1 3716   9.208  10.908   7.280 -1.3687  1.1524 -0.2458
33903SOL    HW2 3717   9.276  10.992   7.386  0.1084 -0.0968 -0.1732
33904SOL     OW 3718   3.332   7.284   4.699 -0.1499  0.2222 -0.1084
33904SOL    HW1 3719   3.314   7.289   4.605 -1.1421 -2.8817 -0.2014
33904SOL    HW2 3720   3.424   7.259   4.704 -0.1420  0.2228 -0.2407
33905SOL     OW 3721   6.573   5.929   4.512  0.6976  0.1379  0.0745
33905SOL    HW1 3722   6.651   5.956   4.463 -0.2140 -0.1934 -1.6466
33905SOL    HW2 3723   6.601   5.853   4.562  1.2155 -0.7243 -1.4563
33906SOL     OW 3724  10.693  10.094  10.045 -0.0363  0.3919  0.4466
33906SOL    HW1 3725  10.671  10.182  10.013 -1.4230  0.4369  1.4440
33906SOL    HW2 3726  10.788  10.097  10.059  0.2612  1.0673 -1.4498
33907SOL     OW 3727   8.417   0.912   9.998 -0.0000  0.4762  0.5386
33907SOL    HW1 3728   8.342   0.967   9.976  0.3692  0.8446  0.1600
33907SOL    HW2 3729   8.385   0.822   9.994  0.3877  0.3440 -3.2474
33908SOL     OW 3730   7.074   2.255   9.669  0.0409 -0.0270 -0.1473
33908SOL    HW1 3731   7.011   2.203   9.719  0.1388 -0.9375 -0.9487
33908SOL    HW2 3732   7.092   2.330   9.725 -1.7281  0.2408  0.1110
33909SOL     OW 3733   1.952   4.601   5.941 -0.4588  0.2849 -0.3483
33909SOL    HW1 3734   2.041   4.573   5.960 -0.7696  0.0502  0.8186
33909SOL    HW2 3735   1.957   4.696   5.931  0.1851  0.1187 -1.9306
33910SOL     OW 3736   4.390   8.206   5.610 -0.6492  0.3550  0.7606
33910SOL    HW1 3737   4.364   8.119   5.641 -1.5202  0.1955 -0.3678
33910SOL    HW2 3738   4.457   8.189   5.544 -1.7074  0.4429 -0.3702
33911SOL     OW 3739   3.006   4.828   5.598 -0.4027 -0.0375  0.6461
33911SOL    HW1 3740   3.018   4.748   5.649  4.5403  0.9367  1.4873
33911SOL    HW2 3741   3.010   4.898   5.662  0.6872  1.0309 -0.5469
33912SOL     OW 3742   6.723   6.951   2.570 -0.2404 -0.6257 -0.0421
33912SOL    HW1 3743   6.789   7.019   2.577 -0.3322 -0.5594  0.1723
33912SOL    HW2 3744   6.648   6.985   2.619  0.1480 -1.4248  1.1255
33913SOL     OW 3745   8.808   0.579   6.516 -0.4136  0.4258  0.2982
33913SOL    HW1 3746   8.814   0.489   6.483  1.5865  0.6420 -0.0933
33913SOL    HW2 3747   8.810   0.570   6.611  0.5834  0.0663  0.2562
33914SOL     OW 3748   6.463   8.788   3.050  0.1142 -0.3428  0.0866
33914SOL    HW1 3749   6.459   8.733   3.128  0.8805 -0.4100  0.0842
33914SOL    HW2 3750   6.374   8.821   3.039 -0.5001 -1.9994 -0.2143
33915SOL     OW 3751  10.966   6.154   3.741  0.5700 -0.3504  0.5597
33915SOL    HW1 3752  10.957   6.249   3.730  2.6797 -0.0145  1.3607
33915SOL    HW2 3753  10.878   6.125   3.765 -0.4517  1.1705 -1.0936
33916SOL     OW 3754   3.084   3.439   1.614  0.1616 -0.0031 -0.4142
33916SOL    HW1 3755   3.146   3.494   1.567 -0.9222  0.2845 -1.5745
33916SOL    HW2 3756   3.128   3.355   1.624  1.0876  0.4855 -0.3548
33917SOL     OW 3757   1.354   9.003   4.608  0.4605 -0.2633  0.2640
33917SOL    HW1 3758   1.398   8.986   4.691  1.0087 -0.6493 -0.1018
33917SOL    HW2 3759   1.374   9.095   4.588  1.1770 -0.4656  0.0515
33918SOL     OW 3760   1.454   3.669   1.738  0.2376 -0.8927  0.1100
33918SOL    HW1 3761   1.525   3.711   1.690 -1.3423 -1.9710 -3.5383
33918SOL    HW2 3762   1.494   3.593   1.779  1.7008  0.1783  0.7755
33919SOL     OW 3763   1.548  10.957   3.539 -0.1420 -0.0460  0.0452
33919SOL    HW1 3764   1.598  11.023   3.588 -1.7707 -0.2967  2.1663
33919SOL    HW2 3765   1.484  10.924   3.602 -0.4104 -2.5526 -1.4321
33920SOL     OW 3766   9.052  10.363   5.409 -0.4123  0.1548  0.1733
33920SOL    HW1 3767   9.030  10.431   5.473 -1.9674  0.9559 -1.1389
33920SOL    HW2 3768   9.061  10.283   5.461  1.3395  1.2953  1.7425
33921SOL     OW 3769   5.371   8.685   3.002  0.1449 -0.2729  0.5459
33921SOL    HW1 3770   5.433   8.698   3.074  0.1798 -1.7239  0.8100
33921SOL    HW2 3771   5.320   8.767   3.000  1.6597  0.7175  0.6874
33922SOL     OW 3772   5.845   5.344   1.345  0.7307 -0.2078  0.2844
33922SOL    HW1 3773   5.868   5.436   1.355  2.0283 -0.2880 -1.3774
33922SOL    HW2 3774   5.891   5.300   1.416  1.4228  0.2597  0.1346
33923SOL     OW 3775   1.246   1.738   3.588  0.1681  0.2927  0.4803
33923SOL    HW1 3776   1.182   1.795   3.546 -0.8273 -1.4904 -0.5572
33923SOL    HW2 3777   1.226   1.745   3.681 -3.0359 -1.7090  0.1315
33924SOL     OW 3778   4.090   5.218   5.758  0.3020  0.1722  0.0615
33924SOL    HW1 3779   4.054   5.276   5.690 -1.5513  1.6102  2.1519
33924SOL    HW2 3780   4.168   5.264   5.789 -0.5025  1.0020  0.9010
33925SOL     OW 3781  10.930   0.016   2.409  0.7307  0.7163 -0.2988
33925SOL    HW1 3782  10.988   0.075   2.361 -0.0750  1.1910 -0.7026
33925SOL    HW2 3783  10.896  -0.043   2.342 -0.0813  1.1257 -0.2587
33926SOL     OW 3784   6.339   2.700  11.211  0.3297 -0.3189  0.3111
33926SOL    HW1 3785   6.328   2.772  11.150  0.8685 -0.0989  0.4633
33926SOL    HW2 3786   6.427   2.666  11.192  1.9588  1.8737  3.1310
33927SOL     OW 3787   9.012   2.506   1.000  0.0676 -0.2259  0.4155
33927SOL    HW1 3788   8.985   2.576   0.942 -0.2648 -1.2172 -0.6612
33927SOL    HW2 3789   8.937   2.446   1.002  0.1044 -0.2602  1.8048
33928SOL     OW 3790   5.851  10.142   9.184 -0.1227 -0.2065  0.0427
33928SOL    HW1 3791   5.897  10.076   9.132  1.6296  0.8706  0.1444
33928SOL    HW2 3792   5.884  10.225   9.152 -1.8129  0.6315  0.3522
33929SOL     OW 3793   2.791  10.574   8.294 -0.8042 -0.5216  0.4895
33929SOL    HW1 3794   2.813  10.509   8.362  0.2933  0.4560  1.1135
33929SOL    HW2 3795   2.757  10.649   8.343 -0.0517  0.1761 -0.0266
33930SOL     OW 3796  10.339  10.873   1.107 -0.3239  0.2043 -0.1377
33930SOL    HW1 3797  10.279  10.799   1.119 -2.5056  1.9998  0.6290
33930SOL    HW2 3798  10.290  10.949   1.137  1.7178  2.0463 -1.1917
33931SOL     OW 3799   4.646   7.430   7.101 -0.1646  0.5851  0.2213
33931SOL    HW1 3800   4.653   7.357   7.039  1.0374  1.5427 -0.8299
33931SOL    HW2 3801   4.595   7.395   7.174  0.2829 -1.2733 -0.3045
33932SOL     OW 3802   0.859   7.315   7.959  0.3162 -0.3594  0.3118
33932SOL    HW1 3803   0.792   7.247   7.952  0.1056 -0.3061  1.5612
33932SOL    HW2 3804   0.873   7.345   7.869  0.2166 -1.8532 -0.2173
33933SOL     OW 3805   4.329   7.447   7.181  0.1202  0.1867  0.1310
33933SOL    HW1 3806   4.316   7.452   7.086  0.6348  0.2092  0.0544
33933SOL    HW2 3807   4.281   7.370   7.208  2.1762 -1.4377 -0.5716
33934SOL     OW 3808   9.298   2.457   9.174 -0.2708  0.0181  0.6057
33934SOL    HW1 3809   9.273   2.368   9.150 -0.8671  0.3088  0.1028
33934SOL    HW2 3810   9.221   2.510   9.154 -0.4200  0.4479  2.2204
33935SOL     OW 3811   7.859   5.413   0.529 -0.1752 -0.0263  0.0920
33935SOL    HW1 3812   7.851   5.374   0.442 -1.0667 -1.0507  0.6092
33935SOL    HW2 3813   7.810   5.495   0.523 -0.2888 -0.1208 -0.3522
33936SOL     OW 3814   8.204   9.869   1.478  0.5414  0.0844 -0.5931
33936SOL    HW1 3815   8.275   9.906   1.426  1.3455 -1.4094 -0.6311
33936SOL    HW2 3816   8.191   9.781   1.442 -0.8236  0.0515 -0.0919
33937SOL     OW 3817   8.594   3.511   5.633  0.0272 -0.4659  0.0550
33937SOL    HW1 3818   8.502   3.495   5.613 -0.8537  2.4438  1.1702
33937SOL    HW2 3819   8.608   3.602   5.607  1.9480 -0.1468  1.9320
33938SOL     OW 3820   7.476   2.724   6.494 -0.3945  0.2761  0.5063
33938SOL    HW1 3821   7.531   2.652   6.527 -1.5362 -0.9026 -0.0562
33938SOL    HW2 3822   7.501   2.800   6.547  3.4561  0.4399 -1.2226
33939SOL     OW 3823   5.000   7.310   0.588 -0.7457 -0.5113 -0.2559
33939SOL    HW1 3824   5.047   7.383   0.627  0.5327 -1.4349 -0.0132
33939SOL    HW2 3825   4.953   7.349   0.514  0.3645  0.4608 -0.4847
33940SOL     OW 3826   6.914   0.085   4.596  0.6857 -0.0855  0.2274
33940SOL    HW1 3827   6.851   0.157   4.601  0.7841 -0.0617  3.6934
33940SOL    HW2 3828   6.998   0.127   4.579  0.7297  0.6849  2.1412
33941SOL     OW 3829   0.565  10.512   0.901  0.0895 -0.6201  0.3890
33941SOL    HW1 3830   0.631  10.446   0.881  0.6740  0.8016 -3.3790
33941SOL    HW2 3831   0.501  10.503   0.830 -0.5393  1.8791  0.5392
33942SOL     OW 3832   8.273   1.427   3.091  0.2335 -0.1396 -0.0265
33942SOL    HW1 3833   8.180   1.414   3.075  0.1728  1.1723 -0.8302
33942SOL    HW2 3834   8.304   1.478   3.016  1.5042 -0.1530  0.4607
33943SOL     OW 3835   3.532   3.653   1.310 -0.1166  0.3684 -0.3176
33943SOL    HW1 3836   3.564   3.729   1.262 -0.2808  1.1196  0.7448
33943SOL    HW2 3837   3.610   3.600   1.326 -0.0012  0.3147 -1.0499
33944SOL     OW 3838   2.662   4.823   8.236 -0.8683 -0.6569  0.2295
33944SOL    HW1 3839   2.698   4.784   8.317  0.8695 -0.4219 -0.3834
33944SOL    HW2 3840   2.739   4.854   8.188 -1.7266 -1.9066 -2.1156
33945SOL     OW 3841   3.518   6.294   8.300 -0.1331 -0.3148 -0.4920
33945SOL    HW1 3842   3.613   6.304   8.304  0.2569 -2.4390 -2.5840
33945SOL    HW2 3843   3.484   6.383   8.311  2.1853  0.8375 -1.9136
33946SOL     OW 3844   2.148   5.654   9.962 -0.1348  0.2127  0.8145
33946SOL    HW1 3845   2.173   5.570   9.923  0.9110  0.5523  0.7176
33946SOL    HW2 3846   2.070   5.634  10.014 -0.4642 -0.6179  0.0314
33947SOL     OW 3847  11.014   5.154   0.719  0.2594  0.4920 -0.2243
33947SOL    HW1 3848  11.092   5.146   0.663  0.5312  2.1016 -0.1427
33947SOL    HW2 3849  10.997   5.249   0.720 -1.1680  0.2367  0.4903
33948SOL     OW 3850   6.247   9.464  10.772 -0.6274  1.3740 -0.0265
33948SOL    HW1 3851   6.163   9.470  10.818 -0.2046  1.6056  0.7329
33948SOL    HW2 3852   6.302   9.530  10.814  0.3356  0.3716  0.3351
33949SOL     OW 3853   0.638   8.748   4.495  0.1788  0.7632 -0.4239
33949SOL    HW1 3854   0.728   8.742   4.527 -0.3333 -0.7913  0.8332
33949SOL    HW2 3855   0.607   8.658   4.491 -1.3193  1.2578 -0.8713
33950SOL     OW 3856   5.949   4.157   9.885  0.2250  0.0862  0.4684
33950SOL    HW1 3857   5.934   4.137   9.978 -0.2783 -2.7211 -0.1137
33950SOL    HW2 3858   5.904   4.240   9.871 -3.1647 -1.3044  1.9045
33951SOL     OW 3859   1.001   0.358   7.745  0.0963  0.3762 -0.4377
33951SOL    HW1 3860   1.038   0.429   7.797 -0.0966  0.0565  0.1444
33951SOL    HW2 3861   0.988   0.396   7.658  0.3613  0.9317 -0.2377
33952SOL     OW 3862   9.351   0.008   9.104  0.0357  0.1692 -0.0863
33952SOL    HW1 3863   9.445   0.001   9.123 -0.1519 -1.9813  0.2673
33952SOL    HW2 3864   9.312   0.037   9.186  0.2716  0.0173  0.0816
33953SOL     OW 3865   7.157   6.115   6.044 -0.0853  0.0615 -0.1964
33953SOL    HW1 3866   7.074   6.153   6.014 -0.5956 -1.1405 -0.3658
33953SOL    HW2 3867   7.224   6.165   5.998 -0.7303  0.6516 -0.5255
33954SOL     OW 3868   8.425   9.915   6.564 -0.4769  0.6029  0.4564
33954SOL    HW1 3869   8.442   9.822   6.555  0.6772  0.7668  0.7950
33954SOL    HW2 3870   8.507   9.957   6.537 -0.3976  1.4533  1.9350
33955SOL     OW 3871   1.257   5.624   5.984 -0.0450  0.3890 -0.1134
33955SOL    HW1 3872   1.224   5.553   6.038 -0.8701 -0.7048 -1.9787
33955SOL    HW2 3873   1.192   5.693   5.992  0.2397  0.5576  0.8840
33956SOL     OW 3874   2.191   1.206   7.193 -0.0696 -0.0564 -0.6825
33956SOL    HW1 3875   2.220   1.123   7.156  0.5163  0.1188 -0.6201
33956SOL    HW2 3876   2.258   1.229   7.257 -0.6651  0.0400 -0.0723
33957SOL     OW 3877   2.668   8.368   1.923  0.5184 -0.2285 -0.2300
33957SOL    HW1 3878   2.649   8.401   2.011  0.9844 -1.9994  0.5757
33957SOL    HW2 3879   2.763   8.355   1.922  0.2491 -2.5743 -0.0912
33958SOL     OW 3880   5.253   9.107   0.086 -0.2800 -0.4996 -0.2851
33958SOL    HW1 3881   5.221   9.195   0.102  1.2313 -0.3076  2.0876
33958SOL    HW2 3882   5.348   9.113   0.093 -0.0642 -2.1579 -1.0661
33959SOL     OW 3883   0.662   3.344   5.553 -0.3388 -0.0411 -0.0001
33959SOL    HW1 3884   0.610   3.387   5.621  0.7527 -0.5394  1.1814
33959SOL    HW2 3885   0.613   3.360   5.472 -1.9585  0.0786  0.9658
33960SOL     OW 3886   7.168   7.175   9.959  0.3292 -0.6113  0.3991
33960SOL    HW1 3887   7.138   7.263   9.982  0.5351 -0.7255  1.1156
33960SOL    HW2 3888   7.170   7.128  10.042 -0.0179 -1.3682 -0.0095
33961SOL     OW 3889   8.433   4.500   2.923  0.1676  0.4419 -0.4973
33961SOL    HW1 3890   8.520   4.490   2.961  1.0928  1.6494 -2.1475
33961SOL    HW2 3891   8.403   4.585   2.954  0.4905  0.9647 -1.5588
33962SOL     OW 3892   9.005  10.698   6.624 -0.2324  0.0181 -0.1560
33962SOL    HW1 3893   9.001  10.744   6.540 -0.8313  1.2841  0.5328
33962SOL    HW2 3894   8.991  10.766   6.689  0.3717 -0.9167  0.9930
33963SOL     OW 3895   8.614   7.900   4.450  0.0050  1.2884  0.7070
33963SOL    HW1 3896   8.562   7.926   4.374  1.3960 -1.5672 -1.3635
33963SOL    HW2 3897   8.695   7.950   4.443 -0.6450  2.5393  1.5548
33964SOL     OW 3898   3.469   4.764   6.080 -0.1459  0.1929  0.4280
33964SOL    HW1 3899   3.513   4.822   6.142 -0.7581  0.3559  0.7123
33964SOL    HW2 3900   3.433   4.693   6.133  1.1663 -0.8319  0.0103
33965SOL     OW 3901   2.283   0.251   2.104 -0.8159  0.3116 -0.0034
33965SOL    HW1 3902   2.207   0.306   2.123 -0.3359  1.0540 -0.1823
33965SOL    HW2 3903   2.324   0.292   2.028 -0.4347 -0.2858 -0.1305
33966SOL     OW 3904   4.574   1.811   4.425  0.0278  0.0451 -0.2532
33966SOL    HW1 3905   4.653   1.775   4.386  0.9025  0.7005  0.8550
33966SOL    HW2 3906   4.598   1.900   4.452 -0.5918 -0.2693  1.5029
33967SOL     OW 3907   5.355   9.990   3.827 -0.1991  0.2232 -0.3324
33967SOL    HW1 3908   5.408  10.036   3.892 -4.4578  3.5229  1.3098
33967SOL    HW2 3909   5.335  10.058   3.762 -0.0783 -1.7094 -2.5019
33968SOL     OW 3910   7.490   3.337   8.441  0.1706 -0.1244  0.0613
33968SOL    HW1 3911   7.538   3.420   8.442 -1.1573  0.6954 -0.9558
33968SOL    HW2 3912   7.520   3.292   8.520  0.9860  1.2779  0.5989
33969SOL     OW 3913   1.822   5.368   0.235  0.6644  0.1042  0.5960
33969SOL    HW1 3914   1.851   5.309   0.166  1.3118 -0.9763  1.7539
33969SOL    HW2 3915   1.758   5.425   0.193  0.3861 -1.1047 -0.6684
33970SOL     OW 3916   9.987   1.765   9.754  0.6993 -0.2653  0.3755
33970SOL    HW1 3917   9.940   1.694   9.799 -1.7226  0.3009 -1.0663
33970SOL    HW2 3918   9.924   1.838   9.754  2.0663  0.9593 -0.6252
33971SOL     OW 3919   9.533   9.083   7.639  0.5062  0.2757 -0.4450
33971SOL    HW1 3920   9.624   9.052   7.630  0.1773 -0.0622 -3.8988
33971SOL    HW2 3921   9.526   9.110   7.731  3.1446 -2.6116  0.7921
33972SOL     OW 3922   4.080   8.035  10.090  0.1421 -0.1283 -0.0531
33972SOL    HW1 3923   4.116   8.080  10.167  0.9661  0.8238 -0.9647
33972SOL    HW2 3924   4.107   7.944  10.102 -0.6543 -0.2184  1.3022
33973SOL     OW 3925   9.273   6.597   5.571 -0.2124  0.6272  0.2662
33973SOL    HW1 3926   9.209   6.581   5.640 -1.0426  2.0978 -0.1127
33973SOL    HW2 3927   9.318   6.513   5.559 -1.6875 -0.2858  0.9200
33974SOL     OW 3928   4.791   4.439   7.362 -0.5003  0.0912  0.6029
33974SOL    HW1 3929   4.874   4.434   7.410 -1.6451 -1.7338  2.5898
33974SOL    HW2 3930   4.754   4.351   7.371 -2.7909  0.9535  0.0682
33975SOL     OW 3931   8.611   4.199   1.453  0.4778  0.6233  0.0749
33975SOL    HW1 3932   8.530   4.156   1.426 -0.3187  0.8659  1.9636
33975SOL    HW2 3933   8.615   4.277   1.398  0.2049 -0.1193 -1.0419
33976SOL     OW 3934   9.298   6.217   2.941  0.4480  0.0201  0.0451
33976SOL    HW1 3935   9.289   6.311   2.927  0.0843 -0.1707 -1.0824
33976SOL    HW2 3936   9.253   6.201   3.024  0.8455  0.8938  0.4370
33977SOL     OW 3937   3.622   3.208   4.810 -0.6341 -0.0441 -0.6777
33977SOL    HW1 3938   3.686   3.278   4.809 -1.2849  0.6162 -3.2205
33977SOL    HW2 3939   3.665   3.135   4.764 -1.5172  0.3036 -2.1379
33978SOL     OW 3940   6.605   5.064  10.376  0.2041 -0.1425 -0.0582
33978SOL    HW1 3941   6.628   5.077  10.283 -2.8396  0.5665 -0.8074
33978SOL    HW2 3942   6.512   5.086  10.381  0.1887 -0.5394  3.1347
33979SOL     OW 3943   6.401   8.063   0.956  0.4583 -0.1957 -0.1597
33979SOL    HW1 3944   6.430   8.024   1.038 -0.1150 -1.3817 -0.5030
33979SOL    HW2 3945   6.407   8.158   0.970  1.2000 -0.4002  0.9352
33980SOL     OW 3946   2.219  10.365   4.552  0.2799 -0.4802 -0.3583
33980SOL    HW1 3947   2.303  10.411   4.546  0.3833 -0.4464  1.1164
33980SOL    HW2 3948   2.174  10.405   4.626 -1.0478 -0.5266 -1.0892
33981SOL     OW 3949  10.470   1.783   4.148 -0.3910  0.5574 -0.1166
33981SOL    HW1 3950  10.537   1.750   4.208 -0.3413  0.4215 -0.2463
33981SOL    HW2 3951  10.518   1.830   4.080 -0.5114  1.6297  0.5184
33982SOL     OW 3952   2.667   8.657  10.610  0.1276  1.0996 -0.2548
33982SOL    HW1 3953   2.590   8.679  10.557  0.0210  0.6869 -0.2799
33982SOL    HW2 3954   2.717   8.738  10.617  0.1547  1.1462 -1.0104
33983SOL     OW 3955   3.375  10.804   3.956 -0.4176  0.1673  0.1577
33983SOL    HW1 3956   3.346  10.893   3.937 -1.0632 -0.0861 -0.0444
33983SOL    HW2 3957   3.436  10.815   4.029 -0.6393  0.7576  0.2634
33984SOL     OW 3958  10.293   8.454   4.253 -0.4713 -0.2217 -0.2804
33984SOL    HW1 3959  10.338   8.420   4.176 -0.7584  1.1329 -1.0952
33984SOL    HW2 3960  10.294   8.549   4.241 -0.2746  0.0512  1.5412
33985SOL     OW 3961   7.362   4.759   5.576 -0.7581 -0.1648  0.5478
33985SOL    HW1 3962   7.362   4.850   5.603  0.1974  0.2045 -0.6307
33985SOL    HW2 3963   7.393   4.711   5.653 -0.4551  0.5914  0.9048
33986SOL     OW 3964   5.600   6.031   4.593 -0.0185  0.1518  0.0804
33986SOL    HW1 3965   5.533   6.071   4.539  0.2501  0.2046 -0.2152
33986SOL    HW2 3966   5.590   6.073   4.679 -0.3516  0.1678  0.0332
33987SOL     OW 3967   0.559   5.387   2.752 -0.0281 -0.9235  0.1053
33987SOL    HW1 3968   0.489   5.409   2.691 -0.2938  1.5889  1.2172
33987SOL    HW2 3969   0.636   5.433   2.719  0.5680 -1.8733  0.1202
33988SOL     OW 3970   4.374   0.420   3.966 -0.1003 -0.0121  0.3233
33988SOL    HW1 3971   4.300   0.447   3.913  0.4879 -1.8465 -1.5855
33988SOL    HW2 3972   4.450   0.460   3.924  0.4255 -1.8733 -0.6320
33989SOL     OW 3973   6.714   4.203   3.153 -0.2425  0.6961  0.0859
33989SOL    HW1 3974   6.746   4.169   3.069 -1.6372 -1.2024  0.2388
33989SOL    HW2 3975   6.787   4.254   3.188  1.5492 -1.0789 -0.8369
33990SOL     OW 3976   4.436   0.121   2.274 -0.2104  0.4938 -0.0279
33990SOL    HW1 3977   4.479   0.175   2.208  1.2166 -0.3657  0.1650
33990SOL    HW2 3978   4.379   0.063   2.223 -0.5608  1.0881 -0.3396
33991SOL     OW 3979   1.940   7.406  10.202  0.2336 -0.4386 -0.0857
33991SOL    HW1 3980   1.996   7.482  10.185 -0.1406 -0.0949  0.1872
33991SOL    HW2 3981   1.906   7.422  10.290 -0.1842 -0.7128 -0.1987
33992SOL     OW 3982   4.344   5.494   7.703  0.1059  0.1751  0.1867
33992SOL    HW1 3983   4.395   5.478   7.782  0.4243  0.8165  0.1231
33992SOL    HW2 3984   4.298   5.412   7.686  2.4615 -1.0396 -0.7365
33993SOL     OW 3985   6.475   0.919   7.796 -0.1532 -0.4858 -0.3934
33993SOL    HW1 3986   6.406   0.855   7.814  0.1225 -0.6283  0.1611
33993SOL    HW2 3987   6.430   1.004   7.798 -0.4691 -0.6372 -0.8770
33994SOL     OW 3988   5.189   8.012   0.832  0.4046 -0.4390  0.0427
33994SOL    HW1 3989   5.105   8.048   0.864  1.4876  2.7395 -0.3089
33994SOL    HW2 3990   5.244   8.008   0.909  0.4675 -0.9056 -0.0223
33995SOL     OW 3991   9.033   6.451   4.473  0.4631  0.3392 -0.3508
33995SOL    HW1 3992   8.967   6.520   4.477  1.2225  1.0255  0.8627
33995SOL    HW2 3993   9.058   6.436   4.564  0.5081 -1.3721 -0.6035
33996SOL     OW 3994   6.740   0.572   1.713  0.1401 -0.4448 -0.0430
33996SOL    HW1 3995   6.721   0.546   1.623 -0.2517 -2.2838  0.5242
33996SOL    HW2 3996   6.731   0.491   1.764  0.0207  0.6062  1.7033
33997SOL     OW 3997   0.869   2.850   7.314 -0.4015 -0.2788 -0.1800
33997SOL    HW1 3998   0.950   2.898   7.334  0.8639 -2.8498  1.5116
33997SOL    HW2 3999   0.805   2.917   7.293  1.6997  1.9861  0.2657
33998SOL     OW 4000  10.446   1.838   3.138  0.2649  0.1707  1.0625
33998SOL    HW1 4001  10.438   1.926   3.101 -0.7010  0.1493  1.1894
33998SOL    HW2 4002  10.537   1.832   3.165  1.9206 -0.7194 -3.6345
33999SOL     OW 4003  10.073   5.585   7.781 -0.0824 -0.8967  0.3716
33999SOL    HW1 4004  10.165   5.564   7.767  0.3331  1.6593 -1.4014
33999SOL    HW2 4005  10.026   5.523   7.725  0.6816 -0.9986 -0.1757
34000SOL     OW 4006   1.435   1.320   8.561  0.3595 -0.0081 -0.4122
34000SOL    HW1 4007   1.407   1.286   8.476  0.0226  0.1886 -0.3794
34000SOL    HW2 4008   1.357   1.359   8.599  0.8223  1.1402 -0.6060
34001SOL     OW 4009   1.912  10.843   1.014 -0.6257 -0.2729 -0.2376
34001SOL    HW1 4010   1.918  10.903   0.939  1.2393 -0.1388 -0.0457
34001SOL    HW2 4011   1.980  10.873   1.074 -1.4086 -1.0086  1.0633
34002SOL     OW 4012   1.331   7.202   7.403  0.1600  0.0575  0.5373
34002SOL    HW1 4013   1.289   7.276   7.360 -0.6691 -1.3463 -1.1391
34002SOL    HW2 4014   1.387   7.163   7.336  0.8659 -0.6406  1.4997
34003SOL     OW 4015   2.222   2.089   7.831  0.5499 -0.1157  0.0944
34003SOL    HW1 4016   2.218   2.174   7.875  0.2238  0.1046 -0.3518
34003SOL    HW2 4017   2.132   2.074   7.801  0.6869 -0.4457 -0.1517
34004SOL     OW 4018   9.557   5.839  10.166  0.1599  0.3762 -0.5397
34004SOL    HW1 4019   9.587   5.774  10.230 -0.6886 -0.0561 -0.5662
34004SOL    HW2 4020   9.617   5.829  10.092  0.0486 -0.3701 -0.5360
34005SOL     OW 4021   7.281   3.105  10.390  0.1940  0.0094 -0.4295
34005SOL    HW1 4022   7.310   3.104  10.481  0.2030  1.0329 -0.4082
34005SOL    HW2 4023   7.247   3.194  10.377  0.8208  0.0943 -1.6091
34006SOL     OW 4024   7.065   9.497   9.412  0.0838  0.5584 -0.1020
34006SOL    HW1 4025   7.053   9.589   9.432 -1.7456  0.4244 -0.4535
34006SOL    HW2 4026   7.158   9.480   9.431 -0.3781  1.4729  3.9101
34007SOL     OW 4027   9.918   5.173   8.811 -0.2854 -0.0455 -0.1207
34007SOL    HW1 4028   9.834   5.128   8.821  0.3940 -0.9060  3.8178
34007SOL    HW2 4029   9.977   5.104   8.779  0.0833 -1.3435  2.9667
34008SOL     OW 4030   1.614   7.384   4.964  0.0448 -0.5395  0.0476
34008SOL    HW1 4031   1.579   7.416   4.881 -0.9020  1.0645  1.0028
34008SOL    HW2 4032   1.536   7.366   5.017  0.5542  1.4866  1.6353
34009SOL     OW 4033   0.159   3.457   9.417  0.8605  0.4605  0.7156
34009SOL    HW1 4034   0.080   3.420   9.457  1.4430 -0.1179  1.3681
34009SOL    HW2 4035   0.210   3.380   9.391  2.4148  0.7488  2.7084
34010SOL     OW 4036  10.739   0.176   5.966 -0.2688 -0.0504  0.3716
34010SOL    HW1 4037  10.708   0.086   5.979 -0.3939 -0.3321 -1.5429
34010SOL    HW2 4038  10.828   0.175   6.001  0.3989 -1.4703 -1.1655
34011SOL     OW 4039   3.514   3.235   0.557  0.2828 -0.3895 -0.6359
34011SOL    HW1 4040   3.509   3.309   0.495  1.1345  0.8756  0.7322
34011SOL    HW2 4041   3.598   3.247   0.601 -0.7437 -0.6452  1.4891
34012SOL     OW 4042   2.707   4.696   1.092  0.1898 -0.3303  0.8662
34012SOL    HW1 4043   2.765   4.636   1.044  1.6505  1.0291  0.8467
34012SOL    HW2 4044   2.751   4.709   1.176 -1.1590 -0.8615  1.6777
34013SOL     OW 4045   2.472   3.198   5.860  0.1992 -0.3128  0.1568
34013SOL    HW1 4046   2.566   3.184   5.850  0.2250 -0.8551  1.0361
34013SOL    HW2 4047   2.465   3.272   5.922  0.0459  2.4183 -2.8457
34014SOL     OW 4048   8.830   8.709   0.026 -0.2817 -0.3089 -0.3164
34014SOL    HW1 4049   8.858   8.662  -0.053  0.4889 -1.2545  0.4930
34014SOL    HW2 4050   8.812   8.798  -0.005 -0.4398 -0.7697 -1.6373
34015SOL     OW 4051   3.565   2.839   3.135  0.6900 -0.1800  0.6206
34015SOL    HW1 4052   3.608   2.917   3.100  0.1106 -0.3874 -0.6290
34015SOL    HW2 4053   3.493   2.822   3.074  2.0260 -2.8826 -0.3501
34016SOL     OW 4054   5.418  11.098   3.949  0.2034  0.2094 -0.7874
34016SOL    HW1 4055   5.441  11.053   4.030 -0.5718  0.3102 -0.4982
34016SOL    HW2 4056   5.467  11.180   3.952 -1.7096  1.3875  0.8269
34017SOL     OW 4057   3.355   2.545   7.679 -0.0976 -0.3496  0.1529
34017SOL    HW1 4058   3.261   2.552   7.658  0.0241  0.7900 -0.0726
34017SOL    HW2 4059   3.360   2.562   7.773 -0.1474 -0.6757  0.2139
34018SOL     OW 4060   3.157   1.351   9.842  0.4104 -0.1916 -0.6622
34018SOL    HW1 4061   3.146   1.407   9.919  0.1995  1.4921 -1.8734
34018SOL    HW2 4062   3.182   1.265   9.878 -2.7950 -0.3923  1.4776
34019SOL     OW 4063   8.453   8.056   6.742 -0.7955  0.0442 -0.0219
34019SOL    HW1 4064   8.506   8.126   6.701 -2.7217  0.6348 -1.6511
34019SOL    HW2 4065   8.475   8.062   6.835  2.8706 -0.5447 -0.6797
34020SOL     OW 4066   0.141   4.886   6.888  0.3459 -0.3573 -0.2173
34020SOL    HW1 4067   0.208   4.896   6.955  1.1898 -0.8244 -0.9623
34020SOL    HW2 4068   0.058   4.897   6.934  0.9299  3.1572  0.2354
34021SOL     OW 4069   3.844   2.540  10.945 -0.2025 -0.7097 -0.2092
34021SOL    HW1 4070   3.820   2.541  11.038  0.5029  0.6819 -0.0262
34021SOL    HW2 4071   3.866   2.448  10.927 -3.6655 -1.7645  0.0780
34022SOL     OW 4072   7.384  11.211   4.705 -0.5909  0.6503 -0.6353
34022SOL    HW1 4073   7.425  11.273   4.766 -1.5104  0.3038  0.3550
34022SOL    HW2 4074   7.368  11.263   4.626  0.8755  1.0374 -0.7125
34023SOL     OW 4075   2.159   3.649   7.173 -0.3175  0.3854 -0.3284
34023SOL    HW1 4076   2.197   3.586   7.235  0.0044  0.5972 -0.3051
34023SOL    HW2 4077   2.235   3.682   7.124 -0.5037  0.6244 -0.4568
34024SOL     OW 4078   9.730   9.587   4.014 -0.2727  0.4128 -0.4030
34024SOL    HW1 4079   9.786   9.522   3.971 -0.5793 -0.3711  0.3678
34024SOL    HW2 4080   9.676   9.622   3.943 -0.2539 -0.3213 -0.7914
34025SOL     OW 4081   6.528   3.722   8.267  0.3677 -0.3624  0.4427
34025SOL    HW1 4082   6.473   3.799   8.277 -0.4139 -0.8675  0.1626
34025SOL    HW2 4083   6.484   3.654   8.320  0.2404 -1.0016 -0.4557
34026SOL     OW 4084   5.303   5.700   9.409 -0.6500 -0.6624  0.4046
34026SOL    HW1 4085   5.218   5.656   9.400 -0.2963 -1.3940  0.6178
34026SOL    HW2 4086   5.363   5.632   9.440  0.5016 -0.7229 -1.7024
34027SOL     OW 4087   6.525   3.202   0.377  0.7129  0.2308 -0.1833
34027SOL    HW1 4088   6.507   3.289   0.341  2.4462  0.4127 -0.7127
34027SOL    HW2 4089   6.607   3.175   0.334 -0.7061 -2.4543 -1.4357
34028SOL     OW 4090   9.167   3.084   4.811  0.0530 -0.0826  0.2491
34028SOL    HW1 4091   9.086   3.100   4.761 -1.6028 -1.6660  2.2277
34028SOL    HW2 4092   9.204   3.006   4.771  0.0296  0.0266  0.0095
34029SOL     OW 4093   5.432   1.493   5.695 -0.2109  0.4161  0.4238
34029SOL    HW1 4094   5.364   1.501   5.761  2.3499 -0.3813  3.3589
34029SOL    HW2 4095   5.466   1.582   5.685 -0.2498  0.4478  0.5747
34030SOL     OW 4096   8.328   6.336   2.800 -0.2260 -0.2996 -0.2769
34030SOL    HW1 4097   8.336   6.246   2.768  1.6261 -0.5287  0.7167
34030SOL    HW2 4098   8.309   6.388   2.721 -0.7934 -1.4754 -0.9367
34031SOL     OW 4099   6.216   5.410   1.429  0.3952  0.0858  0.5541
34031SOL    HW1 4100   6.202   5.444   1.517  0.2765  0.0833  0.5355
34031SOL    HW2 4101   6.196   5.483   1.371  1.5758  0.4493  0.5729
34032SOL     OW 4102   2.950   9.886   9.708 -0.9079 -0.0334  0.8008
34032SOL    HW1 4103   3.018   9.844   9.761 -0.7036  0.7530  1.1889
34032SOL    HW2 4104   2.881   9.908   9.771 -0.8466  0.5299  0.6833
34033SOL     OW 4105  10.872   3.467   3.933 -0.1000  1.1037  0.2939
34033SOL    HW1 4106  10.907   3.504   4.014 -1.0798  2.5643  0.0875
34033SOL    HW2 4107  10.897   3.530   3.865 -1.8432  1.4434 -0.0679
34034SOL     OW 4108   6.728   8.122   2.747 -0.0758 -0.0376  0.2678
34034SOL    HW1 4109   6.635   8.141   2.730  0.1143 -1.3012 -2.9462
34034SOL    HW2 4110   6.727   8.045   2.804 -1.2028 -2.2993 -2.5636
34035SOL     OW 4111   0.540   2.967   1.251 -0.1333 -0.1284 -0.7744
34035SOL    HW1 4112   0.561   2.881   1.215 -0.3104  0.5749 -2.6772
34035SOL    HW2 4113   0.591   2.972   1.333 -0.7997 -2.3381 -0.1595
34036SOL     OW 4114   6.320   6.087   0.201  0.1626 -0.7185 -0.2777
34036SOL    HW1 4115   6.226   6.070   0.212  0.3512 -1.6509 -0.0371
34036SOL    HW2 4116   6.343   6.040   0.121  0.2822  0.1267 -0.7522
34037SOL     OW 4117   7.363   5.019  10.541 -0.4952  0.0626  0.0611
34037SOL    HW1 4118   7.312   5.100  10.540  0.7330  0.8683  0.4280
34037SOL    HW2 4119   7.445   5.042  10.498  0.9040 -0.2660  2.3969
34038SOL     OW 4120   2.310   3.006   5.257 -0.1816 -0.2925 -0.2829
34038SOL    HW1 4121   2.361   2.990   5.336  0.2466  0.5590 -0.3721
34038SOL    HW2 4122   2.375   3.037   5.193 -0.5706 -0.6756 -0.8769
34039SOL     OW 4123   3.779   7.565   6.644  0.4960  0.2718 -0.2530
34039SOL    HW1 4124   3.751   7.516   6.566 -0.1431  0.9082 -0.4379
34039SOL    HW2 4125   3.841   7.630   6.611 -0.6751  1.3338 -0.4436
34040SOL     OW 4126   7.335   1.751   5.581  0.2447 -0.5826 -0.4574
34040SOL    HW1 4127   7.383   1.724   5.502 -0.0436 -0.6586 -0.6113
34040SOL    HW2 4128   7.302   1.669   5.617  2.5858 -0.8632  1.2333
34041SOL     OW 4129   0.469   4.463   2.089  0.1041  0.4437  0.1996
34041SOL    HW1 4130   0.460   4.526   2.160 -0.9873  1.6521 -0.9592
34041SOL    HW2 4131   0.433   4.381   2.125  1.9670  0.2878  1.8796
34042SOL     OW 4132   2.186   7.117   9.670  0.1815  0.4039 -0.0810
34042SOL    HW1 4133   2.142   7.044   9.712  1.1740  0.1336  0.5270
34042SOL    HW2 4134   2.145   7.124   9.584  0.9824 -1.7571 -0.6944
34043SOL     OW 4135   2.277   9.819   7.205 -0.2429  0.0931 -0.8634
34043SOL    HW1 4136   2.235   9.803   7.120 -0.1609 -0.7348 -0.7507
34043SOL    HW2 4137   2.278   9.915   7.213 -3.0723  0.1728 -0.3838
34044SOL     OW 4138   5.494   7.044   2.495 -0.4170  0.3308 -0.3277
34044SOL    HW1 4139   5.564   7.071   2.436 -0.6228  0.4656 -0.5077
34044SOL    HW2 4140   5.426   7.008   2.438  0.8707 -3.0014 -0.0082
34045SOL     OW 4141   4.608   1.613   1.448 -0.6238 -0.0776  0.2285
34045SOL    HW1 4142   4.618   1.639   1.540  1.8879 -2.1540  0.6438
34045SOL    HW2 4143   4.597   1.518   1.450 -1.2437 -0.0908 -1.6167
34046SOL     OW 4144   7.463   7.150   3.180 -0.0408  0.4671  0.5650
34046SOL    HW1 4145   7.443   7.094   3.255  0.1433 -1.3077 -0.6520
34046SOL    HW2 4146   7.547   7.191   3.203  1.8308 -2.7137 -0.0095
34047SOL     OW 4147   7.982   1.613   8.568  0.1663 -0.7111 -0.6405
34047SOL    HW1 4148   7.950   1.542   8.623  0.3053 -1.0229 -0.9544
34047SOL    HW2 4149   8.059   1.576   8.523  0.3750 -0.2913 -0.6368
34048SOL     OW 4150  11.161   3.073  10.147  0.0912 -0.0068  0.4822
34048SOL    HW1 4151  11.256   3.081  10.139 -0.0333 -0.4091 -3.6233
34048SOL    HW2 4152  11.141   2.990  10.104 -2.1797  0.5087  0.4548
34049SOL     OW 4153   9.908   6.459  10.398  0.0079 -0.1839  0.3795
34049SOL    HW1 4154   9.904   6.469  10.493  2.2806 -1.4479  0.6950
34049SOL    HW2 4155   9.818   6.448  10.370 -0.7452  0.6667  2.3252
34050SOL     OW 4156  10.655   4.079   1.182 -0.1105 -0.5030 -0.2103
34050SOL    HW1 4157  10.631   4.016   1.113  1.7450 -0.5059 -0.9077
34050SOL    HW2 4158  10.633   4.034   1.264  1.4185 -2.2215 -0.6711
34051SOL     OW 4159  10.151   9.802   3.897  0.3660 -0.2181 -0.1330
34051SOL    HW1 4160  10.145   9.831   3.988  1.2856  4.0127 -1.1781
34051SOL    HW2 4161  10.065   9.821   3.860  1.4305  3.3144 -1.2200
34052SOL     OW 4162   2.795   5.823   1.250 -0.1472  0.1067  0.0945
34052SOL    HW1 4163   2.784   5.884   1.323 -0.7786 -0.6200  0.6233
34052SOL    HW2 4164   2.861   5.761   1.281 -2.4735 -1.9526  1.2938
34053SOL     OW 4165   0.779   7.944   3.638  0.1142  0.7361  0.0553
34053SOL    HW1 4166   0.709   8.007   3.655  1.2644  2.4385 -1.2448
34053SOL    HW2 4167   0.738   7.877   3.584 -1.1818  0.1933  1.6293
34054SOL     OW 4168  10.101   9.601  11.252  0.4635 -0.0761  0.7638
34054SOL    HW1 4169  10.182   9.568  11.212  1.2257 -0.5006  2.5424
34054SOL    HW2 4170  10.119   9.599  11.346 -1.0418  1.3938  1.1180
34055SOL     OW 4171   2.521   1.043   7.703 -0.1278 -0.7397 -0.5563
34055SOL    HW1 4172   2.566   1.124   7.677  1.2926 -1.4584 -0.4356
34055SOL    HW2 4173   2.588   0.975   7.698 -0.2034 -1.3081  3.1108
34056SOL     OW 4174   9.381   8.408   8.538  0.4183  0.1469 -0.2809
34056SOL    HW1 4175   9.408   8.500   8.545  0.9105 -0.0604  0.7838
34056SOL    HW2 4176   9.437   8.362   8.600 -0.2339 -0.7912 -0.3660
34057SOL     OW 4177   6.115   7.642  11.024 -0.3610 -0.9955 -0.0145
34057SOL    HW1 4178   6.179   7.711  11.007  0.4506 -2.1540 -2.0414
34057SOL    HW2 4179   6.130   7.616  11.115 -1.0532  1.7727  0.9934
34058SOL     OW 4180   4.799   3.002   5.958  0.1765  0.0275  0.4952
34058SOL    HW1 4181   4.742   3.078   5.967  0.0382 -0.1844  1.6551
34058SOL    HW2 4182   4.842   2.995   6.044  0.7074 -0.7854  0.1721
34059SOL     OW 4183   6.744   3.199   2.445 -0.6331  0.2557 -0.2820
34059SOL    HW1 4184   6.654   3.177   2.469  0.2616 -2.7011  0.7864
34059SOL    HW2 4185   6.777   3.249   2.519 -1.0814  0.4490 -0.2085
34060SOL     OW 4186   2.062   1.250   1.802  0.5936 -0.5404  0.5294
34060SOL    HW1 4187   2.005   1.315   1.842  0.2546 -0.6433  0.2194
34060SOL    HW2 4188   2.006   1.174   1.789  0.1869  0.0636 -1.7585
34061SOL     OW 4189   9.562   5.841   7.265 -0.1976  0.3358 -0.0279
34061SOL    HW1 4190   9.543   5.831   7.358  0.1349  0.9272  0.1060
34061SOL    HW2 4191   9.488   5.800   7.220 -0.5329  0.3746  0.4931
34062SOL     OW 4192   5.749   4.211   7.094  0.6221 -0.3453  0.7148
34062SOL    HW1 4193   5.802   4.140   7.058 -1.0998 -0.8620 -0.9876
34062SOL    HW2 4194   5.660   4.192   7.064  0.1291  2.6871 -0.1052
34063SOL     OW 4195   2.824  11.270   9.051  0.3123 -0.1312  0.0608
34063SOL    HW1 4196   2.887  11.260   9.121 -0.9567 -0.3256  1.2186
34063SOL    HW2 4197   2.740  11.285   9.095 -0.7001 -1.1859 -1.3815
34064SOL     OW 4198   0.626   5.713   4.898  0.6833 -0.2751 -0.2243
34064SOL    HW1 4199   0.702   5.753   4.941  1.3891 -0.0803 -1.5823
34064SOL    HW2 4200   0.560   5.707   4.966  1.5042  0.6990  0.6948
34065SOL     OW 4201   5.628   3.262   6.065 -0.3661  0.5349 -0.5530
34065SOL    HW1 4202   5.613   3.340   6.119  1.5183  1.8476 -1.7545
34065SOL    HW2 4203   5.618   3.188   6.125  0.0949  1.8390  1.2160
34066SOL     OW 4204   4.116   3.800   1.996  0.3467  1.1799  0.6280
34066SOL    HW1 4205   4.093   3.848   1.916  1.2701  0.1895 -0.2736
34066SOL    HW2 4206   4.034   3.759   2.024 -0.2307  2.4444  0.8517
34067SOL     OW 4207   3.457  10.938   2.013 -0.1571  0.1812  0.3140
34067SOL    HW1 4208   3.480  10.851   1.981 -0.7016  1.0077 -2.5230
34067SOL    HW2 4209   3.538  10.969   2.054  0.6580 -0.9004 -0.3978
34068SOL     OW 4210  10.098   3.635   0.327  0.3861  0.0422 -0.4948
34068SOL    HW1 4211  10.161   3.647   0.255  0.7216  0.5052 -0.1312
34068SOL    HW2 4212  10.089   3.722   0.366  1.5429 -0.5133  1.1137
34069SOL     OW 4213   4.703   5.074   2.646 -0.1541  0.3048 -0.2011
34069SOL    HW1 4214   4.683   4.995   2.697 -3.4221 -0.6166 -2.5388
34069SOL    HW2 4215   4.630   5.133   2.664  0.3327  1.2747 -1.2894
34070SOL     OW 4216   6.682   4.761   1.402  0.3384 -0.3654  0.4211
34070SOL    HW1 4217   6.617   4.793   1.339  0.4420 -1.0265 -0.0262
34070SOL    HW2 4218   6.765   4.763   1.354  0.1588 -2.5089 -0.0654
34071SOL     OW 4219   2.315   8.883   2.272  0.2035  0.1478 -0.1754
34071SOL    HW1 4220   2.284   8.936   2.345 -2.2245 -0.0888 -0.9474
34071SOL    HW2 4221   2.324   8.945   2.200  0.2028 -0.0024 -0.3043
34072SOL     OW 4222  10.906   1.372   8.302 -0.4367 -0.4936 -0.7189
34072SOL    HW1 4223  10.822   1.339   8.268  0.0295 -0.5748 -1.8398
34072SOL    HW2 4224  10.934   1.306   8.365 -1.3091 -0.3625 -0.1717
34073SOL     OW 4225   6.153   7.563   2.111  0.1824 -0.5278  0.2410
34073SOL    HW1 4226   6.097   7.485   2.111 -0.2860 -0.2026 -0.1833
34073SOL    HW2 4227   6.227   7.540   2.167 -0.4829 -0.8917  0.9886
34074SOL     OW 4228   0.618   0.724   4.373 -0.1824 -0.1766 -0.0439
34074SOL    HW1 4229   0.633   0.684   4.288  1.6215  0.5928 -0.1479
34074SOL    HW2 4230   0.701   0.768   4.393 -0.9196  0.5364  1.6297
34075SOL     OW 4231   5.138   3.319   4.528 -0.3136  0.0591  0.0181
34075SOL    HW1 4232   5.088   3.268   4.465 -1.3673  1.6887 -0.5498
34075SOL    HW2 4233   5.076   3.337   4.599  0.1750  0.1366  0.4298
34076SOL     OW 4234   4.844   4.746   1.779  0.4814  0.0592  0.2125
34076SOL    HW1 4235   4.778   4.685   1.812 -0.7914  1.6308  0.6819
34076SOL    HW2 4236   4.861   4.716   1.690  0.3488 -1.3271  0.6270
34077SOL     OW 4237   7.578   0.516   4.181 -0.0831 -0.3133 -0.6674
34077SOL    HW1 4238   7.498   0.502   4.129 -1.7422  0.0862  1.6092
34077SOL    HW2 4239   7.571   0.607   4.210  0.6129 -0.6070  0.4804
34078SOL     OW 4240   0.543   2.293   8.295  0.0514  0.3846  0.2769
34078SOL    HW1 4241   0.564   2.281   8.388 -0.0905  0.8803  0.3725
34078SOL    HW2 4242   0.465   2.239   8.281  1.0022 -1.0039  0.0589
34079SOL     OW 4243   9.962   1.772   6.127  0.4654 -0.3523 -0.1527
34079SOL    HW1 4244  10.028   1.841   6.127  0.9469 -0.7465 -2.5194
34079SOL    HW2 4245   9.932   1.766   6.036 -1.5242 -1.4408  0.5034
34080SOL     OW 4246   5.697   8.061   5.958  0.4990 -0.2143 -0.3550
34080SOL    HW1 4247   5.641   8.035   5.885 -2.5487 -1.4854  2.2295
34080SOL    HW2 4248   5.763   8.119   5.918 -2.4534  1.2188 -3.6756
34081SOL     OW 4249   3.510   7.520   3.242  0.3141 -0.0689  0.0750
34081SOL    HW1 4250   3.507   7.594   3.182 -0.6152  0.1910  0.4131
34081SOL    HW2 4251   3.603   7.506   3.259  0.5016  1.1602  0.1724
34082SOL     OW 4252  10.343   8.695   5.967  0.5021 -0.6848 -0.4244
34082SOL    HW1 4253  10.266   8.647   5.997 -1.2589  2.4270  0.4538
34082SOL    HW2 4254  10.308   8.763   5.909  2.7096  0.1703 -0.8708
34083SOL     OW 4255   1.267   7.876   0.665 -0.1027 -0.6527 -0.3163
34083SOL    HW1 4256   1.316   7.841   0.591 -0.2606 -0.8754 -0.3140
34083SOL    HW2 4257   1.179   7.841   0.656 -0.4385  0.2464 -0.6627
34084SOL     OW 4258   5.841   2.255   6.630 -0.2200  0.0355  0.3209
34084SOL    HW1 4259   5.882   2.177   6.592  0.0623  2.5749 -5.8695
34084SOL    HW2 4260   5.750   2.229   6.645 -0.6148 -1.3556 -3.2712
34085SOL     OW 4261   8.624   1.919   7.222  0.2074  0.1100 -0.2847
34085SOL    HW1 4262   8.698   1.881   7.173 -0.7745 -1.6980 -0.4485
34085SOL    HW2 4263   8.655   2.006   7.247  2.2405 -0.4292 -0.6951
34086SOL     OW 4264   9.777   9.742   9.604 -0.3315  0.3071 -0.5032
34086SOL    HW1 4265   9.701   9.724   9.659  0.6521 -2.0707  0.1965
34086SOL    HW2 4266   9.845   9.771   9.665 -0.0379  0.3582 -0.8468
34087SOL     OW 4267  10.317   8.319   0.925  0.7349 -0.1438 -0.6923
34087SOL    HW1 4268  10.356   8.393   0.973  0.3194  0.3080 -1.0445
34087SOL    HW2 4269  10.236   8.300   0.972  1.7740 -1.6999  0.6186
34088SOL     OW 4270   0.851   3.909   6.359  0.0760  0.0146 -0.4821
34088SOL    HW1 4271   0.804   3.858   6.293  0.7377 -2.0486  0.5651
34088SOL    HW2 4272   0.933   3.933   6.317 -0.4631  0.7223 -1.1654
34089SOL     OW 4273   0.277   6.525   9.629 -0.3571  0.5872  0.5895
34089SOL    HW1 4274   0.285   6.621   9.625  0.8900  0.4691 -0.8443
34089SOL    HW2 4275   0.361   6.497   9.665 -0.4880 -0.0053  0.4296
34090SOL     OW 4276   0.573   2.355   5.454 -0.1660  0.6685  0.1126
34090SOL    HW1 4277   0.640   2.318   5.397 -0.4121  0.6113 -0.1435
34090SOL    HW2 4278   0.496   2.299   5.440  0.0145  0.1569  1.1136
34091SOL     OW 4279   4.628   6.344  10.692  0.0950  0.2856 -0.1355
34091SOL    HW1 4280   4.716   6.328  10.725 -0.1423 -3.1503 -0.7880
34091SOL    HW2 4281   4.578   6.268  10.720 -2.4704  1.7286 -0.5241
34092SOL     OW 4282   8.312   5.016   7.912  1.2044 -0.2779 -0.5765
34092SOL    HW1 4283   8.312   5.018   7.816  4.1245  0.9223 -0.6532
34092SOL    HW2 4284   8.305   5.107   7.938  1.7965 -0.4784  0.3064
34093SOL     OW 4285   6.329   0.845   2.972  0.1309  0.3481  0.2184
34093SOL    HW1 4286   6.347   0.939   2.982 -2.8186  0.9322  1.0083
34093SOL    HW2 4287   6.288   0.819   3.054 -0.8803 -1.1292 -0.7004
34094SOL     OW 4288   9.936   0.267   5.611 -0.7352 -0.6421  0.1715
34094SOL    HW1 4289   9.847   0.238   5.630 -0.6056 -0.9675  0.2854
34094SOL    HW2 4290   9.976   0.277   5.697  0.5200 -4.1473  0.1576
34095SOL     OW 4291   7.884  11.093   2.954 -0.0054 -0.1244  0.3244
34095SOL    HW1 4292   7.933  11.032   2.898 -0.6116  0.3935 -0.7859
34095SOL    HW2 4293   7.906  11.179   2.921  2.0747  0.4391  2.8599
34096SOL     OW 4294   6.847  11.268   7.405  0.1981 -0.3461  0.2180
34096SOL    HW1 4295   6.922  11.234   7.454  0.5950  2.7914  2.0411
34096SOL    HW2 4296   6.773  11.255   7.464  0.3191  1.5279  0.8519
34097SOL     OW 4297   5.940   9.324   0.632 -0.4552 -0.2132  0.4563
34097SOL    HW1 4298   6.019   9.271   0.620 -0.2874  0.5034 -2.0615
34097SOL    HW2 4299   5.875   9.262   0.664 -0.1085 -1.8732 -1.8645
34098SOL     OW 4300   0.587   3.434   4.585 -0.1251  0.3463 -0.0875
34098SOL    HW1 4301   0.657   3.371   4.569  1.1524  1.5676  0.5066
34098SOL    HW2 4302   0.538   3.397   4.658  2.4300  1.3891  2.3289
34099SOL     OW 4303   5.429   4.560  10.590  0.5840  0.2708  0.1350
34099SOL    HW1 4304   5.482   4.536  10.514 -0.1191  0.4292 -0.4247
34099SOL    HW2 4305   5.444   4.491  10.653  0.7403 -0.1688 -0.3778
34100SOL     OW 4306   4.967   9.872   3.541 -0.8869 -0.5884 -0.0484
34100SOL    HW1 4307   5.028   9.849   3.472  0.8026  1.2042  0.7425
34100SOL    HW2 4308   4.935   9.959   3.517 -1.1141 -0.4081  0.8562
34101SOL     OW 4309   6.081   4.019   2.920  0.3125  0.1690 -0.3681
34101SOL    HW1 4310   6.104   4.098   2.968  0.0112  0.2411 -0.3374
34101SOL    HW2 4311   5.992   4.036   2.888 -1.0884 -1.4202  2.3607
34102SOL     OW 4312   1.769   2.425   6.869  0.1964  0.4800 -0.2110
34102SOL    HW1 4313   1.706   2.497   6.876  2.0041  2.1009  0.0445
34102SOL    HW2 4314   1.851   2.467   6.843  1.0606 -1.6433 -1.1048
34103SOL     OW 4315   7.144   2.901   6.597 -0.0537  0.3743  0.4665
34103SOL    HW1 4316   7.236   2.910   6.623  0.0880 -0.8658  0.4223
34103SOL    HW2 4317   7.113   2.826   6.647 -1.5576  1.8445  1.8582
34104SOL     OW 4318  10.374   1.770   8.093 -0.8308  0.3396 -0.2079
34104SOL    HW1 4319  10.317   1.847   8.092  1.1508  1.8936  0.3060
34104SOL    HW2 4320  10.382   1.747   8.185 -0.1087  0.5638 -0.2073
34105SOL     OW 4321   7.056   1.226   9.768 -0.1155  0.3659 -0.0791
34105SOL    HW1 4322   7.114   1.276   9.711  0.7870 -1.0595 -0.4641
34105SOL    HW2 4323   7.087   1.245   9.856  0.3505  0.3342 -0.2328
34106SOL     OW 4324   0.151   2.322   4.701  0.3568 -1.0889  0.2537
34106SOL    HW1 4325   0.229   2.302   4.752 -1.4407 -1.8762  2.9002
34106SOL    HW2 4326   0.104   2.387   4.753 -0.6833 -0.4557 -1.3884
34107SOL     OW 4327   1.986   5.364   3.855 -0.0518  1.0280 -0.0803
34107SOL    HW1 4328   1.903   5.331   3.889  0.7096  0.0979  0.9788
34107SOL    HW2 4329   1.991   5.454   3.887 -0.7440  1.1619 -0.3354
34108SOL     OW 4330  10.613   7.470   5.759  0.5742 -0.0980  0.3625
34108SOL    HW1 4331  10.678   7.492   5.826 -0.1503 -1.2873  1.5170
34108SOL    HW2 4332  10.532   7.454   5.809 -0.7398  1.6665 -1.0380
34109SOL     OW 4333   0.578  10.735   8.261 -0.1763  0.4152  0.0212
34109SOL    HW1 4334   0.520  10.729   8.185  1.8127  3.3940 -1.9733
34109SOL    HW2 4335   0.648  10.672   8.244 -0.4356  0.1080  0.0879
34110SOL     OW 4336   5.780  10.710   8.855  0.6682  0.1195 -0.0875
34110SOL    HW1 4337   5.760  10.803   8.868  0.6050 -0.1031  1.6232
34110SOL    HW2 4338   5.842  10.709   8.782 -1.7167  1.2098 -2.2837
34111SOL     OW 4339   8.698   3.469   0.112  0.3869  0.2534  0.1699
34111SOL    HW1 4340   8.618   3.465   0.058  1.1906 -1.8598 -0.9611
34111SOL    HW2 4341   8.700   3.385   0.157  1.5122  0.6582  0.8899
34112SOL     OW 4342   3.698   4.284   4.590  0.4086 -0.2244 -1.0508
34112SOL    HW1 4343   3.661   4.335   4.662 -1.3555 -0.8638 -1.4530
34112SOL    HW2 4344   3.738   4.208   4.633  1.4371  0.5517 -0.5952
34113SOL     OW 4345   5.801   9.283   5.055  0.0161 -0.0787 -0.3837
34113SOL    HW1 4346   5.746   9.256   5.129  0.0977  0.2688 -0.1965
34113SOL    HW2 4347   5.873   9.220   5.055  0.8476  0.8325  0.7937
34114SOL     OW 4348   0.050   2.667   9.077  0.1549  0.0537 -0.8505
34114SOL    HW1 4349   0.022   2.736   9.138  0.8143 -1.0769  0.7960
34114SOL    HW2 4350   0.119   2.620   9.124 -0.0548 -1.5372 -2.0664
34115SOL     OW 4351   2.869   2.672   0.936 -0.0933  0.6726 -0.2228
34115SOL    HW1 4352   2.855   2.665   0.842  0.4715  1.9532 -0.4320
34115SOL    HW2 4353   2.783   2.654   0.975 -1.0554  2.9235 -1.1516
34116SOL     OW 4354   9.943   7.048   8.575  0.4232 -0.1309 -0.7950
34116SOL    HW1 4355   9.961   7.103   8.499 -1.3913  0.4712 -0.8503
34116SOL    HW2 4356   9.922   6.962   8.538  0.7588 -0.1737 -0.8849
34117SOL     OW 4357  11.137   1.485   1.227 -0.4715 -0.1573 -0.0054
34117SOL    HW1 4358  11.170   1.570   1.201 -1.3728  0.8722  1.9765
34117SOL    HW2 4359  11.216   1.433   1.244  0.0911  0.4334 -0.7354
34118SOL     OW 4360   0.832   8.301   5.475 -0.1519  0.1013 -0.0342
34118SOL    HW1 4361   0.817   8.311   5.569  0.4163  0.0354  0.0671
34118SOL    HW2 4362   0.840   8.391   5.443  1.9578  0.1227  0.3776
34119SOL     OW 4363   9.563   3.227   3.925  0.6617 -0.6815 -0.3220
34119SOL    HW1 4364   9.580   3.133   3.927  0.3305 -0.7980 -1.8727
34119SOL    HW2 4365   9.506   3.243   4.000  0.8464 -1.6801  0.0454
34120SOL     OW 4366   5.610   3.806   3.709  0.0205 -0.3906 -0.0045
34120SOL    HW1 4367   5.552   3.741   3.749 -0.1399  0.4343  1.1344
34120SOL    HW2 4368   5.606   3.787   3.615 -4.3066  1.3460 -0.3728
34121SOL     OW 4369   7.136   4.209   3.591  0.3558  0.0607 -0.5499
34121SOL    HW1 4370   7.048   4.222   3.628  0.3945  0.4961 -0.6114
34121SOL    HW2 4371   7.183   4.162   3.660 -0.1982 -1.0109 -0.8846
34122SOL     OW 4372   7.768   8.305   9.115 -0.3542  0.1484  0.0523
34122SOL    HW1 4373   7.698   8.320   9.179 -2.3797 -0.4502 -1.8731
34122SOL    HW2 4374   7.846   8.289   9.167 -2.1871 -1.8225  2.4352
34123SOL     OW 4375   7.867  10.887   1.080 -0.2858  0.2768  0.4225
34123SOL    HW1 4376   7.787  10.939   1.081 -1.1353 -0.9720  0.2598
34123SOL    HW2 4377   7.912  10.909   1.162 -0.6241  1.2286  0.3623
34124SOL     OW 4378   7.669   7.875   3.318  0.4485  0.1252  0.3717
34124SOL    HW1 4379   7.729   7.932   3.367  2.5251 -0.6740 -1.0929
34124SOL    HW2 4380   7.707   7.870   3.230  0.0579 -2.9910  0.2651
34125SOL     OW 4381   2.589   6.728   6.418  0.3470 -0.5339  0.4212
34125SOL    HW1 4382   2.590   6.638   6.450  0.0096 -0.2591  1.2394
34125SOL    HW2 4383   2.584   6.782   6.497 -0.2551  0.1806 -0.0800
34126SOL     OW 4384   2.522   0.845   5.254 -0.2485  0.0521 -0.8125
34126SOL    HW1 4385   2.514   0.796   5.336 -0.4472 -0.0138 -0.8722
34126SOL    HW2 4386   2.588   0.796   5.204 -0.1282  0.0920 -0.6933
34127SOL     OW 4387   6.762   3.776   9.225  0.1360 -0.0789 -0.1472
34127SOL    HW1 4388   6.820   3.852   9.228 -0.3906  0.2960  1.5005
34127SOL    HW2 4389   6.675   3.812   9.238 -0.2354 -0.8645 -0.3982
34128SOL     OW 4390   3.154  10.108   5.446  0.3592  0.1986  0.7275
34128SOL    HW1 4391   3.248  10.104   5.463  0.7180  2.0335 -0.4804
34128SOL    HW2 4392   3.121  10.024   5.475  2.3711 -0.5020  1.1913
34129SOL     OW 4393   6.733   4.422   1.390 -0.0682 -0.0637 -0.7665
34129SOL    HW1 4394   6.685   4.482   1.446  0.4879 -1.4373  1.2951
34129SOL    HW2 4395   6.720   4.456   1.301 -1.8588  1.5984  0.0604
34130SOL     OW 4396   1.741   0.267   6.597 -0.7984 -0.2345  0.3715
34130SOL    HW1 4397   1.732   0.361   6.611  0.7957  0.1021 -0.6902
34130SOL    HW2 4398   1.788   0.259   6.515 -0.4925 -1.9618  0.6777
34131SOL     OW 4399   0.508   9.796   5.715  0.1462 -0.2645 -0.6903
34131SOL    HW1 4400   0.529   9.758   5.630 -0.1758  0.9955 -1.3597
34131SOL    HW2 4401   0.445   9.865   5.696  0.3718  0.3133  0.5213
34132SOL     OW 4402   1.689  10.853   7.061  0.5478 -0.3192  0.2192
34132SOL    HW1 4403   1.655  10.831   7.148  1.6384 -1.1672  0.4487
34132SOL    HW2 4404   1.632  10.806   7.000 -1.1981  1.5012  0.3447
34133SOL     OW 4405   9.070   4.461   5.033 -0.3155  0.6573  0.1109
34133SOL    HW1 4406   9.014   4.384   5.043 -0.7462  0.7202 -1.4581
34133SOL    HW2 4407   9.132   4.437   4.964  0.6383  1.1388  0.7728
34134SOL     OW 4408   1.756   5.906   3.779 -0.1318 -0.3651 -0.1539
34134SOL    HW1 4409   1.786   5.820   3.808  0.9584  0.3803  1.0599
34134SOL    HW2 4410   1.774   5.964   3.854 -2.3061  0.6389 -0.3305
34135SOL     OW 4411   6.300  10.319   4.735  0.1319 -0.1022  0.3659
34135SOL    HW1 4412   6.293  10.242   4.678  0.8979 -1.4542  1.9970
34135SOL    HW2 4413   6.271  10.392   4.680 -2.0324 -1.7190 -0.8252
34136SOL     OW 4414   8.719   2.315   6.144 -0.0238 -0.2775 -0.2167
34136SOL    HW1 4415   8.774   2.332   6.221 -1.2418 -1.8131  1.0717
34136SOL    HW2 4416   8.750   2.231   6.112 -0.8073 -0.5695 -0.2145
34137SOL     OW 4417   8.379   8.747   0.068  0.6148  0.2016 -0.3400
34137SOL    HW1 4418   8.284   8.741   0.062  0.7592 -3.9922 -1.8768
34137SOL    HW2 4419   8.409   8.742  -0.023  2.2209 -5.0053  0.1727
34138SOL     OW 4420   7.601   5.794   6.306 -0.0713  0.6075  0.4177
34138SOL    HW1 4421   7.693   5.789   6.329  0.5913 -1.8942 -2.2489
34138SOL    HW2 4422   7.558   5.729   6.362  0.2841 -0.2013 -0.2338
34139SOL     OW 4423   4.937   6.856   2.546 -0.1666  0.0272 -0.7158
34139SOL    HW1 4424   5.003   6.809   2.597 -1.5714 -1.8098 -0.4984
34139SOL    HW2 4425   4.941   6.817   2.459 -1.2157 -0.4183 -0.5883
34140SOL     OW 4426  11.039   2.111   4.486 -0.0507 -0.2546 -0.1486
34140SOL    HW1 4427  10.958   2.069   4.513 -0.9388  0.6314 -1.3526
34140SOL    HW2 4428  11.050   2.086   4.394  0.6494  0.2484 -0.2107
34141SOL     OW 4429   4.774   4.702   0.749 -0.3983 -0.4846  0.3652
34141SOL    HW1 4430   4.681   4.684   0.763 -0.8266  0.9079 -0.5612
34141SOL    HW2 4431   4.817   4.661   0.824 -1.9267  0.3847  1.7921
34142SOL     OW 4432   4.701   8.592   5.195  0.0473  0.2005 -0.2523
34142SOL    HW1 4433   4.675   8.507   5.230  1.2474 -0.1924 -0.2646
34142SOL    HW2 4434   4.786   8.576   5.154  1.1775  1.7428  1.3180
34143SOL     OW 4435   6.813   1.031   2.199 -0.4745 -0.1346 -0.0488
34143SOL    HW1 4436   6.757   1.079   2.139 -0.7285  1.0385  1.0974
34143SOL    HW2 4437   6.855   0.965   2.144  1.7173  2.8335 -2.2539
34144SOL     OW 4438   3.245   6.242   3.381 -0.2634 -0.0850 -0.2142
34144SOL    HW1 4439   3.259   6.149   3.401 -1.3757 -0.1845  0.1962
34144SOL    HW2 4440   3.286   6.289   3.454  0.2317 -0.2478 -0.3823
34145SOL     OW 4441   1.250   5.289   4.521 -0.4980  0.0572 -0.6111
34145SOL    HW1 4442   1.264   5.292   4.426 -0.2898 -0.6222 -0.6054
34145SOL    HW2 4443   1.199   5.209   4.535 -0.2296 -0.0249 -0.1135
34146SOL     OW 4444   7.073  10.999   1.980 -0.2984 -0.0487 -0.6384
34146SOL    HW1 4445   7.141  11.021   1.916 -0.3044 -2.0211 -1.3959
34146SOL    HW2 4446   7.100  10.914   2.015 -0.6082  0.7123  1.5968
34147SOL     OW 4447   0.490   4.029   5.019 -0.4043  0.1902  0.0303
34147SOL    HW1 4448   0.401   4.015   4.987 -0.3709  0.8082 -0.3637
34147SOL    HW2 4449   0.504   4.124   5.010  0.1312  0.1628  0.5104
34148SOL     OW 4450   9.705   1.209   7.704 -0.0140 -0.0142  0.4549
34148SOL    HW1 4451   9.733   1.141   7.766  0.3894  0.7099  1.0802
34148SOL    HW2 4452   9.754   1.189   7.624  1.6129  0.6659  1.2434
34149SOL     OW 4453   3.601   9.422   0.663  0.1137  0.3862 -0.1738
34149SOL    HW1 4454   3.692   9.452   0.674  0.5307  0.1569 -2.4573
34149SOL    HW2 4455   3.589   9.418   0.568 -1.9301 -0.7116  0.0848
34150SOL     OW 4456   1.110   2.358   3.694  0.0267 -0.5481 -0.0628
34150SOL    HW1 4457   1.134   2.301   3.621 -0.5894  0.0434 -0.7411
34150SOL    HW2 4458   1.015   2.366   3.688  0.1980  1.5310 -0.7426
34151SOL     OW 4459   8.061  11.233   4.629  0.2856  0.7162 -0.6831
34151SOL    HW1 4460   8.152  11.262   4.628  0.6674 -0.2746  0.7422
34151SOL    HW2 4461   8.010  11.308   4.599  1.5703  1.2600 -1.5658
34152SOL     OW 4462   6.372   0.269   0.394 -0.0912  0.6008  0.0775
34152SOL    HW1 4463   6.337   0.329   0.460 -1.3954 -1.0535  0.9626
34152SOL    HW2 4464   6.461   0.300   0.378 -0.2576  1.9327  1.5129
34153SOL     OW 4465   8.386  10.501   0.635 -0.0532 -0.6549 -1.0907
34153SOL    HW1 4466   8.361  10.411   0.611 -2.0392  0.0647 -1.9279
34153SOL    HW2 4467   8.357  10.554   0.560 -0.3457  0.8732  0.0677
34154SOL     OW 4468   5.348   3.809   7.677 -0.2363  0.5567  0.1673
34154SOL    HW1 4469   5.323   3.858   7.755  0.9093  0.1373  0.8333
34154SOL    HW2 4470   5.281   3.830   7.612 -1.2917  0.8048  1.3045
34155SOL     OW 4471   3.656   2.042   8.646 -0.3010 -0.1560  0.4317
34155SOL    HW1 4472   3.714   1.974   8.679 -1.6068 -1.5476  0.0014
34155SOL    HW2 4473   3.713   2.100   8.596  0.3966 -3.2940 -2.8858
34156SOL     OW 4474   9.275   3.074   0.654  0.1941 -0.3191  0.1557
34156SOL    HW1 4475   9.346   3.086   0.716  1.0361 -2.3351 -0.3374
34156SOL    HW2 4476   9.313   3.096   0.569  0.2137 -1.3284 -0.1021
34157SOL     OW 4477   2.816   9.871   2.368  0.5501  0.1892 -0.2297
34157SOL    HW1 4478   2.904   9.842   2.347  0.8203  1.8992 -1.7714
34157SOL    HW2 4479   2.780   9.803   2.424  2.9925 -0.3376  0.8128
34158SOL     OW 4480   2.018   0.797   3.329  0.0101  0.5367 -0.8627
34158SOL    HW1 4481   2.034   0.829   3.240  1.3156  0.2679 -0.7417
34158SOL    HW2 4482   2.091   0.831   3.381  0.5211 -1.1885 -0.3875
34159SOL     OW 4483   1.464   4.817   2.311 -0.0518  0.7517 -0.3501
34159SOL    HW1 4484   1.478   4.847   2.221  0.5112 -0.8910 -0.8333
34159SOL    HW2 4485   1.489   4.892   2.365 -0.4715  1.7884 -1.5551
34160SOL     OW 4486   5.867   9.173   1.725 -0.2618  0.2708  0.6888
34160SOL    HW1 4487   5.903   9.127   1.649  0.5703  1.1349  0.5444
34160SOL    HW2 4488   5.907   9.260   1.722  0.9053 -0.0988  2.8860
34161SOL     OW 4489   6.157   9.804   4.690  0.5163  0.1412 -0.0510
34161SOL    HW1 4490   6.071   9.789   4.730 -0.0735  1.5225 -0.7353
34161SOL    HW2 4491   6.154   9.756   4.607  1.4726 -2.1224  1.1513
34162SOL     OW 4492  10.551  11.183   4.637  0.1045 -0.6631  0.0171
34162SOL    HW1 4493  10.533  11.264   4.589  0.8817 -0.4285  0.1136
34162SOL    HW2 4494  10.503  11.193   4.719 -1.3472 -1.1281 -0.7349
34163SOL     OW 4495   4.829   6.123   4.206  0.0112  0.2331  0.0544
34163SOL    HW1 4496   4.848   6.209   4.243  2.2779 -1.4346  3.1937
34163SOL    HW2 4497   4.740   6.102   4.237 -0.1583  1.0186  0.1107
34164SOL     OW 4498   9.753   4.176   8.705 -0.1171 -0.0145  0.7036
34164SOL    HW1 4499   9.720   4.097   8.747 -2.7098  1.0431  0.8543
34164SOL    HW2 4500   9.692   4.193   8.634 -1.8678  3.6511  2.7745
34165SOL     OW 4501   0.804   4.143   3.440 -0.1661 -0.2556  0.2175
34165SOL    HW1 4502   0.900   4.146   3.442 -0.1057 -0.6645 -0.8749
34165SOL    HW2 4503   0.779   4.212   3.379 -0.7556  1.6256  2.4460
34166SOL     OW 4504   8.914   5.558   8.940 -0.0421 -0.4330  0.0759
34166SOL    HW1 4505   8.978   5.490   8.958  0.6672  0.0603 -0.5392
34166SOL    HW2 4506   8.954   5.612   8.873 -0.0735  1.2920  1.3689
34167SOL     OW 4507   5.205   1.734   5.069 -0.2382 -0.5524 -0.5429
34167SOL    HW1 4508   5.131   1.710   5.013  0.0785 -0.8685 -0.8237
34167SOL    HW2 4509   5.210   1.663   5.133 -0.8705  0.0203  0.1622
34168SOL     OW 4510   6.677   9.125   3.469  0.0423 -1.0379  0.3866
34168SOL    HW1 4511   6.670   9.093   3.559 -1.5284 -3.7113 -0.5782
34168SOL    HW2 4512   6.654   9.049   3.415 -0.5943  0.9050 -2.2430
34169SOL     OW 4513  10.196   0.154  10.207  0.0418 -0.2421  0.1979
34169SOL    HW1 4514  10.154   0.230  10.247  0.7833  0.6583 -0.6867
34169SOL    HW2 4515  10.208   0.093  10.280  0.4429  0.9428  1.1635
34170SOL     OW 4516   3.896   4.743   8.243 -0.7132 -0.0912 -0.2425
34170SOL    HW1 4517   3.965   4.789   8.197 -0.9926 -0.0254 -0.6027
34170SOL    HW2 4518   3.937   4.712   8.324  0.2434 -1.6086 -1.2515
34171SOL     OW 4519   0.648   2.398   0.684  0.3677 -1.4770  0.0449
34171SOL    HW1 4520   0.580   2.356   0.631  2.0374 -2.2652 -1.6004
34171SOL    HW2 4521   0.718   2.333   0.688  0.6768 -1.0744  2.5240
34172SOL     OW 4522   8.653   6.416   8.939  0.3777  0.2378 -0.4192
34172SOL    HW1 4523   8.729   6.369   8.972  0.4825  1.4139  1.1651
34172SOL    HW2 4524   8.596   6.427   9.015  0.0714  2.0802 -0.8537
34173SOL     OW 4525   8.561  10.801   0.718 -0.0546 -0.0066  0.4898
34173SOL    HW1 4526   8.558  10.880   0.664  0.9972 -0.4389 -0.2275
34173SOL    HW2 4527   8.477  10.800   0.764 -0.6519  0.7903 -0.5461
34174SOL     OW 4528   8.577   0.842  10.669 -0.2080 -0.0228  0.1606
34174SOL    HW1 4529   8.648   0.797  10.715  0.1938 -2.4611 -2.5562
34174SOL    HW2 4530   8.514   0.773  10.649 -0.7997  1.0761 -2.0129
34175SOL     OW 4531   9.056   1.926   1.515  0.1515 -0.7623  0.3067
34175SOL    HW1 4532   9.031   1.835   1.499 -2.3583  0.1602 -1.4911
34175SOL    HW2 4533   8.995   1.956   1.582 -1.7893  0.6564 -1.9544
34176SOL     OW 4534   5.956   4.042   4.517  0.4851  0.1948 -0.1563
34176SOL    HW1 4535   6.009   4.119   4.540 -2.6790  1.9001  2.2966
34176SOL    HW2 4536   5.958   3.987   4.595  0.1728 -0.6380 -0.7233
34177SOL     OW 4537   9.629  10.073   2.797 -0.1638  0.6333 -0.1765
34177SOL    HW1 4538   9.541  10.038   2.782  0.3718 -0.6374 -0.4946
34177SOL    HW2 4539   9.643  10.063   2.891  0.2100 -0.5967 -0.3525
34178SOL     OW 4540   7.176   8.882   2.323 -0.0879  0.0735 -0.2160
34178SOL    HW1 4541   7.255   8.934   2.338 -0.2816  0.5007 -0.6421
34178SOL    HW2 4542   7.193   8.835   2.241  0.1018 -0.5764  0.1886
34179SOL     OW 4543   4.337   8.012  11.268 -0.2727 -0.2422 -0.0099
34179SOL    HW1 4544   4.280   8.078  11.228  1.0209  1.2649  0.5220
34179SOL    HW2 4545   4.412   8.007  11.209  0.2370 -0.2614  0.6324
34180SOL     OW 4546   3.847   9.486   7.785 -0.2525 -0.2015 -0.4153
34180SOL    HW1 4547   3.817   9.518   7.700 -3.1422  1.1860  0.9654
34180SOL    HW2 4548   3.799   9.404   7.798  0.3856 -0.5532 -0.2114
34181SOL     OW 4549   0.656   1.374   3.304  0.4182  0.8643  0.5967
34181SOL    HW1 4550   0.562   1.359   3.313  0.6775  0.3171  2.9942
34181SOL    HW2 4551   0.663   1.439   3.234 -1.7192  0.8376  0.2873
34182SOL     OW 4552   6.360   8.546  10.864  0.3733 -0.4571  0.7756
34182SOL    HW1 4553   6.376   8.455  10.839 -1.5885 -0.3261 -1.3230
34182SOL    HW2 4554   6.276   8.543  10.910 -0.2631  0.3822 -0.2840
34183SOL     OW 4555   5.837  10.564   6.989 -0.0435 -0.0176 -0.0839
34183SOL    HW1 4556   5.776  10.523   7.049 -1.0179 -0.6107 -1.4419
34183SOL    HW2 4557   5.835  10.657   7.012 -1.5736 -0.0034 -0.1918
34184SOL     OW 4558   2.758   0.427  10.806  0.2612 -0.1598  0.1372
34184SOL    HW1 4559   2.765   0.371  10.729 -1.0015  0.8457 -0.7317
34184SOL    HW2 4560   2.690   0.386  10.859  2.4079 -1.9367  1.7290
34185SOL     OW 4561   0.477   7.912   5.731  0.3099 -0.0403 -0.2636
34185SOL    HW1 4562   0.503   8.004   5.721 -1.7932  0.7101  0.5539
34185SOL    HW2 4563   0.545   7.874   5.787  1.6902  0.7548 -1.3381
34186SOL     OW 4564   1.712   1.863   3.432 -0.5616  0.6067 -0.0567
34186SOL    HW1 4565   1.745   1.916   3.360 -0.4157  0.3041 -0.2178
34186SOL    HW2 4566   1.764   1.889   3.508  1.5972 -1.3632 -0.7379
34187SOL     OW 4567   2.125  10.078  10.070 -0.3277 -0.4450  0.4059
34187SOL    HW1 4568   2.118  10.155  10.015 -1.9550 -1.3411 -0.7340
34187SOL    HW2 4569   2.056  10.089  10.136  0.0340 -0.5144  0.8076
34188SOL     OW 4570   2.037   3.425   7.426 -0.2189 -0.3354 -0.1083
34188SOL    HW1 4571   2.017   3.497   7.486  2.8370  0.3418  0.2638
34188SOL    HW2 4572   2.069   3.355   7.483  1.6248 -0.0961 -0.7775
34189SOL     OW 4573   5.691   7.520   3.067  0.0387 -0.0921  0.8738
34189SOL    HW1 4574   5.734   7.568   3.137  0.8951  1.3025 -0.5594
34189SOL    HW2 4575   5.674   7.434   3.104  4.7066 -1.0537  1.3773
34190SOL     OW 4576   8.623   3.774   3.300  0.0948 -0.1181  0.0556
34190SOL    HW1 4577   8.541   3.730   3.276 -0.4416  0.4576  0.7913
34190SOL    HW2 4578   8.671   3.782   3.217 -0.1257 -1.3874 -0.2214
34191SOL     OW 4579   5.890   7.721   7.904  0.0941  0.1063 -0.4901
34191SOL    HW1 4580   5.812   7.742   7.852  0.0626 -0.9144 -0.8709
34191SOL    HW2 4581   5.857   7.711   7.993 -0.1914 -0.2157 -0.6310
34192SOL     OW 4582   3.843   4.565   5.237 -0.7407  0.2276  0.0535
34192SOL    HW1 4583   3.867   4.478   5.206 -1.6640  0.0482 -0.1834
34192SOL    HW2 4584   3.795   4.549   5.319  0.2402  0.6015  0.7203
34193SOL     OW 4585   4.897   6.727   8.672  0.1525 -0.1525 -0.3517
34193SOL    HW1 4586   4.823   6.703   8.728  0.6218 -0.8151  0.0047
34193SOL    HW2 4587   4.966   6.752   8.734  1.0133 -1.8617 -0.5540
34194SOL     OW 4588   2.274   1.551  10.623 -0.1285 -0.1873  0.1846
34194SOL    HW1 4589   2.286   1.456  10.631  2.6541  0.1546  1.2212
34194SOL    HW2 4590   2.273   1.568  10.529 -2.1528 -1.3261 -0.0614
34195SOL     OW 4591   3.133   7.968   2.994  0.2520  0.0966  0.5240
34195SOL    HW1 4592   3.065   7.965   2.928  1.7100  1.3357 -1.1230
34195SOL    HW2 4593   3.087   7.957   3.077 -1.7967 -0.0618 -0.5805
34196SOL     OW 4594   7.608  10.629   9.255  0.0067 -0.0923 -0.3500
34196SOL    HW1 4595   7.566  10.696   9.309  0.6973  1.0549 -1.1784
34196SOL    HW2 4596   7.694  10.617   9.294 -0.2996 -0.8971  0.1005
34197SOL     OW 4597   5.446   6.108   2.959 -0.4354  0.4967 -0.2637
34197SOL    HW1 4598   5.537   6.136   2.965  0.7530 -2.8431 -0.9767
34197SOL    HW2 4599   5.429   6.099   2.865 -0.6870 -1.1743 -0.0814
34198SOL     OW 4600   8.553   1.707   3.734  0.1605  0.0839 -0.2988
34198SOL    HW1 4601   8.508   1.624   3.716  0.3593 -0.2252  0.5917
34198SOL    HW2 4602   8.482   1.767   3.758 -0.0192  0.2765 -1.2515
34199SOL     OW 4603   9.386   9.573   4.235  0.1382  0.1949 -0.6490
34199SOL    HW1 4604   9.329   9.545   4.306  0.3872 -0.1907 -0.5991
34199SOL    HW2 4605   9.423   9.656   4.265  0.4638 -0.1048 -0.1997
34200SOL     OW 4606   3.654   3.948   0.925 -0.3244  0.7854 -0.4486
34200SOL    HW1 4607   3.568   3.983   0.902 -1.8327 -0.1330  3.1065
34200SOL    HW2 4608   3.710   4.025   0.934 -2.0281  1.8899  1.5098
34201SOL     OW 4609   8.520   7.978  10.043  0.4572 -0.6873 -0.1195
34201SOL    HW1 4610   8.578   8.044  10.080  0.4887 -0.4162 -0.6400
34201SOL    HW2 4611   8.566   7.895  10.055  0.2045 -0.6831  0.9695
34202SOL     OW 4612   2.036   8.123   5.321 -0.0094 -0.3825  0.4182
34202SOL    HW1 4613   2.106   8.152   5.263  0.9367 -0.9161  1.2721
34202SOL    HW2 4614   2.080   8.100   5.403 -1.2865  0.1660  1.2975
34203SOL     OW 4615   4.786   2.212   8.017 -0.7925 -0.4526  0.2270
34203SOL    HW1 4616   4.845   2.187   7.947 -1.5540  2.0517 -1.4499
34203SOL    HW2 4617   4.698   2.193   7.983 -1.1111 -1.7959  1.6740
34204SOL     OW 4618   7.900   1.846   0.880 -0.4656 -0.0890 -0.9006
34204SOL    HW1 4619   7.885   1.831   0.973  0.2943 -1.0886 -0.9286
34204SOL    HW2 4620   7.851   1.926   0.861  1.1657  1.4090  0.8407
34205SOL     OW 4621   6.282   3.842  11.056  0.1117  0.2801  0.0003
34205SOL    HW1 4622   6.360   3.833  11.001  0.4453  0.0053  0.5095
34205SOL    HW2 4623   6.214   3.791  11.011  0.9250 -1.6638  0.8513
34206SOL     OW 4624   1.172   6.746   4.226  0.5109 -0.0299  0.4362
34206SOL    HW1 4625   1.159   6.828   4.179 -1.5763 -1.0997 -1.0166
34206SOL    HW2 4626   1.266   6.744   4.245  0.4550  3.3677  1.9293
34207SOL     OW 4627   6.457   0.411   1.659 -0.2939  0.0275  0.8790
34207SOL    HW1 4628   6.531   0.353   1.677 -1.3965 -1.8343 -0.3108
34207SOL    HW2 4629   6.432   0.390   1.569 -3.0578 -0.3142  1.6622
34208SOL     OW 4630   6.209   7.897   4.487 -0.4341 -0.7845 -0.3275
34208SOL    HW1 4631   6.167   7.821   4.446  0.9218 -0.7368 -1.9384
34208SOL    HW2 4632   6.224   7.958   4.414  0.8445 -0.1034  0.4636
34209SOL     OW 4633   8.004   3.266   5.998 -0.2991 -0.1307  0.1212
34209SOL    HW1 4634   8.065   3.215   6.051 -0.8236 -0.4852  0.3887
34209SOL    HW2 4635   8.025   3.242   5.908  1.4068  1.3629  0.0607
34210SOL     OW 4636   1.946   1.245   3.450  0.1573  0.2258  0.4242
34210SOL    HW1 4637   1.885   1.308   3.490 -1.6610 -0.6705 -0.8133
34210SOL    HW2 4638   1.898   1.208   3.377  1.5531 -1.8895  0.4908
34211SOL     OW 4639   2.976   9.582   6.922  0.3740  0.0160  0.0531
34211SOL    HW1 4640   3.054   9.593   6.869 -0.1606  1.1554 -0.5442
34211SOL    HW2 4641   2.936   9.501   6.890  2.0636 -1.4231  1.4022
34212SOL     OW 4642   9.341   2.847   9.765 -0.1250  0.7813  0.2474
34212SOL    HW1 4643   9.436   2.850   9.768  0.0533 -0.3176 -2.1252
34212SOL    HW2 4644   9.313   2.920   9.821  2.0586  0.8506  1.3627
34213SOL     OW 4645   4.217   3.537   2.606  0.9594  0.0297 -0.4715
34213SOL    HW1 4646   4.142   3.582   2.646  1.2478 -0.1134  0.2392
34213SOL    HW2 4647   4.292   3.563   2.660  1.2665 -0.6164 -0.5760
34214SOL     OW 4648   9.108   1.396   9.452 -0.2005  0.2186  0.6580
34214SOL    HW1 4649   9.183   1.418   9.396  1.2808 -0.2508  2.3594
34214SOL    HW2 4650   9.101   1.470   9.512 -0.7997  0.0173  0.8400
34215SOL     OW 4651   4.093   5.933   0.100 -0.2152  0.4364  0.8293
34215SOL    HW1 4652   4.156   5.863   0.117  0.4097  0.6739 -0.3973
34215SOL    HW2 4653   4.018   5.912   0.155  0.1097 -0.9872  0.7481
34216SOL     OW 4654  10.724   3.513   4.724  0.0936  0.0628 -0.0152
34216SOL    HW1 4655  10.790   3.539   4.660  0.4666 -0.1362  0.2789
34216SOL    HW2 4656  10.656   3.470   4.673  0.8865 -1.0674 -0.1811
34217SOL     OW 4657   5.446   6.381   1.078 -0.4043  0.1732 -0.1435
34217SOL    HW1 4658   5.434   6.291   1.048  2.0017 -0.8263  1.5537
34217SOL    HW2 4659   5.487   6.426   1.003 -1.9283  0.0300 -1.1188
34218SOL     OW 4660  10.887  10.692   7.123 -0.2223  0.6394 -0.1053
34218SOL    HW1 4661  10.966  10.671   7.172  0.8599  1.9448 -1.2108
34218SOL    HW2 4662  10.867  10.611   7.076  1.5101  0.7679 -1.1569
34219SOL     OW 4663   2.300   0.847   9.659  0.0674 -0.3318  0.1088
34219SOL    HW1 4664   2.312   0.864   9.753 -0.0166  4.5517 -0.4869
34219SOL    HW2 4665   2.217   0.890   9.638  2.2410  3.0059 -2.8090
34220SOL     OW 4666   7.859   2.862   2.051  0.1635 -0.3523 -0.1683
34220SOL    HW1 4667   7.910   2.924   2.105 -1.5867  2.0617 -1.1458
34220SOL    HW2 4668   7.914   2.846   1.974  0.3092  0.6186 -0.2704
34221SOL     OW 4669   7.930   4.608   4.697  0.4343 -0.3623 -0.7664
34221SOL    HW1 4670   7.853   4.558   4.723  0.8957 -1.6331 -1.7197
34221SOL    HW2 4671   7.895   4.689   4.659 -0.2945  0.5818  1.7525
34222SOL     OW 4672   8.573   2.950   1.252 -0.4560 -0.0520  0.5081
34222SOL    HW1 4673   8.643   2.900   1.295 -0.1701 -0.6589 -0.6053
34222SOL    HW2 4674   8.496   2.893   1.258 -0.1490 -0.6381 -0.6922
34223SOL     OW 4675   3.549   5.747   7.133 -0.0403 -0.3078  0.4486
34223SOL    HW1 4676   3.468   5.716   7.174  0.0274  0.5174  1.2261
34223SOL    HW2 4677   3.532   5.840   7.115  0.4485 -0.3237 -0.1049
34224SOL     OW 4678   4.386   4.227   7.385 -0.4595 -0.0370 -0.5880
34224SOL    HW1 4679   4.372   4.297   7.449  1.3455  0.0016 -0.1574
34224SOL    HW2 4680   4.301   4.187   7.373 -1.0279  0.5777  1.1207
34225SOL     OW 4681   3.735   1.999   2.215  0.6526  0.0669  0.4253
34225SOL    HW1 4682   3.705   1.908   2.215 -2.2522  0.8721 -1.4276
34225SOL    HW2 4683   3.732   2.026   2.306  0.1176 -1.2881  0.8312
34226SOL     OW 4684   2.404   1.574   4.041  0.2302 -0.4455 -0.5166
34226SOL    HW1 4685   2.366   1.549   3.958 -2.1667  1.7472 -0.2002
34226SOL    HW2 4686   2.341   1.544   4.107  1.1824 -0.5391  0.3813
34227SOL     OW 4687   5.565   1.407   1.791 -0.0806  0.1481  0.0346
34227SOL    HW1 4688   5.600   1.319   1.775  0.3691  0.1258  1.0495
34227SOL    HW2 4689   5.550   1.410   1.885 -1.5106  0.6584 -0.1884
34228SOL     OW 4690   3.794   4.602   3.679 -0.0042  0.2138  0.8447
34228SOL    HW1 4691   3.725   4.569   3.737 -0.9503 -0.0851 -0.4215
34228SOL    HW2 4692   3.754   4.604   3.592  1.1538  1.3583  0.3063
34229SOL     OW 4693   4.518   7.935   0.657 -0.0804  0.3800 -0.6339
34229SOL    HW1 4694   4.575   7.863   0.685 -1.4399 -0.1681  0.8996
34229SOL    HW2 4695   4.448   7.892   0.607 -2.6954 -0.0006  2.9295
34230SOL     OW 4696   4.043   2.848   4.400  0.0556 -0.8084 -0.3420
34230SOL    HW1 4697   4.012   2.789   4.331 -0.9188  0.7975 -1.3419
34230SOL    HW2 4698   3.995   2.929   4.385 -0.3905 -0.4610  2.3953
34231SOL     OW 4699   2.320   1.402   3.244 -0.6271 -0.2905  0.0374
34231SOL    HW1 4700   2.292   1.449   3.323 -1.8401 -2.0209  0.7128
34231SOL    HW2 4701   2.412   1.380   3.262 -0.0266  1.7183 -0.2995
34232SOL     OW 4702   6.657   8.395   1.924 -0.5962 -0.1296 -0.3255
34232SOL    HW1 4703   6.653   8.485   1.956 -0.6651  1.4354 -4.1591
34232SOL    HW2 4704   6.697   8.345   1.995 -0.2245  2.9974  1.8112
34233SOL     OW 4705   3.796   2.031   7.439 -0.4614 -0.5914 -0.3509
34233SOL    HW1 4706   3.749   1.974   7.378  0.6628 -0.6734 -1.1780
34233SOL    HW2 4707   3.808   2.112   7.390  1.2266 -0.9592 -0.5944
34234SOL     OW 4708   8.717   7.471   8.224  0.4515  0.6309  0.0211
34234SOL    HW1 4709   8.643   7.412   8.207  0.6431  0.6234 -0.8186
34234SOL    HW2 4710   8.706   7.496   8.316 -0.7093  0.7883 -0.1384
34235SOL     OW 4711   9.673   5.150   0.446 -0.0098  0.8921  0.0937
34235SOL    HW1 4712   9.726   5.227   0.466  0.4214  0.1942  1.8073
34235SOL    HW2 4713   9.732   5.076   0.460 -1.0756  0.1510  0.8124
34236SOL     OW 4714   4.101   8.601   2.600 -0.1683  0.5767 -0.0783
34236SOL    HW1 4715   4.089   8.520   2.650  2.3834  0.1108 -0.0856
34236SOL    HW2 4716   4.041   8.664   2.641 -1.4661 -1.0151  0.5790
34237SOL     OW 4717   5.204   4.488   3.752 -0.6361 -0.6138  0.2507
34237SOL    HW1 4718   5.129   4.442   3.717 -1.5548  1.2440 -0.3488
34237SOL    HW2 4719   5.279   4.456   3.702 -1.0333 -2.2963  0.6930
34238SOL     OW 4720   6.412   1.182  11.106  0.0440  0.1304  0.3845
34238SOL    HW1 4721   6.480   1.239  11.071 -0.2968  0.6431  0.5535
34238SOL    HW2 4722   6.352   1.241  11.151  0.6953 -0.5502  2.2349
34239SOL     OW 4723   4.063   9.622   2.210 -0.4081 -0.6947  0.4588
34239SOL    HW1 4724   3.984   9.640   2.160  0.5611 -0.5306 -1.0882
34239SOL    HW2 4725   4.041   9.546   2.264 -2.0058  0.1393  1.0209
34240SOL     OW 4726   7.002   3.301   4.159  0.4659 -0.3773  0.0999
34240SOL    HW1 4727   7.081   3.248   4.154  2.1325  1.7244  1.9425
34240SOL    HW2 4728   7.028   3.378   4.210 -2.6715  0.6214  0.4035
34241SOL     OW 4729   3.567   7.654   6.420 -0.4919  0.0392 -0.4041
34241SOL    HW1 4730   3.560   7.630   6.327  0.2810  1.0027 -0.7319
34241SOL    HW2 4731   3.477   7.660   6.450 -0.8219  1.4789 -1.5878
34242SOL     OW 4732   7.289   5.079   4.572 -0.7345 -0.4868 -0.0365
34242SOL    HW1 4733   7.375   5.114   4.594  0.6790 -2.4545 -1.9467
34242SOL    HW2 4734   7.289   4.991   4.610 -2.6925  0.0874  1.4833
34243SOL     OW 4735  10.775   6.260   8.349 -0.5780  0.3184  0.6103
34243SOL    HW1 4736  10.759   6.246   8.256  0.6358 -0.5196  0.5019
34243SOL    HW2 4737  10.813   6.178   8.380  0.6772  1.1625  1.4338
34244SOL     OW 4738  10.968   6.267   5.594  0.0650 -0.0971 -0.1450
34244SOL    HW1 4739  11.024   6.314   5.656  0.4409  0.0333 -0.5811
34244SOL    HW2 4740  11.020   6.260   5.514 -0.8051  0.6831 -0.8084
34245SOL     OW 4741   8.555   2.616   4.554 -0.0413 -0.2061  0.4585
34245SOL    HW1 4742   8.594   2.684   4.499  0.1291 -0.2036  0.5823
34245SOL    HW2 4743   8.554   2.653   4.642  0.5010 -0.5448  0.6160
34246SOL     OW 4744  10.870   5.124   2.226 -0.3449  0.0073 -0.2645
34246SOL    HW1 4745  10.917   5.177   2.161 -0.3480  0.4314  0.0725
34246SOL    HW2 4746  10.785   5.166   2.234 -1.3260 -1.5444 -1.8668
34247SOL     OW 4747   3.078   5.775   2.222 -0.2748 -0.1993  0.1641
34247SOL    HW1 4748   3.033   5.831   2.159  0.5438  1.1571  0.7373
34247SOL    HW2 4749   3.155   5.825   2.249 -0.5076 -0.7966  2.1260
34248SOL     OW 4750   4.942   1.321   4.067 -0.3876  0.6966  0.4077
34248SOL    HW1 4751   4.998   1.370   4.127 -0.1908  3.0000 -1.5042
34248SOL    HW2 4752   4.922   1.384   3.997 -2.3153 -1.2068 -0.8585
34249SOL     OW 4753   8.043   9.820   4.027 -0.3213  0.0241 -0.2519
34249SOL    HW1 4754   8.126   9.850   4.065  0.1129 -0.7839 -0.5210
34249SOL    HW2 4755   8.063   9.806   3.935 -0.6038 -0.6998 -0.2084
34250SOL     OW 4756   5.999   1.202   0.454  0.5680 -0.4567 -0.1352
34250SOL    HW1 4757   6.018   1.123   0.505  0.1243 -0.3880  0.1378
34250SOL    HW2 4758   5.904   1.210   0.457  0.3439 -1.3860 -2.3524
34251SOL     OW 4759   9.913   5.124  10.931  0.2290 -0.3001  0.7000
34251SOL    HW1 4760   9.864   5.204  10.911 -1.5395 -1.8019 -1.4419
34251SOL    HW2 4761  10.002   5.143  10.903 -0.0640  1.0280  0.5952
34252SOL     OW 4762   4.418   0.197   4.931 -0.2708 -0.8359  0.5338
34252SOL    HW1 4763   4.380   0.142   4.999  0.4371 -0.7441  1.0161
34252SOL    HW2 4764   4.471   0.262   4.978  3.4526 -3.1132 -0.1081
34253SOL     OW 4765   6.389   4.185   2.284  0.1531 -0.1319 -0.2941
34253SOL    HW1 4766   6.305   4.231   2.287  0.8912  1.3944 -1.4379
34253SOL    HW2 4767   6.452   4.253   2.258  1.8411 -1.1073  1.0396
34254SOL     OW 4768   0.205   9.525   6.159 -0.4439  0.5495  0.1530
34254SOL    HW1 4769   0.168   9.493   6.077 -2.4237  1.3652  0.6674
34254SOL    HW2 4770   0.141   9.590   6.190  1.4226  2.0120  1.1454
34255SOL     OW 4771  10.778   1.573   8.651 -0.1478 -0.4662  0.2676
34255SOL    HW1 4772  10.845   1.637   8.624  1.1333 -1.0365  1.9536
34255SOL    HW2 4773  10.817   1.526   8.724 -1.6324 -2.2291  0.0055
34256SOL     OW 4774  10.483  11.268   5.434  0.1731 -0.0025  0.3422
34256SOL    HW1 4775  10.507  11.178   5.453  1.4561  0.1882 -0.2673
34256SOL    HW2 4776  10.490  11.275   5.338 -0.4040  0.6126  0.3347
34257SOL     OW 4777   5.791  10.951  10.461 -0.3576 -0.7905  0.0310
34257SOL    HW1 4778   5.841  10.870  10.451  1.3973  0.0781  1.2680
34257SOL    HW2 4779   5.789  10.967  10.555 -2.3680 -0.3802 -0.0408
34258SOL     OW 4780   2.871  11.096   7.809  0.6642 -0.7005 -0.1115
34258SOL    HW1 4781   2.839  11.035   7.875  0.9745 -1.7351 -0.8881
34258SOL    HW2 4782   2.902  11.172   7.859 -1.0399 -0.5565  0.7734
34259SOL     OW 4783   1.456   9.010   8.557 -0.0400  0.8837  0.5021
34259SOL    HW1 4784   1.399   8.962   8.497  1.7391  0.0738 -0.6285
34259SOL    HW2 4785   1.443   8.966   8.641  2.2702 -2.4832 -0.6707
34260SOL     OW 4786   8.357   1.675   5.789 -0.1018  0.6224 -0.3580
34260SOL    HW1 4787   8.294   1.702   5.857 -3.8985 -1.7015 -2.5521
34260SOL    HW2 4788   8.377   1.755   5.741 -1.2672  1.4971  0.5458
34261SOL     OW 4789   1.771   2.324   2.891 -0.0498  0.5462 -0.1226
34261SOL    HW1 4790   1.791   2.394   2.953  1.9676 -0.6640  0.6720
34261SOL    HW2 4791   1.716   2.367   2.825  0.3477  2.6455  0.8103
34262SOL     OW 4792   3.058   2.445   6.888 -0.0204 -0.1430  0.1029
34262SOL    HW1 4793   2.971   2.409   6.904  0.1550  0.4311  2.9707
34262SOL    HW2 4794   3.118   2.384   6.930  0.7907  0.4610 -0.1478
34263SOL     OW 4795   5.647  10.445   6.840  0.3803  0.1285  0.4537
34263SOL    HW1 4796   5.636  10.492   6.758 -0.1247 -0.8803 -0.0744
34263SOL    HW2 4797   5.733  10.473   6.873  0.0735  1.4327  0.1918
34264SOL     OW 4798   5.740   2.588   3.181  0.3203 -0.3997  0.1847
34264SOL    HW1 4799   5.711   2.572   3.091 -3.5924 -1.6968  1.4617
34264SOL    HW2 4800   5.675   2.649   3.217 -0.7706 -3.0423  3.1910
34265SOL     OW 4801   8.330   5.970   2.103  0.3718 -0.0707  0.7091
34265SOL    HW1 4802   8.421   5.995   2.115  0.2521  0.4590  0.5567
34265SOL    HW2 4803   8.333   5.883   2.064  0.7982 -0.5361  1.7557
34266SOL     OW 4804   8.252   3.477   5.184 -0.0328 -0.0252 -0.6061
34266SOL    HW1 4805   8.289   3.483   5.096  0.0907  1.9148 -0.4729
34266SOL    HW2 4806   8.322   3.508   5.242 -0.5037 -0.1648  0.0521
34267SOL     OW 4807   7.274   6.641   6.161  0.0048 -0.7193 -0.1135
34267SOL    HW1 4808   7.291   6.575   6.228 -0.3559 -0.4792  0.2245
34267SOL    HW2 4809   7.293   6.724   6.204 -3.9546 -0.2145  1.0811
34268SOL     OW 4810   9.727   9.636   3.174  0.1265 -0.6271  0.0981
34268SOL    HW1 4811   9.691   9.724   3.186 -0.2466 -0.4429 -1.9660
34268SOL    HW2 4812   9.751   9.633   3.081 -0.7768 -3.0412 -0.1269
34269SOL     OW 4813   5.323  10.842   4.238  0.4850 -0.4447  0.8895
34269SOL    HW1 4814   5.305  10.767   4.181  1.8683 -1.7104  2.0536
34269SOL    HW2 4815   5.396  10.887   4.195  1.5904 -1.4518  1.6539
34270SOL     OW 4816   4.106   5.233   6.180  0.2446 -0.4680 -0.9599
34270SOL    HW1 4817   4.190   5.235   6.134  0.4837  3.3917 -0.6289
34270SOL    HW2 4818   4.129   5.227   6.273  0.1045 -0.4730 -0.9238
34271SOL     OW 4819   6.310   1.189   1.097  0.0084 -0.3034  0.5534
34271SOL    HW1 4820   6.262   1.263   1.060  1.7643  1.6495  2.0208
34271SOL    HW2 4821   6.402   1.207   1.077  0.4160 -2.9235 -0.3917
34272SOL     OW 4822   5.867   9.179   6.062 -0.0184  0.2348 -0.1564
34272SOL    HW1 4823   5.853   9.274   6.062  1.5299  0.4805 -0.3287
34272SOL    HW2 4824   5.892   9.158   5.972  1.0110 -0.1118  0.1999
34273SOL     OW 4825   6.444   2.359   1.692 -0.4449  0.6877 -0.2388
34273SOL    HW1 4826   6.452   2.452   1.715  0.3939  0.7829 -0.8841
34273SOL    HW2 4827   6.393   2.321   1.764  2.2017  0.9240  1.9310
34274SOL     OW 4828  10.017   3.805   2.343  0.5715  0.3261 -0.0496
34274SOL    HW1 4829   9.999   3.714   2.317  2.1826 -0.2901  0.8254
34274SOL    HW2 4830  10.074   3.839   2.274  3.0996 -0.6303  1.3870
34275SOL     OW 4831   3.077   7.819   9.408 -0.1348  0.0549  0.6452
34275SOL    HW1 4832   3.043   7.740   9.365  2.5004  0.5004 -2.6561
34275SOL    HW2 4833   3.004   7.881   9.405 -1.1137 -1.0822 -0.0613
34276SOL     OW 4834   3.607   6.917   7.641 -0.1317 -0.0917  0.3126
34276SOL    HW1 4835   3.641   6.862   7.570 -0.4758 -0.2438  0.2590
34276SOL    HW2 4836   3.518   6.939   7.613  0.2551  1.0991  0.0022
34277SOL     OW 4837   9.250   2.960   6.740  0.2382  0.1991 -0.0799
34277SOL    HW1 4838   9.246   2.874   6.782  0.0002  1.9217  3.9292
34277SOL    HW2 4839   9.341   2.988   6.750  0.2376  0.5956 -1.0108
34278SOL     OW 4840  10.891   2.300   3.022 -0.2800  0.0030  0.3736
34278SOL    HW1 4841  10.848   2.310   2.937  0.5777 -0.6431 -0.1515
34278SOL    HW2 4842  10.948   2.376   3.029 -2.6516  1.7986  1.8291
34279SOL     OW 4843   9.139   3.759   7.283 -0.6418 -0.3023 -0.2231
34279SOL    HW1 4844   9.077   3.772   7.211 -2.4796 -0.5010  1.2777
34279SOL    HW2 4845   9.086   3.734   7.358  0.9362  2.0107  1.8559
34280SOL     OW 4846   1.314   7.379   2.592  1.1618  0.4003 -0.5421
34280SOL    HW1 4847   1.321   7.284   2.580 -1.7194 -0.1804  1.5212
34280SOL    HW2 4848   1.405   7.410   2.590  2.4508 -2.7667  1.4250
34281SOL     OW 4849   7.041   9.797  10.418 -0.2713  0.2240 -0.1683
34281SOL    HW1 4850   7.113   9.755  10.465 -0.2088  0.1324 -0.3471
34281SOL    HW2 4851   6.981   9.825  10.487 -0.5945 -0.6697 -0.0805
34282SOL     OW 4852   4.727  10.206   7.276  0.0973  0.6794  0.0950
34282SOL    HW1 4853   4.713  10.260   7.354 -2.0904 -0.8785  0.8943
34282SOL    HW2 4854   4.775  10.130   7.309  0.6693  0.8030 -0.4457
34283SOL     OW 4855   0.601   0.216   9.012  0.1108 -0.1605  0.0646
34283SOL    HW1 4856   0.648   0.156   8.955 -0.5277 -1.8014  1.2049
34283SOL    HW2 4857   0.668   0.253   9.069  0.0391 -3.5873  2.6781
34284SOL     OW 4858   9.526   9.600   1.706 -0.3820 -0.2589  0.1192
34284SOL    HW1 4859   9.520   9.589   1.801 -1.2837 -2.5345 -0.1258
34284SOL    HW2 4860   9.443   9.641   1.682  0.2923  1.3334  0.3807
34285SOL     OW 4861   6.513  10.750  10.831 -0.0046 -0.3573  0.7979
34285SOL    HW1 4862   6.475  10.662  10.830  1.5640 -1.1213 -1.8229
34285SOL    HW2 4863   6.455  10.802  10.776  0.7961 -0.6874 -0.4316
34286SOL     OW 4864  11.038   8.971   8.974 -0.3171  0.1854  0.7965
34286SOL    HW1 4865  10.952   9.007   8.998  0.2412  1.8392  0.3810
34286SOL    HW2 4866  11.088   8.974   9.055 -0.4138 -0.1235  0.8708
34287SOL     OW 4867   0.922   3.130   6.135  0.0496 -0.2363  0.3411
34287SOL    HW1 4868   0.879   3.100   6.215 -0.0565  2.4855  1.4058
34287SOL    HW2 4869   0.858   3.115   6.065 -0.5613 -0.9675  1.0408
34288SOL     OW 4870   6.417   6.349   4.231 -0.0834  0.1332 -0.0286
34288SOL    HW1 4871   6.432   6.403   4.309  0.2539 -0.4105  0.2916
34288SOL    HW2 4872   6.454   6.263   4.254 -0.6421 -0.2485 -0.5089
34289SOL     OW 4873  11.268  11.236   8.220 -0.7224  0.1236  0.3782
34289SOL    HW1 4874  11.197  11.176   8.241  1.3241 -3.7213 -2.3073
34289SOL    HW2 4875  11.343  11.202   8.269  0.8279 -0.5810 -2.2681
34290SOL     OW 4876   8.173   6.306   6.854 -0.0658  0.1433  0.5356
34290SOL    HW1 4877   8.124   6.224   6.849 -1.1531  0.7607  0.6626
34290SOL    HW2 4878   8.107   6.374   6.839  0.5836  1.0478  1.6037
34291SOL     OW 4879  10.220  11.182   8.001 -0.1976  0.2839  0.5636
34291SOL    HW1 4880  10.224  11.147   8.090 -1.7817 -1.3387  0.0557
34291SOL    HW2 4881  10.264  11.116   7.947  1.8475  1.8220  0.2249
34292SOL     OW 4882   6.434  11.091   8.320  0.5841 -0.1618 -0.3370
34292SOL    HW1 4883   6.417  11.085   8.414 -2.6369  0.2227 -0.7920
34292SOL    HW2 4884   6.445  11.000   8.292  0.9864 -0.3141  0.2929
34293SOL     OW 4885   0.899  10.998  10.495 -0.0579  0.2675  0.1691
34293SOL    HW1 4886   0.977  11.053  10.490  0.5462 -0.5395  0.4600
34293SOL    HW2 4887   0.850  11.018  10.415  0.3405  0.9366  0.0893
34294SOL     OW 4888   5.706   4.906   0.637  0.1272 -0.5679 -0.1164
34294SOL    HW1 4889   5.654   4.890   0.558  0.1590 -0.6836 -0.1140
34294SOL    HW2 4890   5.738   4.820   0.663  0.3249 -0.4971 -0.1203
34295SOL     OW 4891   6.747   1.806   9.973  0.1086 -0.2644 -0.3828
34295SOL    HW1 4892   6.840   1.829   9.979 -0.1038  0.5435 -0.0316
34295SOL    HW2 4893   6.736   1.779   9.882  0.4019  1.0505 -0.8446
34296SOL     OW 4894   9.939   3.697   6.573  0.0875 -0.3384  0.8354
34296SOL    HW1 4895   9.971   3.609   6.595  0.5451 -0.4408 -0.1862
34296SOL    HW2 4896  10.015   3.742   6.539 -0.4878 -0.0415 -0.0871
34297SOL     OW 4897   1.064   4.352   9.414  0.1729 -0.7719  0.1384
34297SOL    HW1 4898   0.993   4.309   9.365  1.5303 -1.1074 -1.6471
34297SOL    HW2 4899   1.090   4.426   9.359  0.5139 -0.0136  1.2796
34298SOL     OW 4900   4.815   2.481   6.836  0.0391 -0.5050  0.0199
34298SOL    HW1 4901   4.816   2.454   6.928 -0.8324  1.2056  0.5698
34298SOL    HW2 4902   4.735   2.534   6.828  0.1905 -0.4994 -1.6876
34299SOL     OW 4903   2.964   7.753   7.074 -0.1479 -0.2949  0.2291
34299SOL    HW1 4904   3.022   7.691   7.030 -0.4474 -2.6165  2.8100
34299SOL    HW2 4905   3.020   7.798   7.138 -0.6370 -0.5275  0.8274
34300SOL     OW 4906   5.426   5.493   9.087 -0.1836 -0.2370 -0.1870
34300SOL    HW1 4907   5.342   5.458   9.115 -0.4075 -0.3122 -0.9340
34300SOL    HW2 4908   5.457   5.433   9.019  0.7326 -0.5086  0.4396
34301SOL     OW 4909   4.306   9.927   9.879 -0.5537 -0.4828 -0.9487
34301SOL    HW1 4910   4.362   9.975   9.939  0.6963  0.0050 -2.4615
34301SOL    HW2 4911   4.285   9.989   9.809  1.9242 -2.2441 -3.5010
34302SOL     OW 4912   3.470  10.207  10.444  0.0165  0.7516 -0.0198
34302SOL    HW1 4913   3.441  10.183  10.532 -0.0176  1.3445  0.1406
34302SOL    HW2 4914   3.555  10.248  10.457  0.3674  0.1409 -0.3560
34303SOL     OW 4915   7.342   3.824   9.230 -0.2271  0.7271 -0.1437
34303SOL    HW1 4916   7.252   3.812   9.200 -0.2257 -1.3631  0.4963
34303SOL    HW2 4917   7.335   3.844   9.323 -0.0393 -0.2159  0.0860
34304SOL     OW 4918   9.958  11.064   0.575  0.4187 -0.2069  0.2605
34304SOL    HW1 4919   9.983  11.126   0.506  0.0169  0.6983  0.9091
34304SOL    HW2 4920   9.868  11.087   0.597  0.8305  0.1345  1.7138
34305SOL     OW 4921  11.036   3.109   0.279 -0.6606  0.0073 -0.1038
34305SOL    HW1 4922  11.022   3.021   0.245 -0.6188 -0.3524  0.7691
34305SOL    HW2 4923  10.991   3.167   0.218 -0.0068 -0.5443 -1.1356
34306SOL     OW 4924   1.371   6.697   7.712  0.1875  0.1208 -0.5979
34306SOL    HW1 4925   1.438   6.762   7.731  1.1470 -0.4856 -1.7565
34306SOL    HW2 4926   1.295   6.724   7.764  1.2711  0.9081  0.6145
34307SOL     OW 4927   7.910   5.407   8.099  0.8537 -0.8140 -0.1111
34307SOL    HW1 4928   7.842   5.344   8.124  0.7410 -0.9156 -0.6529
34307SOL    HW2 4929   7.865   5.468   8.040  1.0797 -0.5107  0.0323
34308SOL     OW 4930  10.130   5.078   0.138 -0.2411  0.0623  0.0795
34308SOL    HW1 4931  10.186   5.003   0.155 -0.8503 -0.0344  1.8442
34308SOL    HW2 4932  10.041   5.042   0.134 -0.2632  0.1676 -2.9275
34309SOL     OW 4933   1.407   6.508   5.903  0.5197  0.2336  0.8498
34309SOL    HW1 4934   1.380   6.454   5.828  1.6427 -0.5975  1.0136
34309SOL    HW2 4935   1.496   6.477   5.923  0.8427  1.5562  1.5166
34310SOL     OW 4936  10.915   6.017   4.436 -0.0489  0.1164 -0.2636
34310SOL    HW1 4937  10.862   6.097   4.433 -0.2232 -0.0228 -1.8117
34310SOL    HW2 4938  10.929   6.000   4.529 -0.3985  1.6894  0.0905
34311SOL     OW 4939   0.093   2.277   0.528  0.6764 -0.0144 -0.2146
34311SOL    HW1 4940   0.024   2.305   0.468  0.5329  1.7991  0.7285
34311SOL    HW2 4941   0.165   2.252   0.471  0.1610  0.6213 -1.1735
34312SOL     OW 4942   9.086   6.527   3.902 -0.2182 -0.1053 -0.7202
34312SOL    HW1 4943   9.027   6.573   3.962 -0.9912  0.5591 -1.9674
34312SOL    HW2 4944   9.067   6.434   3.917  0.0191  0.0195  0.4665
34313SOL     OW 4945   1.363   6.348   6.451 -0.1874 -0.5062  0.1857
34313SOL    HW1 4946   1.295   6.282   6.448 -0.2328 -0.5072  1.1035
34313SOL    HW2 4947   1.428   6.313   6.511 -0.8656  0.8789  1.7910
34314SOL     OW 4948  10.621   6.374   0.801 -0.4556  0.2768 -0.1351
34314SOL    HW1 4949  10.603   6.401   0.891 -1.1426 -1.7638  0.3972
34314SOL    HW2 4950  10.682   6.440   0.768 -1.7582  2.2238  1.1160
34315SOL     OW 4951   0.811  10.735   2.392 -0.3605  0.0695 -0.5048
34315SOL    HW1 4952   0.776  10.734   2.303 -3.1647 -0.3823  0.5002
34315SOL    HW2 4953   0.742  10.777   2.444  2.1616  2.5219  1.1396
34316SOL     OW 4954   9.444   8.127   2.589  0.2260 -0.0126 -0.3283
34316SOL    HW1 4955   9.415   8.141   2.499  1.4777 -1.0752 -0.9296
34316SOL    HW2 4956   9.526   8.176   2.596 -1.1290  2.1711  1.0490
34317SOL     OW 4957   1.285  10.543   9.651 -0.3479  0.3127 -0.7982
34317SOL    HW1 4958   1.372  10.516   9.619 -0.6778 -1.6007 -0.2063
34317SOL    HW2 4959   1.268  10.485   9.725 -0.7337  2.9024  1.2638
34318SOL     OW 4960   7.517   7.153   5.137 -0.6646 -0.7884 -0.6623
34318SOL    HW1 4961   7.480   7.124   5.221  0.4695 -0.5070 -0.0446
34318SOL    HW2 4962   7.583   7.217   5.161 -1.0563  0.0866 -1.8498
34319SOL     OW 4963   5.984   8.177   0.292  0.6735  0.0538  0.3573
34319SOL    HW1 4964   5.993   8.092   0.249  1.8701  0.2286  0.2081
34319SOL    HW2 4965   5.976   8.156   0.385 -0.8153 -0.2750  0.1815
34320SOL     OW 4966   2.328   7.914   3.607  0.2886  0.5033  0.1438
34320SOL    HW1 4967   2.389   7.841   3.606  0.5036  0.6649  0.8706
34320SOL    HW2 4968   2.241   7.873   3.607  0.4002  0.2634  0.0598
34321SOL     OW 4969   8.792   1.561   1.870 -0.2783  0.4812  0.3801
34321SOL    HW1 4970   8.774   1.468   1.881  0.4698  0.3030  0.1509
34321SOL    HW2 4971   8.789   1.597   1.959  1.1083 -0.0860  0.6812
34322SOL     OW 4972   3.101   6.012   4.697  0.2793 -0.8228  0.0993
34322SOL    HW1 4973   3.035   5.951   4.731 -0.0724 -1.4412 -1.6168
34322SOL    HW2 4974   3.074   6.097   4.731  0.2306 -1.4594  1.7452
34323SOL     OW 4975   7.980   1.939   7.730 -0.0982 -1.0196  0.1105
34323SOL    HW1 4976   8.016   1.982   7.653 -1.8867  0.3174 -0.0487
34323SOL    HW2 4977   8.008   1.994   7.804 -3.6059  1.5422 -0.2098
34324SOL     OW 4978   6.842   2.246   7.171  0.2314 -0.3929  0.5102
34324SOL    HW1 4979   6.804   2.237   7.258  0.4207 -0.2640  0.6058
34324SOL    HW2 4980   6.936   2.257   7.186  0.3482 -0.9814  0.2611
34325SOL     OW 4981   2.806  10.394   0.801  0.0450  0.0117 -0.5719
34325SOL    HW1 4982   2.782  10.370   0.891 -0.1406 -2.5303 -1.2299
34325SOL    HW2 4983   2.902  10.389   0.801  0.0466  0.0314 -0.5294
34326SOL     OW 4984   1.096   3.154  10.719  0.0753  0.6380 -0.4002
34326SOL    HW1 4985   1.084   3.238  10.763 -1.6811  0.7159 -0.9625
34326SOL    HW2 4986   1.035   3.095  10.763  4.1727 -1.6610  2.9599
34327SOL     OW 4987   0.891   6.638  10.481  0.0379  0.7422 -0.1595
34327SOL    HW1 4988   0.845   6.573  10.533 -0.6566  1.0530 -0.3724
34327SOL    HW2 4989   0.975   6.597  10.459 -1.7415 -1.6861 -3.4342
34328SOL     OW 4990   9.876   2.942   8.972  0.2579  0.4342  0.3323
34328SOL    HW1 4991   9.876   2.916   8.880  2.2280 -0.3185  0.4825
34328SOL    HW2 4992   9.901   2.863   9.020 -1.2636  0.6674  1.5907
34329SOL     OW 4993   0.958   3.153   7.725  0.3205 -0.4235 -0.1991
34329SOL    HW1 4994   0.905   3.098   7.783  2.6449 -1.5237  1.0330
34329SOL    HW2 4995   1.045   3.152   7.764  1.3513  1.0641 -2.2559
34330SOL     OW 4996   8.318   5.818   9.798  0.6149 -0.2407 -0.1765
34330SOL    HW1 4997   8.299   5.912   9.797 -2.6918 -0.7597  0.8819
34330SOL    HW2 4998   8.361   5.803   9.882  1.5309  0.3521 -0.5275
34331SOL     OW 4999   2.090   9.038   9.476 -0.0704  0.4307  0.0298
34331SOL    HW1 5000   2.085   9.099   9.403  3.0025 -1.5305 -2.0395
34331SOL    HW2 5001   2.003   8.998   9.479 -0.6722  1.4853 -1.6833
34332SOL     OW 5002   9.774  10.048   3.365 -0.2274  0.2081 -0.5460
34332SOL    HW1 5003   9.817  10.107   3.428  0.0271 -1.1702  0.6282
34332SOL    HW2 5004   9.835  10.043   3.292 -0.2889  1.4372 -0.7100
34333SOL     OW 5005   6.074   5.518   6.324  0.3613 -0.1483 -0.3067
34333SOL    HW1 5006   6.165   5.543   6.310  0.5265 -0.5022  0.1136
34333SOL    HW2 5007   6.029   5.546   6.244  0.8383  0.0070 -0.5259
34334SOL     OW 5008   7.868   4.037   3.167 -0.0556  0.4018  0.1624
34334SOL    HW1 5009   7.773   4.033   3.180 -0.1111  0.7671 -0.1068
34334SOL    HW2 5010   7.899   4.091   3.240 -0.0639  0.3532  0.2022
34335SOL     OW 5011   1.670   9.187   8.814  1.0558 -0.0281  0.1712
34335SOL    HW1 5012   1.605   9.252   8.841 -0.9269 -1.2774 -1.3007
34335SOL    HW2 5013   1.681   9.131   8.890 -0.2734 -0.2929  0.1974
34336SOL     OW 5014  10.239   7.076   0.850  0.6342 -0.1290 -0.5907
34336SOL    HW1 5015  10.281   7.162   0.844  0.6550  0.4180  4.0379
34336SOL    HW2 5016  10.156   7.093   0.894 -1.5991 -2.0822 -3.5874
34337SOL     OW 5017   9.507   5.463   8.314  0.1229  0.2494  0.2705
34337SOL    HW1 5018   9.549   5.516   8.246 -0.3936 -0.7264 -0.8376
34337SOL    HW2 5019   9.425   5.433   8.274  1.2936 -3.0647  0.0398
34338SOL     OW 5020   1.924   8.817   4.481  0.0476 -0.6033 -0.3884
34338SOL    HW1 5021   1.994   8.815   4.416  1.2833  1.7633  0.7852
34338SOL    HW2 5022   1.959   8.769   4.556  0.5360  0.7743  0.2841
34339SOL     OW 5023   9.229   5.768   2.792 -0.0886  0.3511  0.0540
34339SOL    HW1 5024   9.261   5.725   2.712 -0.9956  1.2076 -0.7894
34339SOL    HW2 5025   9.231   5.861   2.772 -2.0430  0.4999  0.3536
34340SOL     OW 5026   7.229   2.158   6.575 -0.5747  0.0420  0.2806
34340SOL    HW1 5027   7.321   2.154   6.551  0.0785 -2.8582  2.6785
34340SOL    HW2 5028   7.206   2.251   6.569  1.8968  0.6046 -2.2424
34341SOL     OW 5029   2.906   6.547  11.030  0.4790  0.6118  0.9768
34341SOL    HW1 5030   2.902   6.478  10.964  0.8092 -0.0991  1.6773
34341SOL    HW2 5031   2.997   6.547  11.059  0.9008  2.4995 -0.1918
34342SOL     OW 5032   6.696  10.159  10.763 -0.1370 -0.0101 -0.2535
34342SOL    HW1 5033   6.790  10.143  10.755 -0.0913  0.5916 -1.0770
34342SOL    HW2 5034   6.667  10.178  10.674 -1.2823 -1.3830 -0.2094
34343SOL     OW 5035  11.149   0.900   5.866  0.3525 -0.4729  0.2243
34343SOL    HW1 5036  11.195   0.867   5.943  0.9889 -0.3029 -0.0693
34343SOL    HW2 5037  11.218   0.941   5.813 -0.2010  0.1299 -0.0492
34344SOL     OW 5038   8.287   3.979   3.532 -0.4551  0.2080 -0.4658
34344SOL    HW1 5039   8.268   4.070   3.510  0.9306  0.0914 -2.3236
34344SOL    HW2 5040   8.380   3.978   3.555 -0.9640 -0.3747  1.9259
34345SOL     OW 5041   3.206   6.695   7.208  0.1733 -0.0317 -0.4661
34345SOL    HW1 5042   3.134   6.686   7.270  1.1434 -1.2181  0.5368
34345SOL    HW2 5043   3.174   6.655   7.128  0.6389 -3.1980  0.8028
34346SOL     OW 5044   2.762   6.182   8.302  0.4346  0.3675 -0.5197
34346SOL    HW1 5045   2.835   6.244   8.302  1.2418 -0.5101  0.9890
34346SOL    HW2 5046   2.688   6.233   8.336  0.1545  1.4122 -2.5638
34347SOL     OW 5047   6.768  10.528   5.012 -0.0607  0.6477 -0.2336
34347SOL    HW1 5048   6.693  10.585   5.028  0.6587  1.4284  0.4973
34347SOL    HW2 5049   6.844  10.581   5.036  0.7689  0.0538 -1.4471
34348SOL     OW 5050   3.986   8.840   6.434 -0.1967 -0.2221  0.3093
34348SOL    HW1 5051   3.906   8.794   6.458 -0.6615  0.3023 -0.2081
34348SOL    HW2 5052   3.960   8.898   6.362  0.1590  1.4010  1.4147
34349SOL     OW 5053   5.194   3.407   6.391  0.2925 -0.1826 -0.3029
34349SOL    HW1 5054   5.237   3.331   6.350 -0.0112  0.2469 -1.4544
34349SOL    HW2 5055   5.124   3.369   6.443 -0.4440 -0.6727 -1.6043
34350SOL     OW 5056   7.918  11.252   5.237 -0.6149  0.3513 -0.2250
34350SOL    HW1 5057   7.919  11.212   5.149  1.5354 -1.2322  0.4424
34350SOL    HW2 5058   8.005  11.235   5.272 -0.6268  3.0180  1.3729
34351SOL     OW 5059   9.919   9.927   5.224 -0.1585 -0.2433 -0.0109
34351SOL    HW1 5060   9.836   9.906   5.181 -0.5831 -0.8739  1.0841
34351SOL    HW2 5061   9.911  10.020   5.246  0.4279  0.3492 -2.0164
34352SOL     OW 5062   8.439   0.140   3.147  0.3079 -0.2603  0.3758
34352SOL    HW1 5063   8.474   0.157   3.234  0.7625  1.2917 -0.0886
34352SOL    HW2 5064   8.515   0.109   3.097  1.9390  5.3075 -1.2900
34353SOL     OW 5065   3.790   1.527   0.459 -0.6215  0.5285 -0.6310
34353SOL    HW1 5066   3.714   1.471   0.473  0.3261 -0.3767  1.1966
34353SOL    HW2 5067   3.860   1.467   0.435  0.1515  1.0240  0.3157
34354SOL     OW 5068   3.698   2.917   5.018 -0.6472 -0.2644  0.0200
34354SOL    HW1 5069   3.629   2.852   5.008 -0.2999 -0.6455  0.0527
34354SOL    HW2 5070   3.732   2.931   4.930 -0.1242 -0.8022  0.1246
34355SOL     OW 5071  10.250   6.070   7.011  0.2413 -0.0697 -0.1666
34355SOL    HW1 5072  10.280   6.122   6.936 -1.4789 -0.0205 -0.8502
34355SOL    HW2 5073  10.254   5.980   6.981  0.9719 -0.1770  0.2191
34356SOL     OW 5074  10.852   4.993   4.396  0.5363 -0.2747  0.5701
34356SOL    HW1 5075  10.771   5.034   4.426  2.0113  1.8687  1.8943
34356SOL    HW2 5076  10.876   4.931   4.465 -0.1750 -1.3030 -0.0660
34357SOL     OW 5077   6.745   4.545   4.263  0.0922  0.6408 -0.1125
34357SOL    HW1 5078   6.806   4.616   4.281  2.7628 -1.7147  0.9533
34357SOL    HW2 5079   6.692   4.538   4.343  1.2414  0.1709  0.6352
34358SOL     OW 5080   2.172   7.115   9.986  0.7259 -0.1303  0.4186
34358SOL    HW1 5081   2.084   7.127  10.022  0.5180  0.5201 -0.2781
34358SOL    HW2 5082   2.187   7.193   9.931  0.1479 -2.0044 -2.6463
34359SOL     OW 5083   9.573   1.356   2.089 -0.6947 -0.3682  0.2222
34359SOL    HW1 5084   9.622   1.379   2.010 -0.0200 -0.3011  0.6433
34359SOL    HW2 5085   9.595   1.264   2.104  0.2358 -0.0314  1.0476
34360SOL     OW 5086   3.797   4.983   5.442 -0.0849 -0.3436  0.2876
34360SOL    HW1 5087   3.829   5.053   5.384  1.5154 -0.1271  1.3686
34360SOL    HW2 5088   3.776   5.028   5.524 -2.1168 -0.6798  0.0111
34361SOL     OW 5089   2.600   2.714   4.061 -0.6940 -0.1312 -0.3344
34361SOL    HW1 5090   2.512   2.683   4.085 -0.5170 -0.5894 -0.2738
34361SOL    HW2 5091   2.658   2.674   4.127 -0.1314 -1.7729 -1.7552
34362SOL     OW 5092   2.175   2.064  10.086 -0.0660 -0.8709  0.0771
34362SOL    HW1 5093   2.132   2.059  10.001 -1.1366 -0.4154  0.5596
34362SOL    HW2 5094   2.259   2.107  10.069 -0.8174  0.4175 -0.5794
34363SOL     OW 5095   2.204   7.460   0.026  0.2077  0.1656 -0.3765
34363SOL    HW1 5096   2.207   7.556   0.026 -0.6541  0.2062 -0.7677
34363SOL    HW2 5097   2.292   7.433  -0.000  0.4937  0.8459 -0.1365
34364SOL     OW 5098   5.910   7.275   3.458  0.3437  0.0235 -0.0724
34364SOL    HW1 5099   5.947   7.362   3.438  0.1560  0.1914  0.3122
34364SOL    HW2 5100   5.972   7.236   3.520  1.6569 -1.0437 -1.9326
34365SOL     OW 5101   5.545   9.388   2.988 -0.0728 -0.8021 -0.1845
34365SOL    HW1 5102   5.491   9.425   2.918  0.6946  0.3976 -0.1810
34365SOL    HW2 5103   5.573   9.303   2.954 -1.1538 -1.0165 -0.5822
34366SOL     OW 5104   8.357   4.186   8.307  0.5506 -0.5014  0.0205
34366SOL    HW1 5105   8.282   4.206   8.251  0.9250 -0.9691 -0.6591
34366SOL    HW2 5106   8.389   4.101   8.276  0.8307 -0.7260  0.8788
34367SOL     OW 5107   7.061   1.090   4.788 -0.3190  0.0158  0.6584
34367SOL    HW1 5108   7.107   1.173   4.805  0.3030  0.8037 -3.6076
34367SOL    HW2 5109   7.130   1.024   4.792 -0.2052  0.1537  1.0429
34368SOL     OW 5110   6.884   0.480   3.533  0.0955 -0.0184  0.5136
34368SOL    HW1 5111   6.866   0.399   3.485  4.2767 -0.6472 -0.3760
34368SOL    HW2 5112   6.922   0.452   3.616  2.7796  0.8963 -0.3158
34369SOL     OW 5113   2.029   9.122   3.345 -0.1760 -0.2461  0.3172
34369SOL    HW1 5114   2.022   9.055   3.276  3.1189  1.4755 -1.9611
34369SOL    HW2 5115   2.113   9.104   3.387  0.2145  1.7471  0.4420
34370SOL     OW 5116   0.941   4.002   7.225 -0.2483 -0.3581  0.4314
34370SOL    HW1 5117   0.848   3.999   7.202 -0.5421 -1.3937  1.6500
34370SOL    HW2 5118   0.977   3.922   7.185  0.2550  0.3327 -0.5254
34371SOL     OW 5119   0.906  10.411   7.175 -0.0756  0.8509  0.4524
34371SOL    HW1 5120   0.976  10.475   7.159 -0.0447  0.7245  0.0658
34371SOL    HW2 5121   0.827  10.463   7.183 -0.2018  0.8730 -0.8333
34372SOL     OW 5122   5.714   9.862   1.888  0.1713  0.1600  0.5871
34372SOL    HW1 5123   5.707   9.799   1.960 -1.5119 -0.9131 -0.4401
34372SOL    HW2 5124   5.719   9.947   1.931 -0.5434 -0.4780  1.9955
34373SOL     OW 5125   2.042   6.798   7.724  0.0691 -0.3990 -0.4730
34373SOL    HW1 5126   1.954   6.794   7.687  0.0480  0.3422 -0.5206
34373SOL    HW2 5127   2.040   6.736   7.797  0.0577 -1.7371 -1.5671
34374SOL     OW 5128   0.235   2.168   9.214  0.7852 -0.2686  0.0905
34374SOL    HW1 5129   0.207   2.172   9.123  0.2313  0.5535  0.2824
34374SOL    HW2 5130   0.285   2.249   9.227 -0.7542  0.5943  1.0043
34375SOL     OW 5131   7.323   4.707  10.275 -0.0248 -0.1548  0.1662
34375SOL    HW1 5132   7.314   4.720  10.369 -0.2625 -1.1746  0.2940
34375SOL    HW2 5133   7.252   4.647  10.252 -0.9009  1.2220 -0.9306
34376SOL     OW 5134  10.729   8.892   8.755  0.2134  0.8754 -0.0824
34376SOL    HW1 5135  10.787   8.876   8.681  0.2092 -0.0568  0.1005
34376SOL    HW2 5136  10.641   8.885   8.718  0.1486 -1.9578  0.3998
34377SOL     OW 5137   2.526   3.119  10.219 -0.2458 -0.0890 -0.2784
34377SOL    HW1 5138   2.459   3.113  10.151 -1.2048  2.4479  0.3172
34377SOL    HW2 5139   2.608   3.102  10.174 -1.0754 -0.9038 -1.5267
34378SOL     OW 5140   8.724   1.346  10.747  0.6179  0.3356 -0.1238
34378SOL    HW1 5141   8.644   1.383  10.785  0.9721  0.4514  0.5358
34378SOL    HW2 5142   8.782   1.334  10.822  0.9269 -0.5002 -0.4820
34379SOL     OW 5143   3.882   6.852   5.038  0.5348  0.5000 -0.4844
34379SOL    HW1 5144   3.811   6.797   5.007 -0.2990 -0.4469  2.6883
34379SOL    HW2 5145   3.879   6.930   4.983 -1.8450 -0.2836 -1.5524
34380SOL     OW 5146   3.775   0.128   0.764  0.1921  0.4783 -0.4488
34380SOL    HW1 5147   3.816   0.090   0.841  0.0881  0.4067 -0.4283
34380SOL    HW2 5148   3.695   0.168   0.796  0.7377  1.4897 -0.3307
34381SOL     OW 5149  11.133   1.717   2.844 -0.0343 -0.5643  0.1628
34381SOL    HW1 5150  11.217   1.748   2.811 -0.6344  0.0742 -0.8367
34381SOL    HW2 5151  11.142   1.622   2.850 -0.3602 -0.9503 -3.4358
34382SOL     OW 5152   3.522   4.217   1.295  0.3924  0.7162 -0.6723
34382SOL    HW1 5153   3.508   4.159   1.220 -0.2509  1.7031 -1.3299
34382SOL    HW2 5154   3.567   4.162   1.359  0.0427 -0.4343 -1.3817
34383SOL     OW 5155  10.313   8.568   1.806 -0.1168  0.4435 -0.3382
34383SOL    HW1 5156  10.288   8.660   1.804 -1.3372  0.1172 -1.2281
34383SOL    HW2 5157  10.370   8.560   1.882  0.3443  2.0098 -0.4945
34384SOL     OW 5158   0.241   0.862   1.112  0.1851  0.0276  0.1515
34384SOL    HW1 5159   0.274   0.798   1.049  1.4369  2.5922 -1.9700
34384SOL    HW2 5160   0.255   0.820   1.197  0.6178 -2.6153 -1.1118
34385SOL     OW 5161  10.661   7.390   2.572  0.1160 -0.0980 -0.3151
34385SOL    HW1 5162  10.754   7.396   2.594  0.4288 -0.3022 -1.4979
34385SOL    HW2 5163  10.618   7.367   2.654  1.0620  0.3672  0.3288
34386SOL     OW 5164  10.749  10.470  10.448  0.5495 -0.3772 -0.4443
34386SOL    HW1 5165  10.756  10.439  10.538 -1.7217  0.1466 -0.0226
34386SOL    HW2 5166  10.665  10.516  10.445  1.7047  1.7621 -2.2197
34387SOL     OW 5167   4.492   9.598   0.556  0.1935 -0.1112  0.3430
34387SOL    HW1 5168   4.529   9.676   0.599  0.8264  0.8008 -1.7379
34387SOL    HW2 5169   4.542   9.525   0.593  1.7764  0.7893  0.0758
34388SOL     OW 5170   9.957   1.345   9.470 -0.0686 -0.2429  0.1636
34388SOL    HW1 5171   9.920   1.355   9.558 -1.9920  0.7541 -0.6946
34388SOL    HW2 5172   9.922   1.420   9.422  1.0154 -0.7364 -1.4463
34389SOL     OW 5173   0.032   6.550  10.405 -0.2304  0.1026 -0.0732
34389SOL    HW1 5174  -0.057   6.545  10.440 -0.5152 -0.3917 -0.8326
34389SOL    HW2 5175   0.050   6.461  10.373  0.0791  0.4952 -1.0108
34390SOL     OW 5176  10.664   8.435   6.692 -0.6233 -0.8222  0.3904
34390SOL    HW1 5177  10.576   8.432   6.655 -0.1517 -2.0885 -0.7450
34390SOL    HW2 5178  10.696   8.523   6.671 -1.7672 -0.1660  1.2610
34391SOL     OW 5179   4.782  10.950   3.050  0.2089 -0.8483  0.5249
34391SOL    HW1 5180   4.797  10.919   3.139  0.6974  0.2340  0.8462
34391SOL    HW2 5181   4.722  11.024   3.060  0.0219 -0.9116 -0.0805
34392SOL     OW 5182   1.154   2.150  10.632 -0.0785 -0.3772  0.4234
34392SOL    HW1 5183   1.213   2.165  10.559  0.4669  2.0568  1.2831
34392SOL    HW2 5184   1.111   2.067  10.611  2.3975 -1.3882 -1.0345
34393SOL     OW 5185   1.729   7.311   3.872  0.3424 -0.2435 -0.0089
34393SOL    HW1 5186   1.652   7.367   3.877  1.2737  1.1845 -0.7927
34393SOL    HW2 5187   1.780   7.332   3.950  0.9515  0.4566 -0.5708
34394SOL     OW 5188   9.768   5.359  10.526  0.6148  0.4590 -0.7075
34394SOL    HW1 5189   9.784   5.284  10.469  1.0814 -0.0720  0.1050
34394SOL    HW2 5190   9.852   5.374  10.570  0.2466  0.8193 -0.1108
34395SOL     OW 5191   6.369   0.344   1.410 -0.2257  0.0350  0.0859
34395SOL    HW1 5192   6.374   0.347   1.315 -1.4143  0.3779  0.0242
34395SOL    HW2 5193   6.320   0.264   1.429  0.4302 -0.2940  0.4394
34396SOL     OW 5194   9.489   7.368   6.445 -0.5921  0.1171  0.0164
34396SOL    HW1 5195   9.405   7.398   6.411  0.2487  0.1450 -2.1849
34396SOL    HW2 5196   9.550   7.379   6.372  1.1790 -0.6012  1.3125
34397SOL     OW 5197   7.536   9.691   9.421 -0.3163 -1.1764  0.1841
34397SOL    HW1 5198   7.542   9.784   9.397 -2.2650 -0.9068  0.5995
34397SOL    HW2 5199   7.624   9.669   9.451 -0.2217  1.0718  1.8873
34398SOL     OW 5200  10.386  10.282  10.604 -0.1686 -0.6287 -0.0840
34398SOL    HW1 5201  10.456  10.227  10.638  0.7620 -0.2334 -1.3183
34398SOL    HW2 5202  10.404  10.369  10.641  1.2796 -0.0163 -2.0282
34399SOL     OW 5203   7.058   1.119   5.628 -0.3707 -0.0266 -0.2237
34399SOL    HW1 5204   7.001   1.091   5.700  0.8668  0.1966  0.8854
34399SOL    HW2 5205   7.024   1.073   5.551 -2.4332  0.5833  0.2440
34400SOL     OW 5206  11.174   6.159   0.238 -0.1671 -0.2701  0.0870
34400SOL    HW1 5207  11.256   6.150   0.190  0.7967  2.4992  1.0372
34400SOL    HW2 5208  11.115   6.201   0.176 -0.5182 -1.1635 -0.2025
34401SOL     OW 5209   2.863   6.497   4.414  0.2667  0.0313  0.4323
34401SOL    HW1 5210   2.796   6.565   4.422 -1.0353 -1.0249 -0.9323
34401SOL    HW2 5211   2.944   6.545   4.393 -1.0662  1.1408 -2.9170
34402SOL     OW 5212   1.515   3.755   7.615  0.1037  0.1280  0.5819
34402SOL    HW1 5213   1.492   3.680   7.670 -2.4042 -0.9897 -1.6967
34402SOL    HW2 5214   1.551   3.715   7.535 -0.5395  1.3670 -0.3557
34403SOL     OW 5215   6.562   5.354   9.625  0.5936 -0.1084 -0.3405
34403SOL    HW1 5216   6.586   5.443   9.601  0.1112  0.4546  1.1726
34403SOL    HW2 5217   6.628   5.299   9.582  0.6167  0.9176 -1.6854
34404SOL     OW 5218   1.290   7.722   3.450  0.2047 -0.0514 -0.1473
34404SOL    HW1 5219   1.385   7.733   3.449  0.2689 -0.6584 -0.6311
34404SOL    HW2 5220   1.263   7.730   3.359 -0.5900  3.1811  0.2448
34405SOL     OW 5221   5.696   2.651   5.485  0.5521  1.0343 -0.1421
34405SOL    HW1 5222   5.762   2.700   5.435 -0.5440  2.0336 -0.6313
34405SOL    HW2 5223   5.741   2.569   5.507  0.8140  0.0630 -3.6036
34406SOL     OW 5224   7.475   0.512   4.894 -0.4071  0.2087 -0.5039
34406SOL    HW1 5225   7.407   0.536   4.957 -1.3734 -1.9408 -0.6622
34406SOL    HW2 5226   7.428   0.491   4.814  0.3215 -1.9456 -0.4326
34407SOL     OW 5227   9.690   0.421   7.320 -0.7245 -0.6972  0.1652
34407SOL    HW1 5228   9.761   0.485   7.326 -1.6519  0.6024 -1.7330
34407SOL    HW2 5229   9.726   0.349   7.269 -0.9132  0.2513 -1.3649
34408SOL     OW 5230   1.555   2.078  10.144 -0.1566  0.2865 -0.0563
34408SOL    HW1 5231   1.614   2.018  10.098  0.4343  1.9480 -1.5779
34408SOL    HW2 5232   1.609   2.116  10.214 -0.5223 -0.8627  0.8886
34409SOL     OW 5233   5.803   8.660   2.925 -0.1576 -0.6811  0.6083
34409SOL    HW1 5234   5.858   8.581   2.923 -0.3064 -0.8507 -3.0131
34409SOL    HW2 5235   5.858   8.729   2.888 -1.3712 -0.1071 -0.1897
34410SOL     OW 5236   5.065   6.426   1.452  0.1613  0.4709  0.6883
34410SOL    HW1 5237   5.096   6.517   1.454  0.0579  0.5097  0.5474
34410SOL    HW2 5238   5.145   6.374   1.439  0.6238  0.3247  3.5248
34411SOL     OW 5239  11.065   5.565   5.837  0.5868 -0.1372 -0.1111
34411SOL    HW1 5240  11.138   5.628   5.841  0.2686  0.4049 -1.9684
34411SOL    HW2 5241  11.107   5.482   5.814  0.8398 -0.3037  0.9073
34412SOL     OW 5242   6.341   7.752   3.953  0.1097  0.2249  0.1228
34412SOL    HW1 5243   6.290   7.826   3.920 -1.3879  0.3243  2.4481
34412SOL    HW2 5244   6.368   7.778   4.041 -1.0482 -2.1732  1.2897
34413SOL     OW 5245   5.176   4.268  11.090  0.1309 -0.0976  0.0119
34413SOL    HW1 5246   5.206   4.348  11.134 -0.6073  0.7231 -0.9169
34413SOL    HW2 5247   5.089   4.253  11.125 -1.0354  1.3504 -2.0731
34414SOL     OW 5248   3.740   9.488  10.815 -0.6620 -0.4614  0.1279
34414SOL    HW1 5249   3.673   9.458  10.877 -0.0667  1.2576  1.6768
34414SOL    HW2 5250   3.762   9.576  10.844 -0.1439  0.3325 -2.4070
34415SOL     OW 5251   1.067   7.713   6.659  0.5027  0.2610 -0.3432
34415SOL    HW1 5252   1.143   7.683   6.709  0.6969  1.1793 -0.0637
34415SOL    HW2 5253   1.007   7.748   6.724 -0.2834 -0.6735 -0.5415
34416SOL     OW 5254   8.104  10.654   5.164  0.2084  0.2981  0.4490
34416SOL    HW1 5255   8.098  10.746   5.139 -1.9543 -0.2302 -1.3170
34416SOL    HW2 5256   8.087  10.606   5.083  1.6390 -1.7023  1.2443
34417SOL     OW 5257   0.038   4.462   4.307  0.2431  0.3004 -0.2677
34417SOL    HW1 5258   0.031   4.415   4.223 -1.7133  0.8021 -0.4160
34417SOL    HW2 5259   0.131   4.453   4.330  0.6488 -0.6496 -2.0110
34418SOL     OW 5260  10.460   5.735   7.250  0.0681 -0.5609 -0.1075
34418SOL    HW1 5261  10.452   5.827   7.271 -1.2011 -0.7868  0.4410
34418SOL    HW2 5262  10.541   5.730   7.198 -0.3070  0.9820 -0.9133
34419SOL     OW 5263   6.730  10.026   9.605  0.9095  0.0589  0.1799
34419SOL    HW1 5264   6.687  10.107   9.579 -0.3385 -0.1261  1.5600
34419SOL    HW2 5265   6.799  10.053   9.665 -1.6041  0.0028  3.3469
34420SOL     OW 5266   8.762   3.052  10.330  0.8253 -0.1958  0.2167
34420SOL    HW1 5267   8.691   3.009  10.281  1.5190 -2.1529  0.8555
34420SOL    HW2 5268   8.717   3.098  10.401  0.2040 -1.7838  0.8795
34421SOL     OW 5269   4.932   7.193  10.000  0.0311 -0.3936 -0.1995
34421SOL    HW1 5270   4.892   7.114   9.963 -0.1494 -0.6102  0.4535
34421SOL    HW2 5271   4.973   7.235   9.925  0.9236 -1.5807 -0.4058
34422SOL     OW 5272   6.221   2.734   4.477  0.0034 -0.1510  0.4581
34422SOL    HW1 5273   6.243   2.742   4.384 -2.7676 -1.2496 -0.3912
34422SOL    HW2 5274   6.240   2.821   4.513  1.0021  0.3454 -1.1208
34423SOL     OW 5275   9.130   6.376   6.116 -0.1493  0.4285 -0.2313
34423SOL    HW1 5276   9.196   6.380   6.047  0.4708  0.8140  0.3682
34423SOL    HW2 5277   9.065   6.443   6.092  0.7948  1.5551  0.2824
34424SOL     OW 5278   9.821   6.084   9.736  0.5509  0.1335 -0.1534
34424SOL    HW1 5279   9.912   6.055   9.740  0.6252  0.4027  0.1159
34424SOL    HW2 5280   9.778   6.042   9.810  0.4815  0.1029 -0.2100
34425SOL     OW 5281   5.699  11.103   8.820 -0.5238 -0.1483 -0.1759
34425SOL    HW1 5282   5.712  11.142   8.907 -0.1633 -3.3089  1.3331
34425SOL    HW2 5283   5.786  11.104   8.780 -0.3093 -0.3496  0.2811
34426SOL     OW 5284   3.946   3.674   8.228  0.5048 -0.3349 -0.7079
34426SOL    HW1 5285   3.956   3.670   8.133 -0.3776  0.0856 -0.8333
34426SOL    HW2 5286   3.926   3.584   8.254 -0.0660 -0.3072 -1.0329
34427SOL     OW 5287   8.661  10.827   1.458 -0.3379  0.0933  0.2158
34427SOL    HW1 5288   8.696  10.885   1.525  0.1806 -0.2014  0.2045
34427SOL    HW2 5289   8.580  10.870   1.429 -0.2310  0.5432  0.5719
34428SOL     OW 5290   5.558   9.743   5.211  0.0728  0.1381 -0.2952
34428SOL    HW1 5291   5.566   9.837   5.193  1.7830  0.0130 -0.3513
34428SOL    HW2 5292   5.567   9.702   5.125 -0.6297 -0.0920 -0.2643
34429SOL     OW 5293   7.915   3.484   1.968  0.6972  0.0269 -0.1255
34429SOL    HW1 5294   7.880   3.422   1.905 -2.7356 -1.5815  2.9306
34429SOL    HW2 5295   7.903   3.570   1.927  1.6949 -1.0210 -2.8162
34430SOL     OW 5296   1.299   4.811   7.266  0.1151  0.0882  0.4358
34430SOL    HW1 5297   1.234   4.856   7.321  0.2650 -1.0382  1.5879
34430SOL    HW2 5298   1.251   4.785   7.188 -0.7860 -0.5355  1.1749
34431SOL     OW 5299   6.679   2.570  11.166 -0.9387  0.2340 -0.0458
34431SOL    HW1 5300   6.689   2.530  11.253  2.7888 -0.3620 -0.5807
34431SOL    HW2 5301   6.716   2.658  11.176 -0.8815  0.3152 -0.9295
34432SOL     OW 5302   6.597   8.822   1.424  0.5310 -0.0968 -0.2847
34432SOL    HW1 5303   6.593   8.886   1.353  0.4604  0.8445  0.5346
34432SOL    HW2 5304   6.518   8.770   1.414 -1.9500  2.8874  1.6345
34433SOL     OW 5305   5.480   2.000   5.626 -0.4533  0.1314  0.6528
34433SOL    HW1 5306   5.417   2.071   5.638 -0.5673 -0.0293  1.0416
34433SOL    HW2 5307   5.427   1.925   5.600 -0.2024  0.4789 -0.9534
34434SOL     OW 5308   2.308   3.989   3.237 -0.5080  0.0703  0.1093
34434SOL    HW1 5309   2.301   3.982   3.142  1.4033 -0.1718 -0.0514
34434SOL    HW2 5310   2.340   3.904   3.265  0.4166  0.6125  0.7790
34435SOL     OW 5311   5.400   5.637   0.357  0.0476  0.0805  0.4274
34435SOL    HW1 5312   5.444   5.617   0.275 -0.5374  0.7350 -0.0593
34435SOL    HW2 5313   5.424   5.565   0.416 -0.0880 -0.7650 -0.5235
34436SOL     OW 5314   1.248   7.497   6.736 -0.2604 -0.5584  0.4591
34436SOL    HW1 5315   1.195   7.432   6.689 -1.8543  0.8745  0.1900
34436SOL    HW2 5316   1.317   7.519   6.674 -0.9164 -0.4891 -0.2738
34437SOL     OW 5317   9.379   3.276   8.625  0.2650  0.3100  0.5532
34437SOL    HW1 5318   9.338   3.339   8.684 -1.7144 -0.4542  0.0723
34437SOL    HW2 5319   9.456   3.322   8.590 -1.1425  2.5296  0.1428
34438SOL     OW 5320  11.037   4.316   5.185  0.1576 -0.5275  0.1644
34438SOL    HW1 5321  11.001   4.347   5.268 -0.8669 -0.1183 -0.4124
34438SOL    HW2 5322  11.121   4.276   5.209 -0.7581 -1.7078  1.5877
34439SOL     OW 5323   1.360   1.018   9.940  0.6174  0.1659  1.0131
34439SOL    HW1 5324   1.279   1.039   9.987  1.7472  1.3557  2.5600
34439SOL    HW2 5325   1.391   0.936   9.980 -0.2722 -0.8352 -0.2592
34440SOL     OW 5326   4.082   8.671   9.417  0.0860 -0.1186 -0.3672
34440SOL    HW1 5327   4.126   8.698   9.497 -2.3007 -0.8376  1.2930
34440SOL    HW2 5328   4.019   8.604   9.445 -2.1523  0.9139 -2.5155
34441SOL     OW 5329   2.799   2.826   8.139  0.4136  0.4594 -0.0655
34441SOL    HW1 5330   2.734   2.892   8.162  0.2161  0.6255 -1.0268
34441SOL    HW2 5331   2.834   2.856   8.055  0.2206 -0.7150 -0.5955
34442SOL     OW 5332   9.181   0.129   1.430  0.4527 -0.5241 -0.0569
34442SOL    HW1 5333   9.107   0.170   1.386  0.1876 -1.8220 -0.8789
34442SOL    HW2 5334   9.156   0.125   1.522  0.4589  1.0389  0.0406
34443SOL     OW 5335   3.901   6.917   4.085  0.2252  0.0408  0.6004
34443SOL    HW1 5336   3.945   6.835   4.062 -1.9118 -1.5210  1.7031
34443SOL    HW2 5337   3.972   6.980   4.097  1.8466 -0.8430 -2.9029
34444SOL     OW 5338   9.678   9.871   3.030  0.3431  0.0897  0.4608
34444SOL    HW1 5339   9.585   9.879   3.011 -0.0043  1.9568  2.6072
34444SOL    HW2 5340   9.710   9.809   2.965 -1.9104  1.1574 -1.8313
34445SOL     OW 5341   0.100   8.037   3.526  0.7796 -0.2685  0.1703
34445SOL    HW1 5342   0.066   8.100   3.589  1.1831  0.9195 -0.7586
34445SOL    HW2 5343   0.115   8.088   3.446 -2.2507 -2.2061 -1.8495
34446SOL     OW 5344   4.568   5.089  10.431 -0.0424 -0.1843 -0.0487
34446SOL    HW1 5345   4.607   5.004  10.452 -2.1282 -1.5349 -1.2845
34446SOL    HW2 5346   4.586   5.102  10.338  0.4390  0.8772  0.1693
34447SOL     OW 5347   4.716   0.308   2.708  0.4769 -0.1068  0.3241
34447SOL    HW1 5348   4.688   0.272   2.792  0.5920  1.2154  0.9521
34447SOL    HW2 5349   4.636   0.320   2.658  0.4793 -1.7225 -0.1268
34448SOL     OW 5350   6.939   1.695  10.953  1.0976 -0.5039  0.2972
34448SOL    HW1 5351   7.029   1.684  10.924  1.2850  0.2441  0.5774
34448SOL    HW2 5352   6.927   1.790  10.960 -0.0071 -0.5329 -0.6817
34449SOL     OW 5353   3.225   1.505   6.714  0.4724 -0.0894  0.0506
34449SOL    HW1 5354   3.248   1.581   6.768 -0.8129  1.1928 -1.1266
34449SOL    HW2 5355   3.307   1.478   6.673  1.0329  0.3362  0.8808
34450SOL     OW 5356   2.515   7.654  10.293  0.3173 -0.8419 -0.4513
34450SOL    HW1 5357   2.590   7.628  10.239  1.0421  0.2857 -0.0237
34450SOL    HW2 5358   2.520   7.598  10.370  1.6092  0.1764  0.2589
34451SOL     OW 5359   1.809  10.472   5.680  0.6075  1.0362  0.1754
34451SOL    HW1 5360   1.735  10.413   5.660 -0.9054  2.7525  0.4575
34451SOL    HW2 5361   1.885  10.426   5.645 -0.5415 -0.8946 -0.0031
34452SOL     OW 5362   5.122   3.819   0.572  0.6385 -0.3989 -0.4494
34452SOL    HW1 5363   5.182   3.838   0.500  2.8781 -1.4692  1.0091
34452SOL    HW2 5364   5.176   3.822   0.650 -1.6088  0.2682  1.2049
34453SOL     OW 5365   4.673   4.538   3.025  0.2958 -0.3148  0.4731
34453SOL    HW1 5366   4.657   4.614   3.082  0.7960  0.3193 -0.2227
34453SOL    HW2 5367   4.724   4.478   3.079  0.6699  0.2326  0.7326
34454SOL     OW 5368  10.914   6.241   2.190  0.0130  0.4510 -0.1049
34454SOL    HW1 5369  10.993   6.294   2.183  1.5487 -1.9203 -3.0931
34454SOL    HW2 5370  10.852   6.283   2.130 -1.0233  2.1239  1.9993
34455SOL     OW 5371   9.477   1.242   6.492 -0.4780  0.1990 -0.0004
34455SOL    HW1 5372   9.569   1.269   6.496  0.6552 -3.0672 -0.9349
34455SOL    HW2 5373   9.458   1.234   6.399 -1.6402  0.4969  0.1969
34456SOL     OW 5374   4.961  11.195   0.718  0.0365 -0.8255 -0.1469
34456SOL    HW1 5375   4.973  11.171   0.809  1.4148  0.8543  0.1543
34456SOL    HW2 5376   4.891  11.261   0.719  1.2550  0.5113 -0.0424
34457SOL     OW 5377   8.748   7.192   6.881 -0.8378  0.0618 -0.0170
34457SOL    HW1 5378   8.653   7.190   6.893 -0.9908  1.3148 -0.8602
34457SOL    HW2 5379   8.783   7.159   6.963 -2.0177 -2.7016 -0.5307
34458SOL     OW 5380   7.470   1.793   0.195 -0.2746  0.1837  0.7498
34458SOL    HW1 5381   7.538   1.737   0.231  1.3891  1.2084 -0.6024
34458SOL    HW2 5382   7.500   1.882   0.213 -1.6522  0.6642  0.7837
34459SOL     OW 5383   0.593   3.335   5.271  0.3660 -0.0771  0.3430
34459SOL    HW1 5384   0.577   3.264   5.208 -1.0488  0.4912  0.0328
34459SOL    HW2 5385   0.654   3.394   5.225  0.5410 -0.4336  0.1093
34460SOL     OW 5386   8.829   2.649   2.125 -0.3478 -0.1192  0.0428
34460SOL    HW1 5387   8.821   2.735   2.084 -0.1673 -0.3618 -0.5071
34460SOL    HW2 5388   8.800   2.587   2.059 -0.7684 -0.4681  0.5432
34461SOL     OW 5389   9.742   4.856   1.243  0.5311 -0.8116  0.9102
34461SOL    HW1 5390   9.692   4.789   1.290 -2.2523  0.1824 -0.4231
34461SOL    HW2 5391   9.758   4.818   1.157 -0.8820  0.0901  0.2178
34462SOL     OW 5392   6.743   6.090  10.142  0.5704 -0.8527 -0.0475
34462SOL    HW1 5393   6.766   6.003  10.174 -1.1803 -0.8409  1.4511
34462SOL    HW2 5394   6.816   6.116  10.086  1.6224 -2.8316  0.3263
34463SOL     OW 5395  10.496   8.436   2.386  0.2062  0.3760  0.0045
34463SOL    HW1 5396  10.551   8.376   2.437  0.4128  1.0242  0.5474
34463SOL    HW2 5397  10.467   8.383   2.312 -0.0329 -0.5628  0.7401
34464SOL     OW 5398  11.196   7.978   8.827 -0.0954 -0.1888  0.5897
34464SOL    HW1 5399  11.158   8.065   8.828  1.0693  0.3795 -0.9513
34464SOL    HW2 5400  11.137   7.927   8.771  0.8366  0.4409 -1.0182
34465SOL     OW 5401   4.968   4.139   2.713 -0.0020  0.4334 -0.1226
34465SOL    HW1 5402   5.040   4.120   2.772 -0.2819 -0.1440  0.0447
34465SOL    HW2 5403   4.912   4.061   2.717 -0.4379  0.7142 -0.5354
34466SOL     OW 5404   2.419   7.841   8.453  0.5159  0.0462  0.0010
34466SOL    HW1 5405   2.484   7.805   8.514  1.9996 -0.8400 -1.9642
34466SOL    HW2 5406   2.449   7.812   8.367  0.0678  3.4603 -1.4713
34467SOL     OW 5407   6.950   5.298   0.369 -0.1037 -0.0370 -0.1704
34467SOL    HW1 5408   7.022   5.281   0.308 -0.0647  2.4836 -0.9481
34467SOL    HW2 5409   6.883   5.341   0.316 -1.8157 -1.4556  0.7498
34468SOL     OW 5410   1.048   1.398  10.666 -0.2978  0.1993 -0.0657
34468SOL    HW1 5411   0.953   1.391  10.676 -0.0579 -1.9567  1.3253
34468SOL    HW2 5412   1.063   1.385  10.572 -1.3107 -0.4384 -0.1552
34469SOL     OW 5413   5.547   8.687   8.932  0.2725  0.3667  0.0884
34469SOL    HW1 5414   5.571   8.728   8.849 -1.5699  0.6709 -0.3296
34469SOL    HW2 5415   5.517   8.759   8.987  1.2217  0.1300  0.9406
34470SOL     OW 5416   3.351   4.008   7.897  0.5361  0.4430 -0.0525
34470SOL    HW1 5417   3.261   3.977   7.893 -0.6489  3.5497 -3.4717
34470SOL    HW2 5418   3.343   4.102   7.917  3.1431  0.5899  0.7086
34471SOL     OW 5419   4.157   3.849   1.144  0.4014  0.1248 -0.2161
34471SOL    HW1 5420   4.251   3.827   1.143  0.7133  1.3653 -1.7530
34471SOL    HW2 5421   4.140   3.884   1.057 -1.5239 -0.1179  0.0322
34472SOL     OW 5422   4.462  10.422   1.928 -0.2304 -0.0768 -0.4464
34472SOL    HW1 5423   4.389  10.418   1.990 -0.5320  0.2571 -0.7799
34472SOL    HW2 5424   4.535  10.454   1.981 -0.4789  0.1736 -0.2499
34473SOL     OW 5425   7.847  10.190   8.502 -0.5114  0.7143  0.1244
34473SOL    HW1 5426   7.822  10.264   8.447 -0.6775  0.6851  0.1609
34473SOL    HW2 5427   7.892  10.130   8.442  0.0387  1.0580  0.1892
34474SOL     OW 5428   8.304   1.697   4.502 -0.1470 -0.2316  1.1376
34474SOL    HW1 5429   8.232   1.637   4.518  1.6261 -3.8470 -2.6598
34474SOL    HW2 5430   8.380   1.655   4.542  1.3944 -1.6106 -2.7300
34475SOL     OW 5431   1.345   1.331   6.866 -0.6754 -0.7890 -0.4983
34475SOL    HW1 5432   1.428   1.368   6.835  1.1847 -3.8505  0.3875
34475SOL    HW2 5433   1.278   1.379   6.817  1.5901  1.6147 -1.4985
34476SOL     OW 5434   2.305   6.494  10.353 -0.1450  0.0605  0.2218
34476SOL    HW1 5435   2.217   6.457  10.347  0.5512 -1.8164  0.9838
34476SOL    HW2 5436   2.301   6.573  10.299 -1.7823 -0.9591 -1.2709
34477SOL     OW 5437   5.394   5.800   0.575  0.0625  0.1667  0.0800
34477SOL    HW1 5438   5.483   5.835   0.567  0.3199  0.1400  2.2204
34477SOL    HW2 5439   5.368   5.780   0.485  0.9280  3.2347 -0.9846
34478SOL     OW 5440   8.782   1.877   3.695 -0.1085  0.7393  0.0020
34478SOL    HW1 5441   8.717   1.814   3.725  0.4004 -0.1710 -0.7424
34478SOL    HW2 5442   8.748   1.909   3.611 -1.4373  3.1395  1.3409
34479SOL     OW 5443   1.933   8.377   0.013  0.1350 -0.0552 -0.4030
34479SOL    HW1 5444   1.865   8.316   0.042  1.0194 -0.7102  0.3299
34479SOL    HW2 5445   1.940   8.440   0.084  1.6570 -1.1345  0.4657
34480SOL     OW 5446   6.689   2.784   9.434  0.3222  0.7118  0.2553
34480SOL    HW1 5447   6.654   2.780   9.345 -1.6044  0.7460  0.9525
34480SOL    HW2 5448   6.778   2.749   9.428 -0.0789 -0.0658 -1.5247
34481SOL     OW 5449   1.927   3.843   0.641  0.3170 -0.0362  0.1345
34481SOL    HW1 5450   1.898   3.931   0.665  1.5298  0.3926  0.0783
34481SOL    HW2 5451   1.865   3.785   0.686 -0.8192  0.8365 -0.2497
34482SOL     OW 5452   7.368  11.265  11.032 -0.1617  0.1582  0.3279
34482SOL    HW1 5453   7.274  11.283  11.036 -0.6620 -2.1027  5.0031
34482SOL    HW2 5454   7.409  11.339  11.075 -0.1578 -0.2573  1.0551
34483SOL     OW 5455   9.123   2.895   5.644  0.2593 -0.2488  0.0289
34483SOL    HW1 5456   9.097   2.923   5.557 -0.8084 -1.5499 -0.0957
34483SOL    HW2 5457   9.110   2.973   5.699 -1.4870 -0.1143 -0.5225
34484SOL     OW 5458   4.656   0.606   9.633 -0.0591 -0.1091 -0.2653
34484SOL    HW1 5459   4.638   0.558   9.552  0.6681 -0.5206 -0.1905
34484SOL    HW2 5460   4.626   0.695   9.615 -0.8117 -0.4327 -0.6378
34485SOL     OW 5461   3.841  10.006   5.815 -0.4389  0.2644 -0.7088
34485SOL    HW1 5462   3.892  10.057   5.877 -0.4077  2.7347 -2.6080
34485SOL    HW2 5463   3.750  10.018   5.843 -0.3065 -0.4067  0.0488
34486SOL     OW 5464   1.275   2.333   2.268  0.2477 -0.3648  0.4766
34486SOL    HW1 5465   1.261   2.246   2.231 -0.5690  0.6691 -1.8439
34486SOL    HW2 5466   1.343   2.372   2.213  0.5330  0.5206  1.4202
34487SOL     OW 5467   9.606   2.110   9.879 -0.2154  0.5112 -0.2202
34487SOL    HW1 5468   9.694   2.116   9.841 -0.0625 -2.1351 -0.4303
34487SOL    HW2 5469   9.607   2.173   9.951  2.8549 -1.3866  1.6354
34488SOL     OW 5470   6.015   4.845  10.216  0.5836 -0.4732  0.0430
34488SOL    HW1 5471   6.007   4.905  10.142 -0.0735  1.5558  1.6484
34488SOL    HW2 5472   6.106   4.853  10.244  0.5248 -0.2951  0.1859
34489SOL     OW 5473   4.124   9.216   7.793 -0.5492  0.5516 -0.1093
34489SOL    HW1 5474   4.035   9.186   7.771 -0.9040  0.6610  1.0897
34489SOL    HW2 5475   4.167   9.139   7.829 -0.6260  0.8411  0.6142
34490SOL     OW 5476   6.430   2.508   4.819  0.6058  0.0561 -0.0872
34490SOL    HW1 5477   6.363   2.500   4.751 -0.6351  0.5568  1.0281
34490SOL    HW2 5478   6.397   2.453   4.891  0.4467  1.7514  1.1763
34491SOL     OW 5479   7.992   6.654  10.893 -0.0660 -1.1539  0.1881
34491SOL    HW1 5480   8.084   6.635  10.879  0.2422  0.1667  0.2810
34491SOL    HW2 5481   7.978   6.639  10.986  0.0113 -1.4969  0.1461
34492SOL     OW 5482   6.341  10.563   6.909 -0.4632 -0.6764  0.3406
34492SOL    HW1 5483   6.396  10.501   6.861  1.4617  1.8859 -1.0425
34492SOL    HW2 5484   6.306  10.621   6.841 -0.1397  1.2552  1.7449
34493SOL     OW 5485   7.593   8.038   2.434 -0.1126  0.5442  0.2765
34493SOL    HW1 5486   7.549   8.046   2.349  1.1917  0.8171 -0.4016
34493SOL    HW2 5487   7.543   7.971   2.481 -1.2348  0.8397 -0.4556
34494SOL     OW 5488   8.940   0.013   7.412  0.9646  0.1636 -0.7372
34494SOL    HW1 5489   8.876   0.081   7.391  0.2611 -0.3762 -0.3737
34494SOL    HW2 5490   8.971  -0.018   7.327 -0.4539 -0.6812 -0.9870
34495SOL     OW 5491   7.353   0.258   5.531  0.1483 -0.5164 -0.2468
34495SOL    HW1 5492   7.402   0.234   5.610  0.1735  0.6573  0.1112
34495SOL    HW2 5493   7.388   0.343   5.505  0.1483 -0.8878 -1.5471
34496SOL     OW 5494   9.264   3.791   1.720 -0.6825 -0.0250 -0.2381
34496SOL    HW1 5495   9.332   3.842   1.764 -0.3202 -0.4858 -0.2609
34496SOL    HW2 5496   9.277   3.808   1.627 -0.1235 -0.7001 -0.2866
34497SOL     OW 5497   8.888   9.391  10.705  0.8526 -0.9507  0.2908
34497SOL    HW1 5498   8.847   9.338  10.636 -0.8413  2.2452 -1.3997
34497SOL    HW2 5499   8.818   9.450  10.734  2.3089 -0.3570  2.8623
34498SOL     OW 5500   5.099  10.889   1.179  0.5881 -0.5584  0.5319
34498SOL    HW1 5501   5.105  10.850   1.091 -2.3205  1.7342 -0.8629
34498SOL    HW2 5502   5.045  10.827   1.228 -1.2932  0.0198 -0.6768
34499SOL     OW 5503   4.825   4.470   3.474  0.5304  0.2681 -0.3064
34499SOL    HW1 5504   4.895   4.420   3.517  1.0652  0.8459 -0.4823
34499SOL    HW2 5505   4.774   4.506   3.546 -0.1841 -0.9562 -0.1768
34500SOL     OW 5506  10.516   4.760   0.445 -0.0368 -0.7891  0.1328
34500SOL    HW1 5507  10.475   4.718   0.369 -1.4500  1.1095 -0.2555
34500SOL    HW2 5508  10.485   4.709   0.520 -2.3472 -0.0761 -0.2488
34501SOL     OW 5509   6.484   9.761   5.319 -0.1265 -0.5863 -0.6042
34501SOL    HW1 5510   6.567   9.756   5.273 -0.2817  1.2252 -1.1612
34501SOL    HW2 5511   6.421   9.788   5.252 -1.3341 -2.5699 -0.3531
34502SOL     OW 5512   1.477   7.652   8.141  0.1573 -0.0371  0.3661
34502SOL    HW1 5513   1.502   7.661   8.233 -1.3475 -0.0131  0.7860
34502SOL    HW2 5514   1.394   7.605   8.143 -1.0357  1.8972 -0.8407
34503SOL     OW 5515   0.669  11.206   7.381  0.1831 -0.7250 -0.3415
34503SOL    HW1 5516   0.585  11.170   7.354 -0.9506 -0.2026  2.2562
34503SOL    HW2 5517   0.661  11.300   7.365 -0.1791 -0.5273  0.9013
34504SOL     OW 5518   9.629   2.702   7.294 -0.2867  0.6304  0.3703
34504SOL    HW1 5519   9.619   2.749   7.377 -0.7477 -0.5489  1.0272
34504SOL    HW2 5520   9.717   2.664   7.299 -0.4480  0.2659  0.4883
34505SOL     OW 5521   6.556  10.687   2.962 -0.4000  1.1996  0.2686
34505SOL    HW1 5522   6.529  10.597   2.978  0.8336  0.8745  0.6642
34505SOL    HW2 5523   6.475  10.735   2.945 -1.2089  0.3169  1.5388
34506SOL     OW 5524   5.899   6.446   0.612 -0.1186 -0.0296  0.7897
34506SOL    HW1 5525   5.879   6.352   0.603  1.4019 -0.3242  0.2926
34506SOL    HW2 5526   5.826   6.490   0.569  0.7406 -1.1022 -1.9520
34507SOL     OW 5527   3.236   3.643   7.438 -0.3489 -0.4471  0.9106
34507SOL    HW1 5528   3.243   3.720   7.495  2.3903  1.1663 -1.3804
34507SOL    HW2 5529   3.286   3.575   7.483  1.7920  0.8083  0.5734
34508SOL     OW 5530   3.432   9.310   4.842 -0.0726  0.2661 -0.1174
34508SOL    HW1 5531   3.521   9.334   4.818  0.0421  0.0743  0.1157
34508SOL    HW2 5532   3.397   9.269   4.762  0.2277 -0.1494 -0.0383
34509SOL     OW 5533   6.462   8.588   2.700 -0.3350 -0.7344  0.1144
34509SOL    HW1 5534   6.552   8.620   2.688 -0.1835 -0.7366  1.1449
34509SOL    HW2 5535   6.469   8.524   2.771 -0.8359 -2.2247 -1.1300
34510SOL     OW 5536   0.852   9.633   7.402 -0.0402  0.3777  0.0339
34510SOL    HW1 5537   0.905   9.643   7.481 -0.2012  0.6766  0.1073
34510SOL    HW2 5538   0.778   9.692   7.416  0.2803  0.9642 -0.6383
34511SOL     OW 5539   1.728   8.110   9.569 -0.1615 -0.5206  0.1768
34511SOL    HW1 5540   1.798   8.156   9.617 -1.0130  0.8873  0.1172
34511SOL    HW2 5541   1.715   8.161   9.490  3.1821 -4.3092 -3.2675
34512SOL     OW 5542   4.084   4.513   2.340 -0.2874  0.0209  0.2404
34512SOL    HW1 5543   4.139   4.442   2.310  2.3062  0.9924  2.2752
34512SOL    HW2 5544   4.062   4.490   2.431 -0.0358  1.4052  0.6884
34513SOL     OW 5545   2.048   3.690   3.057  0.2161  0.7504 -0.3135
34513SOL    HW1 5546   2.008   3.716   3.139  1.5981  1.6565  0.1092
34513SOL    HW2 5547   2.051   3.770   3.005 -2.8891 -0.2593 -2.3052
34514SOL     OW 5548   2.269   2.036  11.169  0.5726  0.4260  0.3492
34514SOL    HW1 5549   2.192   2.092  11.176 -0.0693 -0.2690 -0.8195
34514SOL    HW2 5550   2.247   1.973  11.101  0.4878 -2.4730  2.8284
34515SOL     OW 5551   7.206   8.859   4.506 -0.0593  0.0753 -0.0642
34515SOL    HW1 5552   7.188   8.813   4.424  0.0234 -1.8963  0.9548
34515SOL    HW2 5553   7.180   8.797   4.574 -0.4868  1.8029  1.4253
34516SOL     OW 5554   1.136   6.570   6.673 -0.3521  0.1551 -0.9430
34516SOL    HW1 5555   1.221   6.614   6.675 -0.4656  0.4415 -1.9334
34516SOL    HW2 5556   1.150   6.489   6.722  0.9793 -0.6216 -2.4734
34517SOL     OW 5557   4.739   3.414   9.120 -0.0884 -0.8088  0.2445
34517SOL    HW1 5558   4.681   3.344   9.090 -0.2430 -0.8437  0.6185
34517SOL    HW2 5559   4.716   3.426   9.212 -0.3573  0.0264  0.0769
34518SOL     OW 5560   6.062   9.358   7.618 -0.5104  0.2021 -0.3206
34518SOL    HW1 5561   6.015   9.385   7.539 -2.1858  1.0504  0.8829
34518SOL    HW2 5562   6.150   9.337   7.588 -0.5862  2.1568 -2.1597
34519SOL     OW 5563   5.043   3.004   5.411  0.3912 -0.4717 -0.3787
34519SOL    HW1 5564   5.017   2.950   5.336 -2.4895 -0.7322  0.7148
34519SOL    HW2 5565   4.970   3.063   5.425  1.6815  0.8713  1.0990
34520SOL     OW 5566   1.725  10.453   2.871 -0.6108 -0.1426 -0.3713
34520SOL    HW1 5567   1.668  10.376   2.866  0.5259 -1.0732  0.5479
34520SOL    HW2 5568   1.698  10.507   2.796  0.2716 -2.5985 -2.6096
34521SOL     OW 5569   9.130   3.549   6.680 -0.3600  0.0933 -0.0436
34521SOL    HW1 5570   9.133   3.461   6.643  0.9936  0.2052 -0.2439
34521SOL    HW2 5571   9.043   3.555   6.721  0.1463 -1.9479  1.4893
34522SOL     OW 5572  11.114   6.833   6.842  0.8177 -0.0663 -0.0718
34522SOL    HW1 5573  11.076   6.871   6.922  1.4742 -0.2182  0.3207
34522SOL    HW2 5574  11.050   6.767   6.814  0.1781  0.5814 -0.1566
34523SOL     OW 5575   0.208   4.908   8.277  0.2230  0.5713  0.1810
34523SOL    HW1 5576   0.284   4.852   8.267  0.1992  0.7521 -1.0674
34523SOL    HW2 5577   0.133   4.850   8.264  0.1758  0.6747 -0.0088
34524SOL     OW 5578   9.529   3.145   7.075 -0.3087 -0.5011  0.0080
34524SOL    HW1 5579   9.559   3.105   6.993  1.4343 -2.0237  1.2837
34524SOL    HW2 5580   9.436   3.123   7.080  0.4659 -4.5504  0.5201
34525SOL     OW 5581   5.325   1.432   2.934 -0.4905 -0.1119 -0.3664
34525SOL    HW1 5582   5.399   1.418   2.994  1.4580 -0.2947 -2.6625
34525SOL    HW2 5583   5.339   1.369   2.863 -1.1096  1.9044 -2.3947
34526SOL     OW 5584   4.382   4.980   7.663  0.1011 -0.5687 -0.0496
34526SOL    HW1 5585   4.396   4.887   7.648 -1.5522 -1.0674  1.1642
34526SOL    HW2 5586   4.460   5.010   7.708 -0.9658 -2.3638  3.2780
34527SOL     OW 5587   0.529   2.590   2.576 -0.0324 -0.2609 -0.4533
34527SOL    HW1 5588   0.615   2.619   2.606 -0.4510  0.9385 -0.3773
34527SOL    HW2 5589   0.505   2.652   2.508 -1.0851 -0.2438 -0.0763
34528SOL     OW 5590   6.036   5.205   1.499  0.0607 -0.0633 -0.0697
34528SOL    HW1 5591   6.107   5.149   1.531  0.4280  0.3877 -0.0935
34528SOL    HW2 5592   6.080   5.271   1.445 -0.5528 -1.0009 -1.8122
34529SOL     OW 5593   3.042   9.524   3.624  0.4081 -0.1529  0.0905
34529SOL    HW1 5594   2.957   9.493   3.658  1.1043 -1.0848  1.0529
34529SOL    HW2 5595   3.101   9.449   3.637  1.7524  1.0113  0.9546
34530SOL     OW 5596   8.060  10.925  10.648  0.7347 -0.4230 -0.3055
34530SOL    HW1 5597   8.095  11.010  10.676  0.9334 -0.4915 -0.3464
34530SOL    HW2 5598   8.127  10.862  10.674 -0.7936 -0.9906  2.7295
34531SOL     OW 5599   9.014   4.784   8.814  0.3561  0.3130 -0.7461
34531SOL    HW1 5600   9.103   4.816   8.826  0.0512  1.2845 -0.9744
34531SOL    HW2 5601   8.966   4.859   8.779 -0.6781 -0.0320 -0.1148
34532SOL     OW 5602   1.751   5.576   9.671 -0.5543 -0.2384 -0.2216
34532SOL    HW1 5603   1.804   5.636   9.723  0.5811 -2.3333  1.1631
34532SOL    HW2 5604   1.705   5.633   9.608  2.1774  1.8149 -0.5338
34533SOL     OW 5605   4.953   0.489   5.107  0.5136 -0.5956  0.5407
34533SOL    HW1 5606   4.861   0.487   5.079  0.4411 -2.1084  0.7638
34533SOL    HW2 5607   4.949   0.513   5.200  0.4981  1.0771  0.1291
34534SOL     OW 5608   4.798   5.479   7.658 -0.5757  0.2095  0.2995
34534SOL    HW1 5609   4.709   5.498   7.631  0.2130  1.0928 -1.8967
34534SOL    HW2 5610   4.842   5.564   7.656  0.9714 -0.5575 -1.4422
34535SOL     OW 5611   8.155   3.904   1.180  0.0392 -1.0448 -0.3381
34535SOL    HW1 5612   8.105   3.827   1.208 -1.0874 -0.0819  0.3908
34535SOL    HW2 5613   8.129   3.973   1.241  2.0348 -0.4075 -0.1342
34536SOL     OW 5614   1.675   9.465   6.466 -0.4686 -0.3156 -0.5845
34536SOL    HW1 5615   1.733   9.390   6.473 -0.3718 -0.0922  2.4606
34536SOL    HW2 5616   1.731   9.541   6.479 -1.0628  0.0485 -0.0674
34537SOL     OW 5617   8.475   7.670   2.133  0.5780  0.7312 -0.5351
34537SOL    HW1 5618   8.475   7.734   2.061  1.5831  0.6933 -0.5749
34537SOL    HW2 5619   8.548   7.612   2.113 -0.4617 -0.5936 -0.6283
34538SOL     OW 5620   3.375   6.755   9.550 -0.4571 -0.3604 -0.5602
34538SOL    HW1 5621   3.446   6.736   9.488  1.0949  1.1443  0.6575
34538SOL    HW2 5622   3.403   6.713   9.631 -1.0156  0.1593 -0.0934
34539SOL     OW 5623   5.118   4.107   0.311  0.2684 -0.4994  0.3257
34539SOL    HW1 5624   5.083   4.196   0.314 -0.6354 -0.8705  1.7624
34539SOL    HW2 5625   5.042   4.050   0.325  0.8932 -1.4784 -0.1349
34540SOL     OW 5626   5.278   3.259   0.575  0.4961  0.0032  0.4170
34540SOL    HW1 5627   5.224   3.240   0.499  0.7851 -1.7603  0.5958
34540SOL    HW2 5628   5.359   3.295   0.540  0.1186  0.4407 -0.0082
34541SOL     OW 5629  10.097   9.724   1.576 -0.2593 -0.2295 -0.1754
34541SOL    HW1 5630  10.094   9.667   1.653  2.0116 -2.9154 -1.8942
34541SOL    HW2 5631  10.163   9.790   1.598  0.1638 -0.7906  0.2755
34542SOL     OW 5632   8.935   2.399   4.141 -0.3387  0.5225 -0.0984
34542SOL    HW1 5633   8.998   2.433   4.078 -0.4801  2.2202  0.6432
34542SOL    HW2 5634   8.872   2.470   4.155  0.2853  0.6474  2.7312
34543SOL     OW 5635  11.228   0.620  10.954 -0.1596 -0.3088 -0.5360
34543SOL    HW1 5636  11.293   0.629  11.023  0.3781 -2.7471 -0.6291
34543SOL    HW2 5637  11.169   0.695  10.966  0.4223 -0.1715  1.9980
34544SOL     OW 5638   3.838   2.985   8.056  0.0045 -0.1829 -0.6684
34544SOL    HW1 5639   3.790   3.063   8.085  0.6539  0.1134 -0.3831
34544SOL    HW2 5640   3.799   2.963   7.972  1.4807  1.9429 -1.9958
34545SOL     OW 5641  11.211   2.652   3.476  0.0281 -0.1043  0.7198
34545SOL    HW1 5642  11.135   2.628   3.423  0.6728  0.7700 -0.6570
34545SOL    HW2 5643  11.219   2.581   3.540  0.8360 -2.7474 -2.0636
34546SOL     OW 5644  10.159   8.314   8.242  0.1987 -0.4995  0.3027
34546SOL    HW1 5645  10.225   8.255   8.205  1.2864  0.9286 -0.1047
34546SOL    HW2 5646  10.094   8.255   8.282  2.6983 -1.9880  2.5027
34547SOL     OW 5647   8.264   6.463  10.903  0.3392 -0.0314  0.5412
34547SOL    HW1 5648   8.281   6.376  10.941  0.2756 -0.7354 -0.9822
34547SOL    HW2 5649   8.227   6.445  10.816  1.1748  1.5227 -0.1772
34548SOL     OW 5650   3.848   9.297   9.237  0.0860  0.2132  0.4414
34548SOL    HW1 5651   3.849   9.360   9.166  1.0790  0.5801  0.7569
34548SOL    HW2 5652   3.871   9.214   9.196  3.6221  0.9029  0.6712
34549SOL     OW 5653   2.696   2.277  10.114 -0.1145  0.3405 -0.6593
34549SOL    HW1 5654   2.718   2.366  10.087 -1.1403  0.5411 -0.8579
34549SOL    HW2 5655   2.720   2.223  10.039  0.0374  0.5132 -0.7355
34550SOL     OW 5656   7.564  10.097   3.779  0.4612  0.0790  0.3037
34550SOL    HW1 5657   7.620  10.028   3.814  1.1267  0.0100 -0.8335
34550SOL    HW2 5658   7.476  10.072   3.804  1.0072  1.3575  4.1605
34551SOL     OW 5659   7.736  10.105   4.654 -0.0533  0.1925  0.0298
34551SOL    HW1 5660   7.748  10.070   4.566  0.2086  1.3107 -0.4032
34551SOL    HW2 5661   7.782  10.045   4.712  0.3685 -0.1682 -0.6770
34552SOL     OW 5662   8.760   4.442  11.039 -0.2349  0.7054  0.6301
34552SOL    HW1 5663   8.847   4.431  11.078  0.1077  1.2541  0.0449
34552SOL    HW2 5664   8.754   4.371  10.975  0.7618  2.0141 -1.0095
34553SOL     OW 5665   8.543   8.929  10.865 -0.0598  0.4814  0.3611
34553SOL    HW1 5666   8.606   8.965  10.927 -0.0007  0.4360  0.3267
34553SOL    HW2 5667   8.459   8.966  10.893 -0.2511 -0.6494  1.3516
34554SOL     OW 5668   1.105  11.070   6.710  0.1467 -0.6846 -0.3983
34554SOL    HW1 5669   1.152  11.152   6.699  1.9626 -1.3889  1.4838
34554SOL    HW2 5670   1.155  11.022   6.776 -3.5166 -1.2928  2.2627
34555SOL     OW 5671   3.698  10.165   6.484 -0.0172  0.0410  0.5706
34555SOL    HW1 5672   3.710  10.175   6.389 -0.9892  1.2463  0.5512
34555SOL    HW2 5673   3.648  10.242   6.510  0.4105 -0.1677  2.1136
34556SOL     OW 5674   4.715   0.620   1.367 -0.2193 -0.2552  0.5085
34556SOL    HW1 5675   4.746   0.592   1.281  0.9392 -0.0076  0.8277
34556SOL    HW2 5676   4.738   0.548   1.425 -0.9029 -0.3754  0.6332
34557SOL     OW 5677   8.564   6.620   4.969 -0.5366 -0.0296 -0.1360
34557SOL    HW1 5678   8.631   6.686   4.984  0.7072 -1.0951 -0.7617
34557SOL    HW2 5679   8.541   6.630   4.876 -1.5114  0.5480  0.1527
34558SOL     OW 5680   9.526   2.127   1.941  0.6550 -0.7676  0.5307
34558SOL    HW1 5681   9.527   2.037   1.908 -0.1183  0.1267 -2.1512
34558SOL    HW2 5682   9.438   2.159   1.922  0.7788  0.4522  1.8303
34559SOL     OW 5683   5.193  10.415   6.856  0.8979  0.5574 -0.3319
34559SOL    HW1 5684   5.283  10.396   6.882  0.0159 -2.9168  0.6970
34559SOL    HW2 5685   5.181  10.366   6.775 -0.6218 -0.6993  0.6179
34560SOL     OW 5686   9.571   0.421   3.335 -0.7416  0.1880 -0.1936
34560SOL    HW1 5687   9.566   0.448   3.427 -0.9919  0.3171 -0.2430
34560SOL    HW2 5688   9.630   0.346   3.335  0.1199  0.8515 -0.0792
34561SOL     OW 5689  11.023  11.104   8.289 -0.0308  0.0686  0.3277
34561SOL    HW1 5690  10.987  11.024   8.326 -1.5764 -0.6476 -2.4798
34561SOL    HW2 5691  10.968  11.174   8.325 -2.9240 -0.7993 -2.0545
34562SOL     OW 5692   1.778   2.144   0.589  0.3510  0.3073 -0.0382
34562SOL    HW1 5693   1.834   2.106   0.521 -1.5386 -1.7639 -0.5473
34562SOL    HW2 5694   1.735   2.069   0.629 -2.2179  1.7833  0.1632
34563SOL     OW 5695   3.477   0.737   2.826 -0.0856  0.4912  0.2737
34563SOL    HW1 5696   3.416   0.803   2.792  0.8439  0.6488 -1.2196
34563SOL    HW2 5697   3.466   0.662   2.767  0.2703  0.0518  0.7569
34564SOL     OW 5698   1.867   0.656   1.573  0.0467  0.3300  0.2248
34564SOL    HW1 5699   1.851   0.666   1.479  1.2976  0.1715 -0.0247
34564SOL    HW2 5700   1.792   0.606   1.605  0.6989 -1.6368 -1.1303
34565SOL     OW 5701  10.256   6.499   1.295  0.3861 -0.0813  0.1277
34565SOL    HW1 5702  10.172   6.500   1.249  0.8836  0.4077 -0.8032
34565SOL    HW2 5703  10.321   6.511   1.226  1.3347 -2.0435  0.6325
34566SOL     OW 5704   7.543   6.083   2.048  0.1427  0.2254 -0.4111
34566SOL    HW1 5705   7.557   6.061   1.956  0.5194 -0.5139 -0.1880
34566SOL    HW2 5706   7.599   6.159   2.065 -1.5684  1.7677 -1.3388
34567SOL     OW 5707   9.652   7.233   0.312  0.7844 -0.5321 -0.0279
34567SOL    HW1 5708   9.720   7.168   0.327 -0.6270 -1.8889  0.8172
34567SOL    HW2 5709   9.676   7.307   0.368  2.1644 -0.5001 -0.6437
34568SOL     OW 5710   5.952   5.674   7.880 -0.1576  0.9310  0.0128
34568SOL    HW1 5711   5.916   5.668   7.792  0.5843 -1.4332 -0.2094
34568SOL    HW2 5712   5.914   5.600   7.927  1.7906  0.3179  0.7359
34569SOL     OW 5713   6.708   9.628   8.104 -0.6040 -0.5319  1.0309
34569SOL    HW1 5714   6.668   9.708   8.069  0.4478 -0.9502 -1.3309
34569SOL    HW2 5715   6.639   9.562   8.097 -0.7531 -0.3506  0.7283
34570SOL     OW 5716  10.108   6.684   7.827 -0.0594  0.2319 -0.3035
34570SOL    HW1 5717  10.203   6.679   7.817  0.0038 -0.4227  0.4987
34570SOL    HW2 5718  10.076   6.603   7.788 -0.1752 -0.1407  0.5411
34571SOL     OW 5719   1.065   7.458  10.466 -0.5391  0.3776  0.1873
34571SOL    HW1 5720   1.062   7.476  10.372  0.6047  0.8773  0.2291
34571SOL    HW2 5721   1.119   7.528  10.503 -0.4266 -0.1762  1.1243
34572SOL     OW 5722   9.867   1.543   4.002  0.7110  0.1592  0.0237
34572SOL    HW1 5723   9.858   1.533   3.908  1.5775  3.8427 -0.6151
34572SOL    HW2 5724   9.816   1.621   4.023  2.6457  0.9937  2.0915
34573SOL     OW 5725   2.032   6.748   0.684  0.1118  0.1091 -0.1614
34573SOL    HW1 5726   2.080   6.829   0.701  1.2941 -0.5697 -0.1174
34573SOL    HW2 5727   1.972   6.770   0.612  0.6970  0.9174 -0.4212
34574SOL     OW 5728   9.094   8.490  10.670 -0.0678 -0.1918  0.6492
34574SOL    HW1 5729   9.022   8.541  10.631  0.1560 -1.2797 -1.3140
34574SOL    HW2 5730   9.053   8.445  10.744 -1.2095 -0.1490  0.0721
34575SOL     OW 5731   9.491   2.225  10.114  0.2535 -0.1669  0.7189
34575SOL    HW1 5732   9.461   2.214  10.204  0.8295 -3.6359  0.5940
34575SOL    HW2 5733   9.422   2.185  10.060  1.2159 -0.7044 -0.1529
34576SOL     OW 5734   9.152   8.268   4.922  0.2063  0.0830 -0.0185
34576SOL    HW1 5735   9.174   8.357   4.950 -1.4795 -0.1896  2.4166
34576SOL    HW2 5736   9.234   8.220   4.931  0.6201  0.9049  0.7393
34577SOL     OW 5737   7.934   0.915   3.775  0.3047 -0.2698 -0.3917
34577SOL    HW1 5738   7.916   1.003   3.742 -0.0901 -0.0594  0.3732
34577SOL    HW2 5739   7.924   0.859   3.699 -1.0011  0.1583 -0.5546
34578SOL     OW 5740   2.423   4.521   3.731 -0.0727 -0.1281  0.8333
34578SOL    HW1 5741   2.458   4.434   3.712 -2.5332 -0.6242 -2.3113
34578SOL    HW2 5742   2.495   4.581   3.713  0.4876 -1.3242 -1.1984
34579SOL     OW 5743   1.766   1.530   0.389 -0.2016 -0.0823  0.2704
34579SOL    HW1 5744   1.783   1.437   0.406 -2.4004 -0.7919 -0.9274
34579SOL    HW2 5745   1.737   1.566   0.472  2.1913 -0.0053  1.1436
34580SOL     OW 5746  10.425   8.546   2.614  0.5267 -0.2076 -0.5407
34580SOL    HW1 5747  10.465   8.549   2.526  0.5616 -0.9962 -0.5600
34580SOL    HW2 5748  10.487   8.594   2.669  1.2325 -0.9339 -0.6800
34581SOL     OW 5749   7.317   0.877   2.475  1.0558  0.1777 -0.0934
34581SOL    HW1 5750   7.401   0.923   2.480  1.6562 -0.8621 -0.3571
34581SOL    HW2 5751   7.336   0.799   2.422  0.3602 -1.0144  1.3559
34582SOL     OW 5752   3.768   6.475   4.970  0.4462  0.4126 -0.8336
34582SOL    HW1 5753   3.741   6.539   4.903 -0.6086  0.6108 -0.2334
34582SOL    HW2 5754   3.854   6.506   4.998 -0.1531  1.7562 -0.3661
34583SOL     OW 5755   1.259   1.695   4.664  0.2568 -0.0363 -0.2678
34583SOL    HW1 5756   1.223   1.618   4.622 -1.0180 -0.6636  1.8315
34583SOL    HW2 5757   1.348   1.703   4.629 -0.4566 -0.9230 -2.4150
34584SOL     OW 5758   3.846   4.547   2.586 -0.1160 -0.5949  0.4392
34584SOL    HW1 5759   3.755   4.531   2.610 -0.4806 -1.1390 -1.2222
34584SOL    HW2 5760   3.886   4.460   2.581 -0.1203 -0.5339 -1.0817
34585SOL     OW 5761   5.303   0.963   5.089 -0.1326 -0.0825 -0.2903
34585SOL    HW1 5762   5.314   0.881   5.040 -0.9958  0.4866 -1.4852
34585SOL    HW2 5763   5.344   1.030   5.035  0.0261  0.3758  0.3868
34586SOL     OW 5764   1.465   5.489   6.097 -0.2454 -0.3097  0.1740
34586SOL    HW1 5765   1.438   5.581   6.103 -0.1559 -0.3139  0.7235
34586SOL    HW2 5766   1.520   5.485   6.019 -1.4845 -0.2127 -0.7347
34587SOL     OW 5767   0.804   9.754   3.595 -0.8985 -0.5586 -0.0003
34587SOL    HW1 5768   0.779   9.834   3.549  2.6310  1.8857  1.9214
34587SOL    HW2 5769   0.897   9.743   3.577 -1.1273 -4.0387  0.2441
34588SOL     OW 5770   1.539  10.385   1.987 -0.1490  0.9684 -0.3361
34588SOL    HW1 5771   1.472  10.318   1.978 -1.3261  1.9809  0.5023
34588SOL    HW2 5772   1.601  10.366   1.917  0.1980 -1.6745  0.5818
34589SOL     OW 5773   6.306   3.599   3.204  0.2231 -0.1489 -0.7307
34589SOL    HW1 5774   6.241   3.665   3.179 -0.0179  0.0688  0.4342
34589SOL    HW2 5775   6.351   3.579   3.122 -0.7105  0.3480 -1.3943
34590SOL     OW 5776   2.304   0.996   0.214 -0.5567  0.1107  0.0784
34590SOL    HW1 5777   2.391   0.973   0.247  0.0602  0.7981 -0.9859
34590SOL    HW2 5778   2.288   1.084   0.248 -0.8654 -0.0375  0.3190
34591SOL     OW 5779   1.728   1.802   8.520 -0.4670 -0.3025 -0.0237
34591SOL    HW1 5780   1.744   1.712   8.546 -2.2585 -0.4489  0.7511
34591SOL    HW2 5781   1.659   1.796   8.453 -2.3028  0.5517  1.6870
34592SOL     OW 5782   3.515   2.990   3.433 -0.3458  0.3468  0.6064
34592SOL    HW1 5783   3.494   2.944   3.352 -0.8186  1.1669  0.2507
34592SOL    HW2 5784   3.572   2.930   3.481  0.6668  0.2035 -0.7282
34593SOL     OW 5785   0.324   4.996   7.103  0.1131 -0.5581  0.0070
34593SOL    HW1 5786   0.331   5.058   7.031 -0.0042 -0.0218  0.4506
34593SOL    HW2 5787   0.407   5.004   7.150  0.2743 -1.0586 -0.1827
34594SOL     OW 5788   6.205   3.228   1.338  0.0408  0.6657 -0.3656
34594SOL    HW1 5789   6.175   3.146   1.376  0.3149  1.1611  0.9949
34594SOL    HW2 5790   6.277   3.203   1.280  0.5213 -0.0115  0.4998
34595SOL     OW 5791   3.631   6.288   5.607  0.6427  0.0562  0.5240
34595SOL    HW1 5792   3.683   6.253   5.535 -1.1107 -0.6274 -0.4699
34595SOL    HW2 5793   3.590   6.210   5.646  1.3574  0.4371  2.1433
34596SOL     OW 5794   2.322   5.741   5.788  0.0579  0.1381  0.5365
34596SOL    HW1 5795   2.359   5.817   5.743  1.3669  0.2279  1.7071
34596SOL    HW2 5796   2.336   5.669   5.727 -2.6353  1.0236 -1.2942
34597SOL     OW 5797   3.558   8.163   4.131 -0.0147  0.1976 -0.3343
34597SOL    HW1 5798   3.529   8.073   4.143  1.9434 -0.3245  1.1252
34597SOL    HW2 5799   3.616   8.160   4.055  0.6987  0.0176  0.2012
34598SOL     OW 5800   2.232   8.821   7.471 -0.5959  0.4841  0.8013
34598SOL    HW1 5801   2.194   8.751   7.524  0.0092 -2.4175 -2.2549
34598SOL    HW2 5802   2.325   8.797   7.464 -0.9859 -0.4121 -2.9586
34599SOL     OW 5803   1.884   5.069   5.702 -0.1234 -0.6190  0.1659
34599SOL    HW1 5804   1.821   5.141   5.696 -0.9016 -1.2214  0.8772
34599SOL    HW2 5805   1.848   5.001   5.647 -0.1518 -1.0047  0.6551
34600SOL     OW 5806   6.826   7.201   2.832 -0.4665  0.7723  0.1066
34600SOL    HW1 5807   6.842   7.117   2.876 -0.5068  0.2304 -0.8783
34600SOL    HW2 5808   6.731   7.204   2.821 -0.3472  0.1179 -1.3846
34601SOL     OW 5809   8.190   3.187   7.349  0.3396 -0.2543  0.3505
34601SOL    HW1 5810   8.265   3.231   7.309  0.8899 -0.2567  1.3280
34601SOL    HW2 5811   8.186   3.224   7.437  0.3986 -1.6477  0.9621
34602SOL     OW 5812   4.101   7.988   8.617 -0.1265  0.3825 -0.1211
34602SOL    HW1 5813   4.192   7.960   8.609 -0.7293 -1.3583 -1.4507
34602SOL    HW2 5814   4.100   8.076   8.579  0.5968 -0.5254 -2.4205
34603SOL     OW 5815   2.560  10.330  10.600 -0.5716 -0.3637  0.5572
34603SOL    HW1 5816   2.518  10.376  10.528 -0.4540 -1.3202 -0.1333
34603SOL    HW2 5817   2.639  10.292  10.562  0.1621  0.1783  1.4953
34604SOL     OW 5818   2.836   1.289   1.760 -0.2745  0.1817  0.1668
34604SOL    HW1 5819   2.842   1.303   1.665 -0.8256 -0.7936 -0.0321
34604SOL    HW2 5820   2.896   1.353   1.798  0.5597  0.0600 -0.8906
34605SOL     OW 5821   0.149   1.601   8.272 -0.0204 -0.0511 -0.7027
34605SOL    HW1 5822   0.222   1.614   8.212  1.8665 -3.8448  0.4077
34605SOL    HW2 5823   0.092   1.538   8.227  0.5579 -1.6435  0.6609
34606SOL     OW 5824   2.654   7.930  10.194 -0.4952 -0.3265  0.1596
34606SOL    HW1 5825   2.645   7.856  10.254  1.0715  0.2231  1.1190
34606SOL    HW2 5826   2.611   8.003  10.238  0.1740 -0.0535  0.3597
34607SOL     OW 5827   0.884   8.561   9.556 -0.7804  0.1389  0.2135
34607SOL    HW1 5828   0.930   8.478   9.555 -0.4923  0.2855  0.7892
34607SOL    HW2 5829   0.792   8.538   9.541 -1.0346 -0.5167  2.4000
34608SOL     OW 5830   0.646   9.069   5.557 -0.5469  0.0776  0.4080
34608SOL    HW1 5831   0.669   9.035   5.470  1.0173  1.4089  0.2456
34608SOL    HW2 5832   0.640   8.991   5.612  1.1843 -0.6217 -0.3154
34609SOL     OW 5833   0.202   6.951   0.170  0.4681  0.1412 -0.0433
34609SOL    HW1 5834   0.178   6.917   0.256  0.3543  0.5905  0.1054
34609SOL    HW2 5835   0.180   6.880   0.109 -1.4318  0.5919  0.0613
34610SOL     OW 5836  10.687   2.838   2.897  0.3492  0.6600 -0.3568
34610SOL    HW1 5837  10.687   2.799   2.984 -0.5030  0.0274 -0.6274
34610SOL    HW2 5838  10.779   2.854   2.878  0.8517 -2.1150 -0.6282
34611SOL     OW 5839   4.082   8.525   4.459  0.0385 -0.2221  0.2229
34611SOL    HW1 5840   4.107   8.432   4.459 -2.1912 -0.8657  0.3835
34611SOL    HW2 5841   4.119   8.559   4.540  3.1656 -0.2359 -1.0507
34612SOL     OW 5842   3.411   3.807   6.466 -0.1243  0.1266  0.4042
34612SOL    HW1 5843   3.489   3.826   6.414 -0.3498  0.4582  0.1782
34612SOL    HW2 5844   3.432   3.727   6.513  0.8047  0.8468  1.2601
34613SOL     OW 5845   9.082   7.020  11.082  0.3744 -1.0485  1.3207
34613SOL    HW1 5846   9.040   7.049  11.163  1.0620  0.3263  1.2262
34613SOL    HW2 5847   9.099   7.102  11.034 -0.6527 -1.8443 -0.5463
34614SOL     OW 5848   1.378   7.833   6.072  0.7945 -0.7550 -0.1623
34614SOL    HW1 5849   1.450   7.777   6.042  1.3510  0.6669 -1.6606
34614SOL    HW2 5850   1.412   7.877   6.150  2.0745  0.7888 -1.5135
34615SOL     OW 5851   7.095  10.302   6.422 -0.8937  0.1065 -0.4342
34615SOL    HW1 5852   7.030  10.371   6.410 -1.3648  0.0239  1.2975
34615SOL    HW2 5853   7.046  10.228   6.459  0.2737  0.3927  1.8965
34616SOL     OW 5854   3.427   7.191   6.401  0.1251 -0.5018  0.5586
34616SOL    HW1 5855   3.405   7.150   6.317 -1.1683  0.5617  0.3363
34616SOL    HW2 5856   3.361   7.260   6.411  2.2253  1.5635  0.8817
34617SOL     OW 5857   0.852   5.958   4.116  0.4846  0.2811  0.5951
34617SOL    HW1 5858   0.842   5.910   4.035  2.8264  0.2322  0.2592
34617SOL    HW2 5859   0.901   5.899   4.174  0.1422  0.8628  1.5116
34618SOL     OW 5860  11.089   3.864   8.070  0.0810  0.2115 -0.6002
34618SOL    HW1 5861  11.025   3.808   8.114 -0.4834  1.7872  0.6588
34618SOL    HW2 5862  11.172   3.845   8.114 -0.0489  0.1418 -0.3849
34619SOL     OW 5863   7.500   3.936   9.076 -0.4389  0.7759  0.3138
34619SOL    HW1 5864   7.442   4.004   9.042 -0.8305  0.2702 -0.0430
34619SOL    HW2 5865   7.442   3.870   9.112 -0.0294  1.2410  1.8930
34620SOL     OW 5866   0.344   8.171   3.467  0.3023  0.2465 -0.3672
34620SOL    HW1 5867   0.364   8.216   3.385 -1.7731  0.2804 -0.8989
34620SOL    HW2 5868   0.361   8.078   3.448 -0.9833  0.1490 -1.1444
34621SOL     OW 5869   0.627   9.410   8.300  0.1189  0.4773 -0.0349
34621SOL    HW1 5870   0.698   9.432   8.360 -0.7454 -1.7807  1.9917
34621SOL    HW2 5871   0.550   9.401   8.356 -0.9857 -0.6638 -1.6372
34622SOL     OW 5872   6.970   9.426   8.373 -0.0201  0.1604  0.2851
34622SOL    HW1 5873   7.034   9.375   8.422  1.7174  4.0905  2.6067
34622SOL    HW2 5874   6.890   9.421   8.425 -0.2453 -1.0075 -0.1368
34623SOL     OW 5875   4.310   4.582   6.407 -0.2152 -0.2134  0.3017
34623SOL    HW1 5876   4.252   4.537   6.345 -0.1696  0.9041 -0.5985
34623SOL    HW2 5877   4.357   4.646   6.353  1.3698 -0.6411  1.1426
34624SOL     OW 5878   7.537   7.839   4.255 -0.4107 -1.0327 -0.3470
34624SOL    HW1 5879   7.479   7.821   4.182 -0.3289 -1.3053 -0.3468
34624SOL    HW2 5880   7.625   7.837   4.217 -0.2933 -2.3066 -0.0316
34625SOL     OW 5881   8.604   5.832  10.891 -0.2578  0.4689 -0.0973
34625SOL    HW1 5882   8.685   5.795  10.856  0.3788  1.0768  0.6897
34625SOL    HW2 5883   8.535   5.776  10.856  0.7202 -2.4635  2.2367
34626SOL     OW 5884   3.115   3.528   4.843 -0.2656 -0.2762  0.4355
34626SOL    HW1 5885   3.168   3.546   4.766  1.7900  0.6169  1.9769
34626SOL    HW2 5886   3.125   3.606   4.898 -1.9246 -0.7550  1.5125
34627SOL     OW 5887   4.577   9.386  10.492  0.7065  0.3479 -0.1890
34627SOL    HW1 5888   4.574   9.465  10.546 -0.1186 -0.7014  1.3799
34627SOL    HW2 5889   4.667   9.382  10.460  1.1412  1.1714  0.8883
34628SOL     OW 5890   6.641   9.370   4.475 -0.2262 -0.4509  0.4118
34628SOL    HW1 5891   6.640   9.398   4.567 -1.0278  0.0586  0.2619
34628SOL    HW2 5892   6.732   9.378   4.448  0.2919 -2.0504  1.5797
34629SOL     OW 5893   1.126  10.294   4.944 -0.1870 -0.1879  0.2772
34629SOL    HW1 5894   1.158  10.307   4.855 -1.0655 -0.1699 -0.0463
34629SOL    HW2 5895   1.063  10.364   4.957  1.0875  0.8098  1.5057
34630SOL     OW 5896   7.606  10.724  10.785 -0.1233 -0.0874 -0.1983
34630SOL    HW1 5897   7.631  10.772  10.864  1.5767 -0.1408 -0.6620
34630SOL    HW2 5898   7.685  10.725  10.730 -0.5419 -2.0062 -0.9252
34631SOL     OW 5899   2.633   4.359  10.554  0.0543  0.4135  0.9528
34631SOL    HW1 5900   2.708   4.329  10.503 -0.2636 -3.2782  2.3423
34631SOL    HW2 5901   2.647   4.324  10.642 -2.9021  0.1125  1.4390
34632SOL     OW 5902   2.948   5.306   7.530  0.2840 -0.4028 -0.4236
34632SOL    HW1 5903   2.996   5.331   7.608 -2.1758  0.1092  1.0464
34632SOL    HW2 5904   2.899   5.384   7.505 -0.6848 -1.1892 -1.1047
34633SOL     OW 5905   1.544   1.482  10.220  0.2127  0.0871 -0.1832
34633SOL    HW1 5906   1.529   1.533  10.140 -0.8341 -3.9851 -2.8922
34633SOL    HW2 5907   1.464   1.495  10.271 -0.0348  1.0870 -0.7706
34634SOL     OW 5908   2.562   6.206   5.627 -0.4260  0.7464  0.1080
34634SOL    HW1 5909   2.536   6.192   5.536 -0.6909  0.8642  0.1637
34634SOL    HW2 5910   2.512   6.284   5.654 -2.7914 -1.0688  1.3242
34635SOL     OW 5911   3.715   5.343   7.043 -0.1693  0.7882  0.0133
34635SOL    HW1 5912   3.782   5.279   7.021  0.3075  1.8622 -1.8718
34635SOL    HW2 5913   3.654   5.296   7.100  2.3138 -0.1322  2.0757
34636SOL     OW 5914   8.257   3.763   5.871  0.2330 -1.0768  0.4156
34636SOL    HW1 5915   8.293   3.686   5.916 -0.3114 -1.1072  0.8097
34636SOL    HW2 5916   8.204   3.807   5.937  1.7700  0.5183  0.6639
34637SOL     OW 5917   7.558   4.288   7.933 -0.4477  0.0427  0.2738
34637SOL    HW1 5918   7.597   4.321   7.852  1.5141  0.9452  1.4900
34637SOL    HW2 5919   7.614   4.325   8.002 -0.9693 -2.1301  1.9476
34638SOL     OW 5920  10.348  11.106  10.226 -0.1531 -0.6216 -0.0599
34638SOL    HW1 5921  10.315  11.032  10.276 -0.1070 -1.2338 -0.9067
34638SOL    HW2 5922  10.417  11.069  10.171  1.6185  0.5403  1.2976
34639SOL     OW 5923   3.074  11.110   9.495  0.1444 -0.1134  0.9183
34639SOL    HW1 5924   3.032  11.025   9.511 -0.3897 -0.0297 -0.0032
34639SOL    HW2 5925   3.166  11.088   9.478 -0.8457 -1.3950 -5.6132
34640SOL     OW 5926   6.641   4.022   8.849 -0.3189 -0.1374 -0.2717
34640SOL    HW1 5927   6.573   4.010   8.915 -1.9292  1.0757 -1.6465
34640SOL    HW2 5928   6.595   4.016   8.766  1.6501 -1.5637 -1.3309
34641SOL     OW 5929   8.525   1.063   7.660 -0.4352 -0.5556 -0.0518
34641SOL    HW1 5930   8.614   1.064   7.626 -0.3110  2.8511 -0.0349
34641SOL    HW2 5931   8.478   1.000   7.605  1.5582 -1.0859 -1.2368
34642SOL     OW 5932   4.780  11.285   7.071 -0.0481  0.0751  0.0971
34642SOL    HW1 5933   4.869  11.269   7.102 -0.5902 -1.7242  0.8497
34642SOL    HW2 5934   4.792  11.333   6.989  1.6147 -0.2848  0.0901
34643SOL     OW 5935   2.880   7.616   2.003  0.1110  0.1037  0.0718
34643SOL    HW1 5936   2.870   7.593   2.095 -0.5654 -0.7675 -0.2057
34643SOL    HW2 5937   2.969   7.588   1.980 -0.0836 -0.6403  0.2023
34644SOL     OW 5938   2.504   7.753   8.877 -0.4651 -0.2576 -0.3547
34644SOL    HW1 5939   2.499   7.673   8.825 -0.6082  0.3682 -1.3138
34644SOL    HW2 5940   2.598   7.765   8.894 -0.4048 -0.3752 -0.6039
34645SOL     OW 5941   9.464   7.273  10.082 -0.2480 -0.1611 -0.0664
34645SOL    HW1 5942   9.483   7.365  10.100  1.2018 -0.1456 -1.5193
34645SOL    HW2 5943   9.547   7.228  10.096 -0.6030 -1.0411 -0.6899
34646SOL     OW 5944   1.399   2.330   7.902  0.0724  0.3822  0.4733
34646SOL    HW1 5945   1.340   2.291   7.837 -1.0409  3.7200 -0.7411
34646SOL    HW2 5946   1.480   2.280   7.893 -0.9503 -1.0924 -1.4839
34647SOL     OW 5947   8.439   2.254  10.594  0.2848  0.1636 -0.4841
34647SOL    HW1 5948   8.459   2.329  10.650 -1.1111  0.0254  0.2264
34647SOL    HW2 5949   8.521   2.203  10.593  1.6175  2.1612 -1.8229
34648SOL     OW 5950   7.411   4.652  10.725  0.0393  0.6897  0.1511
34648SOL    HW1 5951   7.351   4.687  10.660 -0.7684  1.3413  1.2153
34648SOL    HW2 5952   7.473   4.600  10.674 -1.0914  0.4395 -1.0411
34649SOL     OW 5953   7.789   3.721   2.249 -0.3104  0.4152  0.7196
34649SOL    HW1 5954   7.832   3.635   2.252 -0.2827  0.3947 -0.1071
34649SOL    HW2 5955   7.800   3.750   2.158  2.1756  2.5462  1.5519
34650SOL     OW 5956   7.675   6.651   3.296  0.4482  0.1491  0.7685
34650SOL    HW1 5957   7.747   6.701   3.334  2.1404 -1.3078 -0.3418
34650SOL    HW2 5958   7.695   6.648   3.202  0.5772 -2.7422  0.8037
34651SOL     OW 5959   3.225   6.954   7.898  0.1823 -0.5740  0.5757
34651SOL    HW1 5960   3.264   6.929   7.814  0.0587  0.4929  0.1817
34651SOL    HW2 5961   3.297   6.946   7.961  0.3027 -1.2844  0.3598
34652SOL     OW 5962  10.545  10.453   6.333 -0.2391  0.2890  0.0691
34652SOL    HW1 5963  10.544  10.379   6.393 -1.5099  1.5314  1.6744
34652SOL    HW2 5964  10.598  10.519   6.378 -0.6733  1.0196 -0.4730
34653SOL     OW 5965   8.693  11.208   4.973 -0.6818 -0.0719  0.3881
34653SOL    HW1 5966   8.731  11.294   4.957  0.0930  0.0366  2.4989
34653SOL    HW2 5967   8.765  11.158   5.012 -1.9483 -0.7259  1.9440
34654SOL     OW 5968   6.413   9.581   4.437 -0.3452  0.7666 -0.3387
34654SOL    HW1 5969   6.457   9.666   4.439  2.0600 -0.3166 -1.9588
34654SOL    HW2 5970   6.446   9.536   4.516 -1.4891  1.2341  0.4290
34655SOL     OW 5971   8.665  11.268   5.590  0.3950 -0.1111  0.2593
34655SOL    HW1 5972   8.686  11.260   5.683 -0.8241 -0.6709  0.5162
34655SOL    HW2 5973   8.744  11.303   5.550  1.6789 -1.8643  1.1627
34656SOL     OW 5974   8.973   3.517   6.337  0.2346  0.1848  0.0580
34656SOL    HW1 5975   8.976   3.467   6.256  1.4392 -0.0545  0.2261
34656SOL    HW2 5976   9.062   3.512   6.372  0.1281  1.5656  0.6195
34657SOL     OW 5977   0.409   6.356   7.836 -0.7511 -0.3791 -0.1176
34657SOL    HW1 5978   0.319   6.378   7.858 -0.6613  0.4893 -0.5756
34657SOL    HW2 5979   0.402   6.288   7.768 -1.0901  0.5844 -1.0736
34658SOL     OW 5980   2.278   9.690   9.256  0.6440  0.0715  0.3019
34658SOL    HW1 5981   2.212   9.623   9.273  0.5705 -0.0263 -0.3346
34658SOL    HW2 5982   2.228   9.770   9.243  0.5791 -0.1759 -1.0585
34659SOL     OW 5983   4.828   1.287   7.640 -0.0107  0.7283  0.6788
34659SOL    HW1 5984   4.920   1.308   7.652  0.3779 -0.8145  0.6228
34659SOL    HW2 5985   4.799   1.251   7.724 -1.3106  3.5424  1.5634
34660SOL     OW 5986   4.394   1.184  11.100 -0.1199  0.0150  0.0326
34660SOL    HW1 5987   4.428   1.114  11.156 -1.9510  0.8727  2.4152
34660SOL    HW2 5988   4.446   1.261  11.124  1.2083 -0.2361 -1.8422
34661SOL     OW 5989   6.270   2.365   8.687  0.1675 -0.1273 -0.7171
34661SOL    HW1 5990   6.206   2.431   8.659  0.4964 -0.0618 -1.3474
34661SOL    HW2 5991   6.355   2.410   8.681  0.3341 -0.4183 -0.5443
34662SOL     OW 5992  10.011  10.435   8.355 -0.1175 -0.8146 -0.5606
34662SOL    HW1 5993  10.091  10.420   8.405 -0.4827  0.1560  0.3711
34662SOL    HW2 5994  10.022  10.523   8.319 -1.6647  0.2803  1.4540
34663SOL     OW 5995   2.611   5.763   8.498  0.2012 -0.7049 -0.2260
34663SOL    HW1 5996   2.552   5.806   8.560  1.7611  1.0784  0.1128
34663SOL    HW2 5997   2.635   5.832   8.436  0.6279 -1.8301 -1.3526
34664SOL     OW 5998   7.490  10.637  11.093  0.5279  0.1883  0.5463
34664SOL    HW1 5999   7.432  10.667  11.023  0.2838  0.1093  0.7131
34664SOL    HW2 6000   7.431  10.597  11.157  0.9454 -2.0870 -0.3735
34665SOL     OW 6001   0.621   9.561   8.903  0.4102  0.0843  0.2453
34665SOL    HW1 6002   0.633   9.468   8.882 -0.4745 -0.7936  3.1895
34665SOL    HW2 6003   0.540   9.585   8.858  0.0773 -0.8654  0.2986
34666SOL     OW 6004   8.612  10.525   2.835 -0.4965  0.3495 -0.1391
34666SOL    HW1 6005   8.661  10.522   2.917  0.9623 -2.3590 -0.9979
34666SOL    HW2 6006   8.551  10.452   2.840 -0.4676  0.2120 -1.4094
34667SOL     OW 6007   2.877   8.593   2.034 -0.0142  0.2863 -0.3334
34667SOL    HW1 6008   2.814   8.532   2.074  0.9130 -0.5119 -0.0558
34667SOL    HW2 6009   2.836   8.679   2.045 -2.0713 -0.3628 -2.0940
34668SOL     OW 6010   1.329   0.330   9.656  0.0860 -0.8422  0.5941
34668SOL    HW1 6011   1.365   0.368   9.576  1.5583 -1.5870  0.8655
34668SOL    HW2 6012   1.378   0.248   9.667 -0.9849 -1.3731  1.5791
34669SOL     OW 6013   7.390   2.313   5.627 -0.4394  0.4349  0.6448
34669SOL    HW1 6014   7.298   2.288   5.625  0.2665 -2.4197 -0.8534
34669SOL    HW2 6015   7.424   2.275   5.708 -0.0235 -0.9611 -0.1554
34670SOL     OW 6016   1.664   1.279   4.495  0.3791  0.0133 -0.5863
34670SOL    HW1 6017   1.729   1.344   4.471  1.6215 -0.7539  0.5741
34670SOL    HW2 6018   1.668   1.274   4.591  0.4676 -1.8785 -0.6411
34671SOL     OW 6019   1.458   0.130   9.330  0.9760  0.1704 -0.1578
34671SOL    HW1 6020   1.519   0.060   9.308  0.6226 -0.8574  1.8411
34671SOL    HW2 6021   1.493   0.168   9.411 -0.1675  0.6178  0.1505
34672SOL     OW 6022   9.484  10.377   5.971 -0.1986 -0.0919 -0.9910
34672SOL    HW1 6023   9.540  10.339   6.038 -1.8204  0.8319  0.9868
34672SOL    HW2 6024   9.500  10.471   5.976 -0.4950  0.0130 -1.7708
34673SOL     OW 6025   9.506   0.286   9.981 -0.3551 -0.0281 -0.0381
34673SOL    HW1 6026   9.580   0.340  10.008  1.1105 -1.8917 -0.1436
34673SOL    HW2 6027   9.529   0.197  10.008 -2.2033 -0.8003 -0.7972
34674SOL     OW 6028   9.057   4.021  10.567 -0.0204  0.0684 -0.6074
34674SOL    HW1 6029   9.035   4.109  10.599 -1.9591 -0.4500 -0.3829
34674SOL    HW2 6030   9.021   3.962  10.632  1.1139 -0.9141 -0.8452
34675SOL     OW 6031   9.258   4.106   9.456 -0.1819 -0.1495 -1.0769
34675SOL    HW1 6032   9.319   4.116   9.383  1.9238 -0.5461  0.5479
34675SOL    HW2 6033   9.209   4.027   9.435  2.1032 -1.6893 -0.9618
34676SOL     OW 6034   1.487   9.247   1.165 -0.0791 -0.4468  0.0058
34676SOL    HW1 6035   1.398   9.214   1.151 -0.3484 -0.7246  2.0156
34676SOL    HW2 6036   1.543   9.191   1.111 -1.2400  1.0765 -2.9979
34677SOL     OW 6037  10.709   3.064   6.098 -0.0714 -0.2125 -0.3333
34677SOL    HW1 6038  10.732   3.066   6.191 -0.3379  0.0506 -0.2721
34677SOL    HW2 6039  10.705   2.970   6.077  0.4685 -0.2694 -0.2040
34678SOL     OW 6040   7.791  10.545   9.727 -0.0911 -0.8633  0.1611
34678SOL    HW1 6041   7.820  10.634   9.748 -0.3096 -0.4639 -1.1722
34678SOL    HW2 6042   7.871  10.498   9.704 -0.1368 -0.6036 -0.5456
34679SOL     OW 6043   5.356   4.646   6.907  0.4054 -0.2470  0.4653
34679SOL    HW1 6044   5.417   4.574   6.888 -0.0410 -0.1833 -1.3703
34679SOL    HW2 6045   5.376   4.713   6.841 -0.0881  0.7682  1.3093
34680SOL     OW 6046   1.281   9.253  10.351 -0.2993  0.1639  0.6665
34680SOL    HW1 6047   1.227   9.202  10.291  2.9062 -1.6130 -0.9398
34680SOL    HW2 6048   1.331   9.313  10.295  2.6807 -1.4433  1.4001
34681SOL     OW 6049   8.903   1.208   0.206 -0.3094  0.2526 -0.2201
34681SOL    HW1 6050   8.925   1.259   0.284  1.9183 -1.3707  0.3134
34681SOL    HW2 6051   8.829   1.153   0.233 -1.0927  1.3608 -0.0348
34682SOL     OW 6052   3.537   8.602  11.162  0.0773  0.0333  0.2501
34682SOL    HW1 6053   3.480   8.613  11.086 -2.2613 -1.0752  1.7154
34682SOL    HW2 6054   3.550   8.507  11.168  3.5361  0.3138 -0.9531
34683SOL     OW 6055   8.032   2.632   2.982  0.1624  0.4745  0.4012
34683SOL    HW1 6056   7.942   2.634   2.948 -0.0330 -2.4326  0.5496
34683SOL    HW2 6057   8.033   2.700   3.049 -1.7493  0.9532  0.0152
34684SOL     OW 6058   5.729   3.700   1.123 -0.2495 -0.0558  0.5606
34684SOL    HW1 6059   5.757   3.730   1.209  0.4700  0.7434  0.0528
34684SOL    HW2 6060   5.652   3.754   1.102 -1.8981 -1.8191  1.6762
34685SOL     OW 6061   5.437   2.956   7.682  0.0455  0.3033  0.0923
34685SOL    HW1 6062   5.385   2.895   7.734  2.4847 -0.4773  1.7914
34685SOL    HW2 6063   5.454   2.909   7.600  0.1700 -0.4722  0.5524
34686SOL     OW 6064   9.405  10.111   0.944 -0.2711 -0.6254  0.0561
34686SOL    HW1 6065   9.471  10.159   0.895 -0.9683 -0.0452 -0.3288
34686SOL    HW2 6066   9.373  10.174   1.009  1.7648 -1.8231  2.4299
34687SOL     OW 6067   5.588   0.347   4.915  0.2931  0.0597  0.5839
34687SOL    HW1 6068   5.585   0.442   4.927  2.0084  0.0774  1.1169
34687SOL    HW2 6069   5.569   0.334   4.823  2.0405  1.0949  0.0269
34688SOL     OW 6070   7.781   7.816   2.798 -0.4951 -0.2253  0.5816
34688SOL    HW1 6071   7.866   7.857   2.816 -0.4377 -0.2345  0.3454
34688SOL    HW2 6072   7.775   7.817   2.702 -1.0081  0.2771  0.6162
34689SOL     OW 6073   4.272  10.260   0.648 -0.1505  0.3306  0.0889
34689SOL    HW1 6074   4.225  10.176   0.648 -2.1112  1.2166  3.4408
34689SOL    HW2 6075   4.220  10.316   0.590  1.2889 -0.7024 -2.3383
34690SOL     OW 6076   4.354   0.735   8.151  0.1499  0.4574  0.3879
34690SOL    HW1 6077   4.380   0.729   8.059  1.0413 -0.1328  0.6743
34690SOL    HW2 6078   4.271   0.784   8.149  1.7062  3.2538 -0.4852
34691SOL     OW 6079  10.871  11.200   1.814 -0.1207 -0.6385  0.0454
34691SOL    HW1 6080  10.796  11.219   1.757  0.7245 -1.4278 -1.4104
34691SOL    HW2 6081  10.893  11.109   1.795  1.4281 -0.3232  0.1370
34692SOL     OW 6082   8.985  10.245   1.416  0.7465  0.5316 -0.8299
34692SOL    HW1 6083   8.996  10.340   1.416  0.2386  0.5913 -1.1465
34692SOL    HW2 6084   9.074  10.211   1.431  0.6296  1.0806  1.5718
34693SOL     OW 6085   0.306   8.711   7.566  0.5624  0.1278 -0.2379
34693SOL    HW1 6086   0.221   8.668   7.550  0.1529  0.8519 -0.0583
34693SOL    HW2 6087   0.368   8.661   7.513  0.1372 -0.8074  0.1200
34694SOL     OW 6088   0.469   7.152   4.923  0.1401  0.1706  0.0031
34694SOL    HW1 6089   0.498   7.225   4.979 -0.9700  1.5589 -1.1534
34694SOL    HW2 6090   0.375   7.147   4.938  0.2537 -1.2957  0.3239
34695SOL     OW 6091   5.633   0.069   1.497  0.0684 -0.7077 -0.2736
34695SOL    HW1 6092   5.659  -0.014   1.456 -1.0420 -1.1763 -0.0438
34695SOL    HW2 6093   5.559   0.100   1.445  0.2697 -0.0172 -0.1609
34696SOL     OW 6094   6.997   0.354   3.792  0.0530 -0.7917 -0.7147
34696SOL    HW1 6095   7.076   0.327   3.746  1.7365  1.6900  0.5023
34696SOL    HW2 6096   7.012   0.328   3.883  0.5485  1.6002 -0.0412
34697SOL     OW 6097   6.951   4.922  10.028  0.4091 -0.5460 -0.2280
34697SOL    HW1 6098   6.951   4.986  10.099  1.9409 -0.5713 -0.1793
34697SOL    HW2 6099   6.860   4.917  10.000 -0.2580 -0.6571  1.8325
34698SOL     OW 6100   7.409   6.793   9.099 -0.9374  0.4487  0.6353
34698SOL    HW1 6101   7.351   6.717   9.099 -1.2707  0.6617 -1.1578
34698SOL    HW2 6102   7.495   6.757   9.078 -1.5811  0.7820 -3.2439
34699SOL     OW 6103  10.026   3.328   3.692  0.1654  0.0579 -0.2562
34699SOL    HW1 6104  10.010   3.317   3.599 -0.2402 -1.7375 -0.0005
34699SOL    HW2 6105  10.095   3.264   3.712  0.0844  0.2632  0.7207
34700SOL     OW 6106   3.323   2.026   5.635  0.0350  0.0751 -0.5055
34700SOL    HW1 6107   3.378   2.019   5.713  1.2074 -2.2797 -1.4479
34700SOL    HW2 6108   3.258   1.956   5.645  0.1722 -0.2299 -1.5950
34701SOL     OW 6109  10.915   5.982   5.352 -0.1034  0.4315  0.1546
34701SOL    HW1 6110  10.918   5.983   5.256 -0.0731  1.9641  0.1428
34701SOL    HW2 6111  10.823   5.998   5.373  0.0868  1.2671  0.3736
34702SOL     OW 6112   2.482   4.124   1.064 -0.1906 -0.5134  0.0142
34702SOL    HW1 6113   2.571   4.095   1.085 -0.3134  1.2824  4.0978
34702SOL    HW2 6114   2.432   4.043   1.055  1.3011 -1.5611  0.7141
34703SOL     OW 6115   9.842   9.443   0.373 -0.0284  0.1547 -0.2075
34703SOL    HW1 6116   9.770   9.476   0.320  0.3019  1.1850 -0.0391
34703SOL    HW2 6117   9.802   9.380   0.433 -0.3698 -1.2445 -1.8258
34704SOL     OW 6118   0.907   9.248   6.122 -0.5003 -0.2232 -0.0631
34704SOL    HW1 6119   0.905   9.216   6.032  1.1644  0.7600 -0.4855
34704SOL    HW2 6120   0.817   9.238   6.153 -1.1313 -0.4623 -1.8621
34705SOL     OW 6121   2.155   9.418   1.501 -0.3083 -0.3922  0.3044
34705SOL    HW1 6122   2.063   9.438   1.481  0.0635  1.4716  0.2992
34705SOL    HW2 6123   2.188   9.377   1.421 -0.7925  0.1833 -0.2017
34706SOL     OW 6124   9.838   1.668   4.993  0.3298  0.2555  0.0498
34706SOL    HW1 6125   9.869   1.587   4.953  1.5394  0.1617  1.0942
34706SOL    HW2 6126   9.750   1.647   5.024  0.4410 -0.5107 -0.1319
34707SOL     OW 6127   2.910   4.295   4.460  0.3881  0.7561 -0.1199
34707SOL    HW1 6128   2.969   4.367   4.436  0.0130  1.9774  2.2308
34707SOL    HW2 6129   2.823   4.334   4.459  0.1271  0.2277  0.7071
34708SOL     OW 6130   7.374   4.055   3.098  0.3920 -0.3075 -0.3519
34708SOL    HW1 6131   7.320   3.995   3.047  1.2895 -0.5478 -1.0625
34708SOL    HW2 6132   7.361   4.140   3.056 -1.9065  0.3451  1.4526
34709SOL     OW 6133   9.107   0.151   0.762 -0.2250  0.1934 -0.3052
34709SOL    HW1 6134   9.038   0.104   0.716  0.3680  0.1726 -1.1989
34709SOL    HW2 6135   9.150   0.085   0.816  1.5951 -0.6999 -2.7080
34710SOL     OW 6136   6.886   8.680  10.548 -0.0448  0.4357 -0.6173
34710SOL    HW1 6137   6.805   8.732  10.544  0.2870  1.3182  2.2034
34710SOL    HW2 6138   6.907   8.676  10.641  0.7345 -3.6348 -0.7979
34711SOL     OW 6139  10.291   0.308   5.536  0.9380 -0.0304  0.2217
34711SOL    HW1 6140  10.236   0.373   5.580  0.9266  1.2626 -1.6166
34711SOL    HW2 6141  10.368   0.299   5.593 -0.3699 -0.6602  1.9950
34712SOL     OW 6142   3.430   0.704   5.502  0.0437  0.0099 -0.3097
34712SOL    HW1 6143   3.484   0.740   5.572 -0.0756 -0.3100 -0.0531
34712SOL    HW2 6144   3.426   0.611   5.520 -1.1364  0.1219  0.0474
34713SOL     OW 6145  10.208   3.962   1.424  0.0272 -0.2515 -0.1994
34713SOL    HW1 6146  10.265   4.028   1.385  0.4412 -0.5024 -0.0171
34713SOL    HW2 6147  10.203   3.893   1.358 -1.1596  0.3620 -0.7944
34714SOL     OW 6148   6.860   3.964   8.257  0.1480  0.6008  0.0449
34714SOL    HW1 6149   6.857   3.909   8.179  2.2514 -0.4238  0.6128
34714SOL    HW2 6150   6.917   4.037   8.234  1.3295 -0.0541  0.7726
34715SOL     OW 6151   6.480   8.405   7.084 -0.2409 -0.3285  0.0289
34715SOL    HW1 6152   6.522   8.327   7.048 -0.8230  0.0386 -1.5399
34715SOL    HW2 6153   6.503   8.475   7.022 -0.5187  0.5404  0.8879
34716SOL     OW 6154   2.470   3.436   6.736 -0.7911 -0.7048 -0.3279
34716SOL    HW1 6155   2.474   3.398   6.824  0.2279  1.5079  0.6615
34716SOL    HW2 6156   2.383   3.474   6.730 -0.4709  0.1235  0.1823
34717SOL     OW 6157   4.893   1.553   7.541  0.1845  0.1625 -1.1827
34717SOL    HW1 6158   4.846   1.478   7.577 -1.2574 -0.1359 -3.5031
34717SOL    HW2 6159   4.979   1.518   7.517  1.2937  0.4216  1.9270
34718SOL     OW 6160   8.846   1.607   5.690  0.6559  0.2241 -0.0198
34718SOL    HW1 6161   8.811   1.519   5.676 -2.1004  0.4627  3.7500
34718SOL    HW2 6162   8.795   1.662   5.630 -0.3212 -0.3422  0.2594
34719SOL     OW 6163   3.904  10.152   9.002  0.0808  0.1788 -0.4883
34719SOL    HW1 6164   3.875  10.118   9.087  0.6774  1.9071  0.4641
34719SOL    HW2 6165   3.824  10.179   8.958 -0.2112 -0.4606 -0.3591
34720SOL     OW 6166   3.762  11.055  10.193 -0.4934  0.6091 -0.4963
34720SOL    HW1 6167   3.721  11.009  10.266 -0.7256  0.3221 -0.8042
34720SOL    HW2 6168   3.697  11.120  10.166 -0.2155  1.0394 -0.1418
34721SOL     OW 6169  11.063   2.793  10.905  0.6469  0.4937  0.2258
34721SOL    HW1 6170  10.995   2.850  10.868  0.8845  0.2181 -0.6391
34721SOL    HW2 6171  11.108   2.849  10.969 -0.4568  0.6449  0.9000
34722SOL     OW 6172   6.336   9.303   6.060 -0.1054 -0.0297 -0.0986
34722SOL    HW1 6173   6.314   9.210   6.073  2.6757 -0.6287  0.9482
34722SOL    HW2 6174   6.304   9.346   6.139 -0.1800 -0.3483  0.0471
34723SOL     OW 6175  10.460   2.562   6.552 -0.2476 -0.5506 -0.7860
34723SOL    HW1 6176  10.398   2.506   6.599 -0.6681  0.5813  0.0667
34723SOL    HW2 6177  10.465   2.524   6.464  1.0075 -3.0765  0.2883
34724SOL     OW 6178   7.342   2.701   7.592  0.3537 -0.0693  0.2315
34724SOL    HW1 6179   7.397   2.749   7.530  0.1330 -2.0250 -1.5944
34724SOL    HW2 6180   7.254   2.736   7.579  0.1029 -1.2302 -1.4560
34725SOL     OW 6181   4.939   8.144   1.340  0.1165 -0.9757  0.2988
34725SOL    HW1 6182   4.910   8.222   1.387  0.9179 -1.0693  0.9749
34725SOL    HW2 6183   5.005   8.175   1.279  0.9438 -1.2120  1.0593
34726SOL     OW 6184  10.623   0.002   9.031 -0.1744 -0.2264  0.3613
34726SOL    HW1 6185  10.580  -0.056   9.093  1.8973  0.0340  2.1820
34726SOL    HW2 6186  10.563   0.075   9.020 -0.9200 -0.6540  1.4547
34727SOL     OW 6187   6.920   9.661   6.910 -0.3358 -0.6193  0.7014
34727SOL    HW1 6188   6.872   9.715   6.846  0.4553 -3.2826 -2.3950
34727SOL    HW2 6189   7.007   9.652   6.873  1.3924  0.5629  4.0763
34728SOL     OW 6190   9.703   0.442   0.150 -0.3099  0.0651 -0.1444
34728SOL    HW1 6191   9.784   0.482   0.118  0.8182 -0.7569  1.4733
34728SOL    HW2 6192   9.633   0.490   0.108  0.9788  2.8890  0.7114
34729SOL     OW 6193   8.180   1.811   3.627 -0.2087  0.0517 -0.2281
34729SOL    HW1 6194   8.164   1.754   3.702 -0.3979  0.1635 -0.1846
34729SOL    HW2 6195   8.109   1.875   3.629  0.5736  0.9394  0.3325
34730SOL     OW 6196  10.152   6.385   7.677 -0.4628  0.2248 -0.4900
34730SOL    HW1 6197  10.231   6.342   7.644  0.9106  2.6901 -0.6403
34730SOL    HW2 6198  10.154   6.370   7.771 -0.4352 -0.6680 -0.6244
34731SOL     OW 6199  10.115   4.205   2.023 -0.6417  0.2670  0.3047
34731SOL    HW1 6200  10.105   4.118   2.061 -1.1039  1.1105  2.2344
34731SOL    HW2 6201  10.210   4.220   2.022 -0.5139 -0.4851 -0.6697
34732SOL     OW 6202   4.218   1.315   5.682 -0.1495  0.2385  0.1949
34732SOL    HW1 6203   4.266   1.312   5.765  0.8234  1.1789 -0.3121
34732SOL    HW2 6204   4.252   1.242   5.631 -0.7267 -0.3225  0.5886
34733SOL     OW 6205   7.706  11.066   4.880 -0.0982 -0.3262  0.5315
34733SOL    HW1 6206   7.623  11.090   4.923  0.7039  0.1921  1.8729
34733SOL    HW2 6207   7.688  11.073   4.787 -1.9938 -1.7133  0.7338
34734SOL     OW 6208   6.491   5.841   5.009  0.1851 -0.1833  0.0447
34734SOL    HW1 6209   6.541   5.761   4.991  0.4731  0.0351 -0.1251
34734SOL    HW2 6210   6.554   5.901   5.047  0.1906  0.2927 -0.6892
34735SOL     OW 6211   7.910   6.936   2.719 -0.5261  0.1529 -0.2657
34735SOL    HW1 6212   7.857   6.891   2.785  0.2598 -0.7356 -0.2111
34735SOL    HW2 6213   8.000   6.925   2.750  0.0403 -1.8422 -2.3538
34736SOL     OW 6214   3.142   1.577   4.394 -0.0641  0.0106  0.6529
34736SOL    HW1 6215   3.150   1.568   4.299 -0.8853 -1.4408  0.6976
34736SOL    HW2 6216   3.229   1.553   4.428 -0.6477 -2.7693  0.4160
34737SOL     OW 6217   4.150   7.344   1.979  0.5129 -0.2274  0.8150
34737SOL    HW1 6218   4.126   7.287   2.052  0.9789  0.3445  1.4318
34737SOL    HW2 6219   4.236   7.379   2.003  0.2171  0.7650  0.4883
34738SOL     OW 6220   0.474   7.212   2.243 -0.1824  0.3110 -1.0541
34738SOL    HW1 6221   0.418   7.138   2.218  0.1025 -0.1301 -0.4321
34738SOL    HW2 6222   0.413   7.284   2.257 -0.9237 -0.7120  1.7271
34739SOL     OW 6223   4.569   0.198   0.559  0.2399 -0.5257 -0.0595
34739SOL    HW1 6224   4.612   0.253   0.493 -0.1979 -2.3374 -1.9490
34739SOL    HW2 6225   4.475   0.211   0.543  0.0222  0.8869  1.8964
34740SOL     OW 6226   4.329   7.821   0.471  0.0710  0.5116  0.2235
34740SOL    HW1 6227   4.246   7.815   0.518  0.3211  0.1161  0.6220
34740SOL    HW2 6228   4.307   7.865   0.388 -0.8025 -0.8474 -0.2969
34741SOL     OW 6229   0.963   9.305   8.239 -0.6951  0.4707  0.1378
34741SOL    HW1 6230   1.051   9.316   8.202 -0.5809  3.0499  0.9946
34741SOL    HW2 6231   0.953   9.210   8.247  1.7161  0.0592 -0.6557
34742SOL     OW 6232   6.118   1.611   6.250 -0.3954  0.3744 -0.2074
34742SOL    HW1 6233   6.044   1.630   6.193 -0.9994 -0.3255  0.3261
34742SOL    HW2 6234   6.083   1.617   6.339  0.5994  1.7659  0.1415
34743SOL     OW 6235   6.247   5.029   5.194 -0.7464  0.3192 -0.0513
34743SOL    HW1 6236   6.159   5.064   5.206 -0.0112  1.8978  1.0715
34743SOL    HW2 6237   6.286   5.029   5.281  0.8990  1.1855 -0.7210
34744SOL     OW 6238   7.912   2.243   3.025  0.1047  0.1348  0.2754
34744SOL    HW1 6239   7.919   2.149   3.040 -1.0209 -0.1161 -0.6183
34744SOL    HW2 6240   7.909   2.281   3.113  3.0117 -0.3878  0.7227
34745SOL     OW 6241  11.159   4.055   7.410 -0.4565  0.0837 -0.5406
34745SOL    HW1 6242  11.245   4.065   7.451 -0.3637 -0.5332 -0.5723
34745SOL    HW2 6243  11.164   3.971   7.366 -0.6535  0.6190 -1.6051
34746SOL     OW 6244   3.823   3.816   6.926  0.3079  0.5836  0.3443
34746SOL    HW1 6245   3.853   3.754   6.991 -1.7993  2.0600  2.9445
34746SOL    HW2 6246   3.894   3.879   6.917  1.1132 -0.3254  0.2212
34747SOL     OW 6247   2.746   1.988   1.065  0.1570 -0.3131 -0.1060
34747SOL    HW1 6248   2.803   2.030   1.129 -2.7176  3.1105  0.5010
34747SOL    HW2 6249   2.791   2.000   0.981  0.8594  1.3154  0.4663
34748SOL     OW 6250   7.866   0.945   8.497 -0.1957  0.4618 -0.5912
34748SOL    HW1 6251   7.845   0.912   8.410 -1.7195  1.6872 -0.7320
34748SOL    HW2 6252   7.881   0.867   8.550 -0.3364 -0.3288 -1.6878
34749SOL     OW 6253   6.611   6.239   0.926  0.1774 -0.2375  0.1854
34749SOL    HW1 6254   6.636   6.157   0.970  2.0704  0.4207  0.4458
34749SOL    HW2 6255   6.612   6.216   0.833  3.0125 -0.0644  0.0684
34750SOL     OW 6256   6.568   5.246   4.817 -0.3703  0.1450  0.2585
34750SOL    HW1 6257   6.640   5.292   4.861 -1.4085  1.7226  0.3842
34750SOL    HW2 6258   6.603   5.159   4.799  1.3414  0.6578  0.9003
34751SOL     OW 6259   5.993   9.519   4.783  0.1935  0.0226 -0.1682
34751SOL    HW1 6260   6.020   9.520   4.874  1.1086 -1.3233 -0.4030
34751SOL    HW2 6261   6.074   9.534   4.733  0.0055 -0.9528 -0.7936
34752SOL     OW 6262   8.364   5.623   7.758 -0.1018  0.3377 -0.0503
34752SOL    HW1 6263   8.432   5.620   7.825 -0.9046 -0.9674  0.7441
34752SOL    HW2 6264   8.395   5.561   7.691 -1.2527 -1.6293  1.1219
34753SOL     OW 6265   7.435   5.335   1.908 -0.0980 -0.2866  0.6744
34753SOL    HW1 6266   7.504   5.367   1.850 -0.6300 -0.5642 -0.1256
34753SOL    HW2 6267   7.482   5.301   1.984  0.5503  1.1162  0.9248
34754SOL     OW 6268   8.732   0.581   6.811  0.0526 -0.3154  0.5509
34754SOL    HW1 6269   8.641   0.559   6.830 -0.8249  1.4624 -1.2466
34754SOL    HW2 6270   8.738   0.675   6.829  1.5573 -0.3906  0.6207
34755SOL     OW 6271   9.373   5.344  10.463  0.7817 -0.1159 -0.1518
34755SOL    HW1 6272   9.425   5.312  10.537  1.6373  1.0090 -0.2347
34755SOL    HW2 6273   9.342   5.430  10.491 -0.1657 -0.3270 -0.5200
34756SOL     OW 6274   0.090   0.768   0.571 -0.2608  0.0929  0.2240
34756SOL    HW1 6275   0.027   0.707   0.611  0.1287 -0.4335  0.0409
34756SOL    HW2 6276   0.044   0.803   0.495 -0.8789  0.8338  0.9178
34757SOL     OW 6277   2.718   1.396   8.683  0.1696 -0.1636 -0.6774
34757SOL    HW1 6278   2.654   1.442   8.629 -1.6820 -2.0109 -0.1921
34757SOL    HW2 6279   2.698   1.423   8.773  0.4660 -0.3067 -0.5658
34758SOL     OW 6280   5.321   6.699   9.789  0.3704 -0.1446  0.7617
34758SOL    HW1 6281   5.319   6.611   9.753 -0.0538 -0.3500  1.2787
34758SOL    HW2 6282   5.413   6.714   9.811  0.8392  0.3808 -1.3332
34759SOL     OW 6283   1.245   7.024   0.805 -0.7850  0.1777  0.0494
34759SOL    HW1 6284   1.267   7.086   0.874  0.0079  0.6344 -0.5964
34759SOL    HW2 6285   1.168   7.062   0.762 -0.1582  0.8559 -0.4974
34760SOL     OW 6286   3.960   6.525   1.269  0.5106  0.6730 -0.6680
34760SOL    HW1 6287   3.943   6.550   1.360 -1.4561 -0.1754 -0.7695
34760SOL    HW2 6288   3.979   6.608   1.225 -0.8762  1.3997  0.0443
34761SOL     OW 6289   2.512   9.293  10.212 -0.1548 -0.5587 -0.5488
34761SOL    HW1 6290   2.495   9.294  10.117  0.0544 -0.4445 -0.5844
34761SOL    HW2 6291   2.488   9.381  10.241 -0.1898 -0.5843 -0.5005
34762SOL     OW 6292   0.956   7.694   2.118  0.1783  0.1243  0.0451
34762SOL    HW1 6293   0.980   7.692   2.026  0.0554 -0.3007  0.0192
34762SOL    HW2 6294   1.005   7.622   2.158 -0.3140 -0.1454  0.1730
34763SOL     OW 6295  10.619  11.275   6.542  0.0257  0.3977  0.0595
34763SOL    HW1 6296  10.567  11.196   6.529 -0.3132  0.7849 -1.0391
34763SOL    HW2 6297  10.657  11.294   6.456  0.2003  1.3601  0.3310
34764SOL     OW 6298   1.995  10.184  10.516  0.7388  0.4012  0.5888
34764SOL    HW1 6299   1.947  10.237  10.453 -0.5885  0.1129  1.3310
34764SOL    HW2 6300   2.056  10.132  10.463 -1.1485 -0.6862 -0.6004
34765SOL     OW 6301   1.622   2.556   3.287  0.5426 -0.3410 -0.1090
34765SOL    HW1 6302   1.698   2.553   3.229  1.1980 -2.7105  0.7502
34765SOL    HW2 6303   1.655   2.529   3.372 -1.2291 -1.4375  0.2995
34766SOL     OW 6304   9.242   6.575   2.357  0.3693  0.1379 -0.4622
34766SOL    HW1 6305   9.337   6.587   2.348  0.4148  0.5598  0.4676
34766SOL    HW2 6306   9.204   6.654   2.319  0.3301 -0.4251 -1.6664
34767SOL     OW 6307   5.145  10.110   8.128 -0.9232  0.4650  0.0751
34767SOL    HW1 6308   5.073  10.057   8.095  0.0253  0.1381 -1.5939
34767SOL    HW2 6309   5.196  10.132   8.050  0.0525  1.8069  1.0405
34768SOL     OW 6310   4.258  10.485   7.770 -0.2543  0.4602  0.3517
34768SOL    HW1 6311   4.286  10.416   7.711  1.3914  0.1200  1.4543
34768SOL    HW2 6312   4.275  10.567   7.723 -0.9879  0.1461 -0.4583
34769SOL     OW 6313   7.327   5.658   6.977 -0.1656 -0.3739  0.0816
34769SOL    HW1 6314   7.340   5.706   7.058  1.8879 -2.4785  1.1050
34769SOL    HW2 6315   7.262   5.592   6.998 -0.2223 -0.4155 -0.2206
34770SOL     OW 6316   6.991   1.522   6.564 -0.2591  0.2543 -0.4349
34770SOL    HW1 6317   6.914   1.550   6.514 -1.0330 -0.8265  0.0977
34770SOL    HW2 6318   7.000   1.587   6.633 -1.2856 -0.1267  0.0671
34771SOL     OW 6319   1.285   4.690   7.883  0.3745  0.3583  0.3533
34771SOL    HW1 6320   1.232   4.715   7.808  0.9095 -0.9047 -0.4854
34771SOL    HW2 6321   1.222   4.675   7.953 -0.4300 -1.1160 -0.6227
34772SOL     OW 6322   9.536   2.144   5.265  0.1630  0.2617 -0.4227
34772SOL    HW1 6323   9.511   2.155   5.173 -1.8130 -0.6560 -0.0586
34772SOL    HW2 6324   9.601   2.074   5.265 -1.2896 -1.1621 -1.0050
34773SOL     OW 6325   1.455   9.155   5.246 -0.1886  0.0892 -0.4232
34773SOL    HW1 6326   1.426   9.142   5.156 -0.5122  0.4089 -0.3713
34773SOL    HW2 6327   1.442   9.249   5.262 -0.3669 -0.0072  0.0306
34774SOL     OW 6328   3.803   9.903   9.873  0.5791  0.2023  0.0152
34774SOL    HW1 6329   3.855   9.838   9.826  0.8265  0.7467 -0.4721
34774SOL    HW2 6330   3.851   9.918   9.955  2.1001  1.8962 -1.1216
34775SOL     OW 6331   3.661  10.974   8.766  0.2771  0.7172  0.3775
34775SOL    HW1 6332   3.697  10.943   8.848 -0.4856  1.0142  0.8364
34775SOL    HW2 6333   3.702  10.919   8.699  2.6585  1.9462  0.7032
34776SOL     OW 6334   0.764   4.631  10.107  0.0255 -0.0107 -0.5154
34776SOL    HW1 6335   0.731   4.543  10.121  0.1704  0.1907  1.3434
34776SOL    HW2 6336   0.769   4.640  10.012 -2.6939 -0.9790 -0.8173
34777SOL     OW 6337   9.182   7.248   7.569 -0.4195  0.3215  0.1554
34777SOL    HW1 6338   9.103   7.231   7.621  0.3445 -0.2368  1.1690
34777SOL    HW2 6339   9.198   7.167   7.521  0.6544 -0.2975  1.5009
34778SOL     OW 6340   6.045   9.063   6.928 -0.3369 -0.5135 -0.0728
34778SOL    HW1 6341   6.109   9.061   6.999  0.0905  0.5789 -0.4161
34778SOL    HW2 6342   6.092   9.030   6.852 -0.6789 -1.2965  0.0434
34779SOL     OW 6343   4.550   1.678   6.571  0.3080  0.0301  0.0640
34779SOL    HW1 6344   4.601   1.759   6.567 -0.2419  0.3864  0.0842
34779SOL    HW2 6345   4.600   1.620   6.629 -0.6747  1.3708  2.3717
34780SOL     OW 6346   6.220  10.827   6.217 -0.3637 -0.1463  0.0359
34780SOL    HW1 6347   6.177  10.885   6.155  1.1291 -0.5127 -1.4074
34780SOL    HW2 6348   6.297  10.876   6.247  0.6431 -1.1409 -0.8220
34781SOL     OW 6349   3.725   7.297   4.864 -0.4481 -0.2761  0.0550
34781SOL    HW1 6350   3.751   7.380   4.825  0.8171 -0.2881  0.8071
34781SOL    HW2 6351   3.806   7.246   4.868 -0.4951 -0.2887  2.5936
34782SOL     OW 6352   3.023   2.588   5.504 -0.0531 -0.4895 -0.0044
34782SOL    HW1 6353   3.073   2.545   5.573  1.0643  0.3561 -0.2608
34782SOL    HW2 6354   3.057   2.677   5.501 -1.2867 -0.0061 -0.4934
34783SOL     OW 6355   0.129   6.978   2.174 -0.0440 -0.7308  0.0913
34783SOL    HW1 6356   0.102   7.051   2.229 -1.0782 -1.4608  0.5837
34783SOL    HW2 6357   0.111   6.900   2.226 -0.5294 -1.4137 -1.0534
34784SOL     OW 6358   0.257  10.678   0.507 -0.4268  0.4110  0.0618
34784SOL    HW1 6359   0.338  10.720   0.476  0.8568 -1.2675  0.9592
34784SOL    HW2 6360   0.202  10.750   0.537  0.4624  1.6478 -1.1452
34785SOL     OW 6361   7.087   7.975   4.315  0.0222 -0.3393 -0.4785
34785SOL    HW1 6362   7.031   7.970   4.392  0.9132  3.3361  0.6367
34785SOL    HW2 6363   7.176   7.971   4.350  0.4504  1.8021 -1.1325
34786SOL     OW 6364   9.201   9.147  10.032 -0.0826  0.2427  0.6137
34786SOL    HW1 6365   9.224   9.116   9.944  1.3328 -0.9344  1.3383
34786SOL    HW2 6366   9.223   9.240  10.031 -0.1789  0.2651 -0.3048
34787SOL     OW 6367   6.721   6.856   9.942  0.1126 -0.2140  0.1197
34787SOL    HW1 6368   6.765   6.778   9.975  0.1220 -0.6303 -0.8308
34787SOL    HW2 6369   6.745   6.860   9.849 -1.1037  0.0685 -0.2079
34788SOL     OW 6370   9.104   7.937   3.079  0.0888  0.2337  0.4997
34788SOL    HW1 6371   9.115   8.020   3.034  0.0526 -1.0653 -2.1190
34788SOL    HW2 6372   9.011   7.933   3.101 -0.0672  0.5738 -0.0809
34789SOL     OW 6373   3.432   6.938   8.402 -0.0238  0.0441  0.1559
34789SOL    HW1 6374   3.410   6.865   8.459  0.4985  0.2581  0.6386
34789SOL    HW2 6375   3.507   6.907   8.351  0.0104  0.1353  0.1504
34790SOL     OW 6376   9.421   4.614  10.896  0.3161  0.6485 -0.0180
34790SOL    HW1 6377   9.396   4.640  10.807  1.3830 -1.3708 -0.9757
34790SOL    HW2 6378   9.352   4.554  10.924 -0.0167  1.2813  0.5387
34791SOL     OW 6379   4.687   2.785   6.689  0.1033 -0.0331  0.7697
34791SOL    HW1 6380   4.677   2.879   6.700  0.0551  0.3219 -1.7129
34791SOL    HW2 6381   4.602   2.756   6.654 -0.2852 -1.2286  2.6069
34792SOL     OW 6382  10.317   5.352   4.796  0.2680  0.4176  0.2511
34792SOL    HW1 6383  10.382   5.391   4.856  1.6932 -1.2669 -0.0950
34792SOL    HW2 6384  10.237   5.346   4.848  1.3219 -0.5177  1.8632
34793SOL     OW 6385   6.254   1.001   6.871 -0.1344 -0.4397  0.0973
34793SOL    HW1 6386   6.310   0.959   6.937 -0.0844 -0.8103 -0.1759
34793SOL    HW2 6387   6.185   0.937   6.854 -0.7202  0.0693  0.5273
34794SOL     OW 6388   4.821   4.470  10.785 -0.3373  0.0252  0.6458
34794SOL    HW1 6389   4.870   4.512  10.855  0.1044  1.4088 -0.4310
34794SOL    HW2 6390   4.804   4.382  10.816 -0.0087  0.5522  2.4025
34795SOL     OW 6391   5.099  11.022   4.563 -0.5224 -0.6288 -0.2471
34795SOL    HW1 6392   5.011  11.018   4.599 -0.6924  2.4312 -0.1141
34795SOL    HW2 6393   5.088  11.055   4.474  0.4624 -0.3368 -0.2809
34796SOL     OW 6394   0.920   3.985   0.306 -0.0162 -0.2151  0.3796
34796SOL    HW1 6395   0.988   3.991   0.239 -0.3296  0.5435  0.1175
34796SOL    HW2 6396   0.841   4.019   0.263 -0.4084 -0.4866  0.8798
34797SOL     OW 6397   4.246   9.625  10.231 -0.0461 -0.1319  0.4931
34797SOL    HW1 6398   4.270   9.673  10.151 -1.8287  1.4514  0.8457
34797SOL    HW2 6399   4.300   9.664  10.300 -1.1072  1.0466  0.6819
34798SOL     OW 6400   1.996  10.566   9.790  0.5419  0.6395  0.1524
34798SOL    HW1 6401   1.975  10.488   9.841  0.1386  0.7699  0.1896
34798SOL    HW2 6402   2.055  10.535   9.722 -0.0507  0.2015 -0.1632
34799SOL     OW 6403   5.774  10.776   7.181  0.4894  0.0622  0.2615
34799SOL    HW1 6404   5.742  10.851   7.231 -0.0144  0.3904 -0.5388
34799SOL    HW2 6405   5.713  10.705   7.203  0.5532  0.0736  0.4795
34800SOL     OW 6406   0.904   0.986   2.050  0.6557  0.2162 -0.1702
34800SOL    HW1 6407   0.917   0.992   2.145  3.3898 -0.8999 -0.3697
34800SOL    HW2 6408   0.852   0.907   2.038 -1.1264  1.2473  0.4313
34801SOL     OW 6409   7.573   2.431   8.180 -0.0455  0.3927 -0.5735
34801SOL    HW1 6410   7.532   2.379   8.110  2.4480  2.1194 -3.5490
34801SOL    HW2 6411   7.637   2.371   8.218 -1.2548 -0.4873  0.1860
34802SOL     OW 6412   7.179   2.098   7.855 -0.5107  0.2997 -0.2245
34802SOL    HW1 6413   7.270   2.119   7.832  0.6144 -2.3976  1.2805
34802SOL    HW2 6414   7.172   2.003   7.842 -3.4398  0.5603 -1.1986
34803SOL     OW 6415   1.281   0.306   6.080 -0.3334  0.4112  0.1152
34803SOL    HW1 6416   1.236   0.291   6.164  1.7682  2.8468  1.8436
34803SOL    HW2 6417   1.338   0.230   6.069  0.1730  0.5531  1.5274
34804SOL     OW 6418   1.373   4.922   1.822  0.1934  0.9055  0.5806
34804SOL    HW1 6419   1.347   5.013   1.806 -2.1039 -0.1779 -2.8681
34804SOL    HW2 6420   1.301   4.886   1.874 -0.5229  0.2893 -0.8122
34805SOL     OW 6421   1.868   6.296   9.753  0.2476  0.7941 -0.4653
34805SOL    HW1 6422   1.776   6.298   9.729 -0.4150 -0.7972  1.6832
34805SOL    HW2 6423   1.884   6.381   9.795 -0.6186  0.5619  0.3577
34806SOL     OW 6424   1.575   1.431   2.012  0.8538  0.2092  0.7685
34806SOL    HW1 6425   1.499   1.488   2.018 -0.8264 -1.9579  0.9425
34806SOL    HW2 6426   1.649   1.487   2.037 -0.4584  2.7130 -0.5850
34807SOL     OW 6427   5.779   8.801   9.868  0.2601 -0.0776  0.4282
34807SOL    HW1 6428   5.793   8.708   9.886  0.7091  0.0766  0.8883
34807SOL    HW2 6429   5.697   8.803   9.818  0.8549 -0.8143 -0.6298
34808SOL     OW 6430   1.803   7.337   2.741  0.1992  0.2090 -0.1241
34808SOL    HW1 6431   1.754   7.301   2.815  0.6624  0.5081  0.3322
34808SOL    HW2 6432   1.756   7.305   2.664 -0.5249  0.2281  0.2982
34809SOL     OW 6433   3.205   2.672   2.653 -0.4619  0.0497 -0.1913
34809SOL    HW1 6434   3.299   2.681   2.636 -0.0671 -0.9752  1.2284
34809SOL    HW2 6435   3.180   2.756   2.693  0.3860 -0.4446  1.4831
34810SOL     OW 6436   7.642   3.426   2.347 -0.4649 -0.2098 -0.3326
34810SOL    HW1 6437   7.611   3.458   2.263  1.0822  0.2748 -0.7501
34810SOL    HW2 6438   7.647   3.331   2.336  2.1879  0.0090 -1.7332
34811SOL     OW 6439   8.095   5.171   9.465  0.5080 -0.1195 -0.0881
34811SOL    HW1 6440   8.039   5.203   9.535 -1.1141 -3.3261  0.2759
34811SOL    HW2 6441   8.066   5.220   9.387  2.1829  3.3256  1.2523
34812SOL     OW 6442   5.555   3.774   6.990  0.6796 -0.5388  0.4274
34812SOL    HW1 6443   5.495   3.700   6.976 -1.4808  1.2121 -0.1806
34812SOL    HW2 6444   5.599   3.786   6.906 -1.9715  1.2610 -0.8616
34813SOL     OW 6445   5.030  10.143   4.089  0.2106  0.1214 -0.0004
34813SOL    HW1 6446   5.058  10.138   4.180  0.7960  1.5435 -0.0756
34813SOL    HW2 6447   5.112  10.135   4.039 -0.1312 -0.8731 -0.4262
34814SOL     OW 6448   2.996   3.356   3.401  1.1658  1.2535 -0.4617
34814SOL    HW1 6449   3.060   3.315   3.342 -0.0693 -0.8183 -0.4628
34814SOL    HW2 6450   2.926   3.387   3.344 -0.4639 -1.5499 -0.1815
34815SOL     OW 6451  10.334   7.800  10.829  0.2425  0.8473 -0.3696
34815SOL    HW1 6452  10.312   7.772  10.740  2.8985  0.4649 -0.9833
34815SOL    HW2 6453  10.387   7.729  10.864 -0.8473  0.9557  1.5964
34816SOL     OW 6454   7.722   6.548  11.115 -0.6982  0.7407 -0.2812
34816SOL    HW1 6455   7.704   6.536  11.208 -1.9914  0.5729 -0.5330
34816SOL    HW2 6456   7.680   6.474  11.073  2.7687 -1.1170 -0.7761
34817SOL     OW 6457   8.177  11.210   7.848  0.0519 -0.0884 -0.0117
34817SOL    HW1 6458   8.220  11.251   7.923  3.6123 -0.1819 -1.7529
34817SOL    HW2 6459   8.196  11.117   7.856 -1.8141 -0.4872  0.2478
34818SOL     OW 6460   4.966   9.960   9.810 -0.0448  0.2006 -0.2528
34818SOL    HW1 6461   5.040   9.929   9.862  0.4249  0.1229 -0.9481
34818SOL    HW2 6462   4.943   9.886   9.755 -1.6453 -0.3021  1.0110
34819SOL     OW 6463   9.903   7.100   0.409 -0.1692 -0.9153  0.6197
34819SOL    HW1 6464   9.998   7.089   0.400 -0.5639 -3.4335 -1.7069
34819SOL    HW2 6465   9.888   7.107   0.504  2.1194 -3.1330  1.2363
34820SOL     OW 6466   9.686   6.168   3.568  0.1884  0.8983 -0.3990
34820SOL    HW1 6467   9.705   6.208   3.483 -2.9529  1.4595 -0.9738
34820SOL    HW2 6468   9.679   6.242   3.628  1.2964  0.5861  0.1371
34821SOL     OW 6469  10.704   4.303   1.493  0.2984 -0.8968 -0.1780
34821SOL    HW1 6470  10.633   4.368   1.494  2.8849  2.2229 -1.4735
34821SOL    HW2 6471  10.748   4.316   1.577  0.4086 -1.5261 -0.1373
34822SOL     OW 6472   5.483   1.556   6.838  0.6850 -0.0532 -0.0066
34822SOL    HW1 6473   5.392   1.552   6.868 -0.1584 -0.4806 -2.4511
34822SOL    HW2 6474   5.520   1.471   6.864 -0.5042 -1.0834 -1.5104
34823SOL     OW 6475  11.068   0.454   8.365  0.0664 -0.0362  0.3337
34823SOL    HW1 6476  11.042   0.364   8.388  0.3750 -0.2387 -0.0887
34823SOL    HW2 6477  11.067   0.501   8.448 -0.6324 -0.2964  0.4800
34824SOL     OW 6478   1.606  11.210   9.108 -0.1702 -0.0206 -0.8424
34824SOL    HW1 6479   1.688  11.259   9.111 -1.1886  1.7063  0.9203
34824SOL    HW2 6480   1.633  11.119   9.100  1.9805  0.3721  0.9160
34825SOL     OW 6481  10.239   9.932   1.907 -0.2959  0.4799  0.2812
34825SOL    HW1 6482  10.253   9.976   1.824 -0.0768  0.3228  0.2340
34825SOL    HW2 6483  10.290   9.984   1.970  1.0239 -0.4346  0.0092
34826SOL     OW 6484   8.092   8.431   2.753 -0.1096 -0.1349 -0.1231
34826SOL    HW1 6485   8.110   8.404   2.843 -0.5224 -1.8586 -0.5384
34826SOL    HW2 6486   8.153   8.381   2.700  0.4871  1.2484 -0.8014
34827SOL     OW 6487   7.118   2.997   8.506 -0.0470  0.3296  0.0666
34827SOL    HW1 6488   7.157   3.071   8.458  2.0962  0.7926  2.3284
34827SOL    HW2 6489   7.060   3.038   8.570 -0.3490 -0.0815  0.0555
34828SOL     OW 6490   7.563   5.501  10.081 -0.0274  0.7747 -0.0797
34828SOL    HW1 6491   7.569   5.504  10.176  0.2541 -1.1156 -0.0149
34828SOL    HW2 6492   7.611   5.423  10.055  2.9086  2.9939 -2.0690
34829SOL     OW 6493   2.102   5.653  10.918 -0.2070  0.8002  0.0715
34829SOL    HW1 6494   2.138   5.565  10.926  0.1918  0.9982  0.5368
34829SOL    HW2 6495   2.060   5.670  11.002 -2.3741  0.1712 -0.8203
34830SOL     OW 6496  10.869   2.006   3.024  0.0670 -0.0162 -0.0569
34830SOL    HW1 6497  10.828   2.085   2.987  0.5694  0.5913  0.6581
34830SOL    HW2 6498  10.892   2.030   3.113  0.4919 -0.8900  0.0812
34831SOL     OW 6499   8.077   8.502   0.987 -0.2426 -0.1671  0.0144
34831SOL    HW1 6500   8.072   8.573   1.051 -1.0337  0.3055 -0.5469
34831SOL    HW2 6501   8.062   8.422   1.038  2.1372 -0.1267  0.9050
34832SOL     OW 6502   0.768   8.392   0.701 -0.6320  0.1610  0.2205
34832SOL    HW1 6503   0.786   8.349   0.617 -2.1030 -3.6198  1.6237
34832SOL    HW2 6504   0.776   8.323   0.766 -0.8455  2.6352  3.1131
34833SOL     OW 6505   0.685   3.543   5.122  0.2654  0.0495  0.3559
34833SOL    HW1 6506   0.685   3.593   5.204 -0.3964  0.1056  0.3260
34833SOL    HW2 6507   0.724   3.603   5.058  2.6082 -0.6771  1.0113
34834SOL     OW 6508   0.250   8.528   5.199 -0.0628  1.0171  0.1441
34834SOL    HW1 6509   0.176   8.554   5.143  0.2628  0.0244 -0.7847
34834SOL    HW2 6510   0.326   8.571   5.159  0.1100  0.6478  0.0725
34835SOL     OW 6511   3.964   1.453   8.697  0.2427 -0.8716 -0.0900
34835SOL    HW1 6512   3.886   1.408   8.728  0.4014 -0.9097  0.2493
34835SOL    HW2 6513   3.999   1.497   8.774 -0.6702  0.9857 -0.6538
34836SOL     OW 6514   1.453   8.273   6.065 -0.0553 -0.4254 -0.1137
34836SOL    HW1 6515   1.405   8.190   6.076 -0.3678 -0.1370  0.7545
34836SOL    HW2 6516   1.385   8.340   6.067  0.2166 -0.1320 -0.6518
34837SOL     OW 6517   3.784   5.502   0.892 -0.8343 -0.0927 -0.1359
34837SOL    HW1 6518   3.820   5.540   0.812 -0.7812 -0.2492 -0.1858
34837SOL    HW2 6519   3.832   5.546   0.962 -1.4923  0.6948 -0.1544
34838SOL     OW 6520   4.940   4.231   8.433 -0.1595  0.0034 -0.2419
34838SOL    HW1 6521   4.926   4.264   8.344 -2.2980  1.2569  0.5001
34838SOL    HW2 6522   4.883   4.284   8.488 -0.1907 -1.8706  1.6702
34839SOL     OW 6523   1.686   4.457   2.937 -0.3964 -0.4262  0.2967
34839SOL    HW1 6524   1.634   4.454   2.856 -0.7352  1.3712  0.4065
34839SOL    HW2 6525   1.773   4.428   2.911 -0.6650 -0.4706 -0.5861
34840SOL     OW 6526   9.455   6.175   0.186 -0.0880  0.7499  0.4077
34840SOL    HW1 6527   9.544   6.168   0.153  0.0841  2.3949  0.4566
34840SOL    HW2 6528   9.417   6.088   0.170  2.1111 -0.6860  2.2926
34841SOL     OW 6529   5.731   4.159   7.374 -0.7454  0.1748 -0.2054
34841SOL    HW1 6530   5.790   4.106   7.321  0.6271  0.2860  1.1324
34841SOL    HW2 6531   5.643   4.127   7.353  0.0193 -2.8450  0.7410
34842SOL     OW 6532   3.806   9.064   5.114 -0.1016  0.2286 -0.2306
34842SOL    HW1 6533   3.842   9.102   5.034  1.7888  0.6508  0.7604
34842SOL    HW2 6534   3.821   8.969   5.104  0.5996  0.3241 -0.1936
34843SOL     OW 6535   6.373   1.728   3.334  0.0784 -0.5374 -0.2747
34843SOL    HW1 6536   6.449   1.735   3.392 -0.6254  2.5259  0.4539
34843SOL    HW2 6537   6.386   1.797   3.269 -0.5436 -2.1005 -2.1657
34844SOL     OW 6538   0.304  11.157  10.603 -0.3581 -0.4083  0.0151
34844SOL    HW1 6539   0.241  11.229  10.595 -0.5198 -0.6052 -0.4736
34844SOL    HW2 6540   0.361  11.184  10.675  1.0506  1.3398 -1.6630
34845SOL     OW 6541   2.001   7.843  10.771 -0.2367  0.3709 -0.1071
34845SOL    HW1 6542   1.947   7.868  10.846 -1.4357 -1.7697 -0.1703
34845SOL    HW2 6543   1.946   7.857  10.695 -0.6571 -1.4878 -0.2022
34846SOL     OW 6544   5.772   7.927  10.286  0.2468 -0.7532  0.6502
34846SOL    HW1 6545   5.811   7.847  10.250  3.1475  1.1733 -0.8528
34846SOL    HW2 6546   5.787   7.994  10.219 -0.3687  1.5083  2.6161
34847SOL     OW 6547   5.170   5.874   1.806  0.7874  0.2958 -0.3199
34847SOL    HW1 6548   5.136   5.895   1.719  0.2990 -0.2313 -0.2654
34847SOL    HW2 6549   5.109   5.915   1.867  0.2883 -0.5509 -0.2238
34848SOL     OW 6550   8.980   0.986   3.315 -0.0425  0.8432 -0.1252
34848SOL    HW1 6551   9.035   0.992   3.238 -1.2001 -0.0409 -1.0664
34848SOL    HW2 6552   8.891   0.978   3.280 -0.5434 -0.0984  1.2776
34849SOL     OW 6553   4.295  10.768   6.405 -0.0337 -0.2325  0.5362
34849SOL    HW1 6554   4.381  10.766   6.363  0.0366 -1.8444  0.7176
34849SOL    HW2 6555   4.304  10.713   6.482 -1.1792 -0.2572  0.6733
34850SOL     OW 6556   7.863   3.102   4.497  0.1003 -0.3855  0.5948
34850SOL    HW1 6557   7.920   3.031   4.526  2.8333  1.3752 -0.1663
34850SOL    HW2 6558   7.774   3.067   4.511  1.2646 -3.0616  2.3241
34851SOL     OW 6559   3.260   9.540   4.569  0.2051 -0.9094  0.5995
34851SOL    HW1 6560   3.339   9.531   4.515 -0.7641  0.7677 -1.2423
34851SOL    HW2 6561   3.287   9.593   4.643  0.8248 -0.3536 -0.0151
34852SOL     OW 6562   7.881  10.023   9.100 -0.5141  0.1899 -0.3358
34852SOL    HW1 6563   7.938  10.007   9.025  0.0510 -0.4613  0.2160
34852SOL    HW2 6564   7.799   9.979   9.078 -1.4169  2.3867 -1.8023
34853SOL     OW 6565   5.404   0.678   6.361  0.0731 -0.1516  0.4638
34853SOL    HW1 6566   5.420   0.598   6.410 -0.1808 -1.9075 -2.1170
34853SOL    HW2 6567   5.383   0.648   6.272  0.4799  2.8017 -0.7497
34854SOL     OW 6568   2.424   1.970   7.227  0.4113 -0.0792 -0.1499
34854SOL    HW1 6569   2.341   1.927   7.246  0.1299  0.0507 -1.0589
34854SOL    HW2 6570   2.408   2.063   7.245  0.5888 -0.1471  0.3924
34855SOL     OW 6571   4.692   6.657   2.686  0.1661  0.1790 -0.4806
34855SOL    HW1 6572   4.721   6.739   2.725  0.8490 -0.5542  0.5925
34855SOL    HW2 6573   4.771   6.622   2.644 -0.2352  0.2825 -1.3533
34856SOL     OW 6574   9.264  10.085   7.078 -1.1634  0.1985  0.6087
34856SOL    HW1 6575   9.274  10.179   7.064 -0.9198  0.0974  0.0759
34856SOL    HW2 6576   9.279  10.046   6.991 -1.1991 -0.3345  0.8375
34857SOL     OW 6577   5.943   6.426   3.809  0.4540 -0.6073 -0.1710
34857SOL    HW1 6578   5.882   6.491   3.774  0.7989 -0.5058 -0.6037
34857SOL    HW2 6579   5.966   6.459   3.896 -0.1641 -0.6893  0.0249
34858SOL     OW 6580   5.777   6.369   4.475 -0.3765 -0.7965 -0.1011
34858SOL    HW1 6581   5.834   6.438   4.442 -2.2198  1.0034  0.3107
34858SOL    HW2 6582   5.836   6.308   4.520  1.2823  0.5727 -0.3468
34859SOL     OW 6583   0.479   7.296   6.702 -0.4121  0.4328 -0.2956
34859SOL    HW1 6584   0.492   7.254   6.618 -0.1519 -2.3866  1.0529
34859SOL    HW2 6585   0.477   7.390   6.682 -0.7256 -0.1502 -3.4343
34860SOL     OW 6586   3.747  10.993   1.758  0.3284 -0.3608 -0.3423
34860SOL    HW1 6587   3.735  10.988   1.852  1.3445  0.7110 -0.1341
34860SOL    HW2 6588   3.841  10.980   1.745  0.0862 -1.2824 -1.2754
34861SOL     OW 6589   7.772   7.814   7.800  0.2463  0.0987  0.2895
34861SOL    HW1 6590   7.832   7.775   7.737 -2.0706 -1.7431 -0.9104
34861SOL    HW2 6591   7.802   7.905   7.809  2.2973 -0.3546 -1.3092
34862SOL     OW 6592   2.428   1.432   0.307  0.5905  0.1807 -0.1596
34862SOL    HW1 6593   2.457   1.341   0.321  0.9740  0.1423 -1.1097
34862SOL    HW2 6594   2.380   1.429   0.225  0.0712  0.7328  0.1218
34863SOL     OW 6595   3.532   0.277   1.267 -0.4016  0.0090  0.1032
34863SOL    HW1 6596   3.618   0.257   1.229 -0.3890 -0.2675  0.2778
34863SOL    HW2 6597   3.483   0.195   1.259 -0.9473  0.4127 -0.8031
34864SOL     OW 6598   7.696   9.551   7.066 -0.5745  0.3146 -0.2672
34864SOL    HW1 6599   7.677   9.545   7.159  0.7864 -1.5270 -0.0502
34864SOL    HW2 6600   7.625   9.503   7.023 -0.2070 -0.4672 -0.0158
34865SOL     OW 6601   6.495   5.423  10.034 -0.1254 -0.0965  0.0593
34865SOL    HW1 6602   6.491   5.398  10.126 -0.6315  0.1027  0.0976
34865SOL    HW2 6603   6.490   5.519  10.035 -1.3141 -0.1439 -0.2225
34866SOL     OW 6604  10.536   6.391   1.499  0.2282  0.2565  0.2685
34866SOL    HW1 6605  10.610   6.430   1.545  0.8103  0.5296 -0.8592
34866SOL    HW2 6606  10.558   6.401   1.406 -1.0456 -0.0020 -0.0777
34867SOL     OW 6607   4.410  10.253   6.358  0.1347  0.2552 -0.4633
34867SOL    HW1 6608   4.363  10.171   6.339  0.5485  0.0975 -0.8340
34867SOL    HW2 6609   4.381  10.277   6.446  1.9185 -1.6456  0.7474
34868SOL     OW 6610   3.836   6.904   5.711  0.2918  0.0083 -0.1286
34868SOL    HW1 6611   3.788   6.831   5.751 -0.8764  0.3810 -0.7934
34868SOL    HW2 6612   3.920   6.866   5.686  0.0372 -0.8912  0.3272
34869SOL     OW 6613   7.740   3.244   1.802  0.6871 -0.3388  0.2951
34869SOL    HW1 6614   7.739   3.246   1.898 -0.0987 -1.9912  0.3693
34869SOL    HW2 6615   7.687   3.319   1.776 -2.2344 -1.8477  1.3250
34870SOL     OW 6616  10.123  10.566   0.870 -0.1764  0.0322  0.3319
34870SOL    HW1 6617  10.155  10.656   0.862 -2.0312  0.8980  1.8125
34870SOL    HW2 6618  10.065  10.553   0.795 -0.3910  0.3126  0.4470
34871SOL     OW 6619  10.249   6.590  10.980 -0.5713 -0.2037  1.0763
34871SOL    HW1 6620  10.320   6.616  10.922 -0.2489  1.7464  2.2236
34871SOL    HW2 6621  10.205   6.518  10.935  0.8296 -0.0484 -0.6343
34872SOL     OW 6622   8.791   1.622   2.146  0.4896 -0.3478 -0.0224
34872SOL    HW1 6623   8.845   1.544   2.136  1.0393  0.0895 -0.5933
34872SOL    HW2 6624   8.749   1.612   2.231 -1.9068 -2.7756 -1.3268
34873SOL     OW 6625  10.951   7.038   1.461  0.0873 -0.4438  0.6629
34873SOL    HW1 6626  10.878   7.031   1.523  0.8021  2.1793  1.9445
34873SOL    HW2 6627  10.951   7.130   1.434  1.2719 -0.9927 -1.4488
34874SOL     OW 6628   2.541   3.724   7.778 -0.5287  0.0791  0.1260
34874SOL    HW1 6629   2.470   3.775   7.816  0.7825 -0.1826  3.2842
34874SOL    HW2 6630   2.511   3.633   7.784 -0.9310  0.1192 -1.0116
34875SOL     OW 6631   8.493   6.140   4.521  0.1718  0.5058  0.0918
34875SOL    HW1 6632   8.416   6.191   4.548  0.6463  1.0345  0.4584
34875SOL    HW2 6633   8.482   6.128   4.427 -0.4597  0.4081  0.1731
34876SOL     OW 6634   4.367   6.317   5.815  0.6320 -0.3764  0.1094
34876SOL    HW1 6635   4.330   6.279   5.735  0.5168 -2.0899  0.9516
34876SOL    HW2 6636   4.409   6.398   5.785 -0.2043 -0.5106 -1.5342
34877SOL     OW 6637   0.791   5.189   0.968 -0.2658 -0.1869  0.3624
34877SOL    HW1 6638   0.770   5.096   0.977  1.4045 -0.5426  0.9403
34877SOL    HW2 6639   0.879   5.190   0.930 -0.4855  1.1757 -0.1694
34878SOL     OW 6640   6.291   8.486   0.521 -0.6227 -0.4585  0.9944
34878SOL    HW1 6641   6.202   8.452   0.507 -0.6527 -0.8944  2.1150
34878SOL    HW2 6642   6.277   8.574   0.557 -0.5775 -0.1171  0.1933
34879SOL     OW 6643   6.659   2.717   4.154  0.2033  0.5132  0.2529
34879SOL    HW1 6644   6.656   2.718   4.059 -0.4233 -1.9084  0.1701
34879SOL    HW2 6645   6.678   2.626   4.176  1.2477  1.1911  2.4499
34880SOL     OW 6646   7.648   5.995   2.978 -0.5750  0.2526  0.0206
34880SOL    HW1 6647   7.626   5.996   3.071  0.8404  0.5306  0.3676
34880SOL    HW2 6648   7.608   6.076   2.944  0.7466  1.3082  0.8595
34881SOL     OW 6649   8.733   9.541   5.706  0.1337 -0.3421 -0.1980
34881SOL    HW1 6650   8.824   9.563   5.691  0.0113  0.5400  0.2390
34881SOL    HW2 6651   8.703   9.500   5.625  1.1898 -1.6214  0.0288
34882SOL     OW 6652   6.830   9.716   0.659  0.0525 -0.2048 -1.0910
34882SOL    HW1 6653   6.918   9.702   0.624  0.3242 -0.7065 -0.2534
34882SOL    HW2 6654   6.782   9.636   0.635  0.3283 -0.6884 -0.0989
34883SOL     OW 6655   1.604   8.671   1.356  0.2171  0.2741 -0.2095
34883SOL    HW1 6656   1.532   8.652   1.417  1.8588  1.1032  2.1500
34883SOL    HW2 6657   1.604   8.766   1.348  0.5895  0.2276 -0.8173
34884SOL     OW 6658   2.377   0.883   9.912  0.4896 -0.8396  0.3551
34884SOL    HW1 6659   2.402   0.816   9.975  3.1273 -0.2217  0.0702
34884SOL    HW2 6660   2.340   0.953   9.965  0.5381 -1.2657  0.9666
34885SOL     OW 6661   4.189   0.417  10.922 -1.0311  0.7799 -0.3675
34885SOL    HW1 6662   4.187   0.412  10.826 -0.8522 -1.0739 -0.3196
34885SOL    HW2 6663   4.119   0.478  10.945 -1.8616  0.3416 -1.6444
34886SOL     OW 6664   3.489   2.127   3.475  0.7670 -0.1466 -0.4258
34886SOL    HW1 6665   3.404   2.100   3.507  0.8621 -0.2778 -0.2827
34886SOL    HW2 6666   3.542   2.138   3.554  2.1725 -4.2259 -0.5608
34887SOL     OW 6667   1.124   4.654   8.099  0.5411  0.1657  0.3627
34887SOL    HW1 6668   1.173   4.596   8.157 -0.3014 -0.0809  0.8488
34887SOL    HW2 6669   1.129   4.740   8.141  1.6016  0.4180 -0.2430
34888SOL     OW 6670  11.151  10.740   6.180 -0.1647  0.4833  0.1648
34888SOL    HW1 6671  11.141  10.727   6.085  1.4454  1.7952 -0.2322
34888SOL    HW2 6672  11.118  10.659   6.219 -0.5257 -0.2321 -1.5322
34889SOL     OW 6673  10.076   1.760  11.019 -0.5256 -0.2917  0.8130
34889SOL    HW1 6674  10.111   1.847  11.000  0.3844 -0.5990  1.0418
34889SOL    HW2 6675  10.000   1.752  10.961 -1.5749  1.2595  1.9063
34890SOL     OW 6676   1.285   9.978   5.443  1.1089  0.2984 -0.5434
34890SOL    HW1 6677   1.328  10.056   5.478 -0.4371  1.8065 -1.8489
34890SOL    HW2 6678   1.335   9.955   5.365  3.2415 -1.7825  1.2579
34891SOL     OW 6679   3.782   8.916   8.880 -0.4245  0.7648 -0.6918
34891SOL    HW1 6680   3.786   8.823   8.904 -0.1380  0.6604 -1.1355
34891SOL    HW2 6681   3.862   8.953   8.918 -2.0476  1.5270  2.3083
34892SOL     OW 6682   0.103   8.673   8.294  0.0142  0.1422 -0.1126
34892SOL    HW1 6683   0.171   8.606   8.299 -0.5642 -0.4242  0.1290
34892SOL    HW2 6684   0.021   8.626   8.301 -0.4549  0.7279 -1.3300
34893SOL     OW 6685   6.377   4.630   2.314  0.0431  0.6090 -0.3509
34893SOL    HW1 6686   6.379   4.710   2.366  2.0042  0.1637  0.3595
34893SOL    HW2 6687   6.355   4.561   2.377 -0.3915  0.4179 -0.7035
34894SOL     OW 6688  10.470   5.610   1.897 -0.4087 -0.1740  0.7389
34894SOL    HW1 6689  10.497   5.665   1.823  0.0943  1.2459  1.9314
34894SOL    HW2 6690  10.407   5.548   1.859 -2.3009  2.2826 -0.3898
34895SOL     OW 6691   0.066   8.580   7.888 -0.5407 -0.2309 -0.2779
34895SOL    HW1 6692   0.060   8.545   7.976 -0.4436  0.3633 -0.0301
34895SOL    HW2 6693   0.082   8.674   7.900 -1.5445  0.0411 -0.9131
34896SOL     OW 6694   1.525   4.854   2.046 -0.4913 -0.0031  0.0916
34896SOL    HW1 6695   1.619   4.854   2.027 -0.4247  3.4617 -0.2157
34896SOL    HW2 6696   1.483   4.837   1.961 -0.1677 -0.3063 -0.0095
34897SOL     OW 6697   1.161   0.258   4.470  0.8586  0.1776 -0.6971
34897SOL    HW1 6698   1.090   0.280   4.529  3.2491  1.4748  1.9005
34897SOL    HW2 6699   1.142   0.307   4.390 -1.2296  0.3070 -0.1708
34898SOL     OW 6700   0.245   2.926   2.603 -0.4398  0.4735  0.4949
34898SOL    HW1 6701   0.230   2.833   2.620  1.4935  0.4239  2.3369
34898SOL    HW2 6702   0.176   2.950   2.541 -2.0884 -1.7659  1.3075
34899SOL     OW 6703  10.259   3.452   9.353 -0.4357  0.2902 -0.4925
34899SOL    HW1 6704  10.169   3.419   9.342 -0.1252 -0.5364 -0.6225
34899SOL    HW2 6705  10.299   3.391   9.415 -0.3732  1.4751  0.6819
34900SOL     OW 6706   1.583   1.678   4.969 -0.4852  0.7075  0.5198
34900SOL    HW1 6707   1.652   1.682   4.903 -1.6257 -0.7208 -0.8256
34900SOL    HW2 6708   1.626   1.705   5.050  2.0320 -1.4748  0.0451
34901SOL     OW 6709   3.521   1.097   6.107 -0.1276 -0.1589  0.0176
34901SOL    HW1 6710   3.459   1.152   6.059 -1.0553  0.4057  1.7748
34901SOL    HW2 6711   3.473   1.015   6.123 -0.0995 -0.0617  0.6094
34902SOL     OW 6712   9.253   2.644   6.587  0.2808  0.4584  0.0940
34902SOL    HW1 6713   9.217   2.681   6.667  0.0813  0.8384 -0.1717
34902SOL    HW2 6714   9.307   2.714   6.550  0.8418  0.0857  0.1977
34903SOL     OW 6715   3.823   3.812   1.580 -0.4565 -0.2416  1.1519
34903SOL    HW1 6716   3.840   3.891   1.530  1.2022 -0.5511  1.1954
34903SOL    HW2 6717   3.745   3.774   1.539  1.3845 -1.0146 -1.8811
34904SOL     OW 6718   4.575   4.612   7.344  0.0369 -0.5146 -0.5763
34904SOL    HW1 6719   4.540   4.587   7.258 -0.0874 -0.6675 -0.4794
34904SOL    HW2 6720   4.653   4.558   7.355 -0.3664 -1.0376 -0.2598
34905SOL     OW 6721   7.116   5.121   0.196 -0.6138 -0.9118  0.1907
34905SOL    HW1 6722   7.187   5.126   0.132  0.1360  0.6846  1.0739
34905SOL    HW2 6723   7.039   5.099   0.145 -0.6008  2.8022 -1.8006
34906SOL     OW 6724   6.499  10.930   4.167 -0.3402 -0.1792  0.3544
34906SOL    HW1 6725   6.523  10.974   4.248 -0.7752  1.4388 -0.3594
34906SOL    HW2 6726   6.509  10.996   4.099 -1.8546 -0.9180 -0.6613
34907SOL     OW 6727   3.205   9.962   7.293 -0.1593 -0.8785 -0.2497
34907SOL    HW1 6728   3.135   9.898   7.276 -1.4136  0.8954 -2.1648
34907SOL    HW2 6729   3.176  10.009   7.371  0.1932 -1.8266  0.4717
34908SOL     OW 6730   4.860   9.111   0.691  0.4185  0.3596 -0.0117
34908SOL    HW1 6731   4.922   9.150   0.753 -0.4533 -0.3550  1.3428
34908SOL    HW2 6732   4.822   9.037   0.738 -0.0817 -0.3621 -1.5029
34909SOL     OW 6733  11.007   6.661  10.107  0.0656  0.3605 -0.1433
34909SOL    HW1 6734  11.023   6.695  10.195  0.3835 -0.0793 -0.0266
34909SOL    HW2 6735  10.956   6.581  10.121  0.2844  0.1839 -0.3474
34910SOL     OW 6736   8.139   6.183   4.027  0.3092  0.3506 -0.1916
34910SOL    HW1 6737   8.207   6.137   3.979  1.6973  2.7757 -0.7034
34910SOL    HW2 6738   8.186   6.243   4.084 -1.3621  2.3160 -0.7500
34911SOL     OW 6739   9.440   8.169   3.828  0.0088  0.2600  0.3690
34911SOL    HW1 6740   9.435   8.243   3.889  1.5328 -1.3926  2.6303
34911SOL    HW2 6741   9.356   8.125   3.837 -0.1690  0.6131  0.4744
34912SOL     OW 6742   6.710   9.603   4.302  0.1558  0.1719  0.0843
34912SOL    HW1 6743   6.619   9.579   4.283  0.4987  0.2547 -1.9239
34912SOL    HW2 6744   6.706   9.646   4.387 -1.7520  0.5592 -0.1445
34913SOL     OW 6745   2.540   0.633   8.713 -0.4470 -0.0447  0.1888
34913SOL    HW1 6746   2.486   0.672   8.644 -1.1757 -0.3103  0.5862
34913SOL    HW2 6747   2.612   0.590   8.667 -0.8568 -0.1206 -0.3950
34914SOL     OW 6748   5.507  10.116   1.830  0.4645  0.1689  0.6333
34914SOL    HW1 6749   5.496  10.023   1.812  2.2414 -0.1351  0.8849
34914SOL    HW2 6750   5.595  10.137   1.797 -0.4583  2.1315 -0.7982
34915SOL     OW 6751   8.537  10.456  11.275  0.3618 -0.1210 -0.2302
34915SOL    HW1 6752   8.491  10.506  11.343 -0.9092 -0.7660 -0.5967
34915SOL    HW2 6753   8.627  10.452  11.306  0.1339  0.9363  0.6460
34916SOL     OW 6754   9.604   7.614   1.909 -0.5125  0.2400 -0.6606
34916SOL    HW1 6755   9.669   7.655   1.850 -0.3153  0.3170 -0.3900
34916SOL    HW2 6756   9.594   7.526   1.874 -1.9494  0.9144 -2.0682
34917SOL     OW 6757   5.579  10.347   7.684 -0.2993  0.0906 -0.0065
34917SOL    HW1 6758   5.653  10.398   7.650  0.2606  0.6579  1.8983
34917SOL    HW2 6759   5.585  10.263   7.639  0.9767  0.4342 -0.5394
34918SOL     OW 6760   9.416   0.966  10.876  0.3345  0.0157 -0.0131
34918SOL    HW1 6761   9.501   0.950  10.917  1.7375 -2.3353 -3.3446
34918SOL    HW2 6762   9.363   0.890  10.900 -1.5798  2.1268  3.2320
34919SOL     OW 6763   9.411   8.899   4.113 -0.5061  0.5692 -0.0458
34919SOL    HW1 6764   9.429   8.961   4.043 -0.5922  0.3980 -0.2188
34919SOL    HW2 6765   9.355   8.833   4.073 -0.7441  0.5917  0.2397
34920SOL     OW 6766   1.977   0.311   7.775 -0.4114 -0.7529 -0.3634
34920SOL    HW1 6767   1.999   0.393   7.819 -3.2022  0.5037 -1.0889
34920SOL    HW2 6768   2.024   0.244   7.825  1.6464  1.1754  0.5019
34921SOL     OW 6769   9.891   8.298   9.285 -0.0256 -0.5491  0.1362
34921SOL    HW1 6770   9.900   8.364   9.216 -1.2974  0.3853  0.8296
34921SOL    HW2 6771   9.824   8.334   9.344 -0.7474 -2.4639  0.5342
34922SOL     OW 6772   9.416  11.225   3.426  0.1885  0.4215 -0.3544
34922SOL    HW1 6773   9.324  11.238   3.405  0.2333  0.9258 -0.2431
34922SOL    HW2 6774   9.435  11.291   3.493 -0.0067 -1.2303  1.4364
34923SOL     OW 6775   4.554   3.723   2.293 -0.5979  0.4723 -0.4639
34923SOL    HW1 6776   4.610   3.652   2.325 -0.5326  1.4393  1.8125
34923SOL    HW2 6777   4.615   3.785   2.252 -0.5297 -0.3148 -1.5636
34924SOL     OW 6778   4.447   3.487   7.194  0.3145  0.0703  0.3077
34924SOL    HW1 6779   4.458   3.394   7.171  1.2040  0.1881  0.1931
34924SOL    HW2 6780   4.537   3.520   7.200 -0.0023  1.3010 -1.1911
34925SOL     OW 6781   2.705   4.171   1.653  0.1310 -0.2064  0.3105
34925SOL    HW1 6782   2.784   4.223   1.639  0.9093 -1.5069 -0.2633
34925SOL    HW2 6783   2.714   4.137   1.742 -0.1023  0.1653  0.4786
34926SOL     OW 6784   3.725   0.865   8.120  0.6410 -0.1154  0.6920
34926SOL    HW1 6785   3.708   0.835   8.030 -0.8893  0.5127  0.7563
34926SOL    HW2 6786   3.712   0.788   8.174 -0.5031 -0.0146  0.5740
34927SOL     OW 6787   6.895   4.263   4.241 -0.1779  0.7928  0.2011
34927SOL    HW1 6788   6.848   4.185   4.213  0.8883  0.1127  0.2345
34927SOL    HW2 6789   6.828   4.330   4.252 -1.3823 -0.6528  2.0872
34928SOL     OW 6790   8.790   2.058  10.389  0.2912 -0.0938  0.1666
34928SOL    HW1 6791   8.845   2.135  10.403 -1.2538  1.0319  0.3071
34928SOL    HW2 6792   8.765   2.063  10.297  0.4275 -0.6012  0.0993
34929SOL     OW 6793   0.537   5.082   3.447 -0.6994 -0.3233 -0.0819
34929SOL    HW1 6794   0.541   5.069   3.352 -1.7604  0.8209 -0.3226
34929SOL    HW2 6795   0.474   5.017   3.477  1.9581 -2.8607  0.3628
34930SOL     OW 6796   5.275  10.477   0.995  0.4004 -0.2861 -0.4273
34930SOL    HW1 6797   5.184  10.508   0.998  0.3150 -0.5827  0.1931
34930SOL    HW2 6798   5.326  10.556   0.978 -0.0078 -0.1821 -1.1959
34931SOL     OW 6799   8.022   2.882   8.174  0.0434 -0.2174 -0.0051
34931SOL    HW1 6800   7.999   2.898   8.083  2.0552  0.2151 -0.4687
34931SOL    HW2 6801   8.018   2.969   8.215  0.5239 -0.1898 -0.0163
34932SOL     OW 6802   6.857   5.298   4.178 -0.2207 -0.1737 -0.7144
34932SOL    HW1 6803   6.815   5.218   4.209 -1.7511  0.9940  0.3948
34932SOL    HW2 6804   6.869   5.351   4.257  3.1694 -0.2754 -1.0090
34933SOL     OW 6805   2.188   0.974   2.614  0.4665 -0.1451  0.9983
34933SOL    HW1 6806   2.282   0.972   2.596  0.7777 -0.2916  2.4866
34933SOL    HW2 6807   2.158   1.056   2.575  0.8472 -0.9097 -1.0032
34934SOL     OW 6808   8.530   3.484   7.884 -0.0548 -0.1875 -0.1020
34934SOL    HW1 6809   8.557   3.415   7.822  0.9257  0.7513 -0.7685
34934SOL    HW2 6810   8.580   3.561   7.856 -2.2438  1.2183 -0.3192
34935SOL     OW 6811   2.849   4.725   2.621 -0.0605 -1.3355 -0.4620
34935SOL    HW1 6812   2.753   4.719   2.619 -0.3820  1.9074  0.5796
34935SOL    HW2 6813   2.872   4.760   2.535 -0.3412  2.0598  0.7105
34936SOL     OW 6814   7.017   1.538   9.949  0.0797  0.3694  0.8190
34936SOL    HW1 6815   6.978   1.523  10.035 -0.3762  1.8622  0.9011
34936SOL    HW2 6816   6.951   1.507   9.887  1.3226 -2.8706  0.9479
34937SOL     OW 6817   7.133   0.168   7.723 -0.1309 -0.6135 -0.0164
34937SOL    HW1 6818   7.076   0.226   7.775 -0.5341 -1.8400  0.9647
34937SOL    HW2 6819   7.113   0.190   7.632 -0.0011  1.0313  0.3165
34938SOL     OW 6820   3.386   9.065   9.981 -0.2969  0.5371 -0.2513
34938SOL    HW1 6821   3.300   9.095  10.010 -0.2482  0.1329  0.3178
34938SOL    HW2 6822   3.395   8.977  10.018  0.5126  0.7184 -0.0098
34939SOL     OW 6823   8.254   4.817   9.171 -0.0858 -0.2251 -0.4852
34939SOL    HW1 6824   8.349   4.808   9.172 -0.1863 -1.4142 -0.4695
34939SOL    HW2 6825   8.233   4.861   9.253  0.5665  1.6168 -1.2468
34940SOL     OW 6826   0.161   4.745  10.002  0.0225  0.5387  0.4535
34940SOL    HW1 6827   0.174   4.840  10.007  1.9972  0.2498  1.8697
34940SOL    HW2 6828   0.179   4.714  10.090 -0.9596 -1.1509  0.0965
34941SOL     OW 6829   1.386   4.850  10.330  0.0321  0.3950  0.3249
34941SOL    HW1 6830   1.371   4.866  10.237 -1.1745  0.7615  0.5628
34941SOL    HW2 6831   1.351   4.762  10.345  0.4860  0.2202  0.3851
34942SOL     OW 6832   8.484   0.635   6.963 -0.4048 -0.3189  0.1202
34942SOL    HW1 6833   8.401   0.617   7.006  0.5493 -1.7521  1.4421
34942SOL    HW2 6834   8.549   0.627   7.032  0.8208  1.1332 -0.8135
34943SOL     OW 6835   0.672   6.481   0.625  0.2493 -0.5599  0.1015
34943SOL    HW1 6836   0.695   6.474   0.532 -0.4461 -1.2326 -0.0314
34943SOL    HW2 6837   0.577   6.481   0.627  0.2470  0.5585  0.7544
34944SOL     OW 6838   7.359   7.649   0.838  0.1922 -0.1836  0.2172
34944SOL    HW1 6839   7.369   7.647   0.933 -0.2630 -1.1315  0.2506
34944SOL    HW2 6840   7.446   7.672   0.805 -0.0127  1.7844  0.9148
34945SOL     OW 6841   4.479   8.551   7.930 -0.3948  0.3880  0.2222
34945SOL    HW1 6842   4.560   8.502   7.938  0.1810  1.1193 -0.8839
34945SOL    HW2 6843   4.474   8.575   7.837 -2.0017  0.1460  0.2092
34946SOL     OW 6844   9.373   9.702   5.671  0.3391 -0.1267  0.7170
34946SOL    HW1 6845   9.401   9.791   5.648 -0.8227  0.1546  0.3450
34946SOL    HW2 6846   9.349   9.662   5.588 -1.6954  0.1223  1.1291
34947SOL     OW 6847   0.457   4.719   9.609  0.4075  0.0247 -0.2538
34947SOL    HW1 6848   0.430   4.702   9.519 -0.4467  1.5533 -0.3277
34947SOL    HW2 6849   0.463   4.633   9.649  1.7712 -0.7684 -2.0183
34948SOL     OW 6850   0.403  10.078   2.264 -0.1336 -0.0498 -0.6090
34948SOL    HW1 6851   0.415  10.169   2.292 -0.8957 -0.2998  0.5952
34948SOL    HW2 6852   0.332  10.045   2.319  1.2224 -1.8699  0.1577
34949SOL     OW 6853   7.013   8.329   1.963 -0.2156  0.3553 -0.3789
34949SOL    HW1 6854   7.070   8.332   1.886 -0.3015 -0.1859 -0.4690
34949SOL    HW2 6855   7.071   8.303   2.034 -0.3183 -0.0730 -0.4468
34950SOL     OW 6856   6.956  10.165   6.010  0.2196  0.7810  0.7257
34950SOL    HW1 6857   6.943  10.121   5.926 -0.7812 -1.4706  1.9618
34950SOL    HW2 6858   7.038  10.213   5.999  1.3180 -1.2535 -0.8556
34951SOL     OW 6859   7.560   0.843   7.286  0.3881  0.0276 -0.5679
34951SOL    HW1 6860   7.519   0.917   7.241  1.0782  0.9281  0.2446
34951SOL    HW2 6861   7.504   0.828   7.363  1.8252  1.6369  0.8626
34952SOL     OW 6862   2.962   7.504  10.561  0.4210 -0.0584 -0.7358
34952SOL    HW1 6863   3.021   7.450  10.508  0.7550  0.3680 -0.7987
34952SOL    HW2 6864   2.988   7.594  10.542 -0.4189  0.1429 -0.9596
34953SOL     OW 6865   5.072   2.968   3.007 -0.3630 -0.4785 -0.1394
34953SOL    HW1 6866   5.000   2.908   2.990  0.3053 -1.0156 -1.1560
34953SOL    HW2 6867   5.151   2.919   2.985  0.2801  0.3659  0.1813
34954SOL     OW 6868  10.876   3.804   5.449  0.1081 -0.2199 -0.1468
34954SOL    HW1 6869  10.933   3.784   5.375  1.5308  1.3600  0.4555
34954SOL    HW2 6870  10.787   3.795   5.415  0.6866 -2.0019 -1.3259
34955SOL     OW 6871   5.680   9.482   9.733 -0.1012  0.0081  0.3879
34955SOL    HW1 6872   5.690   9.388   9.723  0.8821 -0.0360  1.5047
34955SOL    HW2 6873   5.683   9.517   9.644 -1.1949 -1.0698 -0.0837
34956SOL     OW 6874   6.156   4.384   7.293 -0.6269 -0.1657  0.0247
34956SOL    HW1 6875   6.118   4.365   7.379  1.7095  0.4187  1.2764
34956SOL    HW2 6876   6.234   4.329   7.288 -1.2809 -0.9968 -2.2468
34957SOL     OW 6877   5.736   6.816   6.467  0.1851 -0.3283 -0.0887
34957SOL    HW1 6878   5.806   6.879   6.446 -1.6310  1.5653 -0.7902
34957SOL    HW2 6879   5.732   6.758   6.391  1.3161 -0.8064  0.1913
34958SOL     OW 6880   2.677   4.501   0.344  0.1746 -0.6602 -0.2351
34958SOL    HW1 6881   2.730   4.576   0.371 -1.4311  0.6140 -0.5223
34958SOL    HW2 6882   2.742   4.434   0.321  1.6319  0.1696  1.2398
34959SOL     OW 6883   7.616  11.253   1.444  0.8009  0.5998 -0.2593
34959SOL    HW1 6884   7.697  11.300   1.460  2.4022 -1.7471 -1.0025
34959SOL    HW2 6885   7.643  11.163   1.425 -1.8974 -0.0503 -1.5341
34960SOL     OW 6886   9.931   9.250   6.181  0.8086 -1.1553 -0.3448
34960SOL    HW1 6887   9.943   9.162   6.218 -0.4771 -1.8349 -1.4747
34960SOL    HW2 6888   9.842   9.249   6.145 -0.2352  1.4547  1.8467
34961SOL     OW 6889   7.313   6.361   5.783  0.5548 -0.7138 -0.2493
34961SOL    HW1 6890   7.244   6.370   5.850 -1.6575 -4.3884 -1.6954
34961SOL    HW2 6891   7.372   6.294   5.819 -0.5583 -2.5937 -1.7422
34962SOL     OW 6892  10.713   9.181   8.954  0.2580  0.0374  0.2803
34962SOL    HW1 6893  10.622   9.206   8.969 -0.2746 -2.6906  2.3098
34962SOL    HW2 6894  10.714   9.148   8.864 -1.1569 -1.3191  0.7248
34963SOL     OW 6895   7.532   7.586   9.919 -0.0646  0.7664  0.5287
34963SOL    HW1 6896   7.479   7.658   9.885 -2.8300 -0.8982  0.9479
34963SOL    HW2 6897   7.502   7.575  10.009  0.0156 -1.0908  0.3716
34964SOL     OW 6898   4.700   8.351   7.716 -0.2904 -0.3889  0.3095
34964SOL    HW1 6899   4.655   8.425   7.675 -0.5627 -1.1537 -0.8444
34964SOL    HW2 6900   4.706   8.374   7.808 -0.0958  1.2024 -0.0721
34965SOL     OW 6901   8.829   4.030   0.309 -0.2988 -0.4219 -0.0706
34965SOL    HW1 6902   8.800   3.997   0.224 -2.6113  1.2769 -0.0699
34965SOL    HW2 6903   8.748   4.055   0.354  1.0211  2.3852  1.0374
34966SOL     OW 6904   6.067  10.001   2.117 -0.4363  0.2853  0.3151
34966SOL    HW1 6905   6.048  10.084   2.075  2.0128  0.4145 -0.7401
34966SOL    HW2 6906   6.158  10.010   2.147 -0.8759 -1.1734  2.3342
34967SOL     OW 6907  11.050   2.457   7.869 -0.7524  0.7639 -0.0201
34967SOL    HW1 6908  11.035   2.363   7.874 -1.2014  0.8540  0.4290
34967SOL    HW2 6909  11.025   2.490   7.955 -3.2811  1.6562 -1.0045
34968SOL     OW 6910   4.331   3.356   1.217 -0.8195 -0.1105 -0.9078
34968SOL    HW1 6911   4.269   3.353   1.144 -0.6544 -0.4477 -1.0377
34968SOL    HW2 6912   4.292   3.299   1.284 -0.3379 -0.8466 -1.2430
34969SOL     OW 6913   0.065   1.017   3.142  0.0552  0.2687  0.4647
34969SOL    HW1 6914   0.131   0.956   3.177  0.2163  0.0987 -0.1152
34969SOL    HW2 6915   0.055   1.083   3.210  1.5973  0.8752  0.1426
34970SOL     OW 6916   2.895   5.206   1.271  0.3032  0.3989 -1.0057
34970SOL    HW1 6917   2.870   5.149   1.344  2.4036 -0.2488 -0.7358
34970SOL    HW2 6918   2.828   5.275   1.270 -0.6065 -0.4202  0.5591
34971SOL     OW 6919  10.953   3.816   1.117  0.1251  0.4336 -0.1692
34971SOL    HW1 6920  10.954   3.859   1.202  1.3586 -0.9068  0.5289
34971SOL    HW2 6921  10.890   3.867   1.066 -0.7183  1.2232  1.5533
34972SOL     OW 6922   5.825   0.370   9.861 -0.6939 -0.0986  0.2770
34972SOL    HW1 6923   5.872   0.320   9.795 -2.5427 -0.6732 -0.6842
34972SOL    HW2 6924   5.771   0.431   9.812 -0.5009  0.9807  1.3557
34973SOL     OW 6925   4.983   0.823   9.091  0.7599  0.2576  0.3573
34973SOL    HW1 6926   4.924   0.879   9.142  0.6873 -0.2715  0.8591
34973SOL    HW2 6927   4.966   0.848   9.000  0.5906  0.9160  0.5582
34974SOL     OW 6928  10.102   8.966   0.177  0.0847  0.5773 -0.2838
34974SOL    HW1 6929  10.117   8.889   0.122 -0.9580 -0.4265  0.7819
34974SOL    HW2 6930  10.189   8.991   0.208  0.1873 -2.8979  2.8829
34975SOL     OW 6931   3.933   7.408   8.507 -0.1643  0.2333  0.1616
34975SOL    HW1 6932   3.902   7.318   8.513  0.2963  0.0775  0.2307
34975SOL    HW2 6933   3.857   7.458   8.476 -0.7455  0.0134  1.1907
34976SOL     OW 6934   8.368   1.455   1.192  0.7637  0.3285 -0.5093
34976SOL    HW1 6935   8.439   1.393   1.173  1.4463  1.1740 -0.7832
34976SOL    HW2 6936   8.386   1.486   1.281  0.2893 -0.0435 -0.2827
34977SOL     OW 6937   3.214   0.177   8.403 -0.1182  1.0071  0.3843
34977SOL    HW1 6938   3.171   0.158   8.486  0.4950 -0.7720  0.3359
34977SOL    HW2 6939   3.272   0.102   8.388 -0.7577  0.9059 -2.0133
34978SOL     OW 6940   4.473   5.448   7.935 -0.0954  0.1331  0.5756
34978SOL    HW1 6941   4.411   5.475   8.002 -0.8237  1.6027 -0.6273
34978SOL    HW2 6942   4.553   5.427   7.983 -1.6965 -2.6676  2.2755
34979SOL     OW 6943   7.710   5.653   7.095  0.2498 -0.1548  0.4212
34979SOL    HW1 6944   7.621   5.673   7.124 -0.0781 -2.5161  1.1839
34979SOL    HW2 6945   7.705   5.652   6.999 -0.2681  0.7280  0.4242
34980SOL     OW 6946   0.722   8.668  11.175 -0.1887 -0.0176  0.0273
34980SOL    HW1 6947   0.726   8.584  11.222 -0.9526  0.6468  1.3478
34980SOL    HW2 6948   0.646   8.712  11.213  0.7811  1.6925  0.0381
34981SOL     OW 6949   6.059   0.493   7.376 -0.2288  0.1430 -0.3733
34981SOL    HW1 6950   5.997   0.532   7.439 -0.0825  3.4982 -2.0850
34981SOL    HW2 6951   6.070   0.560   7.309  1.8325 -2.1516 -2.5212
34982SOL     OW 6952   1.040   3.895   1.257 -0.4627 -0.1009 -0.1031
34982SOL    HW1 6953   0.957   3.907   1.304  0.7737  1.2187  1.8756
34982SOL    HW2 6954   1.098   3.961   1.293  1.6616 -1.3706 -1.0135
34983SOL     OW 6955   0.987   7.555   4.288 -0.4184 -0.8150 -0.5409
34983SOL    HW1 6956   1.073   7.529   4.322 -0.0210 -0.4010 -1.2246
34983SOL    HW2 6957   1.005   7.626   4.226 -1.3282 -0.1756 -0.0985
34984SOL     OW 6958   1.992   7.920   0.687  0.3716 -0.4628 -0.2587
34984SOL    HW1 6959   2.023   7.958   0.605  3.5551 -0.3200  0.8782
34984SOL    HW2 6960   1.974   7.995   0.743  0.1089 -0.5852 -0.1758
34985SOL     OW 6961   7.451   0.531   1.663  0.1242  0.5516  0.0277
34985SOL    HW1 6962   7.473   0.523   1.756  0.7199 -1.9979 -0.2707
34985SOL    HW2 6963   7.479   0.620   1.640 -0.1980  1.3108  2.2948
34986SOL     OW 6964  10.648   3.493   0.135  0.3950 -0.0384  0.2600
34986SOL    HW1 6965  10.616   3.455   0.217  1.7193 -0.4592  0.6092
34986SOL    HW2 6966  10.596   3.572   0.122  0.0447 -0.0721  1.4117
34987SOL     OW 6967  10.587   8.014   7.253  0.3856 -0.0518 -0.0422
34987SOL    HW1 6968  10.601   8.060   7.170  2.7152 -0.7278 -0.0995
34987SOL    HW2 6969  10.590   8.082   7.320 -0.6509  0.3880 -0.4236
34988SOL     OW 6970   5.928   7.114  10.285  0.8839 -0.0298  0.1657
34988SOL    HW1 6971   5.916   7.064  10.204 -1.6370 -0.1292  0.5318
34988SOL    HW2 6972   5.844   7.158  10.299  2.3932  2.8859  0.8561
34989SOL     OW 6973   3.573   5.691   1.023 -1.2515 -0.3813  0.1539
34989SOL    HW1 6974   3.504   5.654   1.078 -1.2702 -1.2928 -0.4758
34989SOL    HW2 6975   3.577   5.634   0.946  0.6404 -0.7438  0.4625
34990SOL     OW 6976  11.195   5.322   5.787  0.2505  0.2351  0.6763
34990SOL    HW1 6977  11.232   5.247   5.741 -2.5335 -0.2741 -0.9617
34990SOL    HW2 6978  11.247   5.330   5.867  1.5079 -2.5783  0.2354
34991SOL     OW 6979   4.540   5.730   2.202  0.0595 -0.0784 -0.2243
34991SOL    HW1 6980   4.552   5.653   2.145  0.4339  0.0577 -0.3301
34991SOL    HW2 6981   4.549   5.695   2.290 -4.1906 -1.0421  0.0311
34992SOL     OW 6982   5.246   5.782   3.671 -0.3593  0.1571 -0.2727
34992SOL    HW1 6983   5.248   5.699   3.718  3.7545  1.2858  2.0167
34992SOL    HW2 6984   5.189   5.838   3.725  0.3451  0.0299  0.6171
34993SOL     OW 6985   3.825   7.801  10.677  0.8790 -0.6149  0.9107
34993SOL    HW1 6986   3.908   7.824  10.635  0.7275  0.5678  1.2414
34993SOL    HW2 6987   3.773   7.763  10.607  1.2864 -0.3154  0.4396
34994SOL     OW 6988   6.993   8.166   3.585 -0.4875 -0.0192  0.3838
34994SOL    HW1 6989   7.044   8.109   3.643  0.6528  0.2166 -0.3591
34994SOL    HW2 6990   6.942   8.106   3.531  0.8549 -0.3763 -0.5307
34995SOL     OW 6991   6.661  10.694   5.471 -0.3350 -0.1936  0.1935
34995SOL    HW1 6992   6.683  10.750   5.397 -0.1551 -0.4501  0.0520
34995SOL    HW2 6993   6.651  10.755   5.545 -2.0068  0.2248 -0.3398
34996SOL     OW 6994   9.140   4.358   2.177 -0.6104  0.2868  0.6691
34996SOL    HW1 6995   9.213   4.296   2.176 -1.3807 -0.6378 -0.1358
34996SOL    HW2 6996   9.090   4.334   2.255 -0.5028  0.3788  0.7658
34997SOL     OW 6997   9.839  10.054   0.603  0.0017 -0.0060 -0.0030
34997SOL    HW1 6998   9.752  10.083   0.630 -0.3373  1.6901 -2.5002
34997SOL    HW2 6999   9.823  10.008   0.520  1.5295  1.2749 -1.0650
34998SOL     OW 7000   4.449   0.624   7.360 -0.0671 -0.1316 -0.0048
34998SOL    HW1 7001   4.452   0.643   7.266  0.5428 -0.5713 -0.0864
34998SOL    HW2 7002   4.432   0.708   7.401 -2.4491 -0.2549 -0.6128
34999SOL     OW 7003   6.424   6.984   1.888 -0.0676 -0.1903  0.3930
34999SOL    HW1 7004   6.385   7.043   1.953 -0.7427  0.7280 -0.8110
34999SOL    HW2 7005   6.517   7.005   1.890 -0.4567  1.8617 -0.9070
35000SOL     OW 7006   3.829   1.231  10.579  0.1302  0.0709  0.9152
35000SOL    HW1 7007   3.876   1.165  10.629  0.8174 -0.3508 -0.2513
35000SOL    HW2 7008   3.878   1.238  10.496  1.3389  3.5144  1.7485
35001SOL     OW 7009   9.067   7.019   7.091  0.1095  0.1831 -0.8989
35001SOL    HW1 7010   9.005   7.087   7.117  0.1586 -0.3369  0.6826
35001SOL    HW2 7011   9.040   6.942   7.141  0.3788 -0.8315 -2.2472
35002SOL     OW 7012   7.429   2.569   4.900 -0.3464 -0.7297 -0.0550
35002SOL    HW1 7013   7.375   2.490   4.899 -0.0958 -0.9017 -0.1982
35002SOL    HW2 7014   7.466   2.573   4.812 -3.0793  1.4273 -1.2781
35003SOL     OW 7015   5.463   7.229   1.351 -0.5718 -0.7318 -0.2595
35003SOL    HW1 7016   5.466   7.220   1.446  0.2650 -0.1266 -0.2141
35003SOL    HW2 7017   5.518   7.158   1.319  0.6370  0.1276 -0.1890
35004SOL     OW 7018   5.877  11.152   3.656 -0.2223  0.2932 -0.2159
35004SOL    HW1 7019   5.865  11.184   3.745  0.6642  0.8474 -0.2817
35004SOL    HW2 7020   5.917  11.226   3.609  0.9011 -0.5485 -0.6352
35005SOL     OW 7021   8.638   7.206   2.037 -0.4241 -0.3263  0.4532
35005SOL    HW1 7022   8.614   7.187   2.128 -1.4834 -0.6636  0.1114
35005SOL    HW2 7023   8.732   7.185   2.032 -0.2866 -0.0137  1.5396
35006SOL     OW 7024   2.306   8.507   2.696 -0.0718 -0.0134  0.2405
35006SOL    HW1 7025   2.293   8.414   2.678 -0.4352 -0.1367  1.0819
35006SOL    HW2 7026   2.358   8.509   2.776 -1.2382  0.4977  1.0113
35007SOL     OW 7027   2.122   2.830   0.511 -0.0506 -0.4299 -0.4875
35007SOL    HW1 7028   2.173   2.844   0.591 -1.1240  0.1626  0.1158
35007SOL    HW2 7029   2.137   2.738   0.488  2.2532  0.0262 -1.0445
35008SOL     OW 7030   0.941   9.468   1.641 -0.5028 -0.5118  0.5394
35008SOL    HW1 7031   1.007   9.413   1.600 -0.9190 -0.6697  0.0677
35008SOL    HW2 7032   0.983   9.501   1.721  0.9368  1.1227 -0.7999
35009SOL     OW 7033   9.664   0.128   9.580 -0.5656  0.5429 -0.5177
35009SOL    HW1 7034   9.723   0.109   9.507 -0.5807 -0.1121 -0.3608
35009SOL    HW2 7035   9.696   0.212   9.614 -0.2354  0.5985 -0.9465
35010SOL     OW 7036   3.780  10.311   1.098  0.4090 -0.3725  0.3881
35010SOL    HW1 7037   3.742  10.245   1.040 -1.1851  1.4992 -0.8215
35010SOL    HW2 7038   3.722  10.311   1.174  0.7790 -0.7828  0.6745
35011SOL     OW 7039   0.170  11.072   8.380 -0.6268  0.6305  0.6466
35011SOL    HW1 7040   0.256  11.096   8.346 -1.3632  0.6056 -1.3706
35011SOL    HW2 7041   0.166  10.977   8.369 -0.9198  0.6359  0.7088
35012SOL     OW 7042   0.417   0.364  10.271 -0.5393 -0.3295 -0.7030
35012SOL    HW1 7043   0.508   0.387  10.290  0.6813 -4.6521 -0.1585
35012SOL    HW2 7044   0.375   0.360  10.357 -1.0865  0.8778 -0.8930
35013SOL     OW 7045   9.855   2.482   9.131 -0.2340 -0.3220 -0.6548
35013SOL    HW1 7046   9.785   2.495   9.196  0.5477 -2.4133  0.6922
35013SOL    HW2 7047   9.916   2.422   9.173  0.7863 -1.0364 -2.9960
35014SOL     OW 7048   2.299   0.214   2.681 -0.1081 -0.2062 -0.5389
35014SOL    HW1 7049   2.366   0.155   2.646  0.2710 -0.0923 -0.0039
35014SOL    HW2 7050   2.348   0.282   2.727 -0.6299 -1.1187  1.4790
35015SOL     OW 7051   4.785  10.972   5.821  0.0956 -0.6224 -0.1580
35015SOL    HW1 7052   4.797  10.903   5.886 -0.6769  0.3609  1.0728
35015SOL    HW2 7053   4.746  10.927   5.746 -3.0584 -1.1670  1.6108
35016SOL     OW 7054  10.947   7.090   7.598  1.3497 -0.3261 -0.2907
35016SOL    HW1 7055  11.002   7.013   7.585  0.9340 -0.8606  1.0007
35016SOL    HW2 7056  10.863   7.066   7.559  1.5679 -0.0703 -0.9337
35017SOL     OW 7057   4.956   1.995   5.837  0.0114 -0.8466  0.2324
35017SOL    HW1 7058   4.953   1.912   5.789 -2.9246 -0.3849 -0.5686
35017SOL    HW2 7059   4.985   1.970   5.925  0.3886 -2.5155 -0.3239
35018SOL     OW 7060   1.423   0.629   7.225 -0.5801 -0.2560  0.3717
35018SOL    HW1 7061   1.444   0.566   7.157 -0.5233 -0.5372  0.6477
35018SOL    HW2 7062   1.498   0.689   7.227 -0.9343  0.2329 -0.3556
35019SOL     OW 7063   5.349   7.405   9.084 -0.7769 -0.3176  0.0100
35019SOL    HW1 7064   5.293   7.470   9.127 -0.7076  0.0196 -0.3963
35019SOL    HW2 7065   5.289   7.354   9.029 -0.6484  0.2877 -0.7174
35020SOL     OW 7066   7.305   1.744   6.263  0.6338 -0.4742 -0.0839
35020SOL    HW1 7067   7.263   1.830   6.257  1.6181 -0.0662 -1.7671
35020SOL    HW2 7068   7.269   1.695   6.189  1.6564 -0.7789 -0.3981
35021SOL     OW 7069  10.764   0.163   0.900 -0.6471  0.0042 -0.3485
35021SOL    HW1 7070  10.811   0.223   0.958 -3.6028 -0.0584  2.3653
35021SOL    HW2 7071  10.672   0.185   0.912 -1.5581 -1.9047 -3.0077
35022SOL     OW 7072   5.669   4.259   6.563 -0.3135  0.6016  0.0335
35022SOL    HW1 7073   5.591   4.270   6.510 -0.7890  1.6806  0.9137
35022SOL    HW2 7074   5.681   4.164   6.570 -0.5162  0.4464 -1.5584
35023SOL     OW 7075   3.315   6.425   4.874  0.1272  0.1943  0.3113
35023SOL    HW1 7076   3.263   6.400   4.951 -2.5970 -0.5615 -1.6212
35023SOL    HW2 7077   3.405   6.426   4.906 -0.9930  2.2429  4.0756
35024SOL     OW 7078   2.631   4.665   3.641  1.6424 -0.3619  0.0171
35024SOL    HW1 7079   2.588   4.749   3.625  2.6646  0.1714 -0.0210
35024SOL    HW2 7080   2.721   4.678   3.612  1.1110 -2.4807 -3.0985
35025SOL     OW 7081   6.313   0.293   2.487 -0.4391  0.1869 -0.5108
35025SOL    HW1 7082   6.237   0.235   2.493 -1.3022  0.7571 -3.7695
35025SOL    HW2 7083   6.342   0.285   2.396  2.4060  1.2794  0.1828
35026SOL     OW 7084   8.087   3.616  11.251 -0.5848  0.3310 -0.3059
35026SOL    HW1 7085   8.092   3.552  11.322 -1.6612  1.8565  1.2359
35026SOL    HW2 7086   8.028   3.684  11.284  0.3668  2.0540 -1.9151
35027SOL     OW 7087   2.165   2.761   3.474  0.5411 -0.1401  0.4068
35027SOL    HW1 7088   2.098   2.742   3.540 -0.4740 -0.1636 -0.5893
35027SOL    HW2 7089   2.168   2.682   3.420  1.7490 -0.3313  0.7216
35028SOL     OW 7090   1.399   6.360   1.312 -0.0119  0.5580  0.4096
35028SOL    HW1 7091   1.473   6.351   1.253  1.0153 -0.4522  1.7634
35028SOL    HW2 7092   1.410   6.446   1.353 -0.1801  0.8468 -0.1479
35029SOL     OW 7093  10.356   2.905   5.668 -0.5669  0.3039  0.2275
35029SOL    HW1 7094  10.274   2.874   5.630  0.9472 -2.5481 -1.0003
35029SOL    HW2 7095  10.377   2.984   5.618 -1.0540 -0.6684 -1.6224
35030SOL     OW 7096   6.442   8.908   6.962  0.8020 -0.3769  0.1965
35030SOL    HW1 7097   6.392   8.859   6.897  0.1934 -1.6900  1.5924
35030SOL    HW2 7098   6.524   8.931   6.918 -0.7224  1.3562 -1.9764
35031SOL     OW 7099   8.611   7.456   7.032  0.2784 -0.1912  0.7029
35031SOL    HW1 7100   8.547   7.508   6.984  0.6934 -0.1269  0.2178
35031SOL    HW2 7101   8.558   7.396   7.085 -0.2093 -1.5495 -1.2299
35032SOL     OW 7102   4.858  10.379   4.786  0.2337  0.2109 -0.4831
35032SOL    HW1 7103   4.916  10.428   4.844 -0.0852  0.6347 -0.5248
35032SOL    HW2 7104   4.801  10.445   4.747  0.8333  0.0192 -1.7516
35033SOL     OW 7105   1.556   7.085   0.961 -0.1708 -0.1080 -0.0962
35033SOL    HW1 7106   1.584   7.100   0.871 -0.7232  0.4635 -0.1793
35033SOL    HW2 7107   1.553   7.172   1.000 -0.9657 -0.2426  0.1629
35034SOL     OW 7108   7.990   0.689  10.441 -0.2739 -0.6955 -0.1170
35034SOL    HW1 7109   7.894   0.687  10.439 -0.3855  0.5745  1.5116
35034SOL    HW2 7110   8.014   0.619  10.502 -0.1788 -0.7975 -0.2715
35035SOL     OW 7111   2.035   1.047   6.232 -0.1600  0.4067  0.5166
35035SOL    HW1 7112   2.075   0.968   6.195 -0.6571  1.0765 -1.5511
35035SOL    HW2 7113   2.107   1.109   6.241 -0.0926  0.3455  0.3931
35036SOL     OW 7114   8.508   8.281   6.302 -0.2622 -0.1400  0.2206
35036SOL    HW1 7115   8.577   8.297   6.237  0.0206 -2.2028 -0.0729
35036SOL    HW2 7116   8.427   8.308   6.259  0.1876  0.8179 -0.0418
35037SOL     OW 7117  10.724   1.277   1.358 -0.1142 -0.2589 -0.1123
35037SOL    HW1 7118  10.796   1.225   1.323 -0.1241 -0.5176  0.2519
35037SOL    HW2 7119  10.751   1.368   1.345  1.0135 -0.3314  1.5299
35038SOL     OW 7120   1.715   5.237  10.404 -0.0268 -0.5311 -0.0819
35038SOL    HW1 7121   1.729   5.147  10.376  0.3447  0.2017 -2.5205
35038SOL    HW2 7122   1.620   5.248  10.407 -0.0817 -0.7443 -0.8267
35039SOL     OW 7123   1.513   1.525   4.740  0.3915 -0.1099  1.1292
35039SOL    HW1 7124   1.526   1.561   4.828 -1.0306  3.5490  0.0488
35039SOL    HW2 7125   1.475   1.438   4.755  0.0677  0.4317  4.1294
35040SOL     OW 7126   7.939   6.223   4.948 -0.0482  0.4047  0.3054
35040SOL    HW1 7127   7.880   6.167   4.898 -0.8115  1.7222 -0.3244
35040SOL    HW2 7128   7.904   6.222   5.037  1.1806 -1.7655  0.8480
35041SOL     OW 7129   6.271   7.451   9.061  0.3120 -0.0791  0.0495
35041SOL    HW1 7130   6.218   7.466   9.139  1.4709 -1.5306  1.1767
35041SOL    HW2 7131   6.310   7.365   9.075  0.9101 -0.1817 -1.9486
35042SOL     OW 7132   0.155   7.935   0.119 -0.3467 -0.1330  0.1491
35042SOL    HW1 7133   0.089   7.952   0.052 -0.7845  1.3769  0.9076
35042SOL    HW2 7134   0.224   7.998   0.101 -0.6276  0.5364  1.2840
35043SOL     OW 7135   7.479  10.445   4.926  0.1927  0.0566 -0.0459
35043SOL    HW1 7136   7.526  10.495   4.992 -0.3877  1.7667 -0.8671
35043SOL    HW2 7137   7.387  10.448   4.953  0.1955 -0.9537  0.1186
35044SOL     OW 7138   4.990   9.284   3.175  0.8190 -0.4482 -0.6403
35044SOL    HW1 7139   4.951   9.369   3.155  1.9374  0.1992 -0.1644
35044SOL    HW2 7140   4.967   9.269   3.267 -0.8870 -1.5276 -1.1918
35045SOL     OW 7141   0.021   4.038   3.813 -0.2841  0.1018  0.0656
35045SOL    HW1 7142  -0.036   4.110   3.785  2.2563  1.4730 -1.9799
35045SOL    HW2 7143   0.098   4.081   3.850  1.0959 -1.5483 -0.7609
35046SOL     OW 7144   6.995   6.194  10.283 -0.0858 -0.2297  0.5252
35046SOL    HW1 7145   7.048   6.128  10.328 -0.3993 -1.2137 -0.4975
35046SOL    HW2 7146   6.957   6.148  10.208 -0.5632  1.0431 -0.0541
35047SOL     OW 7147   6.942   3.058   5.782  0.4181  0.0821 -0.1092
35047SOL    HW1 7148   7.017   3.104   5.819  1.3463 -0.6432 -0.9826
35047SOL    HW2 7149   6.951   2.968   5.815  0.3098 -0.1609 -0.7195
35048SOL     OW 7150   7.044  10.974   9.456  0.1879  0.2413 -0.2924
35048SOL    HW1 7151   7.041  11.066   9.430  0.1295  0.6178  0.9461
35048SOL    HW2 7152   6.952  10.949   9.465  0.1766  0.6910  1.3159
35049SOL     OW 7153   5.784   0.122   3.061 -0.2540  0.6135  0.1841
35049SOL    HW1 7154   5.879   0.123   3.051 -0.4690  0.7922 -3.0184
35049SOL    HW2 7155   5.755   0.207   3.028 -1.5346  0.9013  1.8805
35050SOL     OW 7156   3.771   3.459   8.092 -0.1689  0.1935  0.7008
35050SOL    HW1 7157   3.690   3.459   8.041  0.9955 -1.0671 -1.2463
35050SOL    HW2 7158   3.831   3.403   8.043  1.9708  1.2192  2.0070
35051SOL     OW 7159   6.953   3.882   3.727 -0.2156  0.0368  0.0584
35051SOL    HW1 7160   6.873   3.899   3.777  0.0356  3.2431 -0.4533
35051SOL    HW2 7161   6.946   3.937   3.649  1.6631 -1.0624 -0.9802
35052SOL     OW 7162   4.387   1.585  11.100 -0.6579 -0.3626  0.2963
35052SOL    HW1 7163   4.383   1.579  11.196 -2.2972 -2.4266  0.1746
35052SOL    HW2 7164   4.300   1.617  11.075 -0.6661 -0.9931 -0.5220
35053SOL     OW 7165   3.586   9.368   6.954 -0.6226  0.1706 -0.0666
35053SOL    HW1 7166   3.574   9.388   6.861 -1.4589 -1.1842 -0.2667
35053SOL    HW2 7167   3.497   9.367   6.990 -0.3569 -0.0670  0.5938
35054SOL     OW 7168   5.937   9.325   0.277  0.6394 -0.4057 -0.0766
35054SOL    HW1 7169   5.996   9.375   0.221 -0.8219  2.0200  0.4036
35054SOL    HW2 7170   5.967   9.342   0.366 -0.1768  0.0751  0.1178
35055SOL     OW 7171   1.171   7.318   8.715 -0.1123 -0.8515  0.2188
35055SOL    HW1 7172   1.190   7.353   8.802 -0.8012 -0.7723  0.3400
35055SOL    HW2 7173   1.139   7.393   8.665  1.2252 -0.6773 -0.4078
35056SOL     OW 7174   8.618   8.459   3.468 -0.1132 -0.3782  0.0955
35056SOL    HW1 7175   8.693   8.451   3.527 -0.5994  0.1785  0.8127
35056SOL    HW2 7176   8.546   8.417   3.516 -0.9139  1.5554  0.6699
35057SOL     OW 7177   2.804   9.094   7.547  0.5982  0.5093 -0.6446
35057SOL    HW1 7178   2.811   9.187   7.524 -1.8822  1.2850  1.2906
35057SOL    HW2 7179   2.758   9.055   7.473 -1.2950  1.5762 -0.1050
35058SOL     OW 7180  10.610   9.249  10.152  1.4183  0.1396 -0.1019
35058SOL    HW1 7181  10.577   9.218  10.069 -1.0180  2.4699 -0.1256
35058SOL    HW2 7182  10.675   9.316  10.129  2.0286 -0.4243 -0.0691
35059SOL     OW 7183   2.345  11.211  10.256 -0.3323 -0.1619  0.2999
35059SOL    HW1 7184   2.403  11.286  10.262  0.6239 -0.9063  0.6207
35059SOL    HW2 7185   2.290  11.229  10.179 -0.7592  1.2713  0.9103
35060SOL     OW 7186   5.633  10.867   9.312  0.1647 -0.8253 -0.6317
35060SOL    HW1 7187   5.585  10.838   9.235 -2.0904  0.1281  0.3407
35060SOL    HW2 7188   5.624  10.962   9.312 -0.6309 -0.8649  1.2406
35061SOL     OW 7189  11.255  10.080   8.583 -0.8443 -0.3085  0.3325
35061SOL    HW1 7190  11.344  10.053   8.609 -0.6678 -0.4332 -0.3993
35061SOL    HW2 7191  11.209  10.092   8.667 -0.1009 -0.0993  0.7191
35062SOL     OW 7192   5.287  10.809  10.330  0.7826 -0.5961 -0.0749
35062SOL    HW1 7193   5.333  10.819  10.246 -0.6444 -0.4889 -0.8746
35062SOL    HW2 7194   5.218  10.875  10.327  0.2271 -1.1125  0.8663
35063SOL     OW 7195   8.927   2.204   7.891 -0.2066 -0.1452  0.0457
35063SOL    HW1 7196   8.960   2.116   7.874 -2.2760 -1.2326  1.2308
35063SOL    HW2 7197   9.003   2.253   7.921  0.6945 -2.0180  0.9831
35064SOL     OW 7198   9.026   7.927   0.751  0.0387  0.1414  0.4218
35064SOL    HW1 7199   9.030   7.960   0.661  1.6216 -1.0184  0.0264
35064SOL    HW2 7200   8.983   7.841   0.743  2.1202 -0.9675  0.3938
35065SOL     OW 7201   8.663   2.008   8.267  0.2799 -0.3187  0.4574
35065SOL    HW1 7202   8.680   2.021   8.360 -1.6812  1.5950  0.6328
35065SOL    HW2 7203   8.734   2.055   8.223  0.7409 -0.5144  0.9837
35066SOL     OW 7204  10.016   5.515   4.998  0.0851  0.1473  0.7609
35066SOL    HW1 7205  10.067   5.554   4.927  1.1024  0.5335  1.6755
35066SOL    HW2 7206  10.081   5.473   5.054 -0.8256 -1.3313  0.7596
35067SOL     OW 7207   1.270   4.804   6.671 -0.1882  0.8448  0.2433
35067SOL    HW1 7208   1.232   4.822   6.586  3.6929  0.8057 -1.7391
35067SOL    HW2 7209   1.275   4.890   6.714  2.9085  2.0621 -2.1227
35068SOL     OW 7210  11.180  10.276  10.652 -1.1345 -0.3956 -1.2766
35068SOL    HW1 7211  11.270  10.254  10.625 -0.3614 -3.0073  2.6058
35068SOL    HW2 7212  11.132  10.193  10.645 -2.2811  0.1380 -0.0627
35069SOL     OW 7213   3.783  10.173   9.827  0.8247 -0.4162 -0.4167
35069SOL    HW1 7214   3.817  10.086   9.849 -2.0591 -1.1180  2.0140
35069SOL    HW2 7215   3.747  10.163   9.739  0.4500 -1.7756 -0.1317
35070SOL     OW 7216   8.170   6.856   6.095  0.2562  0.4061  0.4716
35070SOL    HW1 7217   8.094   6.812   6.134 -0.3562  1.7344  0.8450
35070SOL    HW2 7218   8.183   6.811   6.012 -0.6210 -0.1973  0.6439
35071SOL     OW 7219   6.551   5.091   6.670 -0.5843  0.8204 -0.0672
35071SOL    HW1 7220   6.641   5.113   6.693 -0.2384  0.7300 -1.2625
35071SOL    HW2 7221   6.525   5.026   6.734  1.4656 -1.8919 -1.7772
35072SOL     OW 7222   9.493   2.873   5.828  0.2553 -0.0159 -0.0229
35072SOL    HW1 7223   9.433   2.800   5.838 -0.9012  0.7947 -0.7347
35072SOL    HW2 7224   9.450   2.946   5.873  1.8579  0.0025  1.5642
35073SOL     OW 7225   3.387   1.369   3.863 -0.2012  0.3042  0.1673
35073SOL    HW1 7226   3.471   1.349   3.821 -0.6676 -3.0503  0.6225
35073SOL    HW2 7227   3.346   1.433   3.804  2.5414  1.9632 -0.1291
35074SOL     OW 7228   9.858   7.153  11.262  0.1577 -0.0814  0.5823
35074SOL    HW1 7229   9.773   7.110  11.253  0.0581 -0.5269  2.8810
35074SOL    HW2 7230   9.903   7.101  11.329  1.7653  0.8513  0.2500
35075SOL     OW 7231  10.896   2.980  10.784  0.0941 -0.2038 -0.3322
35075SOL    HW1 7232  10.801   2.978  10.769  0.0893 -0.3349 -0.2807
35075SOL    HW2 7233  10.910   3.055  10.842  0.1386  0.4789 -1.2012
35076SOL     OW 7234   1.748   8.700   0.441 -0.2137  0.9270 -0.7716
35076SOL    HW1 7235   1.705   8.633   0.495  1.8822  0.1555  0.0495
35076SOL    HW2 7236   1.774   8.768   0.504 -1.0342  1.8670 -1.3993
35077SOL     OW 7237   5.847   2.662   3.602  0.0456 -0.3767  0.2929
35077SOL    HW1 7238   5.843   2.733   3.538 -1.2071  1.0178  1.8160
35077SOL    HW2 7239   5.902   2.696   3.672 -1.5353 -0.3711  1.5914
35078SOL     OW 7240   3.570   2.652   9.210 -0.0488  0.5070 -0.5795
35078SOL    HW1 7241   3.564   2.746   9.228 -2.6683  0.3073  0.0856
35078SOL    HW2 7242   3.575   2.646   9.115  0.7812  1.3111 -0.6006
35079SOL     OW 7243   8.415   4.163  11.075 -0.0125  0.4173 -0.3538
35079SOL    HW1 7244   8.448   4.178  10.986 -0.2913 -1.4416 -0.8176
35079SOL    HW2 7245   8.422   4.248  11.118  1.5602  1.0160 -1.6779
35080SOL     OW 7246   1.858   1.834   2.286 -0.5213  0.2516  0.3974
35080SOL    HW1 7247   1.785   1.801   2.234 -0.9825 -0.7497  1.6052
35080SOL    HW2 7248   1.841   1.928   2.295 -1.1039  0.2064 -0.1813
35081SOL     OW 7249   1.266   2.826   0.646  0.1932  0.8426  0.3404
35081SOL    HW1 7250   1.238   2.762   0.711 -2.1120  1.4004 -0.0208
35081SOL    HW2 7251   1.362   2.830   0.656  0.2864 -1.7661  1.1344
35082SOL     OW 7252   5.069   0.775   2.842 -0.2195 -0.1124  0.8279
35082SOL    HW1 7253   5.047   0.681   2.840  1.2639 -0.5101 -1.1379
35082SOL    HW2 7254   4.993   0.817   2.879 -0.6889 -2.1639  2.3798
35083SOL     OW 7255   0.579   2.014   0.035 -0.2020  0.4179 -0.1350
35083SOL    HW1 7256   0.616   1.968   0.111 -0.7338  0.2422  0.0173
35083SOL    HW2 7257   0.571   1.947  -0.032  0.5793  0.6407 -0.4683
35084SOL     OW 7258   2.028   1.321   3.071 -0.4378 -0.0809 -0.5933
35084SOL    HW1 7259   2.099   1.309   3.009  0.8798  0.7107  0.7112
35084SOL    HW2 7260   2.061   1.285   3.153  0.2910  4.1050  1.2044
35085SOL     OW 7261   9.209   4.052   2.469 -0.3963  0.8267 -0.1929
35085SOL    HW1 7262   9.153   3.978   2.492  0.8159  0.1670  0.8381
35085SOL    HW2 7263   9.290   4.035   2.518  1.3024  0.8886 -2.8111
35086SOL     OW 7264   5.388   0.092   6.338  0.3351  0.0784 -0.5107
35086SOL    HW1 7265   5.293   0.089   6.331  0.0841  1.3448  1.4616
35086SOL    HW2 7266   5.417   0.139   6.260 -0.5376 -1.0252 -1.5450
35087SOL     OW 7267   7.642   9.078   6.461 -0.4377  0.3502  0.0812
35087SOL    HW1 7268   7.668   8.986   6.452 -1.4214 -0.0551  1.2357
35087SOL    HW2 7269   7.701   9.113   6.527  0.2411  0.7012 -0.6818
35088SOL     OW 7270   4.814   8.305  10.016 -0.1468 -0.2572 -0.0441
35088SOL    HW1 7271   4.782   8.295   9.927 -0.6739 -0.7555  0.1925
35088SOL    HW2 7272   4.743   8.271  10.071  0.3502 -0.3644  0.5441
35089SOL     OW 7273   2.011  10.763   7.555  0.3894 -0.1132  0.3652
35089SOL    HW1 7274   2.050  10.713   7.627  1.1719  0.1368  0.1219
35089SOL    HW2 7275   2.041  10.718   7.476 -2.2296 -1.7180  0.1798
35090SOL     OW 7276   5.065   1.709   1.400  0.5003  0.2483  0.4813
35090SOL    HW1 7277   5.080   1.638   1.463  0.0242 -0.3289 -0.0427
35090SOL    HW2 7278   4.998   1.674   1.341 -1.6722  2.0321  1.6973
35091SOL     OW 7279   4.045   1.103   4.464 -0.0567 -0.1305 -0.3049
35091SOL    HW1 7280   4.120   1.048   4.439  1.1387  1.2673  0.0271
35091SOL    HW2 7281   3.970   1.044   4.465  1.0954 -1.6418 -0.4085
35092SOL     OW 7282  10.063   7.230   9.127  0.1600  0.1108 -0.1144
35092SOL    HW1 7283   9.992   7.280   9.088  0.1076 -0.1058 -0.3000
35092SOL    HW2 7284  10.055   7.143   9.089  0.6494  0.1382 -0.2894
35093SOL     OW 7285   4.152  10.768   5.302 -0.2043 -1.1015 -0.1332
35093SOL    HW1 7286   4.062  10.737   5.298 -0.3863 -0.7651  1.1719
35093SOL    HW2 7287   4.160  10.827   5.227 -0.6606 -2.1509 -1.0347
35094SOL     OW 7288   3.400   8.504   0.612 -0.7562  0.9155 -0.3881
35094SOL    HW1 7289   3.484   8.533   0.647  0.0565 -2.8921  1.4153
35094SOL    HW2 7290   3.335   8.551   0.665  0.2964  1.7530  0.2165
35095SOL     OW 7291   7.321   6.891   3.314  0.2939  0.0413  0.4000
35095SOL    HW1 7292   7.279   6.901   3.228  0.0145 -1.0661  0.3911
35095SOL    HW2 7293   7.287   6.808   3.347  1.4326 -0.1918  1.0045
35096SOL     OW 7294   8.908   4.899   2.595  0.3830  0.2422 -0.1592
35096SOL    HW1 7295   8.853   4.893   2.673  0.7579  1.3130  0.2002
35096SOL    HW2 7296   8.864   4.962   2.539 -0.3185 -1.1218 -1.2053
35097SOL     OW 7297   6.766   1.617   7.858 -0.3419 -0.2300 -0.0309
35097SOL    HW1 7298   6.796   1.628   7.767 -0.6735 -3.1351 -0.5873
35097SOL    HW2 7299   6.847   1.613   7.909 -0.1297  4.2816  0.3996
35098SOL     OW 7300   0.895  10.308   7.619  0.1239  0.0056 -0.6527
35098SOL    HW1 7301   0.984  10.306   7.654 -0.5501 -1.6573  1.1492
35098SOL    HW2 7302   0.872  10.401   7.616  1.7121  0.4181 -0.6328
35099SOL     OW 7303   9.629   9.762   0.526 -0.1868  0.2068 -0.4340
35099SOL    HW1 7304   9.643   9.684   0.472 -1.2296 -0.3174  0.0332
35099SOL    HW2 7305   9.561   9.811   0.480  1.4654  1.6309 -1.5136
35100SOL     OW 7306   7.049   4.459   6.253  0.4678 -0.2967  0.6584
35100SOL    HW1 7307   7.006   4.523   6.309  0.6443  0.9357 -0.5662
35100SOL    HW2 7308   6.982   4.392   6.238 -0.2255  0.3620  0.7308
35101SOL     OW 7309   5.848   0.226   1.299  0.0213 -0.2917 -0.3638
35101SOL    HW1 7310   5.830   0.133   1.287 -1.8657 -0.0468  0.2710
35101SOL    HW2 7311   5.769   0.270   1.269  0.5260  1.0616  0.2074
35102SOL     OW 7312   0.100   3.878   5.210 -0.0579 -0.3275  0.2707
35102SOL    HW1 7313   0.033   3.828   5.256  1.1646 -1.4603  0.8609
35102SOL    HW2 7314   0.093   3.849   5.119 -0.7771  0.0352  0.2031
35103SOL     OW 7315   5.993   0.236   9.139  0.0681 -0.1142 -0.7210
35103SOL    HW1 7316   5.984   0.230   9.234  0.9429 -1.9515 -0.7077
35103SOL    HW2 7317   5.907   0.209   9.105  0.0498 -0.4057 -0.4527
35104SOL     OW 7318   4.489   7.004  11.084  0.1853  0.3642 -0.6643
35104SOL    HW1 7319   4.518   7.059  11.011  0.4748 -0.2585 -1.0263
35104SOL    HW2 7320   4.409   6.964  11.053 -0.9957  1.8963  0.2483
35105SOL     OW 7321   5.685   4.918   8.261  0.5378  0.0848  0.4788
35105SOL    HW1 7322   5.604   4.967   8.274  0.2115 -0.2498 -0.1904
35105SOL    HW2 7323   5.737   4.973   8.202  0.2687 -0.2443 -0.0847
35106SOL     OW 7324   7.216   2.003  10.067  0.0510 -0.4957 -0.1773
35106SOL    HW1 7325   7.261   2.037   9.990 -2.3637 -0.5516 -1.7294
35106SOL    HW2 7326   7.286   1.983  10.129  2.1184 -0.5000 -2.3603
35107SOL     OW 7327   3.857   3.375   0.015 -0.0313  0.2782 -0.5741
35107SOL    HW1 7328   3.783   3.337   0.063  0.2001 -1.1988 -1.3143
35107SOL    HW2 7329   3.816   3.433  -0.049 -0.5851 -0.5689 -1.0166
35108SOL     OW 7330   8.853  10.865   2.527  0.2844  0.3791  0.3401
35108SOL    HW1 7331   8.911  10.845   2.600 -0.4848 -1.1240  0.5633
35108SOL    HW2 7332   8.811  10.782   2.505 -1.1317  1.2450 -0.3902
35109SOL     OW 7333   5.155   9.375  10.175  0.1318  0.1798 -0.2717
35109SOL    HW1 7334   5.215   9.312  10.135 -0.1343 -1.8218  2.2117
35109SOL    HW2 7335   5.201   9.405  10.253 -1.0000  0.7363  0.1940
35110SOL     OW 7336  10.935   9.685   5.814  0.0362  0.2365 -0.2663
35110SOL    HW1 7337  11.014   9.734   5.839  0.6845 -0.8242 -0.1921
35110SOL    HW2 7338  10.890   9.743   5.753  0.5949  1.0874  0.1087
35111SOL     OW 7339   0.813   7.854   4.988  0.4769 -0.1080  0.0058
35111SOL    HW1 7340   0.743   7.899   4.941  0.2353 -1.6857 -1.2540
35111SOL    HW2 7341   0.825   7.905   5.069 -0.2503  1.7234 -0.9862
35112SOL     OW 7342   6.856   6.495  10.945 -0.1143 -0.4820  0.1311
35112SOL    HW1 7343   6.910   6.435  10.997  0.2530 -0.0357  0.2721
35112SOL    HW2 7344   6.780   6.443  10.919 -1.2864 -0.1805  2.7284
35113SOL     OW 7345   9.356   1.035   4.888 -0.4335  0.6918 -0.3732
35113SOL    HW1 7346   9.318   1.010   4.804 -0.1340 -0.8310 -0.0719
35113SOL    HW2 7347   9.424   1.099   4.866  1.0297 -1.1586 -1.5097
35114SOL     OW 7348   6.785   5.815   5.870 -0.0639  0.2792  0.4699
35114SOL    HW1 7349   6.821   5.890   5.823 -1.0900 -0.5070 -1.6949
35114SOL    HW2 7350   6.693   5.837   5.882 -0.7761 -1.2458 -1.6673
35115SOL     OW 7351   5.707   2.796   0.219  0.2672  0.1584  1.0227
35115SOL    HW1 7352   5.659   2.806   0.302 -1.7764  2.8971 -0.3376
35115SOL    HW2 7353   5.783   2.854   0.228 -1.0980  2.1601  0.3035
35116SOL     OW 7354   0.011  11.268  10.264 -0.9019 -0.6082 -0.3583
35116SOL    HW1 7355  -0.058  11.332  10.284  0.1433  0.7802 -0.9671
35116SOL    HW2 7356  -0.003  11.197  10.326 -1.0068  1.0597  1.6298
35117SOL     OW 7357   3.808   1.122   3.390 -0.6296 -0.0729 -0.4988
35117SOL    HW1 7358   3.838   1.184   3.457 -0.7628 -0.6950  0.1392
35117SOL    HW2 7359   3.824   1.036   3.428  1.6631 -0.5122 -2.2730
35118SOL     OW 7360   3.538   1.393   7.896  0.1969 -0.2271 -0.2289
35118SOL    HW1 7361   3.502   1.415   7.982 -0.1540  0.7147 -0.6044
35118SOL    HW2 7362   3.515   1.468   7.840 -0.8873 -1.4791 -1.5312
35119SOL     OW 7363   7.579   1.396   7.195 -0.6161  0.5237 -0.5554
35119SOL    HW1 7364   7.498   1.441   7.220 -0.2318  0.0781  1.6664
35119SOL    HW2 7365   7.641   1.418   7.264  0.5125 -0.8985 -1.0653
35120SOL     OW 7366   8.715   5.689   2.957  0.1599  0.3530  0.3266
35120SOL    HW1 7367   8.688   5.781   2.962 -0.0808  0.4298 -1.7104
35120SOL    HW2 7368   8.800   5.687   3.002 -0.6219  1.1836  1.9379
35121SOL     OW 7369   7.643  11.121   8.094 -0.0227  0.2991 -0.1850
35121SOL    HW1 7370   7.723  11.097   8.046  0.6873 -0.2473  1.2114
35121SOL    HW2 7371   7.629  11.047   8.153 -1.7157  0.2851 -0.5693
35122SOL     OW 7372  10.451   2.807   9.706 -0.3460 -0.1371 -0.3065
35122SOL    HW1 7373  10.458   2.887   9.758 -1.7922 -1.7191  2.5590
35122SOL    HW2 7374  10.431   2.838   9.618 -0.6332  2.6585  0.6457
35123SOL     OW 7375   9.006   6.211   4.773  0.0051  0.1528 -0.3026
35123SOL    HW1 7376   9.009   6.195   4.867  2.0449  1.0439 -0.1498
35123SOL    HW2 7377   8.942   6.149   4.740 -1.5782  0.5506  1.8041
35124SOL     OW 7378   1.920   3.339   2.374  0.8427 -0.3694 -0.9765
35124SOL    HW1 7379   1.903   3.264   2.317 -0.2083 -1.3836  0.5976
35124SOL    HW2 7380   2.015   3.337   2.387  0.9775 -0.6768 -1.9060
35125SOL     OW 7381   9.638   5.733   4.824  0.2464 -0.0421  0.1948
35125SOL    HW1 7382   9.659   5.662   4.764  1.4094 -0.8882  1.5383
35125SOL    HW2 7383   9.573   5.695   4.884  0.8167  0.0462  0.8754
35126SOL     OW 7384   0.386   4.710   4.259  0.3599  0.2215  0.3606
35126SOL    HW1 7385   0.425   4.693   4.345  0.8823 -1.9192 -0.2276
35126SOL    HW2 7386   0.459   4.741   4.206  0.9668 -1.9826 -0.2291
35127SOL     OW 7387   3.772   1.326   4.151  0.4378 -0.0929  0.6668
35127SOL    HW1 7388   3.861   1.293   4.159  1.2911  2.2605  1.5283
35127SOL    HW2 7389   3.735   1.278   4.077  2.3731 -1.1606  0.3362
35128SOL     OW 7390   7.488   3.080   0.529 -0.3624  0.3297  0.0295
35128SOL    HW1 7391   7.569   3.108   0.487 -1.0793 -1.8242 -3.2627
35128SOL    HW2 7392   7.431   3.157   0.526  1.2273  1.6391  1.6896
35129SOL     OW 7393   3.330   5.399  10.965 -0.2786  0.2396 -0.3874
35129SOL    HW1 7394   3.340   5.309  10.996 -1.5356 -0.6138 -2.3319
35129SOL    HW2 7395   3.236   5.412  10.957 -0.0936  1.5431 -0.7351
35130SOL     OW 7396   8.275   0.622   6.437  0.0993 -0.9612  0.4587
35130SOL    HW1 7397   8.199   0.605   6.382  0.5312 -2.5980  0.3034
35130SOL    HW2 7398   8.316   0.699   6.399 -0.4285 -1.1871 -0.6002
35131SOL     OW 7399   4.595   7.590   9.388  0.2670 -0.2523  0.8286
35131SOL    HW1 7400   4.678   7.578   9.435  2.1715  0.5501 -2.0395
35131SOL    HW2 7401   4.607   7.672   9.340 -0.9137 -1.6881 -2.1074
35132SOL     OW 7402   2.615   8.718   3.465 -0.1614 -0.0097 -0.3131
35132SOL    HW1 7403   2.688   8.742   3.408  0.9301 -0.2021  0.9553
35132SOL    HW2 7404   2.547   8.687   3.405  1.0710 -0.5412 -1.4913
35133SOL     OW 7405  10.209   7.245   5.299 -0.0552  0.0027  0.2467
35133SOL    HW1 7406  10.267   7.174   5.270  2.0749  1.7183  0.0714
35133SOL    HW2 7407  10.144   7.253   5.229  0.3439 -1.0356 -0.2633
35134SOL     OW 7408   9.082   6.462   4.796 -0.6129  0.0830  0.2365
35134SOL    HW1 7409   8.998   6.502   4.817 -0.2870  0.4896  0.7855
35134SOL    HW2 7410   9.068   6.368   4.810 -0.4500  0.3077  2.2651
35135SOL     OW 7411   3.157   1.509   8.333  0.5564 -0.0077  0.0738
35135SOL    HW1 7412   3.085   1.567   8.355  0.5365  0.1297 -0.3411
35135SOL    HW2 7413   3.150   1.436   8.395  0.6899  0.5165  0.7068
35136SOL     OW 7414   8.928   3.350   2.880  0.2937 -0.1604  0.4024
35136SOL    HW1 7415   8.898   3.387   2.797 -2.6653  1.8975  2.1685
35136SOL    HW2 7416   8.975   3.421   2.923  1.4452 -1.0696  0.6976
35137SOL     OW 7417   0.636  10.249   6.768 -0.5678  0.5783  0.2504
35137SOL    HW1 7418   0.540  10.253   6.763 -0.6717  0.7745  1.9780
35137SOL    HW2 7419   0.663  10.340   6.780 -0.2824  0.3779  1.2161
35138SOL     OW 7420   1.350   2.847   4.068  0.7295 -0.0910 -0.0777
35138SOL    HW1 7421   1.321   2.758   4.049  0.3141  0.3198 -1.4613
35138SOL    HW2 7422   1.317   2.864   4.156  1.5798 -1.6095  0.5682
35139SOL     OW 7423   3.978   1.502   9.895 -0.7940 -0.0646  0.0129
35139SOL    HW1 7424   3.885   1.516   9.874 -0.8720 -2.1310 -1.3634
35139SOL    HW2 7425   4.020   1.493   9.809  0.6037  0.3723  0.6335
35140SOL     OW 7426  10.999   1.690   9.088  0.6203  0.1803  0.4535
35140SOL    HW1 7427  11.061   1.702   9.016  1.8402  1.9243  1.7159
35140SOL    HW2 7428  11.047   1.642   9.155 -0.8617 -2.4474 -0.2396
35141SOL     OW 7429   8.581   5.877   1.862 -0.2226 -0.0602  0.2910
35141SOL    HW1 7430   8.642   5.889   1.789 -1.0244 -1.8797 -0.7635
35141SOL    HW2 7431   8.586   5.783   1.882  0.1299  0.4300  2.7648
35142SOL     OW 7432   1.319   8.515   7.602 -0.4387 -0.7821 -0.1415
35142SOL    HW1 7433   1.412   8.497   7.588 -0.5423 -0.3603 -1.5529
35142SOL    HW2 7434   1.275   8.431   7.584 -0.5199 -0.3812 -2.0954
35143SOL     OW 7435  10.290   2.298   7.662  0.2545  0.0684  0.0607
35143SOL    HW1 7436  10.378   2.314   7.695  0.6382 -2.5129  0.4468
35143SOL    HW2 7437  10.236   2.288   7.741 -0.2833  0.8884 -0.1778
35144SOL     OW 7438   1.942   7.577   6.592 -0.1759 -0.4281  0.3371
35144SOL    HW1 7439   1.977   7.587   6.504 -1.2028  0.5948  0.0086
35144SOL    HW2 7440   1.847   7.583   6.580 -0.4356 -2.1460  1.2917
35145SOL     OW 7441   5.879   8.991   3.222 -0.0733  0.0595  0.8594
35145SOL    HW1 7442   5.956   9.011   3.276  0.6658  0.7632 -0.3953
35145SOL    HW2 7443   5.891   9.045   3.143 -0.2581 -2.1376 -0.7471
35146SOL     OW 7444   3.871   1.083   9.015 -0.1059  0.0685 -0.4292
35146SOL    HW1 7445   3.901   1.106   9.103  0.1856 -0.5231 -0.3720
35146SOL    HW2 7446   3.908   0.996   8.999 -0.2704  0.1177 -1.0832
35147SOL     OW 7447  10.674   1.626   9.881 -0.2718  0.0336  0.1685
35147SOL    HW1 7448  10.662   1.552   9.941  1.6037 -1.2493 -0.9477
35147SOL    HW2 7449  10.626   1.602   9.802  0.7655 -0.2772 -0.3900
35148SOL     OW 7450   7.422  10.388   4.359  0.0218  0.0171 -0.2003
35148SOL    HW1 7451   7.468  10.351   4.284  0.1258  0.2162 -0.2339
35148SOL    HW2 7452   7.486  10.388   4.430 -0.7686 -2.5236  0.6246
35149SOL     OW 7453   4.776   9.484  10.824  0.2549 -0.6015  0.5764
35149SOL    HW1 7454   4.855   9.504  10.874 -1.0092  2.8102  1.4844
35149SOL    HW2 7455   4.766   9.558  10.764 -1.3304 -1.8246 -0.7531
35150SOL     OW 7456   5.141  10.132   9.178  0.3228  0.0520  0.3602
35150SOL    HW1 7457   5.235  10.124   9.163  0.4451  0.6863  0.7371
35150SOL    HW2 7458   5.128  10.224   9.200 -0.7407  0.5287 -2.0108
35151SOL     OW 7459   3.771   0.007   2.832  0.5019 -0.3626  0.0211
35151SOL    HW1 7460   3.689   0.038   2.792 -0.2454 -2.8831 -0.6111
35151SOL    HW2 7461   3.748  -0.077   2.872  2.8177 -1.2298 -0.3116
35152SOL     OW 7462   6.690   2.170   6.956  0.0418  0.5788  0.2545
35152SOL    HW1 7463   6.726   2.217   7.030 -1.8775  0.7542  1.1468
35152SOL    HW2 7464   6.765   2.150   6.900  1.8532 -1.1369  3.0830
35153SOL     OW 7465   7.370   9.399   9.972 -0.3965 -0.4739 -0.7593
35153SOL    HW1 7466   7.418   9.318   9.989  2.8974  1.3030 -0.9434
35153SOL    HW2 7467   7.355   9.436  10.059 -1.6295 -1.0618 -0.6957
35154SOL     OW 7468  10.625   9.824   3.787 -0.0211 -0.8571  0.0944
35154SOL    HW1 7469  10.627   9.900   3.845 -0.6300 -1.7401  1.3116
35154SOL    HW2 7470  10.533   9.810   3.767  0.1596 -0.6976 -0.9561
35155SOL     OW 7471   6.883   0.554   6.397 -0.8642  0.4993  0.2647
35155SOL    HW1 7472   6.884   0.649   6.399  1.3656  0.5195  2.3319
35155SOL    HW2 7473   6.858   0.532   6.307 -1.7597  2.9742 -0.1645
35156SOL     OW 7474   4.114   0.383   5.348  0.3895  0.3908  0.3695
35156SOL    HW1 7475   4.199   0.412   5.316  0.0018  0.1160 -0.9605
35156SOL    HW2 7476   4.054   0.453   5.323  0.0554  0.1191  0.4073
35157SOL     OW 7477   9.877   7.675   8.894 -0.4910  0.1747  0.1783
35157SOL    HW1 7478   9.888   7.730   8.816 -0.5547  0.4228  0.3444
35157SOL    HW2 7479   9.815   7.607   8.866 -0.1334 -0.0267 -0.1372
35158SOL     OW 7480   5.780   9.727  10.297  0.0828  0.6475  0.2233
35158SOL    HW1 7481   5.799   9.820  10.312 -1.7269  1.1366 -0.3022
35158SOL    HW2 7482   5.695   9.727  10.253 -1.0789 -1.3664  2.2714
35159SOL     OW 7483  11.159   2.629   5.159  0.6222  0.3896 -0.4665
35159SOL    HW1 7484  11.115   2.611   5.077 -1.1116 -3.3627  1.0737
35159SOL    HW2 7485  11.207   2.548   5.179  1.4887  1.3885  1.8959
35160SOL     OW 7486   3.589   2.085   3.216  0.2633  0.5779  0.2510
35160SOL    HW1 7487   3.554   2.005   3.176  1.1875  0.6420 -0.7438
35160SOL    HW2 7488   3.551   2.086   3.304 -2.2707  0.7029 -0.7511
35161SOL     OW 7489   4.540   2.829   5.796  0.1007 -0.2168  0.0436
35161SOL    HW1 7490   4.617   2.809   5.849  1.2465  0.3127 -1.3759
35161SOL    HW2 7491   4.515   2.745   5.757  1.3101 -0.0344 -1.2069
35162SOL     OW 7492   9.291   0.988   8.748 -0.3604  0.1685  0.0735
35162SOL    HW1 7493   9.293   1.053   8.677  1.2008  0.1430  0.0539
35162SOL    HW2 7494   9.382   0.981   8.776 -0.4661 -2.0246  0.0768
35163SOL     OW 7495   3.440   2.125   7.176 -0.3589 -0.2999  0.0069
35163SOL    HW1 7496   3.523   2.158   7.141 -0.4855 -1.0684 -1.0915
35163SOL    HW2 7497   3.383   2.202   7.178 -0.8551 -0.4451 -3.1229
35164SOL     OW 7498   9.796   2.145   3.064 -0.6188 -0.3445 -0.1977
35164SOL    HW1 7499   9.768   2.235   3.050 -4.1494 -1.0636  1.2752
35164SOL    HW2 7500   9.770   2.099   2.984 -0.5896 -0.4345 -0.1552
35165SOL     OW 7501   1.571   3.250   0.461  0.1651 -0.3684  0.0018
35165SOL    HW1 7502   1.551   3.169   0.508 -1.9013 -0.6719 -1.2379
35165SOL    HW2 7503   1.573   3.318   0.528 -0.0197 -1.1653  0.8309
35166SOL     OW 7504   6.055   3.260  11.071  0.1906 -0.3498  0.0431
35166SOL    HW1 7505   5.983   3.228  11.017 -0.2429 -0.8521  0.8855
35166SOL    HW2 7506   6.045   3.213  11.154  0.0224  1.3582  1.0407
35167SOL     OW 7507   4.069   4.345  10.556  0.1301  0.3292 -0.5130
35167SOL    HW1 7508   4.112   4.311  10.634  0.4257  2.8730  0.5102
35167SOL    HW2 7509   3.986   4.382  10.587 -0.2844  0.3686 -1.5936
35168SOL     OW 7510   7.823  10.054   0.679  0.1365 -0.1343 -0.3455
35168SOL    HW1 7511   7.861  10.035   0.765  1.7910  0.7865 -0.8445
35168SOL    HW2 7512   7.871  10.130   0.647 -1.2953  0.2983 -1.5718
35169SOL     OW 7513   3.193   5.307   7.981 -0.1749 -0.7161  0.0540
35169SOL    HW1 7514   3.202   5.333   7.889 -2.1403 -2.0418 -0.5891
35169SOL    HW2 7515   3.240   5.375   8.030  2.2934 -0.8010 -1.9683
35170SOL     OW 7516  10.074   6.014   3.202 -0.1830 -0.2026 -0.1735
35170SOL    HW1 7517  10.100   5.932   3.244  2.7519 -0.0813 -1.5289
35170SOL    HW2 7518   9.984   5.999   3.175 -0.7184 -1.8529  2.1953
35171SOL     OW 7519   7.403   8.323   3.292 -0.2630  0.4147  0.1417
35171SOL    HW1 7520   7.365   8.278   3.217  0.3941 -1.5175  0.9008
35171SOL    HW2 7521   7.360   8.283   3.368  0.9496  0.4544  0.8761
35172SOL     OW 7522  10.506   0.706   1.368 -0.4827  0.1053 -0.4665
35172SOL    HW1 7523  10.560   0.781   1.394  0.4048 -0.5464 -0.4023
35172SOL    HW2 7524  10.479   0.666   1.451  2.8003 -2.2982 -0.3780
35173SOL     OW 7525   0.559   6.061   1.121 -0.0273  0.0161 -0.1837
35173SOL    HW1 7526   0.590   5.978   1.159 -1.0808 -0.0686  0.5117
35173SOL    HW2 7527   0.626   6.083   1.056  0.9621 -0.6887  0.5587
35174SOL     OW 7528   9.943   3.158   1.262 -0.4337 -0.6888 -0.3176
35174SOL    HW1 7529   9.981   3.243   1.239  0.1309  0.0433  2.8573
35174SOL    HW2 7530   9.997   3.126   1.335 -1.3397 -3.2753 -0.6480
35175SOL     OW 7531   5.780   4.617  10.802 -0.0188 -0.0182  0.5415
35175SOL    HW1 7532   5.778   4.631  10.707  1.2931  0.6528  0.5772
35175SOL    HW2 7533   5.805   4.702  10.837  3.2818 -1.1170  1.1861
35176SOL     OW 7534   1.905   6.316   2.776  0.8043 -0.9176  0.5248
35176SOL    HW1 7535   1.821   6.329   2.819  0.5133  0.2790 -0.3738
35176SOL    HW2 7536   1.887   6.255   2.705  0.4938  0.0332 -0.2264
35177SOL     OW 7537  11.005   7.991   4.001 -0.2095  0.4322  1.1509
35177SOL    HW1 7538  10.920   8.010   3.961 -0.8512 -1.9968  1.2212
35177SOL    HW2 7539  11.046   7.927   3.943  1.7984  1.8310  0.9190
35178SOL     OW 7540   2.432   6.470   3.217  0.5043 -0.7815 -0.2078
35178SOL    HW1 7541   2.439   6.540   3.281  0.5741 -0.2452 -0.7873
35178SOL    HW2 7542   2.446   6.390   3.267 -0.5582 -0.4678  0.6508
35179SOL     OW 7543  10.793   9.309  10.650  0.0566 -0.3744  0.1198
35179SOL    HW1 7544  10.823   9.399  10.644  1.9958 -0.7691  2.4549
35179SOL    HW2 7545  10.713   9.313  10.702 -0.5323  0.0521 -0.7778
35180SOL     OW 7546  11.033   0.670   9.396 -0.3465  0.0029  0.3500
35180SOL    HW1 7547  11.034   0.676   9.300  1.3837 -0.4209  0.3072
35180SOL    HW2 7548  10.992   0.586   9.415  1.2089 -0.9001 -0.1292
35181SOL     OW 7549   8.993   3.253   8.577 -0.9288 -0.1835  0.8720
35181SOL    HW1 7550   9.025   3.208   8.499 -1.9421  0.4695  0.0644
35181SOL    HW2 7551   9.044   3.214   8.649 -0.8486 -1.6616  0.0550
35182SOL     OW 7552   3.806   2.881   2.125 -0.5673 -0.5631  0.3567
35182SOL    HW1 7553   3.819   2.799   2.078  0.1363 -0.5604  0.5468
35182SOL    HW2 7554   3.874   2.939   2.093  0.4381 -0.8139  1.9353
35183SOL     OW 7555   3.875   9.408   0.525  0.9544 -0.6669 -0.5134
35183SOL    HW1 7556   3.898   9.444   0.610 -2.0536  0.6195 -0.1019
35183SOL    HW2 7557   3.925   9.461   0.462 -1.8179  3.1892  0.2012
35184SOL     OW 7558   3.274   9.704   4.005 -0.5356  0.2686  0.7757
35184SOL    HW1 7559   3.303   9.613   4.010  1.8471  0.6798 -2.2702
35184SOL    HW2 7560   3.183   9.698   3.976 -0.8424 -1.1262  1.9392
35185SOL     OW 7561   8.738   3.530   5.207 -0.1813 -0.0833  0.1881
35185SOL    HW1 7562   8.777   3.498   5.126 -1.7187 -1.2823 -0.1258
35185SOL    HW2 7563   8.788   3.608   5.228  2.5628 -1.6620 -0.0070
35186SOL     OW 7564   1.586  10.629   2.694 -0.1389  0.2272  0.0648
35186SOL    HW1 7565   1.559  10.720   2.702 -0.0055  0.2110  0.7314
35186SOL    HW2 7566   1.524  10.591   2.632  0.0585  0.8681 -0.5407
35187SOL     OW 7567   2.174  10.324   9.088  0.6636 -0.0124  0.2840
35187SOL    HW1 7568   2.195  10.234   9.111  0.3194  0.8810  5.2343
35187SOL    HW2 7569   2.083  10.322   9.061  0.9373 -1.2083 -0.6203
35188SOL     OW 7570  10.959   1.641   8.245 -0.1103  0.0330 -0.0240
35188SOL    HW1 7571  10.968   1.552   8.280  1.6497  0.3083  0.3275
35188SOL    HW2 7572  10.880   1.676   8.287 -1.0745 -1.4958 -0.4992
35189SOL     OW 7573   7.572  10.131   1.488 -0.8960 -0.1577  0.6704
35189SOL    HW1 7574   7.479  10.133   1.512 -0.4952  1.5855  2.2611
35189SOL    HW2 7575   7.587  10.214   1.444 -0.1840 -0.6529 -0.0383
35190SOL     OW 7576   7.892  10.670   2.771 -0.8143 -0.0656  0.4841
35190SOL    HW1 7577   7.914  10.763   2.770 -1.9019  0.2169 -0.3535
35190SOL    HW2 7578   7.834  10.659   2.695 -0.6007 -1.4533  0.4935
35191SOL     OW 7579   8.802   0.911  11.031 -0.0115 -0.7553 -0.2135
35191SOL    HW1 7580   8.760   0.825  11.038  0.3121 -0.8559  0.6836
35191SOL    HW2 7581   8.760   0.963  11.100  2.2211 -1.2592  1.6581
35192SOL     OW 7582   0.023   9.126   7.929  0.7180 -0.8420  0.1902
35192SOL    HW1 7583  -0.018   9.137   7.843 -0.7807  0.4898  1.0220
35192SOL    HW2 7584  -0.044   9.156   7.991  2.6186  0.5336  1.6762
35193SOL     OW 7585   5.558  10.939   5.753  0.0999  0.0633  0.7240
35193SOL    HW1 7586   5.623  10.902   5.812  0.0795  0.1127  0.7769
35193SOL    HW2 7587   5.474  10.915   5.792  0.0316 -2.1645 -0.6281
35194SOL     OW 7588   2.588   1.478   1.773 -0.4304  0.2791 -0.2492
35194SOL    HW1 7589   2.631   1.430   1.844 -0.8342  1.3801  0.7808
35194SOL    HW2 7590   2.641   1.460   1.696 -1.1261 -2.6500 -0.1642
35195SOL     OW 7591   9.001   7.788   7.270  0.0515  0.2695 -0.5675
35195SOL    HW1 7592   9.065   7.749   7.329 -0.9147  1.2925  1.2620
35195SOL    HW2 7593   8.932   7.722   7.263 -0.5083  0.6954  0.6669
35196SOL     OW 7594  10.770   8.003   8.737 -0.4302 -0.1414  0.1699
35196SOL    HW1 7595  10.774   7.922   8.789  1.5295 -0.0167  0.2688
35196SOL    HW2 7596  10.835   7.990   8.668  1.5061  2.1731  1.4349
35197SOL     OW 7597   0.891   0.034  10.560 -0.0930 -0.6860  0.9405
35197SOL    HW1 7598   0.822   0.018  10.625 -1.1286  1.7448  0.5551
35197SOL    HW2 7599   0.852   0.005  10.477 -0.2218 -0.3729  0.8893
35198SOL     OW 7600   8.733   5.100   6.318 -0.1519 -0.3123  0.0294
35198SOL    HW1 7601   8.760   5.043   6.389  0.0194 -0.8495 -0.4609
35198SOL    HW2 7602   8.766   5.057   6.239  0.3900  0.7005 -0.3090
35199SOL     OW 7603  11.097   8.550   4.340 -0.0124  0.1799  0.4936
35199SOL    HW1 7604  11.138   8.595   4.266  0.2672 -0.7128  0.0951
35199SOL    HW2 7605  11.149   8.470   4.352 -0.7015 -0.2101  0.9660
35200SOL     OW 7606   9.026   5.006   7.392 -0.1926 -0.4262 -0.5897
35200SOL    HW1 7607   8.991   4.965   7.312 -2.5811 -0.5691  0.4259
35200SOL    HW2 7608   9.024   5.100   7.373  3.4385 -0.5184 -2.2061
35201SOL     OW 7609  11.191   6.630   7.223  0.6197 -0.0289  0.8119
35201SOL    HW1 7610  11.268   6.652   7.276  1.2185 -0.3748  0.1176
35201SOL    HW2 7611  11.228   6.584   7.147 -0.4107 -1.6158  1.2358
35202SOL     OW 7612   5.900   7.432   3.805  0.1925  0.4787 -0.0201
35202SOL    HW1 7613   5.916   7.338   3.806 -0.5183  0.3557 -0.1333
35202SOL    HW2 7614   5.958   7.467   3.873  0.0204 -0.1069  0.4352
35203SOL     OW 7615   6.553   3.025   5.949  0.0981 -0.0052  0.0529
35203SOL    HW1 7616   6.533   2.958   5.884 -1.0634  0.4017 -0.0497
35203SOL    HW2 7617   6.551   2.979   6.033 -1.1145 -0.0605  0.0224
35204SOL     OW 7618   0.914   3.743   6.761 -0.2429 -0.5621  0.9906
35204SOL    HW1 7619   0.827   3.738   6.802 -0.9259  0.2227 -0.3071
35204SOL    HW2 7620   0.932   3.836   6.754 -0.3593 -0.6373 -0.8767
35205SOL     OW 7621   6.116   7.256   0.641 -0.0618  0.4714 -0.2738
35205SOL    HW1 7622   6.164   7.174   0.652 -1.1355 -0.5383 -2.4492
35205SOL    HW2 7623   6.183   7.321   0.623  0.8131  0.1149  1.5149
35206SOL     OW 7624   2.118   5.315   3.217  0.4561  0.2294 -0.2359
35206SOL    HW1 7625   2.130   5.377   3.289  3.0136  0.5730 -0.8611
35206SOL    HW2 7626   2.099   5.369   3.141 -2.6559 -0.1577  0.1359
35207SOL     OW 7627   1.200   7.254  10.148 -0.6510  0.3723  0.4405
35207SOL    HW1 7628   1.284   7.208  10.152 -1.4519 -1.2488 -0.4027
35207SOL    HW2 7629   1.155   7.215  10.073 -1.4119  2.5337 -0.3023
35208SOL     OW 7630   9.149   2.789   0.673  0.4333 -0.1094 -0.6191
35208SOL    HW1 7631   9.189   2.866   0.713  0.9275 -0.6406 -0.0653
35208SOL    HW2 7632   9.160   2.801   0.579  1.6829 -0.1224 -0.4867
35209SOL     OW 7633   7.018   8.406  10.513 -0.1903  0.1794 -0.4125
35209SOL    HW1 7634   7.040   8.371  10.427 -0.5944  1.4116 -1.0346
35209SOL    HW2 7635   6.936   8.453  10.500 -1.3622 -1.3380  1.1036
35210SOL     OW 7636  10.050   3.706   5.209 -0.0925 -0.6065 -0.1002
35210SOL    HW1 7637  10.089   3.703   5.296 -0.7643 -0.5299  0.2097
35210SOL    HW2 7638  10.124   3.715   5.149  0.3363 -0.1412  0.4949
35211SOL     OW 7639   4.118   4.022   9.898 -0.0191 -0.7848  0.3733
35211SOL    HW1 7640   4.197   4.016   9.952 -0.2044 -1.2415  0.5959
35211SOL    HW2 7641   4.046   4.009   9.960 -0.1932 -4.4333 -0.3744
35212SOL     OW 7642   8.317   6.480   2.567 -0.5228 -0.3044  0.0871
35212SOL    HW1 7643   8.322   6.405   2.507 -2.2491 -0.5861  0.2536
35212SOL    HW2 7644   8.405   6.516   2.567 -0.0978 -1.2586 -1.3896
35213SOL     OW 7645   8.486   7.140   1.756  0.0727 -0.4010 -0.2178
35213SOL    HW1 7646   8.392   7.158   1.756  0.3222  1.1984  1.0281
35213SOL    HW2 7647   8.501   7.090   1.837  0.1699 -1.5448 -0.9258
35214SOL     OW 7648   7.069   4.260   1.026 -0.2926  0.2880 -0.3076
35214SOL    HW1 7649   7.115   4.179   1.004 -2.0970 -0.9736  0.3185
35214SOL    HW2 7650   6.979   4.244   1.000 -0.8418  1.8144  0.5431
35215SOL     OW 7651   7.558   1.357   6.382  0.3199  0.4910 -0.0199
35215SOL    HW1 7652   7.637   1.399   6.348 -0.1013  0.6143 -0.8628
35215SOL    HW2 7653   7.489   1.422   6.370 -0.2208 -0.2072 -0.7637
35216SOL     OW 7654   0.310   4.639   1.938 -0.6641 -0.0231  0.0953
35216SOL    HW1 7655   0.373   4.580   1.979 -1.1124 -1.3799 -1.0782
35216SOL    HW2 7656   0.235   4.583   1.918 -1.5827  1.2035 -0.0422
35217SOL     OW 7657   8.655   3.150   0.486  0.0837  0.0619  0.0284
35217SOL    HW1 7658   8.729   3.091   0.501  0.3206  0.4310  0.3459
35217SOL    HW2 7659   8.581   3.093   0.469  0.2475 -0.3323  0.6056
35218SOL     OW 7660   0.802  10.859   8.109  0.1529  0.4292 -0.3334
35218SOL    HW1 7661   0.797  10.947   8.072 -0.0040  0.8651  0.6989
35218SOL    HW2 7662   0.746  10.862   8.187 -0.2146 -0.7127 -0.5342
35219SOL     OW 7663   2.074   5.366   5.822 -0.3293  0.4615 -0.1525
35219SOL    HW1 7664   2.089   5.447   5.872  1.3628  0.4330 -0.5317
35219SOL    HW2 7665   2.062   5.299   5.888  0.8453  0.6050  0.2400
35220SOL     OW 7666  10.371   9.291   6.589 -0.9802 -0.2845 -0.6942
35220SOL    HW1 7667  10.423   9.278   6.510 -0.1646  0.5327 -0.3099
35220SOL    HW2 7668  10.350   9.203   6.619 -1.2721 -0.6057 -1.7979
35221SOL     OW 7669   3.357   5.010   0.239 -0.6345  0.9500 -0.0246
35221SOL    HW1 7670   3.400   5.085   0.282 -0.1703  0.8595 -0.3216
35221SOL    HW2 7671   3.385   5.016   0.148 -0.2930  0.2009  0.0273
35222SOL     OW 7672   7.571   9.728   0.927 -0.0549 -0.0440 -0.2678
35222SOL    HW1 7673   7.565   9.774   1.011 -2.0067 -1.8570  0.6798
35222SOL    HW2 7674   7.653   9.760   0.888 -0.4778  2.9542  1.0098
35223SOL     OW 7675   6.270   9.119   6.739  0.2393  0.0150 -0.0624
35223SOL    HW1 7676   6.277   9.113   6.643  3.5296  2.0225 -0.1153
35223SOL    HW2 7677   6.339   9.062   6.772  0.8889  1.3075  0.9403
35224SOL     OW 7678   2.997   9.646   4.545  0.5339 -0.4257  0.7928
35224SOL    HW1 7679   3.086   9.610   4.547  0.8895  0.1477 -1.4240
35224SOL    HW2 7680   2.941   9.572   4.521  0.5797 -0.5289  1.0039
35225SOL     OW 7681   0.776   3.128   6.956 -0.5649  0.1025  0.0954
35225SOL    HW1 7682   0.841   3.076   6.909 -1.1933 -3.5227  2.7797
35225SOL    HW2 7683   0.706   3.142   6.892  0.5716 -0.5045 -1.3428
35226SOL     OW 7684  10.199  10.929  10.036 -0.4413  0.1215  0.1402
35226SOL    HW1 7685  10.180  10.939   9.943 -2.5739  0.3222  0.5541
35226SOL    HW2 7686  10.295  10.927  10.041 -0.2498  1.5255 -1.9095
35227SOL     OW 7687  11.047   2.015  10.190  0.0188 -0.3582 -0.0143
35227SOL    HW1 7688  10.961   2.008  10.148 -1.6502  2.1174  2.6230
35227SOL    HW2 7689  11.027   2.020  10.284  2.4828  5.1293  0.5832
35228SOL     OW 7690   4.357   3.243  10.040  0.1995  0.0069  0.1153
35228SOL    HW1 7691   4.265   3.248  10.018  0.3343  0.0088 -0.4615
35228SOL    HW2 7692   4.403   3.261   9.958  0.7050 -1.0190  0.1482
35229SOL     OW 7693   6.021   0.424   0.833 -0.2611 -0.4539 -0.1739
35229SOL    HW1 7694   6.093   0.415   0.771  0.3964 -2.2774  0.7842
35229SOL    HW2 7695   6.064   0.428   0.919 -1.2919 -2.1075  0.4577
35230SOL     OW 7696   2.249   6.013   2.786  0.7185  0.6698 -0.5472
35230SOL    HW1 7697   2.223   6.046   2.872  0.6125  2.3272 -1.1821
35230SOL    HW2 7698   2.328   6.061   2.764 -1.0291  2.8359 -2.7766
35231SOL     OW 7699   5.342   8.498   3.281  0.0101  0.8352  0.2567
35231SOL    HW1 7700   5.303   8.521   3.197  0.7782 -0.3669 -0.4661
35231SOL    HW2 7701   5.388   8.577   3.309 -0.7027  1.4176 -0.1771
35232SOL     OW 7702  10.007   2.678   0.762  0.2771  0.2413 -0.4908
35232SOL    HW1 7703   9.973   2.650   0.847  1.5412  1.1407  0.3565
35232SOL    HW2 7704  10.101   2.693   0.778  0.4761  0.7025 -1.9686
35233SOL     OW 7705   7.845   2.299   2.744 -0.0030  0.3609 -0.7141
35233SOL    HW1 7706   7.899   2.260   2.812  0.3216  0.6428 -0.8036
35233SOL    HW2 7707   7.893   2.378   2.717 -1.4524  1.7943  0.6521
35234SOL     OW 7708   5.902   5.176   5.659 -0.4815 -0.8376 -0.2586
35234SOL    HW1 7709   5.858   5.221   5.731 -0.3958 -0.6337 -0.3309
35234SOL    HW2 7710   5.953   5.108   5.701  0.9883  0.4022  0.0592
35235SOL     OW 7711   0.485   4.169   1.851 -0.2879  0.2470 -0.2406
35235SOL    HW1 7712   0.537   4.145   1.927  1.0492 -1.1158 -1.5186
35235SOL    HW2 7713   0.396   4.139   1.872  0.1339 -0.4336  0.6288
35236SOL     OW 7714   3.312   3.894   9.559  0.0676 -0.4441 -0.0839
35236SOL    HW1 7715   3.278   3.970   9.607 -0.8730 -1.9978  1.8308
35236SOL    HW2 7716   3.327   3.927   9.470  1.7699  2.5452  1.1634
35237SOL     OW 7717   6.676   6.978   3.852  0.6907 -0.1306 -0.4232
35237SOL    HW1 7718   6.603   6.933   3.811  1.1407 -0.2733 -1.0806
35237SOL    HW2 7719   6.640   7.062   3.880  0.9493  1.0629 -3.3850
35238SOL     OW 7720   4.803   1.847   0.602 -0.2110  0.2443  0.0518
35238SOL    HW1 7721   4.740   1.827   0.671 -0.5057 -0.0737 -0.3088
35238SOL    HW2 7722   4.862   1.911   0.642 -0.1601 -0.2057  0.7145
35239SOL     OW 7723   5.860   2.852   1.255 -0.2725 -0.3107  0.5578
35239SOL    HW1 7724   5.775   2.891   1.277 -0.7994 -0.4377 -1.0630
35239SOL    HW2 7725   5.838   2.764   1.223  0.5557 -0.6263  0.8359
35240SOL     OW 7726   5.147  11.245   2.363 -0.2668 -0.5875 -0.3672
35240SOL    HW1 7727   5.137  11.340   2.373 -3.0193 -0.7322 -1.0008
35240SOL    HW2 7728   5.167  11.233   2.270 -2.7458 -0.6888 -0.9653
35241SOL     OW 7729   1.529   8.948   3.374 -0.2722  0.8045  0.5730
35241SOL    HW1 7730   1.521   9.042   3.362 -4.0370  0.6767  0.7668
35241SOL    HW2 7731   1.523   8.935   3.469  0.0772  0.3588  0.5397
35242SOL     OW 7732   4.812  11.162   1.488  0.7484 -0.5649  0.3678
35242SOL    HW1 7733   4.756  11.199   1.420  1.0881 -0.1671  0.3025
35242SOL    HW2 7734   4.793  11.068   1.486 -0.3827 -0.3632  0.7762
35243SOL     OW 7735   1.787   8.579  10.043 -0.1689 -0.3716  0.3150
35243SOL    HW1 7736   1.732   8.503  10.026  0.5945 -1.0500  0.8325
35243SOL    HW2 7737   1.784   8.629   9.961 -0.3121 -1.1917 -0.1922
35244SOL     OW 7738   7.492   9.275   9.110 -0.1519 -0.5165  0.1439
35244SOL    HW1 7739   7.447   9.355   9.082 -0.7078 -0.6311  0.6680
35244SOL    HW2 7740   7.545   9.303   9.185 -1.4796 -0.9006  1.2699
35245SOL     OW 7741   9.032   0.064   8.182  0.3956  0.2121 -0.1069
35245SOL    HW1 7742   9.024   0.111   8.265  0.6378  0.2172 -0.0863
35245SOL    HW2 7743   9.121   0.030   8.183  0.8171  1.2313 -0.8980
35246SOL     OW 7744  10.088   6.982   7.632 -0.1443 -0.4271 -0.2178
35246SOL    HW1 7745  10.014   6.994   7.572  0.9883 -1.8697 -2.0042
35246SOL    HW2 7746  10.086   6.889   7.654 -0.3427  0.0132  1.8094
35247SOL     OW 7747   3.463  11.213   7.107  0.1809  0.4242  0.4534
35247SOL    HW1 7748   3.448  11.273   7.034 -0.8165  0.1442  0.4125
35247SOL    HW2 7749   3.406  11.138   7.089  1.1712 -0.4096  0.6614
35248SOL     OW 7750   4.400   9.411   9.761 -0.0646  0.3640  0.0335
35248SOL    HW1 7751   4.398   9.456   9.845  0.4576 -0.3108  0.4150
35248SOL    HW2 7752   4.384   9.479   9.696 -0.7314  0.8507  0.6900
35249SOL     OW 7753   0.334  11.153   5.574 -0.0582 -0.0424 -0.5826
35249SOL    HW1 7754   0.282  11.112   5.643  1.2431 -2.0501 -0.7153
35249SOL    HW2 7755   0.315  11.101   5.496  1.8860 -0.6395 -0.6944
35250SOL     OW 7756   3.107   9.882   5.125  0.4838  0.2053  0.0973
35250SOL    HW1 7757   3.054   9.895   5.203  1.7634  0.0808  1.0328
35250SOL    HW2 7758   3.180   9.827   5.155 -0.0998 -1.6715 -1.6783
35251SOL     OW 7759   3.279  11.249   4.419 -0.4582  0.0827  0.3355
35251SOL    HW1 7760   3.275  11.269   4.513 -2.0005  0.7313  0.1688
35251SOL    HW2 7761   3.260  11.332   4.376 -3.6725 -0.9006 -0.4434
35252SOL     OW 7762   9.188   8.582   9.394 -0.1661  0.6412  0.0420
35252SOL    HW1 7763   9.121   8.613   9.334 -1.5120  1.2899  1.7855
35252SOL    HW2 7764   9.140   8.547   9.469  1.4019 -2.1331 -0.1270
35253SOL     OW 7765  10.049   5.664   9.893 -0.3292  0.7617  0.2636
35253SOL    HW1 7766   9.985   5.671   9.964 -1.7803  1.0100 -1.0108
35253SOL    HW2 7767  10.033   5.741   9.838 -0.6406 -0.4342 -1.4175
35254SOL     OW 7768   2.018  10.615   9.122 -0.9167 -0.3927  0.3643
35254SOL    HW1 7769   1.981  10.528   9.136 -1.8487 -0.2035 -0.6908
35254SOL    HW2 7770   2.110  10.599   9.101 -1.2234 -1.1859 -0.4503
35255SOL     OW 7771   4.786   8.240   3.234  0.1640 -0.4556 -0.2803
35255SOL    HW1 7772   4.727   8.188   3.288  1.0237  0.4130  1.5980
35255SOL    HW2 7773   4.750   8.235   3.146 -2.0943 -0.7926  0.6162
35256SOL     OW 7774   5.904   2.642   4.685  0.1570  0.2582  0.0478
35256SOL    HW1 7775   5.965   2.704   4.645 -1.2573  0.1672 -2.3754
35256SOL    HW2 7776   5.868   2.689   4.760  1.0838  1.3446 -0.1572
35257SOL     OW 7777  10.299   3.225  10.242 -0.3590 -1.0510  0.2631
35257SOL    HW1 7778  10.272   3.229  10.333 -0.5908 -3.2477  0.3441
35257SOL    HW2 7779  10.391   3.253  10.243 -0.5136 -0.5526  1.0853
35258SOL     OW 7780  11.183   6.293   3.551  0.4089  0.6386  0.2278
35258SOL    HW1 7781  11.095   6.303   3.514  0.3232 -1.0355 -0.1338
35258SOL    HW2 7782  11.173   6.315   3.643 -0.3036  0.8420  0.1098
35259SOL     OW 7783   5.071   1.299   5.112  0.1196  0.0017  0.1287
35259SOL    HW1 7784   4.978   1.278   5.110  0.5175 -1.9386 -1.2975
35259SOL    HW2 7785   5.107   1.244   5.181  0.8905 -3.1847 -2.5204
35260SOL     OW 7786   5.375   3.770   9.262  0.1798 -0.2837 -0.3841
35260SOL    HW1 7787   5.422   3.686   9.258  1.0851  0.1426  0.6723
35260SOL    HW2 7788   5.398   3.814   9.180 -0.2867 -1.0523 -0.9397
35261SOL     OW 7789   7.135   0.388   9.427  0.1614  0.1673  0.6015
35261SOL    HW1 7790   7.181   0.416   9.347  1.5015  1.6215  1.8196
35261SOL    HW2 7791   7.137   0.292   9.423 -0.4258  0.1917 -1.4273
35262SOL     OW 7792   1.144   7.877   9.542 -0.1596  0.2433 -0.3400
35262SOL    HW1 7793   1.182   7.842   9.461  0.7861  2.1429 -0.7602
35262SOL    HW2 7794   1.200   7.951   9.564  1.1465 -1.5944  3.4287
35263SOL     OW 7795   2.613   9.965  11.027 -0.4638 -0.2929  0.4094
35263SOL    HW1 7796   2.688  10.024  11.032 -1.4637  1.1881 -1.0095
35263SOL    HW2 7797   2.615   9.931  10.937 -1.7598  0.1905  0.1752
35264SOL     OW 7798   6.647   9.756   4.915  0.4171  0.8712  0.0152
35264SOL    HW1 7799   6.586   9.782   4.847 -0.6134  0.9063  0.9290
35264SOL    HW2 7800   6.594   9.751   4.994  0.9808 -2.0597  0.2967
35265SOL     OW 7801  11.127   9.511   5.692 -0.9772  0.5527 -0.1014
35265SOL    HW1 7802  11.080   9.585   5.729  0.4779  2.0767 -1.1014
35265SOL    HW2 7803  11.178   9.550   5.620 -1.2814 -1.6866 -1.6196
35266SOL     OW 7804   7.732   5.536   7.736  0.2280  0.0737  0.1640
35266SOL    HW1 7805   7.775   5.616   7.705 -1.5697  0.6541 -0.9734
35266SOL    HW2 7806   7.705   5.491   7.655  2.1004 -2.2628  0.7207
35267SOL     OW 7807   3.733   6.902   8.999 -0.2609  0.0969 -0.0882
35267SOL    HW1 7808   3.822   6.937   8.996  0.6608 -2.0951 -0.1961
35267SOL    HW2 7809   3.720   6.862   8.913 -1.2611  0.1448  0.0229
35268SOL     OW 7810   2.627   4.216   6.583 -0.7073  0.3418 -0.2859
35268SOL    HW1 7811   2.564   4.269   6.534  0.7056  1.7230 -0.6904
35268SOL    HW2 7812   2.672   4.164   6.515  1.4852  2.5031 -0.6155
35269SOL     OW 7813   2.332   7.101   6.899 -0.9852 -0.3060 -0.1650
35269SOL    HW1 7814   2.316   7.128   6.989  0.0182 -4.3933  1.4598
35269SOL    HW2 7815   2.318   7.180   6.847 -2.4069  2.0410  3.4394
35270SOL     OW 7816   3.247   9.229  10.863  0.1255 -0.3282 -0.3938
35270SOL    HW1 7817   3.263   9.259  10.773  2.8247  0.8589  0.3660
35270SOL    HW2 7818   3.283   9.140  10.865 -5.2299 -2.9441 -1.8562
35271SOL     OW 7819   0.852  10.599   0.483 -0.2196  0.0594 -0.2437
35271SOL    HW1 7820   0.816  10.547   0.412  1.7722  1.1021 -2.1506
35271SOL    HW2 7821   0.837  10.690   0.457  1.7456  0.4838 -0.0616
35272SOL     OW 7822   7.911   2.740  10.687 -0.2313  0.2168  0.0134
35272SOL    HW1 7823   7.885   2.650  10.671 -1.5427  0.2847  1.5491
35272SOL    HW2 7824   7.996   2.733  10.732 -1.4830 -0.4270  2.4320
35273SOL     OW 7825   1.915   6.047   4.024  0.2565 -0.1506  0.5221
35273SOL    HW1 7826   1.968   6.036   4.103  0.2062 -0.5357  0.5029
35273SOL    HW2 7827   1.858   6.122   4.043 -0.3265 -0.7422  1.1667
35274SOL     OW 7828   8.410   1.200   7.233 -0.0186 -0.9214  0.3202
35274SOL    HW1 7829   8.381   1.118   7.272  0.1298 -0.3354  1.7282
35274SOL    HW2 7830   8.333   1.235   7.188 -0.0483 -1.8681 -0.3860
35275SOL     OW 7831   6.499   7.896  11.193 -0.0628  0.3470  0.2504
35275SOL    HW1 7832   6.581   7.848  11.179 -0.5736 -0.4291 -0.1807
35275SOL    HW2 7833   6.524   7.988  11.187  0.8457  0.1324  0.5054
35276SOL     OW 7834   8.848   7.501   6.104 -0.3725  0.1587  0.0220
35276SOL    HW1 7835   8.892   7.552   6.172  0.2076  1.2645 -1.1384
35276SOL    HW2 7836   8.842   7.412   6.140  3.6694 -0.3384 -0.0672
35277SOL     OW 7837   8.681   6.863   4.982 -0.1269 -0.6263  0.3189
35277SOL    HW1 7838   8.635   6.941   4.952 -2.0296 -1.9584 -0.3521
35277SOL    HW2 7839   8.676   6.868   5.078  1.9015  1.2361  0.4237
35278SOL     OW 7840   0.657   3.946   7.619  0.4147 -0.1437  0.2052
35278SOL    HW1 7841   0.705   3.863   7.616  1.3363  0.3489  0.9260
35278SOL    HW2 7842   0.637   3.959   7.711 -0.6407 -0.0582 -0.0205
35279SOL     OW 7843   1.332   1.571   2.001 -0.3948 -0.1018  0.1524
35279SOL    HW1 7844   1.329   1.587   2.095  0.3971 -0.1028  0.1804
35279SOL    HW2 7845   1.253   1.614   1.967 -0.0380  0.9842  0.6550
35280SOL     OW 7846   1.092   1.348   5.989 -0.1347  0.6140  0.0399
35280SOL    HW1 7847   1.040   1.382   6.062  1.2198 -2.4295  2.7128
35280SOL    HW2 7848   1.180   1.383   6.004 -0.2424  1.5878 -1.4108
35281SOL     OW 7849   4.647   4.549  10.530  0.3878 -0.1778 -0.0809
35281SOL    HW1 7850   4.605   4.463  10.533  3.1193 -1.6152  0.1044
35281SOL    HW2 7851   4.682   4.562  10.618 -0.8530  1.6598  0.1984
35282SOL     OW 7852   4.396   8.314   9.748 -0.4542 -0.7119 -0.1672
35282SOL    HW1 7853   4.369   8.269   9.828 -0.4381  1.0168  0.8580
35282SOL    HW2 7854   4.491   8.324   9.757 -0.3649 -1.0645 -0.7041
35283SOL     OW 7855   8.017   5.710   9.848  0.1740 -0.1331 -0.2172
35283SOL    HW1 7856   8.094   5.727   9.794  0.7900  0.8783  0.9364
35283SOL    HW2 7857   7.956   5.667   9.788  1.1250  0.2130 -1.5054
35284SOL     OW 7858   1.137  10.841   9.053  0.3138  0.0389 -0.0842
35284SOL    HW1 7859   1.214  10.792   9.083 -0.1884 -1.1172 -0.6317
35284SOL    HW2 7860   1.067  10.813   9.111  0.3226  1.2411  0.5412
35285SOL     OW 7861   1.390   8.709   1.520 -0.2724  0.1526 -0.0999
35285SOL    HW1 7862   1.345   8.772   1.577 -0.5916 -0.2121  0.0535
35285SOL    HW2 7863   1.346   8.715   1.436 -0.5390 -0.1212  0.0177
35286SOL     OW 7864   4.138   4.964   3.768 -0.7209 -0.9158 -0.8251
35286SOL    HW1 7865   4.064   5.016   3.799  1.5155  1.1164  1.5334
35286SOL    HW2 7866   4.143   4.890   3.828  0.3866  0.1318  0.4350
35287SOL     OW 7867   8.374   9.083   0.714 -0.1992 -0.2300 -0.0590
35287SOL    HW1 7868   8.461   9.043   0.716 -1.0999 -2.3814  2.0386
35287SOL    HW2 7869   8.389   9.173   0.687  2.7750 -0.3267  0.9284
35288SOL     OW 7870   3.929  10.207  10.937  0.2091  0.1540  0.6399
35288SOL    HW1 7871   3.914  10.223  11.030 -0.3501  1.2676  0.3702
35288SOL    HW2 7872   3.938  10.294  10.898  1.1423 -0.3091 -0.2447
35289SOL     OW 7873  10.828   3.819   9.909 -0.2966  0.0215  0.1584
35289SOL    HW1 7874  10.808   3.912   9.913 -0.4660  0.0460  4.7674
35289SOL    HW2 7875  10.743   3.776   9.902 -0.2864  0.1751 -1.0193
35290SOL     OW 7876   8.136   6.478   6.521  0.2961 -0.3168  0.0034
35290SOL    HW1 7877   8.167   6.558   6.477 -1.5379 -0.1480 -1.0593
35290SOL    HW2 7878   8.117   6.506   6.611 -0.3117  0.4497 -0.3542
35291SOL     OW 7879   0.845  10.977   4.094  0.0188  0.2644 -0.1531
35291SOL    HW1 7880   0.934  10.965   4.061  0.6964  1.7503  1.0136
35291SOL    HW2 7881   0.789  10.950   4.022  1.3576 -2.2709 -0.3694
35292SOL     OW 7882   4.123   4.553   6.929  0.1324  0.2617  0.4075
35292SOL    HW1 7883   4.131   4.487   6.860 -0.4848  1.0006 -0.3956
35292SOL    HW2 7884   4.205   4.602   6.924 -0.2087  0.7671 -0.2884
35293SOL     OW 7885   8.850   9.741   6.135 -0.1733 -0.2365 -0.8142
35293SOL    HW1 7886   8.837   9.647   6.144 -2.1377  0.1644  1.3987
35293SOL    HW2 7887   8.907   9.765   6.208 -1.4947  0.5561  0.0014
35294SOL     OW 7888   8.903   4.740   7.457 -0.0635 -0.4055 -0.8253
35294SOL    HW1 7889   8.983   4.760   7.506 -1.6800  1.2049  1.3508
35294SOL    HW2 7890   8.884   4.821   7.409 -3.1735  1.3855  2.9454
35295SOL     OW 7891   8.450   8.209   7.748  0.2328  0.3942  0.6481
35295SOL    HW1 7892   8.453   8.230   7.655  0.0727  0.5990  0.6874
35295SOL    HW2 7893   8.500   8.279   7.790  0.8970 -0.0769  0.6566
35296SOL     OW 7894   0.997   6.086   2.005  0.3791  0.3282  0.0380
35296SOL    HW1 7895   0.912   6.043   1.999  0.3564  0.4483 -0.5617
35296SOL    HW2 7896   1.060   6.014   2.013  0.3835  0.1419 -1.4236
35297SOL     OW 7897   3.973   1.824   4.199  0.1538 -0.1933  0.4003
35297SOL    HW1 7898   3.936   1.750   4.246  1.5584 -0.0445  1.8150
35297SOL    HW2 7899   3.902   1.854   4.141 -2.3747  0.8014  3.7185
35298SOL     OW 7900  10.054   5.936   9.650 -0.0758  0.7320  0.0884
35298SOL    HW1 7901  10.129   5.970   9.699  0.8837 -0.7305 -0.3083
35298SOL    HW2 7902  10.070   5.964   9.560 -0.6568  1.4522  0.1971
35299SOL     OW 7903  11.106   2.117   0.263  0.7375  0.7291 -0.3087
35299SOL    HW1 7904  11.160   2.048   0.223 -0.2227  0.0726 -0.5185
35299SOL    HW2 7905  11.150   2.198   0.239  0.9518  0.2800 -1.5458
35300SOL     OW 7906   8.326   4.663   5.590 -0.3527  0.1123  0.3173
35300SOL    HW1 7907   8.383   4.672   5.667 -1.6305  3.6348  1.0513
35300SOL    HW2 7908   8.356   4.731   5.530 -3.1862  1.6069  0.4171
35301SOL     OW 7909   5.401   4.888   4.926  0.1394  0.6956 -0.0184
35301SOL    HW1 7910   5.494   4.909   4.917  0.3519 -0.0713  0.3152
35301SOL    HW2 7911   5.396   4.793   4.918 -0.5813  0.7017  0.2215
35302SOL     OW 7912  10.738  11.013   1.581  0.3838 -0.7396  0.2802
35302SOL    HW1 7913  10.648  10.981   1.579 -0.7629  2.0677  1.6290
35302SOL    HW2 7914  10.745  11.071   1.505  2.2862 -3.5212 -1.8833
35303SOL     OW 7915   4.843   7.794   7.555 -0.2175 -0.6634  0.1639
35303SOL    HW1 7916   4.926   7.758   7.588 -0.0098 -0.0582  0.3080
35303SOL    HW2 7917   4.859   7.809   7.462 -0.0065 -0.0999  0.2892
35304SOL     OW 7918   2.466  11.056   0.566 -0.2131 -0.0132  0.5473
35304SOL    HW1 7919   2.508  11.028   0.485 -1.0014 -1.6967  0.6845
35304SOL    HW2 7920   2.529  11.032   0.635  0.4746  1.4536  0.4721
35305SOL     OW 7921   8.463   8.376   4.524  0.2122 -0.2815 -0.0736
35305SOL    HW1 7922   8.552   8.408   4.542 -0.2651  1.5663 -0.6922
35305SOL    HW2 7923   8.457   8.293   4.570  1.9488  0.0136  0.7657
35306SOL     OW 7924   3.206   0.263   4.547  0.0549  0.6253  0.0813
35306SOL    HW1 7925   3.276   0.261   4.611  0.4986  2.6885 -0.2823
35306SOL    HW2 7926   3.146   0.194   4.575  1.0351  0.4091  1.7614
35307SOL     OW 7927   7.739   5.303  10.123  0.7112  1.0239  0.2598
35307SOL    HW1 7928   7.763   5.220  10.083  0.1764  1.7354 -1.6593
35307SOL    HW2 7929   7.804   5.316  10.192 -0.2670 -1.8122  1.8933
35308SOL     OW 7930   2.783   1.986   3.262 -0.2620 -0.0435  0.0828
35308SOL    HW1 7931   2.742   2.022   3.341  0.8908  1.3132  0.1123
35308SOL    HW2 7932   2.709   1.968   3.204 -0.9843  3.1669 -0.2218
35309SOL     OW 7933   8.084   2.006   7.480  0.0104 -0.3448  0.3235
35309SOL    HW1 7934   8.102   2.028   7.388 -0.9473 -1.5288 -0.1799
35309SOL    HW2 7935   8.127   1.922   7.493 -1.4773 -1.1259  0.3643
35310SOL     OW 7936   6.401  10.568   5.423 -0.2459  0.3639 -0.1952
35310SOL    HW1 7937   6.493  10.571   5.395 -0.0940  0.9971  0.3417
35310SOL    HW2 7938   6.396  10.495   5.484  0.2159  1.1490  0.8150
35311SOL     OW 7939   4.228   0.488   5.797 -0.2694 -0.0087  0.7721
35311SOL    HW1 7940   4.169   0.543   5.849  1.5188  0.8704  1.9514
35311SOL    HW2 7941   4.271   0.550   5.737  0.4696 -0.4023  0.8922
35312SOL     OW 7942   7.054   3.513   4.317 -0.6603 -0.8653 -0.6152
35312SOL    HW1 7943   6.981   3.573   4.332  0.4827  0.5838 -0.6510
35312SOL    HW2 7944   7.084   3.489   4.405 -0.7962 -0.9917 -0.6026
35313SOL     OW 7945   9.086   3.273  10.595 -0.2165  0.2412 -0.1554
35313SOL    HW1 7946   9.032   3.351  10.612  1.0171  1.2990 -0.8778
35313SOL    HW2 7947   9.115   3.245  10.682  0.5416  1.5141  0.0338
35314SOL     OW 7948   7.229   2.679   5.551 -0.0261 -0.3667 -0.2785
35314SOL    HW1 7949   7.227   2.605   5.489  0.6402 -0.9928  0.4194
35314SOL    HW2 7950   7.305   2.661   5.607  1.0658  1.6209 -1.0128
35315SOL     OW 7951   8.880   1.729  10.342 -0.2328  0.3246  0.2470
35315SOL    HW1 7952   8.879   1.825  10.338  0.4845  0.3011 -1.4662
35315SOL    HW2 7953   8.963   1.707  10.383 -0.1001  0.4289  0.0342
35316SOL     OW 7954   5.880   4.308   5.979  0.4170 -0.0804  0.8126
35316SOL    HW1 7955   5.822   4.305   5.902 -1.4923 -0.3207  2.1728
35316SOL    HW2 7956   5.962   4.271   5.949  0.3123  1.4563 -1.5683
35317SOL     OW 7957   4.802  10.768   7.963  0.0198  0.6985  0.4373
35317SOL    HW1 7958   4.854  10.797   7.888  0.8922 -1.2350  0.2286
35317SOL    HW2 7959   4.775  10.679   7.939 -2.0261  1.0337  1.2603
35318SOL     OW 7960   3.655   7.571   4.600 -0.5324  0.1381 -0.9426
35318SOL    HW1 7961   3.716   7.621   4.654 -0.6242 -1.5537  0.8314
35318SOL    HW2 7962   3.694   7.483   4.595 -3.0781 -1.2302  0.9016
35319SOL     OW 7963   0.975   0.626  10.999  0.0797 -0.1235  0.1640
35319SOL    HW1 7964   0.938   0.574  11.070 -0.8725 -0.2530 -0.4186
35319SOL    HW2 7965   1.067   0.638  11.024 -0.0572 -0.8043  1.0399
35320SOL     OW 7966   2.273   1.519   5.282  0.1395  0.6169 -0.3259
35320SOL    HW1 7967   2.332   1.580   5.325 -1.9264  2.2555  0.3397
35320SOL    HW2 7968   2.257   1.557   5.196  0.1105  0.1454 -0.5337
35321SOL     OW 7969   7.555   6.493   2.913  0.0582  0.4876 -0.3050
35321SOL    HW1 7970   7.481   6.441   2.944  1.3520 -1.0354  0.4321
35321SOL    HW2 7971   7.632   6.442   2.939  1.3561  1.7204 -1.5379
35322SOL     OW 7972   0.288   4.903   4.869 -0.2714 -0.2335  0.1615
35322SOL    HW1 7973   0.341   4.932   4.794  0.3225  1.5098  1.1984
35322SOL    HW2 7974   0.281   4.808   4.857  1.9796 -0.3758 -0.7400
35323SOL     OW 7975  11.164   3.552   0.104  0.2898  0.2946  0.5477
35323SOL    HW1 7976  11.178   3.506   0.187  1.0031  0.6309  0.6242
35323SOL    HW2 7977  11.080   3.596   0.115  0.0691 -0.2008  0.8431
35324SOL     OW 7978   6.960   2.242   5.115  0.2757 -0.0182  0.5735
35324SOL    HW1 7979   7.032   2.261   5.055  1.7186  2.7388  2.9074
35324SOL    HW2 7980   6.982   2.158   5.155  2.0226  0.5599  0.9072
35325SOL     OW 7981   3.481   7.085   1.770  0.8714  0.2521 -0.2145
35325SOL    HW1 7982   3.472   7.180   1.782 -1.5373 -0.2547  4.3608
35325SOL    HW2 7983   3.539   7.057   1.840  1.5658 -1.7209 -1.4940
35326SOL     OW 7984   3.717  10.938   5.430  0.4579  0.5316 -0.4712
35326SOL    HW1 7985   3.679  10.981   5.353 -2.0823 -2.0689 -0.8551
35326SOL    HW2 7986   3.643  10.926   5.489  1.9529  0.5681  1.4931
35327SOL     OW 7987   6.379   9.865   5.062 -0.1659  0.1305  0.3090
35327SOL    HW1 7988   6.416   9.950   5.036  0.7641 -0.3388  0.0700
35327SOL    HW2 7989   6.286   9.884   5.077  0.0078  1.1772  0.1847
35328SOL     OW 7990   8.475   4.714   9.064  0.4418 -0.1787  0.1797
35328SOL    HW1 7991   8.505   4.671   9.144  0.3469  0.2840  0.4641
35328SOL    HW2 7992   8.401   4.661   9.035  1.5513 -1.3906 -0.5768
35329SOL     OW 7993   2.360   5.208   5.006  0.1037  0.0645  0.5552
35329SOL    HW1 7994   2.388   5.185   4.917  0.2349  0.0051  0.6102
35329SOL    HW2 7995   2.272   5.172   5.014  0.5233 -0.9404  0.8360
35330SOL     OW 7996   1.059   0.055   2.690  0.1302 -0.1298 -0.1772
35330SOL    HW1 7997   1.108  -0.014   2.736  0.1515 -0.2266 -0.3433
35330SOL    HW2 7998   0.997   0.087   2.755 -2.3793 -2.7246 -1.0583
35331SOL     OW 7999  11.055   1.127   2.586 -0.2619  0.3246 -0.4272
35331SOL    HW1 8000  11.031   1.126   2.494  0.0361  1.5595 -0.5294
35331SOL    HW2 8001  11.035   1.038   2.617  1.2721 -0.6425 -2.0770
35332SOL     OW 8002   9.517   7.995   5.046  0.3579  0.6446  0.2546
35332SOL    HW1 8003   9.437   7.958   5.082  1.2019 -1.6511 -0.0876
35332SOL    HW2 8004   9.520   8.084   5.081 -0.2832 -0.5028  3.5568
35333SOL     OW 8005   6.895   1.638   6.795  0.0191  0.0137 -0.0795
35333SOL    HW1 8006   6.808   1.662   6.763 -0.5890 -1.3259  0.4910
35333SOL    HW2 8007   6.901   1.682   6.880  0.5389  1.3549 -0.7877
35334SOL     OW 8008   8.062  10.677   4.407 -0.2226  0.3012 -0.5848
35334SOL    HW1 8009   7.985  10.623   4.391  0.5588 -0.6265 -1.3563
35334SOL    HW2 8010   8.115  10.667   4.328  1.2853 -0.1292  0.4400
35335SOL     OW 8011   3.907   9.277   6.085  0.2772 -0.0209  0.3052
35335SOL    HW1 8012   3.986   9.267   6.139  0.2864 -0.2089  0.2583
35335SOL    HW2 8013   3.835   9.282   6.147  0.1342 -1.6592  0.3043
35336SOL     OW 8014   3.769   5.504  10.898  0.0728 -0.0865  0.1785
35336SOL    HW1 8015   3.686   5.519  10.853  0.2243 -1.1964 -0.5151
35336SOL    HW2 8016   3.749   5.517  10.990 -1.1499 -1.3685  0.1301
35337SOL     OW 8017   0.705   2.143   4.487  0.1082  0.5718  0.2245
35337SOL    HW1 8018   0.746   2.208   4.430  0.0272  1.1799  0.8506
35337SOL    HW2 8019   0.751   2.061   4.467 -0.2690  0.6569 -1.0796
35338SOL     OW 8020  10.968  11.024   4.653 -0.8374 -0.0857 -0.1337
35338SOL    HW1 8021  10.981  11.073   4.734 -0.2927 -0.6016  0.0999
35338SOL    HW2 8022  10.979  10.932   4.678  1.5316 -0.1444 -1.1760
35339SOL     OW 8023   2.142   7.751   2.397 -0.3007  0.3359 -0.4374
35339SOL    HW1 8024   2.060   7.772   2.440 -0.4922 -1.1191 -0.0342
35339SOL    HW2 8025   2.204   7.736   2.469 -0.0793 -0.0511 -0.7026
35340SOL     OW 8026   3.194   7.966   4.579 -0.1519  0.5367  0.8263
35340SOL    HW1 8027   3.130   8.029   4.612 -0.7283  0.8598 -0.8254
35340SOL    HW2 8028   3.226   8.005   4.498  1.4813 -0.0537  1.1429
35341SOL     OW 8029   2.725   8.808   4.320  0.2019  0.7646 -0.0514
35341SOL    HW1 8030   2.676   8.890   4.307 -1.1554 -0.1873 -1.3526
35341SOL    HW2 8031   2.765   8.791   4.235  0.1634 -0.1017  0.1004
35342SOL     OW 8032   9.586   7.162   4.829 -0.0191 -1.0136 -0.1528
35342SOL    HW1 8033   9.681   7.149   4.838  0.1129 -0.3220 -0.4833
35342SOL    HW2 8034   9.548   7.085   4.870  0.6697 -0.9292  0.6699
35343SOL     OW 8035   2.907   6.353   7.367 -0.4494  0.1194 -0.3151
35343SOL    HW1 8036   2.967   6.385   7.300  1.1366  0.0359  0.9964
35343SOL    HW2 8037   2.955   6.363   7.449 -0.8461 -3.1409  0.4806
35344SOL     OW 8038   1.654   2.243   1.738  0.9065 -0.0182 -0.4124
35344SOL    HW1 8039   1.700   2.309   1.790 -1.9054  1.0499  0.9399
35344SOL    HW2 8040   1.625   2.289   1.660  0.4881 -0.1374 -0.3293
35345SOL     OW 8041   3.378   7.483  11.077  0.6198  0.2663 -0.1003
35345SOL    HW1 8042   3.457   7.516  11.119  0.3639 -0.7125  1.2233
35345SOL    HW2 8043   3.320   7.559  11.072  0.5860  0.3805  1.5497
35346SOL     OW 8044   3.777   7.827   3.987  0.6309 -0.2325  0.8747
35346SOL    HW1 8045   3.725   7.754   4.020 -2.3752  1.5407  0.3875
35346SOL    HW2 8046   3.821   7.863   4.064  1.1468 -1.7303  1.3112
35347SOL     OW 8047  10.847  11.190   4.471 -0.5879  0.2617 -0.4464
35347SOL    HW1 8048  10.907  11.120   4.498  0.8457  1.7449  0.3857
35347SOL    HW2 8049  10.794  11.208   4.548  0.2377  1.2325 -0.0765
35348SOL     OW 8050   3.309   2.212   7.631  0.1921  0.1850  0.6523
35348SOL    HW1 8051   3.370   2.285   7.623  1.4301 -0.9709 -1.1124
35348SOL    HW2 8052   3.350   2.152   7.693  1.8408 -1.4117 -1.8223
35349SOL     OW 8053   7.604   7.882   1.258  0.7453 -0.4424 -0.4579
35349SOL    HW1 8054   7.622   7.792   1.230  0.4538 -0.1987 -1.4701
35349SOL    HW2 8055   7.603   7.878   1.354 -0.4330 -1.7469 -0.5041
35350SOL     OW 8056   9.935   4.555   3.075  0.7322  0.6956 -0.3586
35350SOL    HW1 8057   9.983   4.480   3.111  2.0899  1.4302 -0.5396
35350SOL    HW2 8058   9.987   4.631   3.101 -0.1159  1.5036 -0.9660
35351SOL     OW 8059   4.975   4.901   7.190 -0.0049  0.1367  0.1296
35351SOL    HW1 8060   4.926   4.978   7.162 -2.5599 -1.1723  0.6649
35351SOL    HW2 8061   4.968   4.841   7.116  3.6456  1.0044 -1.0924
35352SOL     OW 8062   8.254   5.887   3.376  0.1853  0.9792  0.3795
35352SOL    HW1 8063   8.215   5.969   3.404 -0.5354  0.2976  1.4514
35352SOL    HW2 8064   8.201   5.860   3.301  0.7386  1.7195 -0.2971
35353SOL     OW 8065   7.052   5.011   7.010  0.4566  0.5548 -0.4432
35353SOL    HW1 8066   7.032   4.933   7.062  1.4654  1.5911  1.5846
35353SOL    HW2 8067   7.143   4.998   6.982 -0.3706 -0.4695 -2.9445
35354SOL     OW 8068   0.733   6.277   0.810  1.0398 -0.1279  0.0572
35354SOL    HW1 8069   0.671   6.210   0.780  0.2206  0.7102 -0.1515
35354SOL    HW2 8070   0.717   6.352   0.753  0.5746  0.9363  1.5435
35355SOL     OW 8071  10.023   7.509   5.853 -0.0348 -1.0316  0.1835
35355SOL    HW1 8072   9.970   7.546   5.783 -1.5552 -0.8104  1.4090
35355SOL    HW2 8073  10.067   7.584   5.892  1.1085 -1.1981 -0.7406
35356SOL     OW 8074   8.936   0.776   3.052  0.3795 -0.3198  0.5402
35356SOL    HW1 8075   9.000   0.714   3.087  0.4550 -0.5718 -0.0208
35356SOL    HW2 8076   8.858   0.723   3.037  0.8986 -0.6535 -1.3410
35357SOL     OW 8077   5.770  11.262   4.174 -0.7248 -0.4221 -0.2144
35357SOL    HW1 8078   5.770  11.176   4.217 -0.6529 -0.5926 -0.5540
35357SOL    HW2 8079   5.680  11.293   4.183 -0.3371  0.2937  1.5463
35358SOL     OW 8080   7.727   7.593   7.261 -0.4631  0.1216  0.7191
35358SOL    HW1 8081   7.813   7.564   7.231  0.3151  0.0123  2.8892
35358SOL    HW2 8082   7.671   7.585   7.183  1.2665 -0.6168 -0.5293
35359SOL     OW 8083   2.045   4.181   9.598 -0.3451  0.4190  0.5243
35359SOL    HW1 8084   2.110   4.111   9.601 -1.1685 -0.5336 -1.7372
35359SOL    HW2 8085   2.065   4.235   9.675  1.0465 -1.6218  1.7110
35360SOL     OW 8086   6.384   1.497   2.727  0.1594 -0.0638  0.4548
35360SOL    HW1 8087   6.361   1.463   2.814  0.7987  0.2547  0.7529
35360SOL    HW2 8088   6.306   1.547   2.700 -0.6227 -1.3873  0.1925
35361SOL     OW 8089   9.344   6.982   1.705 -0.2449  0.1513  0.1575
35361SOL    HW1 8090   9.353   7.075   1.724 -0.6227  0.1066  0.5786
35361SOL    HW2 8091   9.434   6.950   1.697 -0.0057  0.0235  2.6689
35362SOL     OW 8092   6.925   8.625   4.499 -0.2894  1.2384 -0.4345
35362SOL    HW1 8093   6.874   8.701   4.471 -1.5880  0.0004 -1.5484
35362SOL    HW2 8094   6.863   8.552   4.496  1.0332  0.0454  0.2141
35363SOL     OW 8095   2.520   8.131   2.152  0.2373  0.7846  0.3088
35363SOL    HW1 8096   2.455   8.061   2.152  1.5444 -0.4886  1.9102
35363SOL    HW2 8097   2.531   8.153   2.059 -0.9531 -0.3966 -0.1409
35364SOL     OW 8098   7.675  10.251   9.074 -0.3957  0.0565 -0.3133
35364SOL    HW1 8099   7.628  10.202   9.006 -2.1674  1.6854 -0.3488
35364SOL    HW2 8100   7.717  10.184   9.127 -0.6123 -1.3590 -1.8370
35365SOL     OW 8101   2.638   5.389   9.718 -0.8084 -0.8908 -0.0775
35365SOL    HW1 8102   2.564   5.333   9.697 -0.9982 -1.2025  1.3112
35365SOL    HW2 8103   2.632   5.403   9.813  1.6030 -1.9815  0.3144
35366SOL     OW 8104   4.043   4.389  11.186  0.0308 -0.1011  0.1579
35366SOL    HW1 8105   4.024   4.297  11.205 -0.2060  0.3426  2.3601
35366SOL    HW2 8106   4.119   4.409  11.241 -0.1887  1.1374  0.0260
35367SOL     OW 8107   3.803   4.868   7.577 -0.2053 -0.2478 -0.0220
35367SOL    HW1 8108   3.780   4.797   7.637 -1.1169 -0.5867 -0.7517
35367SOL    HW2 8109   3.820   4.824   7.493  2.1108  0.0922  0.1905
35368SOL     OW 8110   7.868  10.960  11.244 -0.0382  0.4779  0.4181
35368SOL    HW1 8111   7.775  10.940  11.252 -0.4781  2.8901  2.2526
35368SOL    HW2 8112   7.912  10.883  11.280 -1.2769 -0.6842 -0.4530
35369SOL     OW 8113   1.489   1.861   8.364 -0.6554  0.2433  0.0676
35369SOL    HW1 8114   1.423   1.806   8.322 -0.1016  0.4666 -1.1486
35369SOL    HW2 8115   1.474   1.948   8.329  1.1508  0.0412 -1.3768
35370SOL     OW 8116   5.877   6.011   9.086 -0.1712 -0.2386  0.2431
35370SOL    HW1 8117   5.810   5.954   9.048  0.1386 -1.0647  0.9167
35370SOL    HW2 8118   5.923   6.046   9.010 -1.2139  0.1734 -0.2212
35371SOL     OW 8119   2.573   6.036   6.198 -0.2030 -0.1977 -0.6857
35371SOL    HW1 8120   2.542   5.961   6.249 -0.4936 -1.2741 -2.3481
35371SOL    HW2 8121   2.498   6.060   6.143 -0.4082  1.9114  0.4272
35372SOL     OW 8122   3.563   1.063   9.972 -0.2194 -0.1175 -1.0359
35372SOL    HW1 8123   3.651   1.101   9.978 -1.3996  2.9577 -1.3118
35372SOL    HW2 8124   3.541   1.040  10.062  0.6699 -0.5619 -0.9096
35373SOL     OW 8125   6.732   2.494   3.596 -0.1312 -0.4512  0.3608
35373SOL    HW1 8126   6.638   2.493   3.580  0.0710 -0.4584 -0.9249
35373SOL    HW2 8127   6.745   2.432   3.667 -0.8992 -1.8815 -0.6983
35374SOL     OW 8128   9.245   5.287  10.025 -0.5064 -0.0374 -0.1736
35374SOL    HW1 8129   9.174   5.338   9.985 -1.3658  0.2097  1.5529
35374SOL    HW2 8130   9.238   5.201   9.986 -1.8644 -0.0525  0.0404
35375SOL     OW 8131   1.265   7.860  10.730 -0.3985 -0.6587 -0.1340
35375SOL    HW1 8132   1.233   7.826  10.647 -2.0533  0.6421 -0.0782
35375SOL    HW2 8133   1.319   7.936  10.706  1.5957 -2.0156 -0.1441
35376SOL     OW 8134   2.696  10.344   1.851  0.1286  0.3426  0.4979
35376SOL    HW1 8135   2.687  10.271   1.911 -0.9573 -0.2922 -0.3834
35376SOL    HW2 8136   2.759  10.315   1.785 -1.4620 -0.4622 -0.7299
35377SOL     OW 8137   9.643   6.008   2.256 -0.2973  0.1190 -0.1287
35377SOL    HW1 8138   9.679   5.925   2.225 -0.2518 -0.2427  0.8624
35377SOL    HW2 8139   9.645   6.001   2.351 -1.4300  0.7776 -0.0472
35378SOL     OW 8140   6.883   9.964   2.208 -0.1752 -0.3495  0.3483
35378SOL    HW1 8141   6.966  10.008   2.225 -0.6169  0.0340  1.6301
35378SOL    HW2 8142   6.841  10.018   2.141  0.7350 -0.7437 -0.5722
35379SOL     OW 8143   5.474  10.250   6.947  0.1951 -0.0510  0.4344
35379SOL    HW1 8144   5.439  10.267   7.034 -1.8044  1.3691 -0.5629
35379SOL    HW2 8145   5.513  10.333   6.920  0.9795 -0.5352  0.0174
35380SOL     OW 8146   1.160   2.189   3.010  0.0129 -0.1144 -0.3123
35380SOL    HW1 8147   1.196   2.107   3.044  0.9110  0.1704 -0.5723
35380SOL    HW2 8148   1.234   2.233   2.968 -0.4186  0.9270 -0.0037
35381SOL     OW 8149   9.062   5.132   2.745  0.1395  0.0178 -0.6225
35381SOL    HW1 8150   9.033   5.222   2.757 -1.1730 -0.2705 -1.4554
35381SOL    HW2 8151   9.125   5.137   2.674 -0.9132  0.1251 -1.5740
35382SOL     OW 8152   7.788  10.927  10.638 -0.4730 -0.0449  0.3357
35382SOL    HW1 8153   7.788  11.017  10.672  3.6928  0.3876 -0.3013
35382SOL    HW2 8154   7.880  10.901  10.639 -1.5065 -4.4430  0.6354
35383SOL     OW 8155   1.261   0.822   5.104  0.2261 -0.0336 -0.6052
35383SOL    HW1 8156   1.351   0.792   5.112 -0.3446 -2.0030 -0.9929
35383SOL    HW2 8157   1.235   0.798   5.015 -0.5751  0.8186 -0.6172
35384SOL     OW 8158   2.970   9.990   0.316  0.8106  0.2750 -0.4357
35384SOL    HW1 8159   3.003  10.079   0.307  0.7611  0.8763  3.6719
35384SOL    HW2 8160   3.005   9.959   0.399 -4.1137 -1.2149  1.4225
35385SOL     OW 8161   8.220   5.303   8.151 -0.4401 -0.1026 -0.0197
35385SOL    HW1 8162   8.173   5.386   8.135  0.1872  0.5053  1.1386
35385SOL    HW2 8163   8.276   5.292   8.075  0.4440  1.2556  0.3896
35386SOL     OW 8164   1.495   6.414   3.933  0.4998  0.3452  0.2374
35386SOL    HW1 8165   1.564   6.432   3.869 -1.1665  1.7130 -1.2574
35386SOL    HW2 8166   1.435   6.354   3.887 -0.4063  0.8571  0.7247
35387SOL     OW 8167   2.759   4.320   4.975  0.0441  0.0701  0.2941
35387SOL    HW1 8168   2.767   4.336   4.881  0.2343  2.2402  0.6238
35387SOL    HW2 8169   2.666   4.331   4.994 -0.1700 -1.4264  0.2251
35388SOL     OW 8170   5.505  10.418   3.167  0.2383  0.4402 -0.3539
35388SOL    HW1 8171   5.460  10.492   3.208  1.8607  0.3801  1.6910
35388SOL    HW2 8172   5.593  10.419   3.205  0.3285 -2.5302 -0.2277
35389SOL     OW 8173  10.483   9.485   9.564 -0.1354  0.6405 -0.0621
35389SOL    HW1 8174  10.425   9.419   9.602 -0.4120 -0.1463 -1.7392
35389SOL    HW2 8175  10.568   9.440   9.557 -0.0005  0.8924 -0.0347
35390SOL     OW 8176   6.139   5.312   0.048  0.0206  0.1582  0.6558
35390SOL    HW1 8177   6.180   5.226   0.056  0.8401  0.5007  0.1475
35390SOL    HW2 8178   6.072   5.312   0.117  0.3991 -0.6617  1.0382
35391SOL     OW 8179   4.700  10.334   6.885  0.2860  0.1989  0.6280
35391SOL    HW1 8180   4.758  10.407   6.865 -1.4567  1.1468 -1.3345
35391SOL    HW2 8181   4.668  10.352   6.974  1.3942  0.7143  0.9368
35392SOL     OW 8182   6.153   1.204   8.809 -0.1311 -0.9479 -0.1889
35392SOL    HW1 8183   6.163   1.119   8.766  0.0587  0.0691 -2.3008
35392SOL    HW2 8184   6.069   1.237   8.778 -0.4581 -0.5513  1.0403
35393SOL     OW 8185   6.450   9.819   4.754 -0.6171  0.4165  0.1069
35393SOL    HW1 8186   6.464   9.909   4.722  1.3348  0.7441  1.6473
35393SOL    HW2 8187   6.359   9.817   4.782  0.3713  3.7238  4.8401
35394SOL     OW 8188   6.895  10.897   4.071  0.3421  0.8607 -0.1666
35394SOL    HW1 8189   6.875  10.804   4.083 -2.6996  1.7257  3.0556
35394SOL    HW2 8190   6.956  10.917   4.141  3.4782  0.8268 -2.6985
35395SOL     OW 8191   6.715   4.863   9.001  0.4557 -0.7281 -0.0464
35395SOL    HW1 8192   6.799   4.908   9.008  1.8213 -2.3168 -3.4382
35395SOL    HW2 8193   6.729   4.779   9.045  0.4848 -0.7677 -0.1293
35396SOL     OW 8194   5.275   1.864   0.329  0.0514 -0.5094 -0.5335
35396SOL    HW1 8195   5.228   1.883   0.247  0.3276 -0.4271 -0.6741
35396SOL    HW2 8196   5.356   1.823   0.301  0.8059  0.8219 -0.3878
35397SOL     OW 8197   7.044   7.754   1.339  0.7208  0.0883  0.7905
35397SOL    HW1 8198   7.118   7.808   1.367  1.0613 -0.0704  0.2159
35397SOL    HW2 8199   6.967   7.801   1.368  0.9423  1.6681 -0.9915
35398SOL     OW 8200   9.749   5.101   1.912  0.5900 -0.1443 -1.2385
35398SOL    HW1 8201   9.835   5.100   1.870  0.0020  1.2019 -2.5580
35398SOL    HW2 8202   9.722   5.193   1.910 -1.2117 -0.6437 -1.5530
35399SOL     OW 8203   8.874   2.768   5.117  0.4759 -0.0807 -0.3691
35399SOL    HW1 8204   8.968   2.777   5.129  0.6512  2.2948 -2.5873
35399SOL    HW2 8205   8.835   2.824   5.184  0.6172 -0.7120  0.2566
35400SOL     OW 8206   9.838   2.688   2.214  0.3540  0.1965  0.0433
35400SOL    HW1 8207   9.906   2.650   2.157  0.6494  1.4970 -0.4926
35400SOL    HW2 8208   9.801   2.612   2.259  1.0026 -0.7291 -0.9145
35401SOL     OW 8209   5.095   7.009   8.494  0.5997  0.3669  0.1604
35401SOL    HW1 8210   5.163   6.974   8.551  1.6627 -0.2318 -1.3953
35401SOL    HW2 8211   5.140   7.030   8.412 -0.8295  1.3308 -0.4371
35402SOL     OW 8212   3.636   3.206   9.306 -0.4242 -0.3569  0.8914
35402SOL    HW1 8213   3.619   3.228   9.215  2.5354  1.4581  0.6340
35402SOL    HW2 8214   3.571   3.255   9.356 -1.6509 -0.8384 -0.1889
35403SOL     OW 8215  10.622   7.079   5.220 -0.4857 -0.3880 -0.1346
35403SOL    HW1 8216  10.556   7.129   5.269 -0.7764 -0.4695 -0.4319
35403SOL    HW2 8217  10.705   7.099   5.263 -0.0302  3.0615 -2.2227
35404SOL     OW 8218   4.711   6.338   8.116  0.0980 -0.4693 -0.0014
35404SOL    HW1 8219   4.784   6.278   8.100  0.8497  0.0468  1.2658
35404SOL    HW2 8220   4.659   6.295   8.183 -0.4149 -0.5437 -0.4431
35405SOL     OW 8221   8.453   4.027   9.906  0.6258  0.7873  0.0029
35405SOL    HW1 8222   8.446   3.936   9.936  1.8206  0.1044 -1.6299
35405SOL    HW2 8223   8.494   4.021   9.820 -0.9199  2.7577 -0.9752
35406SOL     OW 8224   4.149   2.239   8.939 -0.4250 -0.6951 -0.0949
35406SOL    HW1 8225   4.084   2.174   8.913 -1.1915  0.0769 -0.1579
35406SOL    HW2 8226   4.155   2.299   8.864 -0.9334  0.2278  0.5854
35407SOL     OW 8227   8.366   1.045   5.790  0.0190 -0.5779  0.2632
35407SOL    HW1 8228   8.374   0.950   5.780 -2.2181 -0.6392 -2.0299
35407SOL    HW2 8229   8.289   1.058   5.845 -0.4543 -0.1265 -0.4856
35408SOL     OW 8230  10.789   1.376   5.843  0.0098 -0.7096  0.1036
35408SOL    HW1 8231  10.765   1.285   5.824 -1.1952 -0.4177  0.1782
35408SOL    HW2 8232  10.733   1.401   5.917 -1.5122  0.8809 -1.4898
35409SOL     OW 8233   0.483   6.368  10.749  0.6032  0.2928 -0.2092
35409SOL    HW1 8234   0.458   6.381  10.841 -0.9160 -1.2800 -0.3425
35409SOL    HW2 8235   0.407   6.324  10.710  0.9550  1.4931 -2.3927
35410SOL     OW 8236   3.772  10.216  10.101  0.0179 -0.1750  0.1003
35410SOL    HW1 8237   3.682  10.183  10.106 -0.5809  1.4030  0.4957
35410SOL    HW2 8238   3.797  10.206  10.010 -0.8266 -0.0161 -0.1568
35411SOL     OW 8239   5.772   0.348   6.566 -0.3547 -0.0019  0.1620
35411SOL    HW1 8240   5.833   0.315   6.500  0.4943 -1.3348  1.5563
35411SOL    HW2 8241   5.782   0.444   6.562  2.0168 -0.1764  0.4772
35412SOL     OW 8242   7.600  10.892   3.424 -0.1166 -0.5212 -0.4191
35412SOL    HW1 8243   7.635  10.913   3.337 -2.9720  0.7098 -1.3718
35412SOL    HW2 8244   7.643  10.810   3.447  2.2506  0.1427 -2.0539
35413SOL     OW 8245   2.027   2.143   8.212  0.6879 -0.2551 -0.2613
35413SOL    HW1 8246   1.933   2.157   8.222  0.4204 -1.9917  0.1160
35413SOL    HW2 8247   2.037   2.048   8.211  2.5198 -0.1302  0.5427
35414SOL     OW 8248   4.154   3.117   3.539 -0.1083  0.5291 -0.3796
35414SOL    HW1 8249   4.139   3.171   3.461  0.1009  0.5991 -0.3736
35414SOL    HW2 8250   4.214   3.169   3.592 -2.8819  2.1111  1.4826
35415SOL     OW 8251   8.859   3.343   3.659 -0.2033  0.0089  0.4574
35415SOL    HW1 8252   8.951   3.372   3.664  0.2042 -0.8073 -1.5697
35415SOL    HW2 8253   8.821   3.374   3.741  1.0794  3.1555  0.0194
35416SOL     OW 8254  11.063   1.897   6.349 -0.1212  0.0404  0.4572
35416SOL    HW1 8255  10.979   1.938   6.334 -0.3473 -0.1455  1.1510
35416SOL    HW2 8256  11.044   1.824   6.408  0.5405  0.0795  0.7345
35417SOL     OW 8257   9.390   9.024   1.376 -0.1695  0.1886  0.3636
35417SOL    HW1 8258   9.326   9.031   1.447  0.4948  0.0632  0.9859
35417SOL    HW2 8259   9.467   9.069   1.409  0.4922 -0.7417  0.1166
35418SOL     OW 8260   9.903   7.067   4.287  0.2443 -0.2027  0.3843
35418SOL    HW1 8261   9.969   7.002   4.313  0.9916  0.7473  0.9111
35418SOL    HW2 8262   9.953   7.143   4.260 -0.6500  0.5324  0.7625
35419SOL     OW 8263   8.182   5.519   4.655 -0.1210  0.1483  0.5324
35419SOL    HW1 8264   8.277   5.522   4.650 -0.1355  0.4114  0.4291
35419SOL    HW2 8265   8.155   5.610   4.670 -0.2966 -0.0658  1.5670
35420SOL     OW 8266   6.643  11.115   6.616  0.1338 -0.1447 -0.2547
35420SOL    HW1 8267   6.714  11.139   6.675  0.3460  0.1743 -0.6364
35420SOL    HW2 8268   6.587  11.192   6.613 -0.3693 -0.4817  0.2409
35421SOL     OW 8269   8.533   1.221   4.804 -0.3662 -0.0506  0.1964
35421SOL    HW1 8270   8.600   1.272   4.759 -1.1217 -1.9127 -3.3704
35421SOL    HW2 8271   8.499   1.281   4.871  2.5829  2.0371  0.0539
35422SOL     OW 8272  10.695   3.800   4.742  0.1771  0.2556  0.1484
35422SOL    HW1 8273  10.706   3.832   4.832  0.4786  0.9022 -0.1153
35422SOL    HW2 8274  10.698   3.705   4.751  0.3692  0.3135  0.8051
35423SOL     OW 8275   4.498   3.464   2.068  0.0660 -0.3971 -0.1143
35423SOL    HW1 8276   4.560   3.536   2.081  1.2432 -1.0402 -1.8784
35423SOL    HW2 8277   4.527   3.421   1.987 -1.4399 -2.0087  0.1436
35424SOL     OW 8278   9.854   9.361   1.310  0.5328  0.0241 -0.1029
35424SOL    HW1 8279   9.910   9.291   1.341 -0.5823 -1.4256 -1.2053
35424SOL    HW2 8280   9.837   9.415   1.387  0.5049 -1.5703  1.0503
35425SOL     OW 8281   2.469   1.174   9.800 -0.3494  0.4331 -0.0325
35425SOL    HW1 8282   2.493   1.118   9.726  0.1261  0.2953  0.2212
35425SOL    HW2 8283   2.545   1.171   9.859 -0.4496  1.0781  0.1443
35426SOL     OW 8284   1.355   5.351  10.832  0.4410 -0.3467  0.0114
35426SOL    HW1 8285   1.443   5.319  10.813  0.2781 -1.3897  0.9221
35426SOL    HW2 8286   1.302   5.272  10.837 -0.3215  0.1914  0.6474
35427SOL     OW 8287   7.002   1.512  10.327 -0.2981  0.6235 -0.6018
35427SOL    HW1 8288   6.965   1.424  10.327 -1.4520  1.0825  0.2009
35427SOL    HW2 8289   6.933   1.567  10.364  1.2097  1.5181  1.0151
35428SOL     OW 8290   0.016   5.729   4.844 -0.7202  0.5360  0.7040
35428SOL    HW1 8291   0.077   5.800   4.865 -0.6368  0.3341  1.1426
35428SOL    HW2 8292   0.057   5.684   4.769 -2.2741  2.8522 -1.7121
35429SOL     OW 8293   3.720   5.007  11.060  0.7712 -0.1386 -0.7773
35429SOL    HW1 8294   3.634   4.966  11.071  1.9495 -2.5020  0.0729
35429SOL    HW2 8295   3.703   5.081  11.001 -1.7998 -0.6378 -0.7803
35430SOL     OW 8296   7.123   8.526   0.924 -0.6771  0.0938 -0.3998
35430SOL    HW1 8297   7.193   8.538   0.859  0.8713 -0.7765  1.0193
35430SOL    HW2 8298   7.045   8.563   0.883 -0.4866 -2.9064 -3.9338
35431SOL     OW 8299   0.437   9.041  11.101  0.2237 -0.0481 -0.7068
35431SOL    HW1 8300   0.488   9.039  11.182  0.2494  0.9629 -0.6940
35431SOL    HW2 8301   0.498   9.071  11.034 -0.3914  1.4626 -0.6374
35432SOL     OW 8302   6.229   4.601  11.130  0.2063  0.4664  0.2781
35432SOL    HW1 8303   6.208   4.539  11.061  0.3057  0.9643 -0.2083
35432SOL    HW2 8304   6.294   4.556  11.184  0.9462  0.4674 -0.5805
35433SOL     OW 8305   5.211   5.393  10.261  0.0589 -0.1295 -0.1329
35433SOL    HW1 8306   5.196   5.306  10.297 -1.1677 -1.2895 -3.0722
35433SOL    HW2 8307   5.303   5.412  10.279 -0.1512 -1.1040  2.2792
35434SOL     OW 8308   4.804  10.068  10.563 -0.4079  0.4024 -0.0314
35434SOL    HW1 8309   4.735  10.003  10.578  0.7828 -0.8445  0.2275
35434SOL    HW2 8310   4.834  10.052  10.474 -0.5389  1.0435 -0.1977
35435SOL     OW 8311   8.361   9.902   7.536 -0.9990  0.6163  0.4931
35435SOL    HW1 8312   8.423   9.845   7.491 -0.0484  1.6351  0.4793
35435SOL    HW2 8313   8.278   9.855   7.532 -0.1241 -1.0238  0.9913
35436SOL     OW 8314   6.849   3.382   7.209  0.0889  0.3828 -0.2915
35436SOL    HW1 8315   6.842   3.461   7.263  1.1678 -0.0512  0.5142
35436SOL    HW2 8316   6.810   3.408   7.125  1.4630  2.1687 -0.4445
35437SOL     OW 8317   4.644   7.356   3.354 -0.6118  0.3596  0.1886
35437SOL    HW1 8318   4.698   7.391   3.282 -0.9630  0.4868 -0.0130
35437SOL    HW2 8319   4.600   7.280   3.315 -1.9313  1.2795 -0.1686
35438SOL     OW 8320   1.806   8.701   6.247 -0.3835 -0.4510  0.3209
35438SOL    HW1 8321   1.725   8.734   6.209  1.0068  0.6433 -1.9116
35438SOL    HW2 8322   1.783   8.616   6.284 -2.5682 -0.0555  0.0107
35439SOL     OW 8323   7.425   9.466   6.585 -0.2329  0.5736  0.3363
35439SOL    HW1 8324   7.345   9.432   6.627 -0.2287  0.0483 -0.0732
35439SOL    HW2 8325   7.490   9.397   6.600  0.8232  1.9246  2.6591
35440SOL     OW 8326   1.571   5.129   8.303  0.3075 -0.7204  0.3083
35440SOL    HW1 8327   1.621   5.182   8.241 -2.1616  0.1204 -1.1112
35440SOL    HW2 8328   1.594   5.039   8.282  0.5316 -0.3843 -0.9484
35441SOL     OW 8329   2.071   1.852   8.193 -0.1879  0.1604  0.4110
35441SOL    HW1 8330   2.028   1.841   8.108 -0.3412 -1.1610  0.6411
35441SOL    HW2 8331   2.131   1.778   8.200  3.1700  2.5088 -0.4278
35442SOL     OW 8332   0.003   2.421   1.132  0.1833 -0.0968 -0.6211
35442SOL    HW1 8333   0.015   2.340   1.082  2.3242  0.4962 -1.1744
35442SOL    HW2 8334   0.070   2.416   1.201  1.1694  1.6940 -1.3803
35443SOL     OW 8335   9.743   7.095   0.873  0.7298 -0.2083  0.5023
35443SOL    HW1 8336   9.710   7.157   0.938  0.0232 -1.1434  1.0620
35443SOL    HW2 8337   9.835   7.117   0.863  0.6255  0.5426  1.1347
35444SOL     OW 8338   7.954   2.862   8.672 -0.3423 -0.8618 -0.3053
35444SOL    HW1 8339   7.903   2.792   8.630 -0.3885 -1.7567  1.1920
35444SOL    HW2 8340   7.904   2.886   8.749 -0.2711  0.7970 -0.7281
35445SOL     OW 8341   7.423   2.385   9.755  0.0169 -0.0653 -0.4469
35445SOL    HW1 8342   7.451   2.455   9.697  2.1104 -1.6414 -1.4531
35445SOL    HW2 8343   7.416   2.308   9.699  1.9153 -1.6082  1.2769
35446SOL     OW 8344   1.877   6.608   3.175  0.3559  0.0359  0.2249
35446SOL    HW1 8345   1.843   6.584   3.089 -1.8232 -1.0745  1.3140
35446SOL    HW2 8346   1.893   6.702   3.170 -1.4139  0.3239 -0.8780
35447SOL     OW 8347   4.335   6.145   0.899 -0.0065 -0.0523 -0.4801
35447SOL    HW1 8348   4.331   6.192   0.982  0.6932  2.7319 -1.9166
35447SOL    HW2 8349   4.428   6.143   0.877 -0.3171  1.0954 -2.1133
35448SOL     OW 8350   0.629   4.398   8.249 -0.2283  0.0555  0.2784
35448SOL    HW1 8351   0.664   4.309   8.247  0.9078  0.5041 -0.9389
35448SOL    HW2 8352   0.607   4.418   8.158 -1.0371  0.8108  0.6236
35449SOL     OW 8353   3.916   3.251   2.886  0.1564  0.3509  0.1310
35449SOL    HW1 8354   3.834   3.244   2.837 -0.4887 -1.4362  1.3723
35449SOL    HW2 8355   3.983   3.260   2.819 -1.0344  2.1582 -0.9171
35450SOL     OW 8356   6.278   0.431   9.434  0.1869  0.6679 -0.0294
35450SOL    HW1 8357   6.203   0.465   9.483  0.1326  3.9138 -2.0590
35450SOL    HW2 8358   6.261   0.337   9.427 -1.8172  0.7209  2.6025
35451SOL     OW 8359   6.938   2.083   1.292  0.6206 -0.4812 -0.6628
35451SOL    HW1 8360   7.006   2.086   1.358  1.0632  0.9130 -1.1500
35451SOL    HW2 8361   6.967   2.144   1.224 -2.3257  2.3636  0.3450
35452SOL     OW 8362   9.617   3.907   1.067 -0.5741 -0.4216  0.7626
35452SOL    HW1 8363   9.649   3.817   1.075  2.3421  0.6122  1.8244
35452SOL    HW2 8364   9.544   3.912   1.129 -0.1464 -1.7794  1.4129
35453SOL     OW 8365   4.651   2.862   4.165  0.5139  0.8473 -0.0547
35453SOL    HW1 8366   4.604   2.797   4.113  1.0381 -0.4530  1.0425
35453SOL    HW2 8367   4.597   2.873   4.244  1.4161  0.2344  0.6679
35454SOL     OW 8368   1.920  10.378   6.090  0.1359 -0.1600 -0.5496
35454SOL    HW1 8369   1.876  10.448   6.137  0.8953  0.4416 -0.7082
35454SOL    HW2 8370   1.856  10.346   6.027 -0.2332  0.3592 -0.4389
35455SOL     OW 8371   5.144  11.209   5.052 -0.1305 -0.5808 -0.1683
35455SOL    HW1 8372   5.184  11.228   4.967 -0.6726 -1.5404 -0.6560
35455SOL    HW2 8373   5.051  11.224   5.039 -0.1805 -0.4099  0.3585
35456SOL     OW 8374   2.509   1.881  10.185 -0.9152 -0.2125  0.9776
35456SOL    HW1 8375   2.448   1.890  10.258 -0.3219  1.4364  1.3135
35456SOL    HW2 8376   2.532   1.971  10.161  0.0057 -0.7497 -0.3066
35457SOL     OW 8377  10.278   3.594   8.627  0.4046 -0.1581 -0.2266
35457SOL    HW1 8378  10.339   3.663   8.654  1.5917 -1.5419  0.7949
35457SOL    HW2 8379  10.196   3.615   8.672  0.9061  0.3133  0.4927
35458SOL     OW 8380   2.290   0.056   4.493  0.3960 -0.2703 -0.5987
35458SOL    HW1 8381   2.206   0.091   4.464 -0.3790 -1.8603 -0.3789
35458SOL    HW2 8382   2.344   0.053   4.414 -0.0786 -0.1147 -0.9288
35459SOL     OW 8383   8.054   3.874   3.643 -0.8422  0.2030  0.1047
35459SOL    HW1 8384   8.060   3.793   3.694 -3.5363  1.3887  2.6598
35459SOL    HW2 8385   8.134   3.877   3.591 -1.3444 -4.8624 -1.4347
35460SOL     OW 8386   1.947   6.937   4.602 -0.3829 -0.0029 -0.1108
35460SOL    HW1 8387   2.011   6.962   4.535  1.2121 -1.8292  0.6331
35460SOL    HW2 8388   1.873   6.903   4.552  1.4110 -2.8673 -1.0879
35461SOL     OW 8389   9.632   8.916   0.976  0.0411 -0.0520  0.1473
35461SOL    HW1 8390   9.546   8.936   1.013 -0.1783 -0.8470  0.0971
35461SOL    HW2 8391   9.612   8.866   0.896  0.5329  0.5290 -0.3477
35462SOL     OW 8392   9.021   9.146  10.744 -0.4018  0.1873  0.0743
35462SOL    HW1 8393   8.979   9.200  10.677 -2.3217 -0.2120  0.8882
35462SOL    HW2 8394   9.057   9.209  10.807 -1.4425  0.5437  0.3238
35463SOL     OW 8395   9.363   5.319   6.035  0.1199  0.0802 -0.3784
35463SOL    HW1 8396   9.285   5.280   6.076  0.3394  1.4184  1.3957
35463SOL    HW2 8397   9.392   5.386   6.096  2.2838  0.0968 -1.3360
35464SOL     OW 8398   2.968   9.489  11.022 -0.2208 -0.3210  0.0946
35464SOL    HW1 8399   2.883   9.510  10.984  0.7107  2.6305 -0.6588
35464SOL    HW2 8400   2.959   9.512  11.114 -0.1718  0.3600 -0.0615
35465SOL     OW 8401   7.941   0.318   7.813  0.5713  0.9096 -0.6140
35465SOL    HW1 8402   7.895   0.367   7.882  1.6586  0.2460  0.6334
35465SOL    HW2 8403   8.020   0.369   7.797  0.8343  0.5107 -0.5994
35466SOL     OW 8404   4.138  11.214   6.079  0.3119 -0.0391 -0.0899
35466SOL    HW1 8405   4.137  11.137   6.136  2.0904  0.3434  0.5430
35466SOL    HW2 8406   4.048  11.222   6.048 -0.7809 -0.2563  2.6852
35467SOL     OW 8407   4.733   8.630   7.509 -0.2135  0.1890 -0.2363
35467SOL    HW1 8408   4.709   8.676   7.429 -0.2046 -1.1094 -1.0083
35467SOL    HW2 8409   4.810   8.579   7.486 -0.7187 -0.8836  0.3342
35468SOL     OW 8410   4.043   9.866   4.645  0.5891  0.6207 -0.3158
35468SOL    HW1 8411   3.989   9.912   4.709  0.8580 -0.8131  1.0222
35468SOL    HW2 8412   4.131   9.900   4.659  0.6994  0.0962  0.3118
35469SOL     OW 8413   4.791   0.799  10.208  0.9802 -0.0990  0.3611
35469SOL    HW1 8414   4.793   0.721  10.151 -0.5049 -1.1341  1.6206
35469SOL    HW2 8415   4.876   0.841  10.195  1.3190 -1.2099 -1.3464
35470SOL     OW 8416   8.224   4.398   1.521  0.0903 -0.2223 -0.0735
35470SOL    HW1 8417   8.177   4.481   1.518  2.5150  1.2799 -4.1763
35470SOL    HW2 8418   8.307   4.419   1.564  0.9249 -0.3477 -1.5820
35471SOL     OW 8419   0.779   0.420   9.407  0.0513 -0.3866  0.4736
35471SOL    HW1 8420   0.725   0.495   9.383  1.3565  0.5997  0.5780
35471SOL    HW2 8421   0.718   0.361   9.452 -1.5957 -0.6059 -1.8806
35472SOL     OW 8422   7.160   3.300   7.828  0.2893 -0.0867 -0.2148
35472SOL    HW1 8423   7.250   3.332   7.834  1.4132 -2.2485 -3.0239
35472SOL    HW2 8424   7.165   3.208   7.854 -1.7543  0.4272  2.3605
35473SOL     OW 8425   5.659   2.516   2.621  0.4025  0.2773  0.3702
35473SOL    HW1 8426   5.680   2.427   2.590  0.7741  0.3174  0.5083
35473SOL    HW2 8427   5.689   2.573   2.550  2.1528  0.4402  1.1894
35474SOL     OW 8428   2.734   6.511   8.629 -0.2311  0.4474  0.2375
35474SOL    HW1 8429   2.787   6.589   8.615 -0.4981  0.8234  1.2520
35474SOL    HW2 8430   2.784   6.458   8.690  0.1857 -0.4355 -0.8296
35475SOL     OW 8431   6.047   7.090   1.534 -0.9385 -0.4302 -0.1016
35475SOL    HW1 8432   6.093   7.133   1.606  1.3381 -0.3500 -1.4961
35475SOL    HW2 8433   5.992   7.158   1.496  1.2024  0.8204 -1.1162
35476SOL     OW 8434   4.184   5.294   0.961  0.3570  0.4793  0.3400
35476SOL    HW1 8435   4.166   5.350   0.886  0.1977  0.4170  0.3314
35476SOL    HW2 8436   4.273   5.318   0.988  1.2089 -0.8817 -1.0789
35477SOL     OW 8437   6.285   6.656   7.155 -0.1517  0.1300 -0.1712
35477SOL    HW1 8438   6.353   6.723   7.145  1.3394 -1.1914  0.7686
35477SOL    HW2 8439   6.248   6.673   7.241 -0.3421  0.2419 -0.2737
35478SOL     OW 8440   7.757  10.190   8.174 -0.6464 -0.3538 -0.0765
35478SOL    HW1 8441   7.736  10.103   8.138  0.3682 -0.6498  0.0123
35478SOL    HW2 8442   7.689  10.206   8.240  0.5585 -2.2164  1.7424
35479SOL     OW 8443   1.630   5.164   2.266  0.3675 -0.4610  0.6797
35479SOL    HW1 8444   1.555   5.214   2.233  1.2975  2.3165  2.4061
35479SOL    HW2 8445   1.592   5.100   2.326 -0.7082 -0.0218  0.5011
35480SOL     OW 8446   7.262  10.398   1.720 -0.3478  0.1644  0.2810
35480SOL    HW1 8447   7.178  10.389   1.764 -0.2260 -0.2525  0.4289
35480SOL    HW2 8448   7.241  10.443   1.638 -0.8399 -0.6693 -0.0606
35481SOL     OW 8449   6.258   7.347   5.064 -0.2804  0.1087 -0.0981
35481SOL    HW1 8450   6.251   7.437   5.030  1.6941  0.3851  0.0973
35481SOL    HW2 8451   6.218   7.351   5.151  1.8143  1.4320  0.8909
35482SOL     OW 8452   3.134   6.176   6.510 -0.7139 -0.1158 -0.0068
35482SOL    HW1 8453   3.051   6.222   6.524  0.4071  1.4262  2.0086
35482SOL    HW2 8454   3.201   6.237   6.540  1.3825 -0.5390 -3.2837
35483SOL     OW 8455   9.024   1.929   5.325  0.4303  0.0655  0.0348
35483SOL    HW1 8456   8.999   1.976   5.405 -0.5907  2.0986 -1.3619
35483SOL    HW2 8457   9.114   1.956   5.309  0.0927  1.0210 -0.3563
35484SOL     OW 8458  10.278   1.077   6.730  0.6338 -0.0161 -0.1313
35484SOL    HW1 8459  10.275   1.146   6.664  0.9124 -1.7067 -1.9981
35484SOL    HW2 8460  10.265   1.123   6.813 -0.3957  2.1078 -1.3820
35485SOL     OW 8461   6.724   0.111   5.925  0.0468  0.1673 -0.3927
35485SOL    HW1 8462   6.763   0.101   6.012 -0.7050 -1.1431 -0.1655
35485SOL    HW2 8463   6.792   0.082   5.864  0.1437 -0.1197 -0.1504
35486SOL     OW 8464   4.898   8.591   2.852  0.7180 -0.3091  0.2731
35486SOL    HW1 8465   4.981   8.579   2.897  0.0911 -0.6973  1.3737
35486SOL    HW2 8466   4.832   8.582   2.921 -0.2807 -0.9375 -0.7215
35487SOL     OW 8467   6.866   4.546   0.857  0.4916 -0.2807 -0.3149
35487SOL    HW1 8468   6.886   4.485   0.786  0.1322 -0.5544 -0.1796
35487SOL    HW2 8469   6.772   4.561   0.851  0.0636 -1.9670  1.4161
35488SOL     OW 8470   3.222   3.058   8.814 -0.3873  0.1410 -0.4985
35488SOL    HW1 8471   3.250   2.977   8.857 -0.1075  1.8332  2.8618
35488SOL    HW2 8472   3.221   3.037   8.721  3.4602 -2.5922 -0.1567
35489SOL     OW 8473   1.864   6.593   4.236  0.3877  0.3810 -0.0881
35489SOL    HW1 8474   1.897   6.577   4.325 -0.9130 -0.6676  0.2377
35489SOL    HW2 8475   1.777   6.554   4.236 -0.0656  1.3414 -1.5101
35490SOL     OW 8476   0.137  10.643   2.664 -0.4492  0.1063  0.2256
35490SOL    HW1 8477   0.182  10.648   2.749 -0.8860 -2.6833  0.7247
35490SOL    HW2 8478   0.168  10.720   2.616  2.6588 -0.1448  1.5675
35491SOL     OW 8479   5.264   9.484   7.086  0.5176 -0.4913 -0.1961
35491SOL    HW1 8480   5.210   9.554   7.121  1.1238 -0.6152  1.0400
35491SOL    HW2 8481   5.286   9.512   6.997 -1.4395 -0.3911 -0.6877
35492SOL     OW 8482  10.613  11.195   6.268  0.2171  0.8405 -1.1110
35492SOL    HW1 8483  10.538  11.141   6.291  0.3010  1.2196  0.1085
35492SOL    HW2 8484  10.606  11.206   6.173 -1.1473  0.7084 -1.0446
35493SOL     OW 8485   6.530   9.369   1.176  0.2910 -0.4827 -0.5951
35493SOL    HW1 8486   6.478   9.362   1.256 -0.3659  2.3692 -0.6737
35493SOL    HW2 8487   6.606   9.313   1.193  0.3321  0.2280  2.2090
35494SOL     OW 8488   8.890   6.654   0.442  1.2303  0.1003 -0.4661
35494SOL    HW1 8489   8.819   6.627   0.385 -0.5339  1.2011  1.1051
35494SOL    HW2 8490   8.928   6.730   0.399 -1.3073  2.1089  0.6106
35495SOL     OW 8491  10.127   6.892   3.397 -0.1679  0.5239 -0.2086
35495SOL    HW1 8492  10.071   6.965   3.371 -0.3276  0.6091  0.3600
35495SOL    HW2 8493  10.183   6.928   3.467  0.2854  0.3181 -0.4621
35496SOL     OW 8494   0.161   2.742   6.480  1.0013 -0.4607  0.0625
35496SOL    HW1 8495   0.096   2.757   6.548 -0.1461  1.0912 -1.3023
35496SOL    HW2 8496   0.164   2.647   6.471 -0.2470 -0.6092  0.9387
35497SOL     OW 8497   5.487   3.193  10.958 -0.3386 -0.1767  0.3315
35497SOL    HW1 8498   5.456   3.217  11.046  3.1005  2.0714  1.1539
35497SOL    HW2 8499   5.436   3.249  10.899 -2.6802 -1.7021  0.7949
35498SOL     OW 8500   3.352   8.762   4.502 -0.3471 -0.1975 -0.0702
35498SOL    HW1 8501   3.360   8.709   4.422  0.4649  1.0203 -0.8389
35498SOL    HW2 8502   3.293   8.712   4.558 -1.6852 -0.6600 -1.7945
35499SOL     OW 8503   2.098  10.552   1.597 -1.1188  0.4843 -0.2273
35499SOL    HW1 8504   2.061  10.504   1.523 -2.2323 -1.4987  1.4871
35499SOL    HW2 8505   2.028  10.551   1.663  0.2100  1.1855  1.2561
35500SOL     OW 8506   1.306   9.069   9.354  0.1364 -0.2293  0.0336
35500SOL    HW1 8507   1.255   8.993   9.328  2.2988 -1.6881 -0.2454
35500SOL    HW2 8508   1.318   9.058   9.449 -1.0860  0.7941  0.3268
35501SOL     OW 8509   3.661   8.045   0.897 -0.0148  0.1093  0.3006
35501SOL    HW1 8510   3.727   8.029   0.830  0.8347  1.9923  0.6430
35501SOL    HW2 8511   3.709   8.040   0.980 -0.1216  2.1048  0.5265
35502SOL     OW 8512   2.493   5.046   4.142 -0.0170  0.3286 -0.1363
35502SOL    HW1 8513   2.537   4.975   4.188 -1.1295  0.4282  1.1435
35502SOL    HW2 8514   2.494   5.119   4.204  0.5207  1.2383 -1.1781
35503SOL     OW 8515   7.307   5.791   6.712  0.1246  0.1169 -0.3747
35503SOL    HW1 8516   7.274   5.880   6.707 -1.2514 -0.4350 -2.8212
35503SOL    HW2 8517   7.309   5.771   6.806 -4.1705  1.1033  0.1373
35504SOL     OW 8518   5.018   2.119   4.187 -0.0401 -0.2305  0.5272
35504SOL    HW1 8519   4.930   2.086   4.171 -0.2848  0.4901  0.3307
35504SOL    HW2 8520   5.006   2.213   4.200  0.8285  0.0435 -0.5540
35505SOL     OW 8521   5.850   3.903   1.851 -0.5980 -0.5883  0.0334
35505SOL    HW1 8522   5.822   3.893   1.759 -1.5641 -2.0428  0.4502
35505SOL    HW2 8523   5.892   3.820   1.872  1.8856  0.6361  0.2114
35506SOL     OW 8524   4.434   2.051   0.785 -0.1976 -0.1108  0.3114
35506SOL    HW1 8525   4.434   2.071   0.879  3.6172 -0.5550  0.5437
35506SOL    HW2 8526   4.435   2.137   0.743 -2.7177  0.1107  0.5412
35507SOL     OW 8527   9.492   1.960   3.089 -0.6308  0.2484 -0.1907
35507SOL    HW1 8528   9.538   1.919   3.162 -0.6370  0.7857  0.1216
35507SOL    HW2 8529   9.555   1.960   3.017 -0.3258  0.4863  0.0730
35508SOL     OW 8530   7.477   6.029   6.187 -0.2795 -0.1092  0.4991
35508SOL    HW1 8531   7.565   5.993   6.199  1.4633  2.7935 -2.1713
35508SOL    HW2 8532   7.423   5.953   6.163  1.3489 -1.9886  2.3463
35509SOL     OW 8533   7.804   2.934  10.523  0.4416  0.1536 -0.0595
35509SOL    HW1 8534   7.715   2.958  10.549  0.7943  2.2752 -0.6323
35509SOL    HW2 8535   7.829   2.865  10.585 -2.4156 -2.3275 -1.3766
35510SOL     OW 8536   6.281   5.689   4.174 -0.3047  0.6375 -0.0666
35510SOL    HW1 8537   6.357   5.688   4.231 -0.9059 -0.2983  0.7485
35510SOL    HW2 8538   6.241   5.775   4.189  0.6384  1.1945 -0.6117
35511SOL     OW 8539   0.302   5.641   8.164  0.1673  0.3150  0.6130
35511SOL    HW1 8540   0.304   5.582   8.240 -0.1418 -0.6394 -0.0944
35511SOL    HW2 8541   0.260   5.720   8.196 -1.8641 -0.8283  0.9546
35512SOL     OW 8542  11.025   7.681   3.326  0.2160 -0.1206  0.2825
35512SOL    HW1 8543  11.118   7.662   3.340  0.7504  1.2123 -1.1616
35512SOL    HW2 8544  11.022   7.776   3.315 -1.2913 -0.1778  0.0206
35513SOL     OW 8545   6.960   7.998   1.796 -0.2375  0.4298 -0.6439
35513SOL    HW1 8546   6.955   8.067   1.730  0.2014  3.3192  2.1357
35513SOL    HW2 8547   6.918   8.035   1.873  1.8637 -1.6104  1.6582
35514SOL     OW 8548   0.966   3.640   8.541 -0.0950  0.1858 -0.1879
35514SOL    HW1 8549   0.969   3.735   8.555 -0.4239 -0.1698  3.1423
35514SOL    HW2 8550   1.012   3.627   8.458  0.6808  3.1739 -0.3698
35515SOL     OW 8551   2.026   6.496   1.717  0.6027  0.4766  0.2315
35515SOL    HW1 8552   2.031   6.432   1.788 -3.3714  1.4108  1.5668
35515SOL    HW2 8553   1.994   6.576   1.758  2.1680  2.3931 -1.9983
35516SOL     OW 8554   5.090   6.719   1.382  0.2398  0.1715 -0.1529
35516SOL    HW1 8555   5.045   6.768   1.313 -3.6670 -2.6433  0.0898
35516SOL    HW2 8556   5.174   6.764   1.392 -0.3563  2.7619 -4.3193
35517SOL     OW 8557   9.758   8.453   1.125  0.4708  0.1597 -0.1424
35517SOL    HW1 8558   9.727   8.387   1.063 -0.6789  0.9765 -0.4821
35517SOL    HW2 8559   9.759   8.534   1.074 -1.1041  0.9735  1.0398
35518SOL     OW 8560   4.919  10.290   5.877 -0.5352  0.1103  0.0682
35518SOL    HW1 8561   4.949  10.313   5.789  0.5416 -0.0044  0.3964
35518SOL    HW2 8562   4.931  10.369   5.929  0.0360 -0.1930  0.4074
35519SOL     OW 8563   3.317   5.813   4.639 -0.1175 -0.0543  0.6842
35519SOL    HW1 8564   3.283   5.901   4.625 -0.1801 -0.3306 -1.3476
35519SOL    HW2 8565   3.240   5.761   4.661 -0.1179  0.3301  1.6337
35520SOL     OW 8566   3.393   9.446   1.185  0.1770  0.2358  0.7991
35520SOL    HW1 8567   3.447   9.517   1.221 -0.6568  2.4196 -1.8774
35520SOL    HW2 8568   3.449   9.405   1.118 -0.2781  0.1937  0.4408
35521SOL     OW 8569   7.718   3.138   6.740 -0.0212  0.9771  0.1321
35521SOL    HW1 8570   7.789   3.078   6.718 -0.9692 -0.0236 -0.3264
35521SOL    HW2 8571   7.642   3.102   6.693 -0.3029  3.4367 -1.4596
35522SOL     OW 8572   9.394   9.370  10.570  0.1563 -0.2035  0.1064
35522SOL    HW1 8573   9.389   9.429  10.495 -0.7092 -1.1370 -0.5970
35522SOL    HW2 8574   9.421   9.286  10.533 -0.7455 -0.7957  0.7607
35523SOL     OW 8575   4.777   5.003   8.161 -0.1202  0.5122  0.1869
35523SOL    HW1 8576   4.706   4.938   8.163 -0.4466  0.8564  0.0058
35523SOL    HW2 8577   4.804   5.005   8.069 -0.2229  0.7475  0.1598
35524SOL     OW 8578   1.712   0.130   0.730  0.0620 -0.2096 -0.1010
35524SOL    HW1 8579   1.694   0.038   0.714  0.1660 -0.5195  1.4199
35524SOL    HW2 8580   1.766   0.131   0.809  1.1909  1.0832 -0.8371
35525SOL     OW 8581   0.075   0.153   1.840  0.7506  0.1318  0.1689
35525SOL    HW1 8582   0.144   0.215   1.816  0.7352 -0.4525 -1.5033
35525SOL    HW2 8583  -0.006   0.202   1.824  0.6846  1.1828  3.1071
35526SOL     OW 8584   1.590   8.118   5.830 -0.3708  0.4110  0.0006
35526SOL    HW1 8585   1.555   8.170   5.903 -1.4095 -2.0799  1.4157
35526SOL    HW2 8586   1.516   8.110   5.770  0.2179  1.6928 -0.9467
35527SOL     OW 8587   0.124   7.471   3.056  0.2437  0.0951 -0.0684
35527SOL    HW1 8588   0.114   7.395   3.113 -2.5383  2.2540  2.6426
35527SOL    HW2 8589   0.044   7.474   3.005  0.3887  1.0687 -0.2711
35528SOL     OW 8590  10.539   3.500   6.317 -0.2847 -0.1250 -0.0393
35528SOL    HW1 8591  10.616   3.443   6.319  0.6232  1.0806  2.3147
35528SOL    HW2 8592  10.476   3.457   6.374 -1.3138 -0.9476 -1.7175
35529SOL     OW 8593   8.449   7.543   5.772 -0.1474 -0.1812  0.1961
35529SOL    HW1 8594   8.490   7.530   5.858  0.5069 -2.5536 -0.3993
35529SOL    HW2 8595   8.487   7.474   5.717 -1.1181  0.8030 -1.8103
35530SOL     OW 8596  10.329   5.993   2.138 -0.4590 -0.9863  0.2252
35530SOL    HW1 8597  10.258   5.951   2.186 -1.1761 -0.2530 -0.1570
35530SOL    HW2 8598  10.327   6.084   2.167  2.4873 -1.5514  2.7254
35531SOL     OW 8599   8.571  10.833   3.550  0.2042 -0.2000  0.0713
35531SOL    HW1 8600   8.573  10.916   3.597  1.2226  0.3554 -0.9022
35531SOL    HW2 8601   8.646  10.784   3.582 -0.2221 -0.6368  0.4259
35532SOL     OW 8602   2.069   8.711   3.254  0.1169  0.3633 -0.1845
35532SOL    HW1 8603   2.078   8.616   3.246  0.7182  0.1199  2.4736
35532SOL    HW2 8604   2.005   8.723   3.324 -0.9926  1.9664 -1.4066
35533SOL     OW 8605   9.169   4.383   1.373  0.3835 -0.3705 -0.2492
35533SOL    HW1 8606   9.130   4.393   1.460  0.2630 -2.2683 -0.0532
35533SOL    HW2 8607   9.111   4.432   1.315 -0.9448 -1.1460  0.3801
35534SOL     OW 8608   2.775   7.742   2.882  1.0150 -0.4827 -0.6236
35534SOL    HW1 8609   2.717   7.811   2.912 -0.1184 -2.6706  2.7193
35534SOL    HW2 8610   2.724   7.694   2.816  0.9510  0.4444 -1.2680
35535SOL     OW 8611   4.398  10.838  10.541  0.2024 -0.3821 -0.2634
35535SOL    HW1 8612   4.463  10.775  10.572 -2.2548 -3.2816 -0.5622
35535SOL    HW2 8613   4.387  10.817  10.448 -1.4327 -0.2514 -0.1238
35536SOL     OW 8614   9.800   4.851   7.093 -0.4863 -0.0479 -0.1334
35536SOL    HW1 8615   9.808   4.756   7.103  1.2005 -0.1030 -1.5288
35536SOL    HW2 8616   9.809   4.866   6.999 -0.8626  1.4945  0.0567
35537SOL     OW 8617   2.002   1.240   4.757 -0.0814  0.0204 -0.5856
35537SOL    HW1 8618   2.053   1.160   4.742  0.3879  0.6191 -2.5901
35537SOL    HW2 8619   1.912   1.216   4.738 -0.3311 -0.6341  1.3241
35538SOL     OW 8620  10.878   1.749   1.484  0.1607 -1.1256 -0.2891
35538SOL    HW1 8621  10.929   1.830   1.487  3.4109 -3.0022  2.2552
35538SOL    HW2 8622  10.829   1.748   1.566  2.0327 -2.6734  0.9073
35539SOL     OW 8623   5.181   4.945   0.334 -0.2357 -0.7605  0.4519
35539SOL    HW1 8624   5.099   4.988   0.359  0.0465 -0.7656  1.4277
35539SOL    HW2 8625   5.161   4.904   0.249 -0.0298  2.7017 -1.4824
35540SOL     OW 8626   2.770   0.313   7.210 -0.0966 -0.5957 -0.3474
35540SOL    HW1 8627   2.735   0.296   7.297 -0.3458 -2.3092 -0.7448
35540SOL    HW2 8628   2.695   0.298   7.151  0.2391 -0.1149 -0.9155
35541SOL     OW 8629   4.155   5.863   1.114 -0.1758  0.2029 -0.0781
35541SOL    HW1 8630   4.208   5.809   1.055 -1.0782  0.4043 -1.1057
35541SOL    HW2 8631   4.216   5.891   1.182  1.5230  1.7902 -2.0890
35542SOL     OW 8632   4.776   5.804   1.413  0.2571 -0.3782 -1.0189
35542SOL    HW1 8633   4.736   5.717   1.408  3.3285 -2.1126  1.4002
35542SOL    HW2 8634   4.706   5.860   1.445 -1.3361 -2.3403 -0.8299
35543SOL     OW 8635   6.776   3.899   3.316 -0.2686 -0.2076  0.2023
35543SOL    HW1 8636   6.715   3.882   3.244 -1.9326 -0.4118  1.5901
35543SOL    HW2 8637   6.784   3.815   3.361  1.1032 -0.1898  0.0314
35544SOL     OW 8638   9.183   0.053   9.651 -0.0192 -0.6600 -0.0669
35544SOL    HW1 8639   9.263   0.074   9.604 -0.5297  2.8587  0.4237
35544SOL    HW2 8640   9.205  -0.026   9.702  2.5682 -0.7192 -1.1473
35545SOL     OW 8641   3.768   8.282   6.099  0.2572  0.3112 -0.0254
35545SOL    HW1 8642   3.735   8.192   6.096  0.4008  0.2306  0.5437
35545SOL    HW2 8643   3.833   8.287   6.030  0.0641  0.0524 -0.2276
35546SOL     OW 8644   5.673  10.820   2.151  0.3981 -0.2820  0.1888
35546SOL    HW1 8645   5.739  10.835   2.084  0.9198 -0.0802  0.7476
35546SOL    HW2 8646   5.707  10.748   2.204 -0.1152 -0.5892  0.1153
35547SOL     OW 8647   3.771   5.738   2.462  0.0654  0.1867  0.1471
35547SOL    HW1 8648   3.756   5.643   2.456 -1.7334  0.3270  1.6030
35547SOL    HW2 8649   3.863   5.746   2.487  0.5700 -1.1164 -1.1659
35548SOL     OW 8650   8.239   6.810   7.572  0.2003  0.3626 -0.4558
35548SOL    HW1 8651   8.230   6.788   7.664 -0.6437  0.7436 -0.4435
35548SOL    HW2 8652   8.170   6.760   7.528  0.7402  0.0011 -0.9219
35549SOL     OW 8653   8.981   6.216   0.924  0.5331  0.3660 -0.1119
35549SOL    HW1 8654   9.046   6.215   0.994  0.3255 -0.2394  0.0747
35549SOL    HW2 8655   8.981   6.126   0.890 -0.8668  0.1124  0.5081
35550SOL     OW 8656   5.576   4.662   8.329  0.1200  0.0013  0.0465
35550SOL    HW1 8657   5.661   4.626   8.356  0.7777  3.7075  3.8775
35550SOL    HW2 8658   5.596   4.750   8.298 -2.1194 -0.1275 -2.0592
35551SOL     OW 8659   3.493   2.122   5.853  0.2359  0.4092  0.5098
35551SOL    HW1 8660   3.567   2.064   5.872  0.6085  0.6788 -0.0969
35551SOL    HW2 8661   3.472   2.162   5.937 -0.5261 -1.1641  1.1163
35552SOL     OW 8662   0.218   3.114   4.956  0.3090  0.3185  0.1424
35552SOL    HW1 8663   0.211   3.206   4.983  0.4309  0.5991 -0.7487
35552SOL    HW2 8664   0.164   3.066   5.019 -3.1258  1.4599 -1.6639
35553SOL     OW 8665   2.697   3.779   9.007  0.0919  0.0126  0.4363
35553SOL    HW1 8666   2.703   3.692   8.969  1.1880  0.3808 -0.2647
35553SOL    HW2 8667   2.775   3.787   9.062 -0.6948  0.0573  1.5991
35554SOL     OW 8668   5.566   4.752   6.399  0.0596  0.2337 -0.9563
35554SOL    HW1 8669   5.639   4.710   6.445 -0.6697  0.8877  0.8578
35554SOL    HW2 8670   5.603   4.776   6.314  1.4177 -1.1244 -0.7975
35555SOL     OW 8671  10.068   3.883   9.336  0.1728  0.5463  1.1727
35555SOL    HW1 8672  10.068   3.804   9.390 -0.6481 -0.0671  0.2973
35555SOL    HW2 8673  10.092   3.853   9.249  0.0902  1.3039  0.8795
35556SOL     OW 8674   5.486   7.884   6.342  0.5390 -0.6085 -0.4323
35556SOL    HW1 8675   5.397   7.918   6.355  0.3658 -0.6959 -1.3153
35556SOL    HW2 8676   5.526   7.889   6.429  0.2877  1.1965 -0.3894
35557SOL     OW 8677   9.671   1.432   0.062 -0.6846  0.0620 -0.5791
35557SOL    HW1 8678   9.745   1.466   0.113 -0.7844 -1.8493  0.9154
35557SOL    HW2 8679   9.601   1.421   0.126 -0.6634 -2.8539 -0.9605
35558SOL     OW 8680   9.860   7.945   7.123 -0.3017  0.1130 -0.2143
35558SOL    HW1 8681   9.943   7.928   7.080 -0.0611  1.6495 -0.4279
35558SOL    HW2 8682   9.865   8.037   7.151 -0.4394 -0.7579  3.1434
35559SOL     OW 8683   3.293   8.928   1.048 -0.7831  0.6316  0.0713
35559SOL    HW1 8684   3.233   8.997   1.077 -0.5737  0.8428  0.0134
35559SOL    HW2 8685   3.238   8.853   1.029 -1.1067  1.0428 -0.6615
35560SOL     OW 8686   6.367   6.006   4.695  0.3876  0.5383  0.2395
35560SOL    HW1 8687   6.434   5.984   4.631 -0.8399 -2.5712 -0.1926
35560SOL    HW2 8688   6.284   5.999   4.647 -0.4387  0.3132  1.6402
35561SOL     OW 8689   2.083   0.903   6.935  0.0004  0.1432 -0.2079
35561SOL    HW1 8690   2.131   0.855   6.868 -1.0194  0.8415 -1.4896
35561SOL    HW2 8691   1.997   0.861   6.938 -1.3223  2.4112 -2.1466
35562SOL     OW 8692   1.045   4.312  10.567 -0.2447  0.1095 -0.1982
35562SOL    HW1 8693   1.046   4.397  10.610  0.7570  0.4478 -0.8611
35562SOL    HW2 8694   1.067   4.250  10.637 -1.1657  0.3515  0.3313
35563SOL     OW 8695  10.772   4.483   7.876  0.3291  0.0641  0.9993
35563SOL    HW1 8696  10.809   4.555   7.928 -0.4855  1.0673  0.2317
35563SOL    HW2 8697  10.721   4.527   7.808 -1.1931 -1.2619  1.2347
35564SOL     OW 8698   2.192   7.211   8.686 -1.2443  0.1265 -0.5622
35564SOL    HW1 8699   2.248   7.222   8.763 -0.0385  0.9511 -1.5174
35564SOL    HW2 8700   2.142   7.131   8.704  1.4947 -1.6970 -0.3861
35565SOL     OW 8701  10.675   0.896   7.539 -0.2396 -0.2600 -0.4204
35565SOL    HW1 8702  10.633   0.844   7.607 -1.1446  0.2302 -0.5906
35565SOL    HW2 8703  10.765   0.907   7.569 -0.9856  1.1893  1.4379
35566SOL     OW 8704   6.288   2.613   9.446 -0.2344 -0.4539  0.3766
35566SOL    HW1 8705   6.378   2.607   9.479 -0.1073  0.4181  0.2159
35566SOL    HW2 8706   6.275   2.532   9.396  0.8538 -0.0732 -0.5544
35567SOL     OW 8707   4.660   4.463   7.762  0.0284  0.0818 -0.3860
35567SOL    HW1 8708   4.576   4.425   7.785  0.9482 -2.1631 -0.4511
35567SOL    HW2 8709   4.700   4.485   7.846 -0.7394  1.5371 -0.3697
35568SOL     OW 8710   5.207   9.604   3.230 -0.1360 -0.0543 -0.5034
35568SOL    HW1 8711   5.282   9.621   3.174  0.3591 -0.5732 -0.0040
35568SOL    HW2 8712   5.235   9.533   3.288 -1.3141 -0.8851 -0.9107
35569SOL     OW 8713   7.204   8.329   3.486 -0.7559  0.4476 -0.3514
35569SOL    HW1 8714   7.223   8.380   3.565  0.3385  0.1962 -0.4379
35569SOL    HW2 8715   7.125   8.278   3.509 -0.7183  0.7113  0.4126
35570SOL     OW 8716   9.067   2.268   5.862 -0.3419  0.0725 -0.0878
35570SOL    HW1 8717   9.037   2.180   5.886 -0.1990 -0.7480 -2.5921
35570SOL    HW2 8718   8.989   2.322   5.866 -0.3028  0.0276  2.1450
35571SOL     OW 8719   3.212   7.139   8.839  0.0608 -0.1276 -0.1010
35571SOL    HW1 8720   3.174   7.070   8.894 -0.6817 -0.5488 -1.1250
35571SOL    HW2 8721   3.262   7.092   8.772 -2.1841  0.1729 -2.1103
35572SOL     OW 8722  10.337   1.066   4.866  0.0784  0.1932  0.9481
35572SOL    HW1 8723  10.382   0.994   4.910 -0.1417 -0.8915 -0.5408
35572SOL    HW2 8724  10.408   1.119   4.829  0.2012  0.0753  1.0123
35573SOL     OW 8725   9.415   2.200   7.839 -0.1695  0.0047  0.3222
35573SOL    HW1 8726   9.450   2.135   7.900 -1.3431 -2.3404 -1.3743
35573SOL    HW2 8727   9.339   2.236   7.885 -0.4297 -0.9658  0.6857
35574SOL     OW 8728   0.719  10.096   9.546  0.2640  0.1449 -0.4023
35574SOL    HW1 8729   0.692  10.060   9.462 -0.6563  0.5440 -0.2902
35574SOL    HW2 8730   0.640  10.094   9.600  1.1034 -1.2325  0.8694
35575SOL     OW 8731  10.618   5.278  10.019 -0.5672  0.4448  0.6807
35575SOL    HW1 8732  10.656   5.353   9.973  0.3695  0.2938  1.1848
35575SOL    HW2 8733  10.524   5.290  10.010 -0.4641 -0.0986 -2.1445
35576SOL     OW 8734   8.633  10.393   1.834 -0.4928  0.4388 -0.2876
35576SOL    HW1 8735   8.671  10.479   1.814 -2.0460  0.9699 -1.0412
35576SOL    HW2 8736   8.546  10.394   1.795 -0.7901 -1.2660  0.2193
35577SOL     OW 8737   0.084   2.132   3.404  0.1211 -0.0762  0.2682
35577SOL    HW1 8738   0.042   2.176   3.329  1.5377  1.5760  0.3776
35577SOL    HW2 8739   0.031   2.158   3.479 -0.7724 -1.0086 -0.0019
35578SOL     OW 8740   7.365   7.349   2.195  0.4859  0.1652  0.0517
35578SOL    HW1 8741   7.454   7.314   2.207  0.6658  0.9708  1.2500
35578SOL    HW2 8742   7.316   7.315   2.269 -0.6398 -1.4455 -1.3408
35579SOL     OW 8743   1.298  10.471   9.356  0.1101 -0.1580 -0.4167
35579SOL    HW1 8744   1.220  10.500   9.403  0.5069  2.0253 -0.9940
35579SOL    HW2 8745   1.366  10.533   9.382  1.2390 -1.0422 -1.1807
35580SOL     OW 8746   0.665   3.101   8.623  0.1773 -0.2013 -0.0444
35580SOL    HW1 8747   0.760   3.094   8.609  0.2529  0.6449  0.0238
35580SOL    HW2 8748   0.631   3.015   8.597  0.7862 -0.0377 -1.4725
35581SOL     OW 8749  10.386   2.154   5.187 -0.2219  0.4585  0.1845
35581SOL    HW1 8750  10.458   2.151   5.250 -0.7182 -0.2263  0.7413
35581SOL    HW2 8751  10.313   2.191   5.237 -0.6730 -0.2719  0.0893
35582SOL     OW 8752   7.026   6.997  10.891  0.1337  0.0482 -0.1354
35582SOL    HW1 8753   6.937   7.030  10.901  0.7555  1.1454  3.1007
35582SOL    HW2 8754   7.016   6.908  10.859 -2.1131  0.2366 -0.0781
35583SOL     OW 8755   2.471   1.391   5.499 -0.2680 -0.5174  0.3937
35583SOL    HW1 8756   2.472   1.383   5.594 -1.8274  2.1889  0.7542
35583SOL    HW2 8757   2.507   1.478   5.482 -2.1755  0.0158 -1.2936
35584SOL     OW 8758   3.896   8.267   5.002  0.1797  0.0682 -0.2646
35584SOL    HW1 8759   3.991   8.275   4.993  0.2214 -0.8981 -0.7316
35584SOL    HW2 8760   3.864   8.261   4.912 -0.2678 -0.2689 -0.0809
35585SOL     OW 8761   6.330   5.139  10.372  0.6673  0.1343  0.3210
35585SOL    HW1 8762   6.276   5.172  10.300 -1.6317 -2.1682  0.8166
35585SOL    HW2 8763   6.329   5.210  10.437  1.6305  1.6956 -1.2892
35586SOL     OW 8764   8.761   6.027   9.293  0.4052 -0.2470 -0.0786
35586SOL    HW1 8765   8.835   5.983   9.250 -0.0084  1.0009 -2.2271
35586SOL    HW2 8766   8.777   6.121   9.277  0.1039  0.2936  2.4152
35587SOL     OW 8767   1.196   5.203   9.400  0.0121  0.4264 -0.3516
35587SOL    HW1 8768   1.285   5.227   9.425 -0.3047 -0.8135  2.2757
35587SOL    HW2 8769   1.142   5.229   9.475 -1.4510 -1.2299 -0.7646
35588SOL     OW 8770   9.739   5.018   7.718 -0.0230 -0.4456  0.1236
35588SOL    HW1 8771   9.659   4.969   7.735 -0.7235  1.5333  3.4896
35588SOL    HW2 8772   9.711   5.110   7.715  1.9098  0.1940 -0.2883
35589SOL     OW 8773   4.637   1.862   0.826  0.0310  0.1533  0.3487
35589SOL    HW1 8774   4.582   1.939   0.838 -0.4657 -0.1743  0.1714
35589SOL    HW2 8775   4.605   1.800   0.892 -1.8172 -1.1644 -1.6707
35590SOL     OW 8776   4.576   5.565   7.554  0.4961 -0.0844 -0.4066
35590SOL    HW1 8777   4.484   5.546   7.572  1.1551 -2.7451  0.6345
35590SOL    HW2 8778   4.577   5.658   7.529 -2.3960  0.0999 -0.1903
35591SOL     OW 8779   5.744   9.822   4.342 -0.4826  0.2208  0.4735
35591SOL    HW1 8780   5.804   9.807   4.414 -0.0854  2.3064  0.6612
35591SOL    HW2 8781   5.668   9.768   4.361  0.1664 -0.2573  1.7573
35592SOL     OW 8782   4.133   0.303   8.336  0.0449 -0.2735 -0.0197
35592SOL    HW1 8783   4.222   0.320   8.306 -0.0950  0.9406  0.1764
35592SOL    HW2 8784   4.099   0.237   8.276  0.2242  1.0806 -1.6803
35593SOL     OW 8785   3.698   2.149   0.281 -0.1099 -0.3421  0.0125
35593SOL    HW1 8786   3.662   2.078   0.334 -2.5339 -0.5606 -1.7825
35593SOL    HW2 8787   3.729   2.105   0.201 -0.4072  0.4438 -0.5456
35594SOL     OW 8788   1.650   4.122   2.463 -0.4942  0.1457  0.2729
35594SOL    HW1 8789   1.574   4.095   2.411  0.5616 -1.7861 -0.3978
35594SOL    HW2 8790   1.655   4.057   2.533 -0.6611  1.4983  1.5738
35595SOL     OW 8791   5.020   4.921   3.836  0.0369  0.9459  0.4298
35595SOL    HW1 8792   5.012   4.829   3.808 -1.7161  1.4714 -0.9992
35595SOL    HW2 8793   5.054   4.916   3.925  0.6475 -1.0611  0.1443
35596SOL     OW 8794   0.864   4.578   0.381  1.1157 -0.0670 -0.2868
35596SOL    HW1 8795   0.853   4.486   0.358 -0.5119 -0.0063  0.0849
35596SOL    HW2 8796   0.903   4.577   0.468  0.1948 -0.4570  0.1412
35597SOL     OW 8797   3.304   2.599   0.206 -0.5294 -0.0866 -0.6798
35597SOL    HW1 8798   3.306   2.694   0.220  1.9736 -0.2707  0.7947
35597SOL    HW2 8799   3.215   2.573   0.231 -1.4710  1.9088 -1.7428
35598SOL     OW 8800   4.042   0.989   5.784 -0.4531 -0.3212  0.8595
35598SOL    HW1 8801   4.090   1.024   5.709 -3.8162  1.3081 -0.7330
35598SOL    HW2 8802   3.988   0.919   5.747 -4.2784  2.3231  0.9544
35599SOL     OW 8803   7.072   4.568  10.278  0.5312  0.2523 -0.6777
35599SOL    HW1 8804   7.051   4.497  10.338 -1.0834  1.8407  0.7520
35599SOL    HW2 8805   7.008   4.559  10.207  0.2317  0.3655 -0.4220
35600SOL     OW 8806   0.407   7.431   8.857  0.1031 -0.4242  0.0600
35600SOL    HW1 8807   0.328   7.407   8.810 -0.5365 -0.6997  1.2352
35600SOL    HW2 8808   0.377   7.490   8.926  0.8701 -0.8131  0.7421
35601SOL     OW 8809   8.064  10.450   6.113 -0.2699  0.6766 -0.5128
35601SOL    HW1 8810   8.039  10.366   6.075  1.2618 -0.5291  0.9429
35601SOL    HW2 8811   8.108  10.427   6.195 -1.7565  3.0380  1.0673
35602SOL     OW 8812  11.125   9.215   8.709 -0.1232 -0.0969  0.8752
35602SOL    HW1 8813  11.164   9.156   8.773 -0.5996 -2.1936 -0.6446
35602SOL    HW2 8814  11.079   9.157   8.648  1.3676  1.6263 -2.1306
35603SOL     OW 8815   1.884   4.322   3.285 -0.3604 -0.0454 -0.1167
35603SOL    HW1 8816   1.929   4.288   3.363  0.3065 -0.1923 -0.5624
35603SOL    HW2 8817   1.933   4.399   3.260 -0.5466 -0.0259 -0.4248
35604SOL     OW 8818   2.499   2.654   9.739 -0.4866 -0.2449  0.3416
35604SOL    HW1 8819   2.518   2.562   9.722 -0.2372  0.1730 -1.9574
35604SOL    HW2 8820   2.566   2.702   9.690 -1.5499  1.1704  0.2010
35605SOL     OW 8821   6.849  10.874  10.950 -0.2538  0.2165  0.3224
35605SOL    HW1 8822   6.907  10.863  10.874  0.5716  0.7455  0.8508
35605SOL    HW2 8823   6.809  10.960  10.936  2.0314  1.6344  1.8123
35606SOL     OW 8824   9.544   2.947   3.949  0.6088  0.0589  0.7969
35606SOL    HW1 8825   9.451   2.926   3.945  0.8324 -0.7566 -1.3228
35606SOL    HW2 8826   9.589   2.862   3.950  1.3674  0.3612 -1.5289
35607SOL     OW 8827   2.358   4.571   0.835 -0.6069 -0.0464  0.0570
35607SOL    HW1 8828   2.311   4.633   0.780 -1.1971 -0.4851  0.0510
35607SOL    HW2 8829   2.441   4.557   0.791 -0.2781  1.0693  0.2871
35608SOL     OW 8830   4.282   0.647   5.036 -0.3252 -0.1556  0.3582
35608SOL    HW1 8831   4.299   0.614   5.125  0.2102  0.6494  0.5613
35608SOL    HW2 8832   4.345   0.601   4.981  0.9301  1.0271  0.7511
35609SOL     OW 8833   3.144   8.864   2.163 -0.1344 -0.3007 -0.1961
35609SOL    HW1 8834   3.170   8.941   2.214 -1.7364  0.1707 -0.0099
35609SOL    HW2 8835   3.226   8.822   2.138  0.7431  0.5851  1.0550
35610SOL     OW 8836  10.779   7.943   7.593 -0.0576  0.3203 -0.1865
35610SOL    HW1 8837  10.777   7.989   7.677  2.6037  1.9899 -0.8902
35610SOL    HW2 8838  10.791   8.013   7.529 -0.4316 -1.0524 -1.8282
35611SOL     OW 8839   2.136   8.473   8.008  0.4541  0.2674 -0.3630
35611SOL    HW1 8840   2.214   8.452   7.957  1.2762  0.4070  0.8044
35611SOL    HW2 8841   2.063   8.442   7.954  1.3408 -0.4174 -1.1980
35612SOL     OW 8842   2.709   7.044   3.415  0.4210  0.1185  0.4437
35612SOL    HW1 8843   2.632   7.036   3.359 -0.0791 -0.1209  1.1564
35612SOL    HW2 8844   2.780   7.068   3.355 -0.4409  1.5136 -0.0487
35613SOL     OW 8845   7.136   6.021  10.864  0.7702 -0.1789  0.5491
35613SOL    HW1 8846   7.180   6.080  10.925 -0.5410  1.1117  0.2714
35613SOL    HW2 8847   7.138   6.066  10.780 -1.3074  0.0482  0.5825
35614SOL     OW 8848   0.767   3.117   9.692 -0.0621 -0.0807 -0.0187
35614SOL    HW1 8849   0.861   3.132   9.683  0.1596 -0.2622  1.5856
35614SOL    HW2 8850   0.741   3.077   9.610  1.1899  0.3328 -0.6449
35615SOL     OW 8851   7.485   8.294   3.822  0.2579 -0.1167 -0.4194
35615SOL    HW1 8852   7.488   8.239   3.900  0.8993  1.1429  0.4823
35615SOL    HW2 8853   7.573   8.287   3.784 -0.2659 -1.3193 -1.4923
35616SOL     OW 8854   0.471   9.883   8.639 -0.2653 -0.1016  0.2931
35616SOL    HW1 8855   0.494   9.975   8.634  0.6857 -0.3874 -0.9680
35616SOL    HW2 8856   0.554   9.837   8.649 -0.7367 -0.8222  1.0623
35617SOL     OW 8857   3.805   4.712  11.169  0.2845  0.0450 -0.1548
35617SOL    HW1 8858   3.711   4.701  11.157 -0.0856  0.8231  1.7572
35617SOL    HW2 8859   3.834   4.754  11.088 -0.9130 -0.5603 -0.9408
35618SOL     OW 8860   1.816   3.500   9.520  0.5586 -0.2853 -0.0567
35618SOL    HW1 8861   1.851   3.589   9.515  0.2553 -0.2076 -0.8206
35618SOL    HW2 8862   1.824   3.466   9.431  2.4867 -1.7174  0.6000
35619SOL     OW 8863   9.885   7.933   1.820  0.2592 -0.4100 -0.1556
35619SOL    HW1 8864   9.803   7.913   1.775  1.0572 -0.1880 -1.7897
35619SOL    HW2 8865   9.934   7.851   1.817  0.6888 -0.1440 -0.5289
35620SOL     OW 8866   6.853   6.216   1.453  0.2740  0.4286  0.3544
35620SOL    HW1 8867   6.817   6.176   1.374  0.2274 -0.1108  0.6434
35620SOL    HW2 8868   6.854   6.145   1.517  2.0772  0.3614  0.2875
35621SOL     OW 8869   9.363   5.329   5.145  0.0848  0.5053 -0.3472
35621SOL    HW1 8870   9.336   5.242   5.176 -0.3493  0.7127 -0.1343
35621SOL    HW2 8871   9.435   5.353   5.203 -0.1871  0.5403 -0.0180
35622SOL     OW 8872   3.136   5.673   6.863 -0.0258  0.4578 -0.1889
35622SOL    HW1 8873   3.147   5.707   6.952 -0.8518 -0.3785  0.2502
35622SOL    HW2 8874   3.125   5.751   6.808 -1.1625  0.9303  0.6830
35623SOL     OW 8875   7.317   1.957   0.517 -0.1299 -0.0573  0.1705
35623SOL    HW1 8876   7.256   2.030   0.523 -2.1630 -1.7872  2.3889
35623SOL    HW2 8877   7.305   1.924   0.428 -1.5676  0.3760  0.1752
35624SOL     OW 8878   6.513   8.562   6.549  0.3340 -0.6267  0.1480
35624SOL    HW1 8879   6.432   8.525   6.584 -1.5853  3.4664  0.5637
35624SOL    HW2 8880   6.520   8.525   6.461 -2.3400 -0.6679 -0.1216
35625SOL     OW 8881   7.601   2.047   7.238  0.2509  0.3134 -0.5454
35625SOL    HW1 8882   7.671   2.026   7.177  0.0331 -0.5785 -0.4954
35625SOL    HW2 8883   7.634   2.019   7.323 -0.3181 -0.5068 -0.5804
35626SOL     OW 8884   0.542   1.557   5.096 -0.2347  0.0872 -0.1235
35626SOL    HW1 8885   0.501   1.637   5.129  2.9747  2.6298 -1.6507
35626SOL    HW2 8886   0.522   1.558   5.002  3.3265  1.7694 -1.0634
35627SOL     OW 8887   2.356   6.960   7.587 -0.0336  0.6929 -0.1962
35627SOL    HW1 8888   2.360   6.867   7.565  1.4379  0.8670 -0.7643
35627SOL    HW2 8889   2.396   6.966   7.674 -1.2768  0.6557  0.4016
35628SOL     OW 8890   6.829  11.094   1.413  0.4767  0.3144 -0.2170
35628SOL    HW1 8891   6.790  11.058   1.493 -1.3299  1.7488 -0.3828
35628SOL    HW2 8892   6.756  11.137   1.368  1.5182 -0.1082 -2.4713
35629SOL     OW 8893   2.132   3.036   0.321 -0.3270 -0.5684  0.6876
35629SOL    HW1 8894   2.162   2.998   0.238 -1.4843 -0.3749  0.1715
35629SOL    HW2 8895   2.157   2.970   0.386  1.0546 -0.5017  0.2783
35630SOL     OW 8896  10.124  10.879   2.458 -0.3591 -0.1817 -0.1959
35630SOL    HW1 8897  10.133  10.896   2.364  0.8818  0.2881 -0.0145
35630SOL    HW2 8898  10.077  10.955   2.492 -2.8248 -1.3617 -0.7345
35631SOL     OW 8899   7.803   0.482   2.700  0.0145  0.0739  0.3353
35631SOL    HW1 8900   7.737   0.489   2.631  0.0702  1.5601  0.4053
35631SOL    HW2 8901   7.868   0.421   2.666  0.3717  1.2700 -1.2095
35632SOL     OW 8902   8.401   5.645   5.933 -0.1284  0.2831  0.2797
35632SOL    HW1 8903   8.466   5.716   5.931 -0.8549  1.1141  2.5679
35632SOL    HW2 8904   8.366   5.643   5.844  1.0074  1.7501 -0.2532
35633SOL     OW 8905   8.395   3.819   2.138 -0.0170 -0.1402 -0.4022
35633SOL    HW1 8906   8.448   3.861   2.206  1.0942 -2.1231  0.0280
35633SOL    HW2 8907   8.305   3.837   2.165  0.4125  0.7337  0.5385
35634SOL     OW 8908  10.727   2.605   0.912  0.3630 -0.3064  0.6557
35634SOL    HW1 8909  10.636   2.587   0.890 -0.0945 -1.3665  3.1369
35634SOL    HW2 8910  10.746   2.688   0.869 -0.8653 -1.3770 -2.2149
35635SOL     OW 8911   0.231   9.462   4.586  0.1429  0.0270  0.0305
35635SOL    HW1 8912   0.204   9.552   4.604 -1.1552  0.0494 -1.7700
35635SOL    HW2 8913   0.327   9.465   4.586  0.1129  1.3815  0.0938
35636SOL     OW 8914   9.188   2.230   9.091 -0.3175  0.1075  0.3577
35636SOL    HW1 8915   9.259   2.173   9.121 -1.5371 -1.2574  0.7201
35636SOL    HW2 8916   9.112   2.173   9.082 -2.0789  1.9058  2.4257
35637SOL     OW 8917  10.341   8.684   8.615 -0.5781 -0.0033  0.5582
35637SOL    HW1 8918  10.394   8.706   8.691 -0.5457 -0.5766  0.7048
35637SOL    HW2 8919  10.384   8.606   8.578 -2.0228 -1.2576  1.4081
35638SOL     OW 8920   4.632   6.692   4.427 -0.0025  0.1189 -0.0169
35638SOL    HW1 8921   4.685   6.649   4.361 -0.9649  1.9323 -2.1072
35638SOL    HW2 8922   4.612   6.778   4.389 -2.1166  0.5469  1.8539
35639SOL     OW 8923   5.429   5.963  10.809 -0.0205  0.3153 -0.1327
35639SOL    HW1 8924   5.494   6.012  10.760 -0.5853  1.1633 -0.0632
35639SOL    HW2 8925   5.477   5.891  10.849  1.0667  1.4417  0.6748
35640SOL     OW 8926   5.604   3.522   4.295 -0.0641 -0.0441 -0.3789
35640SOL    HW1 8927   5.523   3.535   4.344  0.6938  0.4761  0.7777
35640SOL    HW2 8928   5.624   3.607   4.256  0.0962 -0.0783 -0.3753
35641SOL     OW 8929   0.943  10.672   7.341  0.2769  0.1900 -0.1018
35641SOL    HW1 8930   0.914  10.761   7.321 -0.4878  0.0923  0.5080
35641SOL    HW2 8931   0.999  10.647   7.267 -1.3116  0.3467 -1.4175
35642SOL     OW 8932   1.626   8.474   7.620 -1.2056  0.0514 -0.6935
35642SOL    HW1 8933   1.606   8.404   7.558 -1.3942 -1.0043  0.5107
35642SOL    HW2 8934   1.684   8.433   7.685 -0.8681  1.1675 -0.2629
35643SOL     OW 8935   1.413   3.919   4.562 -0.1137  0.8501  0.9038
35643SOL    HW1 8936   1.507   3.938   4.556 -0.2088  0.8510 -1.7745
35643SOL    HW2 8937   1.383   3.970   4.637  1.9319  1.2119  1.5438
35644SOL     OW 8938   6.927   1.695   7.349  0.1255 -0.4639  0.2787
35644SOL    HW1 8939   6.988   1.677   7.277  1.8225 -0.4150  1.6245
35644SOL    HW2 8940   6.911   1.789   7.344 -0.3518 -0.5854 -0.4769
35645SOL     OW 8941   0.086   7.180   6.542 -0.6247  0.1597 -0.0960
35645SOL    HW1 8942   0.123   7.253   6.492  3.3355 -1.3281  0.3296
35645SOL    HW2 8943   0.077   7.109   6.478  0.6272 -0.5295  0.4631
35646SOL     OW 8944  10.178   7.202   7.721 -0.1165  1.0592  0.1597
35646SOL    HW1 8945  10.223   7.195   7.805  0.1457  1.1248  0.0262
35646SOL    HW2 8946  10.140   7.115   7.706  1.0722  0.6097 -0.3426
35647SOL     OW 8947   1.879   7.560   8.343 -0.3076  0.0740  0.0077
35647SOL    HW1 8948   1.874   7.490   8.408 -1.5513 -1.0649 -1.2470
35647SOL    HW2 8949   1.854   7.518   8.261  2.3223  1.1608 -1.4844
35648SOL     OW 8950   0.051   2.076   7.510 -0.4655 -0.1130  0.0283
35648SOL    HW1 8951   0.024   2.111   7.595 -0.7530  3.6521 -1.4706
35648SOL    HW2 8952  -0.026   2.031   7.476 -0.6949 -0.6600  1.2252
35649SOL     OW 8953   6.349   6.490   1.757  0.5140  0.3766 -0.1694
35649SOL    HW1 8954   6.413   6.524   1.693 -0.7732 -1.8291 -2.8084
35649SOL    HW2 8955   6.380   6.402   1.776 -0.1162  0.3873  0.9515
35650SOL     OW 8956   5.708   2.867   8.004 -0.8572  0.2415  0.4193
35650SOL    HW1 8957   5.688   2.803   8.071  0.4176  1.3077  1.9073
35650SOL    HW2 8958   5.722   2.949   8.052  1.7920  0.6869 -0.8900
35651SOL     OW 8959   0.416  11.154   7.315  0.6566 -0.3765 -0.0864
35651SOL    HW1 8960   0.381  11.229   7.364 -1.0382  0.0311 -1.8145
35651SOL    HW2 8961   0.339  11.107   7.285  1.6508 -1.2204 -1.4292
35652SOL     OW 8962   9.747   9.372   9.490 -0.1557  0.0157  0.0390
35652SOL    HW1 8963   9.715   9.284   9.470 -0.4098 -0.1583  1.1149
35652SOL    HW2 8964   9.822   9.384   9.432 -2.1787  0.4981 -2.6563
35653SOL     OW 8965  10.386   4.188   0.550 -0.7434 -0.0380 -0.2907
35653SOL    HW1 8966  10.348   4.203   0.637 -0.3256 -0.7958  0.0308
35653SOL    HW2 8967  10.478   4.211   0.559 -0.3541 -1.6056 -0.1000
35654SOL     OW 8968   9.713  10.585   6.099 -0.1784 -0.2978  0.2058
35654SOL    HW1 8969   9.739  10.561   6.010 -2.7877  0.3063 -0.8403
35654SOL    HW2 8970   9.716  10.503   6.148  1.0678 -0.6912 -0.4907
35655SOL     OW 8971   9.773   6.283   5.662 -0.3521 -0.0781 -0.1367
35655SOL    HW1 8972   9.790   6.289   5.756  0.2404  0.9455 -0.2862
35655SOL    HW2 8973   9.819   6.204   5.634  1.9615  1.1149 -0.0217
35656SOL     OW 8974   3.247  10.766   0.610 -0.1262 -0.1771 -0.3394
35656SOL    HW1 8975   3.280  10.850   0.642  0.8975 -0.8538  0.4626
35656SOL    HW2 8976   3.169  10.788   0.560 -0.4709  1.1528  0.7372
35657SOL     OW 8977   3.945   8.579   4.914 -0.1930  0.4223  0.6253
35657SOL    HW1 8978   3.994   8.497   4.913  0.6909  0.9349 -0.1318
35657SOL    HW2 8979   4.012   8.647   4.917 -0.8916  1.1319  0.5750
35658SOL     OW 8980   5.449  10.020   4.143 -0.1289 -0.0094 -0.0468
35658SOL    HW1 8981   5.393  10.097   4.135 -0.2245 -0.1653 -1.1068
35658SOL    HW2 8982   5.435   9.989   4.232 -2.5364 -0.6513 -0.5803
35659SOL     OW 8983   7.939   1.892   8.655  0.0610  0.3063  0.1225
35659SOL    HW1 8984   7.969   1.808   8.688 -1.4722 -0.9616 -1.5410
35659SOL    HW2 8985   8.019   1.944   8.644  1.2687 -1.6591 -0.7549
35660SOL     OW 8986   0.825   7.169   8.858  0.3872 -0.3327 -0.4968
35660SOL    HW1 8987   0.910   7.176   8.901  0.5286  0.4248 -0.8679
35660SOL    HW2 8988   0.837   7.102   8.791  0.9630  0.3816 -1.1267
35661SOL     OW 8989   0.024   5.735   0.186  0.9255 -0.1701 -0.5221
35661SOL    HW1 8990  -0.011   5.783   0.261  0.1430 -0.1270 -0.9002
35661SOL    HW2 8991   0.108   5.701   0.216 -0.2451 -1.8547  1.0729
35662SOL     OW 8992   5.388   0.884   4.775  0.0551 -0.4118  0.3329
35662SOL    HW1 8993   5.352   0.796   4.781 -1.3647 -0.0701 -1.8546
35662SOL    HW2 8994   5.417   0.892   4.684  0.4930  1.2585  0.5859
35663SOL     OW 8995   7.904   6.960   1.596 -0.0429  0.3354  0.3419
35663SOL    HW1 8996   7.959   6.920   1.528  0.6286 -0.6428  1.4390
35663SOL    HW2 8997   7.828   6.903   1.602  0.0753  0.2126  0.6723
35664SOL     OW 8998   8.281   5.801   8.314  0.0431  0.3441  0.1711
35664SOL    HW1 8999   8.339   5.749   8.258  0.5314  1.2307 -0.1674
35664SOL    HW2 9000   8.304   5.776   8.403  0.4848  0.2049  0.0186
35665SOL     OW 9001   5.371   5.513  10.641 -0.3943 -0.3509 -0.3365
35665SOL    HW1 9002   5.447   5.487  10.590  0.4973  0.6777  0.4177
35665SOL    HW2 9003   5.333   5.586  10.592 -0.3845 -0.3059 -0.2780
35666SOL     OW 9004   1.304   8.473   3.109 -0.2311 -0.5032 -0.2194
35666SOL    HW1 9005   1.291   8.381   3.087  0.3472 -0.0967 -2.5015
35666SOL    HW2 9006   1.310   8.518   3.024  2.5253  1.2150  0.7528
35667SOL     OW 9007  10.383   2.467   3.836 -0.0525 -0.0532  0.6698
35667SOL    HW1 9008  10.455   2.528   3.851 -0.5850  0.2633  2.1197
35667SOL    HW2 9009  10.402   2.427   3.751  1.8303  0.0073  1.0190
35668SOL     OW 9010   5.582   6.204   8.939  0.1643 -0.3085 -0.3744
35668SOL    HW1 9011   5.578   6.271   8.871 -0.2002  1.7165  1.5079
35668SOL    HW2 9012   5.667   6.163   8.929  1.3346  1.9528 -0.3182
35669SOL     OW 9013   0.163   6.960   0.746  0.2883  0.1637 -0.6356
35669SOL    HW1 9014   0.240   6.944   0.692  0.5323  1.2704 -0.6315
35669SOL    HW2 9015   0.135   7.048   0.723 -1.1349 -0.3154 -0.8107
35670SOL     OW 9016   9.647   8.059   7.404 -0.6233 -0.3188  0.5870
35670SOL    HW1 9017   9.707   7.984   7.401 -2.2027 -1.6168 -0.2204
35670SOL    HW2 9018   9.704   8.135   7.396  1.0202 -1.4361  1.0735
35671SOL     OW 9019   6.026   3.411   5.303  0.0763  0.2010  0.2442
35671SOL    HW1 9020   5.961   3.348   5.334  0.5895  0.3777  1.7437
35671SOL    HW2 9021   6.109   3.379   5.338  0.2290  2.2025  1.8542
35672SOL     OW 9022  10.533   9.114   9.443 -0.3712  0.6386 -0.3762
35672SOL    HW1 9023  10.604   9.174   9.469  0.2151  0.2764 -1.0991
35672SOL    HW2 9024  10.462   9.135   9.503  0.3977  0.9054  0.4791
35673SOL     OW 9025   2.149   4.172   6.430  0.2422 -0.1748  0.2716
35673SOL    HW1 9026   2.107   4.109   6.489 -1.6414 -0.6451 -1.4570
35673SOL    HW2 9027   2.126   4.258   6.466 -2.0114 -0.4325 -0.4002
35674SOL     OW 9028   1.313   4.514   4.707 -0.4889  0.4612 -0.1939
35674SOL    HW1 9029   1.387   4.474   4.752  0.1709  1.0248 -0.7527
35674SOL    HW2 9030   1.343   4.602   4.684 -0.7470  0.1544 -1.8218
35675SOL     OW 9031   8.944   5.081   0.184 -0.5045 -0.4550  0.1546
35675SOL    HW1 9032   8.906   5.099   0.270 -0.4456  2.1154 -0.2755
35675SOL    HW2 9033   9.037   5.102   0.194 -0.5520  0.1539 -0.6026
35676SOL     OW 9034   1.222   8.969   5.223 -0.3023 -0.0942 -0.2891
35676SOL    HW1 9035   1.248   9.060   5.215  1.2939 -0.4407  0.4383
35676SOL    HW2 9036   1.252   8.943   5.311  0.2313 -1.5795 -0.8715
35677SOL     OW 9037   1.982   1.184   6.863 -0.4373  0.4834  0.5526
35677SOL    HW1 9038   1.901   1.184   6.915 -0.8911 -1.3246 -0.0598
35677SOL    HW2 9039   2.008   1.092   6.862 -0.0480  0.5809 -1.7901
35678SOL     OW 9040   6.208  10.496   4.540 -0.3880 -0.5498  0.4726
35678SOL    HW1 9041   6.298  10.491   4.508 -0.4612 -1.5960  0.3933
35678SOL    HW2 9042   6.157  10.447   4.476 -0.7975 -1.1534  1.2388
35679SOL     OW 9043   0.099   9.448   2.499  0.0540 -0.4592  0.0150
35679SOL    HW1 9044   0.167   9.510   2.473 -1.7740 -0.2719 -5.8039
35679SOL    HW2 9045   0.042   9.498   2.558  1.9312  1.2332  0.4925
35680SOL     OW 9046   2.309   8.060   9.259  0.4595  0.2282  0.1889
35680SOL    HW1 9047   2.342   8.148   9.276  1.0905 -0.0083  0.2037
35680SOL    HW2 9048   2.377   8.002   9.292 -0.7142 -0.3017  1.7693
35681SOL     OW 9049  11.259   4.753   7.254  0.0417 -0.7499  0.4727
35681SOL    HW1 9050  11.269   4.803   7.173 -3.3039  0.4814  0.6792
35681SOL    HW2 9051  11.331   4.782   7.310 -0.0668  1.6130 -0.5180
35682SOL     OW 9052   7.328   0.622   0.286 -0.2538  0.4592  0.4273
35682SOL    HW1 9053   7.292   0.567   0.355 -2.6502 -0.0419 -1.0826
35682SOL    HW2 9054   7.366   0.560   0.223 -1.4181  0.5867 -0.4421
35683SOL     OW 9055   1.735   2.170   5.004  0.1764  0.1423  0.4445
35683SOL    HW1 9056   1.751   2.238   5.070  1.4543  0.7901 -0.4764
35683SOL    HW2 9057   1.795   2.099   5.029  0.7448  0.4355 -0.0720
35684SOL     OW 9058   0.397   0.816   4.018 -0.6809  0.4628  0.0207
35684SOL    HW1 9059   0.315   0.851   4.054 -0.6579  1.1009 -0.5266
35684SOL    HW2 9060   0.394   0.723   4.039 -0.7652  0.7692  1.4805
35685SOL     OW 9061   9.308   5.742   8.531  0.9298  0.1223  0.2495
35685SOL    HW1 9062   9.262   5.706   8.455  2.4046 -3.3167  0.8139
35685SOL    HW2 9063   9.240   5.782   8.584 -1.4987 -4.1979  0.8003
35686SOL     OW 9064   5.087   3.578   6.010 -0.1383  0.2498 -0.5026
35686SOL    HW1 9065   5.088   3.482   6.005  0.6109  0.3192 -2.2663
35686SOL    HW2 9066   5.027   3.597   6.082  0.0425 -1.5488  0.1791
35687SOL     OW 9067   6.176   1.932  10.401 -0.3143 -0.1046  0.6832
35687SOL    HW1 9068   6.202   1.848  10.438  0.9110  0.1056  0.3302
35687SOL    HW2 9069   6.080   1.925  10.392 -0.2193 -1.5387  0.4678
35688SOL     OW 9070   2.246   4.252   0.492  0.1722 -0.1679  0.0280
35688SOL    HW1 9071   2.280   4.322   0.437 -1.5286  0.7556  0.0686
35688SOL    HW2 9072   2.157   4.237   0.459 -0.4960 -0.3371  1.7955
35689SOL     OW 9073   1.597   5.533   4.526 -0.8974 -0.0641 -0.2728
35689SOL    HW1 9074   1.566   5.614   4.485 -0.5541 -0.1575 -0.7240
35689SOL    HW2 9075   1.518   5.494   4.563 -1.2304 -0.0061 -0.8988
35690SOL     OW 9076   2.339   8.316  10.433  0.3938 -0.2232 -0.1902
35690SOL    HW1 9077   2.303   8.229  10.416  1.2458 -0.4767 -0.7693
35690SOL    HW2 9078   2.360   8.316  10.526  0.5885 -0.7240 -0.2315
35691SOL     OW 9079   2.979   4.996   8.353 -0.4987 -0.2641 -0.0761
35691SOL    HW1 9080   2.911   4.967   8.414 -0.6205 -1.1731 -0.6305
35691SOL    HW2 9081   2.948   4.967   8.268  0.1936  0.0494 -0.4380
35692SOL     OW 9082   1.137   2.352  10.037  0.0313 -0.4888  0.2228
35692SOL    HW1 9083   1.131   2.281  10.101  1.0256  0.8770  1.9407
35692SOL    HW2 9084   1.204   2.322   9.975  1.3148 -0.6076  1.6005
35693SOL     OW 9085   2.286   2.986   3.599  0.4276  0.0754  0.4666
35693SOL    HW1 9086   2.342   2.986   3.521 -0.5861 -2.1655 -0.3416
35693SOL    HW2 9087   2.290   2.896   3.632 -2.0304  0.0385  0.8258
35694SOL     OW 9088   3.801   5.034   1.304  0.0488 -0.6095 -0.3528
35694SOL    HW1 9089   3.869   5.081   1.255 -0.7262  1.2291  0.2395
35694SOL    HW2 9090   3.719   5.063   1.264 -0.5151 -0.4287  0.8891
35695SOL     OW 9091   0.330   5.657  10.769 -0.3643  0.1710 -0.1801
35695SOL    HW1 9092   0.241   5.656  10.733 -0.8636  1.8322  0.8917
35695SOL    HW2 9093   0.318   5.665  10.864  0.9268  0.7426 -0.0412
35696SOL     OW 9094   6.616   0.527   4.316 -0.1687 -0.1274 -0.4003
35696SOL    HW1 9095   6.691   0.477   4.345 -1.5858 -1.4497  1.1654
35696SOL    HW2 9096   6.544   0.501   4.374 -1.1407  3.3929  0.2568
35697SOL     OW 9097   9.279   3.832   3.520 -0.4335  0.1656  0.2659
35697SOL    HW1 9098   9.296   3.824   3.426  1.4750 -0.8935  0.6429
35697SOL    HW2 9099   9.200   3.780   3.535 -1.0987  0.8329 -0.8258
35698SOL     OW 9100  10.306   7.327   9.771 -0.3708 -0.3022  0.4251
35698SOL    HW1 9101  10.398   7.309   9.753 -0.2821  0.8804 -0.3624
35698SOL    HW2 9102  10.294   7.301   9.863  0.5964 -0.9902  0.3706
35699SOL     OW 9103   0.649   3.494   2.740 -0.1536  0.2322 -0.2725
35699SOL    HW1 9104   0.643   3.412   2.789 -2.6453 -0.4186 -1.4933
35699SOL    HW2 9105   0.742   3.502   2.719  0.3170 -1.7215  0.7799
35700SOL     OW 9106   6.530   7.906   1.138  0.1910  0.5256 -0.2993
35700SOL    HW1 9107   6.625   7.897   1.124  0.4256  0.3513  1.2445
35700SOL    HW2 9108   6.518   7.888   1.231 -1.6293 -1.5307 -0.8533
35701SOL     OW 9109   9.053   5.958   7.057  0.2115  0.0054  0.0208
35701SOL    HW1 9110   9.051   6.035   7.114 -1.0108 -1.0648  1.5105
35701SOL    HW2 9111   9.101   5.892   7.109 -1.2619 -1.1123  0.0289
35702SOL     OW 9112   1.623  11.151   4.655 -0.1740 -0.5248 -0.3577
35702SOL    HW1 9113   1.622  11.135   4.561 -0.5457  1.2791 -0.7080
35702SOL    HW2 9114   1.548  11.209   4.670  0.5229  0.0991  0.8605
35703SOL     OW 9115   8.061  10.417   1.144 -0.3679 -0.1215  0.2492
35703SOL    HW1 9116   8.135  10.401   1.085 -1.5635  0.5274 -1.5225
35703SOL    HW2 9117   8.080  10.365   1.222  0.7799 -1.9090 -1.1459
35704SOL     OW 9118   9.718   7.694   4.521  0.1843  0.0456  0.1666
35704SOL    HW1 9119   9.721   7.633   4.594 -0.7790 -0.1586  0.0412
35704SOL    HW2 9120   9.647   7.754   4.542 -1.1366 -0.9285 -1.3074
35705SOL     OW 9121   9.662   2.248   6.345  0.0264 -0.1701 -0.0567
35705SOL    HW1 9122   9.590   2.212   6.294  0.9935 -0.5786 -1.1559
35705SOL    HW2 9123   9.739   2.238   6.290  1.2671 -1.3467  1.7458
35706SOL     OW 9124   7.556   3.525   6.047 -0.2831  0.4977  0.1743
35706SOL    HW1 9125   7.533   3.585   6.118 -0.5507  0.6031  0.0018
35706SOL    HW2 9126   7.637   3.482   6.076 -0.5156  0.3748  0.6378
35707SOL     OW 9127   3.517   5.267   5.924  0.3313 -0.9007 -0.0244
35707SOL    HW1 9128   3.532   5.205   5.853  0.5620 -4.3726  2.7667
35707SOL    HW2 9129   3.431   5.305   5.906 -0.8099 -3.6468 -0.9359
35708SOL     OW 9130   4.337   3.749   7.767 -0.2701  0.1414 -0.1708
35708SOL    HW1 9131   4.368   3.789   7.686  0.2464  1.2824  0.5595
35708SOL    HW2 9132   4.331   3.822   7.829 -2.8283 -0.2793  0.2135
35709SOL     OW 9133   3.499   3.078   3.824  0.3615 -0.8523 -0.2774
35709SOL    HW1 9134   3.586   3.036   3.826  1.4096  1.1005 -1.8676
35709SOL    HW2 9135   3.507   3.152   3.884  0.5356  0.5957 -2.0289
35710SOL     OW 9136   7.600  10.853   2.105  0.4084 -0.8205 -0.3051
35710SOL    HW1 9137   7.680  10.864   2.053 -1.3334  2.9340 -2.6231
35710SOL    HW2 9138   7.617  10.901   2.185  0.8503 -0.9863 -0.2958
35711SOL     OW 9139   3.542   4.734   8.317  0.5469 -0.0757  0.0425
35711SOL    HW1 9140   3.516   4.823   8.294  1.0840  0.3234  0.9341
35711SOL    HW2 9141   3.583   4.742   8.403  1.0968 -1.1027 -0.1032
35712SOL     OW 9142   8.023   8.734   2.266 -0.5598  0.1264 -0.2211
35712SOL    HW1 9143   8.101   8.760   2.316 -0.5660 -2.1629  1.1070
35712SOL    HW2 9144   7.951   8.742   2.329 -1.0014 -0.2847 -0.6691
35713SOL     OW 9145   8.600   1.056  10.126  0.3311  0.3126 -0.0837
35713SOL    HW1 9146   8.561   1.143  10.117 -0.9450 -0.2606 -0.2695
35713SOL    HW2 9147   8.549   1.000  10.067 -0.9006 -1.2063  2.2568
35714SOL     OW 9148   4.960   8.449   1.754  1.2404 -0.4887 -0.2617
35714SOL    HW1 9149   4.964   8.543   1.736  0.5806 -0.8408 -2.4489
35714SOL    HW2 9150   4.926   8.410   1.674 -2.1212 -2.2507  1.7868
35715SOL     OW 9151   8.315   9.627   9.767 -0.8142 -0.5418  0.0164
35715SOL    HW1 9152   8.246   9.689   9.788 -0.3585  0.0095 -0.0925
35715SOL    HW2 9153   8.378   9.677   9.715  0.7810 -0.3914  1.9581
35716SOL     OW 9154  10.028   8.165   0.465 -0.4643  0.3083 -0.4850
35716SOL    HW1 9155  10.084   8.243   0.465 -0.6590  0.4556 -1.2085
35716SOL    HW2 9156  10.006   8.151   0.557 -2.6590  2.7325 -0.5449
35717SOL     OW 9157   5.557   5.221   2.392 -0.1004 -0.5993 -0.2933
35717SOL    HW1 9158   5.519   5.134   2.377  0.2964 -0.9333  0.5691
35717SOL    HW2 9159   5.649   5.212   2.365  0.7358 -1.3253  2.5018
35718SOL     OW 9160   3.230   9.561   0.039  0.1595  0.3101 -0.3342
35718SOL    HW1 9161   3.256   9.501  -0.031 -2.1455 -0.8148 -0.2924
35718SOL    HW2 9162   3.240   9.509   0.119 -1.0789  0.2169 -0.2273
35719SOL     OW 9163   4.732   2.745   6.037 -0.9992 -0.7047  0.0898
35719SOL    HW1 9164   4.787   2.670   6.061 -1.0173 -0.2096  1.8291
35719SOL    HW2 9165   4.794   2.811   6.007 -0.7135 -0.4914  1.1143
35720SOL     OW 9166   9.342  10.160   2.256 -0.0968 -0.0355 -0.2946
35720SOL    HW1 9167   9.368  10.188   2.168 -0.6987  0.0015 -0.4681
35720SOL    HW2 9168   9.303  10.074   2.243 -1.2679  0.4716 -0.2448
35721SOL     OW 9169   3.136   4.840   4.464 -0.1450 -0.8900 -0.2356
35721SOL    HW1 9170   3.149   4.932   4.487  0.5302 -1.2421  0.8683
35721SOL    HW2 9171   3.079   4.806   4.533  2.1174 -2.0266  1.1843
35722SOL     OW 9172   9.645  10.685   6.496  0.4983 -0.2556  0.0162
35722SOL    HW1 9173   9.620  10.642   6.578  1.4402 -0.1125  0.3940
35722SOL    HW2 9174   9.714  10.630   6.461 -1.2638 -1.4623 -1.7517
35723SOL     OW 9175   4.317   2.681  10.094 -0.3734  0.2041  0.5220
35723SOL    HW1 9176   4.246   2.619  10.080  0.6513 -0.7413 -0.8004
35723SOL    HW2 9177   4.285   2.764  10.058 -0.9243 -0.1366  0.2257
35724SOL     OW 9178   1.845   6.782   2.830  0.4207 -0.2653 -0.0606
35724SOL    HW1 9179   1.822   6.708   2.886  1.2322 -0.1533  0.4263
35724SOL    HW2 9180   1.895   6.840   2.887  0.1756  0.4466 -0.5652
35725SOL     OW 9181   4.835   2.571  11.098 -0.6080 -0.6265  0.1647
35725SOL    HW1 9182   4.852   2.638  11.032 -2.1822 -1.1822 -0.8542
35725SOL    HW2 9183   4.874   2.492  11.062  1.5359 -0.2475  1.5170
35726SOL     OW 9184   6.849   4.618   8.599 -0.5039 -0.7760 -0.6996
35726SOL    HW1 9185   6.816   4.708   8.602  3.0621  0.7281 -1.0456
35726SOL    HW2 9186   6.814   4.581   8.518 -1.7621  0.3932 -0.7166
35727SOL     OW 9187   4.238   9.823   2.365  0.4209 -0.3482  0.0158
35727SOL    HW1 9188   4.182   9.756   2.325 -0.4546  0.8052 -0.7251
35727SOL    HW2 9189   4.206   9.830   2.455 -2.1137  1.7636 -0.9288
35728SOL     OW 9190   3.599   3.257  10.372  0.0440 -0.0426  0.5799
35728SOL    HW1 9191   3.644   3.261  10.456 -0.4676  0.5904  0.8320
35728SOL    HW2 9192   3.583   3.348  10.349  0.7514 -0.1840 -0.5309
35729SOL     OW 9193   7.236   3.123   5.059 -0.0207  0.1023  0.5762
35729SOL    HW1 9194   7.205   3.211   5.037 -2.5965 -1.1185 -1.1684
35729SOL    HW2 9195   7.184   3.098   5.135  0.5374 -0.0193  0.9224
35730SOL     OW 9196   7.675   5.443  11.091  0.1509 -0.1867 -0.3599
35730SOL    HW1 9197   7.613   5.514  11.074 -0.3817 -0.6651 -0.4321
35730SOL    HW2 9198   7.649   5.373  11.032  0.5095 -0.5453 -0.1024
35731SOL     OW 9199   9.596   8.230   1.019 -0.6802 -0.3919  0.5611
35731SOL    HW1 9200   9.522   8.178   1.049 -0.2080 -0.4479  1.6938
35731SOL    HW2 9201   9.612   8.200   0.930 -2.2334 -0.1180  0.1720
35732SOL     OW 9202   7.454   2.264   5.947  0.0807 -0.3278  0.2835
35732SOL    HW1 9203   7.500   2.311   6.017 -1.4482  2.1845 -0.2783
35732SOL    HW2 9204   7.381   2.321   5.924  0.6965 -0.8645 -3.6202
35733SOL     OW 9205   2.956   5.526   1.981 -0.3560 -0.1054 -0.1785
35733SOL    HW1 9206   3.033   5.538   2.036 -0.6912 -0.2701  0.3351
35733SOL    HW2 9207   2.882   5.545   2.039 -0.7143 -0.2975 -0.5674
35734SOL     OW 9208   9.635   6.700   8.958 -0.5084 -0.5113  0.3955
35734SOL    HW1 9209   9.609   6.630   8.898 -0.4498 -0.3098  0.1328
35734SOL    HW2 9210   9.602   6.671   9.044 -2.5774  0.2435 -0.0852
35735SOL     OW 9211   5.889   9.660   8.312 -0.3589 -0.2059 -0.1034
35735SOL    HW1 9212   5.860   9.637   8.224 -0.1225 -1.2512  0.0780
35735SOL    HW2 9213   5.976   9.697   8.300 -1.4081  2.3406 -0.5831
35736SOL     OW 9214   2.913   4.428   1.362 -0.0978 -0.7857 -0.0362
35736SOL    HW1 9215   2.878   4.511   1.330  1.1374 -0.8271 -1.6247
35736SOL    HW2 9216   2.909   4.435   1.457 -3.0233 -0.2401 -0.0917
35737SOL     OW 9217   3.495   4.863   2.591  0.6489  0.1287 -0.0472
35737SOL    HW1 9218   3.480   4.856   2.686 -1.6051  0.4497 -0.3238
35737SOL    HW2 9219   3.509   4.773   2.562  0.4785 -0.0683  0.4682
35738SOL     OW 9220   4.321  10.547   6.554  0.4576  0.2623  0.0489
35738SOL    HW1 9221   4.285  10.492   6.624 -0.0583  1.6690  0.9475
35738SOL    HW2 9222   4.416  10.539   6.564  0.4490  1.9771  2.2836
35739SOL     OW 9223   8.349   2.684  10.646  0.1492  0.1097 -0.5437
35739SOL    HW1 9224   8.351   2.616  10.713 -0.8694 -0.7004 -1.3142
35739SOL    HW2 9225   8.416   2.747  10.674 -0.2534 -0.1935  1.2422
35740SOL     OW 9226   8.269   7.295   6.448 -0.3107 -0.3826  0.0192
35740SOL    HW1 9227   8.254   7.219   6.391  1.3600 -0.8534  0.1637
35740SOL    HW2 9228   8.206   7.284   6.519 -0.2964 -1.4857 -0.1170
35741SOL     OW 9229   3.206   9.286  10.595 -0.0597 -0.1743 -0.2784
35741SOL    HW1 9230   3.111   9.280  10.600 -0.0041 -0.6059  0.4509
35741SOL    HW2 9231   3.224   9.380  10.591 -0.4566  0.0636  1.9312
35742SOL     OW 9232   6.667   0.883   4.989  0.3453 -0.3071 -0.7586
35742SOL    HW1 9233   6.588   0.916   4.947  0.8441  0.1004 -1.4023
35742SOL    HW2 9234   6.715   0.962   5.015  1.5447 -0.4731 -2.2871
35743SOL     OW 9235  10.840  11.165   7.472 -0.2468  0.2261  0.3791
35743SOL    HW1 9236  10.874  11.174   7.383  1.0272 -1.6510  0.6092
35743SOL    HW2 9237  10.798  11.079   7.473  1.2504 -0.5558  1.9783
35744SOL     OW 9238   8.088   7.597   7.333 -0.0165  0.2667 -0.3167
35744SOL    HW1 9239   8.031   7.552   7.271  0.3845  0.2831 -0.6995
35744SOL    HW2 9240   8.134   7.662   7.280  0.9644 -0.2900 -0.1739
35745SOL     OW 9241   8.184   4.398   7.217 -0.2276 -0.2194  0.1440
35745SOL    HW1 9242   8.272   4.365   7.239  0.6880  0.7050 -1.8805
35745SOL    HW2 9243   8.168   4.367   7.128 -1.6852  0.1972  0.2359
35746SOL     OW 9244  10.019   8.865   4.825 -0.0754  0.2781 -0.1224
35746SOL    HW1 9245  10.077   8.855   4.749 -0.2979 -2.4639 -0.0180
35746SOL    HW2 9246   9.983   8.778   4.840 -1.8842  1.2412  1.7161
35747SOL     OW 9247   3.030   1.492   4.734  0.0344 -0.2308  0.1161
35747SOL    HW1 9248   3.048   1.574   4.780 -0.7066  0.6269 -1.0752
35747SOL    HW2 9249   3.112   1.472   4.688 -0.3218  0.8449 -1.0510
35748SOL     OW 9250   9.974   7.480   3.038 -0.1351  0.5421  0.0982
35748SOL    HW1 9251   9.881   7.479   3.060 -0.5510 -0.2008 -1.5130
35748SOL    HW2 9252  10.018   7.455   3.120 -1.4956 -1.1525  0.3760
35749SOL     OW 9253   2.976   9.987   3.358 -0.1988  0.1426  0.4228
35749SOL    HW1 9254   3.047  10.048   3.381  0.2089  0.3428 -1.2676
35749SOL    HW2 9255   2.984   9.975   3.264 -0.0047 -2.9102  0.7512
35750SOL     OW 9256   1.947  10.193   6.764  0.0744 -0.0395 -0.1402
35750SOL    HW1 9257   1.989  10.278   6.777  1.6376 -0.2239 -3.1749
35750SOL    HW2 9258   1.984  10.137   6.833  0.0189  1.3787  1.0829
35751SOL     OW 9259   6.385   2.797   6.852 -0.4939 -0.4082 -0.3816
35751SOL    HW1 9260   6.390   2.865   6.920  0.7191 -0.5402 -0.3228
35751SOL    HW2 9261   6.312   2.741   6.880 -1.1501  0.5452 -0.1387
35752SOL     OW 9262   5.863   3.784   0.871  0.0390  0.2817 -0.4916
35752SOL    HW1 9263   5.944   3.733   0.871  0.1836  0.2243  3.2087
35752SOL    HW2 9264   5.822   3.764   0.955 -1.6502  3.5797 -0.3542
35753SOL     OW 9265   3.811   0.250   6.167 -0.4999  0.1422  0.0198
35753SOL    HW1 9266   3.867   0.178   6.196 -0.8040  0.2637  0.9474
35753SOL    HW2 9267   3.871   0.310   6.123 -0.1469 -0.4028 -0.2631
35754SOL     OW 9268   5.389   3.270   1.647  0.1023 -0.4141 -0.3135
35754SOL    HW1 9269   5.398   3.232   1.734 -1.6594 -0.6656 -0.2046
35754SOL    HW2 9270   5.315   3.331   1.654  0.9185  0.7443 -1.2598
35755SOL     OW 9271   0.002   6.450   6.802 -0.4546  0.1498  0.3024
35755SOL    HW1 9272  -0.048   6.388   6.749  0.6967  0.7412 -1.5581
35755SOL    HW2 9273  -0.026   6.536   6.772 -0.6006  0.5204  1.4700
35756SOL     OW 9274   9.469   7.115   6.045 -0.0543  0.9978  0.0523
35756SOL    HW1 9275   9.479   7.022   6.026  0.1072  1.0648 -0.2064
35756SOL    HW2 9276   9.411   7.119   6.121  1.3699  0.6038  1.2040
35757SOL     OW 9277   1.114   6.162   6.288 -0.4573 -0.2976  0.1267
35757SOL    HW1 9278   1.176   6.151   6.361 -0.0256 -0.6189 -0.2855
35757SOL    HW2 9279   1.056   6.086   6.295 -0.2210 -0.4950 -0.0527
35758SOL     OW 9280  10.877   5.631  11.274 -0.3838 -0.9015  0.7008
35758SOL    HW1 9281  10.879   5.725  11.291 -2.9773 -0.9581  1.7198
35758SOL    HW2 9282  10.883   5.590  11.360 -2.7549 -1.5321  0.6243
35759SOL     OW 9283  11.084   9.494   1.125  0.3773  0.3931  0.0821
35759SOL    HW1 9284  11.080   9.549   1.048 -0.4427  0.8688  0.4585
35759SOL    HW2 9285  11.010   9.521   1.179  1.3256  0.5445  1.3546
35760SOL     OW 9286   5.081  10.410   4.105 -0.2194 -0.4671  0.2071
35760SOL    HW1 9287   5.085  10.437   4.197 -1.2382  0.0118  0.1228
35760SOL    HW2 9288   5.033  10.327   4.106  0.6667 -0.9909  0.2016
35761SOL     OW 9289   3.847   8.087   5.208  0.4445 -0.2903 -0.5738
35761SOL    HW1 9290   3.851   8.151   5.138  1.8530  1.7172  1.2112
35761SOL    HW2 9291   3.932   8.093   5.252  0.0208 -2.2320  0.6568
35762SOL     OW 9292   1.634   8.044   4.087  0.4245  0.4250 -0.0472
35762SOL    HW1 9293   1.623   8.019   4.179 -1.3502  1.7992  0.1879
35762SOL    HW2 9294   1.605   7.968   4.037 -0.8942  0.4759  0.5883
35763SOL     OW 9295   9.256   1.838   7.275 -0.3672 -0.0411 -0.0952
35763SOL    HW1 9296   9.277   1.748   7.249  0.2100  0.0949 -0.1219
35763SOL    HW2 9297   9.281   1.891   7.199 -1.1356  0.1010 -0.2565
35764SOL     OW 9298   3.920   4.865   0.756  0.4143  0.8614  0.8228
35764SOL    HW1 9299   3.863   4.864   0.679 -0.4335  2.7593  1.3652
35764SOL    HW2 9300   3.997   4.816   0.730 -0.6166 -0.0692 -0.6178
35765SOL     OW 9301   8.172   3.726   9.121 -0.3165 -0.0685  0.3804
35765SOL    HW1 9302   8.176   3.726   9.217 -1.1042  1.1906  0.4386
35765SOL    HW2 9303   8.166   3.818   9.097  1.5575 -0.2312 -0.9954
35766SOL     OW 9304   0.219   9.720   3.560 -0.4749 -0.1811  0.4268
35766SOL    HW1 9305   0.250   9.684   3.478 -1.9139 -1.1931  0.2802
35766SOL    HW2 9306   0.124   9.708   3.557 -0.7599  1.4414  1.4488
35767SOL     OW 9307   5.282   0.201   8.596  0.2657 -0.0176 -0.4570
35767SOL    HW1 9308   5.283   0.291   8.627 -0.5264 -0.9502  2.5473
35767SOL    HW2 9309   5.190   0.177   8.595  0.3290 -0.3797 -2.7515
35768SOL     OW 9310   3.493  10.671   2.146 -0.3384 -0.1515 -0.8446
35768SOL    HW1 9311   3.542  10.627   2.077  0.3865  0.9061 -1.0336
35768SOL    HW2 9312   3.548  10.663   2.224 -1.6930 -2.3882 -0.0323
35769SOL     OW 9313  10.679   2.240   1.581 -0.2724  0.3463  0.1806
35769SOL    HW1 9314  10.678   2.148   1.554  0.6381  0.1501  0.7404
35769SOL    HW2 9315  10.622   2.243   1.658  1.0654 -0.1356  1.2309
35770SOL     OW 9316   5.707  10.147   3.689  0.3393  0.0102  0.2899
35770SOL    HW1 9317   5.765  10.127   3.763  0.5996  0.1082  0.1132
35770SOL    HW2 9318   5.716  10.071   3.631 -0.1436 -0.2356  0.5282
35771SOL     OW 9319   1.348   9.297   4.557  0.4454 -0.2598 -0.2763
35771SOL    HW1 9320   1.436   9.332   4.572  0.1391 -0.3155  2.1383
35771SOL    HW2 9321   1.300   9.370   4.517  1.6149 -0.3237 -1.9009
35772SOL     OW 9322   9.519   2.355   5.949  0.4782  0.2818  0.0498
35772SOL    HW1 9323   9.582   2.425   5.934 -0.9419  1.4671 -0.6095
35772SOL    HW2 9324   9.457   2.362   5.876 -0.2571 -1.0403  0.5044
35773SOL     OW 9325  10.357   0.154   4.331 -0.0764  0.3038  0.0972
35773SOL    HW1 9326  10.370   0.060   4.317 -0.6217  0.0990  0.8804
35773SOL    HW2 9327  10.262   0.165   4.336 -0.0050  0.4642  2.5081
35774SOL     OW 9328   0.292   9.670  10.661 -0.3414  0.1670 -0.0032
35774SOL    HW1 9329   0.312   9.759  10.634  0.7660  0.2959  1.1578
35774SOL    HW2 9330   0.215   9.679  10.718 -2.3284 -0.0466 -2.4832
35775SOL     OW 9331   9.752   3.991   1.999 -0.0967  0.3568  0.2457
35775SOL    HW1 9332   9.846   3.991   1.980  0.3656  0.7873  2.3214
35775SOL    HW2 9333   9.730   3.899   2.013 -0.2552  0.1334 -1.2660
35776SOL     OW 9334  10.467   4.434   6.008 -0.2158 -0.2961 -0.0284
35776SOL    HW1 9335  10.487   4.386   6.089 -3.3140 -0.8713  0.5101
35776SOL    HW2 9336  10.435   4.367   5.948 -1.6199  0.6322 -0.3575
35777SOL     OW 9337   7.623   9.583   9.959 -0.3263 -0.6536 -0.7905
35777SOL    HW1 9338   7.529   9.602   9.966 -0.5042  0.4658 -4.2426
35777SOL    HW2 9339   7.650   9.563  10.049 -3.0012  3.1028  1.1542
35778SOL     OW 9340   1.834   5.335   4.951  0.0530 -0.0218  0.5353
35778SOL    HW1 9341   1.789   5.356   4.869 -1.1208  0.2096  1.2095
35778SOL    HW2 9342   1.771   5.281   4.998  0.1221  1.0330  1.8815
35779SOL     OW 9343   9.999  10.832   8.879  0.2071  0.5396  0.6985
35779SOL    HW1 9344  10.034  10.750   8.913  1.1403  0.5463 -0.1999
35779SOL    HW2 9345   9.926  10.806   8.822  0.2367  0.3564  0.7460
35780SOL     OW 9346   2.393   0.737   7.565  1.1348  0.1641  0.4212
35780SOL    HW1 9347   2.348   0.813   7.601  0.9327 -1.2198  3.3672
35780SOL    HW2 9348   2.474   0.730   7.615 -0.0203 -2.9327  2.2057
35781SOL     OW 9349   3.481  10.834  10.249 -0.2024  0.0594 -0.1596
35781SOL    HW1 9350   3.565  10.810  10.209 -0.0843  1.4943 -0.8641
35781SOL    HW2 9351   3.485  10.797  10.337  0.2356 -1.7480 -0.8909
35782SOL     OW 9352   5.050   6.219   1.917  0.3460 -0.6073  0.1485
35782SOL    HW1 9353   4.970   6.233   1.866  0.4628  2.0194  0.5906
35782SOL    HW2 9354   5.060   6.298   1.969  2.5625 -1.4310  1.0792
35783SOL     OW 9355  11.148   9.366   0.427  0.3107  0.0829 -0.9380
35783SOL    HW1 9356  11.193   9.428   0.484 -0.8559 -0.6200  0.8163
35783SOL    HW2 9357  11.182   9.280   0.450 -1.3628 -0.3909 -0.0393
35784SOL     OW 9358  10.819   1.876   9.969 -0.2761  0.1845 -0.3780
35784SOL    HW1 9359  10.802   1.951  10.026 -0.3149 -1.4021  1.8640
35784SOL    HW2 9360  10.733   1.853   9.933 -0.6549 -0.0064  0.6002
35785SOL     OW 9361   4.024   7.719   8.729 -0.6794 -0.5652  0.6344
35785SOL    HW1 9362   4.061   7.770   8.802 -0.3985 -1.9704  1.5156
35785SOL    HW2 9363   4.029   7.778   8.654 -0.8994  0.9073  1.7237
35786SOL     OW 9364   0.593   8.040   0.553 -0.0630  0.1764 -0.2909
35786SOL    HW1 9365   0.613   8.036   0.460  0.0759  1.4475 -0.3197
35786SOL    HW2 9366   0.512   7.988   0.562 -0.9581  1.3322 -1.3701
35787SOL     OW 9367   6.761   6.547   1.298 -0.0899 -0.1942 -0.3323
35787SOL    HW1 9368   6.760   6.594   1.214  0.4906 -2.0187 -1.4228
35787SOL    HW2 9369   6.788   6.458   1.275  1.4257 -0.4185  1.9892
35788SOL     OW 9370   8.824  10.742   0.328  1.2251 -0.2760  0.1674
35788SOL    HW1 9371   8.873  10.687   0.268  0.4722  0.0128 -0.7280
35788SOL    HW2 9372   8.781  10.681   0.387 -1.9304 -0.9379 -2.5554
35789SOL     OW 9373  10.923   7.527   6.383  0.2389 -0.7282  0.7071
35789SOL    HW1 9374  11.014   7.516   6.411 -0.0720 -3.6180  0.9424
35789SOL    HW2 9375  10.904   7.448   6.333 -2.2591 -0.3975  0.9985
35790SOL     OW 9376   6.695   5.760   1.583 -0.1604 -0.5455 -0.0283
35790SOL    HW1 9377   6.704   5.676   1.628 -0.9338 -0.5895  0.0676
35790SOL    HW2 9378   6.703   5.739   1.490  0.2229 -0.6403  0.0280
35791SOL     OW 9379  10.646   0.744   0.383 -0.8184  0.2194  0.3714
35791SOL    HW1 9380  10.719   0.776   0.329 -0.4741 -1.1664 -0.0406
35791SOL    HW2 9381  10.688   0.713   0.463 -1.3531  2.4883  1.6085
35792SOL     OW 9382   3.167   9.232   4.559  0.2336 -0.4222  1.2002
35792SOL    HW1 9383   3.181   9.319   4.595  1.0836 -0.1196  0.1935
35792SOL    HW2 9384   3.230   9.225   4.487 -0.1505 -1.6844  0.9512
35793SOL     OW 9385   7.671   8.016   2.021  0.3650  0.5035 -0.0893
35793SOL    HW1 9386   7.622   7.945   2.064  1.1831  0.4794  0.8577
35793SOL    HW2 9387   7.676   7.990   1.929 -0.6614  0.0973 -0.0463
35794SOL     OW 9388   4.179   8.894   6.619  0.1597  0.2238 -0.5897
35794SOL    HW1 9389   4.119   8.899   6.545 -0.7694  1.1017  0.1960
35794SOL    HW2 9390   4.248   8.958   6.599 -0.8240  1.4819 -0.0787
35795SOL     OW 9391   1.939   3.918   2.326 -0.2072  0.5724  0.4018
35795SOL    HW1 9392   1.983   3.953   2.248  0.3367 -1.2065 -0.1525
35795SOL    HW2 9393   1.961   3.980   2.396  1.2726  0.9718 -0.3650
35796SOL     OW 9394   4.581   8.859  10.655  0.1849  0.2375 -0.2561
35796SOL    HW1 9395   4.625   8.943  10.641  2.3615 -1.0540 -1.7271
35796SOL    HW2 9396   4.601   8.808  10.576 -2.2072 -1.2330 -0.0225
35797SOL     OW 9397   0.957   5.116   4.230  0.3761 -0.4779 -0.6933
35797SOL    HW1 9398   1.017   5.078   4.294  0.4593  1.6504  0.6122
35797SOL    HW2 9399   0.941   5.046   4.167  3.6066 -1.4004 -0.6838
35798SOL     OW 9400   5.559   5.457   4.876  0.4522  0.3678  0.0576
35798SOL    HW1 9401   5.654   5.469   4.877  0.6176 -0.5652 -1.3948
35798SOL    HW2 9402   5.546   5.376   4.827 -1.0609 -0.0287  1.0663
35799SOL     OW 9403  10.009   5.400  10.711 -0.0483 -0.0477  0.3443
35799SOL    HW1 9404  10.103   5.420  10.714 -0.5289  2.4481  0.6775
35799SOL    HW2 9405   9.974   5.438  10.792 -1.6028  0.5248 -0.5770
35800SOL     OW 9406   0.236   1.925   1.932  0.0839  0.2124  0.1127
35800SOL    HW1 9407   0.282   1.964   2.006 -0.5522  0.8435  0.1865
35800SOL    HW2 9408   0.200   1.843   1.966  1.8198 -0.7258 -0.1710
35801SOL     OW 9409   5.872   6.173   0.590  0.1718  0.2347  0.1212
35801SOL    HW1 9410   5.939   6.135   0.645  1.1003  0.9676 -0.4805
35801SOL    HW2 9411   5.841   6.100   0.536  1.5415  0.1764 -0.6296
35802SOL     OW 9412   7.228   4.309   0.369  0.5494 -0.0678 -0.1793
35802SOL    HW1 9413   7.177   4.383   0.400  2.2727  0.3259  1.9718
35802SOL    HW2 9414   7.247   4.330   0.277 -2.1242  0.2650 -0.7131
35803SOL     OW 9415   7.716   2.082   2.514 -0.2619  0.9401  0.4390
35803SOL    HW1 9416   7.735   2.008   2.456 -2.7911  2.3926 -2.5722
35803SOL    HW2 9417   7.647   2.050   2.572  0.2670  0.3129  0.7393
35804SOL     OW 9418   4.697   5.657   0.111 -0.2651 -0.3794 -0.1943
35804SOL    HW1 9419   4.791   5.638   0.118  0.0086  1.2028  0.9882
35804SOL    HW2 9420   4.691   5.723   0.042 -0.2010  1.1365  1.1897
35805SOL     OW 9421   1.515  10.097   4.263  0.1654  0.3362  0.1209
35805SOL    HW1 9422   1.427  10.119   4.294 -0.2977 -1.5721  0.2823
35805SOL    HW2 9423   1.519  10.134   4.175 -0.6870  0.7184  0.2316
35806SOL     OW 9424  10.820   5.466   5.801  0.1931  0.2327 -0.1431
35806SOL    HW1 9425  10.896   5.516   5.831 -0.7298  0.5391  1.8560
35806SOL    HW2 9426  10.823   5.386   5.854 -0.1376 -0.3669 -1.0155
35807SOL     OW 9427   1.636   5.071   5.997  0.7326 -0.1543 -0.8016
35807SOL    HW1 9428   1.686   5.137   5.949 -0.1751  1.4509  0.3457
35807SOL    HW2 9429   1.603   5.012   5.930  3.1652 -0.6136 -1.6950
35808SOL     OW 9430   8.105   9.341   8.938 -0.4499 -0.3696 -0.6781
35808SOL    HW1 9431   8.167   9.280   8.897 -0.5964 -1.2367  0.3495
35808SOL    HW2 9432   8.056   9.287   9.000 -0.6301  0.7857  0.2182
35809SOL     OW 9433   9.624  10.663   2.325 -0.0353 -0.1811  0.7588
35809SOL    HW1 9434   9.698  10.607   2.301  0.2708  0.8622 -0.8374
35809SOL    HW2 9435   9.658  10.719   2.395  2.3494  3.3950 -2.7843
35810SOL     OW 9436   8.848   7.750  10.677  0.1835  0.2430 -0.2787
35810SOL    HW1 9437   8.943   7.747  10.670  0.6118 -0.5371  3.4879
35810SOL    HW2 9438   8.817   7.675  10.626  1.6487 -0.1063 -0.6916
35811SOL     OW 9439   7.117   4.030   8.387 -0.1739  0.7470 -0.3904
35811SOL    HW1 9440   7.147   3.960   8.329 -0.0403  1.7332 -1.5230
35811SOL    HW2 9441   7.194   4.052   8.439 -0.2845 -0.1082  0.1581
35812SOL     OW 9442  10.343   0.302   9.589 -0.0622  0.3494 -0.5315
35812SOL    HW1 9443  10.364   0.385   9.547  0.8788 -0.4082 -1.6281
35812SOL    HW2 9444  10.279   0.261   9.530 -0.8565  0.4600  0.2251
35813SOL     OW 9445   6.950   9.998   3.475  0.4359  0.0603  0.0991
35813SOL    HW1 9446   6.888   9.954   3.415 -0.2604  2.3738 -0.9808
35813SOL    HW2 9447   6.895  10.035   3.543  0.8719  0.3844  0.2769
35814SOL     OW 9448   1.731   5.322  10.703 -0.2206 -0.2508 -0.3549
35814SOL    HW1 9449   1.687   5.242  10.674  0.9688 -0.6750 -1.0933
35814SOL    HW2 9450   1.709   5.330  10.796 -3.7909  0.8878 -1.1276
35815SOL     OW 9451   8.187   8.105   6.786 -0.1499  0.3478  0.4950
35815SOL    HW1 9452   8.162   8.062   6.704 -1.0299  2.6786 -0.5518
35815SOL    HW2 9453   8.282   8.116   6.780 -0.0848 -0.3309  0.2378
35816SOL     OW 9454   1.225   7.726   8.718  0.1646 -0.1158  0.7439
35816SOL    HW1 9455   1.256   7.698   8.804 -1.4771  1.6462  1.9957
35816SOL    HW2 9456   1.259   7.814   8.708  0.7232 -0.4635 -0.6664
35817SOL     OW 9457   1.519   6.584   3.256  0.1794 -0.1712  0.4270
35817SOL    HW1 9458   1.564   6.548   3.332  0.7639  2.0947  1.2470
35817SOL    HW2 9459   1.557   6.538   3.181  1.4149 -0.6864  1.3425
35818SOL     OW 9460   1.661  10.755   5.769  0.3832  0.2784  0.3238
35818SOL    HW1 9461   1.579  10.708   5.781 -0.0914  0.9789 -0.0652
35818SOL    HW2 9462   1.641  10.846   5.793  1.3263  0.2579  1.2477
35819SOL     OW 9463   1.334   1.994   6.066  0.0244 -0.6238 -0.1498
35819SOL    HW1 9464   1.386   2.072   6.043  0.0119 -0.1483  1.2941
35819SOL    HW2 9465   1.393   1.920   6.050  0.0728 -0.3166 -1.4478
35820SOL     OW 9466   9.984   9.225   5.440 -0.5100 -0.3141  0.0804
35820SOL    HW1 9467  10.028   9.182   5.367 -0.7375 -1.6031  0.6680
35820SOL    HW2 9468   9.899   9.252   5.404  0.5852  1.9097 -0.9688
35821SOL     OW 9469   4.818   0.003  10.185 -0.3493  0.3196 -0.1071
35821SOL    HW1 9470   4.881  -0.070  10.181 -0.3762 -0.0149  3.0365
35821SOL    HW2 9471   4.733  -0.039  10.198 -0.5458  0.8763  0.4486
35822SOL     OW 9472   5.955   4.669   7.550  0.4843  0.8651 -0.2284
35822SOL    HW1 9473   5.897   4.696   7.479 -0.8447 -0.6026  0.2282
35822SOL    HW2 9474   5.940   4.735   7.618  0.4869  1.3359 -0.6765
35823SOL     OW 9475   8.452   5.688   8.938 -0.2343 -0.1094 -0.8792
35823SOL    HW1 9476   8.478   5.606   8.898  4.0034 -0.8760  2.6785
35823SOL    HW2 9477   8.436   5.666   9.030 -1.8949  2.6207 -0.4022
35824SOL     OW 9478   4.218   0.709   7.807 -0.2668  1.4356  0.0489
35824SOL    HW1 9479   4.192   0.793   7.770  1.8310  1.2441 -2.0924
35824SOL    HW2 9480   4.310   0.721   7.833 -0.3908  0.2446  1.1459
35825SOL     OW 9481   3.009   7.928   6.848 -0.3142 -0.3408  1.4351
35825SOL    HW1 9482   2.981   7.845   6.885  3.3813 -2.4046  0.1693
35825SOL    HW2 9483   2.967   7.995   6.902 -2.9548 -2.9897  2.9032
35826SOL     OW 9484   5.085  11.263   7.945  0.5277  0.7832  0.0196
35826SOL    HW1 9485   5.151  11.330   7.963  0.3955  0.6430  1.0600
35826SOL    HW2 9486   5.031  11.260   8.023 -0.7359  0.8902 -0.8212
35827SOL     OW 9487   1.748   0.389   3.897 -0.6188 -0.0056  0.2859
35827SOL    HW1 9488   1.769   0.452   3.966 -1.7883 -0.3916  1.0362
35827SOL    HW2 9489   1.701   0.440   3.831  2.0183  0.7526 -1.1612
35828SOL     OW 9490   6.973  10.905   8.593  0.3255  0.6245  0.3404
35828SOL    HW1 9491   6.926  10.974   8.547 -0.7996  0.5839  1.3816
35828SOL    HW2 9492   6.911  10.832   8.596  0.5747  0.4470  1.4438
35829SOL     OW 9493  10.088   3.694   7.711 -0.4035 -0.4972 -0.3750
35829SOL    HW1 9494  10.131   3.761   7.658 -0.4707 -0.3645 -0.2639
35829SOL    HW2 9495  10.033   3.744   7.772  0.8625 -0.5658  0.8720
35830SOL     OW 9496   4.885   7.421   8.696  0.6638 -0.7389 -0.8634
35830SOL    HW1 9497   4.882   7.516   8.711  0.8683 -0.6874 -1.1298
35830SOL    HW2 9498   4.806   7.387   8.737  0.9812 -0.5459 -0.0900
35831SOL     OW 9499   0.849   9.420   8.471  0.0450 -0.1904 -0.0912
35831SOL    HW1 9500   0.858   9.348   8.533  1.3613  1.3914  1.6903
35831SOL    HW2 9501   0.890   9.389   8.391  2.9352 -0.6142  1.4307
35832SOL     OW 9502   0.577   0.817   6.793  0.3219 -0.7152  0.2146
35832SOL    HW1 9503   0.651   0.774   6.748  0.8676 -1.3223  1.6366
35832SOL    HW2 9504   0.598   0.810   6.886  0.7862  3.2198  0.5859
35833SOL     OW 9505   1.780  10.074   3.903 -0.3443 -0.0901  0.4522
35833SOL    HW1 9506   1.686  10.084   3.886 -0.2290  1.3092  0.4628
35833SOL    HW2 9507   1.820  10.149   3.858  0.9264 -1.4084 -0.7045
35834SOL     OW 9508   0.962   9.989   6.295 -0.2818 -0.6070  0.1591
35834SOL    HW1 9509   0.994  10.065   6.246  0.0361 -0.1636  1.0310
35834SOL    HW2 9510   1.016   9.988   6.374  1.8330 -3.5055 -1.1423
35835SOL     OW 9511   1.564   4.183   8.250  0.2303  0.6883 -0.0895
35835SOL    HW1 9512   1.492   4.121   8.258  0.9566 -0.1348  0.2497
35835SOL    HW2 9513   1.570   4.200   8.156  1.1081 -1.1236 -0.4170
35836SOL     OW 9514   3.328   8.255   2.531  0.5010 -0.1381  0.6610
35836SOL    HW1 9515   3.276   8.254   2.611  0.3006 -2.6642  0.5652
35836SOL    HW2 9516   3.265   8.235   2.461  0.8304  1.1888 -0.0513
35837SOL     OW 9517   3.500   1.106   2.888 -0.7069 -0.8737  0.1655
35837SOL    HW1 9518   3.418   1.103   2.938 -1.3870 -2.0625 -0.9530
35837SOL    HW2 9519   3.549   1.029   2.917 -0.8680 -1.2661 -0.5766
35838SOL     OW 9520   0.935   8.840   9.560  0.4033  0.2178 -0.0876
35838SOL    HW1 9521   0.921   8.746   9.554 -1.7212  0.2260  2.5805
35838SOL    HW2 9522   0.864   8.871   9.616  3.2470  2.7901  2.4821
35839SOL     OW 9523   3.426  10.239   1.413  0.1098 -0.3042  0.0612
35839SOL    HW1 9524   3.406  10.254   1.321  1.0493  1.1630  0.0685
35839SOL    HW2 9525   3.385  10.313   1.459  0.9158 -0.1998  0.6449
35840SOL     OW 9526   9.579   9.891  11.027  0.0150  0.3118 -0.1662
35840SOL    HW1 9527   9.550   9.801  11.041  0.4439  0.0587 -0.8042
35840SOL    HW2 9528   9.552   9.938  11.105 -0.1626 -0.3894  0.2050
35841SOL     OW 9529   2.303   1.428   8.427  0.1639 -0.5897 -0.2216
35841SOL    HW1 9530   2.235   1.361   8.417 -0.4079 -0.2633  1.2036
35841SOL    HW2 9531   2.355   1.422   8.346  0.5660 -3.2132  0.1467
35842SOL     OW 9532   8.279  11.183   2.357  1.2189 -0.3519 -0.5148
35842SOL    HW1 9533   8.341  11.150   2.423 -0.5587 -4.3234 -0.5439
35842SOL    HW2 9534   8.317  11.156   2.274  0.1374 -1.7573 -0.5941
35843SOL     OW 9535   9.376   6.020   8.306  0.2411  0.1063  0.0497
35843SOL    HW1 9536   9.372   5.936   8.259 -0.5889 -0.0524  0.3761
35843SOL    HW2 9537   9.284   6.044   8.318  0.4781  1.0634 -0.0276
35844SOL     OW 9538   1.795   3.394  10.475 -0.4338  0.4409  0.6107
35844SOL    HW1 9539   1.712   3.372  10.434 -0.3107 -0.0820  0.6401
35844SOL    HW2 9540   1.842   3.311  10.481  0.5186  0.8905 -0.3501
35845SOL     OW 9541   6.566   7.810   9.264 -0.1681 -0.1225  0.1648
35845SOL    HW1 9542   6.574   7.801   9.359  0.9387 -2.1107 -0.0635
35845SOL    HW2 9543   6.626   7.744   9.228  0.5481  1.5582 -1.9426
35846SOL     OW 9544   8.583   6.500   2.014  0.3241 -0.4924 -0.4885
35846SOL    HW1 9545   8.635   6.580   2.027  0.6545 -0.6527 -0.7855
35846SOL    HW2 9546   8.493   6.528   2.026  0.5684 -0.6796  2.5461
35847SOL     OW 9547   0.986  10.706   8.791  0.2783  0.3161  0.0468
35847SOL    HW1 9548   1.050  10.774   8.813  0.2879  0.1460  0.5623
35847SOL    HW2 9549   0.903  10.740   8.823  0.1938  0.3085 -0.1619
35848SOL     OW 9550   4.790   2.162   4.533 -0.3590  0.1418 -0.1602
35848SOL    HW1 9551   4.841   2.222   4.588  2.4491 -0.5382 -1.8460
35848SOL    HW2 9552   4.804   2.076   4.573  0.2001 -0.1072 -0.8755
35849SOL     OW 9553  10.362   8.006  11.235  1.2624 -0.0150 -0.0199
35849SOL    HW1 9554  10.366   8.100  11.220  0.7063 -0.1716 -1.3279
35849SOL    HW2 9555  10.412   7.968  11.163 -0.1382 -0.7713 -0.6441
35850SOL     OW 9556   1.805   9.498   5.755  0.1951  0.1159  0.4370
35850SOL    HW1 9557   1.876   9.467   5.811 -0.9111  0.6947  2.2355
35850SOL    HW2 9558   1.725   9.476   5.802 -0.7713  1.3158 -0.5489
35851SOL     OW 9559   7.262   7.470   4.220  0.2995 -0.4651 -0.0823
35851SOL    HW1 9560   7.253   7.475   4.125 -1.2476 -2.0758 -0.0728
35851SOL    HW2 9561   7.172   7.463   4.252  0.6708  1.7265  1.6628
35852SOL     OW 9562   1.285   9.280   0.280 -0.2087 -0.2430  0.3076
35852SOL    HW1 9563   1.222   9.296   0.350  1.3027  1.3307  1.3994
35852SOL    HW2 9564   1.270   9.351   0.218 -0.7323 -0.9436 -0.3847
35853SOL     OW 9565   3.963   9.643   5.721  0.3397  0.2375 -0.7550
35853SOL    HW1 9566   4.038   9.626   5.778 -1.6459 -0.0687  1.9633
35853SOL    HW2 9567   3.931   9.556   5.697  1.4696  0.3459 -2.9644
35854SOL     OW 9568  10.012   5.132   1.841 -0.0994  0.6107  0.0450
35854SOL    HW1 9569  10.047   5.211   1.882  1.6991 -0.5527  0.8798
35854SOL    HW2 9570  10.036   5.061   1.901  0.5485 -0.8642 -1.8562
35855SOL     OW 9571   0.803   5.489   8.864 -0.5453  0.0626 -0.0994
35855SOL    HW1 9572   0.790   5.546   8.940 -0.1858  1.0027 -0.7238
35855SOL    HW2 9573   0.775   5.542   8.790 -1.7996 -1.1782 -0.5572
35856SOL     OW 9574   9.169   3.417   3.927  0.0814  0.3344  0.2146
35856SOL    HW1 9575   9.251   3.433   3.974  1.5918  0.6772 -2.3070
35856SOL    HW2 9576   9.139   3.332   3.957 -0.7786  1.7744  3.9743
35857SOL     OW 9577  10.008   5.126   5.154  0.0445  0.0574  0.1137
35857SOL    HW1 9578  10.012   5.064   5.227 -0.5717 -0.0325  0.0740
35857SOL    HW2 9579   9.935   5.184   5.175  1.2476  1.4423  0.6724
35858SOL     OW 9580   3.592  10.883   0.782 -0.3623 -0.0057  0.1731
35858SOL    HW1 9581   3.682  10.912   0.795 -0.7463  2.6692 -2.0603
35858SOL    HW2 9582   3.595  10.830   0.702 -0.8611  1.0540 -0.5802
35859SOL     OW 9583   1.076   6.018   8.966  0.5200 -0.6737  0.0615
35859SOL    HW1 9584   1.057   6.052   9.053  1.2293  0.3202 -0.1622
35859SOL    HW2 9585   0.995   5.974   8.940  0.2758 -0.9192  1.1842
35860SOL     OW 9586   4.597   5.315  10.618  0.3242  0.8843  0.3989
35860SOL    HW1 9587   4.686   5.284  10.602 -0.6145 -2.9243  1.4865
35860SOL    HW2 9588   4.544   5.270  10.551 -0.7674  3.9929 -1.0125
35861SOL     OW 9589   3.428  10.710   7.550  0.0748  0.0847 -0.1347
35861SOL    HW1 9590   3.503  10.687   7.605  0.1935  0.0193 -0.3218
35861SOL    HW2 9591   3.357  10.654   7.581  0.1051  0.1381  0.0357
35862SOL     OW 9592   3.654  10.937  10.491  0.2469 -0.4864 -0.2066
35862SOL    HW1 9593   3.565  10.947  10.526  0.0324  1.0729 -1.0823
35862SOL    HW2 9594   3.658  10.846  10.462 -0.8754 -0.7285  0.3199
35863SOL     OW 9595   7.192   1.368   9.586 -0.4398  1.0609  0.2981
35863SOL    HW1 9596   7.249   1.445   9.590  0.8811  0.1885 -0.8587
35863SOL    HW2 9597   7.212   1.328   9.501 -0.5103 -1.0026  1.2091
35864SOL     OW 9598   4.698   2.583   9.002  0.5777 -0.0602  0.1940
35864SOL    HW1 9599   4.611   2.612   8.974  0.6309 -0.2757 -0.1986
35864SOL    HW2 9600   4.686   2.491   9.026  0.9293 -0.4077 -0.9299
35865SOL     OW 9601   7.408   9.773   3.640 -1.1533 -0.0901  0.2020
35865SOL    HW1 9602   7.331   9.814   3.603 -0.5442 -0.0519 -1.0750
35865SOL    HW2 9603   7.480   9.800   3.583 -0.5008 -1.6992  0.2043
35866SOL     OW 9604   8.938   7.948   3.976 -0.0962 -0.2435  0.0789
35866SOL    HW1 9605   8.909   7.967   4.065 -0.9857 -2.6271  0.3837
35866SOL    HW2 9606   8.880   7.999   3.920 -1.1787 -0.6044  0.8443
35867SOL     OW 9607   1.949   9.651   2.583  0.3431 -0.2463 -0.6996
35867SOL    HW1 9608   2.044   9.639   2.582  0.6764  1.9531 -0.0463
35867SOL    HW2 9609   1.936   9.745   2.570 -1.7581 -0.4967 -0.7617
35868SOL     OW 9610   9.588   4.989   8.543  0.2010  0.6509  0.1871
35868SOL    HW1 9611   9.587   5.082   8.522  0.5763  0.1356 -2.4126
35868SOL    HW2 9612   9.499   4.959   8.524  0.7330  0.0326 -1.5074
35869SOL     OW 9613   3.599   0.247   9.936  0.2528 -0.3453 -0.0348
35869SOL    HW1 9614   3.524   0.307   9.945 -0.7665 -1.8181  2.2571
35869SOL    HW2 9615   3.674   0.304   9.920 -1.0403  1.3520 -0.3265
35870SOL     OW 9616   9.864   1.496   8.305  0.1222  0.0984  0.1907
35870SOL    HW1 9617   9.949   1.538   8.290  0.5809  0.1317  2.4481
35870SOL    HW2 9618   9.801   1.568   8.308  0.4370  0.3465  1.0666
35871SOL     OW 9619   4.586   6.045   4.348  0.0651  0.1949 -0.8234
35871SOL    HW1 9620   4.576   5.950   4.335  0.3412 -0.6000  3.3980
35871SOL    HW2 9621   4.514   6.068   4.408  1.3862  2.1373  0.0910
35872SOL     OW 9622   2.136  11.204   6.274  0.3074  0.1818  0.4600
35872SOL    HW1 9623   2.130  11.299   6.261 -0.0779 -0.1529 -2.8946
35872SOL    HW2 9624   2.046  11.174   6.269  0.6242 -0.6231 -2.7221
35873SOL     OW 9625   8.912   7.703   7.744 -0.3064 -0.2118  0.0813
35873SOL    HW1 9626   8.902   7.608   7.744 -1.2942 -0.1118  0.6683
35873SOL    HW2 9627   8.885   7.731   7.831 -0.7312  0.6814 -0.3188
35874SOL     OW 9628   2.709   5.771   2.175 -0.7260  0.0794  0.4713
35874SOL    HW1 9629   2.681   5.679   2.177 -1.4980  0.3142  2.2595
35874SOL    HW2 9630   2.774   5.777   2.245  1.7379  0.2335 -1.6892
35875SOL     OW 9631   9.079   6.230   6.623  0.3836  0.2607 -0.0084
35875SOL    HW1 9632   9.149   6.254   6.684  1.0049  2.2295 -1.4042
35875SOL    HW2 9633   9.124   6.204   6.543 -0.4680 -0.2520 -0.3416
35876SOL     OW 9634   1.833  10.216   1.531 -0.0964  0.1664 -0.8034
35876SOL    HW1 9635   1.823  10.137   1.478  0.0950 -1.4697  1.4795
35876SOL    HW2 9636   1.899  10.193   1.596 -1.0418  1.7343  0.7830
35877SOL     OW 9637  11.197   3.301  10.809  0.4303 -0.2520  1.1210
35877SOL    HW1 9638  11.139   3.254  10.749  0.9991  0.3564  0.0571
35877SOL    HW2 9639  11.211   3.386  10.768  0.1257  0.5348  2.5729
35878SOL     OW 9640   9.287   2.702   5.728  0.4802 -0.1300 -0.2469
35878SOL    HW1 9641   9.293   2.626   5.670  0.9155  0.4624 -1.0034
35878SOL    HW2 9642   9.259   2.774   5.671  1.3270  0.5608  0.1770
35879SOL     OW 9643  11.225   1.322  11.224 -0.8943  0.1391 -0.5420
35879SOL    HW1 9644  11.192   1.402  11.265  2.2463  1.7738 -0.8589
35879SOL    HW2 9645  11.264   1.352  11.142 -2.2219 -2.2368 -2.1701
35880SOL     OW 9646   2.189   5.422   2.959  0.0942  0.5612  0.9081
35880SOL    HW1 9647   2.139   5.366   2.900  1.6811 -3.4937  3.0316
35880SOL    HW2 9648   2.272   5.437   2.912 -0.2101  0.8967  0.4675
35881SOL     OW 9649   0.187   6.647   5.164  0.4098  0.6586  0.1527
35881SOL    HW1 9650   0.212   6.693   5.085 -2.1755 -1.2405 -1.9786
35881SOL    HW2 9651   0.128   6.707   5.210 -0.4007  0.7321 -0.9470
35882SOL     OW 9652   2.442   8.705   2.973  0.1122  0.0404  0.2823
35882SOL    HW1 9653   2.348   8.688   2.967 -0.0635 -0.9964  3.8141
35882SOL    HW2 9654   2.451   8.796   2.942 -2.1204  0.3515  0.3290
35883SOL     OW 9655   3.635   8.357   8.912  0.3136  0.5169 -0.0840
35883SOL    HW1 9656   3.655   8.271   8.875  1.7325  0.4395  0.8062
35883SOL    HW2 9657   3.705   8.413   8.881 -0.9748  1.5494 -1.2265
35884SOL     OW 9658   9.868   3.802  10.790 -0.0228 -0.1042  0.0944
35884SOL    HW1 9659   9.803   3.733  10.783 -0.5519  0.5128 -1.3389
35884SOL    HW2 9660   9.828   3.879  10.749  0.6707  0.9830  1.3660
35885SOL     OW 9661   6.358   4.485   7.741 -0.1881 -0.0500  0.2303
35885SOL    HW1 9662   6.364   4.478   7.645 -1.8753 -1.9672  0.2089
35885SOL    HW2 9663   6.265   4.496   7.759  0.0240 -0.4272  1.6956
35886SOL     OW 9664   4.631   5.807   3.115  0.4596  0.5866  0.5773
35886SOL    HW1 9665   4.575   5.742   3.159 -1.3029  1.0311 -0.8746
35886SOL    HW2 9666   4.586   5.890   3.130 -0.1392  0.7658 -1.8622
35887SOL     OW 9667   7.708   1.666   5.608 -0.2890  0.1822  0.0434
35887SOL    HW1 9668   7.691   1.586   5.559 -1.2748  0.6942 -0.4829
35887SOL    HW2 9669   7.667   1.735   5.557 -2.1997  0.6232  1.9992
35888SOL     OW 9670   7.361   5.058   5.629  0.2554 -0.0090  0.2895
35888SOL    HW1 9671   7.374   5.140   5.581  0.8496 -0.7761 -0.9203
35888SOL    HW2 9672   7.272   5.064   5.664  0.0513  0.8637 -0.3528
35889SOL     OW 9673   6.504   0.794   1.452  0.1684 -0.1994 -0.3477
35889SOL    HW1 9674   6.447   0.769   1.524 -0.5330 -0.8681 -1.1052
35889SOL    HW2 9675   6.521   0.887   1.465 -0.8218 -0.0680  0.0768
35890SOL     OW 9676   4.499   5.799   7.483  0.2240  0.4072  0.1905
35890SOL    HW1 9677   4.475   5.845   7.402  0.4319 -1.4818 -1.0058
35890SOL    HW2 9678   4.426   5.816   7.543 -2.4847 -2.0543 -2.0650
35891SOL     OW 9679   5.658   8.395   0.195 -0.4061  0.4555 -0.2093
35891SOL    HW1 9680   5.577   8.441   0.218  0.7980  1.9600  1.2354
35891SOL    HW2 9681   5.719   8.417   0.265  1.9355  1.1355 -2.3247
35892SOL     OW 9682   3.633   7.919   1.248 -0.1586 -0.7579  0.5032
35892SOL    HW1 9683   3.631   8.013   1.261  0.9510 -0.6533  0.0335
35892SOL    HW2 9684   3.541   7.893   1.242 -0.4583  0.5680 -1.3335
35893SOL     OW 9685   2.216   2.597   2.453  0.1562  0.0517 -0.3402
35893SOL    HW1 9686   2.236   2.653   2.378  1.4498  0.8894  0.5745
35893SOL    HW2 9687   2.262   2.515   2.435 -1.0092 -0.4183 -1.2704
35894SOL     OW 9688   2.464   8.626   6.592 -0.5641 -0.1323 -0.8819
35894SOL    HW1 9689   2.439   8.538   6.564 -0.0288 -0.7149  0.4061
35894SOL    HW2 9690   2.411   8.643   6.670 -0.6912  0.7098 -1.1403
35895SOL     OW 9691   3.297   5.044   1.993 -0.6754  0.2369  0.0559
35895SOL    HW1 9692   3.299   5.139   2.005 -1.1475  0.3239 -0.5454
35895SOL    HW2 9693   3.238   5.013   2.061  0.3359  0.2539  0.9715
35896SOL     OW 9694   6.720  11.064   6.173  0.1875  0.5304 -0.3858
35896SOL    HW1 9695   6.682  11.008   6.240 -0.2251  0.5290 -0.6116
35896SOL    HW2 9696   6.644  11.104   6.129  0.4742  2.2661  0.6024
35897SOL     OW 9697   2.462   8.609   7.015 -0.6343 -0.3665 -0.2312
35897SOL    HW1 9698   2.373   8.643   7.015 -0.1196  1.1196 -1.5412
35897SOL    HW2 9699   2.518   8.687   7.012  0.7090 -1.2730  0.1974
35898SOL     OW 9700   7.101   5.369   2.806 -0.1162 -0.1236 -0.4269
35898SOL    HW1 9701   7.188   5.398   2.831  0.1748 -0.9753 -0.4310
35898SOL    HW2 9702   7.071   5.435   2.744  1.1942 -0.6502 -1.6923
35899SOL     OW 9703  10.576   4.436   2.202 -0.3714 -0.2853  0.4669
35899SOL    HW1 9704  10.659   4.482   2.216 -0.3522  0.9545 -2.8499
35899SOL    HW2 9705  10.509   4.502   2.217 -0.6030 -0.4503  0.1710
35900SOL     OW 9706   2.064   4.519   9.260  0.5991 -0.8525  0.1984
35900SOL    HW1 9707   2.016   4.569   9.326 -0.7056 -1.3441 -0.3528
35900SOL    HW2 9708   2.156   4.537   9.279  0.2077  1.9056 -0.0841
35901SOL     OW 9709   1.367   0.929   7.594  0.2236  0.4262  0.3928
35901SOL    HW1 9710   1.397   0.970   7.513  0.4029 -0.1871  0.1382
35901SOL    HW2 9711   1.277   0.961   7.606  0.9197  2.2411  1.1332
35902SOL     OW 9712  10.308   7.684   3.489  0.2813  0.1543 -0.1854
35902SOL    HW1 9713  10.316   7.711   3.397  2.6210  1.9980  0.4848
35902SOL    HW2 9714  10.368   7.741   3.537 -0.7109 -0.8952  2.5044
35903SOL     OW 9715  10.860   5.784   9.156 -0.5705 -0.7477 -0.1623
35903SOL    HW1 9716  10.899   5.698   9.173  0.3934 -0.1546  0.6660
35903SOL    HW2 9717  10.921   5.847   9.194 -1.0288  0.3457 -1.1673
35904SOL     OW 9718   2.210   1.270   8.068  0.5647 -0.3537  0.5088
35904SOL    HW1 9719   2.250   1.250   8.153  0.4228  0.5568  0.8088
35904SOL    HW2 9720   2.132   1.216   8.064  2.4006 -3.1112 -0.6192
35905SOL     OW 9721   6.231   5.238   3.777 -0.6807 -0.5565 -0.0929
35905SOL    HW1 9722   6.256   5.150   3.805  0.1311 -0.6004 -0.9143
35905SOL    HW2 9723   6.190   5.276   3.854  1.8693 -0.5054  1.3531
35906SOL     OW 9724   9.618   9.440   4.204 -0.3436 -0.2887 -0.2378
35906SOL    HW1 9725   9.534   9.485   4.208  0.5071  1.4036  3.8726
35906SOL    HW2 9726   9.665   9.482   4.133 -2.1424  0.2658 -1.1514
35907SOL     OW 9727  10.279   2.252   6.345  0.4620 -0.2753 -0.9882
35907SOL    HW1 9728  10.306   2.202   6.422 -3.6836 -0.7684  0.3639
35907SOL    HW2 9729  10.296   2.343   6.368 -0.6877 -0.4188  0.5948
35908SOL     OW 9730   9.754   5.614   7.168 -0.6053  0.2000 -0.9769
35908SOL    HW1 9731   9.687   5.624   7.100 -2.7691  0.1878  1.0224
35908SOL    HW2 9732   9.777   5.703   7.192 -1.9536  0.2709  0.1721
35909SOL     OW 9733   5.648   2.400   1.093 -0.3234  0.4774 -0.7755
35909SOL    HW1 9734   5.734   2.359   1.106 -1.1767 -1.4623 -0.7964
35909SOL    HW2 9735   5.591   2.355   1.155 -0.8145  3.8037  1.4446
35910SOL     OW 9736   0.693   4.706  11.165 -0.0034 -0.6293 -0.0047
35910SOL    HW1 9737   0.699   4.641  11.095  1.3678 -1.2121  0.5998
35910SOL    HW2 9738   0.687   4.654  11.245 -2.1278  0.0255  0.3085
35911SOL     OW 9739   9.709   7.893   2.763  0.4243 -0.6850  0.3159
35911SOL    HW1 9740   9.639   7.958   2.758 -0.5161 -1.7148 -3.3736
35911SOL    HW2 9741   9.679   7.830   2.829 -0.3205  0.7349  1.3815
35912SOL     OW 9742   1.158   3.277   7.233  0.1230  0.4874  0.1914
35912SOL    HW1 9743   1.235   3.278   7.289 -0.1719  0.2471  0.5994
35912SOL    HW2 9744   1.084   3.282   7.293 -0.1707  1.5471 -0.2372
35913SOL     OW 9745   2.476   2.680   7.571 -0.6624  0.7018  0.7249
35913SOL    HW1 9746   2.442   2.591   7.563 -0.3511  0.7670 -3.8196
35913SOL    HW2 9747   2.401   2.732   7.597 -1.4162 -0.5684  1.1916
35914SOL     OW 9748   4.449   6.512   1.998  0.7013  0.3049 -1.1425
35914SOL    HW1 9749   4.439   6.429   1.952 -1.7520  0.7601 -1.6053
35914SOL    HW2 9750   4.431   6.491   2.090  2.5440 -0.0572 -0.8247
35915SOL     OW 9751   0.262   2.163   4.479 -0.5412 -0.2894  0.5409
35915SOL    HW1 9752   0.308   2.116   4.548 -1.8814  0.0188  1.7038
35915SOL    HW2 9753   0.198   2.217   4.525 -0.3668  1.2149 -0.8535
35916SOL     OW 9754   8.364  10.891   8.969  0.0867 -0.2785 -0.5176
35916SOL    HW1 9755   8.345  10.877   9.061 -1.2205  1.0602 -0.5497
35916SOL    HW2 9756   8.309  10.827   8.923  0.8194 -1.0191 -0.3785
35917SOL     OW 9757  10.135  10.380   1.852 -0.2072 -0.0528  0.5233
35917SOL    HW1 9758  10.181  10.443   1.906  1.7297  0.4282 -1.5506
35917SOL    HW2 9759  10.076  10.433   1.798 -2.4867 -0.5676  2.3435
35918SOL     OW 9760   0.787  10.682   1.384 -0.0230  0.1539 -0.3590
35918SOL    HW1 9761   0.730  10.758   1.384 -2.2308 -1.3034 -3.0724
35918SOL    HW2 9762   0.836  10.688   1.302  0.7747 -0.6513  0.0353
35919SOL     OW 9763   2.650   9.896   3.793 -0.6311  0.5222 -0.4273
35919SOL    HW1 9764   2.702   9.930   3.721 -0.3573 -0.7125 -0.8346
35919SOL    HW2 9765   2.671   9.953   3.867  2.0418 -0.4537 -0.3375
35920SOL     OW 9766   1.178  10.526   1.859 -0.5735 -0.5533 -0.0398
35920SOL    HW1 9767   1.256  10.580   1.869 -2.2267  1.8949  0.7859
35920SOL    HW2 9768   1.171  10.510   1.765  2.0181 -2.7444  0.0309
35921SOL     OW 9769   8.940  10.055   8.199  0.0061  0.2449 -0.1471
35921SOL    HW1 9770   8.876  10.117   8.164 -0.8271 -1.5182 -1.9173
35921SOL    HW2 9771   8.906  10.031   8.285 -0.7592  0.6960 -0.3155
35922SOL     OW 9772   2.659   0.509   5.918  0.8575 -0.1485  0.1265
35922SOL    HW1 9773   2.612   0.477   5.995 -0.5749 -1.7153 -1.3089
35922SOL    HW2 9774   2.751   0.495   5.938  0.4587 -1.3865  1.1868
35923SOL     OW 9775   1.474   9.949   1.007  0.5751 -0.5124  0.5108
35923SOL    HW1 9776   1.501   9.857   0.999  1.8961 -0.1396  0.5145
35923SOL    HW2 9777   1.556   9.997   1.014 -0.1358  0.5282  2.2292
35924SOL     OW 9778  10.576   7.420   6.323  0.7244  0.0737 -0.1397
35924SOL    HW1 9779  10.642   7.366   6.280  1.7154  2.3743 -1.6911
35924SOL    HW2 9780  10.620   7.454   6.401  0.5741 -0.2326  0.0800
35925SOL     OW 9781   5.821   1.207   8.305 -0.4459  0.0925  0.0452
35925SOL    HW1 9782   5.737   1.206   8.259 -0.5549 -1.7669  0.1795
35925SOL    HW2 9783   5.813   1.275   8.370 -1.3601  0.8257 -0.8103
35926SOL     OW 9784  10.408   4.295   5.761  0.4545  0.3651  0.3787
35926SOL    HW1 9785  10.441   4.207   5.782  0.0039 -0.1872 -1.0890
35926SOL    HW2 9786  10.348   4.281   5.688 -3.1341  1.2847  2.8665
35927SOL     OW 9787   4.520   2.285  10.494  0.3977 -0.4536 -0.3293
35927SOL    HW1 9788   4.543   2.366  10.540 -0.8728  0.0884 -0.6141
35927SOL    HW2 9789   4.572   2.287  10.414 -2.0415  1.8437 -2.0512
35928SOL     OW 9790   7.210  11.247   6.719 -0.3976  0.5325 -0.5134
35928SOL    HW1 9791   7.251  11.204   6.644 -1.1106 -1.5985  0.2307
35928SOL    HW2 9792   7.249  11.334   6.721  1.9171 -0.3808 -1.5559
35929SOL     OW 9793   2.049  11.034   9.505 -0.1787 -0.1997 -0.5911
35929SOL    HW1 9794   2.081  10.982   9.579  0.6183  2.1300  0.8261
35929SOL    HW2 9795   2.116  11.026   9.438  1.5871  1.5264  0.8708
35930SOL     OW 9796   0.665   6.751   6.147 -0.0741  0.1629  0.1152
35930SOL    HW1 9797   0.629   6.825   6.098  0.9293 -0.3953 -1.5246
35930SOL    HW2 9798   0.674   6.681   6.082 -1.6256 -1.6836  1.7312
35931SOL     OW 9799   4.010   9.593   4.519  0.5430  0.1996 -0.5165
35931SOL    HW1 9800   3.974   9.638   4.443  0.9707  1.3675 -0.0485
35931SOL    HW2 9801   4.072   9.656   4.557  0.0300 -0.1983  1.0312
35932SOL     OW 9802   1.335   2.394   8.888  0.1899 -0.2718 -0.4972
35932SOL    HW1 9803   1.254   2.445   8.887  0.4751  0.2055 -1.6568
35932SOL    HW2 9804   1.354   2.380   8.980 -0.5194  0.7338 -0.1861
35933SOL     OW 9805   2.683   3.814   3.128  0.2702  0.1400  1.3811
35933SOL    HW1 9806   2.657   3.732   3.086 -1.8743 -0.7574  4.1629
35933SOL    HW2 9807   2.755   3.846   3.075 -0.9120 -1.8585 -1.7262
35934SOL     OW 9808   6.081   0.364   5.819  0.1767  0.6807 -0.5808
35934SOL    HW1 9809   6.117   0.377   5.732 -1.2256  0.9070 -1.1473
35934SOL    HW2 9810   6.028   0.284   5.812  0.8997  0.0864  0.3543
35935SOL     OW 9811   5.421   0.243   2.998 -0.5520  0.1304  0.3163
35935SOL    HW1 9812   5.412   0.337   2.981 -0.7504  0.5462  2.3912
35935SOL    HW2 9813   5.342   0.204   2.962 -0.3958  0.7234 -0.7076
35936SOL     OW 9814   8.970   7.281   0.903  0.3806  0.4248 -0.2011
35936SOL    HW1 9815   9.039   7.221   0.930 -0.2403 -0.1884  0.0224
35936SOL    HW2 9816   8.912   7.228   0.848  0.4630  1.1150 -0.9826
35937SOL     OW 9817   1.897  10.767   4.757 -0.6229  0.8606 -0.0342
35937SOL    HW1 9818   1.885  10.717   4.676 -0.0331  1.4606 -0.4964
35937SOL    HW2 9819   1.809  10.800   4.777 -1.0167 -0.2892  0.2482
35938SOL     OW 9820   6.753  10.251   8.634 -0.1280  1.2248  0.0644
35938SOL    HW1 9821   6.708  10.202   8.703 -1.1043  0.5276 -1.0157
35938SOL    HW2 9822   6.687  10.259   8.564  1.6528 -0.6459 -1.9816
35939SOL     OW 9823   6.652   5.009   0.706  0.0878 -0.2747 -0.3208
35939SOL    HW1 9824   6.600   5.082   0.674 -0.9920 -1.3747 -1.1263
35939SOL    HW2 9825   6.739   5.024   0.669 -0.6208 -0.4375 -2.1250
35940SOL     OW 9826   0.473   5.722   8.620 -0.4648 -0.4112 -0.4619
35940SOL    HW1 9827   0.484   5.631   8.591 -0.3256 -0.1077 -1.4130
35940SOL    HW2 9828   0.517   5.774   8.552 -0.4199  0.3572  0.1431
35941SOL     OW 9829   9.664  10.051   7.819  0.9208  0.3198  0.7318
35941SOL    HW1 9830   9.652  10.004   7.736 -1.0608  0.0939  1.1063
35941SOL    HW2 9831   9.748  10.096   7.808  0.6091  0.4973 -1.5175
35942SOL     OW 9832   4.484   3.156   9.404  0.3708 -0.6510  0.5385
35942SOL    HW1 9833   4.527   3.070   9.399 -0.4678 -1.0842  0.4866
35942SOL    HW2 9834   4.399   3.137   9.445  0.8036  0.4025  2.0133
35943SOL     OW 9835  10.834   9.865   0.100 -0.1208  0.3590 -0.0952
35943SOL    HW1 9836  10.900   9.863   0.030 -1.0381  0.0741 -0.9717
35943SOL    HW2 9837  10.873   9.922   0.167  0.7509  0.7017 -0.8620
35944SOL     OW 9838   6.316   7.205   1.407  0.1032 -0.5927 -0.6818
35944SOL    HW1 9839   6.239   7.166   1.449 -0.1051 -1.6566 -1.9783
35944SOL    HW2 9840   6.385   7.200   1.473 -0.6913 -0.4823  0.1767
35945SOL     OW 9841   7.361   0.924  10.129 -0.4060  0.3670 -0.8021
35945SOL    HW1 9842   7.268   0.906  10.144 -0.0070 -1.2446 -0.0580
35945SOL    HW2 9843   7.399   0.934  10.216  0.3128 -0.1123 -1.0444
35946SOL     OW 9844   8.630   6.579  11.072 -0.3084  0.2258 -0.1905
35946SOL    HW1 9845   8.608   6.491  11.042  2.7834 -0.0675 -2.0956
35946SOL    HW2 9846   8.584   6.637  11.012 -2.0976 -0.0327  0.8717
35947SOL     OW 9847  10.839   2.741   7.616  0.1296 -0.4628  0.1744
35947SOL    HW1 9848  10.842   2.819   7.671 -3.1233 -0.2108  0.1589
35947SOL    HW2 9849  10.782   2.680   7.663 -0.4462 -1.3428 -1.5668
35948SOL     OW 9850   3.556   8.153   5.041  0.4828  0.7525 -0.0449
35948SOL    HW1 9851   3.582   8.081   4.984 -1.1710 -0.2333  0.3853
35948SOL    HW2 9852   3.609   8.142   5.120 -0.0433 -0.2445  0.1774
35949SOL     OW 9853  10.750   1.921   9.326  0.0499  0.3761 -0.3757
35949SOL    HW1 9854  10.736   1.968   9.244 -2.7128  0.2473 -0.0825
35949SOL    HW2 9855  10.713   1.978   9.393  0.3016 -0.4516  0.4858
35950SOL     OW 9856   0.239  10.873   7.534 -0.3038 -0.2148  0.0310
35950SOL    HW1 9857   0.289  10.860   7.615 -0.3396 -0.7436 -0.0253
35950SOL    HW2 9858   0.251  10.965   7.512  0.2891 -0.2365  0.2529
35951SOL     OW 9859  10.344   9.170   3.244 -0.2458  0.3657 -0.1647
35951SOL    HW1 9860  10.264   9.218   3.222 -1.1134  0.3761  2.5979
35951SOL    HW2 9861  10.332   9.085   3.202 -1.3095  0.6580 -0.5047
35952SOL     OW 9862   9.807   0.451   3.696 -0.5151  0.2999  0.7091
35952SOL    HW1 9863   9.825   0.539   3.661 -0.1505  0.1400  0.4849
35952SOL    HW2 9864   9.813   0.461   3.791 -0.6800  0.5626  0.6915
35953SOL     OW 9865   9.170   6.281   4.303 -0.8938 -0.5432  0.1882
35953SOL    HW1 9866   9.129   6.196   4.291 -1.9550  0.2718 -3.1242
35953SOL    HW2 9867   9.101   6.335   4.343 -0.3545 -1.1036  1.9129
35954SOL     OW 9868   2.764   9.859   4.991 -0.2368  0.1570  0.8485
35954SOL    HW1 9869   2.772   9.790   4.925  1.8016  0.7354  0.4040
35954SOL    HW2 9870   2.690   9.832   5.045 -1.3136 -0.8721 -1.0200
35955SOL     OW 9871   3.204   7.310   8.601 -0.0699 -0.1729  0.0510
35955SOL    HW1 9872   3.240   7.266   8.524 -2.9568 -0.6170 -1.1977
35955SOL    HW2 9873   3.169   7.239   8.654 -1.0629  0.3382  0.0941
35956SOL     OW 9874   1.068   5.227   9.639  0.4459 -0.5172  0.4138
35956SOL    HW1 9875   1.093   5.295   9.701 -0.0200  0.1127 -0.0820
35956SOL    HW2 9876   1.041   5.153   9.694  3.0964 -1.1743  0.9977
35957SOL     OW 9877   8.510   0.965   2.790 -0.0849  0.3331 -0.0594
35957SOL    HW1 9878   8.497   1.054   2.755 -0.1840  0.5666  0.5526
35957SOL    HW2 9879   8.428   0.920   2.769  1.3263 -0.8717 -3.8743
35958SOL     OW 9880   5.855   2.302   6.051  0.4027  0.5814 -0.3022
35958SOL    HW1 9881   5.858   2.348   6.134  1.4504  0.4665 -0.2559
35958SOL    HW2 9882   5.880   2.212   6.073 -0.8467  0.1612 -0.5103
35959SOL     OW 9883  10.245   5.189   2.886  0.3615  0.0362  0.1507
35959SOL    HW1 9884  10.225   5.282   2.876 -0.2696 -0.0896  0.1857
35959SOL    HW2 9885  10.336   5.181   2.858  0.9059  0.9078  1.6098
35960SOL     OW 9886   2.470  10.389   2.164 -0.0630  0.4209 -0.4502
35960SOL    HW1 9887   2.537  10.335   2.122 -1.6254 -0.6600 -1.7163
35960SOL    HW2 9888   2.505  10.409   2.251  0.7003 -2.4677  0.0049
35961SOL     OW 9889   4.066   5.098   0.642  0.2081  0.4323  0.0472
35961SOL    HW1 9890   4.126   5.052   0.701  1.0166  1.0361 -0.2820
35961SOL    HW2 9891   4.054   5.184   0.683  0.8376  0.8873 -0.6800
35962SOL     OW 9892   4.445   2.164  10.929 -0.2426  0.1740 -0.3341
35962SOL    HW1 9893   4.350   2.162  10.941 -0.0772  1.4878  1.5324
35962SOL    HW2 9894   4.481   2.167  11.017  1.7336 -3.5140 -0.8382
35963SOL     OW 9895   7.578   7.105   3.893  0.4096  0.5921  0.2283
35963SOL    HW1 9896   7.652   7.057   3.929 -0.1422  0.5520  1.3691
35963SOL    HW2 9897   7.556   7.059   3.812  2.5867  1.5348 -0.9778
35964SOL     OW 9898   7.863   8.864  10.171  0.8125  0.1014 -0.8621
35964SOL    HW1 9899   7.784   8.841  10.122 -0.3311 -0.1172  0.9766
35964SOL    HW2 9900   7.853   8.957  10.189  0.8739  0.0333 -0.4703
35965SOL     OW 9901   4.234  10.045   1.062  0.0111 -0.9570 -0.8139
35965SOL    HW1 9902   4.177  10.053   1.138 -0.7632  0.3710 -1.4980
35965SOL    HW2 9903   4.177  10.013   0.992 -0.2710  1.5151 -1.8276
35966SOL     OW 9904   0.836   6.176   2.657  0.1061 -0.3844 -0.0617
35966SOL    HW1 9905   0.798   6.162   2.570  1.0783  1.1979 -0.7847
35966SOL    HW2 9906   0.830   6.091   2.699 -0.8517 -1.0732 -1.4932
35967SOL     OW 9907   0.940   9.679  10.552  0.2931  0.2104 -0.3734
35967SOL    HW1 9908   0.849   9.655  10.568  0.1558  1.0826  0.2348
35967SOL    HW2 9909   0.959   9.642  10.466 -0.1071 -1.4188  0.1919
35968SOL     OW 9910   6.307   4.206   8.619 -0.0903  0.6047 -0.3378
35968SOL    HW1 9911   6.214   4.193   8.599 -1.2078  2.4176  2.8990
35968SOL    HW2 9912   6.331   4.285   8.571 -0.0638 -0.0302 -1.4159
35969SOL     OW 9913   2.334  10.725  10.993 -0.5402 -0.7984  0.0622
35969SOL    HW1 9914   2.262  10.760  10.939 -0.0225 -2.2635 -1.6678
35969SOL    HW2 9915   2.349  10.637  10.959  1.7501 -0.7168  0.7308
35970SOL     OW 9916   2.168  11.075   4.164 -0.1491 -0.1794 -0.4589
35970SOL    HW1 9917   2.144  11.163   4.193 -1.4484 -0.6862  0.0792
35970SOL    HW2 9918   2.180  11.083   4.069  2.5230  1.1437 -0.1106
35971SOL     OW 9919   2.755   5.597   7.997  0.0772  0.1196 -0.5233
35971SOL    HW1 9920   2.772   5.666   7.932 -0.7936  1.2383  0.3891
35971SOL    HW2 9921   2.833   5.597   8.053  0.0310  0.4520 -0.4557
35972SOL     OW 9922   0.070   7.743   0.339 -1.2193 -0.0595 -0.1134
35972SOL    HW1 9923   0.086   7.790   0.257  2.2316 -0.9173 -0.0756
35972SOL    HW2 9924   0.056   7.812   0.404  3.4389  1.1560 -0.0951
35973SOL     OW 9925   9.659   0.568   2.857  0.5825 -0.9463 -0.4295
35973SOL    HW1 9926   9.699   0.482   2.845 -1.5973 -2.1914  0.6362
35973SOL    HW2 9927   9.645   0.574   2.952  1.4333  0.9630 -0.3880
35974SOL     OW 9928  10.771   8.040   5.150  0.4297  0.7174  0.5280
35974SOL    HW1 9929  10.726   7.982   5.212  1.2411 -0.6808 -0.1587
35974SOL    HW2 9930  10.705   8.106   5.127 -0.4209  0.2511  1.5413
35975SOL     OW 9931   4.312   8.464   0.477  0.3216  0.5253  0.1792
35975SOL    HW1 9932   4.337   8.381   0.436  0.6464  0.8881 -0.3702
35975SOL    HW2 9933   4.337   8.454   0.569  3.0002  1.0360 -0.4126
35976SOL     OW 9934   5.874  11.125  11.148  0.3168  0.1858 -0.3804
35976SOL    HW1 9935   5.797  11.073  11.126 -0.0481  0.0221  1.1414
35976SOL    HW2 9936   5.845  11.181  11.220  0.9814  1.8147 -1.3296
35977SOL     OW 9937   9.350   5.404   8.718 -0.4929 -0.0603 -0.6212
35977SOL    HW1 9938   9.276   5.449   8.678 -0.3937  0.0206 -0.7123
35977SOL    HW2 9939   9.417   5.471   8.729 -0.7612  0.0768  0.3117
35978SOL     OW 9940   9.917   6.709   3.154 -0.0346 -1.0093 -0.7469
35978SOL    HW1 9941   9.863   6.630   3.147 -1.2181 -0.1847 -1.1648
35978SOL    HW2 9942   9.862   6.779   3.117 -0.8274  0.8545  3.3965
35979SOL     OW 9943   3.142   0.154   1.738  0.1036  0.5808  0.0242
35979SOL    HW1 9944   3.175   0.149   1.827 -0.8150 -0.7462  0.3111
35979SOL    HW2 9945   3.091   0.074   1.726  0.6216  0.4709 -1.8560
35980SOL     OW 9946   6.273   4.885   6.668  0.0844  0.2648 -0.7768
35980SOL    HW1 9947   6.333   4.935   6.613 -0.5302  1.1873 -0.6443
35980SOL    HW2 9948   6.212   4.845   6.607 -0.5354  1.2062 -0.8093
35981SOL     OW 9949   2.081   2.993   3.168 -0.4161 -0.6916  0.2799
35981SOL    HW1 9950   2.125   2.919   3.211  0.6350  0.1276  0.6809
35981SOL    HW2 9951   2.051   3.048   3.241 -3.1694 -1.7670  0.0498
35982SOL     OW 9952   7.019   5.393   3.155 -0.4291 -0.0161  0.0406
35982SOL    HW1 9953   7.110   5.391   3.125 -0.5040  1.0547 -0.3031
35982SOL    HW2 9954   6.994   5.486   3.149 -1.7580 -0.3855 -0.5151
35983SOL     OW 9955   2.285   9.490   9.495 -0.2176 -0.0062 -0.0042
35983SOL    HW1 9956   2.349   9.554   9.466 -1.3498  0.4277 -1.7320
35983SOL    HW2 9957   2.238   9.465   9.415 -0.4986 -2.2256  0.7837
35984SOL     OW 9958   6.614   6.990   4.145  0.2050  0.2094 -0.1936
35984SOL    HW1 9959   6.708   6.975   4.149  0.0576 -0.4133  2.2286
35984SOL    HW2 9960   6.576   6.905   4.123  0.1175  0.1261  0.2866
35985SOL     OW 9961   3.621   3.560   3.612  0.1820  0.3316  0.8554
35985SOL    HW1 9962   3.556   3.490   3.606 -0.8849  1.3502  0.1427
35985SOL    HW2 9963   3.588   3.629   3.556  2.4229  0.5039 -0.3711
35986SOL     OW 9964   7.475   5.710  11.084 -0.0389  0.2637  0.0269
35986SOL    HW1 9965   7.423   5.663  11.018 -0.5474 -0.7432  1.1138
35986SOL    HW2 9966   7.427   5.793  11.096  0.9161  1.1788 -1.9662
35987SOL     OW 9967   7.022   6.038   2.859  0.1941 -0.1515 -0.5432
35987SOL    HW1 9968   7.089   6.086   2.810  1.3149 -1.8778 -0.7664
35987SOL    HW2 9969   7.066   5.960   2.891 -1.5655 -1.0543 -0.1807
35988SOL     OW 9970   0.670   3.723   9.123  0.2551  0.9377  0.4973
35988SOL    HW1 9971   0.591   3.775   9.138 -1.3257 -1.2031  0.1350
35988SOL    HW2 9972   0.686   3.729   9.029  0.4129  1.2449  0.5454
35989SOL     OW 9973   4.884   2.638   5.090  0.4456 -0.0025 -0.2497
35989SOL    HW1 9974   4.948   2.569   5.108  2.9883  2.7659  2.4976
35989SOL    HW2 9975   4.849   2.662   5.176 -0.2429  2.2121 -1.0834
35990SOL     OW 9976  10.737   8.023  11.068 -1.2324  0.2060  0.5361
35990SOL    HW1 9977  10.742   7.959  11.139 -1.7638 -1.5182 -0.9214
35990SOL    HW2 9978  10.651   8.008  11.028 -1.2607  1.6698 -0.0274
35991SOL     OW 9979   1.810   7.736  11.070 -0.7074  0.4151 -0.1227
35991SOL    HW1 9980   1.757   7.760  11.146  1.0538 -0.1105  1.3332
35991SOL    HW2 9981   1.893   7.782  11.083  0.7140 -1.9967 -0.1311
35992SOL     OW 9982   8.811   9.518   7.806 -0.1255 -0.4551 -0.9404
35992SOL    HW1 9983   8.903   9.513   7.830 -0.1902 -0.6849 -0.7329
35992SOL    HW2 9984   8.804   9.462   7.728  0.1643  0.6219 -1.7611
35993SOL     OW 9985   3.980  10.844   6.715 -0.2377  0.2434  0.6422
35993SOL    HW1 9986   3.989  10.785   6.640 -0.2055 -1.6911  2.1138
35993SOL    HW2 9987   4.069  10.873   6.734 -0.0395 -0.5137  0.8928
35994SOL     OW 9988   8.909   3.660   9.832 -0.6045 -0.4332  0.4940
35994SOL    HW1 9989   8.961   3.588   9.795 -0.8939 -0.2423 -0.3184
35994SOL    HW2 9990   8.907   3.643   9.926  0.2475 -0.8874  0.4444
35995SOL     OW 9991   4.581   0.944  10.059 -0.0838  0.1124  0.7467
35995SOL    HW1 9992   4.650   0.910  10.116  1.7920 -0.1306 -1.5020
35995SOL    HW2 9993   4.568   0.875   9.994  0.9586  1.9666 -1.5946
35996SOL     OW 9994   7.521   3.503   0.703  0.2309 -0.2258  0.2077
35996SOL    HW1 9995   7.612   3.480   0.686  1.1194  2.3398  1.0360
35996SOL    HW2 9996   7.507   3.585   0.657 -1.5946 -0.4177  0.3288
35997SOL     OW 9997   8.425   7.761   6.967 -0.0292 -0.0286 -1.0190
35997SOL    HW1 9998   8.362   7.731   7.032  1.4525  0.1006  0.5257
35997SOL    HW2 9999   8.400   7.714   6.887 -1.0497 -1.2591 -0.0255
35998SOL     OW10000   4.749   8.690   6.340  0.1228  0.5012  0.7490
35998SOL    HW110001   4.660   8.676   6.373 -0.5272  3.0546  0.3051
35998SOL    HW210002   4.802   8.703   6.419 -0.5901  2.2754  0.9798
35999SOL     OW10003  11.162   9.493   4.930 -0.1017  0.3803 -0.1526
35999SOL    HW110004  11.069   9.470   4.923  0.0013 -0.3423  0.6758
35999SOL    HW210005  11.205   9.440   4.864 -0.2413  0.4628 -0.3098
36000SOL     OW10006   5.329   9.884   2.767  0.3396 -0.0663  0.0596
36000SOL    HW110007   5.257   9.838   2.810  1.2190  2.7544  5.4813
36000SOL    HW210008   5.288   9.962   2.728 -0.4742 -2.6675 -5.1841
36001SOL     OW10009   5.841   0.605   8.422  0.0444  0.0197 -0.2326
36001SOL    HW110010   5.887   0.689   8.413  2.6241 -1.1483  1.1431
36001SOL    HW210011   5.759   0.628   8.466  2.0661  1.5589  3.1233
36002SOL     OW10012   4.426   9.107   4.201  0.4329 -0.2759  0.2361
36002SOL    HW110013   4.478   9.052   4.142  0.6835  0.4951 -0.2723
36002SOL    HW210014   4.343   9.060   4.211  0.1685 -0.1504 -1.1813
36003SOL     OW10015   2.364   7.611   3.848 -0.0910 -0.1617  0.5654
36003SOL    HW110016   2.411   7.549   3.904  1.5504  0.1386 -0.4096
36003SOL    HW210017   2.433   7.658   3.802 -1.3804 -0.2543 -1.5730
36004SOL     OW10018   5.604   2.223   8.837 -0.0355 -0.2712  0.2028
36004SOL    HW110019   5.514   2.221   8.804 -1.0153 -2.7982  2.6201
36004SOL    HW210020   5.609   2.150   8.898  3.5676  0.0673  0.5549
36005SOL     OW10021  10.442   3.281   2.319  0.6105  0.3232 -0.5481
36005SOL    HW110022  10.490   3.242   2.246 -0.4117  1.4283 -1.8553
36005SOL    HW210023  10.500   3.349   2.353  1.0175 -0.0793 -0.4339
36006SOL     OW10024  10.262   8.306   6.319  0.1852  0.5127 -0.4228
36006SOL    HW110025  10.244   8.226   6.268  1.1339  0.1665 -0.2270
36006SOL    HW210026  10.175   8.338   6.344 -0.2082 -1.4021  0.9164
36007SOL     OW10027  10.092   8.078   2.540 -0.0584 -0.6981 -0.2155
36007SOL    HW110028  10.133   7.999   2.507  0.8935 -0.6122  0.7169
36007SOL    HW210029  10.133   8.093   2.625 -1.4675 -0.1618  0.3946
36008SOL     OW10030   3.189   2.721   5.825  0.3531  0.0750 -0.3151
36008SOL    HW110031   3.253   2.685   5.764  0.0580  0.6507 -0.9847
36008SOL    HW210032   3.241   2.771   5.888  0.9655 -2.9205  1.7597
36009SOL     OW10033   2.506   6.910   0.379 -0.5400  0.0350 -0.5692
36009SOL    HW110034   2.414   6.883   0.379 -0.3232 -0.7733  0.3002
36009SOL    HW210035   2.554   6.830   0.356  0.0466  0.0005  0.7272
36010SOL     OW10036   7.621   9.198   2.421  0.0801 -0.1459  0.1995
36010SOL    HW110037   7.639   9.164   2.509 -1.3501 -0.0308  0.5668
36010SOL    HW210038   7.669   9.140   2.362  0.1322 -0.9359  0.9938
36011SOL     OW10039   9.445   3.990   7.214 -0.2171  0.6662 -0.1556
36011SOL    HW110040   9.441   3.922   7.280 -1.5740  0.2228 -0.6696
36011SOL    HW210041   9.415   4.069   7.258 -2.6029  0.0690 -0.5627
36012SOL     OW10042   6.730   8.638   2.692  0.1702 -0.1577 -0.4082
36012SOL    HW110043   6.778   8.594   2.762  0.7647  0.2100 -0.5785
36012SOL    HW210044   6.773   8.723   2.682 -0.4254  0.1225 -0.6667
36013SOL     OW10045   8.809  10.604   1.871  0.1475 -0.1968  0.2892
36013SOL    HW110046   8.867  10.678   1.880 -1.5156  1.1119  0.8117
36013SOL    HW210047   8.828  10.548   1.946  0.0408  0.7084  0.9947
36014SOL     OW10048   5.242   5.798  10.937 -0.4319 -0.0189  0.2272
36014SOL    HW110049   5.205   5.852  11.007 -0.4588 -1.4806  1.3940
36014SOL    HW210050   5.254   5.858  10.864 -1.6955  1.2695  1.0264
36015SOL     OW10051   8.472   7.568   5.260  0.3210 -0.4673 -0.2557
36015SOL    HW110052   8.484   7.537   5.170 -1.3124  0.4261 -0.8234
36015SOL    HW210053   8.560   7.594   5.288  0.4443  2.6835 -2.9483
36016SOL     OW10054   8.791   9.425   6.836 -0.1269 -0.1731  0.4518
36016SOL    HW110055   8.873   9.465   6.808  0.3074 -2.1131 -1.2506
36016SOL    HW210056   8.726   9.494   6.826  0.8623  0.6266 -0.7494
36017SOL     OW10057   4.701   7.809   8.007  0.5315 -0.0396 -0.0943
36017SOL    HW110058   4.631   7.831   7.945  0.3623 -1.0606 -0.2756
36017SOL    HW210059   4.655   7.790   8.089  0.8141  2.3830  0.7256
36018SOL     OW10060   7.804   9.108   8.075 -0.1576  0.2962  0.2730
36018SOL    HW110061   7.885   9.115   8.126  1.5456 -2.6607 -1.7615
36018SOL    HW210062   7.830   9.065   7.994 -3.5089  0.8425 -1.2487
36019SOL     OW10063   5.393   7.171   3.906  0.2351  0.1452  0.1293
36019SOL    HW110064   5.425   7.081   3.899  2.3088  0.7950  0.3874
36019SOL    HW210065   5.329   7.169   3.977  0.4947 -1.0683  0.3471
36020SOL     OW10066   5.396   5.604   4.059 -0.3776 -0.1470 -0.6518
36020SOL    HW110067   5.316   5.591   4.008 -0.1844 -0.0852 -0.9653
36020SOL    HW210068   5.374   5.675   4.120 -0.8057 -0.6303 -0.2270
36021SOL     OW10069  10.340   9.383   4.742  0.1520  0.5498  0.0771
36021SOL    HW110070  10.272   9.328   4.781  3.7243 -1.7754  3.7728
36021SOL    HW210071  10.344   9.460   4.799  0.9406  0.4123  0.2175
36022SOL     OW10072   9.036  10.374   4.343 -0.1416 -0.2400  0.3936
36022SOL    HW110073   8.954  10.423   4.350 -0.2503 -0.3921  0.2023
36022SOL    HW210074   9.042  10.323   4.423  0.4155  0.7637  1.0080
36023SOL     OW10075   8.296   1.600   8.793  0.0930  0.9490 -0.1034
36023SOL    HW110076   8.386   1.624   8.816  1.6768 -2.3157 -2.0467
36023SOL    HW210077   8.273   1.533   8.857  0.2801 -0.3376 -1.3287
36024SOL     OW10078   4.562   2.925  10.674 -0.7252 -0.6691  0.4886
36024SOL    HW110079   4.574   2.940  10.581 -0.1100 -0.3922  0.6070
36024SOL    HW210080   4.529   2.835  10.680  0.1213 -1.0281  0.0484
36025SOL     OW10081  11.222  10.195   3.228  0.8064 -0.0811 -0.2646
36025SOL    HW110082  11.243  10.172   3.137  1.2390 -1.3622  0.1398
36025SOL    HW210083  11.279  10.139   3.280  0.2480  0.3311  0.8093
36026SOL     OW10084   7.821   4.056   2.685  0.3096  0.0567  0.2569
36026SOL    HW110085   7.916   4.051   2.698  0.3555  1.1030  0.4065
36026SOL    HW210086   7.796   3.968   2.655  1.2016 -0.4562  0.9700
36027SOL     OW10087   4.536   8.824   0.287  0.0287  0.0588 -0.4245
36027SOL    HW110088   4.632   8.824   0.282  0.0346  0.0993 -0.3211
36027SOL    HW210089   4.510   8.908   0.250  0.0645  0.3028  0.0888
36028SOL     OW10090   7.189   8.551   9.490  0.2787 -0.5540 -0.4612
36028SOL    HW110091   7.105   8.528   9.449 -1.2435  3.6706 -0.2369
36028SOL    HW210092   7.168   8.565   9.582  1.2523  0.3175 -0.3555
36029SOL     OW10093  10.348   5.384   6.590  0.0451 -0.2992  0.5983
36029SOL    HW110094  10.439   5.355   6.598 -0.3221 -1.2652  1.6149
36029SOL    HW210095  10.302   5.335   6.658 -1.1792  0.4276  0.3168
36030SOL     OW10096   7.517   5.253   8.659  0.8150  0.0537  0.0789
36030SOL    HW110097   7.527   5.234   8.752  1.4517 -0.9650 -0.1836
36030SOL    HW210098   7.475   5.175   8.623  2.6251 -0.5638 -0.8565
36031SOL     OW10099   6.877   0.662   2.441  0.1706  0.0293  0.3375
36031SOL    HW110100   6.923   0.595   2.390  0.4343 -0.2299  0.9036
36031SOL    HW210101   6.924   0.664   2.525 -0.7023 -0.0639  0.8405
36032SOL     OW10102   6.856   8.905   3.218  0.3039 -0.0181 -0.3278
36032SOL    HW110103   6.850   8.816   3.253  1.3361 -1.2173 -2.9519
36032SOL    HW210104   6.780   8.913   3.160 -1.2362  1.8294  1.7730
36033SOL     OW10105   4.935   8.337  10.511 -0.4263 -0.6347 -0.1038
36033SOL    HW110106   4.995   8.406  10.483  1.4653 -1.8139  0.7994
36033SOL    HW210107   4.980   8.256  10.486 -1.4145 -1.5689  1.0418
36034SOL     OW10108   7.191   1.639   1.359 -0.2433 -0.4350  0.0944
36034SOL    HW110109   7.120   1.620   1.297 -0.1415 -0.2851 -0.0680
36034SOL    HW210110   7.208   1.555   1.402  0.2017 -0.7200 -0.6219
36035SOL     OW10111   9.427   8.523   4.954  0.0671 -0.0744  0.1598
36035SOL    HW110112   9.465   8.491   4.872  0.1205 -0.4659  0.3328
36035SOL    HW210113   9.372   8.597   4.928  0.6993  0.3107 -0.1382
36036SOL     OW10114   5.144   1.704   4.573 -0.0919 -0.7359  1.0615
36036SOL    HW110115   5.172   1.626   4.525 -0.0595  0.2669 -0.6245
36036SOL    HW210116   5.049   1.692   4.584 -0.4885 -0.0212 -1.1931
36037SOL     OW10117   5.292   0.641   1.456 -0.0745 -0.0283 -0.4695
36037SOL    HW110118   5.199   0.619   1.462 -0.0495 -0.2150 -0.7678
36037SOL    HW210119   5.310   0.690   1.536 -0.5850  0.5556 -0.6981
36038SOL     OW10120   1.403   3.980   0.159 -0.3205  0.9053 -0.0084
36038SOL    HW110121   1.382   4.010   0.247 -1.3272  1.0896 -0.3075
36038SOL    HW210122   1.457   3.902   0.174 -0.4833  0.9288  0.7676
36039SOL     OW10123  10.297   1.439  10.131 -0.4264 -0.0142 -0.2817
36039SOL    HW110124  10.288   1.519  10.080 -0.7081 -1.4301 -2.5779
36039SOL    HW210125  10.208   1.417  10.158 -0.3334  0.4905  0.4667
36040SOL     OW10126   0.784   9.529   0.736  0.1012  0.9105  0.2809
36040SOL    HW110127   0.721   9.510   0.666  2.3544  0.2838 -1.6745
36040SOL    HW210128   0.764   9.619   0.762 -1.7228  0.6528 -0.0920
36041SOL     OW10129   0.068   0.226   0.048  0.5267 -0.8076  0.8985
36041SOL    HW110130   0.081   0.299   0.108 -2.0496  1.7192 -1.3461
36041SOL    HW210131   0.141   0.231  -0.013 -0.1263  0.5493  0.2008
36042SOL     OW10132   5.950   5.644   9.856 -0.1236 -0.3976  0.2853
36042SOL    HW110133   5.975   5.731   9.826  0.0125 -0.2088  0.9426
36042SOL    HW210134   5.928   5.597   9.775 -2.2931  0.8750  0.0669
36043SOL     OW10135   6.955   9.914   1.300 -0.0789  0.3566 -0.6018
36043SOL    HW110136   6.941  10.009   1.299  0.7237  0.5042 -2.4830
36043SOL    HW210137   6.903   9.882   1.226 -0.5011 -0.7163  0.1385
36044SOL     OW10138  10.270   3.516   0.140 -0.0156  0.6205 -0.3817
36044SOL    HW110139  10.196   3.455   0.147 -1.7039  2.7403  1.3575
36044SOL    HW210140  10.300   3.506   0.049 -0.2217 -2.6776 -0.2217
36045SOL     OW10141   1.515   3.184   9.837 -0.1728  0.0345 -0.1496
36045SOL    HW110142   1.554   3.271   9.845 -0.0251  0.1907 -2.1563
36045SOL    HW210143   1.487   3.178   9.746 -0.1036 -2.0515 -0.0864
36046SOL     OW10144   9.031   8.923   2.269 -0.1612  0.4769  0.2575
36046SOL    HW110145   9.118   8.888   2.289  0.4770  1.2135 -1.0948
36046SOL    HW210146   9.007   8.880   2.187 -1.5780 -0.5451  1.1721
36047SOL     OW10147   3.274   7.790  10.353  0.1007  0.2075  0.0030
36047SOL    HW110148   3.200   7.824  10.404 -0.7043  1.3619 -1.8328
36047SOL    HW210149   3.233   7.733  10.287  0.9327  0.1356 -0.4575
36048SOL     OW10150   9.754   8.428   7.050 -0.0648 -0.0380 -0.7726
36048SOL    HW110151   9.699   8.441   7.127 -0.5843 -2.2794 -0.6928
36048SOL    HW210152   9.830   8.484   7.065  0.2472 -1.0305  1.7892
36049SOL     OW10153   5.073   4.691   7.372 -0.0444  0.0468  0.1787
36049SOL    HW110154   5.148   4.682   7.314  0.4838 -0.7549  0.9680
36049SOL    HW210155   5.013   4.749   7.325  0.8232  0.2482 -0.6986
36050SOL     OW10156   8.034   1.280  10.956  0.2108  0.4494 -0.7312
36050SOL    HW110157   8.034   1.235  10.871 -0.1575 -2.6094  0.7537
36050SOL    HW210158   7.943   1.306  10.970 -0.1896 -1.0446 -0.3656
36051SOL     OW10159   8.149   9.681   1.891  0.5935 -0.9820 -0.4058
36051SOL    HW110160   8.082   9.736   1.931 -0.1131 -1.8780 -0.3118
36051SOL    HW210161   8.221   9.741   1.871  1.0262 -0.4820  2.2269
36052SOL     OW10162   5.699   9.561   0.069 -1.0000 -0.1118  0.0937
36052SOL    HW110163   5.748   9.481   0.049 -1.3382  0.3453 -3.0520
36052SOL    HW210164   5.764   9.631   0.065 -1.5875  0.4149 -3.4425
36053SOL     OW10165   2.842   6.724   9.627 -0.0313 -0.1255  0.5456
36053SOL    HW110166   2.796   6.641   9.639 -0.3106 -0.0936 -0.3045
36053SOL    HW210167   2.822   6.751   9.538  2.0402 -0.3813 -0.0559
36054SOL     OW10168   0.651   8.951   3.725  0.0259  0.0608  0.7257
36054SOL    HW110169   0.714   9.016   3.758  0.8548 -0.0019 -0.6548
36054SOL    HW210170   0.579   9.004   3.691  1.1799  0.3657 -1.3764
36055SOL     OW10171   0.350   5.184  10.726 -0.4225  0.2051  0.4133
36055SOL    HW110172   0.378   5.095  10.747  0.5384  0.2445 -0.5796
36055SOL    HW210173   0.280   5.173  10.661  0.3552  0.1699 -0.4406
36056SOL     OW10174   9.979   7.846  10.932 -0.5049 -1.0778  0.1098
36056SOL    HW110175   9.922   7.847  11.009  1.6356 -1.3281  1.7983
36056SOL    HW210176  10.040   7.917  10.947  0.4164 -1.6076 -0.9992
36057SOL     OW10177   7.538   1.622   1.557 -0.3118 -0.0241 -0.6672
36057SOL    HW110178   7.447   1.638   1.582  0.4858  5.0038  0.1813
36057SOL    HW210179   7.539   1.639   1.462 -0.0676  1.6850 -0.3873
36058SOL     OW10180   0.339   5.842   6.769  0.4228  0.4828  0.2219
36058SOL    HW110181   0.375   5.902   6.703  1.6533 -0.6231 -0.1472
36058SOL    HW210182   0.247   5.835   6.747  0.7059  0.5527 -1.0741
36059SOL     OW10183  10.728   5.584   1.229 -0.5279 -0.4356 -0.0391
36059SOL    HW110184  10.726   5.489   1.223  0.2094 -0.3691 -2.3782
36059SOL    HW210185  10.641   5.608   1.262 -1.4064 -1.8359 -1.2267
36060SOL     OW10186   8.689   1.885   4.289 -0.8306  0.9434  0.2293
36060SOL    HW110187   8.767   1.830   4.281 -0.6839  1.2672 -0.6248
36060SOL    HW210188   8.658   1.897   4.200 -0.1299  3.2752  0.2133
36061SOL     OW10189   3.839   7.710  10.920 -0.3416  0.1385  0.1525
36061SOL    HW110190   3.836   7.749  10.833 -0.9322 -0.4761 -0.1175
36061SOL    HW210191   3.873   7.622  10.906  0.5781  0.3888  0.6972
36062SOL     OW10192   3.704   0.872   7.591 -0.0686 -0.1269  0.3314
36062SOL    HW110193   3.618   0.846   7.557  0.0053 -2.4119  1.6796
36062SOL    HW210194   3.739   0.932   7.525 -1.7450 -0.9029 -1.3661
36063SOL     OW10195   1.428   6.436   2.615  0.0655  0.2869 -0.3723
36063SOL    HW110196   1.416   6.360   2.557 -0.0451  0.0739 -0.0710
36063SOL    HW210197   1.393   6.510   2.564 -0.9499 -0.0522 -0.2021
36064SOL     OW10198   2.512   8.603   7.512  0.0721  0.2680  0.3364
36064SOL    HW110199   2.540   8.527   7.563 -0.7289  0.6663  1.4078
36064SOL    HW210200   2.478   8.567   7.430  1.6959 -0.3566 -0.1044
36065SOL     OW10201   7.970   5.993   0.340  0.4381 -0.1566  0.7046
36065SOL    HW110202   7.933   6.076   0.370 -2.1325 -0.8411 -0.3208
36065SOL    HW210203   7.950   5.991   0.246 -0.4397 -2.3148  0.8705
36066SOL     OW10204   7.215   5.904   9.941  0.2081 -0.5529  0.5652
36066SOL    HW110205   7.171   5.878  10.022 -1.8775  4.7320  1.5158
36066SOL    HW210206   7.207   5.827   9.884 -1.9968 -3.0923  3.9098
36067SOL     OW10207   8.363  11.022   8.463 -0.0737 -0.1121 -0.1096
36067SOL    HW110208   8.328  10.949   8.515 -0.6501  0.9865  1.1204
36067SOL    HW210209   8.286  11.072   8.438  0.4410  2.3593  2.6538
36068SOL     OW10210   0.901   1.389   9.825  0.2155  0.4500  0.4980
36068SOL    HW110211   0.974   1.397   9.763  0.1527  0.9976  0.4869
36068SOL    HW210212   0.878   1.480   9.846 -0.4996  0.2832  0.4583
36069SOL     OW10213   6.140   2.025   5.131 -0.0330 -0.1228  0.0629
36069SOL    HW110214   6.104   2.092   5.189 -1.6304 -0.5325 -0.4054
36069SOL    HW210215   6.089   2.032   5.051 -0.6142 -2.2427  0.1876
36070SOL     OW10216  10.536   9.735   6.930 -0.0285  0.8803  0.2578
36070SOL    HW110217  10.529   9.787   7.010  2.0401  0.4989  0.7424
36070SOL    HW210218  10.507   9.648   6.955  1.2223  0.5927  0.8307
36071SOL     OW10219   7.734  10.184   4.208 -0.3886  0.2375  0.4485
36071SOL    HW110220   7.686  10.220   4.133 -0.1886 -0.6484 -0.1323
36071SOL    HW210221   7.798  10.251   4.230  0.2967  0.0641 -0.9084
36072SOL     OW10222   2.645  10.594  10.952 -0.1086 -0.0760  0.3157
36072SOL    HW110223   2.603  10.657  10.894 -1.6834 -0.9232  0.4926
36072SOL    HW210224   2.618  10.508  10.919  1.8667 -0.7058  0.1708
36073SOL     OW10225   1.418   1.310   4.158  0.0811 -1.0901  0.0634
36073SOL    HW110226   1.476   1.242   4.123 -0.7283 -2.4045  1.1827
36073SOL    HW210227   1.429   1.304   4.253 -0.3524  0.0509  0.1998
36074SOL     OW10228  10.298  10.336   3.267 -0.1537  0.0514 -0.0201
36074SOL    HW110229  10.284  10.420   3.225 -1.0040  0.2093  0.5566
36074SOL    HW210230  10.343  10.283   3.201  2.2257  1.5629  0.2840
36075SOL     OW10231   1.766   5.715   7.146  0.3466 -0.5546  0.1915
36075SOL    HW110232   1.767   5.810   7.140 -1.3130 -0.4879  0.5443
36075SOL    HW210233   1.855   5.688   7.121  2.0406  1.2668  3.5541
36076SOL     OW10234   6.243   2.516   4.643  0.1029  0.1129  0.1149
36076SOL    HW110235   6.221   2.547   4.556  0.8439  0.3998  0.0221
36076SOL    HW210236   6.159   2.492   4.682 -0.1500 -0.8282 -0.9770
36077SOL     OW10237   6.517   0.965   7.226  0.3423  0.6729 -0.5028
36077SOL    HW110238   6.597   0.953   7.175  0.4185  0.1302 -0.2628
36077SOL    HW210239   6.506   1.060   7.231  0.4569  0.7363 -1.3325
36078SOL     OW10240  11.073   4.076   9.602 -0.3422  0.0728  0.6764
36078SOL    HW110241  11.009   4.111   9.665 -0.6602 -0.1394  0.4745
36078SOL    HW210242  11.131   4.022   9.655  0.9154  1.8745  1.2090
36079SOL     OW10243   0.891   2.318   9.119 -0.3149  0.7759  0.2995
36079SOL    HW110244   0.848   2.357   9.195  2.0530  0.7718  1.7481
36079SOL    HW210245   0.821   2.277   9.070 -1.9924  1.0600  2.3206
36080SOL     OW10246   6.564   5.916   9.779 -0.2767 -0.3892  0.4306
36080SOL    HW110247   6.568   5.970   9.858 -0.1365  0.0026  0.1617
36080SOL    HW210248   6.481   5.940   9.738  1.0901  1.8951 -1.2557
36081SOL     OW10249   7.783   0.826   4.649 -0.3302 -0.1898 -0.1616
36081SOL    HW110250   7.780   0.838   4.744  2.9915 -2.3718  0.3829
36081SOL    HW210251   7.724   0.753   4.633 -0.8582  0.1444  0.2232
36082SOL     OW10252   4.877   2.249   2.497  0.0432 -0.4084 -0.7909
36082SOL    HW110253   4.917   2.328   2.534  0.4296 -0.2621 -1.5131
36082SOL    HW210254   4.783   2.261   2.511  0.2431 -1.4171  2.2538
36083SOL     OW10255   3.135   5.021   2.474  0.1035 -0.0330 -0.3816
36083SOL    HW110256   3.208   5.042   2.416  1.9554  0.2221  1.8954
36083SOL    HW210257   3.149   4.930   2.499  0.3797  0.3730  1.0208
36084SOL     OW10258   0.368   7.463   2.921 -0.6576 -0.5847 -0.0196
36084SOL    HW110259   0.279   7.455   2.955 -1.6961  1.1771 -2.0934
36084SOL    HW210260   0.357   7.483   2.828  1.9062 -0.2311 -0.3198
36085SOL     OW10261   1.677   2.134   0.945 -0.6875  0.4952 -0.4590
36085SOL    HW110262   1.678   2.114   0.851 -0.1152 -1.3737 -0.0890
36085SOL    HW210263   1.739   2.207   0.954  1.7934 -1.3810 -1.1612
36086SOL     OW10264   3.409   1.321   1.574  0.1395 -0.6209  0.2616
36086SOL    HW110265   3.380   1.402   1.532 -1.6213 -0.2049  2.1646
36086SOL    HW210266   3.503   1.316   1.554  0.6388  2.6656  1.2473
36087SOL     OW10267   0.639   4.416   2.877  0.3377 -0.0960  0.1747
36087SOL    HW110268   0.624   4.323   2.860 -0.0364 -0.0538  0.2538
36087SOL    HW210269   0.551   4.453   2.885  0.4891  0.1292  0.8738
36088SOL     OW10270   8.776   1.023  10.579 -0.4058 -1.2424  0.0016
36088SOL    HW110271   8.707   0.967  10.544 -0.2932 -0.1773 -2.0587
36088SOL    HW210272   8.729   1.087  10.634 -0.7303 -2.1399  0.7999
36089SOL     OW10273   7.752  11.183   8.524 -0.0252 -0.0740 -0.6629
36089SOL    HW110274   7.817  11.252   8.537  1.5326 -1.7367  0.9644
36089SOL    HW210275   7.786  11.132   8.450 -0.3330 -0.0155 -0.8456
36090SOL     OW10276   5.850   5.489   2.830  0.2366 -0.2264  0.0257
36090SOL    HW110277   5.890   5.514   2.914 -0.7808  0.9227  0.1974
36090SOL    HW210278   5.805   5.568   2.800 -0.0059 -0.8272 -1.2665
36091SOL     OW10279  10.650   3.362   2.727 -0.3087 -0.5075  0.0998
36091SOL    HW110280  10.585   3.295   2.751 -1.4684  0.7321  0.5352
36091SOL    HW210281  10.665   3.411   2.808  0.4094 -0.1244 -0.2573
36092SOL     OW10282   8.348   0.578   4.853  0.2028  0.6838 -0.1538
36092SOL    HW110283   8.336   0.673   4.860  0.9761  0.7262  0.8871
36092SOL    HW210284   8.262   0.542   4.877 -0.3686  1.1148 -1.4594
36093SOL     OW10285   1.452   6.706  10.613 -0.1662 -0.2443  0.6175
36093SOL    HW110286   1.498   6.789  10.627  0.5385 -0.6559  0.7724
36093SOL    HW210287   1.419   6.712  10.523  0.2702  0.0172  0.4700
36094SOL     OW10288   4.209   9.926   6.386  0.5259  0.1951  0.0188
36094SOL    HW110289   4.151   9.859   6.349 -0.1635  1.0009 -0.4109
36094SOL    HW210290   4.273   9.943   6.318 -0.1674  0.9888 -0.4584
36095SOL     OW10291   7.253   5.702   2.965  0.0526 -0.1567 -0.1074
36095SOL    HW110292   7.337   5.748   2.968 -0.4681  0.7736  0.4638
36095SOL    HW210293   7.275   5.615   2.932  1.3165 -0.0800  0.4705
36096SOL     OW10294   5.850   4.637   2.450 -0.3755 -0.2048 -0.0499
36096SOL    HW110295   5.875   4.710   2.393  0.4047  0.5021  1.1559
36096SOL    HW210296   5.821   4.678   2.531 -0.2944 -1.2286  0.5158
36097SOL     OW10297   2.866   4.833   8.901 -0.2962 -0.0776  0.0223
36097SOL    HW110298   2.925   4.798   8.834  0.0576  1.1192 -0.3215
36097SOL    HW210299   2.851   4.760   8.961  1.0915 -0.5825 -0.1996
36098SOL     OW10300   3.885   4.013   8.530 -0.1650  0.2053  0.1884
36098SOL    HW110301   3.926   4.025   8.444  0.3021 -2.3005 -0.0077
36098SOL    HW210302   3.800   3.973   8.511 -0.1011 -0.2709  0.8638
36099SOL     OW10303  10.149   0.817   3.310 -0.3743  0.6030  0.4195
36099SOL    HW110304  10.207   0.783   3.378 -0.4653  0.2063  0.3057
36099SOL    HW210305  10.208   0.848   3.241 -0.2603  1.7774  1.0228
36100SOL     OW10306  10.173   0.213   9.393  0.3878  0.0973 -0.1185
36100SOL    HW110307  10.086   0.193   9.428  1.3714 -1.7323  1.4451
36100SOL    HW210308  10.163   0.299   9.352 -2.0094  0.1890  0.5257
36101SOL     OW10309   4.112   4.926   1.359 -0.5424  0.0614  0.4517
36101SOL    HW110310   4.141   4.996   1.302 -0.9318 -1.9925 -2.4980
36101SOL    HW210311   4.022   4.907   1.331  0.4255 -3.3521 -0.9046
36102SOL     OW10312   2.340   0.361   9.323  0.4956 -0.0170  0.4288
36102SOL    HW110313   2.422   0.381   9.278 -1.0741  0.9212 -2.1836
36102SOL    HW210314   2.281   0.332   9.254 -1.7170  0.3739  2.0562
36103SOL     OW10315   2.525   9.385   4.990  0.2878 -0.1178  0.1060
36103SOL    HW110316   2.539   9.478   4.973 -1.2422  0.5830  2.1309
36103SOL    HW210317   2.612   9.347   4.988  1.1310  1.6453  0.5474
36104SOL     OW10318   6.803   8.346   9.037 -0.3130  0.5488  0.7248
36104SOL    HW110319   6.787   8.257   9.070  1.8129 -0.9748 -1.9544
36104SOL    HW210320   6.808   8.336   8.942 -1.7162  3.9090  0.1485
36105SOL     OW10321   0.686   6.473   4.694  0.1229  0.1004 -0.1847
36105SOL    HW110322   0.701   6.505   4.783 -0.5135 -1.7360  0.6184
36105SOL    HW210323   0.758   6.414   4.677 -1.1245 -1.5964  0.1603
36106SOL     OW10324   6.592   8.362   6.742 -0.0055 -0.9549  0.1195
36106SOL    HW110325   6.600   8.272   6.709 -1.6316 -1.0261 -0.1619
36106SOL    HW210326   6.599   8.417   6.665 -1.1278 -0.9752 -0.0134
36107SOL     OW10327   5.561   8.903   5.418  0.1533  0.1008 -0.3762
36107SOL    HW110328   5.529   8.825   5.372  1.7167 -0.2274 -0.9673
36107SOL    HW210329   5.543   8.884   5.510 -0.5332 -0.4452 -0.6079
36108SOL     OW10330   6.494   4.427  10.259 -0.7403  0.4489  1.1563
36108SOL    HW110331   6.421   4.401  10.203 -0.0530  0.2127  0.3522
36108SOL    HW210332   6.486   4.522  10.265 -0.3840  0.5623  0.0236
36109SOL     OW10333   5.697   2.960  10.201  0.0348 -0.0516 -0.4808
36109SOL    HW110334   5.713   2.966  10.107 -2.7315 -0.2707 -1.0606
36109SOL    HW210335   5.668   2.870  10.215  0.0028  0.0972  0.5142
36110SOL     OW10336   2.235   8.088   0.552  0.3246  0.1828  0.4933
36110SOL    HW110337   2.281   8.023   0.605  2.9765 -0.0572 -1.8661
36110SOL    HW210338   2.271   8.172   0.580 -0.0662  0.2924  0.6864
36111SOL     OW10339   7.836  10.872   7.390 -0.1110  0.3892  0.0559
36111SOL    HW110340   7.839  10.954   7.342 -0.1958  0.8560  0.8365
36111SOL    HW210341   7.843  10.897   7.482  0.0813 -0.4904  0.2941
36112SOL     OW10342   5.785  10.575  10.444  0.5526 -0.0284  0.0585
36112SOL    HW110343   5.825  10.500  10.400 -1.6198 -1.1598 -0.1465
36112SOL    HW210344   5.859  10.629  10.473  2.1538 -1.7083 -0.7111
36113SOL     OW10345   2.350   2.354   2.465  0.3552  0.6496  0.1396
36113SOL    HW110346   2.296   2.362   2.386 -0.4664  0.4031  0.6640
36113SOL    HW210347   2.378   2.262   2.466 -0.4720  0.3966  0.6614
36114SOL     OW10348   0.022   1.481  11.020 -0.0493  0.1456 -0.3164
36114SOL    HW110349   0.027   1.574  11.044 -0.5709 -0.1101  0.8497
36114SOL    HW210350   0.113   1.452  11.016  0.0928  0.5633 -0.0951
36115SOL     OW10351   6.223   6.538   3.390  0.4671  0.1511 -0.4619
36115SOL    HW110352   6.252   6.499   3.308  0.2673 -1.3321  0.1528
36115SOL    HW210353   6.228   6.467   3.454  0.3443  1.2018  0.7538
36116SOL     OW10354   3.537   3.976   5.725  0.8903 -0.0257  0.2956
36116SOL    HW110355   3.465   3.956   5.786  0.0285  0.9706 -0.3632
36116SOL    HW210356   3.536   4.071   5.717  1.2162 -0.1108 -0.9959
36117SOL     OW10357   4.946   8.114   8.053  0.1794  0.1284 -0.1333
36117SOL    HW110358   4.907   8.122   8.140 -1.9490  0.2084 -1.0332
36117SOL    HW210359   4.883   8.061   8.003  1.7008 -0.5360 -1.4323
36118SOL     OW10360   9.158   0.157   6.470 -0.2915 -0.2037 -0.1416
36118SOL    HW110361   9.142   0.113   6.387 -2.7234 -0.3800  0.3395
36118SOL    HW210362   9.178   0.247   6.446  4.4458 -1.2203 -1.1249
36119SOL     OW10363   8.799   2.948   1.417 -0.0201 -0.2933 -0.0017
36119SOL    HW110364   8.768   3.033   1.445  0.0736  0.1503 -1.2035
36119SOL    HW210365   8.894   2.950   1.433 -0.1356 -0.4865  0.7344
36120SOL     OW10366   6.734   7.179   9.518 -0.3344  0.2675 -0.3670
36120SOL    HW110367   6.787   7.169   9.439  1.1166 -0.3512  0.6193
36120SOL    HW210368   6.781   7.244   9.570 -0.1655 -0.7338  0.7958
36121SOL     OW10369   4.487   8.902   5.564 -0.0531 -0.4553 -0.0489
36121SOL    HW110370   4.468   8.809   5.572 -0.0073 -0.4964 -0.4047
36121SOL    HW210371   4.402   8.945   5.559 -0.0756 -0.5981 -1.1808
36122SOL     OW10372   0.553   7.269   9.242 -0.0259 -0.2172  0.2267
36122SOL    HW110373   0.591   7.204   9.184  0.8312 -0.0916  0.6279
36122SOL    HW210374   0.487   7.313   9.189 -1.5409 -2.2426  0.3104
36123SOL     OW10375   0.521   8.882   3.316 -0.1613  0.0638 -0.1982
36123SOL    HW110376   0.488   8.951   3.373  0.4718  0.6951 -0.5659
36123SOL    HW210377   0.577   8.828   3.372  0.5907  0.7764 -0.2336
36124SOL     OW10378   4.941   2.808   4.373 -0.4927 -0.1351  0.1303
36124SOL    HW110379   4.905   2.725   4.404  2.8673 -2.1047 -0.7442
36124SOL    HW210380   4.894   2.824   4.291 -0.8514 -1.4847  0.0417
36125SOL     OW10381   5.374  10.575   8.099  0.0317  0.2641  0.3426
36125SOL    HW110382   5.328  10.557   8.017  0.7169 -2.0928  0.4224
36125SOL    HW210383   5.329  10.521   8.164  1.0569  0.2028  1.0197
36126SOL     OW10384   8.016   9.831   5.322  0.1896 -0.2094  0.0971
36126SOL    HW110385   8.046   9.751   5.364  3.0045  0.2712 -0.7382
36126SOL    HW210386   7.983   9.803   5.237 -0.5843 -0.6487  0.5369
36127SOL     OW10387   7.469   8.858  10.812  0.2569 -0.1164  0.4050
36127SOL    HW110388   7.557   8.854  10.849  0.1672 -0.3310  0.5951
36127SOL    HW210389   7.426   8.779  10.843  0.8338 -1.3804 -1.8307
36128SOL     OW10390   5.259   9.443   4.733  0.1425 -0.6769  0.7239
36128SOL    HW110391   5.180   9.483   4.769  0.1512 -0.2807  0.3134
36128SOL    HW210392   5.268   9.361   4.780 -0.9211 -1.0711  0.2726
36129SOL     OW10393   3.230   6.729   7.545  0.2723 -0.1208 -0.3998
36129SOL    HW110394   3.155   6.718   7.488  0.5967 -1.6869 -0.5760
36129SOL    HW210395   3.265   6.640   7.556  0.6125  0.2149  1.6960
36130SOL     OW10396   3.539   9.154   6.046  0.4166 -0.0291  0.1805
36130SOL    HW110397   3.512   9.091   6.113 -1.9484  0.4183 -0.2389
36130SOL    HW210398   3.500   9.122   5.965  2.4925 -0.0855 -0.8467
36131SOL     OW10399   7.804  10.489   6.609  0.3430 -0.3550  0.3664
36131SOL    HW110400   7.769  10.523   6.527 -2.3848  0.1915  1.6434
36131SOL    HW210401   7.873  10.427   6.582  0.1739  0.4816 -2.2485
36132SOL     OW10402   4.014   2.968   7.136  0.9295 -0.0041  0.2003
36132SOL    HW110403   3.951   2.983   7.207  0.2832  1.7039 -0.6829
36132SOL    HW210404   4.001   2.876   7.112 -0.5599  0.0536  0.6858
36133SOL     OW10405   4.374  10.448   3.029  0.3982  0.0321 -0.4622
36133SOL    HW110406   4.312  10.430   3.100  0.2466  2.9509  0.2827
36133SOL    HW210407   4.455  10.406   3.056 -0.0818 -0.1695  0.7168
36134SOL     OW10408   8.045   4.611  11.199  0.1838  0.5685  0.5863
36134SOL    HW110409   7.984   4.621  11.273 -1.4400 -1.5735 -0.3659
36134SOL    HW210410   8.122   4.663  11.225 -0.7167  0.7331  3.2971
36135SOL     OW10411   5.329   4.157   2.017 -0.2597 -0.4893 -0.4484
36135SOL    HW110412   5.335   4.063   2.033  0.2156 -0.2136  1.1913
36135SOL    HW210413   5.406   4.194   2.060 -1.8629  0.8953  1.3969
36136SOL     OW10414   4.452   8.160   7.173  0.4205 -0.1415  0.8529
36136SOL    HW110415   4.526   8.130   7.119 -1.1081  0.0387 -1.5098
36136SOL    HW210416   4.391   8.198   7.110 -2.1181 -1.1291  2.5694
36137SOL     OW10417   0.336   9.651   8.784  0.2085 -0.9434  0.0157
36137SOL    HW110418   0.392   9.714   8.738  0.5078  0.1485  1.7818
36137SOL    HW210419   0.346   9.673   8.877 -2.7682 -1.0515  0.4448
36138SOL     OW10420   2.967   1.012   9.785  0.3153 -0.0954 -0.2923
36138SOL    HW110421   2.895   1.069   9.812 -0.1965 -0.4061 -0.9808
36138SOL    HW210422   2.927   0.950   9.725  1.0217 -0.7226 -0.1238
36139SOL     OW10423   7.839   5.420   0.033 -0.1159  0.0441 -0.0826
36139SOL    HW110424   7.768   5.443  -0.027  1.0943 -0.3256 -1.7279
36139SOL    HW210425   7.864   5.503   0.073 -0.9471  0.2974 -0.0621
36140SOL     OW10426  10.418   4.952   6.107  0.3059  0.0372  0.0383
36140SOL    HW110427  10.500   4.991   6.078  0.3665 -0.8322 -1.0233
36140SOL    HW210428  10.426   4.859   6.085 -0.7778 -0.1467  0.3416
36141SOL     OW10429   9.645  10.588   9.698 -0.0580  0.2303  0.2643
36141SOL    HW110430   9.712  10.622   9.756 -1.0102 -0.1746  1.6488
36141SOL    HW210431   9.639  10.495   9.719 -1.9902  0.5092  1.2049
36142SOL     OW10432  11.147   5.908   0.358 -0.0860  0.2864  0.2448
36142SOL    HW110433  11.156   5.983   0.298 -2.3969  0.3728 -0.0793
36142SOL    HW210434  11.054   5.906   0.381  0.1371 -1.7589  1.2294
36143SOL     OW10435   6.833   2.128   2.812 -0.0113  0.3482  0.3233
36143SOL    HW110436   6.831   2.184   2.734  0.9018 -0.3415 -0.2196
36143SOL    HW210437   6.743   2.130   2.845 -0.0370  2.0078  0.2464
36144SOL     OW10438   3.753   7.408   3.245  0.4364  0.3150  0.3371
36144SOL    HW110439   3.825   7.358   3.286  0.0004  0.6547  1.5598
36144SOL    HW210440   3.726   7.353   3.171  1.9503  0.1795 -0.1710
36145SOL     OW10441   6.873   9.774  10.662  0.2724 -0.0977  0.4623
36145SOL    HW110442   6.886   9.715  10.737  1.9202 -0.5370 -0.1330
36145SOL    HW210443   6.803   9.733  10.611  1.3273 -1.5411  0.1051
36146SOL     OW10444   9.990   8.424   8.014 -0.0190  1.0978 -0.1926
36146SOL    HW110445  10.051   8.389   8.080 -1.0023  1.8614  1.1751
36146SOL    HW210446  10.040   8.491   7.969  0.4551  1.0744  0.2789
36147SOL     OW10447   9.426   8.771   5.996 -0.4587 -0.4377  0.0278
36147SOL    HW110448   9.498   8.743   6.052 -1.7917 -0.9273  1.6049
36147SOL    HW210449   9.446   8.861   5.974  1.3012 -0.9745 -0.7507
36148SOL     OW10450   8.592   5.240   1.419 -0.1521 -0.5814 -0.4160
36148SOL    HW110451   8.593   5.331   1.391  0.4594 -0.4795 -0.0735
36148SOL    HW210452   8.581   5.189   1.338  1.3151 -0.2869 -0.8225
36149SOL     OW10453  10.157   3.755   5.980 -0.0490 -0.5987 -0.4488
36149SOL    HW110454  10.210   3.689   6.024  0.1536 -0.6550 -0.7741
36149SOL    HW210455  10.102   3.705   5.918 -0.2135 -0.5060 -0.3793
36150SOL     OW10456  10.772   2.179   7.821  0.4317  0.2579  0.2690
36150SOL    HW110457  10.795   2.248   7.884  0.2080 -1.0526  1.8460
36150SOL    HW210458  10.853   2.129   7.810  0.5632  0.6863 -0.7827
36151SOL     OW10459   1.807   1.715   0.152 -0.1025  0.0334  0.1983
36151SOL    HW110460   1.806   1.671   0.067  0.9444  0.2581  0.0597
36151SOL    HW210461   1.780   1.646   0.214 -0.9250 -0.1126 -0.3106
36152SOL     OW10462  10.288   4.725   1.908  0.5594  0.3762  0.3253
36152SOL    HW110463  10.373   4.691   1.934 -0.0474  0.0963  2.0292
36152SOL    HW210464  10.231   4.648   1.908  0.1024  0.7106  0.0441
36153SOL     OW10465   1.407   2.520   7.271  0.0036  0.3479  0.2018
36153SOL    HW110466   1.493   2.479   7.270  1.7661  3.6440 -1.5900
36153SOL    HW210467   1.350   2.459   7.224  1.7923 -1.0978 -0.1909
36154SOL     OW10468  10.257   6.678   7.553 -0.0079  0.1965  0.3518
36154SOL    HW110469  10.289   6.761   7.588 -0.8751 -0.5170  3.0600
36154SOL    HW210470  10.306   6.611   7.602  0.1674 -0.9256 -1.2822
36155SOL     OW10471   7.052   0.435   8.251  0.3044 -0.0223  0.4920
36155SOL    HW110472   7.019   0.523   8.270  1.9191  0.7929 -0.2613
36155SOL    HW210473   6.993   0.401   8.183 -0.8163  0.1256  1.3633
36156SOL     OW10474   3.197   9.101   5.993  0.0135 -0.4832  0.2999
36156SOL    HW110475   3.276   9.052   5.972  1.2398  1.8082 -0.8224
36156SOL    HW210476   3.125   9.041   5.974  1.3770 -1.5129 -1.9890
36157SOL     OW10477   1.210   1.839   2.590 -0.0653  0.0288  0.6855
36157SOL    HW110478   1.123   1.816   2.557 -0.0143  1.0518 -0.2444
36157SOL    HW210479   1.199   1.929   2.622  0.6447  0.1634  0.5564
36158SOL     OW10480   7.369  11.037   4.112 -0.2203  0.0284 -0.2341
36158SOL    HW110481   7.324  10.961   4.076 -0.5208  0.7390 -1.4258
36158SOL    HW210482   7.431  11.062   4.044  0.0479  0.6983  0.2491
36159SOL     OW10483   9.935   3.131   5.892  0.5950 -0.0307  0.4695
36159SOL    HW110484   9.875   3.061   5.866  1.4410 -0.2273 -1.1183
36159SOL    HW210485   9.991   3.092   5.959  0.5103 -0.6094  0.2095
36160SOL     OW10486   4.565   0.716   7.091 -0.2499 -0.2129  0.6778
36160SOL    HW110487   4.626   0.682   7.025 -1.7443  0.4792 -1.1599
36160SOL    HW210488   4.557   0.809   7.071 -2.6268 -0.4451  0.1403
36161SOL     OW10489   7.059   7.987   0.582  0.2295 -0.1286 -0.2548
36161SOL    HW110490   6.975   8.032   0.572 -0.6061 -1.4042  0.6759
36161SOL    HW210491   7.124   8.050   0.553 -0.9092  1.5405  0.6913
36162SOL     OW10492   3.624   0.493   5.888 -1.0743 -0.7387  0.3126
36162SOL    HW110493   3.561   0.422   5.875 -1.6416 -1.1298  3.9968
36162SOL    HW210494   3.707   0.449   5.905 -0.6277 -0.3590 -0.8308
36163SOL     OW10495   0.729   2.121   5.538 -0.0308 -0.2946  0.6243
36163SOL    HW110496   0.819   2.155   5.543  0.5521 -1.0905 -2.4538
36163SOL    HW210497   0.674   2.195   5.564  1.3609  2.0005 -2.3474
36164SOL     OW10498   1.280   7.618   9.274  0.8263 -0.5424 -0.1465
36164SOL    HW110499   1.371   7.629   9.300  0.7453 -1.2677  0.4688
36164SOL    HW210500   1.234   7.592   9.354  0.2731 -1.2197 -0.6646
36165SOL     OW10501   6.615  10.509   1.243 -0.5186 -0.2385 -0.2802
36165SOL    HW110502   6.661  10.559   1.311  0.4545  0.9080 -1.7221
36165SOL    HW210503   6.683  10.488   1.179 -1.9834  1.7753 -2.6649
36166SOL     OW10504   5.784   5.929   8.509 -0.0320  0.2118  0.3062
36166SOL    HW110505   5.726   5.925   8.586 -2.0356 -0.7218 -1.1683
36166SOL    HW210506   5.807   5.837   8.492 -0.2427  0.3370 -0.6788
36167SOL     OW10507   6.015   6.889   8.863  0.1517  0.1122  0.7352
36167SOL    HW110508   6.096   6.862   8.819 -0.7626  0.5534 -1.3256
36167SOL    HW210509   6.023   6.854   8.952  2.6108  0.1924  0.6064
36168SOL     OW10510   1.179   5.726   5.037 -0.4014 -0.4119 -1.0466
36168SOL    HW110511   1.237   5.755   5.108 -3.0867  1.9033  0.3856
36168SOL    HW210512   1.158   5.636   5.058  0.8637 -0.5601 -0.3484
36169SOL     OW10513  11.141   4.435   4.743  0.1745 -0.5344 -0.1512
36169SOL    HW110514  11.130   4.471   4.655  1.3202 -0.2246 -0.1893
36169SOL    HW210515  11.209   4.489   4.782 -1.6790  0.6216  1.6664
36170SOL     OW10516   1.707   8.829   3.795 -0.4808  0.8387  0.1360
36170SOL    HW110517   1.695   8.776   3.873 -1.4874 -0.7008 -1.0124
36170SOL    HW210518   1.780   8.887   3.816 -0.8517  0.5973  2.2630
36171SOL     OW10519   5.847   5.953   7.615  0.0314 -0.2538 -0.0297
36171SOL    HW110520   5.851   5.864   7.651  0.9054 -0.3563 -0.3518
36171SOL    HW210521   5.937   5.971   7.585  0.0955  1.0760  0.8484
36172SOL     OW10522   8.987  11.037   7.631 -0.8308  0.1559  0.0858
36172SOL    HW110523   8.996  11.117   7.581  1.8040 -0.5679 -0.7639
36172SOL    HW210524   8.984  11.066   7.722 -2.1748  1.2902 -0.2887
36173SOL     OW10525   5.824   8.025  11.133  0.5068 -0.4058  0.1027
36173SOL    HW110526   5.887   8.006  11.063  1.2842  2.1234  0.0209
36173SOL    HW210527   5.746   7.975  11.108  0.8742  0.1233 -2.4155
36174SOL     OW10528   5.798   4.779   9.208 -0.0195  0.3215  0.0456
36174SOL    HW110529   5.730   4.825   9.258 -0.4057 -0.1449 -0.0363
36174SOL    HW210530   5.777   4.799   9.116  1.3820  2.1425  0.0743
36175SOL     OW10531   7.645   9.856   6.523 -0.6237  0.0161  0.5764
36175SOL    HW110532   7.708   9.816   6.584  0.3384 -0.9487 -0.9613
36175SOL    HW210533   7.611   9.783   6.472  1.6871  1.0487 -2.8005
36176SOL     OW10534   0.871   3.555   7.434 -0.2574 -0.0233  0.5446
36176SOL    HW110535   0.809   3.609   7.386 -0.8092  0.8473  2.1339
36176SOL    HW210536   0.819   3.481   7.467  0.5981 -1.9640 -2.0732
36177SOL     OW10537   0.482   4.105   1.404  0.4141  0.3979 -0.1521
36177SOL    HW110538   0.568   4.119   1.442  0.7396  3.3686 -1.7372
36177SOL    HW210539   0.485   4.149   1.320 -1.9898 -1.3249 -1.2641
36178SOL     OW10540   2.102   9.335   7.232 -0.2839 -0.7300  0.2923
36178SOL    HW110541   2.098   9.288   7.315  0.5177 -0.1007  0.7054
36178SOL    HW210542   2.148   9.417   7.253 -0.8401 -0.1709 -0.5918
36179SOL     OW10543   3.876   9.181   1.630  0.3523  0.0998 -0.0995
36179SOL    HW110544   3.872   9.192   1.725  0.4109  1.5345 -0.2415
36179SOL    HW210545   3.918   9.096   1.617  1.7655  0.5669  1.1587
36180SOL     OW10546   8.442   4.304   7.274  0.0745  0.4121  0.5293
36180SOL    HW110547   8.502   4.292   7.201 -1.8935 -0.5089 -1.0381
36180SOL    HW210548   8.443   4.221   7.320 -0.0249  0.3894  0.4897
36181SOL     OW10549  10.170   6.733   8.425 -0.1036 -0.4920 -0.4728
36181SOL    HW110550  10.107   6.763   8.491  1.5503 -2.1333  1.9782
36181SOL    HW210551  10.213   6.814   8.395 -2.1824  0.4818 -1.0584
36182SOL     OW10552   6.348   9.125   2.047  0.3645 -0.1203  0.1238
36182SOL    HW110553   6.292   9.098   2.120 -1.2762 -1.0766 -1.4129
36182SOL    HW210554   6.354   9.047   1.991 -0.0452  1.1420 -1.7542
36183SOL     OW10555  10.947   7.599   9.178 -0.3065  0.3096 -0.3028
36183SOL    HW110556  11.006   7.662   9.137  0.0240  0.3290  0.1975
36183SOL    HW210557  10.942   7.627   9.269 -0.3303 -0.2570 -0.1265
36184SOL     OW10558   4.097   8.869   3.600  0.7256  0.3435  0.6650
36184SOL    HW110559   4.005   8.874   3.627  0.0843 -0.2273 -1.2635
36184SOL    HW210560   4.143   8.837   3.678 -0.9334 -0.7944  1.2261
36185SOL     OW10561   6.198  11.168  10.306  0.0815  0.1537 -0.2505
36185SOL    HW110562   6.148  11.235  10.353 -0.8142 -2.1035  2.2053
36185SOL    HW210563   6.281  11.163  10.352  0.9114  0.8011 -1.5984
36186SOL     OW10564   9.946   6.418   6.703 -0.1508 -0.1438 -0.1872
36186SOL    HW110565  10.016   6.468   6.660  0.8426  0.2427  1.7633
36186SOL    HW210566   9.885   6.485   6.735 -1.4177 -0.4724 -1.7837
36187SOL     OW10567  10.620  10.724   2.708 -0.4379  0.0134  0.0794
36187SOL    HW110568  10.601  10.632   2.693  0.0751 -0.6124  2.7382
36187SOL    HW210569  10.641  10.759   2.622 -1.5446 -2.1175 -1.1305
36188SOL     OW10570   8.520   2.210   5.648  0.0756  0.4475 -0.1740
36188SOL    HW110571   8.424   2.212   5.652  0.0991  0.9371  0.2199
36188SOL    HW210572   8.548   2.278   5.709  0.6608  0.8401 -0.8522
36189SOL     OW10573   4.920   7.159   8.939 -0.3592 -0.4403  0.2613
36189SOL    HW110574   4.880   7.182   8.854 -2.0730 -2.6684  0.3707
36189SOL    HW210575   4.857   7.099   8.979  0.8904 -0.2283  2.7000
36190SOL     OW10576   6.907   8.130   6.756  0.1815  0.2626  0.5887
36190SOL    HW110577   6.859   8.050   6.778  1.6716 -0.5168  1.1648
36190SOL    HW210578   6.940   8.113   6.667 -2.2535  1.6601 -0.7093
36191SOL     OW10579   6.943   9.378   0.773 -0.1300  0.0606  0.0228
36191SOL    HW110580   7.028   9.394   0.814 -1.1511  1.2103  1.8768
36191SOL    HW210581   6.890   9.339   0.842 -1.3754  0.1851 -0.8255
36192SOL     OW10582   6.879  10.474   5.558 -0.5168 -0.6339  0.3379
36192SOL    HW110583   6.807  10.518   5.514  0.1918  0.5050  0.2692
36192SOL    HW210584   6.889  10.522   5.641 -0.8697 -1.7981  1.0762
36193SOL     OW10585   4.905   6.117  11.086  0.5759  0.0912 -0.5194
36193SOL    HW110586   4.900   6.130  11.181 -1.2054 -0.0296 -0.5562
36193SOL    HW210587   4.993   6.083  11.071  0.8001 -0.1358  1.1296
36194SOL     OW10588   0.421   1.743   6.153 -0.2330  0.1623  1.1810
36194SOL    HW110589   0.497   1.688   6.173 -1.5768 -2.0053  0.7360
36194SOL    HW210590   0.379   1.699   6.078 -0.7497  2.5231 -0.0073
36195SOL     OW10591   7.361   0.758   7.721  0.7733 -0.9012  0.5666
36195SOL    HW110592   7.453   0.733   7.729  0.7691 -1.0272  0.2658
36195SOL    HW210593   7.313   0.675   7.724  0.6439 -0.8103  1.0494
36196SOL     OW10594   8.391   3.360   5.514 -0.7505 -0.0786  0.5102
36196SOL    HW110595   8.358   3.307   5.586  2.4578 -0.4162  1.9063
36196SOL    HW210596   8.453   3.302   5.469  1.4714  1.8345  0.9540
36197SOL     OW10597   8.490   5.599   3.141 -0.5027 -0.2679 -0.0132
36197SOL    HW110598   8.414   5.628   3.092  0.1230 -0.4141 -1.1012
36197SOL    HW210599   8.565   5.635   3.093  0.1978 -1.8392 -0.1492
36198SOL     OW10600   2.528   8.134   6.620  0.1478 -0.0087 -0.5358
36198SOL    HW110601   2.557   8.043   6.624 -0.0461 -0.0323  0.8854
36198SOL    HW210602   2.520   8.161   6.712  0.3848  1.5052 -0.9267
36199SOL     OW10603  11.065  10.788   2.829 -0.2911 -0.4651 -0.1787
36199SOL    HW110604  11.002  10.754   2.892  0.9432 -0.6210  1.0097
36199SOL    HW210605  11.132  10.831   2.882 -0.2268  1.1764 -1.4844
36200SOL     OW10606   1.545   9.913   8.937 -0.1466  0.3633  0.2206
36200SOL    HW110607   1.620   9.916   8.877 -0.5346 -0.7777 -0.3680
36200SOL    HW210608   1.564   9.978   9.004  0.6368  1.1778 -0.7693
36201SOL     OW10609   6.267   5.537   8.032  0.5130  0.2587 -0.6208
36201SOL    HW110610   6.227   5.456   8.065  0.1025  0.8932  0.4811
36201SOL    HW210611   6.305   5.578   8.109  0.1264  1.4473 -1.0456
36202SOL     OW10612   9.221   5.333   2.993 -0.5981 -0.5670 -1.2169
36202SOL    HW110613   9.232   5.418   3.037  0.9189 -1.7433  0.8461
36202SOL    HW210614   9.132   5.307   3.015 -0.1785 -0.7019  0.4888
36203SOL     OW10615   8.339   8.535   0.900 -0.1457  0.5072 -0.1395
36203SOL    HW110616   8.365   8.498   0.815  0.7105  2.0281 -0.5733
36203SOL    HW210617   8.251   8.499   0.915  0.4154 -1.2571 -0.7570
36204SOL     OW10618   5.091  10.431   1.429 -0.2722  0.0626  0.5184
36204SOL    HW110619   5.080  10.525   1.413  2.1327 -0.0054 -2.5415
36204SOL    HW210620   5.022  10.390   1.377  0.2384  0.1004 -0.1967
36205SOL     OW10621   5.000   0.541   4.045  0.0672  0.1096 -0.1037
36205SOL    HW110622   5.065   0.568   3.980  0.3489 -1.3600 -0.4844
36205SOL    HW210623   5.052   0.515   4.121 -0.1000 -0.4258 -0.1665
36206SOL     OW10624   4.232   1.341   3.531 -0.0266 -0.9869  0.4885
36206SOL    HW110625   4.324   1.334   3.557 -0.1140  0.9161  1.4800
36206SOL    HW210626   4.183   1.303   3.604 -0.1051  0.3320  1.1394
36207SOL     OW10627  11.096   3.116   7.264  0.6771  0.1828 -0.2180
36207SOL    HW110628  11.170   3.177   7.260  0.1715  0.7316 -1.6068
36207SOL    HW210629  11.132   3.032   7.234  0.8754  0.3129 -0.3474
36208SOL     OW10630   9.868   4.367   0.721  0.0382 -0.9892  0.2136
36208SOL    HW110631   9.774   4.366   0.704  0.1414 -1.0281 -0.4079
36208SOL    HW210632   9.887   4.456   0.750 -0.1849 -0.9658  0.2850
36209SOL     OW10633   0.958   0.607   9.790  0.1024 -0.3075 -0.3592
36209SOL    HW110634   0.870   0.611   9.829 -0.1511 -0.6160 -0.8983
36209SOL    HW210635   0.954   0.667   9.715  0.5740  0.2398  0.0378
36210SOL     OW10636  11.040   5.616   4.851  0.1865  0.2433  0.2383
36210SOL    HW110637  11.021   5.610   4.945  1.5195 -0.4776  0.4962
36210SOL    HW210638  11.130   5.650   4.848  0.7784 -1.3133 -0.7036
36211SOL     OW10639  11.088   6.632  11.177  0.4478 -0.0660 -0.9161
36211SOL    HW110640  11.091   6.718  11.136  0.8408 -0.7146 -2.3290
36211SOL    HW210641  11.005   6.630  11.224  0.7034  1.2849 -0.3610
36212SOL     OW10642   5.166   5.625   3.218  0.5835  0.1311 -0.1243
36212SOL    HW110643   5.117   5.676   3.283  0.3978 -0.8777  0.5473
36212SOL    HW210644   5.251   5.610   3.260  0.1850 -1.2127  0.2527
36213SOL     OW10645   1.376   7.189   6.461  0.0542 -0.1975 -0.0963
36213SOL    HW110646   1.435   7.210   6.388  3.0877 -0.0938  2.1471
36213SOL    HW210647   1.394   7.256   6.527  0.0520 -2.1531  2.0558
36214SOL     OW10648   1.139   1.082   7.569  0.3022  0.4390  0.2518
36214SOL    HW110649   1.163   1.064   7.478  2.4703  2.8348  0.2295
36214SOL    HW210650   1.044   1.078   7.570  0.2859 -1.5082 -1.6523
36215SOL     OW10651   3.795   2.483   1.120  0.0910 -0.5946  0.4667
36215SOL    HW110652   3.745   2.437   1.053 -0.0725  0.8703 -0.4621
36215SOL    HW210653   3.740   2.559   1.142  2.1854  1.5683 -1.2207
36216SOL     OW10654   2.354   9.737  10.177  0.9165  0.1656  0.2484
36216SOL    HW110655   2.338   9.812  10.235  1.7661 -0.1754  0.9508
36216SOL    HW210656   2.322   9.765  10.092 -1.9636  0.0764  1.1980
36217SOL     OW10657   8.992   5.948   8.684 -0.0041 -0.2289 -0.4203
36217SOL    HW110658   9.021   6.009   8.616 -1.9552  2.1173  0.7082
36217SOL    HW210659   9.039   5.976   8.762  1.0977 -1.9631 -0.4038
36218SOL     OW10660   1.185   9.947   3.247  0.2540 -0.6899 -0.5249
36218SOL    HW110661   1.129  10.006   3.196 -0.3984 -0.2895  0.6198
36218SOL    HW210662   1.259  10.002   3.273 -0.1010 -0.5095  0.1136
36219SOL     OW10663  11.186   4.860   6.214  0.1927 -0.0906  0.0586
36219SOL    HW110664  11.143   4.936   6.175 -0.6185  0.2633  1.5618
36219SOL    HW210665  11.137   4.785   6.181 -0.1282  0.1642 -0.0506
36220SOL     OW10666   0.804   2.530   3.493  0.1433  0.1844 -0.5694
36220SOL    HW110667   0.877   2.545   3.434 -1.0359 -1.6186 -2.6105
36220SOL    HW210668   0.770   2.618   3.512  0.3322  0.8120 -2.9170
36221SOL     OW10669   3.701  10.969   8.241 -0.4962  0.4951  0.9000
36221SOL    HW110670   3.673  11.027   8.170  2.4006 -1.2808 -1.9904
36221SOL    HW210671   3.641  10.894   8.236 -1.1049  0.9583  1.2234
36222SOL     OW10672   0.991  11.105   1.537  0.8158 -0.3424  0.1007
36222SOL    HW110673   1.031  11.096   1.624  0.3953 -0.2446  0.3116
36222SOL    HW210674   0.908  11.150   1.555  1.1488  0.5142 -0.4604
36223SOL     OW10675   8.872   2.059   6.928  0.4019 -0.2727 -0.2154
36223SOL    HW110676   8.828   1.976   6.939  1.4939 -0.5591  3.3405
36223SOL    HW210677   8.953   2.038   6.881  0.9784 -1.4244  1.2120
36224SOL     OW10678   7.112   9.629   5.144  0.0231 -0.4753 -0.2603
36224SOL    HW110679   7.028   9.613   5.101  0.0786 -0.6641 -0.2977
36224SOL    HW210680   7.174   9.571   5.100 -0.1518 -1.5358  0.8393
36225SOL     OW10681   4.966   8.858   2.708  0.3932  0.6692  0.7182
36225SOL    HW110682   4.876   8.891   2.715  0.7942  1.9864 -0.0534
36225SOL    HW210683   4.958   8.765   2.729 -1.2651  0.6048  0.0221
36226SOL     OW10684   8.530   9.561   1.445 -0.3501  0.3136 -0.6368
36226SOL    HW110685   8.470   9.487   1.436 -2.1371  1.6168 -0.2033
36226SOL    HW210686   8.494   9.611   1.519  2.2317  0.3460  0.6840
36227SOL     OW10687   8.736  10.710   0.906  0.0243  0.0845  0.3003
36227SOL    HW110688   8.654  10.685   0.864  0.2857  2.5281 -1.9853
36227SOL    HW210689   8.803  10.659   0.860 -0.0292 -0.5053  0.8598
36228SOL     OW10690   1.006   2.140   4.323  0.1124 -0.3462  0.2438
36228SOL    HW110691   1.036   2.070   4.265  2.3625 -1.4919  2.6178
36228SOL    HW210692   1.061   2.215   4.301  1.1200 -0.8485  1.0055
36229SOL     OW10693   9.212   9.562   0.658  0.3109  0.3079 -0.2501
36229SOL    HW110694   9.269   9.489   0.637 -0.8762 -0.3065 -1.5287
36229SOL    HW210695   9.188   9.599   0.573  0.3920  1.7988  0.3444
36230SOL     OW10696   6.263   2.061   2.978 -0.0240  0.0155  0.5619
36230SOL    HW110697   6.170   2.039   2.993 -0.4816 -1.7468 -3.5446
36230SOL    HW210698   6.261   2.150   2.944 -0.0655  0.2699  1.2036
36231SOL     OW10699   2.601   9.517   1.234 -0.6726 -0.4149  0.4248
36231SOL    HW110700   2.678   9.465   1.259 -0.5824  0.6160  2.4637
36231SOL    HW210701   2.569   9.475   1.153  0.0691 -2.8995  1.3295
36232SOL     OW10702   6.166   3.724   0.650  0.5374  0.4821 -0.0511
36232SOL    HW110703   6.240   3.717   0.590  0.8049  1.2540  0.1780
36232SOL    HW210704   6.098   3.768   0.599 -0.6143 -2.2123 -1.0113
36233SOL     OW10705   6.851   9.459   7.556 -0.0614 -0.1980 -0.0914
36233SOL    HW110706   6.764   9.458   7.519 -2.5983 -0.7237  4.9565
36233SOL    HW210707   6.864   9.371   7.591  0.8459  0.7919  2.2869
36234SOL     OW10708   3.598   6.850   8.089  0.2854  0.1474  0.4581
36234SOL    HW110709   3.610   6.774   8.032 -0.8932  0.9491 -0.9223
36234SOL    HW210710   3.525   6.897   8.051  0.2843  1.4092  1.9317
36235SOL     OW10711  10.393   1.736   1.551 -0.8427 -0.0006  0.4015
36235SOL    HW110712  10.449   1.786   1.610 -1.8986  0.3649  1.1241
36235SOL    HW210713  10.447   1.661   1.524  0.1481  0.5979  0.6784
36236SOL     OW10714   5.282   3.392   8.598  0.0042  0.0170 -0.7031
36236SOL    HW110715   5.197   3.349   8.606 -0.1099  0.0121 -1.8350
36236SOL    HW210716   5.272   3.452   8.525  1.9569 -2.4943 -3.2487
36237SOL     OW10717   5.622  10.253   8.999 -0.4684 -0.1970 -0.2884
36237SOL    HW110718   5.645  10.189   9.067 -0.0012 -0.9889 -1.1658
36237SOL    HW210719   5.621  10.337   9.045  1.6290 -0.4603  0.3717
36238SOL     OW10720   1.972   1.760   0.590 -0.6194  0.5681 -0.0411
36238SOL    HW110721   1.981   1.724   0.678 -2.2682 -0.4157 -0.2168
36238SOL    HW210722   2.019   1.699   0.534  0.8315  1.4480  0.1742
36239SOL     OW10723  10.059   4.182   8.934  0.9524  0.1996  0.1505
36239SOL    HW110724  10.012   4.205   8.854 -0.2534 -1.4982  0.3381
36239SOL    HW210725  10.151   4.173   8.906  0.3685 -1.7252 -1.3826
36240SOL     OW10726   1.740   9.338   4.804  0.1627 -0.1520 -0.1737
36240SOL    HW110727   1.815   9.384   4.841 -0.4825  1.2435 -0.5528
36240SOL    HW210728   1.723   9.266   4.865  2.4131 -1.1385 -0.6111
36241SOL     OW10729   2.065   5.400   6.598 -0.3101 -0.1046  0.2165
36241SOL    HW110730   2.014   5.481   6.603  1.8797  1.4058 -0.2614
36241SOL    HW210731   2.116   5.399   6.680  0.6833 -0.2502 -0.3843
36242SOL     OW10732   5.889   2.314   1.133 -0.0547  0.1320  0.1884
36242SOL    HW110733   5.922   2.368   1.205  0.9190 -2.1750  1.6227
36242SOL    HW210734   5.965   2.299   1.078 -0.6313  1.2785 -0.9585
36243SOL     OW10735   8.022   6.595   3.152 -0.1202  0.0997  0.0565
36243SOL    HW110736   8.004   6.513   3.106  0.3093 -0.1167  0.2766
36243SOL    HW210737   7.963   6.658   3.111  1.3684  0.2864 -1.9201
36244SOL     OW10738   5.426   7.013   1.617  0.0166  0.3292 -0.0891
36244SOL    HW110739   5.510   6.987   1.579 -0.7234 -0.0874 -1.5001
36244SOL    HW210740   5.417   6.959   1.695  1.4656  1.0346  0.6242
36245SOL     OW10741   6.099   2.801   7.831  1.0199  0.0777  0.9177
36245SOL    HW110742   6.048   2.841   7.761  1.5404  1.3627  1.2439
36245SOL    HW210743   6.036   2.792   7.903  0.8882  0.2667  0.8274
36246SOL     OW10744   5.425   8.542   4.069 -0.0950 -0.3968  0.3919
36246SOL    HW110745   5.506   8.511   4.111 -0.7936 -0.4047  1.8079
36246SOL    HW210746   5.444   8.633   4.045  1.2636 -1.2079 -1.9090
36247SOL     OW10747  10.980   8.146   8.198  0.4591  0.1711  0.5294
36247SOL    HW110748  11.068   8.137   8.233  0.3998 -3.7632  0.1834
36247SOL    HW210749  10.991   8.146   8.103  0.1294 -2.2432  0.4246
36248SOL     OW10750   8.777   9.393   1.457 -0.2697  0.6550  0.1784
36248SOL    HW110751   8.720   9.466   1.433  0.2711  1.1655  0.4594
36248SOL    HW210752   8.854   9.433   1.497  0.6271  0.0059 -0.8454
36249SOL     OW10753   1.937   4.502   3.505  0.5264  0.1050  0.0676
36249SOL    HW110754   1.965   4.411   3.513  1.0660 -0.1063 -3.0038
36249SOL    HW210755   1.851   4.504   3.547  0.0467 -2.0900 -0.6576
36250SOL     OW10756   8.560   6.135   6.423  0.2561  0.2743 -0.3368
36250SOL    HW110757   8.520   6.201   6.480 -0.0109 -0.4440  0.3302
36250SOL    HW210758   8.528   6.051   6.458  0.2668 -0.1931 -1.4066
36251SOL     OW10759   7.984   9.127   1.074 -0.1461 -0.1132 -0.3530
36251SOL    HW110760   7.888   9.132   1.068 -0.1237 -0.2269 -0.8820
36251SOL    HW210761   8.001   9.060   1.139 -0.4272 -0.6103 -0.7830
36252SOL     OW10762   8.942  10.175  11.211 -0.1862  0.3358  0.2697
36252SOL    HW110763   8.975  10.087  11.196 -1.2969 -0.1016  0.3108
36252SOL    HW210764   8.876  10.188  11.143  0.0916  1.2001  0.1575
36253SOL     OW10765   0.231   3.345  10.048  0.3712  0.1167 -0.2730
36253SOL    HW110766   0.278   3.423  10.018  0.4061  0.6137  1.0128
36253SOL    HW210767   0.218   3.360  10.141 -0.1358 -1.1662 -0.1258
36254SOL     OW10768   1.183  10.895   8.524 -0.3092  0.6709 -0.2615
36254SOL    HW110769   1.141  10.833   8.465  0.2687 -1.1307  1.0970
36254SOL    HW210770   1.265  10.852   8.549 -0.3615  1.5167  1.5231
36255SOL     OW10771   6.475   8.717  10.031 -0.2413  0.8149 -0.1735
36255SOL    HW110772   6.383   8.711  10.055 -0.0279 -0.8966  0.3596
36255SOL    HW210773   6.519   8.649  10.083  1.5574  2.4350  0.5608
36256SOL     OW10774   8.214   4.035   9.103  0.2996  0.4561  0.0727
36256SOL    HW110775   8.142   4.088   9.068  1.1092  1.4942 -0.0938
36256SOL    HW210776   8.290   4.061   9.050  0.7789 -0.6651  0.1944
36257SOL     OW10777   5.977   1.271   4.132 -0.0495 -0.2902  0.3646
36257SOL    HW110778   6.065   1.309   4.143 -0.5640  2.0691 -2.5880
36257SOL    HW210779   5.943   1.264   4.221  1.9743  1.6577  1.3863
36258SOL     OW10780   0.494   9.478  10.465 -0.1078 -0.1904  0.3657
36258SOL    HW110781   0.499   9.568  10.434 -1.2736 -0.0614  0.5023
36258SOL    HW210782   0.428   9.479  10.534 -1.1103 -1.3553 -0.5059
36259SOL     OW10783   7.887   6.215   5.233  0.3768  0.2823 -0.5951
36259SOL    HW110784   7.835   6.136   5.249  0.2949  0.4060 -0.2393
36259SOL    HW210785   7.834   6.287   5.266  0.6147  0.4471 -0.5643
36260SOL     OW10786   2.127   5.986   0.471 -0.5123 -0.2735  0.5426
36260SOL    HW110787   2.177   5.907   0.447 -0.9861 -0.0621 -1.2905
36260SOL    HW210788   2.193   6.048   0.501 -0.0689 -1.1357  1.4394
36261SOL     OW10789   0.326   5.916   1.758 -0.0200  0.1854  0.7472
36261SOL    HW110790   0.370   5.843   1.800 -1.8327 -0.7615  1.0711
36261SOL    HW210791   0.337   5.989   1.819  1.3358  0.0641  0.6698
36262SOL     OW10792   7.281   5.018  11.077 -0.1054  0.1354  0.3245
36262SOL    HW110793   7.292   5.002  10.983 -0.2252 -1.2726  0.5177
36262SOL    HW210794   7.266   5.112  11.084  0.8142  0.4126 -0.9740
36263SOL     OW10795   6.224   9.026   5.908 -0.6501  0.4762 -0.8570
36263SOL    HW110796   6.189   8.942   5.879  2.8727 -1.6511  0.2896
36263SOL    HW210797   6.212   9.026   6.003  1.8734 -0.2176 -0.4559
36264SOL     OW10798  10.094   6.035   8.795 -0.0949  0.1502  0.0174
36264SOL    HW110799  10.026   6.030   8.728 -2.1898 -0.5358  2.0303
36264SOL    HW210800  10.097   5.946   8.833 -1.2773  1.2005  2.8447
36265SOL     OW10801  11.025   6.461   7.415  0.1297  0.4581 -0.1460
36265SOL    HW110802  11.079   6.406   7.472  0.4042  1.8993  1.0253
36265SOL    HW210803  11.089   6.510   7.362 -0.0372  1.2033  0.3252
36266SOL     OW10804   2.819   1.173   0.753  0.3955  0.8928  0.0798
36266SOL    HW110805   2.792   1.140   0.839  0.3308  1.3823  0.2481
36266SOL    HW210806   2.850   1.095   0.706 -0.2187  0.5111  0.2956
36267SOL     OW10807   9.956   0.169   8.950 -0.4263  0.2392  0.4855
36267SOL    HW110808  10.025   0.115   8.989 -0.4671 -0.9733 -1.0385
36267SOL    HW210809   9.882   0.161   9.010  0.8257  1.8644  2.3541
36268SOL     OW10810   9.417   5.613  11.260 -0.0933 -0.2425 -0.2339
36268SOL    HW110811   9.398   5.622  11.353 -0.7937 -1.3607 -0.2542
36268SOL    HW210812   9.465   5.531  11.253  1.1678  0.5016 -0.7122
36269SOL     OW10813   8.593   3.608   0.601  0.3247 -0.3200  0.8202
36269SOL    HW110814   8.501   3.616   0.626  0.1734 -1.4932  0.6935
36269SOL    HW210815   8.596   3.635   0.509 -0.2482 -2.0470  0.2539
36270SOL     OW10816   5.740   6.194   3.818 -0.0138 -1.0859  0.1583
36270SOL    HW110817   5.767   6.173   3.728 -1.0440  0.7152 -0.6129
36270SOL    HW210818   5.739   6.289   3.821 -1.4257 -1.1142  1.6395
36271SOL     OW10819  11.103   1.462  10.463  0.0934 -0.1550 -0.0242
36271SOL    HW110820  11.058   1.525  10.407 -0.6006 -1.3331 -0.8463
36271SOL    HW210821  11.186   1.445  10.419  0.2017  0.0537  0.1008
36272SOL     OW10822   2.815   2.093   1.906 -0.2026 -0.1162  0.4603
36272SOL    HW110823   2.830   2.188   1.912  0.5911 -0.2388  0.4889
36272SOL    HW210824   2.781   2.069   1.992 -2.5993  0.4969 -0.2276
36273SOL     OW10825   3.866   0.660   0.449  0.1029  0.6696  0.2280
36273SOL    HW110826   3.779   0.623   0.433 -0.4190  1.6162  0.8124
36273SOL    HW210827   3.861   0.697   0.537  0.5022  2.3714 -0.4224
36274SOL     OW10828   7.922   8.960   9.346 -0.2626  0.0682 -0.2870
36274SOL    HW110829   7.989   8.979   9.411 -2.7239  0.5562  2.3445
36274SOL    HW210830   7.913   8.865   9.346 -0.6716  0.1027  0.5888
36275SOL     OW10831   7.126   7.109   5.307  0.5597 -0.7503  0.0860
36275SOL    HW110832   7.165   7.043   5.365  1.0049  1.8205  2.9606
36275SOL    HW210833   7.193   7.177   5.299  0.3782 -0.7852 -3.3391
36276SOL     OW10834   9.919   7.729   4.339  0.1469 -0.8912 -0.8369
36276SOL    HW110835   9.872   7.727   4.256  2.0369 -0.2486 -1.9779
36276SOL    HW210836   9.851   7.715   4.405 -1.7499  0.7465 -2.3260
36277SOL     OW10837   4.046   5.459   6.567 -0.3441  0.1185  0.0018
36277SOL    HW110838   4.060   5.369   6.539 -1.4646  0.5020 -1.9457
36277SOL    HW210839   3.970   5.455   6.625 -0.2720 -0.2131  0.0739
36278SOL     OW10840   7.091   5.726   7.528 -0.3267 -0.7864  0.0944
36278SOL    HW110841   7.140   5.800   7.491  0.0477 -0.9978  0.1675
36278SOL    HW210842   7.158   5.665   7.558 -0.6224 -0.5805  1.2061
36279SOL     OW10843   2.023   9.421   5.970 -0.0396 -0.0977  0.2000
36279SOL    HW110844   1.938   9.426   6.012 -1.1905  3.5406 -2.0140
36279SOL    HW210845   2.086   9.442   6.039 -0.7329 -3.2722  1.9717
36280SOL     OW10846   5.829   9.224   5.503  0.9293  0.5858  0.4131
36280SOL    HW110847   5.753   9.224   5.562  0.6678  0.9934  0.0807
36280SOL    HW210848   5.803   9.166   5.431  0.4757  1.5857 -0.2631
36281SOL     OW10849   0.385   8.775  10.957 -0.3141 -0.1076  0.1943
36281SOL    HW110850   0.446   8.784  10.884  0.8852  0.7889  1.2618
36281SOL    HW210851   0.393   8.857  11.006 -1.5265 -0.4494  1.0171
36282SOL     OW10852  10.304   1.077   8.872  0.1861 -0.4398 -0.6418
36282SOL    HW110853  10.258   1.130   8.807 -1.7034  0.2014  1.1231
36282SOL    HW210854  10.373   1.133   8.904 -1.6186  0.9740  1.0026
36283SOL     OW10855   4.636   8.780   4.992  0.1742 -0.2180 -0.5202
36283SOL    HW110856   4.671   8.799   5.079  0.4592  1.6818 -0.9887
36283SOL    HW210857   4.683   8.703   4.962  0.2381 -0.7494  0.9130
36284SOL     OW10858   2.612   1.901   2.208 -0.2182 -0.2040  0.4487
36284SOL    HW110859   2.698   1.861   2.197 -0.7156 -0.9611 -0.9479
36284SOL    HW210860   2.567   1.883   2.126 -1.0995  1.7238  0.4505
36285SOL     OW10861  11.065   4.297  10.851  0.0091 -0.3129 -0.0770
36285SOL    HW110862  11.039   4.279  10.941  0.8133 -0.3495  0.1548
36285SOL    HW210863  11.004   4.365  10.821  0.2480  0.2782  0.7556
36286SOL     OW10864   6.446   2.811   5.343 -0.0016  0.1962 -0.5620
36286SOL    HW110865   6.378   2.829   5.278  0.0508  1.8319 -0.2047
36286SOL    HW210866   6.399   2.766   5.414 -0.4265  0.0963 -0.8964
36287SOL     OW10867   0.357   4.285   9.504  0.5770 -0.5110  0.3384
36287SOL    HW110868   0.450   4.288   9.526  0.2642 -0.8024  1.7830
36287SOL    HW210869   0.315   4.251   9.583 -1.1893  3.1018  1.1791
36288SOL     OW10870   2.741   2.707   9.642  0.7123  0.0832 -0.5887
36288SOL    HW110871   2.729   2.753   9.559  0.1216 -0.1088 -0.6152
36288SOL    HW210872   2.750   2.776   9.707  1.3243  0.2350 -0.8313
36289SOL     OW10873   8.125   3.565   7.375  0.2257 -0.9748  0.1637
36289SOL    HW110874   8.205   3.617   7.389 -0.6625 -0.0590  2.1820
36289SOL    HW210875   8.114   3.516   7.456 -4.4400  3.4734  2.7817
36290SOL     OW10876   1.076   3.691  10.878 -0.0371  0.1064 -0.2681
36290SOL    HW110877   1.059   3.784  10.864  3.2998  0.7345 -0.9082
36290SOL    HW210878   1.103   3.658  10.793 -0.6711 -1.3551  0.0620
36291SOL     OW10879   5.811   8.378   4.009  0.2789 -0.5126  0.6913
36291SOL    HW110880   5.846   8.381   4.098 -2.2917  1.3653  1.7828
36291SOL    HW210881   5.730   8.328   4.016 -0.0044 -0.2842 -0.5760
36292SOL     OW10882   6.332   0.754   2.627  0.2396 -0.4014  0.0269
36292SOL    HW110883   6.340   0.659   2.637  2.2783 -0.2777  0.1446
36292SOL    HW210884   6.334   0.787   2.717 -3.3074 -0.3237  0.1860
36293SOL     OW10885   2.207   9.505   7.979  0.2803  0.2653  0.1776
36293SOL    HW110886   2.160   9.457   7.911 -0.1386 -2.3526  2.1587
36293SOL    HW210887   2.299   9.501   7.952  0.0936 -0.4406 -0.3949
36294SOL     OW10888   4.053  10.695   6.496  0.2330  0.9311  0.0688
36294SOL    HW110889   4.122  10.735   6.444  0.4339  1.1360  0.4849
36294SOL    HW210890   4.060  10.601   6.478  0.3923  0.9852 -0.1558
36295SOL     OW10891   9.787   8.760   4.226 -0.1603 -0.1188  0.3368
36295SOL    HW110892   9.756   8.670   4.224 -1.6552  0.2535  2.8583
36295SOL    HW210893   9.784   8.789   4.134 -1.0277 -2.1594 -0.3202
36296SOL     OW10894   5.550   3.582   9.167  0.0228 -0.0517 -0.6490
36296SOL    HW110895   5.605   3.515   9.127 -1.1810 -0.5651 -1.5108
36296SOL    HW210896   5.531   3.643   9.095 -0.3960  0.1969 -0.3301
36297SOL     OW10897   2.724   3.964  10.007  0.2934  0.6454 -0.1667
36297SOL    HW110898   2.800   4.011  10.042 -0.6028  1.0455  1.3138
36297SOL    HW210899   2.650   4.022  10.024 -1.0864 -1.7768  3.0024
36298SOL     OW10900   9.152   1.149  11.107 -0.6049  0.6151  0.2864
36298SOL    HW110901   9.167   1.179  11.018  0.4650  0.3295  0.3573
36298SOL    HW210902   9.235   1.109  11.133 -2.0721 -3.0067 -0.0197
36299SOL     OW10903   9.995  10.608   4.264 -0.2623 -0.1946  0.3908
36299SOL    HW110904   9.971  10.701   4.260 -0.2496 -0.2300 -0.9901
36299SOL    HW210905  10.068  10.600   4.202  0.2363 -0.9898  1.0677
36300SOL     OW10906   5.515   0.877   2.706  0.2194  0.0773 -0.1117
36300SOL    HW110907   5.440   0.913   2.658 -1.9715 -2.9264  0.7526
36300SOL    HW210908   5.517   0.927   2.788 -0.9459  0.1270 -0.0973
36301SOL     OW10909   1.567   0.898   0.588  0.3183  0.0487 -0.2035
36301SOL    HW110910   1.484   0.868   0.552  0.4284  1.4665 -1.7560
36301SOL    HW210911   1.547   0.926   0.677 -0.8786  0.4549 -0.5961
36302SOL     OW10912  11.271   3.184   8.864  0.3040  0.7591 -0.4453
36302SOL    HW110913  11.325   3.245   8.914  0.9021  0.5292 -0.7846
36302SOL    HW210914  11.216   3.240   8.809  0.4733  1.0020 -0.3701
36303SOL     OW10915   2.062   0.023   0.649 -0.1267 -0.1039 -0.0775
36303SOL    HW110916   2.070   0.117   0.663 -2.1853  0.2240 -0.8094
36303SOL    HW210917   2.015   0.015   0.566 -0.8483 -1.7625  0.4465
36304SOL     OW10918   8.176   1.609  10.240 -0.4549 -0.5921  0.7377
36304SOL    HW110919   8.086   1.593  10.213 -0.4501  0.4691  0.0337
36304SOL    HW210920   8.169   1.669  10.314 -0.3036  1.5932 -0.9044
36305SOL     OW10921   0.764   8.231   9.405 -0.7517  0.3922 -0.1189
36305SOL    HW110922   0.681   8.204   9.366 -1.0292  0.5709  0.3391
36305SOL    HW210923   0.812   8.149   9.418 -1.9627 -0.0404  2.1258
36306SOL     OW10924   4.752  10.631   1.249  0.0306  0.3902 -0.0052
36306SOL    HW110925   4.748  10.710   1.195 -0.3697  0.9574  0.8336
36306SOL    HW210926   4.662  10.599   1.251  0.0732  0.2811  0.1920
36307SOL     OW10927   7.790  10.721  10.349 -0.2993 -0.0244 -0.4188
36307SOL    HW110928   7.736  10.800  10.343  0.2445  0.3928  0.0990
36307SOL    HW210929   7.872  10.745  10.306 -0.8730 -0.9965 -2.1631
36308SOL     OW10930   9.772  10.924  11.272  0.6055 -0.3200  0.0658
36308SOL    HW110931   9.775  11.019  11.261 -1.8326 -0.3589 -1.7300
36308SOL    HW210932   9.715  10.893  11.202  0.2438 -2.9739  1.3938
36309SOL     OW10933   6.267   4.754   6.083 -0.5506  0.8496 -0.5533
36309SOL    HW110934   6.346   4.763   6.137 -0.4935 -0.6271 -0.3572
36309SOL    HW210935   6.267   4.833   6.029  0.6299  1.2633  0.0014
36310SOL     OW10936   5.833   9.902   2.184 -0.2821  0.4091  0.1930
36310SOL    HW110937   5.782   9.970   2.139  0.2306  0.7965  0.1827
36310SOL    HW210938   5.923   9.934   2.180  0.1568 -0.8835 -0.9342
36311SOL     OW10939   0.544   7.349   1.556 -0.2008 -0.4949  0.0467
36311SOL    HW110940   0.465   7.392   1.524 -0.0851 -1.5273 -1.7947
36311SOL    HW210941   0.539   7.261   1.520  1.2916 -0.9022  0.7631
36312SOL     OW10942   5.256   3.210   3.365  0.0358  0.6772 -0.0363
36312SOL    HW110943   5.245   3.121   3.332  0.2439  0.4891  0.3985
36312SOL    HW210944   5.184   3.222   3.427  2.3891 -0.7700  3.2910
36313SOL     OW10945   0.808  11.191  11.285 -0.4130 -0.0242  0.0736
36313SOL    HW110946   0.865  11.181  11.362  0.3499  0.5580 -0.4039
36313SOL    HW210947   0.748  11.262  11.309 -1.9326 -1.5822  1.1402
36314SOL     OW10948   4.393   3.208  11.097  0.0533 -0.2181 -0.2978
36314SOL    HW110949   4.397   3.198  11.002  5.0723 -2.5209 -0.1692
36314SOL    HW210950   4.416   3.121  11.131  0.2815  0.9865  2.9699
36315SOL     OW10951   6.938   0.398   9.647  0.4416  0.7795 -0.3764
36315SOL    HW110952   6.861   0.455   9.647  1.1806  1.8118 -0.2926
36315SOL    HW210953   6.954   0.381   9.554  1.5183  2.5702 -0.5638
36316SOL     OW10954   1.272   6.584   9.375 -0.0825  0.3954  0.2345
36316SOL    HW110955   1.310   6.621   9.295 -0.8458 -1.1738 -0.9108
36316SOL    HW210956   1.341   6.529   9.411 -0.3107 -0.2924 -0.3456
36317SOL     OW10957   8.678  10.612   9.280  0.1958  1.0242  0.0029
36317SOL    HW110958   8.608  10.655   9.330  2.3912  2.2846  2.2301
36317SOL    HW210959   8.709  10.542   9.338  0.4030  0.0990 -1.2066
36318SOL     OW10960   2.745   9.337   9.017  0.1473  0.2965  0.1573
36318SOL    HW110961   2.761   9.422   8.975  0.4713  0.4286  0.5457
36318SOL    HW210962   2.728   9.358   9.109  0.8802 -0.1137  0.3949
36319SOL     OW10963   0.471   0.989   0.538  0.3490  0.2846 -0.6177
36319SOL    HW110964   0.431   0.980   0.625 -0.0737 -1.7773 -0.9565
36319SOL    HW210965   0.476   0.899   0.506 -0.0987  1.0524 -3.0091
36320SOL     OW10966   0.502   7.908   9.249  0.0791  0.4307 -0.2526
36320SOL    HW110967   0.575   7.867   9.203 -0.1361 -0.5582  0.2786
36320SOL    HW210968   0.425   7.859   9.220 -0.2151  0.6368  0.1779
36321SOL     OW10969   2.444   9.286  10.649  0.5248  0.2707  0.1491
36321SOL    HW110970   2.486   9.277  10.735  1.1965  1.0747 -0.0839
36321SOL    HW210971   2.392   9.206  10.639  0.6707  0.0362  1.1759
36322SOL     OW10972  11.186   0.732   2.756  0.3601  0.0981  0.5676
36322SOL    HW110973  11.169   0.742   2.849 -1.0550  0.6993  0.2610
36322SOL    HW210974  11.256   0.796   2.737 -0.8839  1.5807  0.8052
36323SOL     OW10975   1.696  10.607   1.952 -0.5584 -0.4298  1.5661
36323SOL    HW110976   1.685  10.535   2.015 -1.0728 -0.5740  1.3146
36323SOL    HW210977   1.665  10.685   1.999 -3.1619 -0.8817  0.7471
36324SOL     OW10978   4.062   2.872   9.629 -0.1002 -0.1593  0.0022
36324SOL    HW110979   4.062   2.782   9.662  0.7189 -1.2907 -2.7808
36324SOL    HW210980   3.978   2.882   9.586  0.4501 -0.1990 -1.1127
36325SOL     OW10981   6.362   0.559   7.260  0.3993  0.0071 -0.0359
36325SOL    HW110982   6.382   0.469   7.231 -0.4529 -0.1062 -0.3067
36325SOL    HW210983   6.269   0.569   7.241 -0.4779 -0.3587  3.4854
36326SOL     OW10984   4.706   0.733   6.100  0.3883  0.1330  0.3994
36326SOL    HW110985   4.786   0.684   6.078  0.1069  0.1597 -0.7836
36326SOL    HW210986   4.638   0.666   6.106 -0.1417  0.3779 -1.9310
36327SOL     OW10987   0.188   0.858  11.203  0.2392 -0.4050 -0.3151
36327SOL    HW110988   0.165   0.766  11.218 -2.0005  0.3780  1.5077
36327SOL    HW210989   0.254   0.877  11.270 -2.7273  0.4597  2.6231
36328SOL     OW10990  10.026   2.959   2.928 -0.0300  0.4589 -0.2759
36328SOL    HW110991   9.995   2.957   3.018  0.3235 -1.6058 -0.1595
36328SOL    HW210992  10.109   2.911   2.930  0.8431  1.8401 -1.4085
36329SOL     OW10993  10.527   8.414   8.573  0.5562  0.2784  0.2441
36329SOL    HW110994  10.584   8.433   8.499 -0.3128 -1.5038 -0.9591
36329SOL    HW210995  10.585   8.374   8.638  0.8887 -0.5574 -0.5452
36330SOL     OW10996   4.755   1.755   8.099 -0.3063 -0.8184 -0.0723
36330SOL    HW110997   4.685   1.759   8.164  0.9882 -2.4885  1.5517
36330SOL    HW210998   4.710   1.753   8.015 -2.0519  1.2460  0.7169
36331SOL     OW10999  10.938   5.763   2.800 -0.3362 -0.0924  0.1674
36331SOL    HW111000  10.858   5.809   2.823 -0.9174 -0.4278 -1.1080
36331SOL    HW211001  10.940   5.687   2.858  1.0079  1.7867  2.8224
36332SOL     OW11002   4.558   3.793   5.811  0.0097 -0.4581 -0.1047
36332SOL    HW111003   4.650   3.769   5.825 -0.2813 -0.8172  1.3480
36332SOL    HW211004   4.550   3.801   5.716  1.3328 -1.2723 -0.3165
36333SOL     OW11005   5.697   9.426   3.960  0.1696 -0.1552 -0.2888
36333SOL    HW111006   5.666   9.462   4.043 -1.1841 -0.3300 -0.6940
36333SOL    HW211007   5.737   9.342   3.983  2.3297  1.0184  0.5179
36334SOL     OW11008   0.144   4.108   4.580 -0.1387 -0.2966  0.8195
36334SOL    HW111009   0.159   4.068   4.665 -1.0588 -1.1986  0.5840
36334SOL    HW211010   0.051   4.133   4.581  0.4523  2.1496  1.0619
36335SOL     OW11011   2.868   8.137   7.549  0.4717 -0.8375  1.0194
36335SOL    HW111012   2.936   8.131   7.482 -0.5135  1.9396 -0.4143
36335SOL    HW211013   2.820   8.055   7.542 -0.1170 -0.3552 -2.3921
36336SOL     OW11014   2.617   2.249   1.738 -0.4776  0.2154  0.0260
36336SOL    HW111015   2.650   2.162   1.760  2.1393  1.4944  1.7529
36336SOL    HW211016   2.665   2.308   1.797 -0.6681  3.0381 -2.4250
36337SOL     OW11017   3.439   1.826   5.244 -0.2109 -0.2016  0.2205
36337SOL    HW111018   3.414   1.746   5.291  1.1702  0.5414  2.3556
36337SOL    HW211019   3.382   1.894   5.281 -0.3054  0.0972 -0.4646
36338SOL     OW11020   8.342   5.599   9.606 -0.2266  0.2207  0.3056
36338SOL    HW111021   8.339   5.675   9.664 -2.8204 -1.2491  2.3339
36338SOL    HW211022   8.428   5.560   9.623  1.1112  2.5058 -0.7002
36339SOL     OW11023  11.198   2.405   5.457 -0.1991 -0.1059  0.1513
36339SOL    HW111024  11.275   2.391   5.511 -0.3201 -1.6986 -0.0391
36339SOL    HW211025  11.176   2.318   5.423  0.4580  0.9088 -3.2339
36340SOL     OW11026   0.858  11.183   0.837 -0.7587  0.6442  0.0434
36340SOL    HW111027   0.949  11.154   0.821 -1.0908 -0.6844  0.4332
36340SOL    HW211028   0.805  11.110   0.806 -1.5759 -0.4117  3.5077
36341SOL     OW11029   4.230   9.506   5.608 -0.0492  0.3216 -0.5526
36341SOL    HW111030   4.296   9.565   5.571  0.2279  0.2621 -0.1617
36341SOL    HW211031   4.211   9.543   5.694 -2.1223  1.5796 -1.4890
36342SOL     OW11032  10.246  11.271  10.417 -0.4165 -0.3131 -0.0282
36342SOL    HW111033  10.213  11.206  10.480  0.2646 -0.6283  0.0143
36342SOL    HW211034  10.296  11.220  10.354  1.3164  0.2945  0.7923
36343SOL     OW11035   3.620   1.347   1.869 -0.0806 -0.4316  0.2533
36343SOL    HW111036   3.705   1.360   1.912 -0.9713  0.9235  1.7552
36343SOL    HW211037   3.638   1.356   1.776  1.2385  1.1591  0.6215
36344SOL     OW11038   0.615   5.703   8.261 -0.3431  0.4752 -0.2976
36344SOL    HW111039   0.551   5.732   8.196 -1.4613  0.9717  0.9905
36344SOL    HW211040   0.614   5.770   8.328  1.3886  0.3686 -0.1309
36345SOL     OW11041   2.323   3.725   3.891 -0.2051 -0.0050 -0.3220
36345SOL    HW111042   2.264   3.649   3.886 -0.5863  0.2826 -0.2205
36345SOL    HW211043   2.410   3.688   3.875 -0.1280 -0.7734  1.6475
36346SOL     OW11044   2.728  10.973   8.938  0.3600 -0.2140  0.3334
36346SOL    HW111045   2.720  11.017   8.853 -0.8215 -0.2785  0.3878
36346SOL    HW211046   2.699  11.038   9.002  2.6230  0.3471  0.8877
36347SOL     OW11047  11.229  10.323   9.524 -0.6935 -0.3892  0.0195
36347SOL    HW111048  11.284  10.246   9.534 -0.0977 -0.0161 -0.2919
36347SOL    HW211049  11.246  10.353   9.435 -1.1925 -0.1076  0.0158
36348SOL     OW11050   6.348   0.460   6.310 -0.4863 -0.2207 -0.3317
36348SOL    HW111051   6.312   0.512   6.381  0.1689 -3.0777  2.3314
36348SOL    HW211052   6.290   0.477   6.236 -1.0477  3.1164  0.7028
36349SOL     OW11053   7.383   4.832   5.318  0.0112  0.5043  0.3809
36349SOL    HW111054   7.410   4.784   5.397 -0.1777  1.4490  1.0407
36349SOL    HW211055   7.373   4.764   5.251 -1.1590 -0.5177  1.5142
36350SOL     OW11056   9.065   0.559   3.164  0.1308 -0.3375 -0.2300
36350SOL    HW111057   9.116   0.485   3.131  0.9435  0.2286 -0.2899
36350SOL    HW211058   9.103   0.576   3.251 -1.2849 -1.1491  0.5911
36351SOL     OW11059   1.407   7.195   3.795  0.1335 -0.0344 -0.2493
36351SOL    HW111060   1.370   7.143   3.724  1.7574 -0.9229 -0.4950
36351SOL    HW211061   1.433   7.131   3.862  0.8649  0.5645  0.0613
36352SOL     OW11062   7.609   7.890   8.380 -0.4245 -0.2705  0.1688
36352SOL    HW111063   7.650   7.965   8.337  2.1608 -1.6751  0.0310
36352SOL    HW211064   7.575   7.837   8.308  2.5606 -1.8540 -0.2321
36353SOL     OW11065   4.266   3.894   7.331  0.0557  0.7651  0.0578
36353SOL    HW111066   4.310   3.888   7.416  0.4064 -0.4891 -0.1855
36353SOL    HW211067   4.234   3.984   7.326  0.0428  0.8551  1.5090
36354SOL     OW11068   6.183   4.521   6.533 -0.0674 -0.4547 -0.1102
36354SOL    HW111069   6.107   4.547   6.584  0.1035 -0.4448  0.1429
36354SOL    HW211070   6.160   4.541   6.442 -0.4471 -0.6544 -0.0569
36355SOL     OW11071   6.473   7.825   1.383  0.0400 -0.4199 -0.0290
36355SOL    HW111072   6.380   7.846   1.385  0.1192  0.0986 -1.4127
36355SOL    HW211073   6.496   7.815   1.476 -1.2149  0.1782  0.3781
36356SOL     OW11074  11.141   5.073   9.180  0.3319  0.4773 -0.7584
36356SOL    HW111075  11.050   5.049   9.164  0.8462 -1.1132 -1.4782
36356SOL    HW211076  11.155   5.151   9.126 -0.6530  0.8745 -0.4642
36357SOL     OW11077   1.017   7.957   9.028 -1.0220 -0.3655 -0.5492
36357SOL    HW111078   1.059   7.914   9.102 -1.0582 -0.6288 -0.6813
36357SOL    HW211079   1.088   8.004   8.984 -1.5109  2.8096  1.6722
36358SOL     OW11080   6.994   5.667   9.152 -1.2552 -0.0157  0.4652
36358SOL    HW111081   7.069   5.711   9.112 -0.7995 -0.8960  0.3331
36358SOL    HW211082   6.934   5.651   9.079 -0.4186 -1.6310  0.0834
36359SOL     OW11083   2.848   3.482   1.915 -0.1491 -0.6806  0.5777
36359SOL    HW111084   2.917   3.460   1.978  0.9302  0.0583 -0.3038
36359SOL    HW211085   2.832   3.400   1.869  1.1322 -0.5636 -0.1235
36360SOL     OW11086   2.869   0.313   3.194  0.3199 -0.7490 -0.5805
36360SOL    HW111087   2.833   0.225   3.182 -2.1171  0.1028 -0.1494
36360SOL    HW211088   2.893   0.342   3.106  0.3567 -1.5142 -0.8310
36361SOL     OW11089   6.408   5.158   9.144 -0.1100 -0.0986  0.3834
36361SOL    HW111090   6.402   5.188   9.054  2.3463 -1.6240 -0.3883
36361SOL    HW211091   6.436   5.235   9.194 -2.5601  1.0432  0.1346
36362SOL     OW11092  10.739   2.816   5.243 -0.2753  0.4439  0.0447
36362SOL    HW111093  10.681   2.778   5.308  0.3411 -0.2328  0.2220
36362SOL    HW211094  10.762   2.902   5.278 -0.1345  0.1809  0.6163
36363SOL     OW11095   3.624   2.549   9.684 -0.7917  0.1251  0.1703
36363SOL    HW111096   3.537   2.577   9.656 -0.3385  2.4336  0.8221
36363SOL    HW211097   3.624   2.562   9.779  0.8856  2.3074 -0.0461
36364SOL     OW11098   9.837   6.213   3.059  0.1668  0.4801  0.6806
36364SOL    HW111099   9.805   6.202   3.149 -1.5868  2.6999  0.4176
36364SOL    HW211100   9.762   6.193   3.004 -0.2408  3.5137 -0.0586
36365SOL     OW11101   1.204   5.494   9.267 -0.0174 -0.0705 -0.3583
36365SOL    HW111102   1.162   5.416   9.302  0.4129 -0.3313 -0.4117
36365SOL    HW211103   1.138   5.562   9.274  1.5941  1.5384  6.4072
36366SOL     OW11104  10.800   2.679   2.219 -0.0911  0.0693 -0.6653
36366SOL    HW111105  10.828   2.648   2.305 -0.9800 -0.6807 -0.6368
36366SOL    HW211106  10.825   2.608   2.159 -0.6727  0.0039 -0.8318
36367SOL     OW11107  10.645   0.399  10.039  0.0099 -0.1606 -0.3907
36367SOL    HW111108  10.564   0.380  10.087  0.3256 -1.0307 -0.1791
36367SOL    HW211109  10.694   0.317  10.042  1.6092  0.7827  0.8844
36368SOL     OW11110   4.890   2.080   9.730  0.2197 -0.8224 -0.0197
36368SOL    HW111111   4.913   2.047   9.817 -2.2605 -0.8098  0.7287
36368SOL    HW211112   4.930   2.167   9.726 -0.4477 -0.3989  1.5673
36369SOL     OW11113   8.626   0.499  10.110 -0.2746 -0.7697  0.6096
36369SOL    HW111114   8.598   0.444  10.037 -2.1099 -0.2800  0.8967
36369SOL    HW211115   8.708   0.538  10.080 -0.5216 -1.2963 -0.8229
36370SOL     OW11116   2.486   9.432   3.581  0.7066  0.8000  0.0664
36370SOL    HW111117   2.397   9.459   3.558 -0.6444 -0.2616  3.4092
36370SOL    HW211118   2.526   9.409   3.498 -3.2366 -1.7118 -1.4172
36371SOL     OW11119   3.862   4.862   9.767  0.6571  0.4098  0.3093
36371SOL    HW111120   3.800   4.864   9.694  0.5394 -1.1909  0.3481
36371SOL    HW211121   3.901   4.950   9.766  0.5447  0.4830 -1.5670
36372SOL     OW11122   9.668   6.066  10.278  0.9001  0.4316 -0.5636
36372SOL    HW111123   9.603   6.003  10.247  1.3072  0.5549 -1.7130
36372SOL    HW211124   9.661   6.063  10.373  0.2952 -0.6977 -0.6307
36373SOL     OW11125   6.924   0.754   8.168  0.3205  0.0218 -0.1961
36373SOL    HW111126   6.845   0.771   8.117  1.4099 -2.2843 -2.8487
36373SOL    HW211127   6.891   0.724   8.253 -1.7062 -1.3204 -1.3760
36374SOL     OW11128   1.471   7.437   6.242 -0.2264  0.7344  0.1662
36374SOL    HW111129   1.549   7.491   6.249  1.0704 -1.1437  0.8786
36374SOL    HW211130   1.449   7.438   6.148  1.9272 -0.3866 -0.4022
36375SOL     OW11131   3.494   6.852   4.975 -0.5569  0.7338  0.5169
36375SOL    HW111132   3.497   6.763   5.011  1.5209  1.4040  2.2574
36375SOL    HW211133   3.553   6.902   5.032 -0.5095  2.8986 -1.3147
36376SOL     OW11134   2.281  10.582   9.007  0.2387  0.0896 -0.3008
36376SOL    HW111135   2.330  10.616   8.932  1.2570 -0.0699  0.2858
36376SOL    HW211136   2.257  10.493   8.982  0.9445 -0.1100 -0.2620
36377SOL     OW11137   5.052   8.749   9.965  0.5838 -0.1538 -0.4470
36377SOL    HW111138   4.994   8.704  10.028  1.1548 -0.0528  0.1644
36377SOL    HW211139   4.993   8.785   9.899 -0.2101  1.1081  0.8801
36378SOL     OW11140   2.492   4.415   6.806 -0.5405  0.1980 -0.0178
36378SOL    HW111141   2.539   4.386   6.728 -1.0820  0.5665 -0.4857
36378SOL    HW211142   2.557   4.465   6.856 -0.2038  0.0008 -0.2552
36379SOL     OW11143   4.968   8.718   9.293  0.0466  0.1107  0.1388
36379SOL    HW111144   4.959   8.662   9.369 -0.9391 -1.5661 -1.1557
36379SOL    HW211145   4.880   8.750   9.276 -0.0607 -0.8056 -1.1913
36380SOL     OW11146   3.023   0.237   8.660 -0.6350  0.5663 -0.0861
36380SOL    HW111147   3.018   0.161   8.717  0.3281  1.1846  0.8658
36380SOL    HW211148   2.976   0.211   8.581 -3.0915  0.1028  1.4200
36381SOL     OW11149   2.875   8.122   9.851 -0.3001  0.4747 -0.3821
36381SOL    HW111150   2.907   8.110   9.762 -0.8582  0.3049 -0.5685
36381SOL    HW211151   2.857   8.034   9.883 -0.7084  0.5698 -0.3371
36382SOL     OW11152  10.833  10.070   9.113 -0.3654 -0.1733 -0.2783
36382SOL    HW111153  10.817  10.153   9.158  1.2018  1.4103 -2.4743
36382SOL    HW211154  10.927  10.055   9.122 -0.2330 -0.4725 -1.8904
36383SOL     OW11155   4.921   2.763   6.819 -0.0114 -0.4420  0.0984
36383SOL    HW111156   4.922   2.703   6.893 -0.3884 -0.5057  0.0543
36383SOL    HW211157   4.834   2.752   6.780  0.3223 -0.6836 -0.5841
36384SOL     OW11158   6.031   3.418   5.613  0.0159  0.0372  0.0745
36384SOL    HW111159   5.969   3.350   5.641  1.1601 -0.8316  0.5861
36384SOL    HW211160   6.012   3.432   5.521  0.6927 -2.0471 -0.4348
36385SOL     OW11161  10.506  10.838   4.297  0.0394  0.0521  0.5643
36385SOL    HW111162  10.508  10.916   4.241  0.9007 -0.2988  0.0889
36385SOL    HW211163  10.585  10.790   4.274 -1.6491 -2.2205 -0.9362
36386SOL     OW11164   3.955   2.881   1.213 -0.0351 -0.4551  0.5059
36386SOL    HW111165   3.886   2.879   1.147  0.3536 -0.3402  0.0944
36386SOL    HW211166   4.010   2.805   1.194  0.1967 -0.3056  0.5680
36387SOL     OW11167   8.766   1.599   4.529  0.4939 -0.3243  0.9773
36387SOL    HW111168   8.843   1.641   4.489 -0.3912  2.7067  2.2167
36387SOL    HW211169   8.714   1.569   4.454  1.2657  0.6882 -0.0031
36388SOL     OW11170  10.221  10.076  11.166 -0.2989 -0.7715 -1.4840
36388SOL    HW111171  10.278  10.094  11.091  1.0574  4.7266  0.4010
36388SOL    HW211172  10.278  10.032  11.230 -0.2956 -1.6836 -2.0925
36389SOL     OW11173   0.852   3.889   4.281 -0.2157  0.3935  0.1230
36389SOL    HW111174   0.801   3.846   4.212 -0.9922 -0.0541  0.9609
36389SOL    HW211175   0.815   3.977   4.287 -0.5103  0.2553  0.3388
36390SOL     OW11176   7.635   7.200   7.129  0.2563  0.1655  0.5031
36390SOL    HW111177   7.579   7.135   7.087  1.3076 -1.6006  1.7011
36390SOL    HW211178   7.665   7.256   7.058  0.1042 -1.2955 -0.7576
36391SOL     OW11179   8.095  10.756   3.346 -0.1118  0.0272 -0.3755
36391SOL    HW111180   8.086  10.662   3.362 -0.9371 -0.1520 -1.7575
36391SOL    HW211181   8.166  10.783   3.404 -1.0524 -1.0904  1.4169
36392SOL     OW11182   1.656   2.448   9.846 -0.7881  0.0012 -0.3939
36392SOL    HW111183   1.598   2.456   9.922 -0.3218 -0.1980 -0.0132
36392SOL    HW211184   1.627   2.516   9.786 -1.1565  0.1642 -0.0309
36393SOL     OW11185   0.605   3.468   1.324  0.1028 -0.0452  0.0950
36393SOL    HW111186   0.688   3.421   1.314 -0.8063 -1.2725 -2.6769
36393SOL    HW211187   0.547   3.405   1.366 -0.5688 -0.8502 -1.8943
36394SOL     OW11188  10.073   9.290  11.225  0.1383  0.5022 -0.2853
36394SOL    HW111189  10.015   9.217  11.245  0.3068  0.3184 -0.4590
36394SOL    HW211190  10.161   9.257  11.243  0.0669  1.6845  2.7578
36395SOL     OW11191   2.036   2.851   1.736  0.1310 -0.3768  0.0572
36395SOL    HW111192   2.019   2.784   1.802  0.6613 -1.1097 -0.5257
36395SOL    HW211193   2.033   2.803   1.653  1.2292  0.1974 -0.3240
36396SOL     OW11194   9.361   6.661   7.761  0.1791 -0.3066 -0.0159
36396SOL    HW111195   9.289   6.705   7.806  0.0033 -1.5397  0.9706
36396SOL    HW211196   9.373   6.579   7.809  1.2383 -0.8206 -1.0955
36397SOL     OW11197   4.065   1.884   3.436  1.0843 -0.2764  0.0063
36397SOL    HW111198   4.157   1.898   3.416  2.0901 -1.6270  3.1702
36397SOL    HW211199   4.062   1.800   3.480 -1.5475  0.0894  0.7131
36398SOL     OW11200   4.134   1.357   1.577 -0.0977  0.3415 -0.0771
36398SOL    HW111201   4.138   1.450   1.556 -0.7824  1.1678  2.9549
36398SOL    HW211202   4.224   1.332   1.594  0.2168  0.1249 -1.8231
36399SOL     OW11203   4.582   5.890   4.855  0.3583  0.1177  0.2447
36399SOL    HW111204   4.652   5.952   4.878 -1.3753  2.0276  0.7303
36399SOL    HW211205   4.616   5.841   4.781  2.3329  0.7212  0.6914
36400SOL     OW11206   9.105   3.011   6.118 -0.1890  0.1894  0.3257
36400SOL    HW111207   9.076   2.921   6.128 -0.9738  0.3868 -0.0586
36400SOL    HW211208   9.064   3.058   6.191  1.4684 -0.0274  1.4474
36401SOL     OW11209   5.994   4.585   0.276 -0.6120 -0.1857 -0.6154
36401SOL    HW111210   6.034   4.628   0.352  1.9295  1.7647 -2.8692
36401SOL    HW211211   5.904   4.566   0.304  0.4484 -0.5166  3.1601
36402SOL     OW11212   9.098   3.845   9.417 -0.2936  0.5305 -0.0092
36402SOL    HW111213   9.110   3.763   9.465 -0.1021  0.0830 -0.7926
36402SOL    HW211214   9.006   3.867   9.429  0.0479  1.1689  1.6825
36403SOL     OW11215   3.292   9.142   3.893  0.0569  0.3697  0.7526
36403SOL    HW111216   3.280   9.217   3.951 -1.8775  1.1439 -0.5212
36403SOL    HW211217   3.216   9.086   3.910  1.4565 -1.3469  1.6591
36404SOL     OW11218   8.960   2.976   8.907  0.0627 -0.2343  0.0883
36404SOL    HW111219   8.977   2.973   9.001 -0.1327 -0.6400  0.1171
36404SOL    HW211220   8.872   2.938   8.898 -0.5188  1.0990 -0.1236
36405SOL     OW11221   6.842   5.884  10.839 -0.6562  0.2666  0.7457
36405SOL    HW111222   6.791   5.887  10.920 -0.7958  1.1761  0.6415
36405SOL    HW211223   6.933   5.888  10.868 -0.7273  2.1577  0.8364
36406SOL     OW11224   7.935   4.611   1.009 -0.3310  0.1223 -0.1195
36406SOL    HW111225   7.868   4.562   0.963 -0.2025 -0.2746  0.1103
36406SOL    HW211226   7.976   4.666   0.942 -1.5591  1.1460 -0.0741
36407SOL     OW11227   1.091   6.796  10.644 -0.4935  0.0453 -0.3076
36407SOL    HW111228   1.038   6.838  10.576 -0.0106  0.8136 -0.2215
36407SOL    HW211229   1.117   6.867  10.701  2.1463  0.0198 -1.3463
36408SOL     OW11230   2.036   9.991   5.037 -0.0854 -0.4925  0.2022
36408SOL    HW111231   2.095   9.953   5.102 -0.2310 -1.2419 -0.0919
36408SOL    HW211232   2.028  10.083   5.062  1.6077 -0.2515 -0.0568
36409SOL     OW11233   9.675   9.600   7.224  0.1435  0.5543  0.0129
36409SOL    HW111234   9.628   9.516   7.228 -0.3143  0.8249  0.3753
36409SOL    HW211235   9.614   9.663   7.262 -1.4981  1.9816 -4.4066
36410SOL     OW11236   8.762  10.231  10.166  0.0451 -0.0636  0.2484
36410SOL    HW111237   8.837  10.172  10.175 -0.9528 -1.3566  0.3052
36410SOL    HW211238   8.707  10.212  10.241 -2.9466 -3.0418 -2.3817
36411SOL     OW11239  10.255   6.261  11.174  0.5090 -0.6012  0.1066
36411SOL    HW111240  10.343   6.290  11.150  0.3210  0.0106  0.1291
36411SOL    HW211241  10.207   6.258  11.092 -0.0492  1.1993  0.3232
36412SOL     OW11242   0.713   1.398  10.210  0.5286 -0.0215 -0.3661
36412SOL    HW111243   0.698   1.359  10.123 -0.6255  1.3335 -0.8016
36412SOL    HW211244   0.659   1.346  10.269  2.4028 -1.8802 -0.1488
36413SOL     OW11245   0.867   5.291   1.361 -0.9280  0.7240 -0.1727
36413SOL    HW111246   0.783   5.328   1.388  0.2113  2.4475  1.2455
36413SOL    HW211247   0.909   5.362   1.312 -0.7302 -0.5258 -1.9246
36414SOL     OW11248   1.201   8.496   6.477 -1.1618  0.3912  0.1221
36414SOL    HW111249   1.293   8.519   6.471 -1.3037  0.9980  0.2265
36414SOL    HW211250   1.171   8.535   6.559 -1.6205  0.6196 -0.1442
36415SOL     OW11251   2.706   2.141   7.396 -0.2533  0.2979  0.7254
36415SOL    HW111252   2.635   2.168   7.337  0.9739 -0.3397 -1.1128
36415SOL    HW211253   2.687   2.049   7.415 -0.8796  0.6108  1.7461
36416SOL     OW11254   2.531   2.226   3.104 -0.2797 -0.0206  0.2696
36416SOL    HW111255   2.452   2.277   3.121 -0.4592 -0.0732 -0.3940
36416SOL    HW211256   2.505   2.135   3.121  0.0609  0.0989  1.5262
36417SOL     OW11257   5.402   8.001   7.501 -0.4177  0.4004  0.2520
36417SOL    HW111258   5.378   7.967   7.587 -0.4477  1.7546  0.8080
36417SOL    HW211259   5.347   8.078   7.489  0.1064  0.6545 -0.6533
36418SOL     OW11260   6.293   9.396   7.843 -0.9363 -0.0028  0.0330
36418SOL    HW111261   6.352   9.378   7.769 -0.7102 -0.3197  0.2836
36418SOL    HW211262   6.208   9.410   7.803 -0.6502  0.6770 -0.3550
36419SOL     OW11263   6.101   8.757   3.476  0.2270 -0.3139 -0.4742
36419SOL    HW111264   6.082   8.845   3.509  1.1332  0.7428 -2.6144
36419SOL    HW211265   6.102   8.702   3.555 -1.3014  1.3849  0.8173
36420SOL     OW11266   7.677  10.627   5.849  0.3912  0.1074  0.1090
36420SOL    HW111267   7.736  10.620   5.924  0.1344  0.2742  0.3309
36420SOL    HW211268   7.602  10.573   5.873  0.8557 -0.8792 -0.5762
36421SOL     OW11269   5.425   0.541   3.047  0.4534  0.2357 -0.2173
36421SOL    HW111270   5.496   0.604   3.059  0.9719 -0.2717 -0.5969
36421SOL    HW211271   5.377   0.544   3.130  1.8274 -0.5426  0.6527
36422SOL     OW11272   2.349   0.118   6.865 -0.0784 -0.6657 -0.1420
36422SOL    HW111273   2.320   0.156   6.781 -2.6654  0.1818  1.0253
36422SOL    HW211274   2.340   0.024   6.853 -1.2421 -0.5170 -0.5742
36423SOL     OW11275   0.936   6.848   8.130  0.4957 -0.9072 -0.1762
36423SOL    HW111276   0.967   6.918   8.188 -1.3752 -1.5931  1.7574
36423SOL    HW211277   0.860   6.885   8.087  2.0029 -0.3187 -2.5342
36424SOL     OW11278   6.679   7.148   0.262  0.3519  0.6000  0.5416
36424SOL    HW111279   6.682   7.054   0.278  1.3322  0.6462  0.6700
36424SOL    HW211280   6.637   7.184   0.340 -1.2254  0.1629 -0.0716
36425SOL     OW11281   8.872   0.163  10.155 -0.0860 -0.3404  0.5838
36425SOL    HW111282   8.866   0.229  10.087  0.8399 -0.9023 -0.0691
36425SOL    HW211283   8.962   0.132  10.151 -0.1371 -0.7020  1.7717
36426SOL     OW11284   5.534   7.599   8.837 -0.7281 -0.3230  0.3974
36426SOL    HW111285   5.540   7.544   8.915  0.2134 -2.0622 -0.8210
36426SOL    HW211286   5.623   7.631   8.824 -0.2123 -2.2454 -1.3853
36427SOL     OW11287   0.159   1.722   5.152  0.1335  0.9122  0.0854
36427SOL    HW111288   0.182   1.800   5.101 -0.8186  0.8170 -0.5089
36427SOL    HW211289   0.083   1.685   5.106  1.5901 -1.3516 -0.6955
36428SOL     OW11290   1.173   3.731   4.564  0.1161  0.5227 -0.0341
36428SOL    HW111291   1.207   3.655   4.610 -3.0947 -0.5369  0.8519
36428SOL    HW211292   1.094   3.699   4.520 -1.8492  3.4510  1.0812
36429SOL     OW11293   5.694  10.154   4.745  0.0793 -0.3240 -0.1055
36429SOL    HW111294   5.648  10.072   4.762 -2.0916  1.0085  0.9749
36429SOL    HW211295   5.780  10.143   4.786 -1.3100 -0.9843  2.9634
36430SOL     OW11296   7.611   4.741   1.914  0.0372  0.0338  0.5416
36430SOL    HW111297   7.573   4.666   1.960 -0.5479  0.7571  1.2958
36430SOL    HW211298   7.582   4.817   1.966  1.1695  0.7308  0.1858
36431SOL     OW11299   4.510   6.495   0.942  0.1260 -0.2830 -0.5105
36431SOL    HW111300   4.432   6.547   0.924  1.0495  2.7532  3.0046
36431SOL    HW211301   4.478   6.419   0.991 -0.7577  0.5706  0.2814
36432SOL     OW11302   0.173   3.466   5.015 -0.5310 -0.3603  0.6666
36432SOL    HW111303   0.092   3.443   5.059 -1.6173  0.4531 -0.8089
36432SOL    HW211304   0.236   3.481   5.086 -1.6799 -0.9049  1.8422
36433SOL     OW11305   1.053   0.046   5.598 -0.5729  0.5008 -0.6684
36433SOL    HW111306   1.053   0.050   5.694  0.3763  0.3157 -0.6553
36433SOL    HW211307   0.971   0.001   5.576 -0.4026 -0.2021  0.0906
36434SOL     OW11308   7.477   7.085   2.334  0.4915 -0.4383  0.0602
36434SOL    HW111309   7.480   6.991   2.350 -0.1715 -0.2498  1.5048
36434SOL    HW211310   7.482   7.124   2.421  1.0377  0.8796 -0.5331
36435SOL     OW11311   2.932   7.092   4.728  0.1957  0.0200  0.3108
36435SOL    HW111312   3.002   7.040   4.689 -0.2839 -0.4512  0.0474
36435SOL    HW211313   2.976   7.162   4.776  0.8991 -1.0501  1.2833
36436SOL     OW11314   6.275   8.691   2.464 -0.2759  0.5763 -0.3743
36436SOL    HW111315   6.309   8.611   2.504  0.3019  0.0782 -1.7723
36436SOL    HW211316   6.342   8.757   2.479  0.5998  0.0271 -1.6742
36437SOL     OW11317   8.099   8.889   3.280 -0.1096 -0.0685 -0.0699
36437SOL    HW111318   8.091   8.793   3.284  2.0855 -0.3203 -0.3869
36437SOL    HW211319   8.010   8.920   3.264 -0.6251 -2.1809 -1.7317
36438SOL     OW11320   6.701  10.662   2.436 -0.2951 -0.8912 -0.3921
36438SOL    HW111321   6.643  10.731   2.405 -0.6179 -1.6002 -1.3987
36438SOL    HW211322   6.767  10.709   2.487  0.5331  0.4295 -2.5107
36439SOL     OW11323   0.638   5.240   9.614 -0.4410 -0.8922  0.3837
36439SOL    HW111324   0.564   5.208   9.667 -0.8855 -0.8696 -0.2149
36439SOL    HW211325   0.649   5.331   9.639  0.0584 -1.1698  1.2263
36440SOL     OW11326   4.975   1.099   2.814  0.0756 -0.1250  0.5987
36440SOL    HW111327   5.007   1.010   2.830 -0.9463 -0.2849  1.8771
36440SOL    HW211328   4.937   1.095   2.726  2.1357 -0.3000 -0.3567
36441SOL     OW11329   5.130   9.896  10.254  0.2371 -0.5898  0.3040
36441SOL    HW111330   5.176   9.969  10.296  1.7859 -0.5514 -1.3253
36441SOL    HW211331   5.191   9.822  10.263 -0.3585 -1.1160  0.0463
36442SOL     OW11332   6.949   1.132   3.169 -0.3933  0.3440 -0.1443
36442SOL    HW111333   6.977   1.146   3.078  0.8511  1.4157  0.3759
36442SOL    HW211334   6.858   1.164   3.171  0.1250  1.9656 -0.6442
36443SOL     OW11335   5.045   7.035   1.445  0.2227  0.5339  0.2755
36443SOL    HW111336   5.129   6.993   1.427  0.2126  0.7696 -0.3574
36443SOL    HW211337   5.039   7.038   1.541 -0.1551 -1.6692  0.3692
36444SOL     OW11338   0.774   3.749   8.857 -0.1590  0.2580  0.5129
36444SOL    HW111339   0.738   3.728   8.771  1.3891 -1.8440  0.2973
36444SOL    HW211340   0.869   3.735   8.847 -0.1742 -4.3186  3.5206
36445SOL     OW11341   9.844   8.073  10.509  0.1211  0.7035  0.4700
36445SOL    HW111342   9.910   8.023  10.461  0.6311  1.5841  0.2412
36445SOL    HW211343   9.774   8.010  10.525 -0.5293  0.5704 -2.3325
36446SOL     OW11344   6.562   3.708   5.869 -0.9855  0.0105 -1.1106
36446SOL    HW111345   6.483   3.726   5.818 -1.0390  0.1751 -0.9701
36446SOL    HW211346   6.564   3.613   5.878 -1.9934  0.0711  0.1820
36447SOL     OW11347   6.894   3.779   8.621 -0.0075 -0.1999 -0.1134
36447SOL    HW111348   6.842   3.752   8.697 -0.8783  2.1555  0.1872
36447SOL    HW211349   6.835   3.767   8.547  0.3175 -1.0365 -0.2455
36448SOL     OW11350   5.946   0.680   9.171 -0.3031  0.8529  0.1105
36448SOL    HW111351   5.912   0.770   9.172 -0.0667  0.9379  1.2104
36448SOL    HW211352   6.040   0.691   9.160 -0.3356  0.7117 -0.3271
36449SOL     OW11353   2.912  10.340   9.708 -0.2862 -0.4295 -0.2225
36449SOL    HW111354   2.935  10.248   9.695  0.4087 -0.2788 -0.1086
36449SOL    HW211355   2.996  10.386   9.705 -0.8307  0.7121 -4.2370
36450SOL     OW11356   7.896  10.259   7.341 -0.0331 -0.3176  0.2272
36450SOL    HW111357   7.904  10.330   7.277 -2.2105 -0.5732 -0.4188
36450SOL    HW211358   7.925  10.181   7.293  0.3770 -0.1876  0.2594
36451SOL     OW11359  10.217   8.418  10.290  0.0945  0.0692 -0.3875
36451SOL    HW111360  10.172   8.387  10.212  0.2614 -0.5096 -0.2600
36451SOL    HW211361  10.168   8.380  10.363  1.0955 -1.0039 -0.2617
36452SOL     OW11362   5.741   4.246   9.562 -0.5202 -0.6341 -0.1967
36452SOL    HW111363   5.811   4.216   9.505 -0.6507 -0.2571 -0.5626
36452SOL    HW211364   5.720   4.171   9.617 -0.4651 -1.0288 -0.7160
36453SOL     OW11365   6.935   3.678   5.950  0.1425  0.0598  0.1562
36453SOL    HW111366   6.991   3.703   6.024 -1.0121  2.3333  0.3551
36453SOL    HW211367   6.860   3.634   5.991  0.5604 -0.7250  0.1033
36454SOL     OW11368   1.384   9.695   5.302 -0.1226  0.4931  0.4588
36454SOL    HW111369   1.404   9.612   5.345 -1.9943 -0.2528 -0.0186
36454SOL    HW211370   1.305   9.678   5.252 -0.0524  2.3423 -0.3688
36455SOL     OW11371   5.945   9.985   4.530  0.3617  0.4323  0.2291
36455SOL    HW111372   5.912  10.042   4.600  0.6715  1.2138 -0.2428
36455SOL    HW211373   5.875   9.921   4.515  0.0695  0.5990  0.8754
36456SOL     OW11374   9.659   9.354   3.435  0.8104 -0.2983  0.1675
36456SOL    HW111375   9.587   9.292   3.430  0.1741  0.4971 -1.5129
36456SOL    HW211376   9.617   9.439   3.450  1.3818  0.1567 -0.6997
36457SOL     OW11377   1.771   7.336   3.598 -0.2817  0.2245 -0.0986
36457SOL    HW111378   1.679   7.327   3.574 -0.2488 -0.0267 -0.1322
36457SOL    HW211379   1.771   7.342   3.694 -0.1059 -3.0663  0.2207
36458SOL     OW11380   6.393   0.695   7.007  1.0863 -0.1840 -0.3499
36458SOL    HW111381   6.392   0.653   7.093 -2.2276  1.3675  0.5338
36458SOL    HW211382   6.481   0.679   6.974  2.5210 -0.8614  3.3119
36459SOL     OW11383  10.753   5.939   9.910 -0.0166 -0.5164 -0.2792
36459SOL    HW111384  10.793   5.912   9.992 -0.5575  0.1281  0.2059
36459SOL    HW211385  10.794   5.883   9.844  0.9966 -0.4909  0.3172
36460SOL     OW11386   3.656   9.182   8.045  0.5918  0.2245  0.2407
36460SOL    HW111387   3.710   9.208   7.969  0.5785  0.1508  0.2063
36460SOL    HW211388   3.612   9.102   8.016 -0.4668  0.9368 -0.1652
36461SOL     OW11389   8.772   2.748   7.271  0.1988 -0.4260 -0.0547
36461SOL    HW111390   8.686   2.786   7.255  0.0631  0.3689  2.1936
36461SOL    HW211391   8.827   2.783   7.200 -1.1908 -0.5636 -1.2405
36462SOL     OW11392   7.503   2.481   7.769  0.0141 -0.2182 -0.2749
36462SOL    HW111393   7.528   2.531   7.691 -0.0762 -2.0514 -1.5418
36462SOL    HW211394   7.564   2.511   7.837 -0.0628  1.5966 -0.9345
36463SOL     OW11395   9.468   1.117   5.538 -0.2556  0.1464  0.0960
36463SOL    HW111396   9.456   1.103   5.444  1.8573 -0.0241 -0.2108
36463SOL    HW211397   9.561   1.097   5.553 -0.8306 -1.0649  2.4678
36464SOL     OW11398   5.124  11.075  10.836  0.1272  0.0056 -0.1889
36464SOL    HW111399   5.158  11.156  10.799 -0.3806  0.4206  0.2468
36464SOL    HW211400   5.052  11.102  10.893 -0.5187 -0.8079 -0.5949
36465SOL     OW11401   4.628   4.468   2.094  0.2214  0.3762  0.6087
36465SOL    HW111402   4.671   4.524   2.159  1.2438 -1.2620  1.4042
36465SOL    HW211403   4.651   4.379   2.120 -0.2014 -0.3807 -1.4162
36466SOL     OW11404  10.541   7.671   0.496 -0.0926  0.3750  0.4484
36466SOL    HW111405  10.589   7.743   0.536  0.6707  0.1600 -0.0444
36466SOL    HW211406  10.580   7.662   0.408 -0.7465 -0.0834  0.1934
36467SOL     OW11407   1.547   7.025   7.511 -0.1181 -0.7108 -0.2071
36467SOL    HW111408   1.572   7.104   7.560  0.0411 -0.3729 -0.8247
36467SOL    HW211409   1.518   6.964   7.578 -0.1486 -0.1620  0.2909
36468SOL     OW11410  10.418   8.282  11.180  0.2088  0.2809  0.0025
36468SOL    HW111411  10.369   8.293  11.099  1.8609  0.6611 -0.9771
36468SOL    HW211412  10.472   8.361  11.187  0.6237 -0.0791  1.0938
36469SOL     OW11413   5.367   3.237   3.915  0.0039  0.2848  0.5598
36469SOL    HW111414   5.383   3.184   3.993 -0.2289 -0.1428  0.3232
36469SOL    HW211415   5.282   3.205   3.882  0.3247  0.1264 -0.1344
36470SOL     OW11416   4.034   6.009   9.042  0.1600 -0.0945  0.2466
36470SOL    HW111417   4.013   6.089   8.993  2.5137  2.2937  2.7813
36470SOL    HW211418   3.975   6.012   9.117 -0.2006 -1.1773  0.0245
36471SOL     OW11419   5.947  10.382  10.327 -0.2178  0.2719  0.4854
36471SOL    HW111420   5.986  10.367  10.414  0.4384  3.6608  0.9185
36471SOL    HW211421   6.015  10.357  10.265  0.4497  0.6399  1.0611
36472SOL     OW11422   5.011   3.152   1.040 -0.7257 -0.4287 -0.1978
36472SOL    HW111423   4.970   3.072   1.076 -0.2397  0.2175  1.9389
36472SOL    HW211424   4.964   3.168   0.958 -2.1723 -1.8210  0.3048
36473SOL     OW11425   0.868   9.356   0.942  0.0933  0.5025  0.9873
36473SOL    HW111426   0.791   9.301   0.928  1.3307 -1.3754  1.0834
36473SOL    HW211427   0.873   9.411   0.864 -1.0496  0.2924  0.7463
36474SOL     OW11428   2.481   6.029   3.530 -0.3106 -0.5771  0.4648
36474SOL    HW111429   2.390   6.025   3.557 -0.6352 -1.4706 -0.6780
36474SOL    HW211430   2.526   6.075   3.601 -1.9889  1.7993  0.0966
36475SOL     OW11431   9.760  10.247   6.939 -0.1574 -0.1303  0.2587
36475SOL    HW111432   9.676  10.206   6.917  0.1102 -0.1358 -0.7683
36475SOL    HW211433   9.817  10.228   6.865  1.0158 -0.7999  1.2972
36476SOL     OW11434   7.388   2.601   3.946 -0.1498 -0.0924 -0.2051
36476SOL    HW111435   7.412   2.590   3.853 -3.0020  0.8473 -1.1583
36476SOL    HW211436   7.465   2.642   3.985  0.9797 -0.0758 -2.2544
36477SOL     OW11437   1.415   1.607   5.475 -0.0606  0.3532 -0.8474
36477SOL    HW111438   1.489   1.667   5.473  0.6033 -0.4437 -0.4953
36477SOL    HW211439   1.428   1.554   5.554 -3.5240  3.3191  2.1513
36478SOL     OW11440   2.020   0.734  10.694  0.4080  0.2496 -0.0315
36478SOL    HW111441   1.969   0.705  10.618  2.4298 -0.4964 -1.1793
36478SOL    HW211442   2.067   0.657  10.723  1.3688  1.0366  0.5761
36479SOL     OW11443   1.912   4.506   7.021 -0.0015 -0.3093  0.2480
36479SOL    HW111444   1.844   4.446   6.990 -0.4448  0.5117 -0.4397
36479SOL    HW211445   1.981   4.449   7.055 -1.5826 -1.1608  2.2631
36480SOL     OW11446   8.463   2.892   5.123 -0.5716  0.4260 -0.7735
36480SOL    HW111447   8.517   2.813   5.127  2.2452  2.2387 -0.3523
36480SOL    HW211448   8.462   2.916   5.031 -2.0295 -0.4110 -1.0095
36481SOL     OW11449   4.493   6.473  11.171  0.8372  0.3944 -0.6580
36481SOL    HW111450   4.413   6.517  11.200  0.6393 -0.2380 -0.2378
36481SOL    HW211451   4.488   6.475  11.076  0.4759  0.6383 -0.6357
36482SOL     OW11452   6.187   3.035   4.781 -0.2358  0.4755 -0.6844
36482SOL    HW111453   6.230   2.958   4.818  1.3367  1.8871  0.5548
36482SOL    HW211454   6.110   3.048   4.835  1.5468  1.9715  1.6521
36483SOL     OW11455   9.089   1.573   0.174 -0.0759  0.0178  0.2296
36483SOL    HW111456   8.997   1.554   0.156  0.2065 -0.6685 -0.5539
36483SOL    HW211457   9.133   1.488   0.165  0.9791  0.7146 -1.6476
36484SOL     OW11458  10.423   6.813   7.800  0.3618  0.2299  0.0858
36484SOL    HW111459  10.487   6.884   7.808  0.9747  0.0471 -2.2481
36484SOL    HW211460  10.474   6.733   7.809  0.4660  0.0889 -1.3966
36485SOL     OW11461   6.405   2.200   7.458 -0.3212  0.3555 -0.2543
36485SOL    HW111462   6.342   2.182   7.389 -0.5702  1.7731 -0.4287
36485SOL    HW211463   6.382   2.288   7.489  0.0109 -0.1010  1.3818
36486SOL     OW11464   5.439   0.530   5.816  0.0726  0.5537 -0.1455
36486SOL    HW111465   5.445   0.591   5.743 -0.8502 -0.2632 -0.9345
36486SOL    HW211466   5.348   0.535   5.845 -0.2089 -0.9263 -0.6800
36487SOL     OW11467   4.965   3.129  10.113  0.5087 -0.4173  0.3428
36487SOL    HW111468   4.881   3.084  10.104 -0.3123  1.0127  0.5084
36487SOL    HW211469   5.002   3.128  10.025  0.4639 -1.3281  0.3309
36488SOL     OW11470  10.358   4.867   4.255 -0.4516  0.9395 -0.0426
36488SOL    HW111471  10.382   4.787   4.208  1.2056  1.4877 -0.2074
36488SOL    HW211472  10.285   4.903   4.204 -1.4787 -0.6158  0.2500
36489SOL     OW11473   0.064   5.009   5.013  0.3004 -0.1117 -0.4475
36489SOL    HW111474   0.005   4.939   4.983 -0.4390  0.4507 -0.3132
36489SOL    HW211475   0.151   4.976   4.992 -0.0235 -1.1779 -0.1802
36490SOL     OW11476   9.174   6.060   9.794 -0.1791  0.0150  0.2710
36490SOL    HW111477   9.237   6.131   9.809  0.2934 -0.5619  1.0955
36490SOL    HW211478   9.177   6.008   9.875 -0.7437 -0.7732 -0.2020
36491SOL     OW11479   9.842   4.667   1.720 -0.2300  0.3337  0.6968
36491SOL    HW111480   9.871   4.641   1.807 -0.9837  0.3356  0.9598
36491SOL    HW211481   9.844   4.762   1.722 -1.0958  0.3533  1.0210
36492SOL     OW11482   7.678   7.646  11.015  0.1739  0.1801  0.1084
36492SOL    HW111483   7.678   7.557  10.982  1.4712  0.2639 -0.1566
36492SOL    HW211484   7.768   7.676  11.006 -0.4166  1.8764 -0.7591
36493SOL     OW11485   7.106   9.638   8.557  0.2470  0.8161 -0.2360
36493SOL    HW111486   7.169   9.572   8.586 -1.5807 -0.0641  1.9870
36493SOL    HW211487   7.053   9.593   8.491 -1.1307 -0.0866  1.4281
36494SOL     OW11488   7.344   3.842   8.747 -0.5170  0.1247 -0.4803
36494SOL    HW111489   7.291   3.920   8.762 -0.4631  0.1648 -0.5019
36494SOL    HW211490   7.288   3.770   8.777 -0.0761  0.2793  0.7636
36495SOL     OW11491   8.113   9.166   9.972  0.0157  0.2111 -0.0258
36495SOL    HW111492   8.104   9.248   9.922  0.3150  0.5011  0.3873
36495SOL    HW211493   8.094   9.192  10.063 -0.9072 -0.3846 -0.0293
36496SOL     OW11494  10.085   9.078   2.022 -0.5745  0.0639  0.3156
36496SOL    HW111495  10.159   9.023   2.050 -1.6589 -0.4988  2.3162
36496SOL    HW211496  10.107   9.105   1.933  1.3464 -1.2731  0.3214
36497SOL     OW11497   7.080   9.753   0.538  0.4890  0.1519 -0.2484
36497SOL    HW111498   7.064   9.728   0.447 -1.3195 -0.9128  0.3147
36497SOL    HW211499   7.142   9.687   0.570  1.2546  0.6239 -0.7397
36498SOL     OW11500   3.979   4.904   3.987  0.3525  0.1776 -0.4016
36498SOL    HW111501   3.973   4.875   4.078 -1.0948  0.4656 -0.3822
36498SOL    HW211502   3.970   4.999   3.991 -2.5682  0.0022 -1.0126
36499SOL     OW11503   0.372   2.145   4.874  0.1203 -0.5569 -0.2046
36499SOL    HW111504   0.377   2.051   4.856  1.4030 -0.7261  0.8294
36499SOL    HW211505   0.446   2.161   4.932  0.1087  1.1651 -0.6234
36500SOL     OW11506   7.511   6.667   5.862  0.0417  0.0443  0.0159
36500SOL    HW111507   7.426   6.624   5.876  0.0508 -1.0342 -2.6862
36500SOL    HW211508   7.570   6.622   5.922 -0.5950 -1.7161 -0.6099
36501SOL     OW11509   4.394   6.272   1.852 -0.3051 -0.8279  0.3445
36501SOL    HW111510   4.302   6.255   1.871 -0.6942  1.1747  0.4603
36501SOL    HW211511   4.405   6.241   1.762 -0.8507 -1.8814  0.6266
36502SOL     OW11512   0.008  10.260   7.238  0.2415 -0.7518 -0.3147
36502SOL    HW111513   0.004  10.180   7.291 -0.8951 -0.0170  0.7690
36502SOL    HW211514  -0.075  10.304   7.255  0.5137  0.2824 -1.5238
36503SOL     OW11515   3.081   4.985   2.176 -0.1933  0.2950 -0.2656
36503SOL    HW111516   3.038   5.064   2.208  1.0522  0.2059  1.8622
36503SOL    HW211517   3.049   4.915   2.234  0.1959 -0.3838 -0.8513
36504SOL     OW11518   8.293   6.705   4.657 -0.2357  0.4939 -0.1784
36504SOL    HW111519   8.257   6.759   4.727  0.2504 -1.6262  1.8354
36504SOL    HW211520   8.224   6.702   4.591 -0.6780  2.6368  0.1017
36505SOL     OW11521   9.714  10.799   9.913 -0.0922  0.4383 -0.1355
36505SOL    HW111522   9.762  10.845   9.844 -1.5087 -0.5677 -1.8797
36505SOL    HW211523   9.687  10.868   9.974  2.1819  1.2032  0.0926
36506SOL     OW11524   4.202   5.359  10.161 -0.6911  0.1897 -1.0492
36506SOL    HW111525   4.116   5.383  10.196 -0.2158  0.3530  0.0219
36506SOL    HW211526   4.254   5.335  10.238  0.8456  1.9778 -1.4708
36507SOL     OW11527   5.310  11.194   5.569 -0.0044 -0.0632 -0.7111
36507SOL    HW111528   5.276  11.256   5.504  1.6833 -0.4185 -2.0004
36507SOL    HW211529   5.314  11.111   5.522 -0.8059 -0.8474  0.5519
36508SOL     OW11530   5.079  10.043   1.654 -0.3578 -0.5306 -0.1748
36508SOL    HW111531   5.046   9.956   1.630 -0.2672 -0.2231 -1.5383
36508SOL    HW211532   5.024  10.103   1.603 -0.4875  0.2213  0.8365
36509SOL     OW11533   9.650   1.132   7.103  0.0848 -0.7999 -0.3546
36509SOL    HW111534   9.700   1.207   7.069 -0.5396 -0.9124 -1.5576
36509SOL    HW211535   9.584   1.172   7.160  0.1044 -0.4859 -0.5484
36510SOL     OW11536   8.817   2.577   1.343  0.3006  0.2610  0.2581
36510SOL    HW111537   8.905   2.612   1.353  1.1790 -2.2217  2.0637
36510SOL    HW211538   8.815   2.542   1.254  1.4136 -0.3228  0.4539
36511SOL     OW11539   7.385   6.753  11.047 -0.0508  0.6591  0.3028
36511SOL    HW111540   7.445   6.753  10.972  0.9866  2.0618  1.0955
36511SOL    HW211541   7.318   6.818  11.024 -0.9299 -0.4113 -0.2792
36512SOL     OW11542   0.564   8.876   7.941  0.0287 -0.1745  0.2170
36512SOL    HW111543   0.504   8.830   7.881  1.8837  0.9268 -2.7121
36512SOL    HW211544   0.581   8.813   8.011 -2.9420 -1.2339  0.1278
36513SOL     OW11545   9.634   1.690   8.357  0.2483 -0.0824 -0.4906
36513SOL    HW111546   9.674   1.764   8.312  2.4607 -1.5041 -1.0152
36513SOL    HW211547   9.638   1.713   8.450  0.7801  0.5024 -0.6573
36514SOL     OW11548   6.826   1.304  10.020  0.0703  0.3809  0.2021
36514SOL    HW111549   6.770   1.371  10.058  0.8473  0.7828  0.6533
36514SOL    HW211550   6.835   1.330   9.928 -0.9113  0.0093 -0.0145
36515SOL     OW11551   5.723   0.179   3.363  0.2139  0.5973  0.2633
36515SOL    HW111552   5.660   0.170   3.291  0.2434  0.3800  0.2667
36515SOL    HW211553   5.684   0.131   3.436  1.8369 -2.3367 -0.6322
36516SOL     OW11554   1.954   1.898   4.834 -0.3657  0.7568  0.7586
36516SOL    HW111555   2.037   1.879   4.790 -0.3279  0.1555  1.0808
36516SOL    HW211556   1.909   1.960   4.776 -0.0758  0.4008  0.1540
36517SOL     OW11557   5.469   3.008   2.983  0.3342  0.3442 -0.5095
36517SOL    HW111558   5.497   3.033   2.895 -1.1040 -1.8069 -1.6539
36517SOL    HW211559   5.434   3.089   3.020 -0.8415  0.9215 -2.6785
36518SOL     OW11560   7.747   8.062   1.043  0.1521  0.0808  0.0801
36518SOL    HW111561   7.700   7.997   1.094 -1.1310  0.0950 -1.0388
36518SOL    HW211562   7.681   8.126   1.018  1.2069  1.3469  0.3886
36519SOL     OW11563   0.389   3.048   8.677 -0.5905 -0.0809 -0.4276
36519SOL    HW111564   0.474   3.081   8.650 -0.9654 -0.0301 -1.6139
36519SOL    HW211565   0.348   3.019   8.595 -2.4815  1.6897 -0.1796
36520SOL     OW11566   8.910   8.245   1.612 -0.0434 -0.0223  0.4048
36520SOL    HW111567   8.870   8.331   1.601  0.6959  0.4324  1.1684
36520SOL    HW211568   8.905   8.204   1.525 -1.8463  0.1369  0.4018
36521SOL     OW11569   8.090  10.553   5.611 -0.5898 -0.4465 -0.3093
36521SOL    HW111570   8.125  10.556   5.700  0.7032  1.0255 -0.8164
36521SOL    HW211571   8.099  10.462   5.584  1.0203 -0.5121  0.3281
36522SOL     OW11572   3.237   3.509   5.810  0.3148 -0.2859  0.5955
36522SOL    HW111573   3.171   3.509   5.880  0.6842 -2.1401  0.9785
36522SOL    HW211574   3.202   3.570   5.745 -0.6970  0.4482  1.7797
36523SOL     OW11575  10.419   4.544   7.464  0.2446 -0.5209 -0.0271
36523SOL    HW111576  10.483   4.478   7.438 -2.6871 -3.1761 -1.1184
36523SOL    HW211577  10.340   4.522   7.415 -2.1505  1.3310  2.6564
36524SOL     OW11578   8.265  10.523   2.698 -0.4889 -0.0036 -0.5502
36524SOL    HW111579   8.327  10.551   2.630 -0.9415 -0.6155 -1.2305
36524SOL    HW211580   8.188  10.494   2.649  0.0091 -2.6099  0.0721
36525SOL     OW11581   6.235   5.679   5.577 -0.0863 -0.2020  0.0899
36525SOL    HW111582   6.192   5.601   5.543 -0.3630 -0.0760  0.1418
36525SOL    HW211583   6.323   5.650   5.600 -0.5686 -0.8130  1.2729
36526SOL     OW11584   4.665   2.581   0.789 -0.4916  0.0993  0.2975
36526SOL    HW111585   4.610   2.658   0.800  0.4058  0.5994  1.5331
36526SOL    HW211586   4.746   2.602   0.836  0.5685 -0.8115 -1.0008
36527SOL     OW11587   9.012   9.122   8.621  0.3501  0.4712 -0.4825
36527SOL    HW111588   8.966   9.041   8.600 -0.0040  0.2624  0.9567
36527SOL    HW211589   9.105   9.097   8.622  0.1466 -0.5719  2.2359
36528SOL     OW11590   4.793   0.941   6.695  0.3529 -0.3467  0.0411
36528SOL    HW111591   4.802   0.848   6.672  0.9922 -0.5497  1.0151
36528SOL    HW211592   4.833   0.988   6.622  1.6382 -0.9274  0.3472
36529SOL     OW11593   5.915  10.902   7.936  0.1359  0.0494 -0.2945
36529SOL    HW111594   5.895  10.973   7.996 -0.2548 -0.2975 -0.0160
36529SOL    HW211595   5.999  10.927   7.896  1.7090 -0.8482  2.1831
36530SOL     OW11596   7.187   2.725   9.322 -0.1565  0.5799 -0.1286
36530SOL    HW111597   7.186   2.700   9.415 -0.3369  1.4441  0.1077
36530SOL    HW211598   7.246   2.801   9.318  0.1927  0.2810 -0.7936
36531SOL     OW11599   4.936   7.875   8.790 -0.6489  0.0362  0.2072
36531SOL    HW111600   5.020   7.833   8.806 -1.1354 -1.5359 -1.1178
36531SOL    HW211601   4.879   7.844   8.860 -0.7143 -0.7007 -0.1649
36532SOL     OW11602   7.423   8.051   8.630 -0.3384  0.2190  0.3801
36532SOL    HW111603   7.429   8.061   8.535 -0.5696  2.6749  0.5531
36532SOL    HW211604   7.452   7.961   8.647 -3.0043 -1.3109 -2.2190
36533SOL     OW11605   9.165   5.100   3.642  0.1098  0.1008 -0.1078
36533SOL    HW111606   9.198   5.125   3.729 -2.9221  1.5790  0.7352
36533SOL    HW211607   9.180   5.005   3.638  4.4902  0.5711 -0.0066
36534SOL     OW11608  10.473   0.681   4.096 -0.3044 -0.2782  0.1265
36534SOL    HW111609  10.525   0.603   4.076  4.9318  3.1968 -2.3582
36534SOL    HW211610  10.429   0.702   4.013  0.9639  0.9384 -0.2867
36535SOL     OW11611   1.088   4.482   5.705 -0.6117  0.6165 -0.0673
36535SOL    HW111612   1.090   4.450   5.795  1.3385  1.0899  0.1070
36535SOL    HW211613   1.063   4.574   5.713 -0.0574  0.7597  0.0318
36536SOL     OW11614   1.862   1.050  10.673 -0.0015 -0.1426 -0.0161
36536SOL    HW111615   1.953   1.052  10.702  0.7793  0.9217 -2.3591
36536SOL    HW211616   1.837   1.143  10.669 -1.8645 -0.4365  2.3708
36537SOL     OW11617   2.071   3.861   3.810 -0.1202  0.5067 -0.9454
36537SOL    HW111618   2.055   3.952   3.835 -2.0484  0.1250 -0.6207
36537SOL    HW211619   2.141   3.832   3.869 -1.7387  0.8526  1.2528
36538SOL     OW11620   6.512   3.759   8.912  0.2455 -0.1617  0.5377
36538SOL    HW111621   6.474   3.842   8.940  2.7563  0.2159  3.3742
36538SOL    HW211622   6.446   3.693   8.934 -0.4908  0.8054  1.2931
36539SOL     OW11623   1.421   1.307   3.052 -0.1819  0.2157 -0.6270
36539SOL    HW111624   1.420   1.390   3.098 -3.3504  0.0794 -0.2194
36539SOL    HW211625   1.421   1.330   2.959  0.9670  0.5970 -0.5404
36540SOL     OW11626   8.733   4.805   9.214 -0.8499 -0.4331 -0.2127
36540SOL    HW111627   8.650   4.766   9.241 -0.7999  0.2625  1.0518
36540SOL    HW211628   8.772   4.836   9.296  0.4286 -0.3011 -0.8451
36541SOL     OW11629   1.086   5.326   1.855 -0.3158 -0.1012  0.8143
36541SOL    HW111630   1.111   5.413   1.885 -0.1725  0.6292 -1.2440
36541SOL    HW211631   1.017   5.342   1.790  0.0713 -1.4850  0.0228
36542SOL     OW11632   0.733   7.314   9.884  0.1181 -0.3378  0.0304
36542SOL    HW111633   0.753   7.331   9.976  1.2552 -1.6435  0.0613
36542SOL    HW211634   0.773   7.229   9.866  2.8305  1.2718 -2.5042
36543SOL     OW11635   1.097   4.580   0.957  0.4184 -0.4205  0.5465
36543SOL    HW111636   1.143   4.617   1.033  0.3698  0.4436  0.1654
36543SOL    HW211637   1.157   4.513   0.923  0.8031 -0.2311  0.8424
36544SOL     OW11638   2.057   2.996   1.433 -0.3975  0.0665  0.1350
36544SOL    HW111639   2.115   3.034   1.499 -0.7991  0.8955  0.0282
36544SOL    HW211640   2.007   3.071   1.400  0.8733 -0.0485 -2.2192
36545SOL     OW11641   0.045  10.107   7.823  1.0696 -0.3045  0.0132
36545SOL    HW111642   0.086  10.021   7.823  1.3292 -0.2215 -1.7004
36545SOL    HW211643   0.113  10.167   7.792  0.6947  0.4109  0.5403
36546SOL     OW11644   7.203   7.779   5.209  0.7525  0.0703  0.8750
36546SOL    HW111645   7.154   7.729   5.274  0.7732 -3.0973 -1.2954
36546SOL    HW211646   7.153   7.768   5.128  3.1728 -0.3304 -0.6670
36547SOL     OW11647   5.522   3.053   6.202 -0.0132 -0.0292  0.8293
36547SOL    HW111648   5.530   3.008   6.286 -1.1857 -0.6444  0.6293
36547SOL    HW211649   5.461   3.000   6.151  1.5653 -0.3198 -0.8780
36548SOL     OW11650  10.118   5.292   3.642 -0.1206 -0.4594  0.0223
36548SOL    HW111651  10.200   5.325   3.681 -1.0804 -0.5197  2.2722
36548SOL    HW211652  10.049   5.334   3.694 -1.5434 -0.6648 -1.6178
36549SOL     OW11653  11.175   0.386   4.576 -0.2912  0.1174  0.3036
36549SOL    HW111654  11.094   0.389   4.526  1.5517  0.9857 -2.9455
36549SOL    HW211655  11.168   0.307   4.630 -2.9986 -0.1469 -0.3280
36550SOL     OW11656   9.518   0.353   2.024  0.0577  0.1131  0.0665
36550SOL    HW111657   9.495   0.265   2.056  0.6568  0.0081  0.2206
36550SOL    HW211658   9.534   0.341   1.930  2.5560 -0.4707  0.4812
36551SOL     OW11659  11.256   1.559   0.150 -0.8640  0.0586 -0.2421
36551SOL    HW111660  11.195   1.628   0.122  0.6203  0.7344 -2.0619
36551SOL    HW211661  11.304   1.598   0.223 -0.3823  0.8226 -0.9387
36552SOL     OW11662   2.087   4.957  10.589  0.3750  0.2063 -0.1624
36552SOL    HW111663   2.005   4.918  10.620  0.7090  0.5216  1.1967
36552SOL    HW211664   2.060   5.027  10.530 -0.2520 -1.8432 -2.4679
36553SOL     OW11665   1.091   1.063   5.956 -0.1112  0.3586  0.5069
36553SOL    HW111666   1.081   1.158   5.963 -1.4852  0.1173  4.1592
36553SOL    HW211667   1.032   1.038   5.884  0.0413  2.2026 -0.3194
36554SOL     OW11668   1.167   4.303   0.339  0.6170 -0.0439  0.0240
36554SOL    HW111669   1.197   4.259   0.260 -1.5855 -0.0519 -0.8905
36554SOL    HW211670   1.077   4.271   0.351  0.1428  1.6195  1.2780
36555SOL     OW11671   9.683   1.897   1.426 -0.1445 -0.0548 -0.3654
36555SOL    HW111672   9.689   1.841   1.503 -0.0903  1.0432  0.4597
36555SOL    HW211673   9.743   1.970   1.445  2.1511 -1.1749 -2.7127
36556SOL     OW11674   7.613   4.374   8.674  0.7820 -0.5212 -0.3425
36556SOL    HW111675   7.558   4.452   8.676  2.1747  0.4833  1.5356
36556SOL    HW211676   7.649   4.372   8.585  2.1587  2.0536  0.0809
36557SOL     OW11677   3.398   4.013   2.866  0.4627 -0.3608 -0.6163
36557SOL    HW111678   3.346   3.980   2.939  1.8561  0.4534  0.8209
36557SOL    HW211679   3.334   4.051   2.805 -0.6989 -0.5746  0.4480
36558SOL     OW11680   8.143   7.967   3.530 -0.0216  0.5248 -0.5782
36558SOL    HW111681   8.208   7.949   3.462  0.7189 -3.3169  0.8667
36558SOL    HW211682   8.191   8.014   3.598  0.4161  0.5035 -0.8749
36559SOL     OW11683   9.723   3.104  10.818  0.1239  0.1848  0.3004
36559SOL    HW111684   9.636   3.097  10.857 -0.0287  0.1544 -0.0473
36559SOL    HW211685   9.769   3.167  10.873  0.4788 -1.1283  1.5651
36560SOL     OW11686   0.063   7.121   6.241 -0.4962  0.2437 -0.2745
36560SOL    HW111687   0.058   7.177   6.164 -0.3790 -1.1129 -1.2963
36560SOL    HW211688   0.050   7.032   6.208  4.2328 -1.0024  0.4223
36561SOL     OW11689   0.585   8.839   1.399  0.4837 -0.0371 -0.2608
36561SOL    HW111690   0.659   8.778   1.393  0.7343  0.0942  1.1879
36561SOL    HW211691   0.507   8.783   1.391  0.7156 -0.5520  0.9230
36562SOL     OW11692   2.650   0.915   9.686  0.1514 -0.0528 -0.3267
36562SOL    HW111693   2.591   0.890   9.614 -0.9332  0.5486  0.3270
36562SOL    HW211694   2.667   1.008   9.672 -1.1845  0.4256  0.9157
36563SOL     OW11695  10.099   5.227   1.229  0.4985 -0.0963 -0.2766
36563SOL    HW111696  10.169   5.167   1.254  0.2195  0.3546  1.7941
36563SOL    HW211697  10.100   5.226   1.133  2.6410 -0.8822 -0.3177
36564SOL     OW11698   0.408   4.358   1.656  0.2562 -0.2885  0.8702
36564SOL    HW111699   0.321   4.324   1.638  0.6762 -1.5881  1.1639
36564SOL    HW211700   0.439   4.307   1.731  0.5173  1.5070  2.0658
36565SOL     OW11701  10.829   0.646   3.374  0.6565  0.7027  0.2816
36565SOL    HW111702  10.736   0.667   3.367  0.4487 -0.1427  0.3421
36565SOL    HW211703  10.849   0.656   3.468  0.1048 -1.0813  0.6355
36566SOL     OW11704   8.003   5.542   8.385  0.3456 -0.8747 -0.1299
36566SOL    HW111705   8.046   5.539   8.300  0.3926  0.7886 -0.1961
36566SOL    HW211706   7.948   5.464   8.387  2.5520 -2.5479 -0.4625
36567SOL     OW11707   8.594   1.240   8.440  0.6911 -0.2106  0.1142
36567SOL    HW111708   8.688   1.223   8.443  0.3823 -2.4221 -0.6805
36567SOL    HW211709   8.559   1.189   8.513 -0.2282 -2.7003 -1.9193
36568SOL     OW11710   5.306   7.837   8.370  0.6204 -0.3691  0.2246
36568SOL    HW111711   5.230   7.779   8.372  0.4205 -0.3622 -2.7094
36568SOL    HW211712   5.368   7.798   8.431 -1.1448 -1.1705  1.6099
36569SOL     OW11713   7.754   6.919   2.406 -0.3787  0.2495  0.6493
36569SOL    HW111714   7.732   6.933   2.498  0.5989  1.9049  0.6756
36569SOL    HW211715   7.760   7.007   2.369 -0.2558 -0.3709 -0.8897
36570SOL     OW11716   9.392   8.136   9.678 -0.6620 -0.0591 -0.6189
36570SOL    HW111717   9.483   8.163   9.673 -0.8393  0.5085 -0.7962
36570SOL    HW211718   9.382   8.071   9.608 -0.4174 -0.0622 -0.6502
36571SOL     OW11719   8.620  10.387   0.364  0.3008  0.0646 -0.8057
36571SOL    HW111720   8.577  10.447   0.302 -0.4592  0.8804  0.4665
36571SOL    HW211721   8.649  10.443   0.436 -0.0458 -1.0250  0.2183
36572SOL     OW11722   1.958   5.256   0.010  0.4984 -0.3299  0.4899
36572SOL    HW111723   1.922   5.184  -0.042  0.1284 -0.1301  0.4659
36572SOL    HW211724   2.052   5.238   0.014  0.5548 -0.2936 -0.3510
36573SOL     OW11725   7.553   0.320   5.712 -0.1441  0.4491  0.0222
36573SOL    HW111726   7.597   0.388   5.660 -1.1340  1.6574  0.7010
36573SOL    HW211727   7.506   0.369   5.780 -0.4238 -0.9732  0.8880
36574SOL     OW11728   7.411   4.075   2.666 -0.1359  0.3630  0.5373
36574SOL    HW111729   7.439   4.027   2.744 -0.8759 -0.7759  0.1384
36574SOL    HW211730   7.326   4.037   2.644 -0.3077  1.2161 -0.3656
36575SOL     OW11731   4.870   5.926   8.180 -0.7491  1.1685  0.4986
36575SOL    HW111732   4.961   5.909   8.205 -0.5049 -1.9601 -1.9129
36575SOL    HW211733   4.876   5.993   8.111  0.5818 -2.7301 -3.6421
36576SOL     OW11734   3.385   8.188   9.559 -0.0407  1.0924 -0.0558
36576SOL    HW111735   3.460   8.145   9.601 -0.4552 -0.2546 -0.6298
36576SOL    HW211736   3.370   8.266   9.612  0.8543  0.6216  0.9501
36577SOL     OW11737   8.231   3.887   2.404 -0.0250  0.5797  0.8585
36577SOL    HW111738   8.219   3.807   2.455 -2.7335 -0.0159 -0.5344
36577SOL    HW211739   8.149   3.898   2.356  2.2663  1.0129 -3.4626
36578SOL     OW11740   0.354   7.658   5.039 -0.2875  0.1256 -0.5148
36578SOL    HW111741   0.263   7.675   5.061 -0.6899  0.1213 -2.0655
36578SOL    HW211742   0.366   7.700   4.953  1.0421 -0.2379 -0.5239
36579SOL     OW11743  11.074   9.545   1.822  0.3375 -0.0610 -0.1420
36579SOL    HW111744  11.110   9.575   1.906  0.4267 -3.5261  1.2336
36579SOL    HW211745  10.991   9.504   1.846  1.0174 -2.3773 -1.4706
36580SOL     OW11746   9.682   4.748   9.718 -0.2002  0.7943  0.1668
36580SOL    HW111747   9.620   4.766   9.647  0.3084 -0.8885 -0.7522
36580SOL    HW211748   9.768   4.766   9.680  0.0995 -0.4097  0.2229
36581SOL     OW11749   7.043   3.739   1.250  0.9130  0.5701 -0.2678
36581SOL    HW111750   7.097   3.662   1.270 -2.3624 -2.2051 -1.0686
36581SOL    HW211751   7.025   3.779   1.335  1.1481 -0.7332  0.4231
36582SOL     OW11752   9.291   2.885   7.872  0.2514 -0.6794 -0.3860
36582SOL    HW111753   9.237   2.873   7.950  0.8245 -0.5468  0.0412
36582SOL    HW211754   9.229   2.895   7.800 -0.2912 -2.2076 -0.1741
36583SOL     OW11755   8.257   9.137   9.318 -0.9696 -0.3780  0.0769
36583SOL    HW111756   8.256   9.129   9.413  0.2157 -2.8074 -0.0605
36583SOL    HW211757   8.275   9.049   9.286  1.4946  0.8400 -2.3084
36584SOL     OW11758   2.172   9.383   0.282  0.4483  0.2356 -0.0910
36584SOL    HW111759   2.174   9.296   0.242  2.1587 -0.4971  1.4702
36584SOL    HW211760   2.080   9.410   0.276 -0.3732 -2.2141  0.5121
36585SOL     OW11761   7.916   1.487   5.878  0.2151  0.5331 -0.4937
36585SOL    HW111762   7.926   1.560   5.817  0.7399 -1.2082 -2.6392
36585SOL    HW211763   7.999   1.482   5.924 -0.4336  2.3182  1.0070
36586SOL     OW11764   9.207   3.194   9.682 -0.2193  0.0150 -0.4220
36586SOL    HW111765   9.290   3.236   9.660  1.2910 -1.7260  1.5356
36586SOL    HW211766   9.194   3.128   9.613  0.8888 -0.7810  0.1038
36587SOL     OW11767   5.913   2.879   9.119  0.5473 -0.3980  0.3387
36587SOL    HW111768   5.950   2.863   9.206  0.1233  0.4537  0.6908
36587SOL    HW211769   5.961   2.819   9.061  2.4346  0.6113  0.7714
36588SOL     OW11770  10.261   3.549   6.424  1.1854  0.0161  0.2842
36588SOL    HW111771  10.222   3.514   6.344 -1.0195  0.2127  1.1974
36588SOL    HW211772  10.281   3.472   6.477  2.4753 -0.1045 -0.3414
36589SOL     OW11773   4.380   9.036   0.109 -0.4396 -0.1713 -0.6808
36589SOL    HW111774   4.387   8.989   0.025  1.3602  1.4420 -1.5055
36589SOL    HW211775   4.399   9.127   0.087 -1.3710  0.5358  1.2770
36590SOL     OW11776   5.354   5.849   1.029  0.5243  0.3380 -0.1939
36590SOL    HW111777   5.326   5.832   1.119 -0.7712  0.4616 -0.5483
36590SOL    HW211778   5.442   5.886   1.038 -0.1170  1.6669  1.1271
36591SOL     OW11779  10.040   8.769   0.355  0.5480  0.6029 -0.2830
36591SOL    HW111780  10.084   8.819   0.287  1.4196  0.2451 -0.0138
36591SOL    HW211781   9.968   8.824   0.385 -0.9788  0.0546 -2.6822
36592SOL     OW11782   8.249  10.781   3.828  0.6320 -0.2162  0.6829
36592SOL    HW111783   8.177  10.839   3.805  1.1444  0.3117  0.3900
36592SOL    HW211784   8.224  10.743   3.913 -0.6081 -1.0816 -0.0431
36593SOL     OW11785   2.175   6.840  10.459  0.3534  0.2341 -0.4456
36593SOL    HW111786   2.247   6.817  10.518  1.5173 -1.5741 -2.4346
36593SOL    HW211787   2.148   6.927  10.487  1.6227 -0.0508  1.9607
36594SOL     OW11788   0.305   3.661   2.606  0.2069  0.0406  0.3925
36594SOL    HW111789   0.215   3.676   2.577  0.8212  1.3058 -0.9747
36594SOL    HW211790   0.300   3.662   2.702 -0.9764  1.7519  0.3499
36595SOL     OW11791   2.684   6.431   0.666  0.6012  0.3753 -0.7160
36595SOL    HW111792   2.666   6.505   0.608 -0.6957  1.3229  0.8129
36595SOL    HW211793   2.598   6.404   0.698  1.0103 -1.9721 -1.3787
36596SOL     OW11794   2.880   7.221   7.412  0.5757  0.2411  0.2268
36596SOL    HW111795   2.897   7.302   7.364  1.2966 -0.1781 -0.2537
36596SOL    HW211796   2.908   7.151   7.352  2.1833 -0.2740  1.4948
36597SOL     OW11797   4.191   2.444   5.500 -0.1029 -0.1980  0.6119
36597SOL    HW111798   4.221   2.353   5.494 -2.9796 -1.1912 -0.2526
36597SOL    HW211799   4.144   2.448   5.584 -1.5160 -0.0745 -0.1502
36598SOL     OW11800   7.212   6.634   3.744 -0.4846  0.5637 -0.2714
36598SOL    HW111801   7.267   6.604   3.817  1.4365  0.6613 -1.6184
36598SOL    HW211802   7.170   6.554   3.711 -0.6535  0.3879  0.3498
36599SOL     OW11803   7.424   5.107   0.060  0.3170 -0.6901 -0.3441
36599SOL    HW111804   7.448   5.136  -0.028 -0.6186  0.1698 -0.3327
36599SOL    HW211805   7.500   5.127   0.113 -0.1735  1.5117 -0.4079
36600SOL     OW11806   8.198   5.380   1.041 -0.2175 -0.1658 -0.4034
36600SOL    HW111807   8.272   5.352   0.987 -0.8214 -0.7352 -0.9583
36600SOL    HW211808   8.137   5.306   1.039  0.3537 -0.8248  2.2828
36601SOL     OW11809   8.199   2.254   8.790  0.6151 -0.2432  0.2288
36601SOL    HW111810   8.169   2.270   8.700  1.5197 -0.6741 -0.1613
36601SOL    HW211811   8.216   2.160   8.793 -3.5631 -1.1745  2.1591
36602SOL     OW11812   1.783   6.993   6.027 -0.2538 -0.4664  0.0855
36602SOL    HW111813   1.868   6.950   6.014  0.6449  1.5646 -1.2569
36602SOL    HW211814   1.795   7.045   6.107 -0.5489 -0.9009  0.4118
36603SOL     OW11815   5.746   9.132   0.677 -0.0710 -0.4736 -0.4656
36603SOL    HW111816   5.685   9.066   0.642  0.4266 -1.6678  0.8108
36603SOL    HW211817   5.714   9.149   0.765  0.8015 -0.2853 -0.1795
36604SOL     OW11818   5.632   7.824   2.883 -0.6123  0.2141 -0.2553
36604SOL    HW111819   5.583   7.900   2.851 -1.2624 -0.1722 -0.1842
36604SOL    HW211820   5.609   7.818   2.975  0.6510  0.8538  0.1277
36605SOL     OW11821  11.061   8.174   5.724 -0.2547  0.6239  0.1520
36605SOL    HW111822  10.969   8.158   5.704 -0.0466  1.8968 -2.2649
36605SOL    HW211823  11.059   8.229   5.803 -1.3918 -1.1682  1.4623
36606SOL     OW11824   6.142   2.478  10.571  0.4834 -0.5942  0.1353
36606SOL    HW111825   6.224   2.521  10.594  0.3857 -0.1622 -0.3158
36606SOL    HW211826   6.075   2.545  10.582  0.2777 -0.7422 -0.1736
36607SOL     OW11827   0.665   9.845   7.810  0.0073 -0.0351 -1.3407
36607SOL    HW111828   0.699   9.907   7.875 -0.6270  0.3511 -1.3753
36607SOL    HW211829   0.684   9.759   7.848  0.3250  0.1786 -1.0017
36608SOL     OW11830   3.935   7.847   9.146 -0.2829 -0.0005 -0.0091
36608SOL    HW111831   3.920   7.903   9.223 -0.2829  2.0639 -1.4314
36608SOL    HW211832   3.977   7.769   9.181  2.0710  1.9335  1.8476
36609SOL     OW11833   1.238   9.424   2.247 -0.1249  0.0139  0.0599
36609SOL    HW111834   1.231   9.520   2.245 -1.7159 -0.0037  1.8281
36609SOL    HW211835   1.316   9.405   2.196 -0.0428  2.2214 -0.7700
36610SOL     OW11836   6.980   3.138   7.145 -0.1924 -0.0788  0.6686
36610SOL    HW111837   6.961   3.231   7.139  0.6145  0.1300  1.3063
36610SOL    HW211838   7.020   3.116   7.061 -2.3391 -0.3453 -0.3727
36611SOL     OW11839   1.273   2.732   1.477 -0.0056  0.5693  0.0748
36611SOL    HW111840   1.183   2.702   1.470  0.4640 -0.6183 -1.6821
36611SOL    HW211841   1.300   2.709   1.566 -0.7685 -1.1172 -0.0978
36612SOL     OW11842   0.818   2.334   2.240 -0.0872  0.2282 -0.1883
36612SOL    HW111843   0.873   2.262   2.270 -0.7083 -0.0928  0.1943
36612SOL    HW211844   0.806   2.390   2.317 -0.4826  0.1773 -0.2095
36613SOL     OW11845   1.144   0.224   2.026  0.2191 -0.2286 -0.1056
36613SOL    HW111846   1.167   0.133   2.004 -1.8693 -0.3436 -2.2386
36613SOL    HW211847   1.180   0.237   2.114  1.5086 -2.7569 -0.1522
36614SOL     OW11848   9.547   3.523   6.709 -0.5808  0.1871 -0.0740
36614SOL    HW111849   9.561   3.497   6.800 -0.5118  0.0190 -0.1319
36614SOL    HW211850   9.473   3.469   6.680  0.3343 -0.8504 -0.5641
36615SOL     OW11851   4.835   8.908   5.969 -0.1889 -0.7358  0.7195
36615SOL    HW111852   4.847   8.926   5.876  0.3003 -1.6436  0.6003
36615SOL    HW211853   4.865   8.988   6.013  1.7329 -1.1192  0.1945
36616SOL     OW11854   0.175   7.366   1.681  0.3497  0.6208  0.3157
36616SOL    HW111855   0.125   7.428   1.735  1.5797  3.0408 -1.1397
36616SOL    HW211856   0.216   7.420   1.614 -0.0380 -2.0561 -2.3032
36617SOL     OW11857   2.250   6.936   0.607  0.1617 -0.2233 -0.0858
36617SOL    HW111858   2.242   6.897   0.520  0.9885  1.6291 -1.0463
36617SOL    HW211859   2.338   6.973   0.609  0.6648 -1.3626  2.0722
36618SOL     OW11860   4.182   2.080   7.048 -0.5508  0.3487 -0.6531
36618SOL    HW111861   4.178   1.986   7.063 -1.5095  0.7393  2.0149
36618SOL    HW211862   4.213   2.117   7.130 -0.8170  2.4153 -1.4091
36619SOL     OW11863   8.207   4.739  10.505 -0.2449 -0.1385  0.5951
36619SOL    HW111864   8.120   4.765  10.475 -0.7901 -1.7894  0.6305
36619SOL    HW211865   8.190   4.683  10.581  0.8390 -0.6597  0.4662
36620SOL     OW11866   8.693   7.792   7.064 -0.4863  0.1031  0.3908
36620SOL    HW111867   8.622   7.770   7.004 -1.1648 -0.2333  1.2884
36620SOL    HW211868   8.650   7.798   7.150  0.0664  2.6352  0.5741
36621SOL     OW11869   5.842   6.074   3.095 -0.6733  0.6391  0.5330
36621SOL    HW111870   5.926   6.046   3.060 -0.7308  0.1371  0.7972
36621SOL    HW211871   5.847   6.056   3.189 -1.4624 -0.3773  0.3967
36622SOL     OW11872   5.321   9.065   2.613 -0.4914 -0.1081  0.1237
36622SOL    HW111873   5.294   9.040   2.701 -1.8090  0.0399 -0.2131
36622SOL    HW211874   5.243   9.050   2.559  0.6559 -1.4149 -1.2610
36623SOL     OW11875   9.309   8.271   2.105 -0.3462  0.2423  0.6120
36623SOL    HW111876   9.241   8.262   2.038 -0.6110 -0.0652  0.9149
36623SOL    HW211877   9.334   8.363   2.103  1.6071 -0.2401 -1.8046
36624SOL     OW11878   6.490   3.467   5.456 -0.2151  0.7904 -0.3495
36624SOL    HW111879   6.552   3.403   5.492  0.0369  0.7065 -0.9181
36624SOL    HW211880   6.521   3.551   5.490 -0.5038  0.6213  0.3417
36625SOL     OW11881   7.624   2.074   1.637  0.1131 -0.3492 -0.8864
36625SOL    HW111882   7.699   2.085   1.696  0.5324 -0.5734 -1.3725
36625SOL    HW211883   7.561   2.022   1.687  0.6914 -1.0052 -0.8299
36626SOL     OW11884   1.876   3.825   6.874  0.2643 -0.1535  0.1566
36626SOL    HW111885   1.967   3.800   6.855 -0.3931 -1.6330 -1.3290
36626SOL    HW211886   1.843   3.859   6.791 -0.9302 -0.9873  0.2645
36627SOL     OW11887  10.675   3.446  10.254 -0.1520 -0.4744  0.0506
36627SOL    HW111888  10.712   3.372  10.303  2.4900 -0.7283 -2.0815
36627SOL    HW211889  10.750   3.500  10.232 -1.7248  1.5849 -0.5605
36628SOL     OW11890   5.188   2.649   9.584  0.7520  0.5010  0.6770
36628SOL    HW111891   5.092   2.651   9.579  0.7015 -1.3911 -0.1504
36628SOL    HW211892   5.216   2.738   9.564 -0.7620  0.4622 -2.1648
36629SOL     OW11893   1.153   9.102   2.471  0.5497  0.2630 -0.1561
36629SOL    HW111894   1.108   9.021   2.446  0.0574  0.5199 -0.1112
36629SOL    HW211895   1.096   9.172   2.438 -0.0921  0.6214  1.6210
36630SOL     OW11896   3.490   2.767   4.826  0.3578  0.3479 -0.2090
36630SOL    HW111897   3.523   2.681   4.801 -0.2842 -0.1154  0.4994
36630SOL    HW211898   3.478   2.813   4.743  0.1976 -0.4330 -0.6301
36631SOL     OW11899   9.328  11.263   3.720  0.3343 -0.2448 -0.1252
36631SOL    HW111900   9.395  11.331   3.731  1.9098 -1.6505 -0.6372
36631SOL    HW211901   9.371  11.182   3.749 -1.4916 -1.0549  0.4828
36632SOL     OW11902   0.996   9.726   9.631 -0.8529 -0.3375  0.3718
36632SOL    HW111903   1.041   9.768   9.705  1.8487 -1.5617 -0.4611
36632SOL    HW211904   0.999   9.791   9.561 -0.7722 -0.2489  0.4576
36633SOL     OW11905   7.624  11.164   7.431 -0.0208 -0.0975 -0.4317
36633SOL    HW111906   7.566  11.234   7.461 -1.6014 -0.6413 -2.0484
36633SOL    HW211907   7.698  11.166   7.492 -0.9158  1.7423  0.6710
36634SOL     OW11908   6.610   7.328   1.823  1.1572 -0.0164  0.0776
36634SOL    HW111909   6.558   7.407   1.808 -1.5296 -1.3641  1.5490
36634SOL    HW211910   6.677   7.355   1.885  1.3827  1.4778 -0.7638
36635SOL     OW11911   7.298   2.891   4.328  0.3325  0.6148 -0.1544
36635SOL    HW111912   7.204   2.880   4.342  0.0935  0.6076 -1.6573
36635SOL    HW211913   7.327   2.809   4.288  1.1392  0.3310  0.9513
36636SOL     OW11914   5.387   8.084   8.171  0.1296  0.0221  0.1265
36636SOL    HW111915   5.296   8.114   8.178  0.0393  0.1162 -1.1500
36636SOL    HW211916   5.394   8.014   8.236 -0.4413  0.9417  1.2137
36637SOL     OW11917   6.217  10.252   1.693  0.0526  0.6205 -0.0398
36637SOL    HW111918   6.271  10.197   1.637  0.4394  0.2617  0.6728
36637SOL    HW211919   6.239  10.224   1.782 -1.9000 -0.1338  0.2617
36638SOL     OW11920  11.053   6.230   4.150  0.4886  0.5122 -0.0322
36638SOL    HW111921  10.960   6.214   4.136  0.6580 -0.3501 -0.2171
36638SOL    HW211922  11.071   6.311   4.101 -0.9360  2.9122  3.0095
36639SOL     OW11923  10.017   0.970   5.509  0.0195  0.3072 -0.2290
36639SOL    HW111924   9.947   0.906   5.518  1.2146 -0.8803  1.0646
36639SOL    HW211925  10.016   0.995   5.417 -0.5544 -1.4708 -0.7317
36640SOL     OW11926   2.305   5.794   7.351  0.3370  0.0469 -0.7820
36640SOL    HW111927   2.230   5.849   7.374 -0.2003 -0.3641 -1.5020
36640SOL    HW211928   2.284   5.708   7.389  0.9513  0.2053 -0.0631
36641SOL     OW11929   6.579   0.145   9.540  0.0663 -0.1817  0.9702
36641SOL    HW111930   6.514   0.077   9.520  0.2128  0.3901 -1.9532
36641SOL    HW211931   6.571   0.208   9.468  3.3914  0.2432  0.7950
36642SOL     OW11932   3.960   5.804   6.386  0.1999 -0.2738  0.3101
36642SOL    HW111933   4.012   5.797   6.466 -0.7365 -0.5123  0.9158
36642SOL    HW211934   3.909   5.723   6.384 -2.4506  1.2349  1.4117
36643SOL     OW11935   0.595   5.486   5.669  0.5648 -0.9559 -0.1490
36643SOL    HW111936   0.506   5.505   5.641  0.8499  0.2694 -0.2806
36643SOL    HW211937   0.605   5.534   5.751  1.2146 -0.7869 -0.3211
36644SOL     OW11938   3.727   9.621   2.652 -0.4402 -0.0697  0.8222
36644SOL    HW111939   3.785   9.695   2.633  0.0249 -1.1203 -2.4452
36644SOL    HW211940   3.639   9.653   2.631 -0.1532 -0.5781 -1.4004
36645SOL     OW11941   3.073   0.421  11.115 -0.0019 -0.5813  0.1221
36645SOL    HW111942   3.105   0.455  11.199  0.8887  2.7342 -1.3800
36645SOL    HW211943   2.979   0.409  11.129 -0.0914  1.1062  1.2854
36646SOL     OW11944   8.135   3.585   9.883 -0.2776 -0.6291  0.0042
36646SOL    HW111945   8.114   3.643   9.810 -0.4686  0.8871  1.2212
36646SOL    HW211946   8.050   3.561   9.920 -0.1199  0.3913  1.0594
36647SOL     OW11947   4.099   4.261   4.368  0.1485  0.2573 -0.4147
36647SOL    HW111948   4.074   4.288   4.456 -0.7625  1.5726 -1.0480
36647SOL    HW211949   4.122   4.168   4.377  0.5243  0.4745  1.2759
36648SOL     OW11950   2.550   1.139  11.240  0.0041 -0.1247 -0.4115
36648SOL    HW111951   2.624   1.158  11.298  0.1358 -2.1946  0.1702
36648SOL    HW211952   2.480   1.196  11.272  0.6580  0.1742  0.5402
36649SOL     OW11953   4.396   1.922   5.310  0.1859 -0.6103 -0.1845
36649SOL    HW111954   4.405   1.890   5.400  0.8438  1.2262  0.4520
36649SOL    HW211955   4.307   1.956   5.306 -0.0773 -1.3050 -0.4662
36650SOL     OW11956   9.168   9.306  10.294  0.0249 -0.5911  0.0628
36650SOL    HW111957   9.132   9.354  10.368  1.6694 -1.2535  1.3665
36650SOL    HW211958   9.192   9.375  10.231 -2.2036 -0.0809 -0.2878
36651SOL     OW11959   2.520   2.163   8.828 -0.0030 -0.3749  0.1982
36651SOL    HW111960   2.500   2.071   8.846  2.0112 -1.1499 -1.2049
36651SOL    HW211961   2.494   2.175   8.736 -1.7380  0.9510  0.8113
36652SOL     OW11962   6.310  10.843   9.164 -0.2934  0.0502  0.0754
36652SOL    HW111963   6.329  10.920   9.218 -0.6449 -0.0069  0.2921
36652SOL    HW211964   6.370  10.776   9.196 -0.0458  0.2103 -0.0548
36653SOL     OW11965   1.798   1.051   0.554 -0.0716 -0.0598  0.2309
36653SOL    HW111966   1.797   1.090   0.467 -2.0451 -0.3299  0.0903
36653SOL    HW211967   1.708   1.024   0.569 -0.2455  1.7705  3.1718
36654SOL     OW11968   3.382   8.618   1.240 -0.1743 -0.5062 -0.1076
36654SOL    HW111969   3.423   8.597   1.324  0.4697 -1.3319 -0.6118
36654SOL    HW211970   3.421   8.701   1.214 -1.1395  0.2931  0.8780
36655SOL     OW11971   2.983   7.161   2.538  0.5043 -0.3545 -1.2756
36655SOL    HW111972   2.953   7.090   2.594 -0.2609 -0.5637 -1.9197
36655SOL    HW211973   3.078   7.151   2.533  0.5025 -0.7289 -0.5648
36656SOL     OW11974   4.273   4.839   5.295  0.1804  0.1338 -0.3631
36656SOL    HW111975   4.230   4.769   5.246 -0.4571  0.3564 -0.1201
36656SOL    HW211976   4.302   4.797   5.376  1.9965 -0.4526 -1.2542
36657SOL     OW11977   0.141   3.388   9.009  0.7010 -0.3721  0.1954
36657SOL    HW111978   0.197   3.425   8.942  3.5296 -2.3739  1.2779
36657SOL    HW211979   0.131   3.457   9.074  1.7788  0.0709 -0.1038
36658SOL     OW11980   2.668   3.931   9.457  0.2576  0.1945  0.0904
36658SOL    HW111981   2.649   4.005   9.400 -1.0833 -0.1823  0.0061
36658SOL    HW211982   2.764   3.925   9.458  0.3393  0.7081 -1.4727
36659SOL     OW11983  10.907   5.616   7.981 -0.1825  0.0803 -0.3402
36659SOL    HW111984  10.908   5.528   7.945 -0.1719  0.1019 -0.3929
36659SOL    HW211985  10.816   5.632   8.004  0.1513 -0.8009  1.7706
36660SOL     OW11986   7.605  10.847   1.708  0.1796 -0.3777 -0.4150
36660SOL    HW111987   7.670  10.777   1.703  0.8119 -0.1324  2.5937
36660SOL    HW211988   7.531  10.807   1.754  0.5222  0.8200  1.2911
36661SOL     OW11989   2.445   4.764   4.491 -0.2540  0.5097  0.2061
36661SOL    HW111990   2.400   4.693   4.445  2.5628 -0.5860 -1.0950
36661SOL    HW211991   2.387   4.786   4.564 -1.8039 -2.2724 -0.0567
36662SOL     OW11992   1.226   0.553   7.712 -0.0831 -0.0918 -0.2713
36662SOL    HW111993   1.201   0.616   7.779 -2.2756 -0.3076 -0.8074
36662SOL    HW211994   1.289   0.600   7.657  0.1013  0.8075  0.6873
36663SOL     OW11995   7.109   2.155   0.458 -0.0384 -0.0232 -0.7660
36663SOL    HW111996   7.100   2.205   0.377 -1.0499 -0.5412 -0.9897
36663SOL    HW211997   7.063   2.207   0.524 -0.4142 -0.2734 -0.8291
36664SOL     OW11998  10.506   6.365   3.318 -0.2905  0.1837  0.2578
36664SOL    HW111999  10.418   6.346   3.352 -0.7298 -0.7498 -1.2970
36664SOL    HW212000  10.563   6.302   3.362 -0.3525  0.8278  1.3156
36665SOL     OW12001   9.692  10.658   8.373 -0.5868  0.2394 -0.3720
36665SOL    HW112002   9.739  10.678   8.293 -2.7767 -2.8829 -2.6851
36665SOL    HW212003   9.615  10.715   8.372 -1.7847 -1.3064 -1.8116
36666SOL     OW12004   3.430  10.581   5.485  0.1135 -0.1767  0.3109
36666SOL    HW112005   3.510  10.530   5.477  2.0167  2.6638 -0.4264
36666SOL    HW212006   3.457  10.660   5.532 -2.0932  1.1625 -0.5368
36667SOL     OW12007   5.928  10.879   0.658  0.4793 -0.4008  0.1894
36667SOL    HW112008   5.894  10.896   0.746 -0.1033 -1.3633  0.1682
36667SOL    HW212009   5.886  10.945   0.603  0.3791 -0.1775  0.5268
36668SOL     OW12010   4.154   3.357   7.944  0.0824 -0.3447 -0.7920
36668SOL    HW112011   4.203   3.276   7.959  0.1852 -0.6424 -2.5439
36668SOL    HW212012   4.204   3.403   7.876 -0.9903  0.3073 -1.1608
36669SOL     OW12013   7.213   8.268   1.747 -0.9033 -0.5721 -0.2559
36669SOL    HW112014   7.157   8.279   1.671  2.8287  3.7817 -2.9304
36669SOL    HW212015   7.298   8.244   1.711  0.0603 -3.2263  3.1942
36670SOL     OW12016   8.470   4.731   4.271  0.0212  0.9223 -0.4034
36670SOL    HW112017   8.394   4.789   4.258  0.6949  1.6823 -1.0115
36670SOL    HW212018   8.542   4.774   4.225  1.0345  0.6297  0.8422
36671SOL     OW12019   9.257   7.233   7.045 -0.1330 -0.9526  0.0030
36671SOL    HW112020   9.173   7.251   7.088 -0.4869 -0.9469 -0.6815
36671SOL    HW212021   9.236   7.169   6.977  0.0579  0.4414 -1.4280
36672SOL     OW12022   8.304   3.462   2.907 -0.1736  0.3422 -0.3050
36672SOL    HW112023   8.387   3.506   2.890 -0.9670  2.2341  0.4155
36672SOL    HW212024   8.245   3.533   2.934 -1.9894 -0.9651 -0.6922
36673SOL     OW12025   4.505   2.724  11.052  0.0680 -0.5660 -0.8553
36673SOL    HW112026   4.410   2.737  11.057  0.4038  2.9827 -1.2923
36673SOL    HW212027   4.529   2.695  11.140 -1.1699  0.9794  0.0506
36674SOL     OW12028   9.081   1.944  10.935  0.2570  0.1069 -0.0872
36674SOL    HW112029   9.109   1.877  10.873  1.3434 -0.1825  0.6874
36674SOL    HW212030   9.059   1.895  11.015 -1.0548  0.4750 -0.1910
36675SOL     OW12031   8.510   1.070   9.079  0.5057 -0.4167 -0.0561
36675SOL    HW112032   8.487   1.131   9.150  1.8488 -1.0294  0.9524
36675SOL    HW212033   8.559   1.124   9.017 -2.3842  0.6168 -1.6361
36676SOL     OW12034   5.022   6.775  10.382  0.0365  0.6756  0.0858
36676SOL    HW112035   5.079   6.743  10.451 -0.0590 -0.5442 -0.3742
36676SOL    HW212036   5.077   6.834  10.330  1.3245 -1.4400 -1.1080
36677SOL     OW12037   5.156   3.230   2.307  0.2767 -0.3232  0.3959
36677SOL    HW112038   5.173   3.316   2.346 -1.4167  0.1497  0.1553
36677SOL    HW212039   5.061   3.221   2.309  0.2926 -1.2842 -1.5240
36678SOL     OW12040   7.147   6.383   3.617 -0.2663  0.1249  0.7338
36678SOL    HW112041   7.078   6.333   3.661 -1.2920  0.7250 -0.1706
36678SOL    HW212042   7.109   6.409   3.534  1.3398 -0.1999 -0.1378
36679SOL     OW12043   6.875   4.620   6.746 -0.1533 -0.3286  0.4051
36679SOL    HW112044   6.919   4.632   6.662 -1.4151  2.7807  0.0700
36679SOL    HW212045   6.791   4.579   6.724 -0.4002  0.3026  0.1473
36680SOL     OW12046   9.542   5.842   4.081 -0.1322 -0.0508  0.0906
36680SOL    HW112047   9.631   5.858   4.114 -0.5335  1.3411  0.5586
36680SOL    HW212048   9.485   5.894   4.138 -1.1135  0.2267 -1.0965
36681SOL     OW12049   8.836   4.994   6.110  0.1797 -0.2763 -0.0507
36681SOL    HW112050   8.923   5.029   6.092 -0.5691  0.7831 -1.9529
36681SOL    HW212051   8.830   4.915   6.056 -0.4938  0.4018 -0.9921
36682SOL     OW12052   1.558   1.611  10.818  0.4657  0.4880  0.3357
36682SOL    HW112053   1.513   1.630  10.736  1.2674 -1.1433 -0.5350
36682SOL    HW212054   1.644   1.652  10.809  0.2680  1.0197  0.7433
36683SOL     OW12055   9.417   6.988   0.122  0.1518 -0.5791  0.5912
36683SOL    HW112056   9.336   6.946   0.151  0.0588 -0.9923 -0.2370
36683SOL    HW212057   9.464   7.007   0.203 -1.3423  0.8800  1.1708
36684SOL     OW12058   0.779   1.535   0.509 -0.6663  0.0444 -0.1879
36684SOL    HW112059   0.729   1.611   0.540 -2.5138 -0.6813 -1.2395
36684SOL    HW212060   0.826   1.504   0.587  0.5283  2.4943  0.1713
36685SOL     OW12061   2.744   7.989   3.725  0.2578  0.2618  0.2033
36685SOL    HW112062   2.703   7.982   3.811  0.3492  1.5766  0.3730
36685SOL    HW212063   2.746   8.083   3.707 -0.8337 -0.0151 -1.7442
36686SOL     OW12064   0.527   9.596   0.033  0.4024  0.0201 -0.1798
36686SOL    HW112065   0.523   9.540   0.110  0.9580  0.5996  0.2842
36686SOL    HW212066   0.442   9.640   0.031  0.7252  0.7180  0.6733
36687SOL     OW12067   2.744   3.011   1.050  0.0704 -0.7819  0.4696
36687SOL    HW112068   2.680   3.016   1.121  1.0034  1.3375  1.2244
36687SOL    HW212069   2.694   2.979   0.975 -1.9083  0.8098  1.0342
36688SOL     OW12070   0.395  10.710   1.172 -0.0051  0.5469 -0.7276
36688SOL    HW112071   0.391  10.789   1.119 -0.0503  1.1632  0.1751
36688SOL    HW212072   0.489  10.689   1.178  0.1160  1.2587  0.0624
36689SOL     OW12073   2.083  10.119   9.601 -0.3753  0.2765 -0.8252
36689SOL    HW112074   2.172  10.104   9.568  0.2340  2.1212 -0.1952
36689SOL    HW212075   2.074  10.058   9.675 -0.2791 -1.0742 -1.8894
36690SOL     OW12076  10.605   0.728   5.339 -0.3542  0.2238 -0.1524
36690SOL    HW112077  10.611   0.725   5.434  0.0739 -0.3480 -0.1893
36690SOL    HW212078  10.641   0.644   5.310 -0.7448  0.2713 -0.8043
36691SOL     OW12079   7.303   4.313   8.722 -0.1350  1.1249 -0.3175
36691SOL    HW112080   7.329   4.395   8.764  0.6562  0.3234  0.8206
36691SOL    HW212081   7.230   4.337   8.665 -0.9984  2.3438  1.2265
36692SOL     OW12082   2.679   5.015   3.903 -0.2214  0.0948  0.2691
36692SOL    HW112083   2.759   5.011   3.955 -0.2257  1.7497  0.4359
36692SOL    HW212084   2.627   5.085   3.943 -0.8797  0.3928 -1.0549
36693SOL     OW12085   5.102   8.965   4.165 -0.1856  0.2702  0.2849
36693SOL    HW112086   5.144   8.885   4.134  0.5182  0.0032  1.8582
36693SOL    HW212087   5.060   9.001   4.087 -0.5016 -1.6013 -0.4627
36694SOL     OW12088   8.632   5.303   9.801 -0.6499 -0.3067  0.6904
36694SOL    HW112089   8.550   5.269   9.839 -0.5274  1.2793  2.5846
36694SOL    HW212090   8.682   5.225   9.778 -1.8907 -1.3452  1.3452
36695SOL     OW12091   3.308   8.462   5.399 -0.0164 -0.0066 -0.0115
36695SOL    HW112092   3.234   8.418   5.441 -0.9134 -0.3608 -1.8430
36695SOL    HW212093   3.310   8.549   5.440 -0.4680 -0.5169  1.1384
36696SOL     OW12094   2.971   0.078   4.564  0.2990  0.2325  0.2134
36696SOL    HW112095   2.962   0.001   4.620  1.0460  1.2292  1.7703
36696SOL    HW212096   2.953   0.046   4.475  0.3506 -1.6587  0.8524
36697SOL     OW12097   4.296   7.207  10.706 -0.0049  0.3227 -0.1446
36697SOL    HW112098   4.213   7.201  10.659  0.1685 -1.1157 -0.3187
36697SOL    HW212099   4.327   7.296  10.689 -0.4166  0.1711 -1.9791
36698SOL     OW12100  10.954   4.299  11.150  0.9130  0.4187 -0.4465
36698SOL    HW112101  10.895   4.373  11.165  1.9852  1.4438 -1.1520
36698SOL    HW212102  11.039   4.329  11.184  1.3906 -0.4454 -0.8479
36699SOL     OW12103   5.281   8.992   4.705 -0.2714  0.0767  0.1872
36699SOL    HW112104   5.200   8.980   4.754 -0.2893 -2.5385 -0.3405
36699SOL    HW212105   5.256   8.978   4.613  0.5228  0.7814 -0.1547
36700SOL     OW12106   2.065  10.432  10.995  0.1815  0.0401  0.0247
36700SOL    HW112107   2.097  10.426  10.905 -1.2327 -0.7902 -0.4764
36700SOL    HW212108   2.140  10.460  11.047  1.6192 -1.5650 -1.0892
36701SOL     OW12109   2.649   0.568   3.625  0.3141 -0.3334 -0.4087
36701SOL    HW112110   2.694   0.529   3.549  0.0834 -1.8931  0.2153
36701SOL    HW212111   2.702   0.644   3.647  0.3074  0.2563 -2.2149
36702SOL     OW12112   7.749   6.206  10.626  0.0347  0.7793  0.0082
36702SOL    HW112113   7.653   6.210  10.623 -0.0315  0.3417 -3.7219
36702SOL    HW212114   7.777   6.283  10.576  1.5603 -0.0576 -0.4726
36703SOL     OW12115   6.806   0.492   1.443 -0.3744  0.0603  0.3680
36703SOL    HW112116   6.878   0.554   1.430  0.2143 -0.1835  2.1530
36703SOL    HW212117   6.743   0.514   1.374  1.7748 -0.3663 -1.8706
36704SOL     OW12118   1.551  10.130   6.143  0.0162  0.1628 -0.0050
36704SOL    HW112119   1.456  10.134   6.146  0.0414  0.9184  0.0698
36704SOL    HW212120   1.578  10.129   6.235  0.0976  0.6004 -0.0224
36705SOL     OW12121   8.296   4.241   9.753 -0.4325  0.0609 -0.1121
36705SOL    HW112122   8.254   4.184   9.817 -0.6109  1.6144  1.2269
36705SOL    HW212123   8.355   4.184   9.704  2.3011 -0.7387  3.6696
36706SOL     OW12124   8.279   6.582   1.820 -0.3952 -0.3729 -0.0729
36706SOL    HW112125   8.205   6.523   1.808  0.5960 -1.5436 -0.6346
36706SOL    HW212126   8.284   6.596   1.914 -0.6812 -1.1507  0.0648
36707SOL     OW12127   9.637   8.774   8.774  0.7879 -0.1094  0.2063
36707SOL    HW112128   9.656   8.681   8.766  1.1438 -0.1052  0.9432
36707SOL    HW212129   9.708   8.809   8.828 -1.3028 -0.1146  3.1449
36708SOL     OW12130   8.604   4.904   8.874  1.0074  0.1580  0.4156
36708SOL    HW112131   8.554   4.895   8.793  3.3167  1.0050 -1.2082
36708SOL    HW212132   8.595   4.819   8.918 -0.6436 -0.1660 -0.4649
36709SOL     OW12133   2.117   6.031   5.815 -0.6356 -0.4753  0.6681
36709SOL    HW112134   2.088   5.990   5.734  0.8942 -1.1534  0.4218
36709SOL    HW212135   2.149   6.117   5.789 -0.4373 -0.5705  0.5953
36710SOL     OW12136   7.129   3.229   9.563  0.5882 -0.3091 -0.1740
36710SOL    HW112137   7.066   3.205   9.631 -2.4485  1.7258 -2.0001
36710SOL    HW212138   7.078   3.230   9.482  3.2888  0.3695 -2.0087
36711SOL     OW12139   3.946   4.036  10.121 -0.7456  0.4428  0.3463
36711SOL    HW112140   3.853   4.025  10.102 -1.0153  1.1721  1.1772
36711SOL    HW212141   3.948   4.093  10.198  0.4156  1.1641 -0.1974
36712SOL     OW12142   2.917   3.178   7.919  0.2602  0.0640 -0.0106
36712SOL    HW112143   2.971   3.212   7.991 -0.3917  1.0491  0.0241
36712SOL    HW212144   2.901   3.254   7.863  1.1521 -0.7768 -1.4730
36713SOL     OW12145   3.558   0.150   0.438  0.4978  0.5396  0.5757
36713SOL    HW112146   3.634   0.126   0.385  0.0529 -1.3402  0.7468
36713SOL    HW212147   3.566   0.096   0.517 -2.5697 -2.0377 -0.6879
36714SOL     OW12148   9.468   4.798   1.646  0.1994 -0.0785 -0.2269
36714SOL    HW112149   9.440   4.723   1.594 -0.6752  0.2313 -0.2036
36714SOL    HW212150   9.403   4.806   1.716 -0.2830  1.2961 -0.7964
36715SOL     OW12151  10.865   2.453   8.600  0.2416 -0.6822 -0.0765
36715SOL    HW112152  10.915   2.507   8.662  0.1332 -0.4828 -0.1660
36715SOL    HW212153  10.876   2.497   8.516 -2.1327  0.7741  0.2992
36716SOL     OW12154   1.397   6.839   6.243 -0.2735 -0.7505  0.6123
36716SOL    HW112155   1.346   6.764   6.274  1.6162 -2.2430  0.3399
36716SOL    HW212156   1.481   6.830   6.288  1.4100 -1.1250 -2.3442
36717SOL     OW12157   2.897   4.744   2.362 -0.2031 -0.8271  0.5871
36717SOL    HW112158   2.839   4.803   2.315  2.4727 -0.1809 -2.1571
36717SOL    HW212159   2.891   4.661   2.314 -2.2532 -2.3185  3.1084
36718SOL     OW12160   2.992   4.668   4.005  0.0853  0.1781 -0.1794
36718SOL    HW112161   2.901   4.683   3.977 -0.0815 -0.7142 -0.1440
36718SOL    HW212162   3.000   4.717   4.087 -0.0077  1.2133 -0.7715
36719SOL     OW12163   5.798   6.078   4.365 -0.0961 -0.2575  0.4178
36719SOL    HW112164   5.736   6.062   4.436 -3.0355 -2.3704 -2.3005
36719SOL    HW212165   5.743   6.090   4.287  2.8950  1.8357 -1.6179
36720SOL     OW12166   0.895   6.609   8.232 -0.3054 -0.6110  0.6795
36720SOL    HW112167   0.851   6.565   8.160 -0.5833  1.4271 -0.4729
36720SOL    HW212168   0.905   6.700   8.203 -0.3129  0.2712  3.1517
36721SOL     OW12169   8.782   3.107   5.229 -0.4165  0.0169  0.3831
36721SOL    HW112170   8.723   3.056   5.284  0.2150 -1.4359 -0.2580
36721SOL    HW212171   8.726   3.138   5.157 -0.6246 -0.4753  0.3317
36722SOL     OW12172   3.793   9.252  10.097  0.5165 -0.5656 -0.5565
36722SOL    HW112173   3.811   9.278  10.187 -1.9829 -1.4660  0.2844
36722SOL    HW212174   3.868   9.198  10.072  1.0875 -0.5851  1.0942
36723SOL     OW12175   9.355   3.750   8.601 -0.0074 -0.5137  0.7829
36723SOL    HW112176   9.311   3.669   8.627 -0.8118 -0.1756  0.4960
36723SOL    HW212177   9.285   3.814   8.595  0.8145  0.6862  2.8223
36724SOL     OW12178  10.570  10.703  10.821 -0.0841 -0.2887  0.2089
36724SOL    HW112179  10.513  10.626  10.815  0.3354 -0.8654  2.5514
36724SOL    HW212180  10.658  10.669  10.803  0.2466 -0.6593  2.2217
36725SOL     OW12181   4.328  10.274   8.231  0.0627  0.9455  0.3457
36725SOL    HW112182   4.303  10.217   8.303  0.2676  0.6457  0.1839
36725SOL    HW212183   4.364  10.214   8.165  1.5791  1.3881  0.7306
36726SOL     OW12184   4.224   8.437   8.042  0.2323  0.1114 -0.4496
36726SOL    HW112185   4.181   8.400   7.965  1.1742 -2.2422  0.0896
36726SOL    HW212186   4.299   8.485   8.007  0.2551 -0.3491 -1.0397
36727SOL     OW12187   5.976   0.872   7.752  0.3147  0.4894 -0.0547
36727SOL    HW112188   6.010   0.961   7.759 -0.5277  0.8374 -0.2370
36727SOL    HW212189   5.926   0.859   7.832  0.8218 -0.0013  0.1895
36728SOL     OW12190   9.296   1.691   0.653 -0.7168  0.0950 -0.3740
36728SOL    HW112191   9.365   1.750   0.686  0.5237 -1.3177 -0.3463
36728SOL    HW212192   9.276   1.634   0.727 -1.4537  0.0695 -0.5877
36729SOL     OW12193   2.200  11.114   9.080  0.0432 -0.6662 -0.0287
36729SOL    HW112194   2.190  11.170   9.003  2.0192 -1.9851 -1.3630
36729SOL    HW212195   2.219  11.174   9.152  2.1337  0.4588 -1.4143
36730SOL     OW12196   6.027   8.435   4.636  0.3276  0.0452 -0.3968
36730SOL    HW112197   6.075   8.488   4.699 -3.2341  2.5611  0.4998
36730SOL    HW212198   5.969   8.380   4.689 -0.2934 -0.3524 -1.4554
36731SOL     OW12199   4.341  10.599   4.242 -0.5005  0.5098 -0.4136
36731SOL    HW112200   4.249  10.614   4.264 -0.0927  1.2289  0.8715
36731SOL    HW212201   4.338  10.548   4.161 -2.0986 -1.9584  1.0504
36732SOL     OW12202   7.940   5.162   3.332 -0.3015 -0.3679 -0.4222
36732SOL    HW112203   7.965   5.253   3.316  2.0641 -0.7947  0.4551
36732SOL    HW212204   7.893   5.164   3.415 -2.3941  0.3220 -1.5689
36733SOL     OW12205   0.405   4.845  10.527  0.4248 -0.2515 -0.6413
36733SOL    HW112206   0.346   4.829  10.453  0.8660 -2.6278 -0.5578
36733SOL    HW212207   0.422   4.758  10.562  0.3113  0.7991  2.2312
36734SOL     OW12208   8.829   7.171   5.386  1.0234  0.5169 -0.6512
36734SOL    HW112209   8.852   7.127   5.304 -2.4307  0.8951 -1.9675
36734SOL    HW212210   8.893   7.242   5.393  1.1620  0.7662 -3.3181
36735SOL     OW12211   5.341   7.161   6.715 -0.2018 -0.0637 -0.4291
36735SOL    HW112212   5.338   7.071   6.682  2.1887 -0.5148  0.4260
36735SOL    HW212213   5.369   7.213   6.640 -4.8505  0.7104 -2.0013
36736SOL     OW12214   9.093   5.680   5.005 -0.1498 -0.1543 -0.3898
36736SOL    HW112215   9.095   5.709   5.096 -1.4645  0.1219 -0.4405
36736SOL    HW212216   9.050   5.594   5.008  0.7748 -0.6382 -0.6318
36737SOL     OW12217   7.126   3.888   0.103  0.5842  0.7213  0.1341
36737SOL    HW112218   7.111   3.871   0.010  1.7288 -1.3513  0.2732
36737SOL    HW212219   7.214   3.854   0.120  0.8870  2.1553  1.7440
36738SOL     OW12220   5.744   5.725   5.117  0.3056 -0.7180 -0.5399
36738SOL    HW112221   5.837   5.744   5.105 -0.3687  2.5516 -1.5198
36738SOL    HW212222   5.719   5.777   5.193 -0.9484 -0.7733 -0.9029
36739SOL     OW12223  10.649  10.348   4.091 -0.0165  0.1407 -0.6338
36739SOL    HW112224  10.670  10.411   4.022 -1.2070 -0.9626 -2.1025
36739SOL    HW212225  10.569  10.382   4.131  0.6535  0.7604  0.2117
36740SOL     OW12226   3.555   5.290   2.881  0.2883 -0.1392 -0.0596
36740SOL    HW112227   3.471   5.245   2.887  0.7665 -1.3194 -1.5944
36740SOL    HW212228   3.613   5.242   2.941  0.1133  0.1070  0.3098
36741SOL     OW12229   9.187   4.130   6.265 -1.0681 -0.1401 -0.2081
36741SOL    HW112230   9.156   4.057   6.319 -1.7613  0.6039  0.4211
36741SOL    HW212231   9.257   4.170   6.317 -2.2897  1.0829  0.5551
36742SOL     OW12232   9.902   8.710   7.855  0.0247  0.2770  0.1520
36742SOL    HW112233   9.981   8.657   7.845  1.3826  2.2594 -0.1691
36742SOL    HW212234   9.892   8.720   7.950  0.2930  0.1873  0.1907
36743SOL     OW12235   0.939   1.437   2.619 -0.3727 -0.1044 -0.3741
36743SOL    HW112236   1.003   1.469   2.555  1.1660 -1.3753  0.4360
36743SOL    HW212237   0.898   1.362   2.576 -0.7275  0.2153 -0.5918
36744SOL     OW12238   4.738   9.797   4.132 -0.0134  0.3725  0.0733
36744SOL    HW112239   4.811   9.802   4.193  0.4475  0.9846 -0.5125
36744SOL    HW212240   4.765   9.850   4.057 -1.0166  0.5251 -0.2022
36745SOL     OW12241   9.572   7.203   2.510  0.0176 -1.3603 -0.7032
36745SOL    HW112242   9.538   7.262   2.443 -0.9821 -0.1079  0.8612
36745SOL    HW212243   9.665   7.227   2.517  0.0036 -1.1253 -1.2377
36746SOL     OW12244   8.446   3.215   9.466 -0.3247  0.4161  0.1038
36746SOL    HW112245   8.373   3.179   9.417  0.9712  0.0200 -1.6287
36746SOL    HW212246   8.487   3.279   9.407  0.7898  0.5617  0.9821
36747SOL     OW12247   3.854   0.331   9.028  0.3835 -0.0213 -0.3321
36747SOL    HW112248   3.861   0.235   9.021 -2.1229 -0.3773  0.8697
36747SOL    HW212249   3.874   0.350   9.119 -0.7305  0.3859 -0.1650
36748SOL     OW12250  10.633   0.920   2.283  0.3765 -0.0667  0.8038
36748SOL    HW112251  10.718   0.906   2.326  0.1922  0.2876  1.2881
36748SOL    HW212252  10.574   0.857   2.325  0.7867 -1.5820 -0.7635
36749SOL     OW12253   5.657   3.433   4.564 -0.0690  0.0135  0.3535
36749SOL    HW112254   5.668   3.472   4.477 -0.3297 -0.5894  0.0397
36749SOL    HW212255   5.744   3.404   4.588 -0.2717 -1.5048 -0.5477
36750SOL     OW12256   3.876   9.739   1.991  0.2008 -0.0603 -0.3325
36750SOL    HW112257   3.804   9.687   1.956  0.2297  1.1643 -2.3812
36750SOL    HW212258   3.834   9.818   2.027  0.4293  0.1971 -0.6230
36751SOL     OW12259   0.813   1.714  10.519 -0.6682  0.4233  0.0794
36751SOL    HW112260   0.837   1.633  10.473  0.2103  1.7040 -1.8592
36751SOL    HW212261   0.719   1.721  10.508 -0.9387 -0.8494  1.2320
36752SOL     OW12262   9.390   5.056   2.103 -0.2029  0.0909 -0.2748
36752SOL    HW112263   9.327   4.994   2.140  1.2658 -0.4229  1.5352
36752SOL    HW212264   9.343   5.098   2.031 -1.2573 -3.1725 -1.6913
36753SOL     OW12265   7.074   5.508   9.937 -0.5630  0.2398  0.0463
36753SOL    HW112266   7.014   5.471   9.872  2.3570 -0.7249 -2.3391
36753SOL    HW212267   7.131   5.435   9.960  1.2968  1.6784  0.2257
36754SOL     OW12268   3.418   4.673   6.419  0.0676  0.7449  0.1933
36754SOL    HW112269   3.423   4.672   6.514  1.2695  0.7586  0.1425
36754SOL    HW212270   3.447   4.761   6.394  3.9579 -0.4839 -0.3226
36755SOL     OW12271   3.775   1.468   1.307  0.2076  0.2518  0.6161
36755SOL    HW112272   3.842   1.431   1.364 -0.6115  0.3320  1.6518
36755SOL    HW212273   3.760   1.401   1.240  0.2779 -0.3708  1.2206
36756SOL     OW12274   1.253   3.908  11.063 -0.1364  0.2332 -0.4038
36756SOL    HW112275   1.169   3.866  11.048  0.1048 -0.2128 -0.5333
36756SOL    HW212276   1.310   3.838  11.095  1.1077 -0.3293 -3.4037
36757SOL     OW12277   0.441   0.464   6.124 -0.6970  0.3814  0.0548
36757SOL    HW112278   0.377   0.393   6.117 -0.1390 -0.2701  1.2286
36757SOL    HW212279   0.388   0.543   6.136 -1.3420  0.2780 -1.7623
36758SOL     OW12280   3.961   9.672   8.888 -0.6837 -0.0723  0.6151
36758SOL    HW112281   3.901   9.704   8.955 -0.7490 -1.4823  1.2717
36758SOL    HW212282   4.024   9.619   8.936 -0.5974 -0.9260 -0.4033
36759SOL     OW12283   0.465   8.643   9.536 -0.1675  0.2662 -0.3254
36759SOL    HW112284   0.534   8.607   9.480  1.3999  2.0533  0.3268
36759SOL    HW212285   0.418   8.703   9.479 -0.0694  0.3441 -0.3243
36760SOL     OW12286  10.633   1.125  10.917  0.1724  0.7703  0.4503
36760SOL    HW112287  10.577   1.104  10.843  0.5139 -0.9826  0.6537
36760SOL    HW212288  10.662   1.215  10.900  0.7382  0.2247 -1.8927
36761SOL     OW12289   7.356   2.364   2.484  0.4567  0.2159 -0.0093
36761SOL    HW112290   7.380   2.427   2.416  0.5096  0.9800  0.6962
36761SOL    HW212291   7.423   2.375   2.551 -0.6999  0.9519  1.0841
36762SOL     OW12292   2.290   0.113   5.955 -0.4601 -0.3355  0.4080
36762SOL    HW112293   2.287   0.201   5.917 -0.5225 -0.1147  0.9099
36762SOL    HW212294   2.270   0.054   5.882 -0.0866  0.0439 -0.0065
36763SOL     OW12295   8.661   8.382   7.870  0.3163  0.2232 -0.3613
36763SOL    HW112296   8.731   8.408   7.811  0.7226  2.0635  0.8486
36763SOL    HW212297   8.705   8.340   7.943  0.2878  1.9023  0.6815
36764SOL     OW12298   9.140   9.382   9.360  0.0529 -0.7111 -0.0275
36764SOL    HW112299   9.106   9.424   9.281  2.0626 -0.9162 -1.0653
36764SOL    HW212300   9.219   9.432   9.381  0.0206 -1.2084  1.3711
36765SOL     OW12301   3.663   3.186   8.189 -0.5702 -0.7544  0.2765
36765SOL    HW112302   3.672   3.281   8.195 -1.6320 -0.4978 -1.4950
36765SOL    HW212303   3.602   3.172   8.117  0.5008 -2.8110 -0.3281
36766SOL     OW12304   9.690   7.916   9.586  0.7311  0.7719 -0.4140
36766SOL    HW112305   9.664   7.885   9.673 -0.8125 -0.0979 -1.1354
36766SOL    HW212306   9.631   7.989   9.568 -0.0488 -0.0470 -1.3318
36767SOL     OW12307   5.382   8.070   6.073 -0.1103  0.2293 -0.4330
36767SOL    HW112308   5.318   8.045   6.140  1.0582  0.6917  0.8992
36767SOL    HW212309   5.338   8.136   6.020 -0.1318  1.9505  1.6375
36768SOL     OW12310   2.365   6.867   9.607 -0.3202 -0.3608 -0.3480
36768SOL    HW112311   2.385   6.818   9.687  0.6761 -0.6936 -0.7805
36768SOL    HW212312   2.339   6.953   9.637 -4.5487 -1.7413  0.6312
36769SOL     OW12313   4.287   8.196   4.281 -0.1717 -0.4644 -0.5782
36769SOL    HW112314   4.295   8.190   4.186  0.1564 -0.5353 -0.5503
36769SOL    HW212315   4.377   8.186   4.313 -0.2124  0.0759 -0.2857
36770SOL     OW12316   7.336   0.067   4.460 -0.3964 -0.7809  0.4036
36770SOL    HW112317   7.302  -0.010   4.414 -0.9902  0.0912 -0.6721
36770SOL    HW212318   7.371   0.123   4.391  1.7387 -0.8672  1.3260
36771SOL     OW12319   3.713   8.417   1.537  0.0598 -0.6346 -0.2269
36771SOL    HW112320   3.685   8.348   1.597  1.6906 -0.1100  1.2145
36771SOL    HW212321   3.804   8.395   1.517 -0.2117 -0.3601 -1.9416
36772SOL     OW12322   8.700   7.076   6.629 -0.0906 -0.2705 -0.1091
36772SOL    HW112323   8.723   7.099   6.719  1.1148  0.4419 -0.5841
36772SOL    HW212324   8.738   7.145   6.575  1.2023 -1.8737 -1.3648
36773SOL     OW12325   0.017   1.966   4.626 -0.5397 -0.0821  0.8713
36773SOL    HW112326   0.036   1.928   4.540 -3.2108  0.6116 -0.1346
36773SOL    HW212327   0.012   1.891   4.685  0.3401 -0.6641  0.2379
36774SOL     OW12328   6.271   7.299   4.041  0.3103 -0.0650  0.0951
36774SOL    HW112329   6.266   7.355   4.118  1.1901  0.7646 -0.4210
36774SOL    HW212330   6.191   7.247   4.043 -0.1306  0.6287  1.0424
36775SOL     OW12331  10.626   6.663   6.272  0.2804 -0.3322 -0.0293
36775SOL    HW112332  10.536   6.649   6.302 -0.0573 -0.7822 -1.2023
36775SOL    HW212333  10.641   6.594   6.208  1.7891 -0.8115  0.7932
36776SOL     OW12334   5.557   9.855   6.633 -0.1251  0.4440 -0.2051
36776SOL    HW112335   5.547   9.857   6.728  0.3941 -1.4530 -0.0678
36776SOL    HW212336   5.652   9.851   6.619 -0.2377 -0.6712 -0.7339
36777SOL     OW12337   4.920   4.702   9.578 -0.4239 -0.3856 -0.3019
36777SOL    HW112338   4.904   4.746   9.661  2.1715 -1.2499  0.7477
36777SOL    HW212339   4.974   4.764   9.529  0.4014 -0.9939 -0.1820
36778SOL     OW12340   9.778   9.705   6.949 -0.5690  0.6080 -0.3634
36778SOL    HW112341   9.700   9.705   7.004  0.4182 -3.3872  1.3653
36778SOL    HW212342   9.755   9.650   6.874  0.5931 -0.9044  0.3361
36779SOL     OW12343   2.961   2.860  10.564 -0.4538 -0.2161 -0.9632
36779SOL    HW112344   2.911   2.935  10.597  1.0338 -0.0257  1.0714
36779SOL    HW212345   3.027   2.899  10.507 -0.0766 -0.0084 -0.3994
36780SOL     OW12346   2.412   2.252   7.311  0.1779 -1.1727 -0.4826
36780SOL    HW112347   2.464   2.333   7.304  1.9013 -2.1415  0.4653
36780SOL    HW212348   2.321   2.282   7.308  0.7433  0.5647 -2.5241
36781SOL     OW12349   3.679   6.521   8.120 -0.2908 -0.3569 -0.3141
36781SOL    HW112350   3.676   6.562   8.033  0.1059 -0.0463 -0.1843
36781SOL    HW212351   3.735   6.444   8.108  1.5947  0.8757  0.1365
36782SOL     OW12352   2.954   4.364   8.160  0.1448  1.5290  0.1825
36782SOL    HW112353   2.900   4.383   8.084  1.0185 -0.7941 -1.0992
36782SOL    HW212354   2.929   4.276   8.187  0.6050  1.8921  1.9697
36783SOL     OW12355   1.940   3.904   0.369  0.2730 -0.9399  0.1696
36783SOL    HW112356   1.929   3.874   0.459 -0.2276  0.5641  0.6567
36783SOL    HW212357   1.923   3.827   0.315  2.9900 -2.5139  1.3666
36784SOL     OW12358   9.754   6.484   6.105  1.0641 -0.3970  0.2446
36784SOL    HW112359   9.719   6.472   6.194  0.1363  0.6294  0.0289
36784SOL    HW212360   9.805   6.564   6.110 -1.2997  1.2837 -0.7712
36785SOL     OW12361   6.627   0.730   3.799 -0.0094 -0.5063 -0.6272
36785SOL    HW112362   6.697   0.770   3.748  1.5441 -1.1491  0.8880
36785SOL    HW212363   6.672   0.689   3.873 -1.8656 -2.1442 -0.3317
36786SOL     OW12364   2.758   3.202   9.661 -0.0335 -0.3158  0.3195
36786SOL    HW112365   2.799   3.156   9.588  1.3487  1.6971 -0.2690
36786SOL    HW212366   2.831   3.226   9.718 -0.7669  0.6006  0.8986
36787SOL     OW12367   6.363   2.990   7.542  0.0166  0.1114 -0.8242
36787SOL    HW112368   6.379   3.058   7.477 -0.2305 -0.3261 -1.3521
36787SOL    HW212369   6.403   2.911   7.505 -0.7096 -0.2962 -0.7669
36788SOL     OW12370   8.187   1.644   9.504 -0.4922 -0.1340  0.3413
36788SOL    HW112371   8.279   1.637   9.528 -0.9705  0.0592  2.4818
36788SOL    HW212372   8.186   1.650   9.409  1.5197 -3.1391  0.0178
36789SOL     OW12373   3.812   1.705   7.564 -0.2273  0.3583  0.4399
36789SOL    HW112374   3.756   1.781   7.551  1.4366  1.8837  1.6697
36789SOL    HW212375   3.753   1.638   7.599 -1.8278  0.8755 -1.1281
36790SOL     OW12376   6.094   4.965   5.728  0.1793  0.2273  0.1000
36790SOL    HW112377   6.153   4.988   5.799 -0.0621  0.2131  0.3064
36790SOL    HW212378   6.069   4.874   5.745 -0.2526  0.3730  0.2647
36791SOL     OW12379   8.068   7.104   5.105 -0.1485  0.2545 -0.0206
36791SOL    HW112380   8.157   7.089   5.075  0.0334  1.1306  0.0555
36791SOL    HW212381   8.041   7.184   5.061  0.5242  2.2781  2.9282
36792SOL     OW12382  11.100   0.747   6.144 -0.2867  0.7078  0.4525
36792SOL    HW112383  11.166   0.716   6.205  1.3738  2.2368 -0.4845
36792SOL    HW212384  11.116   0.696   6.064 -1.3676 -0.1032  0.7296
36793SOL     OW12385   0.795   6.785  11.248  1.0491 -0.0680 -0.1016
36793SOL    HW112386   0.855   6.746  11.186  0.0493  0.8477 -1.7248
36793SOL    HW212387   0.711   6.789  11.202  0.5509  1.7713  0.8389
36794SOL     OW12388   0.587   0.406   9.668  1.1428 -0.0611 -0.7428
36794SOL    HW112389   0.524   0.431   9.736 -0.1151 -0.1642 -1.8093
36794SOL    HW212390   0.645   0.343   9.710  1.7017  1.4081  0.7991
36795SOL     OW12391   7.074   8.929   5.826  0.0981 -0.1811 -0.2745
36795SOL    HW112392   7.104   8.849   5.870 -1.2638 -0.7645 -0.3602
36795SOL    HW212393   7.138   8.996   5.851 -0.5066 -0.5173  2.4881
36796SOL     OW12394   6.122   5.950   2.119  0.2548 -0.0543  0.3464
36796SOL    HW112395   6.066   5.958   2.042 -2.7517  2.4699  2.5217
36796SOL    HW212396   6.204   5.993   2.095 -1.0032  1.6394 -1.1343
36797SOL     OW12397   2.680   8.362   9.278 -0.1119  0.0966  0.0737
36797SOL    HW112398   2.748   8.318   9.227  1.0278  0.8400  0.8975
36797SOL    HW212399   2.659   8.301   9.349 -0.2092 -0.0778 -0.1051
36798SOL     OW12400   1.818   8.657   9.094  0.1533 -0.4212 -0.2490
36798SOL    HW112401   1.820   8.722   9.024  0.1899 -0.9061 -0.7009
36798SOL    HW212402   1.756   8.693   9.158 -2.2824 -1.3887 -1.9367
36799SOL     OW12403   2.292   7.928   6.676 -0.1197  0.2470 -0.0454
36799SOL    HW112404   2.354   7.977   6.730  1.2402 -1.4515  0.0264
36799SOL    HW212405   2.244   7.873   6.739 -2.1984  1.9602 -0.0240
36800SOL     OW12406   6.685   2.802   6.453  0.3724 -0.1620  0.4702
36800SOL    HW112407   6.687   2.848   6.536  0.8168 -0.4721  0.6371
36800SOL    HW212408   6.727   2.717   6.471  0.6146 -0.1716 -0.0982
36801SOL     OW12409   6.263   8.529   6.971  0.0637  0.3230  0.1576
36801SOL    HW112410   6.276   8.463   7.038 -1.2662  0.5412  0.6605
36801SOL    HW212411   6.252   8.479   6.890 -2.6419 -0.2272  0.7853
36802SOL     OW12412   3.566   6.969   3.817 -0.1416 -0.1803 -0.3845
36802SOL    HW112413   3.629   6.992   3.749  0.3936  1.4110  0.6110
36802SOL    HW212414   3.516   7.049   3.832 -0.5202 -0.6249  0.8171
36803SOL     OW12415   8.374   8.575   0.424  0.0848 -0.2123 -0.1925
36803SOL    HW112416   8.354   8.622   0.505 -1.0755 -0.6807 -0.1884
36803SOL    HW212417   8.351   8.635   0.354  1.1238  0.2078 -0.1898
36804SOL     OW12418   9.268   6.407   5.869 -0.1318  0.1914  0.2184
36804SOL    HW112419   9.335   6.473   5.886 -2.1257  2.2350  0.7049
36804SOL    HW212420   9.198   6.455   5.824 -1.4708 -1.7205  0.1175
36805SOL     OW12421  11.284   0.596   0.877  0.0946 -0.0320 -0.4460
36805SOL    HW112422  11.218   0.635   0.820  0.1504  1.3892  0.4150
36805SOL    HW212423  11.247   0.512   0.903 -1.7019  1.0086  0.5447
36806SOL     OW12424   1.994   1.048   1.382  0.6700 -0.6178  0.4131
36806SOL    HW112425   2.085   1.073   1.396  0.8326 -0.7493 -0.3829
36806SOL    HW212426   1.971   0.996   1.459  0.0640  2.6057  2.6268
36807SOL     OW12427   8.026   6.323   2.978  0.0854 -0.2411 -0.6562
36807SOL    HW112428   8.061   6.240   3.009  1.1600  0.5657  0.4051
36807SOL    HW212429   8.066   6.336   2.892  0.3836 -0.5328 -0.5616
36808SOL     OW12430   4.754   0.743   0.602 -0.0915  0.6033  0.5954
36808SOL    HW112431   4.686   0.748   0.669 -0.2857  1.6230  0.3364
36808SOL    HW212432   4.831   0.709   0.648 -0.4899  0.4017  1.1169
36809SOL     OW12433   4.314   4.992   5.059  0.3037  0.1700 -0.2396
36809SOL    HW112434   4.235   5.009   5.008 -0.0514  0.8131  0.4975
36809SOL    HW212435   4.285   4.933   5.128 -0.1590  2.2908  1.5062
36810SOL     OW12436   9.039   8.214   4.061 -0.4061  0.0899  0.7969
36810SOL    HW112437   8.995   8.298   4.047 -0.9473 -0.5169 -1.5894
36810SOL    HW212438   8.978   8.164   4.116 -0.9433  0.5978  0.6774
36811SOL     OW12439   5.995   4.899   6.035  0.6477  0.1097  0.6368
36811SOL    HW112440   6.021   4.818   5.992 -1.2300  1.4654 -3.5502
36811SOL    HW212441   5.908   4.880   6.071 -0.1516  0.3983 -1.0628
36812SOL     OW12442   6.529  11.226   3.059  0.7507 -0.1029 -0.1872
36812SOL    HW112443   6.580  11.221   3.140 -0.8436 -0.3841  0.8330
36812SOL    HW212444   6.512  11.134   3.036 -2.3236 -0.0540  1.5047
36813SOL     OW12445   8.428   4.070   0.738  0.0953 -0.5053 -0.3498
36813SOL    HW112446   8.491   4.140   0.716  1.8419 -1.6956  0.6411
36813SOL    HW212447   8.424   4.070   0.833 -1.2624 -0.6259 -0.3851
36814SOL     OW12448   5.673   2.090   5.386 -0.5343 -0.8509 -0.5470
36814SOL    HW112449   5.765   2.073   5.408 -1.0725 -1.7507  1.1941
36814SOL    HW212450   5.627   2.008   5.407 -2.1553  0.4640  1.4691
36815SOL     OW12451   1.983   7.521   5.768  0.3153  0.5199  0.0962
36815SOL    HW112452   1.986   7.437   5.721 -0.4573 -1.0626  2.6621
36815SOL    HW212453   1.914   7.570   5.723  0.0137 -0.6614 -0.7974
36816SOL     OW12454   5.596   4.479   2.644 -0.0817  0.4194  0.3628
36816SOL    HW112455   5.659   4.544   2.678  1.1681 -1.0956  1.0494
36816SOL    HW212456   5.513   4.527   2.642  1.0458  2.4975 -0.5665
36817SOL     OW12457   0.230   2.252   6.603  0.2007  0.3158  0.2157
36817SOL    HW112458   0.277   2.169   6.607  1.2099  0.8746  0.1793
36817SOL    HW212459   0.150   2.236   6.653 -0.6053 -1.2789 -1.4589
36818SOL     OW12460   5.507   0.129   7.701  0.2718  0.4309 -0.1541
36818SOL    HW112461   5.483   0.037   7.687  0.4899  0.4712 -0.8621
36818SOL    HW212462   5.438   0.164   7.758 -2.1686  0.8793 -3.0853
36819SOL     OW12463   0.638   8.096   8.088  0.3027 -0.1173 -0.2534
36819SOL    HW112464   0.650   8.134   8.175  0.7164  2.3483 -1.2859
36819SOL    HW212465   0.709   8.033   8.079  0.3600 -0.2773  1.1193
36820SOL     OW12466   5.690   4.096  10.639  0.1071 -0.4131  0.3183
36820SOL    HW112467   5.710   4.164  10.575  1.5413 -1.2537 -0.1823
36820SOL    HW212468   5.701   4.138  10.724  0.0155  0.2284  0.0187
36821SOL     OW12469   3.555   8.362   6.329  0.2707 -0.4311  0.2743
36821SOL    HW112470   3.463   8.388   6.320  0.0091 -0.5973  2.0450
36821SOL    HW212471   3.574   8.311   6.251 -1.0711 -0.2057 -0.2225
36822SOL     OW12472   4.352   4.214   6.764  0.2817 -0.2277 -0.6303
36822SOL    HW112473   4.369   4.191   6.673 -0.8990  0.2244 -0.9712
36822SOL    HW212474   4.309   4.136   6.800 -0.2801  0.0142 -0.7702
36823SOL     OW12475   6.164   8.412   9.677  0.4999  0.0046 -0.6229
36823SOL    HW112476   6.190   8.424   9.768  0.9298 -3.7343 -0.0670
36823SOL    HW212477   6.195   8.490   9.631  0.6608  1.7866  2.3070
36824SOL     OW12478   7.090   4.923  11.249  0.6940 -0.2000 -0.1210
36824SOL    HW112479   7.060   4.836  11.274 -0.0742 -0.0291 -0.4137
36824SOL    HW212480   7.170   4.908  11.199  0.6810 -0.7199  0.0120
36825SOL     OW12481  10.215   1.894   5.501 -0.8740  0.4119 -0.0142
36825SOL    HW112482  10.185   1.899   5.592 -0.4869  0.5879  0.1065
36825SOL    HW212483  10.310   1.896   5.507 -0.7208  4.3512 -0.5716
36826SOL     OW12484   5.570   8.077   5.728  0.1643  0.6070  0.0602
36826SOL    HW112485   5.502   8.135   5.762 -1.0707 -1.2715  0.9480
36826SOL    HW212486   5.523   8.013   5.675  1.0088 -1.5855  1.8265
36827SOL     OW12487  10.221   1.707   8.682 -0.6979  0.5057  0.0891
36827SOL    HW112488  10.229   1.801   8.663 -1.3909  0.6551  0.4850
36827SOL    HW212489  10.294   1.688   8.740 -2.0185  1.4102  2.1543
36828SOL     OW12490   6.600   1.438   8.486  0.3299 -0.1669 -0.0316
36828SOL    HW112491   6.614   1.435   8.392  2.0067 -0.1052  0.1816
36828SOL    HW212492   6.564   1.352   8.509 -0.9422  0.1341 -0.8245
36829SOL     OW12493   2.900   0.893   3.929 -0.1273 -0.2144  0.3456
36829SOL    HW112494   2.986   0.924   3.901  1.1227 -1.4688  2.4902
36829SOL    HW212495   2.903   0.899   4.025 -1.5698 -2.4073  0.5917
36830SOL     OW12496   3.130   0.487   5.562  0.4461 -0.6146  0.3081
36830SOL    HW112497   3.057   0.522   5.614 -0.6302 -0.8183 -1.0135
36830SOL    HW212498   3.199   0.469   5.627 -0.0983  1.0042  1.4110
36831SOL     OW12499  11.010   6.062   9.581 -0.1610 -0.1757 -0.4035
36831SOL    HW112500  10.932   6.088   9.533 -0.4712  1.5585  0.9305
36831SOL    HW212501  11.066   6.140   9.581  1.2683 -1.1640 -0.7249
36832SOL     OW12502  10.439   2.975   1.311 -0.4758  0.2078  0.5416
36832SOL    HW112503  10.507   2.967   1.378  0.2001  2.9954  0.3211
36832SOL    HW212504  10.373   2.910   1.336  0.8131 -0.4088  2.5876
36833SOL     OW12505   8.697   0.905   2.583  0.4119  0.0865  0.0034
36833SOL    HW112506   8.759   0.959   2.632 -0.6197  1.3136 -0.0009
36833SOL    HW212507   8.621   0.897   2.640 -0.6296  1.1710 -1.1637
36834SOL     OW12508   1.314   0.296   7.640 -0.2071 -0.0482 -0.3378
36834SOL    HW112509   1.287   0.378   7.682 -3.0292 -0.4121 -1.2081
36834SOL    HW212510   1.358   0.324   7.560 -0.1163  0.6328 -0.0606
36835SOL     OW12511   7.849   1.292   4.236  0.4903  0.6257 -0.5253
36835SOL    HW112512   7.917   1.235   4.199  2.3973  0.2809  3.1070
36835SOL    HW212513   7.781   1.232   4.264  0.2984  0.6204 -0.9994
36836SOL     OW12514   9.108   6.869  10.577 -0.0607  0.4583 -0.4929
36836SOL    HW112515   9.044   6.905  10.639  0.4919  1.7494 -0.6428
36836SOL    HW212516   9.144   6.945  10.533  1.8424 -0.1905 -0.1631
36837SOL     OW12517   7.110   4.271   7.393  0.5705  0.4998 -0.8853
36837SOL    HW112518   7.082   4.194   7.442 -1.4402  1.8955  0.3337
36837SOL    HW212519   7.037   4.288   7.333  0.1136  2.4148  0.1118
36838SOL     OW12520   6.630   6.872   0.351  0.2431  0.5117  0.3630
36838SOL    HW112521   6.698   6.806   0.337 -0.9273 -0.2246 -2.5747
36838SOL    HW212522   6.556   6.823   0.388 -0.0736  0.4296 -0.3442
36839SOL     OW12523   3.392   6.794  10.481  0.6746 -0.2844  0.6370
36839SOL    HW112524   3.341   6.788  10.562  2.1436  0.4917  1.6838
36839SOL    HW212525   3.367   6.718  10.430  0.4913 -1.3938  2.3199
36840SOL     OW12526   7.766   0.092   9.441  0.0230  0.5258 -0.0349
36840SOL    HW112527   7.741   0.033   9.370 -0.4967  0.5553  0.1187
36840SOL    HW212528   7.703   0.074   9.510  0.7700  0.2098  0.5840
36841SOL     OW12529   1.002   5.638   7.806 -0.0997  0.9610 -0.6374
36841SOL    HW112530   0.910   5.627   7.781  0.2213  0.5269 -1.7021
36841SOL    HW212531   1.017   5.572   7.873 -1.0596  2.3314  1.0211
36842SOL     OW12532  10.779   9.067   6.378  0.2877  0.1881 -0.1455
36842SOL    HW112533  10.867   9.030   6.373  1.0707  1.9675 -0.4981
36842SOL    HW212534  10.774   9.103   6.467 -1.3628 -2.7237  1.0795
36843SOL     OW12535   3.688   1.349   7.468 -0.3821 -0.1212  0.2428
36843SOL    HW112536   3.725   1.407   7.535 -1.2871  0.9852 -0.1619
36843SOL    HW212537   3.736   1.370   7.388  1.1912 -1.9541  0.6455
36844SOL     OW12538   8.949   3.766   1.071  0.1703  0.8014  0.2173
36844SOL    HW112539   8.926   3.732   0.984 -1.3705 -0.8781  1.2191
36844SOL    HW212540   8.917   3.699   1.132  1.0212  2.0458  2.0971
36845SOL     OW12541   9.865   2.462   1.912 -0.2037  0.7609  1.0736
36845SOL    HW112542   9.793   2.423   1.962 -0.5089 -0.0441  0.0306
36845SOL    HW212543   9.863   2.418   1.828  1.1732  1.1335  0.8206
36846SOL     OW12544   7.083   6.805   0.392  0.0735 -0.2528  0.4545
36846SOL    HW112545   7.158   6.862   0.407 -0.1291 -0.4864  2.7840
36846SOL    HW212546   7.096   6.770   0.304  1.1039  2.0103 -0.3515
36847SOL     OW12547   8.288   4.628   1.293 -0.1439 -0.1617  0.4678
36847SOL    HW112548   8.211   4.667   1.335 -0.9078 -0.8806 -0.2367
36847SOL    HW212549   8.360   4.685   1.320 -0.8928  0.4633  1.2390
36848SOL     OW12550   2.734  11.142   3.025  0.0321 -0.2726 -0.7043
36848SOL    HW112551   2.802  11.140   3.093  1.2509 -0.4234 -1.8933
36848SOL    HW212552   2.689  11.226   3.039 -2.7508 -2.0930  3.0473
36849SOL     OW12553   7.639   6.079  10.028  0.7626  0.1967 -0.3814
36849SOL    HW112554   7.591   6.006  10.067  1.2716 -0.1468 -0.3815
36849SOL    HW212555   7.678   6.042   9.948  0.2054  0.7420 -0.9076
36850SOL     OW12556   3.549   4.396   6.207  0.8596 -0.6550  0.7065
36850SOL    HW112557   3.492   4.422   6.134  0.4474  0.1945  1.3162
36850SOL    HW212558   3.614   4.465   6.213  1.7094 -1.4020  0.3019
36851SOL     OW12559  10.071   2.162   9.360 -0.2978  0.7004  0.0031
36851SOL    HW112560  10.063   2.069   9.379  2.2327  0.3772 -0.1487
36851SOL    HW212561  10.065   2.205   9.445  2.0852  0.0230  0.5998
36852SOL     OW12562   2.994  10.120   2.163 -0.1608  0.9971 -0.0001
36852SOL    HW112563   2.987  10.057   2.092 -2.7725  2.7468 -1.4623
36852SOL    HW212564   2.918  10.103   2.218 -0.2215  2.0560  0.2656
36853SOL     OW12565   5.803   8.717   5.213 -0.8901 -0.3941  0.3723
36853SOL    HW112566   5.880   8.727   5.269 -0.8899 -0.7911  0.4467
36853SOL    HW212567   5.733   8.692   5.273 -0.5286 -2.4828  0.0272
36854SOL     OW12568   4.581   2.145   7.840 -0.2095 -0.4522 -0.6609
36854SOL    HW112569   4.580   2.218   7.778  0.5876 -0.3438 -0.5572
36854SOL    HW212570   4.606   2.069   7.786  2.2894 -0.0503 -0.2003
36855SOL     OW12571   2.898   3.862   8.306  0.4882 -0.2900  0.2407
36855SOL    HW112572   2.985   3.822   8.314  0.6080 -0.3363 -1.0430
36855SOL    HW212573   2.882   3.866   8.211 -1.9959 -2.5958  0.4496
36856SOL     OW12574   9.404   6.504   3.176 -0.4920 -0.1544  0.3018
36856SOL    HW112575   9.374   6.415   3.191  0.3012 -0.2781  1.2934
36856SOL    HW212576   9.494   6.495   3.146 -1.0923  0.2467 -1.8139
36857SOL     OW12577   4.348   2.633   3.705 -0.4200 -0.7613 -0.2680
36857SOL    HW112578   4.390   2.548   3.718  0.4734 -0.1001  1.4515
36857SOL    HW212579   4.294   2.645   3.783 -0.0549  0.4918 -0.1852
36858SOL     OW12580   1.852   5.699   7.892 -0.0869 -0.4827 -0.5048
36858SOL    HW112581   1.911   5.745   7.952 -1.5905 -0.5835  1.1156
36858SOL    HW212582   1.770   5.749   7.897 -0.6156 -1.2178 -1.5557
36859SOL     OW12583   3.646   4.821   2.853 -0.4193 -0.7287 -0.3925
36859SOL    HW112584   3.661   4.878   2.928 -1.7069  0.2961 -0.8622
36859SOL    HW212585   3.625   4.736   2.891 -0.3719 -0.4054  0.3796
36860SOL     OW12586   4.545   7.588   9.699  0.4104  0.0396  0.1643
36860SOL    HW112587   4.504   7.591   9.612  1.8749 -2.9355 -0.7682
36860SOL    HW212588   4.638   7.578   9.681  1.0091  1.4454  2.1655
36861SOL     OW12589   2.384   5.527   1.527  0.6614 -0.0346  0.5343
36861SOL    HW112590   2.290   5.521   1.544  1.1663 -0.4065  3.7837
36861SOL    HW212591   2.420   5.445   1.560  2.0068 -0.9683 -2.7641
36862SOL     OW12592   2.071   0.470   6.252  0.4419  0.5826  0.1782
36862SOL    HW112593   2.038   0.489   6.340  1.3618 -1.8401  1.1222
36862SOL    HW212594   2.143   0.532   6.240  0.6384  0.5919  1.3319
36863SOL     OW12595   7.967   2.772   7.584  0.1312  0.1185 -0.3177
36863SOL    HW112596   7.969   2.868   7.586 -1.5270  0.2510 -2.1980
36863SOL    HW212597   7.938   2.751   7.495 -1.1145 -2.0881  0.5553
36864SOL     OW12598   5.001   3.384   2.853  0.8537 -0.6595 -0.0037
36864SOL    HW112599   5.084   3.340   2.870  1.4412  0.8261  1.2332
36864SOL    HW212600   5.010   3.470   2.894 -1.2666 -0.4228  0.1097
36865SOL     OW12601   7.086   6.552   0.846  1.2644  0.3992 -0.2915
36865SOL    HW112602   7.132   6.495   0.908  1.0766  0.0914 -0.4325
36865SOL    HW212603   7.101   6.640   0.880  0.3099  0.1816  0.7829
36866SOL     OW12604   1.501  10.887   2.321 -0.2855  0.4195 -0.0871
36866SOL    HW112605   1.439  10.863   2.252 -0.0358  0.6845 -0.4028
36866SOL    HW212606   1.564  10.944   2.278  0.8119 -0.7029 -0.0314
36867SOL     OW12607   7.226   9.685  10.604 -0.0619 -0.5664 -0.9171
36867SOL    HW112608   7.306   9.736  10.612  0.3073 -1.4196  2.5014
36867SOL    HW212609   7.256   9.597  10.581 -0.1021 -0.6189 -0.7736
36868SOL     OW12610  10.178   1.160   7.279  0.1848 -0.2157 -0.4888
36868SOL    HW112611  10.127   1.103   7.221 -0.0841 -2.3740  1.6936
36868SOL    HW212612  10.238   1.100   7.324 -0.1631  1.1719  1.9984
36869SOL     OW12613   6.114   8.589   9.917  0.5550  0.4215 -0.2851
36869SOL    HW112614   6.088   8.680   9.930 -0.7068  0.2882 -1.7104
36869SOL    HW212615   6.189   8.594   9.858  0.4064  0.5295 -0.4649
36870SOL     OW12616  11.160   7.648   7.526  0.4837 -0.1554  0.2530
36870SOL    HW112617  11.168   7.700   7.606  1.6308 -0.4338  0.3360
36870SOL    HW212618  11.149   7.713   7.457 -2.9499  0.0543  0.8147
36871SOL     OW12619   4.363   8.232   6.343  0.1344  0.5883  0.3203
36871SOL    HW112620   4.439   8.183   6.309  0.3048 -0.6971  2.3543
36871SOL    HW212621   4.287   8.181   6.314  0.1901  0.4600  0.3963
36872SOL     OW12622   0.127   0.163   8.377  0.2321 -0.3582 -0.2718
36872SOL    HW112623   0.041   0.164   8.419  0.1670  1.8217 -0.3684
36872SOL    HW212624   0.112   0.115   8.295 -0.9778  0.2885 -0.4514
36873SOL     OW12625  10.525   1.002   0.069  0.0884 -0.2797  0.3154
36873SOL    HW112626  10.436   1.015   0.102 -0.4278 -1.2638 -0.5981
36873SOL    HW212627  10.528   0.909   0.047  1.8175 -0.5984  1.6407
36874SOL     OW12628   2.005   2.503   6.551 -0.3376  0.1965 -0.6419
36874SOL    HW112629   1.932   2.551   6.591 -2.5346 -2.2403 -1.4572
36874SOL    HW212630   2.040   2.564   6.485 -1.6199  1.4612 -0.2025
36875SOL     OW12631   3.549  10.487   0.778  0.3430  0.0044 -0.4030
36875SOL    HW112632   3.535  10.393   0.774 -0.0894  0.0361  0.2209
36875SOL    HW212633   3.637  10.500   0.743  0.2528 -0.5866 -0.8540
36876SOL     OW12634   8.349   9.323   2.044 -0.9215 -0.6288 -0.7478
36876SOL    HW112635   8.435   9.297   2.010  0.3015  1.2575  0.7009
36876SOL    HW212636   8.302   9.240   2.057  0.9358 -1.7583 -0.9185
36877SOL     OW12637  10.699   3.758   0.242  0.0962 -0.2283  0.3688
36877SOL    HW112638  10.644   3.780   0.166  1.5694  1.1344 -0.3676
36877SOL    HW212639  10.648   3.694   0.291 -2.4094  1.3858  0.0354
36878SOL     OW12640   8.373   6.832   3.038 -0.1943 -0.1878  0.0364
36878SOL    HW112641   8.370   6.743   3.005 -0.8500  0.0114 -0.4466
36878SOL    HW212642   8.402   6.823   3.129  1.3037 -0.7578 -0.4727
36879SOL     OW12643   3.897   5.439   6.798 -0.5418  0.4491  0.0308
36879SOL    HW112644   3.828   5.476   6.853 -0.8139  0.0826 -0.0579
36879SOL    HW212645   3.969   5.420   6.858 -1.2136 -0.8999  0.4483
36880SOL     OW12646   2.993   5.227   3.544  0.0992 -0.1386 -0.1008
36880SOL    HW112647   3.057   5.270   3.600 -0.1662 -2.2272  1.9602
36880SOL    HW212648   2.945   5.299   3.503  1.1711  1.4986  1.3793
36881SOL     OW12649  10.590   9.715   8.665  0.5507  0.6868  0.4173
36881SOL    HW112650  10.520   9.755   8.717 -1.4028 -0.4121 -1.2347
36881SOL    HW212651  10.606   9.777   8.594 -1.6113 -0.7478 -1.4430
36882SOL     OW12652   9.539   0.205   3.594  0.2746 -0.1663 -0.1892
36882SOL    HW112653   9.625   0.235   3.564 -0.0159 -0.2532 -1.1412
36882SOL    HW212654   9.504   0.278   3.645  1.2641 -0.4579  0.9600
36883SOL     OW12655   7.970   8.661   4.432  0.2163 -0.5875 -0.7771
36883SOL    HW112656   8.009   8.575   4.446  0.4881 -0.0696  2.1343
36883SOL    HW212657   7.955   8.665   4.337  2.3917 -2.8599 -1.3179
36884SOL     OW12658   7.031   0.813   5.673  0.0547 -1.0148  0.4742
36884SOL    HW112659   6.991   0.778   5.753  1.8586 -2.5803  0.7746
36884SOL    HW212660   7.028   0.741   5.611  2.1407 -1.1582  0.4585
36885SOL     OW12661   3.999   7.009  10.356  0.1134 -0.1311 -0.0050
36885SOL    HW112662   3.950   7.091  10.350 -0.5436 -0.5055  0.1091
36885SOL    HW212663   4.072   7.028  10.414  0.1798  0.4754 -0.2819
36886SOL     OW12664  10.890   3.270   9.566  1.0553  0.4414 -0.1838
36886SOL    HW112665  10.879   3.282   9.660 -0.9992 -0.6586 -0.2250
36886SOL    HW212666  10.946   3.193   9.558 -1.1604 -1.3416  0.2557
36887SOL     OW12667   8.972   4.175   1.622  0.3899 -0.0910  0.3618
36887SOL    HW112668   8.953   4.180   1.528  3.3138 -0.7689 -0.3713
36887SOL    HW212669   9.011   4.260   1.643  0.3654 -0.1873  0.8060
36888SOL     OW12670   9.713   5.061   2.194 -0.0929  0.6008  0.7207
36888SOL    HW112671   9.627   5.075   2.234 -0.2992 -0.0911  0.5346
36888SOL    HW212672   9.700   5.081   2.101 -0.3788 -0.7027  0.4616
36889SOL     OW12673   9.816  11.225   2.162 -0.8655  0.3773  0.3379
36889SOL    HW112674   9.803  11.131   2.174 -0.1336  0.4002  1.5119
36889SOL    HW212675   9.758  11.248   2.090 -1.5352 -0.8580  0.4492
36890SOL     OW12676   1.567   7.950   2.175 -0.3892  0.0650  0.6577
36890SOL    HW112677   1.591   8.003   2.250 -0.7759  2.0488 -0.5495
36890SOL    HW212678   1.559   7.861   2.210  1.1346  0.6076  2.5823
36891SOL     OW12679   2.829   4.717   4.858 -0.0459  0.4963  0.0877
36891SOL    HW112680   2.747   4.689   4.901  0.6838  0.1837  1.3343
36891SOL    HW212681   2.898   4.675   4.910  1.0315  2.9535  0.7815
36892SOL     OW12682   4.335   6.096   2.947  0.0886  0.4639 -0.0580
36892SOL    HW112683   4.379   6.177   2.974  0.3789  0.3541 -0.1947
36892SOL    HW212684   4.395   6.026   2.973 -1.0846  0.1398  1.9655
36893SOL     OW12685   7.445   6.271   6.393 -0.2238  0.7508  0.4760
36893SOL    HW112686   7.400   6.255   6.476  1.7333 -0.5653  1.3528
36893SOL    HW212687   7.443   6.187   6.348  1.7881  0.4524  0.8245
36894SOL     OW12688   1.660   9.228   1.846 -0.3408 -0.0288 -0.1458
36894SOL    HW112689   1.645   9.321   1.827 -0.8906 -0.0602  0.1265
36894SOL    HW212690   1.610   9.181   1.779 -1.3109 -0.1303  0.6265
36895SOL     OW12691   5.954   7.252   6.299 -0.2686  0.3904  0.3716
36895SOL    HW112692   6.035   7.273   6.253 -0.4125  0.5909  0.2089
36895SOL    HW212693   5.886   7.297   6.249 -0.4376  0.5164  0.7141
36896SOL     OW12694   0.025   2.479   1.968 -0.3876 -0.0322  0.7527
36896SOL    HW112695   0.112   2.515   1.983 -1.2026  1.4853  2.1215
36896SOL    HW212696  -0.010   2.529   1.895 -0.4579 -0.0185  0.7957
36897SOL     OW12697   7.707   3.474   0.308  0.1502 -0.4917  0.7556
36897SOL    HW112698   7.643   3.539   0.337 -0.7561 -0.6190 -0.8169
36897SOL    HW212699   7.660   3.422   0.242  1.0231 -2.3994  1.5686
36898SOL     OW12700   7.617   8.810   2.850  0.4592 -0.0112 -0.1307
36898SOL    HW112701   7.598   8.718   2.829 -0.3761  0.0894  0.1579
36898SOL    HW212702   7.543   8.858   2.814  0.5048  0.4757  0.4220
36899SOL     OW12703   9.836  10.293   4.548  0.0187 -0.1785 -0.1431
36899SOL    HW112704   9.929  10.273   4.554 -0.2234 -1.1735  0.5176
36899SOL    HW212705   9.809  10.305   4.639 -0.5370 -0.0859 -0.3182
36900SOL     OW12706   9.016   9.108   6.169 -0.2816  0.2660 -0.4206
36900SOL    HW112707   9.032   9.024   6.211  1.8206  1.5752  1.6899
36900SOL    HW212708   8.990   9.086   6.080 -0.5951 -2.5964  0.2741
36901SOL     OW12709   0.969   0.620   6.618 -0.5515  0.1428  0.4419
36901SOL    HW112710   0.905   0.582   6.557 -0.4078  0.5773  0.0101
36901SOL    HW212711   1.012   0.545   6.658  1.7153 -0.2819 -2.4602
36902SOL     OW12712   3.604   7.480  10.563  0.2470  0.0645  0.0150
36902SOL    HW112713   3.567   7.561  10.600  0.5737  1.6364 -2.8398
36902SOL    HW212714   3.530   7.420  10.560 -0.7892  1.3120 -0.5889
36903SOL     OW12715   3.685   0.217   6.565  0.2085 -0.3341  0.3357
36903SOL    HW112716   3.643   0.301   6.547 -0.7310 -1.0892 -1.2446
36903SOL    HW212717   3.613   0.154   6.563  1.3071 -1.6879 -2.5433
36904SOL     OW12718  10.032   6.833   8.817 -0.2418  0.2268  0.4164
36904SOL    HW112719   9.958   6.874   8.861 -0.9365 -0.9701  0.3984
36904SOL    HW212720  10.029   6.742   8.845  1.1899  0.1381  0.3597
36905SOL     OW12721  10.165   9.663   3.119 -0.4913 -0.0660  0.3094
36905SOL    HW112722  10.097   9.595   3.130  1.8953 -2.5069  1.2040
36905SOL    HW212723  10.179   9.668   3.024 -1.7543  0.3539  0.1240
36906SOL     OW12724   9.750   7.709   5.375  0.1786 -0.1797  0.2854
36906SOL    HW112725   9.660   7.713   5.406 -0.6285 -0.6969 -1.7839
36906SOL    HW212726   9.776   7.618   5.388 -1.1416 -1.1407 -2.8068
36907SOL     OW12727   3.485   5.646   2.641 -0.1274 -0.3182 -0.3197
36907SOL    HW112728   3.501   5.607   2.555 -0.7006  1.0423 -1.0674
36907SOL    HW212729   3.480   5.571   2.700  0.5449 -1.2685 -1.4146
36908SOL     OW12730   5.799  10.465   7.545 -0.2950  0.2741  0.1055
36908SOL    HW112731   5.894  10.454   7.556  0.0073  1.0185 -1.5246
36908SOL    HW212732   5.784  10.558   7.560 -0.7736  0.1646  0.3322
36909SOL     OW12733   3.957   8.071   6.769  0.2246  0.1297 -0.3181
36909SOL    HW112734   4.043   8.049   6.731 -0.3423 -0.5902 -1.2256
36909SOL    HW212735   3.977   8.099   6.858  1.3400 -0.7963 -0.2504
36910SOL     OW12736   6.613   6.949  10.391 -0.4535  0.3497  0.1675
36910SOL    HW112737   6.549   6.881  10.412 -1.8444  1.1921 -1.1103
36910SOL    HW212738   6.617   7.004  10.469 -0.8587 -0.0476  0.4699
36911SOL     OW12739   2.357   4.543   4.074  0.3452  0.2378  0.3219
36911SOL    HW112740   2.349   4.468   4.015  0.9323  1.5523 -1.5151
36911SOL    HW212741   2.333   4.618   4.020 -1.1897  1.3251  2.3767
36912SOL     OW12742   2.173   9.910   2.680 -0.4356 -0.0127  0.1231
36912SOL    HW112743   2.214   9.831   2.644 -1.0091 -0.7455  1.0233
36912SOL    HW212744   2.112   9.877   2.747 -1.3476  1.1365 -0.1065
36913SOL     OW12745   4.535   9.682   2.264  0.0194  0.0927 -0.5090
36913SOL    HW112746   4.455   9.718   2.224 -0.0611  1.2981  0.7140
36913SOL    HW212747   4.503   9.628   2.336  0.2100 -1.4987 -1.5600
36914SOL     OW12748   3.076   9.639   1.852  0.1656  0.2039 -0.0476
36914SOL    HW112749   3.068   9.543   1.850  1.1743  0.0681  1.2820
36914SOL    HW212750   3.011   9.669   1.788 -0.7267 -1.3283  0.0778
36915SOL     OW12751   6.958   9.228   5.496 -0.2314 -0.1285  0.9381
36915SOL    HW112752   6.864   9.245   5.501 -0.1312  1.5664 -1.2035
36915SOL    HW212753   6.969   9.178   5.416  0.6065 -1.4084  1.8242
36916SOL     OW12754   4.280   0.245   1.424 -0.0827 -0.1221 -0.4202
36916SOL    HW112755   4.273   0.307   1.497  0.7853 -0.9811  0.4181
36916SOL    HW212756   4.333   0.290   1.359  1.2550 -0.2712  0.5303
36917SOL     OW12757   0.405   9.345   7.191 -0.0506 -0.2582 -0.7889
36917SOL    HW112758   0.343   9.276   7.164 -0.6009  0.0537 -0.3541
36917SOL    HW212759   0.485   9.297   7.212 -0.5442 -0.8247 -0.1260
36918SOL     OW12760   2.322   5.595   4.507  0.1944  0.1838 -0.1184
36918SOL    HW112761   2.276   5.677   4.522  0.6457  0.0859  2.3471
36918SOL    HW212762   2.399   5.619   4.456 -0.2708  1.0872 -0.4114
36919SOL     OW12763   4.502   9.371   9.056  0.4301 -0.2013  0.1927
36919SOL    HW112764   4.531   9.405   9.141 -2.4437  2.1064  0.4448
36919SOL    HW212765   4.451   9.293   9.078  1.1175 -0.5977  0.3983
36920SOL     OW12766   0.543   3.294   6.832 -0.6107 -0.0954  0.2799
36920SOL    HW112767   0.502   3.307   6.747  0.5394  0.3371 -0.2257
36920SOL    HW212768   0.626   3.341   6.827 -0.9326  0.7599  1.9707
36921SOL     OW12769   0.571   9.153  10.378  0.2225  0.4768  0.2526
36921SOL    HW112770   0.508   9.209  10.425 -1.3369 -0.0405 -1.1193
36921SOL    HW212771   0.530   9.066  10.379  2.0809 -0.4444  1.3785
36922SOL     OW12772   9.514   5.943   0.678 -0.0796  0.2762 -0.0856
36922SOL    HW112773   9.577   5.880   0.643  0.7673  0.9467  0.2083
36922SOL    HW212774   9.547   5.965   0.765 -0.9027  0.3896  0.2072
36923SOL     OW12775   4.604   9.149   1.865 -0.3243 -0.5742  0.1712
36923SOL    HW112776   4.513   9.173   1.881  0.2267  1.2398  0.8306
36923SOL    HW212777   4.651   9.180   1.942  1.1138  0.2515 -0.9738
36924SOL     OW12778   4.661   9.476   5.763 -0.4555  0.9004 -0.0029
36924SOL    HW112779   4.715   9.441   5.692 -1.1675  1.2743 -0.7411
36924SOL    HW212780   4.617   9.400   5.800  0.9617  0.5082  0.9684
36925SOL     OW12781   1.262   5.026   2.195 -0.3455 -0.9112 -0.8312
36925SOL    HW112782   1.259   5.055   2.286 -0.2046 -0.8205 -0.8567
36925SOL    HW212783   1.315   4.946   2.197 -0.1881 -0.8080 -0.8620
36926SOL     OW12784   9.870   8.466   5.159  0.1328 -0.6050 -0.0677
36926SOL    HW112785   9.910   8.518   5.229  2.2692 -0.9397 -0.9768
36926SOL    HW212786   9.776   8.477   5.172  0.5006  1.3955  1.3039
36927SOL     OW12787   7.652   2.624   7.970 -0.2889 -0.6325  0.3609
36927SOL    HW112788   7.563   2.652   7.992 -0.3902 -1.3510  0.8989
36927SOL    HW212789   7.705   2.646   8.047  0.2027  0.6308 -0.3052
36928SOL     OW12790   6.019   9.930   6.898  0.0045 -1.0307 -0.1491
36928SOL    HW112791   6.018   9.961   6.807  3.1576 -1.7888 -0.5567
36928SOL    HW212792   5.982   9.842   6.893 -0.2837 -0.8867 -0.6134
36929SOL     OW12793   2.579  10.951   9.469 -0.4569 -0.5399 -0.5718
36929SOL    HW112794   2.580  10.858   9.491 -2.1542 -0.6603 -0.8282
36929SOL    HW212795   2.632  10.957   9.389  0.0638 -1.1936 -0.2880
36930SOL     OW12796   8.683   9.510  10.829  0.9047  0.4276  0.1366
36930SOL    HW112797   8.687   9.595  10.785  1.7285  1.0364  1.3399
36930SOL    HW212798   8.592   9.504  10.859  0.7473  0.7076 -0.2669
36931SOL     OW12799   1.765   4.234   1.668  0.1794  0.5520 -0.4797
36931SOL    HW112800   1.834   4.201   1.726  1.1549  0.9572 -1.4011
36931SOL    HW212801   1.684   4.197   1.705  0.7513  0.8882  1.2100
36932SOL     OW12802  10.884   8.318   1.800  0.1417  0.2386  0.4357
36932SOL    HW112803  10.789   8.326   1.814 -0.0033 -0.9134  0.2465
36932SOL    HW212804  10.910   8.402   1.764 -0.7626  0.6677  0.7465
36933SOL     OW12805   4.405  11.028   7.744 -0.4306  0.0688 -0.6296
36933SOL    HW112806   4.440  11.019   7.833 -0.0198 -0.2410 -0.8170
36933SOL    HW212807   4.321  10.982   7.746  1.1844 -3.2102 -1.3024
36934SOL     OW12808   3.023   3.723   6.841 -0.3603  0.0990 -0.4053
36934SOL    HW112809   3.035   3.814   6.867 -0.0098 -0.2594  0.7821
36934SOL    HW212810   2.947   3.693   6.891 -1.3453  0.1023 -1.8334
36935SOL     OW12811   7.397   0.878   5.391 -0.0557  0.7495 -0.7079
36935SOL    HW112812   7.415   0.822   5.467 -0.9317 -1.3820 -1.9637
36935SOL    HW212813   7.346   0.951   5.425  2.1728  1.5082  1.2130
36936SOL     OW12814   0.895   9.720   1.501  0.2189 -0.1424  0.4776
36936SOL    HW112815   0.833   9.685   1.437 -1.2148 -0.1125  1.7875
36936SOL    HW212816   0.937   9.643   1.539  2.0359 -0.1324 -1.3204
36937SOL     OW12817   6.574  11.247   7.532  0.6140 -0.0346 -0.2709
36937SOL    HW112818   6.614  11.189   7.597 -0.0255  0.6440  0.7695
36937SOL    HW212819   6.530  11.315   7.584 -1.1173 -0.2388 -1.3682
36938SOL     OW12820   6.278   9.194   3.086  0.5401  0.5518  0.0678
36938SOL    HW112821   6.185   9.199   3.107  0.4430 -1.5872  0.3771
36938SOL    HW212822   6.320   9.171   3.169  0.9109 -1.7614 -0.7005
36939SOL     OW12823   9.093   5.119   5.774  0.3872 -0.6716 -0.3475
36939SOL    HW112824   9.029   5.189   5.770  1.7821  0.8702  2.1670
36939SOL    HW212825   9.041   5.039   5.767 -1.9052  0.4919  1.7425
36940SOL     OW12826   8.530   2.334  10.294  0.6973  0.2776 -0.3218
36940SOL    HW112827   8.474   2.260  10.270  0.6393  0.7653 -1.7231
36940SOL    HW212828   8.476   2.386  10.354  0.8844 -1.0039  1.0073
36941SOL     OW12829  10.850   8.700   5.861 -0.1491 -0.0497  0.2839
36941SOL    HW112830  10.906   8.775   5.882 -0.0379  0.1030 -0.5196
36941SOL    HW212831  10.761   8.732   5.871 -0.1202 -0.3708  1.8416
36942SOL     OW12832   0.163   9.814   2.975 -0.1013  0.6462  0.0309
36942SOL    HW112833   0.233   9.756   2.945  1.5646  1.5053  2.0122
36942SOL    HW212834   0.093   9.802   2.912  1.4037 -1.1145 -1.4043
36943SOL     OW12835   5.158   2.293   7.271  0.5278  0.2498  0.1772
36943SOL    HW112836   5.200   2.239   7.204  3.2225  1.8356  0.4360
36943SOL    HW212837   5.127   2.231   7.337  1.6565 -1.0899 -0.5018
36944SOL     OW12838   0.917   2.779   0.225  0.1770 -0.1337  0.2532
36944SOL    HW112839   0.913   2.822   0.140  0.4297  0.4099  0.5119
36944SOL    HW212840   0.886   2.845   0.287  0.3778 -0.3912  0.6319
36945SOL     OW12841   5.519   7.528  10.369 -0.3691 -0.4000  0.8630
36945SOL    HW112842   5.495   7.436  10.361 -3.2706  0.3235  0.2874
36945SOL    HW212843   5.445   7.576  10.332  0.7496  2.2141  1.7702
36946SOL     OW12844   8.859   3.336   1.315 -0.6523 -0.5975  0.2246
36946SOL    HW112845   8.903   3.270   1.261 -0.0749 -0.5220  0.6032
36946SOL    HW212846   8.890   3.420   1.280  1.3834 -0.5351  1.9826
36947SOL     OW12847  10.513   6.831   5.991 -0.2488 -0.5779 -0.6404
36947SOL    HW112848  10.595   6.851   6.035  0.8567 -3.1782 -1.3080
36947SOL    HW212849  10.469   6.769   6.049 -2.2950  1.5086  0.1825
36948SOL     OW12850   8.747   9.583   8.069  0.2944  0.3166  0.3323
36948SOL    HW112851   8.750   9.679   8.068  0.0823  0.3345  1.1798
36948SOL    HW212852   8.748   9.559   7.976 -2.5910  1.2327 -0.0416
36949SOL     OW12853   1.077  10.842  11.243  0.0838 -0.4714  1.2833
36949SOL    HW112854   1.064  10.925  11.196  1.1754 -1.0684 -0.1656
36949SOL    HW212855   1.070  10.865  11.335 -0.6691  1.0384  0.8810
36950SOL     OW12856   0.432   8.959   4.894  0.1617 -1.1800  0.8807
36950SOL    HW112857   0.352   9.002   4.863  1.2760  0.8113  0.6102
36950SOL    HW212858   0.500   8.987   4.832  1.3401 -1.7235  1.8925
36951SOL     OW12859   9.706   3.616   8.898 -0.2500 -0.0170  0.0680
36951SOL    HW112860   9.739   3.703   8.876  0.1913 -0.0532  0.5629
36951SOL    HW212861   9.784   3.568   8.926 -0.6300 -0.2850  0.6837
36952SOL     OW12862  11.277  10.931   8.595  0.3145 -0.7845 -0.0590
36952SOL    HW112863  11.212  10.980   8.645  1.3504  0.2870  0.2744
36952SOL    HW212864  11.347  10.912   8.657  1.8906  1.0792 -1.1789
36953SOL     OW12865   7.597   7.435   4.546 -0.0356  0.8102 -0.3597
36953SOL    HW112866   7.688   7.403   4.546 -0.6288 -0.9703 -0.7766
36953SOL    HW212867   7.584   7.470   4.458 -0.3462 -0.8038 -0.9857
36954SOL     OW12868   5.543   8.665   4.538  0.2757 -0.6126 -0.2168
36954SOL    HW112869   5.496   8.607   4.478  0.4233 -0.5244 -0.4160
36954SOL    HW212870   5.576   8.607   4.606 -0.9148 -0.5665  0.4364
36955SOL     OW12871   5.702   8.168   3.017 -0.0297  0.1109  0.0105
36955SOL    HW112872   5.793   8.146   2.996  0.0830 -0.7504  1.2919
36955SOL    HW212873   5.702   8.185   3.111 -1.2517 -0.2432  0.0972
36956SOL     OW12874   1.321   9.985   1.709  0.0081  0.1025  0.2412
36956SOL    HW112875   1.356   9.979   1.620  1.1770  0.2127  0.6707
36956SOL    HW212876   1.283  10.073   1.714  0.6638  0.3968  0.0947
36957SOL     OW12877   9.255   0.024   2.632 -0.2710 -0.1815  0.2084
36957SOL    HW112878   9.181   0.078   2.658 -0.4580 -0.0308 -0.6208
36957SOL    HW212879   9.326   0.086   2.615 -0.0480 -0.3035  0.6900
36958SOL     OW12880   5.450   9.821   9.747  0.2531 -0.5979  0.3224
36958SOL    HW112881   5.486   9.872   9.675 -0.6078  2.0850  1.6866
36958SOL    HW212882   5.377   9.873   9.780  1.1439 -1.2529  3.7177
36959SOL     OW12883   3.968   6.851   1.830  0.8410 -0.1230  0.5570
36959SOL    HW112884   4.019   6.832   1.909  1.6460 -0.0619  0.0623
36959SOL    HW212885   4.016   6.920   1.786 -0.2157  0.6416  0.5695
36960SOL     OW12886  10.606   4.976   6.706  0.1443 -0.1530  0.3297
36960SOL    HW112887  10.528   4.926   6.729 -0.1059  0.0399 -0.0910
36960SOL    HW212888  10.676   4.911   6.699  0.1590 -0.2539  1.3092
36961SOL     OW12889   2.505   0.880   9.436 -0.0356  0.3049  0.2120
36961SOL    HW112890   2.497   0.880   9.340 -0.1070 -0.7683  0.2055
36961SOL    HW212891   2.424   0.921   9.467 -1.0243 -1.2778 -0.1483
36962SOL     OW12892   5.422   6.863   2.699 -0.1485  0.1267  0.5123
36962SOL    HW112893   5.378   6.806   2.636  0.7481  0.7425 -0.7087
36962SOL    HW212894   5.466   6.929   2.645  0.0100  1.1332  1.8220
36963SOL     OW12895   9.774   8.936   9.198  0.1284  0.1815 -0.5850
36963SOL    HW112896   9.694   8.942   9.250  0.3718 -1.1777 -0.0134
36963SOL    HW212897   9.809   8.849   9.218  1.0810  0.2636 -1.7968
36964SOL     OW12898   6.690   8.089   9.415 -0.4282  0.8903 -0.3101
36964SOL    HW112899   6.781   8.061   9.411 -0.5935  0.4161 -0.8627
36964SOL    HW212900   6.691   8.166   9.472 -0.3222 -1.7910  3.7833
36965SOL     OW12901   2.118   2.445   1.819  0.0425  0.1565  0.5660
36965SOL    HW112902   2.112   2.369   1.877  1.6707 -0.0763  0.4797
36965SOL    HW212903   2.124   2.408   1.731  1.8885  0.2982  0.5966
36966SOL     OW12904   2.513   0.861   1.216  0.2512 -0.6197 -0.6462
36966SOL    HW112905   2.609   0.853   1.223  0.1942 -2.2899 -1.2715
36966SOL    HW212906   2.496   0.857   1.122 -0.5132 -1.7154 -0.4759
36967SOL     OW12907   1.111   3.934   7.420  0.0147  0.1022 -0.0477
36967SOL    HW112908   1.040   3.930   7.356 -0.0528  1.0420 -0.0543
36967SOL    HW212909   1.185   3.971   7.371  0.6508 -1.2391 -0.1491
36968SOL     OW12910   5.847   4.673   0.692  0.2788 -0.1869 -0.1784
36968SOL    HW112911   5.916   4.644   0.632  0.3986 -0.8219  0.2698
36968SOL    HW212912   5.780   4.606   0.686 -0.4104  0.5241 -0.7616
36969SOL     OW12913   7.226   5.104   4.288 -0.6200 -1.0758 -0.1040
36969SOL    HW112914   7.246   5.062   4.373  1.5780 -1.1345 -0.5927
36969SOL    HW212915   7.163   5.173   4.310 -0.7690 -1.6419  1.4314
36970SOL     OW12916  10.222   1.516  10.909 -0.0858  0.0559  0.4687
36970SOL    HW112917  10.228   1.590  10.848  1.2862 -1.7778 -1.7996
36970SOL    HW212918  10.157   1.543  10.973 -1.0784  2.4348 -1.3863
36971SOL     OW12919   1.046   0.571   0.404  0.4045  0.0051 -0.6060
36971SOL    HW112920   1.036   0.666   0.392  0.3480  0.2224  0.9929
36971SOL    HW212921   1.043   0.558   0.499 -0.5939 -1.7282 -0.8401
36972SOL     OW12922   2.325  10.457   6.496 -0.2274 -0.3360  0.3813
36972SOL    HW112923   2.386  10.525   6.467  1.1782 -1.3665  0.7695
36972SOL    HW212924   2.338  10.454   6.591 -1.0474 -0.4428  0.4937
36973SOL     OW12925   2.437   5.820   5.007 -0.0500 -0.1713 -0.6830
36973SOL    HW112926   2.360   5.788   4.959  0.0352  0.1510 -1.0371
36973SOL    HW212927   2.443   5.762   5.083 -1.3692  0.5473  0.0064
36974SOL     OW12928   0.962   0.708   2.468 -0.1898 -0.1349  0.5939
36974SOL    HW112929   1.022   0.727   2.540  0.4651 -0.3171  0.1054
36974SOL    HW212930   0.925   0.623   2.490  0.7951 -0.6763  0.2108
36975SOL     OW12931   2.512   1.777  11.026  0.0952 -0.0479 -0.2399
36975SOL    HW112932   2.430   1.811  10.989 -0.5444 -0.5791  0.6524
36975SOL    HW212933   2.581   1.820  10.975 -0.7112  1.3052 -0.2352
36976SOL     OW12934   8.226   0.735   1.596  0.3733  0.2129 -0.0814
36976SOL    HW112935   8.196   0.645   1.600  1.4142 -0.1342  0.3547
36976SOL    HW212936   8.147   0.787   1.581 -0.5930 -0.5345  2.0698
36977SOL     OW12937   0.132   1.594   5.562  0.7037  0.0557  0.1727
36977SOL    HW112938   0.193   1.534   5.604  0.1826 -0.9323 -0.4628
36977SOL    HW212939   0.099   1.648   5.634 -0.5463 -1.9219  1.1481
36978SOL     OW12940   7.429   2.883   1.123 -0.1716  0.1667  0.4234
36978SOL    HW112941   7.348   2.836   1.106  1.7597 -3.9786  1.4963
36978SOL    HW212942   7.437   2.944   1.050 -3.6913  0.0648 -0.2049
36979SOL     OW12943   0.530   6.752   6.379  0.6337 -0.3245 -1.0547
36979SOL    HW112944   0.571   6.709   6.455 -0.6255 -1.2037 -0.8238
36979SOL    HW212945   0.591   6.737   6.307  1.0442 -0.9964 -0.5828
36980SOL     OW12946   4.720   4.721   2.432 -0.7715  0.1761  0.2300
36980SOL    HW112947   4.748   4.630   2.426 -1.8786 -0.1418 -0.4125
36980SOL    HW212948   4.639   4.725   2.382  0.9156  2.2572 -2.6388
36981SOL     OW12949   5.766  10.144   3.371 -0.5378 -0.0197 -0.3919
36981SOL    HW112950   5.857  10.119   3.357 -0.1356  0.6715  0.8798
36981SOL    HW212951   5.758  10.230   3.330 -0.5643  0.0174 -0.3085
36982SOL     OW12952  10.161   5.360   0.187  0.0435 -0.5177 -0.0887
36982SOL    HW112953  10.183   5.280   0.139  1.2781 -0.3074  0.0739
36982SOL    HW212954  10.207   5.351   0.270  0.2756  0.3916 -0.1030
36983SOL     OW12955   9.699   0.596   0.467  0.1123  0.0502 -0.3694
36983SOL    HW112956   9.611   0.625   0.442 -0.4990  0.8985  2.4174
36983SOL    HW212957   9.685   0.512   0.510  0.3466  1.0076  1.7006
36984SOL     OW12958   6.710   0.229   8.103  0.4492 -0.4027  0.3747
36984SOL    HW112959   6.665   0.145   8.113 -1.1730  0.5266  1.1950
36984SOL    HW212960   6.685   0.259   8.016  0.2687 -0.3295  0.4518
36985SOL     OW12961  11.242   2.634   1.729 -0.3121  0.1050 -0.3045
36985SOL    HW112962  11.323   2.664   1.688 -0.9729 -0.6835 -2.3213
36985SOL    HW212963  11.191   2.713   1.745  1.2151  0.7298  1.9867
36986SOL     OW12964   6.434   9.627   8.308 -0.3650 -0.0769 -0.3168
36986SOL    HW112965   6.511   9.679   8.330 -0.4534  1.7126 -3.5680
36986SOL    HW212966   6.470   9.544   8.275  0.1238  0.1712 -0.4274
36987SOL     OW12967   2.171   3.819   5.890  0.4095 -0.9673  0.1856
36987SOL    HW112968   2.175   3.848   5.981  0.5763 -1.6196  0.3915
36987SOL    HW212969   2.238   3.751   5.883 -0.4203 -1.7857 -0.1050
36988SOL     OW12970  10.289  10.996   3.517 -0.7821  0.0152 -0.4008
36988SOL    HW112971  10.197  11.024   3.517 -1.6034 -2.3469  0.1092
36988SOL    HW212972  10.289  10.917   3.573  1.6200  0.1082 -0.1838
36989SOL     OW12973   3.012   8.059   0.951 -0.8387 -0.2514 -0.2116
36989SOL    HW112974   3.102   8.063   0.985 -0.4410 -3.0304 -0.6753
36989SOL    HW212975   2.963   8.121   1.005  1.1430  0.5921  0.7281
36990SOL     OW12976   7.333   7.600   5.598 -0.0000 -0.1139 -0.0508
36990SOL    HW112977   7.394   7.640   5.659 -0.4109 -2.1688  1.8512
36990SOL    HW212978   7.247   7.625   5.629 -0.2070  0.7785 -1.2678
36991SOL     OW12979   2.332   6.052   4.599  0.0339 -0.8983 -0.1368
36991SOL    HW112980   2.347   6.079   4.690 -0.3180  0.7817 -0.5420
36991SOL    HW212981   2.407   5.997   4.577  0.7221 -0.3591  0.8017
36992SOL     OW12982   9.355  10.499   9.328  0.4574 -0.5440  0.5895
36992SOL    HW112983   9.387  10.417   9.365 -0.8385 -0.6993  1.4111
36992SOL    HW212984   9.303  10.539   9.398 -1.4317 -0.4729 -0.7815
36993SOL     OW12985   1.253   3.344   9.651  0.3797 -0.4340  0.5349
36993SOL    HW112986   1.169   3.300   9.641 -0.1213  0.0017  2.4524
36993SOL    HW212987   1.294   3.337   9.565 -1.2299 -1.4273 -0.1973
36994SOL     OW12988   1.197   0.232   5.810  0.4184 -0.1627 -0.2299
36994SOL    HW112989   1.221   0.269   5.895 -0.2479 -0.9650  0.3339
36994SOL    HW212990   1.188   0.138   5.827  3.4377 -0.8822 -1.9083
36995SOL     OW12991   6.598   4.943   4.549  0.5143  0.6461 -0.4375
36995SOL    HW112992   6.601   5.030   4.508  0.2671  0.0434 -1.7774
36995SOL    HW212993   6.513   4.907   4.522  1.9285 -1.2936 -2.6643
36996SOL     OW12994   8.667   2.981   7.958  0.4002 -0.1541 -0.0995
36996SOL    HW112995   8.698   2.895   7.988  0.1394 -0.7689 -1.5112
36996SOL    HW212996   8.661   2.973   7.863 -1.5491  0.7697 -0.1219
36997SOL     OW12997   8.973   9.401   8.090 -0.2359 -0.3188  0.4505
36997SOL    HW112998   8.898   9.451   8.056  1.4933  1.5257 -0.8880
36997SOL    HW212999   8.985   9.433   8.179 -1.8215 -1.6502  1.2034
36998SOL     OW13000   5.528   8.658   9.260 -0.9906  1.0488 -0.0952
36998SOL    HW113001   5.455   8.627   9.205 -0.9751 -0.3460  0.6232
36998SOL    HW213002   5.570   8.578   9.290 -0.5608  1.8037  1.3775
36999SOL     OW13003   2.351  10.225   7.432 -0.1414  0.6083 -0.0206
36999SOL    HW113004   2.349  10.319   7.414 -1.9736  0.6758  0.3379
36999SOL    HW213005   2.302  10.216   7.514 -0.2731 -0.6852 -0.2268
37000SOL     OW13006   6.502   0.019   9.256  1.0756  0.7784  0.0239
37000SOL    HW113007   6.546   0.104   9.251  0.4352  1.0681 -0.9643
37000SOL    HW213008   6.422   0.030   9.204  0.3339 -0.0426  0.9383
37001SOL     OW13009   3.569   6.684   9.762 -0.0220  0.1072  0.7387
37001SOL    HW113010   3.567   6.773   9.799 -2.3917 -0.3403  1.8688
37001SOL    HW213011   3.530   6.629   9.830  3.0499 -2.2000  0.8645
37002SOL     OW13012   8.094  10.947   5.141 -0.5793  0.0330 -0.4208
37002SOL    HW113013   8.185  10.974   5.136 -0.8906  1.3944  0.5419
37002SOL    HW213014   8.048  11.009   5.084 -0.6948 -2.0185 -2.7352
37003SOL     OW13015   2.214  10.942   2.633 -0.2432  0.0763  0.4529
37003SOL    HW113016   2.208  10.855   2.593  0.9540  0.7972 -1.4524
37003SOL    HW213017   2.123  10.973   2.636 -0.6105 -0.9561  0.4917
37004SOL     OW13018   7.856   3.066   6.506 -0.1216 -0.5058  0.3406
37004SOL    HW113019   7.927   3.114   6.548 -0.2542  0.0183 -0.0176
37004SOL    HW213020   7.888   2.976   6.500  0.4277 -0.3167  0.3752
37005SOL     OW13021   3.286  10.853   5.186 -0.3016  0.1123 -0.1080
37005SOL    HW113022   3.254  10.872   5.274  1.3209 -0.8022  0.7379
37005SOL    HW213023   3.325  10.766   5.194 -2.4012 -1.1815 -2.3852
37006SOL     OW13024   3.040   9.762   3.812  0.2997 -0.0575 -0.0453
37006SOL    HW113025   3.008   9.726   3.729  0.7922  0.5990 -0.5286
37006SOL    HW213026   3.021   9.855   3.806 -0.5647 -0.1447  1.0106
37007SOL     OW13027   2.786   9.194   7.065 -0.4130 -0.6027 -0.7029
37007SOL    HW113028   2.761   9.275   7.020 -1.0511 -1.1273 -1.3144
37007SOL    HW213029   2.858   9.158   7.013  0.2468 -0.1585 -0.1177
37008SOL     OW13030   8.975   0.122   1.076 -0.1227 -0.5005  0.3443
37008SOL    HW113031   8.983   0.142   0.983 -1.9749 -1.7331 -0.1289
37008SOL    HW213032   9.063   0.136   1.111  0.9535 -1.3509 -1.8490
37009SOL     OW13033   0.130   9.299   3.561 -0.6893 -0.9229  1.3028
37009SOL    HW113034   0.106   9.365   3.627 -1.3381  0.8417 -0.5972
37009SOL    HW213035   0.070   9.227   3.576 -2.4979  0.4883  1.1362
37010SOL     OW13036   3.436   0.416   5.529 -0.3901  0.0071  0.3554
37010SOL    HW113037   3.507   0.367   5.569 -0.0504  0.6661  0.5746
37010SOL    HW213038   3.434   0.387   5.438 -0.8280 -1.1158  0.7027
37011SOL     OW13039   5.187   9.892   9.980  0.7528  0.5952 -0.1928
37011SOL    HW113040   5.125   9.928  10.044  1.1879 -0.4149  0.8235
37011SOL    HW213041   5.202   9.802  10.008  1.8763  0.4912 -1.0391
37012SOL     OW13042   9.688  10.702  11.056 -0.6786  0.0602 -0.3582
37012SOL    HW113043   9.783  10.694  11.049 -0.5754 -0.0899  0.9824
37012SOL    HW213044   9.663  10.635  11.120 -1.9602 -1.2976 -2.2020
37013SOL     OW13045   6.648   1.737   3.396  0.9098  0.1657 -0.2381
37013SOL    HW113046   6.722   1.779   3.440  2.2626 -1.7914 -0.5544
37013SOL    HW213047   6.687   1.672   3.338 -1.0269 -0.3164 -1.0914
37014SOL     OW13048   9.410   0.597   0.148  0.4630 -0.2830 -0.2685
37014SOL    HW113049   9.355   0.538   0.096 -0.1716 -0.2508  0.3432
37014SOL    HW213050   9.397   0.568   0.238  1.5590 -0.3428 -0.1246
37015SOL     OW13051   5.540   5.594  11.122  0.0259  0.1190  0.2557
37015SOL    HW113052   5.489   5.606  11.042 -1.6181  1.0790  1.3533
37015SOL    HW213053   5.517   5.506  11.152 -0.8461  0.4491  0.6069
37016SOL     OW13054  10.876   8.271   2.678  0.4265  0.1299 -0.0455
37016SOL    HW113055  10.881   8.178   2.655 -2.2415  0.2626 -1.6658
37016SOL    HW213056  10.836   8.312   2.602  2.1083  2.7759  0.3724
37017SOL     OW13057  11.201  10.685   1.297  0.1404 -0.4762  0.0912
37017SOL    HW113058  11.172  10.690   1.206  0.2162  1.1629  0.1327
37017SOL    HW213059  11.296  10.678   1.291  0.1044 -0.9696  0.0430
37018SOL     OW13060   8.399   4.729  10.315 -0.5313 -0.5986 -0.6915
37018SOL    HW113061   8.481   4.701  10.357 -0.7770 -2.4044 -1.3407
37018SOL    HW213062   8.344   4.759  10.388  0.2571 -0.5121 -0.1168
37019SOL     OW13063   2.087   9.333   7.809  0.2958 -0.0938  1.0816
37019SOL    HW113064   2.061   9.241   7.813 -2.1952  0.5273  0.9343
37019SOL    HW213065   2.011   9.377   7.771  0.9315  2.2102  2.3090
37020SOL     OW13066  10.446   1.986  10.061 -0.0431  0.2370  0.3616
37020SOL    HW113067  10.409   2.024  10.140 -0.8998  1.2833 -0.5157
37020SOL    HW213068  10.483   1.902  10.090 -1.0054  0.2479  1.7218
37021SOL     OW13069   2.864   1.863   1.743 -0.9777 -0.3728 -0.2928
37021SOL    HW113070   2.849   1.951   1.778  1.1703 -0.3080  0.6376
37021SOL    HW213071   2.807   1.806   1.795  0.2301  0.0642  1.5939
37022SOL     OW13072  11.007   4.805   7.830 -1.4487 -0.6623  0.0882
37022SOL    HW113073  11.033   4.713   7.823  2.7515  0.2674  0.3614
37022SOL    HW213074  11.016   4.840   7.742 -0.4574 -0.0346  0.4133
37023SOL     OW13075   0.519   5.147   6.038 -0.5992  1.3786 -0.2484
37023SOL    HW113076   0.485   5.214   5.978  1.2687  0.2680 -2.7143
37023SOL    HW213077   0.483   5.065   6.004  0.6303  0.7063  0.0356
37024SOL     OW13078   6.959   5.002   9.572  0.3087  0.3436  0.6732
37024SOL    HW113079   6.875   4.960   9.590  0.7457 -0.6217  0.5606
37024SOL    HW213080   7.016   4.971   9.643  1.1102 -0.6838 -0.3802
37025SOL     OW13081   3.956   5.027   8.076 -0.2358  0.4008 -0.4067
37025SOL    HW113082   3.974   5.110   8.120  1.8472 -0.4501  0.4978
37025SOL    HW213083   3.881   4.991   8.122  0.7531  0.3948  1.3017
37026SOL     OW13084  10.556  10.020   7.197  0.2350  0.5643 -0.0891
37026SOL    HW113085  10.608   9.942   7.216  0.2433  1.0958  2.4549
37026SOL    HW213086  10.607  10.068   7.132  0.6036 -1.1311 -1.1078
37027SOL     OW13087   1.714   1.956   9.612 -0.0599 -0.2776  0.0885
37027SOL    HW113088   1.626   1.923   9.632  0.8807 -2.7334  0.4908
37027SOL    HW213089   1.726   2.029   9.672 -2.0669  0.6213 -0.4860
37028SOL     OW13090   1.338   8.305   1.240 -0.8101  0.2998 -0.8045
37028SOL    HW113091   1.431   8.298   1.218 -0.7276 -0.8446 -0.1745
37028SOL    HW213092   1.313   8.394   1.213  0.3979  0.5301 -1.2077
37029SOL     OW13093   2.137   8.304   0.967  0.2573 -0.2902 -0.4852
37029SOL    HW113094   2.124   8.319   0.873 -0.9029 -0.4437 -0.3730
37029SOL    HW213095   2.155   8.210   0.974 -0.5216 -0.4473 -0.4899
37030SOL     OW13096   4.315   0.721   1.814 -0.4946  0.5548 -0.4932
37030SOL    HW113097   4.250   0.712   1.884 -1.5279  3.2961 -0.9809
37030SOL    HW213098   4.265   0.720   1.733  0.4046  0.0136 -1.0679
37031SOL     OW13099  11.137   7.365  10.302 -0.5613 -0.1888 -0.6875
37031SOL    HW113100  11.128   7.460  10.304 -1.0498 -0.2391  0.1220
37031SOL    HW213101  11.053   7.333  10.268 -0.1572 -0.3067 -1.5854
37032SOL     OW13102   3.276   5.848   3.656 -0.4866 -0.2876  0.3037
37032SOL    HW113103   3.338   5.787   3.614 -0.1589 -0.1085  0.5198
37032SOL    HW213104   3.326   5.887   3.728 -0.6310  0.3730  0.0528
37033SOL     OW13105  10.499   5.739   5.002  0.1874  0.2864 -0.2497
37033SOL    HW113106  10.517   5.796   5.076 -0.4219  1.0437 -0.6640
37033SOL    HW213107  10.455   5.796   4.938  0.9648 -0.2708 -1.3144
37034SOL     OW13108   0.958   3.916   1.836  0.2358  0.2500 -0.2985
37034SOL    HW113109   0.997   3.909   1.748 -0.8814 -0.1185 -0.7888
37034SOL    HW213110   0.864   3.928   1.819 -0.2664 -1.5929  0.8454
37035SOL     OW13111   4.487  10.757   0.927  0.3629  0.4615 -0.3290
37035SOL    HW113112   4.530  10.674   0.906  0.8111  0.9050 -1.2277
37035SOL    HW213113   4.401  10.751   0.885  0.2383  0.2917 -0.0514
37036SOL     OW13114   9.652  11.142   5.459  0.1831 -0.1883  0.5047
37036SOL    HW113115   9.589  11.070   5.463  0.7016 -0.8257 -1.5819
37036SOL    HW213116   9.674  11.159   5.551 -0.4177 -2.2795  1.0983
37037SOL     OW13117   8.314   9.179   8.890 -0.5173 -0.3896 -0.1436
37037SOL    HW113118   8.292   9.205   8.800 -0.4276 -0.4419 -0.1804
37037SOL    HW213119   8.276   9.092   8.900 -0.5100 -0.3924 -0.1377
37038SOL     OW13120   4.110   4.571   0.848  0.0281 -0.7348 -0.7658
37038SOL    HW113121   4.134   4.523   0.927  0.6976 -1.1704 -1.2286
37038SOL    HW213122   4.016   4.589   0.859  0.2876 -0.0548  0.5006
37039SOL     OW13123   0.336   5.644   4.793 -0.2805  0.2387  0.2788
37039SOL    HW113124   0.414   5.591   4.779  0.2746  0.8836  0.8718
37039SOL    HW213125   0.307   5.620   4.881  1.3508  2.5751  1.5855
37040SOL     OW13126   3.257  10.123  10.261 -0.5652  0.5192  0.4502
37040SOL    HW113127   3.191  10.055  10.275  0.5927 -0.6793  0.1604
37040SOL    HW213128   3.308  10.124  10.342 -1.1230  1.7064  0.8244
37041SOL     OW13129   9.431   0.270   9.255  0.6365 -0.0210  0.0957
37041SOL    HW113130   9.409   0.309   9.339 -0.1385 -0.4460  0.0973
37041SOL    HW213131   9.453   0.344   9.199 -0.1884  0.3692  0.2801
37042SOL     OW13132   7.547   1.833   5.780 -0.3496  0.2707  0.0977
37042SOL    HW113133   7.458   1.866   5.792  0.6063  2.7663  1.2149
37042SOL    HW213134   7.554   1.814   5.687 -2.0662 -0.0763  0.0074
37043SOL     OW13135   4.704   9.058   3.805 -0.6223  0.0080  0.2590
37043SOL    HW113136   4.788   9.032   3.845  0.1145  1.4448 -0.2683
37043SOL    HW213137   4.661   8.975   3.783  0.0690 -0.7811  1.7269
37044SOL     OW13138  10.061   2.372   8.936  0.1956  0.8156  0.1540
37044SOL    HW113139   9.980   2.325   8.957 -0.8704  2.1518 -0.8008
37044SOL    HW213140  10.100   2.391   9.022 -0.1895 -0.3231  0.6107
37045SOL     OW13141   8.354   4.328   4.612 -0.3398 -0.2918  0.0675
37045SOL    HW113142   8.322   4.241   4.590 -2.4179  0.4126  0.0212
37045SOL    HW213143   8.441   4.333   4.573  1.3074 -3.4565  2.8553
37046SOL     OW13144   5.120   2.461   4.880  0.3522  0.4850  0.2613
37046SOL    HW113145   5.197   2.423   4.838 -0.2283  0.2644 -0.6267
37046SOL    HW213146   5.096   2.397   4.947  0.8905  0.5263  0.5033
37047SOL     OW13147  11.126   1.226   7.022 -0.6281 -0.1636 -0.1633
37047SOL    HW113148  11.085   1.165   7.085  2.2910 -1.9173  0.2100
37047SOL    HW213149  11.124   1.179   6.939  0.8658 -0.4596 -0.0577
37048SOL     OW13150   7.776   6.665   5.663  0.6372  0.3087 -0.4675
37048SOL    HW113151   7.822   6.626   5.589 -0.7159 -0.8740 -0.7214
37048SOL    HW213152   7.693   6.617   5.669 -0.2083  1.7950  0.5013
37049SOL     OW13153   5.645   0.024  10.335 -0.1341  0.1388 -0.9204
37049SOL    HW113154   5.658   0.039  10.242 -0.1780  2.6531 -0.5873
37049SOL    HW213155   5.732  -0.001  10.367  0.0911  0.1861 -1.4858
37050SOL     OW13156   2.717  10.615   1.985  0.8448  0.1797  0.6857
37050SOL    HW113157   2.672  10.627   1.901  2.7797  2.8680 -0.0831
37050SOL    HW213158   2.659  10.655   2.049  0.0222 -0.5974  0.4473
37051SOL     OW13159   1.114   6.376  10.529 -0.5118 -0.4787 -0.1097
37051SOL    HW113160   1.161   6.459  10.522 -2.4543  0.7329  0.1471
37051SOL    HW213161   1.065   6.370  10.446  1.5575 -2.7423 -1.3000
37052SOL     OW13162   3.349   8.129   8.020 -0.1568  0.2494 -0.0645
37052SOL    HW113163   3.275   8.099   7.966 -0.7348  2.6549 -0.7337
37052SOL    HW213164   3.395   8.192   7.965 -0.0116  1.8391  1.7756
37053SOL     OW13165   2.667   2.507   9.368  0.6835  0.0744 -0.4206
37053SOL    HW113166   2.742   2.468   9.323  1.1728 -1.4987  1.6271
37053SOL    HW213167   2.669   2.468   9.455 -0.5398  2.5735  0.8098
37054SOL     OW13168   5.689   6.150   1.164  0.6497  0.8211 -0.1954
37054SOL    HW113169   5.640   6.114   1.238  0.0023  2.8357  0.4309
37054SOL    HW213170   5.679   6.086   1.094 -2.3580  0.8174  0.1182
37055SOL     OW13171   8.144   9.666   2.948 -0.6189  0.7255  0.4245
37055SOL    HW113172   8.200   9.717   3.007  0.7372  0.0955 -0.2811
37055SOL    HW213173   8.057   9.672   2.987  0.4053 -0.6155  3.1762
37056SOL     OW13174   9.089   1.337  10.709 -0.4614  0.1609 -0.1445
37056SOL    HW113175   9.145   1.263  10.733 -3.1180 -2.1484 -0.5812
37056SOL    HW213176   9.003   1.316  10.747 -1.8617  1.9557 -2.0845
37057SOL     OW13177   1.942   8.229   9.029 -0.0463  0.9103 -0.0227
37057SOL    HW113178   1.880   8.167   8.992 -1.4485  1.1762  1.7136
37057SOL    HW213179   1.997   8.177   9.088  0.5346  0.8968 -0.5646
37058SOL     OW13180   1.326   1.394   2.735 -0.0208  0.0421  0.8249
37058SOL    HW113181   1.231   1.394   2.725  0.2380  0.6347 -3.9886
37058SOL    HW213182   1.353   1.308   2.705  1.0279  0.6441 -0.0212
37059SOL     OW13183   1.467   2.693   2.306 -0.0988  0.4373  0.3387
37059SOL    HW113184   1.415   2.620   2.338  1.9567 -0.8969  0.8657
37059SOL    HW213185   1.418   2.771   2.331 -1.5853 -0.7193  1.1784
37060SOL     OW13186   0.212   1.501   2.563 -0.1401  0.7204 -0.7543
37060SOL    HW113187   0.297   1.460   2.583  0.2133  1.0639 -1.4983
37060SOL    HW213188   0.147   1.441   2.598  0.4010  2.1655  3.1906
37061SOL     OW13189  10.299   1.023   2.153 -0.6143  0.5177  0.1650
37061SOL    HW113190  10.258   0.989   2.232 -1.7687 -0.6901 -0.9051
37061SOL    HW213191  10.292   0.952   2.090 -1.2603  2.0084 -1.5399
37062SOL     OW13192   7.975   2.334   7.516  0.4069  0.3317 -0.2964
37062SOL    HW113193   8.028   2.290   7.450  0.7351 -1.7893  1.2993
37062SOL    HW213194   7.888   2.343   7.475  0.9433  0.3399 -1.4916
37063SOL     OW13195   8.806   6.613  10.756  0.4274 -0.4485 -0.2091
37063SOL    HW113196   8.820   6.640  10.665  2.0221  2.0894  0.6824
37063SOL    HW213197   8.799   6.695  10.805  0.6661 -1.7249  2.1313
37064SOL     OW13198   8.823   3.200   7.987  0.1543 -0.2028 -0.0356
37064SOL    HW113199   8.791   3.235   8.070 -0.5793 -0.8275 -0.0363
37064SOL    HW213200   8.776   3.117   7.977  2.2282 -1.4766  0.2411
37065SOL     OW13201  10.190   3.396   7.712 -0.5319 -0.3767 -0.1207
37065SOL    HW113202  10.258   3.405   7.645 -0.4069 -2.1032 -0.2775
37065SOL    HW213203  10.212   3.314   7.757  0.3549  1.4384  3.1567
37066SOL     OW13204   5.987   2.182   6.864  0.1361  0.5737  0.8218
37066SOL    HW113205   5.947   2.257   6.819 -1.1429  0.2175  1.3059
37066SOL    HW213206   5.922   2.112   6.855  2.5531 -1.5634 -2.4207
37067SOL     OW13207   3.989   7.562   9.077 -0.1312 -1.2948  0.3365
37067SOL    HW113208   3.948   7.630   9.024 -1.0130 -1.2393  1.0609
37067SOL    HW213209   3.989   7.484   9.022  1.3038 -0.6188 -0.6723
37068SOL     OW13210   7.793   3.388   6.128 -0.5141  0.8485  1.1593
37068SOL    HW113211   7.816   3.386   6.220 -1.7226  0.6513  1.4743
37068SOL    HW213212   7.875   3.374   6.082  0.1709  1.3813  2.1936
37069SOL     OW13213   3.088   1.000   6.991 -0.8909 -0.1194  0.3420
37069SOL    HW113214   3.057   1.025   7.078  0.2882 -1.3566  1.1712
37069SOL    HW213215   3.168   1.051   6.979 -2.4682  2.1411 -1.2593
37070SOL     OW13216   4.950   1.303   4.518  0.3338 -0.4452 -0.0765
37070SOL    HW113217   4.904   1.220   4.528 -0.4091 -0.0146  0.1702
37070SOL    HW213218   4.931   1.331   4.429 -0.1315 -0.1247  0.1204
37071SOL     OW13219   4.558   4.152   3.916  0.0805  0.2096  0.6248
37071SOL    HW113220   4.580   4.085   3.852  1.5830  0.0968  1.2069
37071SOL    HW213221   4.638   4.205   3.923 -0.2102  0.5146  2.0208
37072SOL     OW13222   4.833  10.628   5.393 -0.2829  0.4634 -0.1694
37072SOL    HW113223   4.911  10.588   5.431 -1.1507 -1.2901 -0.1180
37072SOL    HW213224   4.821  10.583   5.309 -1.5285  0.3024  0.0645
37073SOL     OW13225   6.727   7.074   7.922  0.3055 -0.8729 -0.3310
37073SOL    HW113226   6.769   6.988   7.924 -1.0751 -1.6285 -1.8915
37073SOL    HW213227   6.792   7.132   7.883  0.7313 -1.5246 -0.6048
37074SOL     OW13228   4.314   0.142   3.854 -0.1627 -0.1315 -0.4484
37074SOL    HW113229   4.333   0.202   3.926 -0.6761 -1.9282  1.2719
37074SOL    HW213230   4.289   0.199   3.781  3.4779  1.9175 -0.2920
37075SOL     OW13231   7.072   1.112   3.404 -0.8008 -0.4376  0.0851
37075SOL    HW113232   7.057   1.125   3.311  1.9505  1.4793 -0.1906
37075SOL    HW213233   6.984   1.095   3.440 -2.2305  0.9079 -2.4920
37076SOL     OW13234   6.784   6.542   1.987  0.3962 -0.0736 -0.1281
37076SOL    HW113235   6.776   6.455   2.028  0.0129 -0.0708 -0.1970
37076SOL    HW213236   6.785   6.603   2.061 -0.3379 -0.0653 -0.1188
37077SOL     OW13237   3.414   6.488   4.558  0.0635 -0.3288 -0.0367
37077SOL    HW113238   3.506   6.486   4.532  0.2956  1.5814  0.4773
37077SOL    HW213239   3.414   6.532   4.643 -1.4451  1.2240 -0.7721
37078SOL     OW13240   4.763   9.457   0.416 -0.2920  0.2969 -0.2358
37078SOL    HW113241   4.725   9.371   0.400  0.4333 -0.1684  0.4211
37078SOL    HW213242   4.764   9.499   0.330  1.1992 -1.1409 -0.9967
37079SOL     OW13243   1.451   2.080   6.338  0.3363 -0.0493  0.0436
37079SOL    HW113244   1.364   2.068   6.299 -0.0340 -0.8886  1.0862
37079SOL    HW213245   1.449   2.169   6.372  0.3031  0.3372 -0.9140
37080SOL     OW13246   8.330   9.341   6.342 -0.0946  0.0341 -0.1700
37080SOL    HW113247   8.235   9.350   6.337 -0.1120 -0.3864 -0.6889
37080SOL    HW213248   8.343   9.256   6.384  0.0470  0.0438 -0.1946
37081SOL     OW13249   8.085   9.673   1.272 -0.3807  0.6719  0.9743
37081SOL    HW113250   7.995   9.662   1.302 -0.8502 -0.8036 -0.8189
37081SOL    HW213251   8.085   9.757   1.226 -0.6212  1.0313  1.6108
37082SOL     OW13252   6.023   5.425   2.653  0.1647 -0.1530  0.3372
37082SOL    HW113253   6.069   5.354   2.697 -1.7352 -1.6116  0.1050
37082SOL    HW213254   5.974   5.469   2.723  0.1643 -0.0174  0.2528
37083SOL     OW13255   9.051   2.222   9.834 -0.7208  0.4302  0.2396
37083SOL    HW113256   9.019   2.298   9.787  1.4340 -1.4151 -4.9168
37083SOL    HW213257   8.976   2.161   9.835 -0.0361 -0.9170 -4.7344
37084SOL     OW13258   1.549   9.888   6.499  0.0297  0.4278 -0.2419
37084SOL    HW113259   1.468   9.935   6.519 -0.1730 -0.5413  1.4196
37084SOL    HW213260   1.520   9.800   6.474  0.5378 -0.6457  2.5030
37085SOL     OW13261   0.771   2.677   6.867 -0.4052  0.1138  0.6939
37085SOL    HW113262   0.699   2.657   6.807  2.4550 -1.6233 -2.5159
37085SOL    HW213263   0.795   2.593   6.906  1.6392  0.0603 -0.5431
37086SOL     OW13264   6.478   1.208   8.014  0.5999 -0.6688 -0.1304
37086SOL    HW113265   6.466   1.206   7.919 -1.3786  0.9427  0.0171
37086SOL    HW213266   6.542   1.278   8.028 -0.0107 -0.0904 -0.2162
37087SOL     OW13267  10.860   8.522   4.124  0.0075 -0.3174  0.2146
37087SOL    HW113268  10.915   8.534   4.201 -2.0470 -0.5005  1.7825
37087SOL    HW213269  10.818   8.606   4.111  0.2685 -0.3139 -0.6876
37088SOL     OW13270   3.996   8.509   6.594 -0.8108  0.3035 -0.0168
37088SOL    HW113271   4.015   8.433   6.539 -0.9907 -0.0659  0.4107
37088SOL    HW213272   4.020   8.585   6.542 -0.7000 -0.0507 -0.4829
37089SOL     OW13273   2.614   0.699   3.225  0.5462  0.6865 -0.6204
37089SOL    HW113274   2.551   0.758   3.266 -0.6245  0.2646 -1.7158
37089SOL    HW213275   2.678   0.756   3.183 -0.2377  1.1785 -1.1718
37090SOL     OW13276   5.329   0.525   3.319  0.3381  0.0310 -0.1855
37090SOL    HW113277   5.257   0.471   3.351  0.1913 -0.7023 -1.6991
37090SOL    HW213278   5.391   0.528   3.392  1.3756 -4.0056 -0.6989
37091SOL     OW13279  10.273   8.920   3.094  0.2039 -0.5256  0.2928
37091SOL    HW113280  10.219   8.891   3.167  0.2477  0.1268  0.5853
37091SOL    HW213281  10.256   8.855   3.025 -2.1260  0.4714 -0.1606
37092SOL     OW13282   9.222   1.625   6.962 -0.2339  0.0495  0.2291
37092SOL    HW113283   9.312   1.604   6.940 -0.3169 -3.9143  2.6587
37092SOL    HW213284   9.183   1.656   6.880  3.5719  3.6026 -0.5375
37093SOL     OW13285   1.477   9.807   8.450 -0.3158  0.1594 -0.1579
37093SOL    HW113286   1.502   9.772   8.364  1.0109 -2.2614  1.1138
37093SOL    HW213287   1.480   9.902   8.438  0.1564 -0.0793 -2.6826
37094SOL     OW13288   7.242   9.852   2.464  0.4063  0.8364  0.1019
37094SOL    HW113289   7.303   9.780   2.450  1.7740  1.8323  0.6093
37094SOL    HW213290   7.211   9.841   2.554 -1.3104 -0.4574 -0.5972
37095SOL     OW13291   5.054  10.684   0.604 -0.1299  0.0036 -0.1797
37095SOL    HW113292   5.110  10.615   0.639  0.3182  0.2274 -0.4375
37095SOL    HW213293   5.096  10.765   0.630 -1.1014  0.2039  0.8350
37096SOL     OW13294   7.665  10.383   3.752  0.2282  0.3576 -0.4138
37096SOL    HW113295   7.759  10.386   3.737  0.3547 -0.6291  0.1273
37096SOL    HW213296   7.645  10.290   3.764 -0.9422  0.4605 -1.3206
37097SOL     OW13297   9.826   2.720   7.729 -0.1850  0.2000 -0.3046
37097SOL    HW113298   9.841   2.810   7.755 -3.8858  1.4568 -1.7712
37097SOL    HW213299   9.818   2.723   7.633  0.8917 -1.9454 -0.5239
37098SOL     OW13300   4.932   7.454   9.026  0.1535  0.1972 -0.4409
37098SOL    HW113301   4.949   7.371   8.981  2.0837  0.2917  0.0146
37098SOL    HW213302   5.016   7.477   9.066 -1.1650  0.6995  2.2636
37099SOL     OW13303   0.316   9.583   5.888 -0.3086 -1.1488  0.1686
37099SOL    HW113304   0.314   9.490   5.912  0.7606 -0.5602  2.9152
37099SOL    HW213305   0.391   9.618   5.935 -1.1707  1.2773 -0.1527
37100SOL     OW13306   2.766   2.215   4.456 -0.6243 -1.0083 -0.3276
37100SOL    HW113307   2.705   2.176   4.394 -0.5537 -0.9385 -0.4410
37100SOL    HW213308   2.802   2.140   4.503 -0.3801 -1.0927 -0.6460
37101SOL     OW13309   6.327   1.862   1.563 -0.1818 -0.4408  0.3225
37101SOL    HW113310   6.409   1.912   1.566 -0.4097 -0.1156  1.3436
37101SOL    HW213311   6.327   1.811   1.645 -2.2853  1.6200  1.7230
37102SOL     OW13312   4.491   8.864   6.867  0.0592 -0.2228 -0.0188
37102SOL    HW113313   4.533   8.901   6.945 -0.5326  3.8429 -1.3584
37102SOL    HW213314   4.399   8.855   6.892 -0.3528  2.1493 -0.4276
37103SOL     OW13315   5.677   9.635   5.452 -0.2798  0.2375  0.0258
37103SOL    HW113316   5.597   9.613   5.500 -1.7012 -0.3525 -2.4586
37103SOL    HW213317   5.646   9.675   5.371  1.8790 -1.2937 -1.6693
37104SOL     OW13318   8.324   9.597   5.733 -0.0127 -0.0709 -0.0770
37104SOL    HW113319   8.290   9.681   5.765  0.0448  0.5182 -1.4757
37104SOL    HW213320   8.409   9.587   5.777 -0.5412  0.0136  0.9953
37105SOL     OW13321   9.445   0.570   9.177 -0.3075 -0.3279 -0.0885
37105SOL    HW113322   9.471   0.629   9.106 -2.0455  0.7076  0.0815
37105SOL    HW213323   9.407   0.628   9.243 -0.2973 -1.4583  0.9401
37106SOL     OW13324   7.630   9.188   7.111  0.0938  0.3737 -0.0976
37106SOL    HW113325   7.549   9.144   7.136  0.5174  0.2654  1.1505
37106SOL    HW213326   7.603   9.276   7.084 -0.3748  0.5744  0.9873
37107SOL     OW13327   7.026   6.057   1.829 -0.8036 -0.3117 -1.1775
37107SOL    HW113328   7.068   5.974   1.851  3.7537  2.1688  0.7347
37107SOL    HW213329   6.988   6.087   1.912 -0.2083  0.6348 -1.2397
37108SOL     OW13330  10.041  10.315  11.145  0.4483  0.3349  0.4267
37108SOL    HW113331  10.090  10.278  11.218 -1.5106  0.1104  1.7041
37108SOL    HW213332   9.955  10.272  11.149  0.5890 -0.4977 -2.6986
37109SOL     OW13333   6.455   7.717   4.565  0.2733 -0.5626  0.1319
37109SOL    HW113334   6.424   7.627   4.550 -0.2866 -0.7359  2.0616
37109SOL    HW213335   6.379   7.762   4.601  0.4110  0.8518 -1.2567
37110SOL     OW13336   8.095   2.636   7.783 -0.2146 -0.4011  0.0210
37110SOL    HW113337   8.034   2.670   7.718 -1.6142  1.0088  1.9508
37110SOL    HW213338   8.166   2.598   7.732  0.3675  3.4147 -2.3865
37111SOL     OW13339   5.623   7.394   8.259  0.0966 -0.5614 -0.1838
37111SOL    HW113340   5.626   7.303   8.287  1.8909 -1.6794 -3.4068
37111SOL    HW213341   5.571   7.392   8.179 -1.6003  1.6830  0.7719
37112SOL     OW13342   4.788   9.545   4.834 -0.2949  0.2208 -0.4848
37112SOL    HW113343   4.735   9.624   4.838 -1.0639 -0.2739 -0.6572
37112SOL    HW213344   4.814   9.528   4.924  0.7895  1.2636 -0.5759
37113SOL     OW13345   1.812   6.722   9.037 -0.3260  0.3682 -0.1680
37113SOL    HW113346   1.767   6.763   8.963  2.0359  1.6195 -1.0071
37113SOL    HW213347   1.853   6.644   8.999  0.8861  1.0092 -0.1998
37114SOL     OW13348   1.533   0.446   8.209 -0.0134 -0.5275 -0.1932
37114SOL    HW113349   1.442   0.464   8.234 -1.0843 -1.1435 -3.2621
37114SOL    HW213350   1.545   0.352   8.225 -0.2888 -0.6762 -0.8721
37115SOL     OW13351   6.807   7.427   2.447  0.0798 -0.3556  0.5071
37115SOL    HW113352   6.821   7.348   2.498  0.3274 -0.4252  0.3362
37115SOL    HW213353   6.824   7.499   2.508  0.5295 -0.4388  0.4861
37116SOL     OW13354   9.266   6.528   8.775  0.2418 -0.0630  0.0470
37116SOL    HW113355   9.220   6.591   8.830  1.5361 -0.1010  1.2202
37116SOL    HW213356   9.226   6.444   8.797 -0.1723  0.0895 -0.0981
37117SOL     OW13357  10.463   8.135   6.446 -0.2714 -0.2899  0.6873
37117SOL    HW113358  10.416   8.073   6.390  1.5616 -0.6012 -0.6078
37117SOL    HW213359  10.435   8.221   6.415 -0.3838 -0.4702  0.2831
37118SOL     OW13360  10.397   8.025   1.469  0.1671 -0.0993  0.0417
37118SOL    HW113361  10.318   8.019   1.523  1.5887 -0.2447  2.2036
37118SOL    HW213362  10.447   8.096   1.508  1.4894 -0.5610 -0.7625
37119SOL     OW13363   2.574   7.166   8.841  0.2454  0.5071  0.3823
37119SOL    HW113364   2.661   7.141   8.811 -0.8078 -0.1294 -2.4455
37119SOL    HW213365   2.522   7.086   8.837 -0.7756  1.1107  0.9245
37120SOL     OW13366   5.387   6.184   9.566  0.0472 -0.5471  0.3652
37120SOL    HW113367   5.362   6.111   9.623 -0.1788  0.4271  1.5684
37120SOL    HW213368   5.328   6.177   9.491 -0.8920 -0.8193  1.1077
37121SOL     OW13369  11.008   7.016  10.168  0.1933 -0.6474  0.5018
37121SOL    HW113370  10.995   7.031  10.261  0.4386  0.1480  0.4117
37121SOL    HW213371  10.946   6.946  10.146  1.0932 -1.8193  1.5457
37122SOL     OW13372   4.045   7.041   8.125 -0.7281  0.8057  0.6034
37122SOL    HW113373   3.955   7.068   8.143 -2.2344 -3.3716  0.3619
37122SOL    HW213374   4.036   6.961   8.074  3.1911  0.3314  0.3542
37123SOL     OW13375   4.267   5.386   0.256 -0.3436  0.3507 -0.1637
37123SOL    HW113376   4.347   5.415   0.213  0.3460  0.2432  1.0163
37123SOL    HW213377   4.221   5.335   0.189 -0.4016  2.0338 -1.4951
37124SOL     OW13378   4.973  10.260   9.563  0.4753 -0.0875  0.1668
37124SOL    HW113379   4.925  10.307   9.631 -0.0959  1.6032 -1.3385
37124SOL    HW213380   4.935  10.173   9.562 -1.8273  0.8613 -0.1977
37125SOL     OW13381   9.942   4.051  10.666 -0.2595 -1.4102 -0.3311
37125SOL    HW113382   9.872   4.115  10.649  0.3652 -0.3317  0.9411
37125SOL    HW213383   9.940   3.992  10.590 -0.5011  0.4467 -1.8434
37126SOL     OW13384   6.871   2.459   5.667 -0.1859 -0.1026  0.8193
37126SOL    HW113385   6.781   2.470   5.635  0.0650 -0.0392  0.1243
37126SOL    HW213386   6.870   2.499   5.754  0.1026  3.5094 -0.6524
37127SOL     OW13387   2.142   0.539   4.023  0.5080 -0.0238  0.2356
37127SOL    HW113388   2.125   0.611   4.085  1.7652  0.3288  0.2056
37127SOL    HW213389   2.144   0.581   3.937  1.4141 -0.0513  0.2335
37128SOL     OW13390   6.579   7.914   4.168 -0.4117 -0.0285  0.2229
37128SOL    HW113391   6.489   7.882   4.165  0.2344 -1.9405 -2.0252
37128SOL    HW213392   6.614   7.881   4.251 -0.4773 -3.4554 -0.9573
37129SOL     OW13393   0.952   0.822   8.664 -1.1386 -0.4282 -0.9436
37129SOL    HW113394   0.860   0.840   8.644 -0.7678  1.3744 -1.2730
37129SOL    HW213395   0.999   0.899   8.631  0.2433 -0.2387  1.2153
37130SOL     OW13396   3.328   2.133   2.731 -0.2251 -0.2869  0.3325
37130SOL    HW113397   3.255   2.088   2.774  0.4710 -2.8314 -0.9316
37130SOL    HW213398   3.393   2.064   2.715  0.1984  0.7411 -3.2997
37131SOL     OW13399   7.072   8.765   9.081  0.2320 -0.1471  0.3866
37131SOL    HW113400   7.004   8.775   9.148  0.1711  1.8341  0.0854
37131SOL    HW213401   7.154   8.756   9.130 -0.1079 -1.4257  0.7387
37132SOL     OW13402  10.223   7.902  10.531  0.0635 -0.4228  0.2100
37132SOL    HW113403  10.227   7.997  10.538  1.6748 -0.5168  1.0290
37132SOL    HW213404  10.313   7.872  10.548 -0.6264 -2.1544  1.1228
37133SOL     OW13405   3.849   0.620   2.194 -0.0186  0.9222 -0.0821
37133SOL    HW113406   3.815   0.582   2.114  2.7990  0.5961 -1.2419
37133SOL    HW213407   3.814   0.709   2.196 -2.0167  0.2018 -0.3543
37134SOL     OW13408   3.950   5.211   1.605  0.2064  0.0478  0.2002
37134SOL    HW113409   4.041   5.216   1.634  0.2147 -1.5707  0.5870
37134SOL    HW213410   3.900   5.256   1.674  0.6096 -0.2269  0.6794
37135SOL     OW13411   8.340  10.612   9.821 -0.5037 -0.5283 -0.2654
37135SOL    HW113412   8.309  10.659   9.744  2.1959  1.9056 -0.0078
37135SOL    HW213413   8.281  10.640   9.891 -0.8311  0.0302 -0.7531
37136SOL     OW13414   3.184   2.105   2.953 -0.4084  0.2330 -0.9524
37136SOL    HW113415   3.165   2.044   3.024 -0.2115 -0.1503 -1.2245
37136SOL    HW213416   3.150   2.189   2.984  0.4251  0.2553 -0.0457
37137SOL     OW13417   9.894   0.307   1.690 -0.1207 -0.4183 -0.5658
37137SOL    HW113418   9.907   0.271   1.777 -0.3413  1.3072  0.2167
37137SOL    HW213419   9.830   0.378   1.702 -1.9162 -1.6054 -2.5095
37138SOL     OW13420   0.944   5.683   3.703  0.1350  0.1524 -0.8303
37138SOL    HW113421   0.989   5.733   3.635 -0.5907 -0.0063 -1.4484
37138SOL    HW213422   0.913   5.604   3.658  0.4810 -0.4232 -0.0811
37139SOL     OW13423  11.220   8.547   0.765  0.4250  0.3935 -0.3936
37139SOL    HW113424  11.251   8.458   0.782  0.8764  0.5652 -0.3224
37139SOL    HW213425  11.207   8.585   0.852  0.3513  0.4373 -0.4235
37140SOL     OW13426   6.050   1.957   3.888  0.1427 -0.6187  0.7336
37140SOL    HW113427   5.982   1.898   3.919 -0.3309 -1.0015 -0.9568
37140SOL    HW213428   6.012   2.045   3.897 -0.3620 -0.7926  0.3086
37141SOL     OW13429   9.415   4.857   9.245 -0.0608 -0.5051 -0.0716
37141SOL    HW113430   9.341   4.916   9.236  0.2788  0.0934  0.9460
37141SOL    HW213431   9.484   4.897   9.192 -0.1248 -0.5032 -0.1536
37142SOL     OW13432   4.110   3.988   4.315  0.2362 -0.1635  0.1085
37142SOL    HW113433   4.037   3.979   4.254 -0.3316  0.2303  0.7279
37142SOL    HW213434   4.181   3.938   4.274  0.0655  0.6110 -1.1965
37143SOL     OW13435  10.315   2.024   1.416 -0.1306  0.8641 -0.4648
37143SOL    HW113436  10.260   1.960   1.460  0.9791 -0.1878 -0.5757
37143SOL    HW213437  10.403   2.010   1.451  0.1764  2.2271 -0.6034
37144SOL     OW13438   7.293   2.261   2.118 -0.0949  0.1297 -0.0495
37144SOL    HW113439   7.277   2.348   2.155  0.5360 -0.0510  0.6597
37144SOL    HW213440   7.368   2.227   2.166 -0.0139 -0.6098 -0.6714
37145SOL     OW13441   5.317   5.353   4.225 -0.1325 -0.6172  0.5418
37145SOL    HW113442   5.276   5.426   4.178 -1.8057 -1.8154  0.0626
37145SOL    HW213443   5.334   5.388   4.313  0.0357  0.6476  0.0299
37146SOL     OW13444   6.761  11.091  10.517  0.8427 -0.2812 -0.2780
37146SOL    HW113445   6.838  11.036  10.502  2.8849  2.3762 -0.4959
37146SOL    HW213446   6.749  11.090  10.612  0.4166 -1.5909 -0.3342
37147SOL     OW13447   2.558  10.349  10.855  0.0117  0.1772  0.0547
37147SOL    HW113448   2.629  10.287  10.874  0.6378  0.9845  0.4337
37147SOL    HW213449   2.551  10.349  10.759  0.1431 -0.3207  0.0428
37148SOL     OW13450   2.417   7.496   7.458 -0.7665  0.0678  0.5621
37148SOL    HW113451   2.387   7.458   7.542  0.9893 -0.3033  1.0683
37148SOL    HW213452   2.418   7.590   7.473 -0.6309  0.0131  0.9167
37149SOL     OW13453   4.643   7.100  10.023 -0.2427 -0.0523 -0.1609
37149SOL    HW113454   4.649   7.016   9.978 -3.4446 -1.8639  2.4057
37149SOL    HW213455   4.664   7.081  10.114 -2.9755  1.4110  0.8890
37150SOL     OW13456   9.648   6.381   1.353  0.1496  0.1407 -0.2970
37150SOL    HW113457   9.561   6.391   1.316  0.0625 -0.6319 -0.3341
37150SOL    HW213458   9.634   6.334   1.436  0.5190  0.1151 -0.2448
37151SOL     OW13459   0.602   8.636   2.725 -1.0690  0.5836 -0.5853
37151SOL    HW113460   0.522   8.688   2.725 -0.9700  0.7370 -0.7766
37151SOL    HW213461   0.585   8.565   2.787 -1.1648  0.9023 -0.2430
37152SOL     OW13462   7.825   7.235  10.675 -0.5926 -0.5447  0.2585
37152SOL    HW113463   7.837   7.322  10.636 -2.9579 -0.3730 -0.2886
37152SOL    HW213464   7.908   7.216  10.717  1.0706  0.6440 -2.2031
37153SOL     OW13465   5.819  11.097   0.448 -0.5526  0.0376  0.4086
37153SOL    HW113466   5.756  11.154   0.490 -0.9406 -1.5613  2.1065
37153SOL    HW213467   5.770  11.054   0.377 -0.9952 -0.1587  0.8305
37154SOL     OW13468   4.516   8.173   9.477 -0.0438  0.3492  0.2241
37154SOL    HW113469   4.475   8.214   9.553 -1.0207  2.0694 -1.1361
37154SOL    HW213470   4.461   8.200   9.403  2.6647  1.5509 -1.5285
37155SOL     OW13471   8.679  10.590  10.479  0.1905  0.5267  0.1163
37155SOL    HW113472   8.669  10.682  10.457 -0.0284  0.5861  0.4558
37155SOL    HW213473   8.731  10.553  10.408  2.3581  1.4259  1.1715
37156SOL     OW13474  10.724   5.036   7.732 -0.1925 -0.5432  0.1568
37156SOL    HW113475  10.809   5.063   7.698  0.1565 -0.3804  1.1127
37156SOL    HW213476  10.672   5.017   7.655 -0.4409  2.6849 -0.6152
37157SOL     OW13477   7.755  10.631   5.473  0.8454  0.1261 -0.4932
37157SOL    HW113478   7.686  10.694   5.493 -1.0465 -1.9203 -0.1493
37157SOL    HW213479   7.762  10.632   5.377 -0.6265 -0.5510 -0.6306
37158SOL     OW13480   1.674   0.698   2.070  0.7662  0.4344  0.4184
37158SOL    HW113481   1.632   0.761   2.011 -1.8591 -0.7032  0.9467
37158SOL    HW213482   1.708   0.752   2.141 -1.6716  1.3335  1.0168
37159SOL     OW13483   9.305   8.763   0.912 -0.0542  0.1641  0.0572
37159SOL    HW113484   9.231   8.705   0.930 -0.5788  0.4005 -1.2182
37159SOL    HW213485   9.326   8.803   0.997 -0.3118 -1.1380  0.7565
37160SOL     OW13486   1.321   7.192   4.943  0.4611 -0.3724  0.3560
37160SOL    HW113487   1.280   7.106   4.954  2.1702 -1.3916 -0.6784
37160SOL    HW213488   1.374   7.204   5.022  0.9917 -0.7641  0.0730
37161SOL     OW13489   6.534  10.364   3.184 -0.2194 -1.2720 -0.3204
37161SOL    HW113490   6.549  10.442   3.237 -4.1817 -0.5964  0.1354
37161SOL    HW213491   6.589  10.297   3.223 -0.0304  0.2015  2.1535
37162SOL     OW13492   3.804   4.324   3.126  0.4407  0.1424  0.2694
37162SOL    HW113493   3.720   4.283   3.145 -1.6240  2.7942 -2.1428
37162SOL    HW213494   3.812   4.393   3.192 -1.2993  2.2977 -1.5980
37163SOL     OW13495   0.837   9.133  10.311 -0.1026  0.6437  0.2733
37163SOL    HW113496   0.859   9.087  10.392 -0.0283 -2.0916 -1.1764
37163SOL    HW213497   0.741   9.140  10.313 -0.1897 -0.3434  0.1759
37164SOL     OW13498   4.431   9.037   6.301  0.7447 -0.5021  0.6899
37164SOL    HW113499   4.365   8.969   6.295  2.0117 -1.8397  1.4054
37164SOL    HW213500   4.462   9.033   6.392  2.5401 -0.6466  0.1146
37165SOL     OW13501   5.646   0.856   6.229 -0.1907  0.1367 -0.2690
37165SOL    HW113502   5.700   0.886   6.303 -1.0796 -0.7262  0.7532
37165SOL    HW213503   5.561   0.838   6.267 -0.8663  0.3057 -1.6513
37166SOL     OW13504  10.743   2.861   1.461  0.2199 -0.1030  0.2390
37166SOL    HW113505  10.766   2.941   1.413 -1.0383 -0.3148 -0.7825
37166SOL    HW213506  10.746   2.886   1.553 -0.5209  1.2519 -0.0763
37167SOL     OW13507  10.165   3.693   5.556 -0.1502 -0.8530  0.3521
37167SOL    HW113508  10.098   3.628   5.537 -1.2958  0.4769 -0.3067
37167SOL    HW213509  10.124   3.753   5.619 -1.2328  2.3664 -3.0823
37168SOL     OW13510   7.404   1.026   3.766 -0.0310  0.9233 -0.3898
37168SOL    HW113511   7.385   1.006   3.857 -0.0080  2.4507 -0.0345
37168SOL    HW213512   7.326   0.999   3.718  0.0589 -0.1291  0.0218
37169SOL     OW13513  10.866  10.997   5.675 -0.5328 -0.1756  0.0891
37169SOL    HW113514  10.807  10.941   5.624 -0.6199  0.5859 -0.6822
37169SOL    HW213515  10.835  10.990   5.765  0.2002 -2.2871  0.2244
37170SOL     OW13516   7.361   0.848   7.466  0.0977  0.4765 -0.2169
37170SOL    HW113517   7.409   0.928   7.488 -2.3005  1.4399  2.1265
37170SOL    HW213518   7.332   0.814   7.551 -0.9884 -1.5744 -1.3327
37171SOL     OW13519   7.593   1.275   0.460 -0.2752 -0.7174 -0.1268
37171SOL    HW113520   7.634   1.189   0.453  0.8074 -0.1227 -1.4466
37171SOL    HW213521   7.570   1.298   0.371 -2.5430 -0.5405  0.4456
37172SOL     OW13522  11.068  10.670   1.653 -0.8429 -0.4799  0.9487
37172SOL    HW113523  11.116  10.730   1.710  0.1920 -2.0733  1.8291
37172SOL    HW213524  11.134  10.607   1.624 -1.8721 -1.1333 -0.0392
37173SOL     OW13525   2.122   0.503   7.494 -0.3112 -0.1583 -0.2801
37173SOL    HW113526   2.127   0.578   7.435 -0.9871 -0.5707 -0.8765
37173SOL    HW213527   2.083   0.539   7.574  0.1659  0.3012 -0.2445
37174SOL     OW13528   4.614   5.468   9.804  0.1239  0.2011  0.3262
37174SOL    HW113529   4.669   5.395   9.832  0.8799  1.5802  2.7884
37174SOL    HW213530   4.529   5.450   9.843 -0.2246 -0.2641 -0.6351
37175SOL     OW13531   0.514  10.987   6.187  0.4963  0.0318 -0.1324
37175SOL    HW113532   0.573  10.960   6.117 -0.2581 -0.7281 -0.5048
37175SOL    HW213533   0.521  10.918   6.253  1.0791  0.6605  0.4804
37176SOL     OW13534   8.735  11.281   4.436  0.0213 -0.5761  0.1843
37176SOL    HW113535   8.700  11.367   4.460  0.3855 -0.5113  0.5082
37176SOL    HW213536   8.830  11.290   4.447  0.2937 -0.3512 -1.9309
37177SOL     OW13537   2.713   7.325   0.596 -0.0722  0.0741  0.4121
37177SOL    HW113538   2.755   7.267   0.533  1.6700  0.1665  1.4303
37177SOL    HW213539   2.670   7.266   0.659 -1.9539 -0.0175 -0.8708
37178SOL     OW13540  10.219  10.387   4.312  0.9831  1.0736  0.0037
37178SOL    HW113541  10.240  10.446   4.384 -0.2898 -0.1504  1.4524
37178SOL    HW213542  10.131  10.356   4.332  1.3168 -0.7199 -1.1019
37179SOL     OW13543  10.105   3.604   2.125  0.5232 -0.0047  0.2842
37179SOL    HW113544  10.043   3.591   2.053  0.0485 -0.3877  0.7467
37179SOL    HW213545  10.169   3.534   2.115 -0.1090 -0.6805  0.7978
37180SOL     OW13546   0.121   2.591   4.099 -0.0524 -0.1582 -0.1918
37180SOL    HW113547   0.046   2.641   4.067 -1.1374  0.1128  2.4702
37180SOL    HW213548   0.084   2.532   4.165  2.0905  0.4124  1.6693
37181SOL     OW13549   7.758   0.682   3.169  0.0396 -0.1889 -0.3149
37181SOL    HW113550   7.702   0.694   3.246 -1.0338 -1.2217 -0.8891
37181SOL    HW213551   7.697   0.681   3.096  1.1514  2.0522 -1.3550
37182SOL     OW13552   0.239   8.500   6.112 -0.4956 -0.2373 -0.4112
37182SOL    HW113553   0.163   8.541   6.070  0.1071  0.5427 -0.7486
37182SOL    HW213554   0.299   8.572   6.130  0.4476 -0.9276 -0.7200
37183SOL     OW13555   8.797   1.528   0.532  0.1106 -0.7438  0.1933
37183SOL    HW113556   8.763   1.603   0.579  1.2916 -0.5668  0.8092
37183SOL    HW213557   8.720   1.487   0.492 -0.5225  0.9147 -0.3749
37184SOL     OW13558   3.788  11.016   2.941  0.7876  0.2837  0.4203
37184SOL    HW113559   3.854  10.952   2.915 -0.2467 -1.4955  1.8827
37184SOL    HW213560   3.705  10.975   2.919 -0.0342 -0.2390  3.8506
37185SOL     OW13561   3.820   0.759   0.985 -0.1301 -0.0460 -0.6896
37185SOL    HW113562   3.783   0.842   1.015 -0.4599 -0.2832 -0.4219
37185SOL    HW213563   3.841   0.773   0.893  3.2544  1.5301  0.1769
37186SOL     OW13564   5.277   0.240   6.085 -0.1963 -0.0213  1.0703
37186SOL    HW113565   5.216   0.182   6.038 -1.9627  0.2614  2.8593
37186SOL    HW213566   5.277   0.321   6.035 -1.5934  0.0880  1.2145
37187SOL     OW13567   4.117   3.361   0.971  0.1785  0.2148  0.1687
37187SOL    HW113568   4.159   3.317   0.897  1.9241  1.2705  0.4433
37187SOL    HW213569   4.049   3.301   1.000  0.4414 -0.8884 -1.3505
37188SOL     OW13570   2.590  10.676   2.327 -0.1381  0.1124 -0.3215
37188SOL    HW113571   2.603  10.767   2.357  0.4572 -0.2707  0.6424
37188SOL    HW213572   2.549  10.685   2.241 -0.2901  1.2964 -0.1489
37189SOL     OW13573   9.284   9.942   5.556 -0.3047  0.4418  0.3308
37189SOL    HW113574   9.200   9.920   5.515 -0.9856 -1.9219  2.6770
37189SOL    HW213575   9.297  10.035   5.536 -3.1988  0.7518 -0.5879
37190SOL     OW13576   5.852   7.926   8.723 -0.1797 -0.4472 -0.6169
37190SOL    HW113577   5.892   7.906   8.639  0.9186 -0.4301 -0.1162
37190SOL    HW213578   5.866   7.847   8.776 -0.6139 -0.3554 -0.3563
37191SOL     OW13579   9.771   8.561   6.629  0.0412  0.0689  0.3570
37191SOL    HW113580   9.802   8.615   6.556 -0.2818 -1.4162 -0.9268
37191SOL    HW213581   9.839   8.495   6.641  0.2274  0.4742  1.6084
37192SOL     OW13582   7.522   1.389   7.888  0.1266 -0.1691 -0.2967
37192SOL    HW113583   7.585   1.444   7.935  1.9940 -2.1249 -0.3891
37192SOL    HW213584   7.526   1.421   7.797  4.2433 -2.8114 -1.2727
37193SOL     OW13585   0.456   5.789   8.897 -0.1036  0.1082  0.4798
37193SOL    HW113586   0.370   5.745   8.894  0.1754 -0.5696  1.6304
37193SOL    HW213587   0.474   5.814   8.806 -0.4218 -1.8960 -0.1810
37194SOL     OW13588   4.870   4.755  11.260 -0.3690 -0.0841 -0.4683
37194SOL    HW113589   4.790   4.785  11.218  0.2589  0.5686 -1.2533
37194SOL    HW213590   4.850   4.754  11.353 -1.1030  0.6654 -0.6064
37195SOL     OW13591   3.549   4.407   6.810 -0.5569 -0.3501 -0.0205
37195SOL    HW113592   3.552   4.394   6.716  1.5086  0.2373 -0.0680
37195SOL    HW213593   3.456   4.402   6.832 -1.2844  1.4675 -2.3556
37196SOL     OW13594   9.536   4.830   6.115  0.9680 -0.4656  0.2074
37196SOL    HW113595   9.567   4.779   6.040  0.1475 -0.3339 -0.2297
37196SOL    HW213596   9.615   4.873   6.148  1.3261 -0.4415 -0.6500
37197SOL     OW13597   7.842   0.876   0.969 -0.5720  0.1830  0.3037
37197SOL    HW113598   7.788   0.850   1.044  0.3234  0.4874  1.0687
37197SOL    HW213599   7.799   0.834   0.894 -1.0565 -0.7596  1.0734
37198SOL     OW13600   1.485   2.444   2.150  0.2052 -0.1375 -0.1446
37198SOL    HW113601   1.568   2.405   2.177  0.5080  0.1523 -0.6519
37198SOL    HW213602   1.507   2.499   2.075 -0.1624  1.1950  0.6870
37199SOL     OW13603   4.968   3.836   4.321 -0.7348  0.2835  0.4680
37199SOL    HW113604   4.877   3.853   4.295 -0.6395  0.5491  0.3040
37199SOL    HW213605   4.971   3.742   4.337 -0.8123  0.1205 -0.4377
37200SOL     OW13606   9.241   9.684   1.157 -0.2344  0.3422  0.4042
37200SOL    HW113607   9.210   9.625   1.226  0.8621 -1.0998 -0.2861
37200SOL    HW213608   9.162   9.731   1.129 -1.1067 -0.6389  1.1305
37201SOL     OW13609   2.124   2.518   7.769  0.0831 -0.0541 -0.2215
37201SOL    HW113610   2.034   2.548   7.775  0.2385  0.1776  1.2497
37201SOL    HW213611   2.140   2.473   7.852  1.8989  1.5798  0.3765
37202SOL     OW13612  10.853   2.428   4.846 -0.3475  0.1072  0.1234
37202SOL    HW113613  10.933   2.376   4.844  0.1085  0.8002 -0.5659
37202SOL    HW213614  10.865   2.493   4.776  0.1414  2.6288  2.3711
37203SOL     OW13615   7.004   8.984   7.713 -0.0054 -0.1034  0.2820
37203SOL    HW113616   7.078   8.924   7.717 -0.1720 -0.5586 -2.1806
37203SOL    HW213617   6.930   8.930   7.683  0.4580  1.5943 -4.9144
37204SOL     OW13618   7.366   8.943   0.969  0.1316 -0.4227  0.5534
37204SOL    HW113619   7.436   8.924   0.907 -0.8431 -0.8214 -0.4681
37204SOL    HW213620   7.403   9.008   1.029  1.5803 -1.1293  0.4659
37205SOL     OW13621   9.408   5.488  10.243  0.0161  0.4152  0.5420
37205SOL    HW113622   9.356   5.567  10.256  0.2258  0.3911  1.6770
37205SOL    HW213623   9.392   5.436  10.322 -0.8259 -1.0986 -0.5861
37206SOL     OW13624   9.017   3.409  10.268  0.2086 -0.5627 -0.3645
37206SOL    HW113625   8.942   3.361  10.303 -0.3381  0.7413  0.3219
37206SOL    HW213626   8.979   3.488  10.231  1.1595 -0.3556 -0.9139
37207SOL     OW13627   5.572   7.765   1.734  0.0258  0.7137  0.0219
37207SOL    HW113628   5.493   7.763   1.681 -1.4990 -2.6769  2.0263
37207SOL    HW213629   5.605   7.675   1.731  2.1887  1.3668  1.5178
37208SOL     OW13630   6.304  10.995   0.990  0.4975  0.6184  0.2627
37208SOL    HW113631   6.324  10.958   0.904  1.0482  2.2266 -0.3327
37208SOL    HW213632   6.386  10.988   1.039 -0.5495 -3.1798  1.8824
37209SOL     OW13633   8.621   6.104   5.296 -0.0925  0.3882  0.4407
37209SOL    HW113634   8.630   6.058   5.213  1.3161  0.9273  0.2722
37209SOL    HW213635   8.642   6.195   5.276 -0.9183  0.7552  1.1561
37210SOL     OW13636   0.154   1.990   9.619  0.3582 -0.2493  0.4581
37210SOL    HW113637   0.110   2.073   9.602 -0.1349 -0.3562  1.1390
37210SOL    HW213638   0.084   1.925   9.615  0.7063 -0.6088  0.1307
37211SOL     OW13639   3.531   8.365   2.137  0.5023 -0.3532  0.8461
37211SOL    HW113640   3.619   8.394   2.112  0.9838 -0.7247  2.0499
37211SOL    HW213641   3.540   8.271   2.151 -0.4753 -0.6861 -0.6003
37212SOL     OW13642   2.981   5.042   4.688  0.3220 -0.9201  0.5717
37212SOL    HW113643   2.982   5.018   4.780 -0.6434 -0.7709  0.6326
37212SOL    HW213644   3.058   5.098   4.677  0.2473 -0.6417  1.3743
37213SOL     OW13645   1.546   5.774  10.295  0.1115 -0.6899  0.5407
37213SOL    HW113646   1.497   5.693  10.283 -0.0049 -0.8617  1.9654
37213SOL    HW213647   1.554   5.811  10.207 -0.4673 -1.8752 -0.0277
37214SOL     OW13648   4.684  11.147   1.822  0.0259 -0.0782 -0.6584
37214SOL    HW113649   4.636  11.220   1.862  0.4926 -0.6310  0.9754
37214SOL    HW213650   4.768  11.185   1.797  0.1881  0.0122 -0.0007
37215SOL     OW13651   5.718   8.516  10.596 -0.0124 -0.3427 -0.1490
37215SOL    HW113652   5.778   8.452  10.559 -1.4602 -1.9585  0.1354
37215SOL    HW213653   5.774   8.582  10.637  1.5509 -1.6255 -0.1342
37216SOL     OW13654   3.123   8.927   6.740  0.4309  0.4408 -0.4791
37216SOL    HW113655   3.067   8.850   6.731 -0.8115  1.3229 -0.6015
37216SOL    HW213656   3.068   8.991   6.786  1.2022  1.4779 -0.9602
37217SOL     OW13657   0.843   1.471   0.199 -0.2655  0.1503 -0.4301
37217SOL    HW113658   0.890   1.549   0.228 -2.1860  1.1720  0.1348
37217SOL    HW213659   0.765   1.469   0.255 -0.7323 -1.6438 -1.0878
37218SOL     OW13660   6.311   8.890   9.817  0.6334 -0.2581 -0.5171
37218SOL    HW113661   6.218   8.877   9.831  0.6446 -0.4938 -0.6651
37218SOL    HW213662   6.317   8.977   9.778  0.4717 -0.2669 -0.5616
37219SOL     OW13663  10.960   0.036  10.769 -0.3903 -0.8002  0.3935
37219SOL    HW113664  11.034   0.057  10.712 -1.0964  1.2260  0.1347
37219SOL    HW213665  10.996   0.039  10.857 -0.1208  0.0259  0.2611
37220SOL     OW13666   1.994   0.736  11.115  0.0986 -0.8946  0.1035
37220SOL    HW113667   1.924   0.745  11.051 -0.3720 -1.7284  0.4980
37220SOL    HW213668   1.999   0.822  11.157  0.4900 -0.3013 -1.1111
37221SOL     OW13669  10.367   5.396   9.180  0.4605 -0.1623 -0.1914
37221SOL    HW113670  10.462   5.384   9.183  0.8399  2.3350 -0.3607
37221SOL    HW213671  10.334   5.340   9.250  2.1526 -0.2701  0.5729
37222SOL     OW13672  10.063   1.209  10.372 -0.2149 -0.1058  0.7472
37222SOL    HW113673  10.133   1.144  10.360  0.7926  0.9226  0.9233
37222SOL    HW213674  10.011   1.174  10.445 -0.1276 -1.0806  0.3607
37223SOL     OW13675   9.576   5.726   2.724 -0.8122 -0.0252  0.5979
37223SOL    HW113676   9.583   5.715   2.629 -1.6456  4.2233 -0.1658
37223SOL    HW213677   9.660   5.764   2.750 -1.2360  0.4923  1.2300
37224SOL     OW13678   9.955   9.122   1.374  0.4271  0.7132 -0.2808
37224SOL    HW113679   9.971   9.048   1.433 -2.4850  0.2175  0.0321
37224SOL    HW213680   9.960   9.083   1.286 -0.3180  0.3093 -0.1484
37225SOL     OW13681   6.363   8.852   5.480  0.1703 -0.3779  0.0984
37225SOL    HW113682   6.288   8.832   5.537 -1.2673  0.0643 -1.5715
37225SOL    HW213683   6.370   8.776   5.422  1.6441 -0.8386  0.8277
37226SOL     OW13684   6.798   4.261   2.627  0.8169 -0.4270 -0.2826
37226SOL    HW113685   6.736   4.328   2.597  0.8312  0.0937  0.8123
37226SOL    HW213686   6.804   4.200   2.554  0.3486  0.4526 -1.0795
37227SOL     OW13687   1.618   6.595   5.289  0.3667 -0.0079 -0.0804
37227SOL    HW113688   1.681   6.595   5.361  0.7573  0.2503 -0.4208
37227SOL    HW213689   1.672   6.602   5.210 -0.0478 -0.4778 -0.4076
37228SOL     OW13690   6.141   2.232   6.631  0.1379 -0.6800  0.4227
37228SOL    HW113691   6.207   2.170   6.600 -0.9633 -0.4169 -2.8412
37228SOL    HW213692   6.089   2.182   6.695  1.1055 -2.1277  0.1107
37229SOL     OW13693   7.646   4.747   1.450 -0.6782 -0.3491 -0.7705
37229SOL    HW113694   7.571   4.805   1.465 -0.1543  0.0624  0.3362
37229SOL    HW213695   7.609   4.671   1.405 -1.8585 -0.3859  0.2215
37230SOL     OW13696   1.116   9.913   5.643  0.1082  0.3015 -0.2767
37230SOL    HW113697   1.095   9.823   5.617 -0.3836 -0.0833  1.3187
37230SOL    HW213698   1.182   9.942   5.581  0.2629 -1.1650 -0.8230
37231SOL     OW13699   8.722   9.606   0.239  0.0790 -0.3845  0.2584
37231SOL    HW113700   8.780   9.531   0.244  1.4954  0.6104 -0.5085
37231SOL    HW213701   8.708   9.632   0.331  1.9411  0.1385  0.4312
37232SOL     OW13702   2.445   3.403   7.794 -0.3160  0.3017 -0.0114
37232SOL    HW113703   2.427   3.319   7.753 -3.1241  0.7317  0.1453
37232SOL    HW213704   2.453   3.383   7.887 -2.6121  0.3211  0.2447
37233SOL     OW13705   6.602   2.886   8.666  0.0331 -0.2300  0.5380
37233SOL    HW113706   6.631   2.819   8.603 -0.5968 -0.3003  0.3159
37233SOL    HW213707   6.549   2.946   8.614  0.1224  0.1226  0.8567
37234SOL     OW13708   6.206   9.574   5.461 -0.0667 -0.0170  0.5241
37234SOL    HW113709   6.151   9.496   5.471  1.1043 -1.3070 -2.0871
37234SOL    HW213710   6.168   9.621   5.387 -0.1246  1.3692  1.4054
37235SOL     OW13711   2.952   3.219   6.225 -0.3461  0.0176 -0.2975
37235SOL    HW113712   3.025   3.167   6.192 -0.6644  0.5998 -2.0174
37235SOL    HW213713   2.930   3.278   6.153 -2.2682  0.1059  0.3049
37236SOL     OW13714   1.939   6.200   2.237 -0.1338 -0.3376 -0.3397
37236SOL    HW113715   1.876   6.267   2.208 -0.6533 -0.8860 -0.5099
37236SOL    HW213716   1.961   6.152   2.157  0.0806 -0.5003 -0.1841
37237SOL     OW13717   7.330   1.205   1.696  0.1688  0.2153  0.3472
37237SOL    HW113718   7.326   1.267   1.623 -1.6556  0.0328  0.2464
37237SOL    HW213719   7.312   1.258   1.774  0.2078  0.0800  0.4489
37238SOL     OW13720   0.527   9.745   3.768  0.9027  0.2238 -0.0810
37238SOL    HW113721   0.496   9.743   3.678 -1.2506  1.2528  0.5584
37238SOL    HW213722   0.575   9.828   3.775  0.4340  0.5013 -0.1116
37239SOL     OW13723   9.965   2.436   6.307  0.3651  0.3732 -0.1536
37239SOL    HW113724   9.944   2.346   6.283  0.2843 -0.0199  1.3056
37239SOL    HW213725  10.022   2.428   6.383  0.7511  1.5604 -0.2915
37240SOL     OW13726   3.022  10.427  10.453 -0.1187 -0.3982  0.1209
37240SOL    HW113727   3.070  10.496  10.497  0.5642 -1.4690  1.1049
37240SOL    HW213728   3.074  10.407  10.375 -1.6925  1.9913 -1.6780
37241SOL     OW13729   7.487   6.536   3.444 -0.5191 -0.5884  0.1115
37241SOL    HW113730   7.535   6.573   3.370 -0.5586  1.2081  0.9312
37241SOL    HW213731   7.526   6.449   3.456  0.6236 -0.2682 -0.9646
37242SOL     OW13732   3.225   4.489   9.319 -0.2885  0.0950 -0.0630
37242SOL    HW113733   3.133   4.474   9.299  0.2163 -0.9541 -1.8917
37242SOL    HW213734   3.271   4.414   9.280  1.4690  1.3906 -0.6493
37243SOL     OW13735   3.746   3.965   1.949 -0.5743 -0.3547  0.0931
37243SOL    HW113736   3.801   3.915   1.889  0.6432 -0.0923  0.9623
37243SOL    HW213737   3.660   3.923   1.943 -0.1827 -1.0433 -0.9633
37244SOL     OW13738   6.489  10.134   0.680  0.0407 -0.1065 -0.9264
37244SOL    HW113739   6.545  10.209   0.701  1.6760 -1.0996 -1.5469
37244SOL    HW213740   6.405  10.173   0.656  0.8638  1.5421 -1.2761
37245SOL     OW13741  11.004   4.148   8.258  0.1637 -0.1981 -0.4490
37245SOL    HW113742  11.061   4.105   8.194  0.9671  1.1458 -0.6646
37245SOL    HW213743  10.925   4.171   8.208  0.0262 -0.7785 -0.5040
37246SOL     OW13744   8.406   8.738   7.185 -0.0740 -0.5350  0.1718
37246SOL    HW113745   8.367   8.690   7.258  0.9886 -0.7659  0.6037
37246SOL    HW213746   8.500   8.736   7.203  0.0019  2.5442  0.7585
37247SOL     OW13747   4.547  10.522   9.894 -0.5561 -0.7052  0.1877
37247SOL    HW113748   4.540  10.497   9.802  2.0005  1.3613 -0.6647
37247SOL    HW213749   4.571  10.614   9.893  1.3184 -1.0382  2.8354
37248SOL     OW13750   2.300   1.919   6.472 -0.2336  0.2350  0.7537
37248SOL    HW113751   2.336   1.917   6.561 -0.8642  2.7057  1.1508
37248SOL    HW213752   2.322   2.007   6.440 -0.4978 -0.4145 -1.3492
37249SOL     OW13753   3.531   7.101   0.382  0.3860 -0.3668  0.4924
37249SOL    HW113754   3.448   7.068   0.347 -0.9506  1.2387  1.9588
37249SOL    HW213755   3.581   7.127   0.305 -1.8257  1.6429 -0.3705
37250SOL     OW13756   5.168   9.020   7.225 -0.0389 -0.2342 -0.7476
37250SOL    HW113757   5.106   8.948   7.237 -0.1614  0.2194  2.0881
37250SOL    HW213758   5.254   8.977   7.218 -0.2587 -0.7072 -0.5807
37251SOL     OW13759   2.720   7.459   6.361 -0.0842 -0.0239 -0.4229
37251SOL    HW113760   2.632   7.492   6.342  0.4958  0.4923 -2.5164
37251SOL    HW213761   2.733   7.478   6.454 -3.0321 -2.2714  0.5977
37252SOL     OW13762   9.603   7.224   6.642  0.3140 -0.3113 -0.5299
37252SOL    HW113763   9.524   7.271   6.614  0.8189  1.2518  0.5222
37252SOL    HW213764   9.667   7.293   6.657  2.1233 -1.5690 -1.9688
37253SOL     OW13765   2.720   1.773   5.451 -0.3111 -0.4302 -0.1512
37253SOL    HW113766   2.706   1.868   5.449 -0.1904 -0.3754  1.1639
37253SOL    HW213767   2.765   1.757   5.533  2.2763 -1.3093 -1.6382
37254SOL     OW13768   0.810   1.894   4.430  1.0140 -0.0667 -0.6459
37254SOL    HW113769   0.898   1.856   4.424  0.4825 -1.6797  0.8826
37254SOL    HW213770   0.759   1.847   4.365  0.8320 -0.5418 -0.1645
37255SOL     OW13771   9.632   1.307   3.527  0.5160  0.5972 -0.2039
37255SOL    HW113772   9.608   1.396   3.552 -1.4840 -0.5448  2.4667
37255SOL    HW213773   9.682   1.317   3.447 -0.4956  4.0428 -0.5612
37256SOL     OW13774   3.682   2.328   0.031  1.0089 -0.3076  0.5296
37256SOL    HW113775   3.736   2.276  -0.030  1.4668  1.2937 -0.5123
37256SOL    HW213776   3.715   2.306   0.118  1.1772 -1.7407  0.1173
37257SOL     OW13777   4.484   4.161   7.797 -0.1455  0.1374 -0.2486
37257SOL    HW113778   4.457   4.246   7.832  2.8071  1.3451 -0.5915
37257SOL    HW213779   4.566   4.179   7.751 -1.0491 -2.3323 -3.2273
37258SOL     OW13780   2.132   9.341   8.855 -0.0154  0.1756  0.1887
37258SOL    HW113781   2.135   9.258   8.904  2.4315 -0.0877 -0.2687
37258SOL    HW213782   2.129   9.408   8.922  0.7252 -0.2396  0.6478
37259SOL     OW13783  10.374   4.709   1.257 -0.8242  0.6188 -0.6294
37259SOL    HW113784  10.314   4.637   1.236  0.6511 -1.0552  0.5847
37259SOL    HW213785  10.343   4.743   1.340 -0.3877  0.0427 -0.2201
37260SOL     OW13786   5.255   2.319   2.792  0.1713  0.0470 -0.0926
37260SOL    HW113787   5.267   2.254   2.861 -2.1175 -1.0015 -0.5722
37260SOL    HW213788   5.311   2.392   2.818  2.2133 -1.7613  0.8853
37261SOL     OW13789   1.610   9.218  10.899 -0.0664 -0.0703  0.5713
37261SOL    HW113790   1.573   9.205  10.812  1.1468 -2.9703  0.3665
37261SOL    HW213791   1.643   9.308  10.899  0.1914 -0.1008 -2.0751
37262SOL     OW13792   0.846   6.376   7.634 -0.4003 -0.8735 -0.0482
37262SOL    HW113793   0.892   6.399   7.714 -0.1013 -1.2557 -0.1101
37262SOL    HW213794   0.793   6.299   7.658 -0.0327 -1.2095 -0.3131
37263SOL     OW13795   2.109   0.937   8.160 -0.5939  0.1122 -0.0803
37263SOL    HW113796   2.054   0.968   8.088 -0.8588 -1.6429 -0.6919
37263SOL    HW213797   2.057   0.954   8.239  0.4990  3.8584  0.0183
37264SOL     OW13798   0.766   0.976   0.439  0.0709  0.0027  0.2165
37264SOL    HW113799   0.683   1.008   0.404 -0.0142  0.0172  0.4336
37264SOL    HW213800   0.752   0.882   0.452 -0.5953  0.3500  2.2021
37265SOL     OW13801   5.739   2.720   1.874  0.3092 -0.3065 -0.2276
37265SOL    HW113802   5.756   2.665   1.950  0.9099 -1.0599 -0.8892
37265SOL    HW213803   5.698   2.799   1.910 -3.5560 -2.4044  0.4427
37266SOL     OW13804   7.599   3.154   5.814  0.3438  0.5811 -0.2508
37266SOL    HW113805   7.643   3.235   5.789 -1.3450  1.8368  0.6655
37266SOL    HW213806   7.655   3.116   5.882  2.3291 -0.2747 -2.2170
37267SOL     OW13807   0.340   2.164   8.753 -0.1386  0.4431  0.1710
37267SOL    HW113808   0.278   2.152   8.825  0.5113 -0.9916  0.5334
37267SOL    HW213809   0.291   2.136   8.675 -0.3296  0.4374  0.2907
37268SOL     OW13810   5.061   0.153   8.881 -0.1645 -0.0558  0.2168
37268SOL    HW113811   5.015   0.231   8.910 -0.6524 -0.3121  0.1379
37268SOL    HW213812   5.066   0.097   8.959  1.3660  0.6057  0.6253
37269SOL     OW13813   2.620   7.027   4.475 -0.0260  0.4938  0.0649
37269SOL    HW113814   2.714   7.045   4.464  0.1012 -0.5266 -0.6606
37269SOL    HW213815   2.593   7.087   4.544  0.4679  3.0446 -1.8000
37270SOL     OW13816   7.127  10.880   5.865  0.4362 -0.7725  0.3380
37270SOL    HW113817   7.050  10.827   5.882 -0.6224  0.9222  1.1463
37270SOL    HW213818   7.095  10.953   5.812  1.9581 -1.2071 -1.2957
37271SOL     OW13819  10.568   5.335  10.712 -0.2142  0.1498  0.4300
37271SOL    HW113820  10.563   5.415  10.764 -0.2730 -1.1194  2.5163
37271SOL    HW213821  10.645   5.289  10.746 -0.5247 -0.9484 -0.2951
37272SOL     OW13822   5.904   2.024  10.260 -0.0986 -0.3126  0.4328
37272SOL    HW113823   5.865   1.997  10.177 -0.8454 -1.4875  1.1401
37272SOL    HW213824   5.830   2.028  10.321  0.4646  0.3482  1.0907
37273SOL     OW13825   3.692   7.886   0.168  0.0650 -0.7781  0.0573
37273SOL    HW113826   3.771   7.854   0.124  0.7216 -0.3145  0.8490
37273SOL    HW213827   3.722   7.965   0.214 -0.6208 -1.1598  1.1807
37274SOL     OW13828   9.506   3.838   5.580  0.5073  0.9974  0.2676
37274SOL    HW113829   9.471   3.780   5.514  0.2745 -1.3702  2.3234
37274SOL    HW213830   9.599   3.818   5.584  0.4380  0.7662  0.9540
37275SOL     OW13831  11.013   4.613   7.042 -0.6891  0.3646  0.1519
37275SOL    HW113832  10.964   4.663   7.107 -0.3027 -1.4211  1.9158
37275SOL    HW213833  10.968   4.528   7.039 -0.1673  0.1080 -1.2954
37276SOL     OW13834   3.948   7.443   9.760  0.2889 -0.1272  0.3929
37276SOL    HW113835   3.992   7.521   9.793  1.3217 -0.3588 -0.3844
37276SOL    HW213836   3.876   7.477   9.707  2.0861  0.4136 -1.8413
37277SOL     OW13837   9.076   6.321   9.515 -0.2320 -0.2705  0.2855
37277SOL    HW113838   9.037   6.393   9.464  4.1386  1.0556 -1.6067
37277SOL    HW213839   9.122   6.364   9.586  1.2502 -1.2771 -0.0185
37278SOL     OW13840   7.184   6.701   4.904  0.7015 -0.1313 -0.3816
37278SOL    HW113841   7.103   6.692   4.853 -0.9795  0.4405  2.0158
37278SOL    HW213842   7.183   6.627   4.964  1.2407  0.6123  0.5732
37279SOL     OW13843  10.931  10.078   3.046 -0.3316 -0.5432  0.1863
37279SOL    HW113844  10.912  10.123   2.963 -3.0482  2.1975  2.0950
37279SOL    HW213845  10.996  10.133   3.089 -0.4057 -0.8656  0.7247
37280SOL     OW13846   0.299   2.768   8.781  0.0701 -0.0085 -0.2277
37280SOL    HW113847   0.279   2.829   8.852 -1.0205 -2.0027  1.2757
37280SOL    HW213848   0.272   2.814   8.702  1.1342  2.2030  0.6146
37281SOL     OW13849   3.138   4.826   3.745 -0.6307 -0.4364  0.2843
37281SOL    HW113850   3.174   4.748   3.702 -0.5633 -0.8854  1.1262
37281SOL    HW213851   3.118   4.886   3.673 -1.4166 -1.5331 -0.4445
37282SOL     OW13852   3.478   9.868   1.751  0.1220 -0.0654  0.2836
37282SOL    HW113853   3.448   9.870   1.660 -0.3221 -0.2288  0.4225
37282SOL    HW213854   3.535   9.791   1.756 -0.3355 -0.4035  0.2907
37283SOL     OW13855   9.394   3.649   8.326 -0.1620  1.1412  0.4340
37283SOL    HW113856   9.480   3.654   8.369  0.1400 -2.2150  0.4250
37283SOL    HW213857   9.331   3.651   8.398  0.1070  0.3244  0.7003
37284SOL     OW13858   7.516   4.030   8.039  0.7218 -0.1969  0.3407
37284SOL    HW113859   7.602   3.989   8.033 -0.2172 -2.1214 -0.7224
37284SOL    HW213860   7.533   4.122   8.018  2.4239 -0.6519 -0.4890
37285SOL     OW13861   3.457   2.772   2.727  0.6260  0.2642  0.2624
37285SOL    HW113862   3.445   2.853   2.678  2.6265  1.8533  2.2060
37285SOL    HW213863   3.532   2.730   2.685  1.8109  1.2171  1.3325
37286SOL     OW13864   5.115   3.238   6.613 -0.2752 -0.1307  0.4860
37286SOL    HW113865   5.166   3.253   6.692 -3.5539  1.4955  2.5111
37286SOL    HW213866   5.062   3.161   6.632  0.7441 -1.3474 -1.2693
37287SOL     OW13867   1.726   3.941  10.213  0.7572  0.0618 -0.0663
37287SOL    HW113868   1.632   3.944  10.228  0.1609  0.1265 -3.0833
37287SOL    HW213869   1.751   4.032  10.197  1.8227  0.3478  2.6868
37288SOL     OW13870   4.537   6.916   4.256 -0.3190 -0.5483 -0.0227
37288SOL    HW113871   4.532   6.942   4.164  0.5190 -0.8708 -0.1667
37288SOL    HW213872   4.527   6.997   4.305 -2.4162 -0.5482 -0.3235
37289SOL     OW13873   5.575   1.583   4.220  0.0603 -0.6238  0.5885
37289SOL    HW113874   5.613   1.670   4.211 -0.4925 -0.4747 -0.5188
37289SOL    HW213875   5.548   1.577   4.311 -0.0195  0.4155  0.6344
37290SOL     OW13876   0.708   6.977   9.370 -0.1002 -0.0220 -0.7770
37290SOL    HW113877   0.747   6.987   9.283 -0.0652 -2.1894 -1.0728
37290SOL    HW213878   0.777   6.934   9.421 -0.7384 -0.3366 -0.1758
37291SOL     OW13879   1.827   9.372   7.673 -0.0132 -0.2165 -0.4395
37291SOL    HW113880   1.742   9.338   7.645 -0.0972 -0.8162  0.5154
37291SOL    HW213881   1.814   9.396   7.765  0.3455  1.4154 -0.7882
37292SOL     OW13882   8.113   9.200   5.530 -0.0142  0.3248  0.4723
37292SOL    HW113883   8.201   9.163   5.534 -0.3116 -0.6424 -1.0498
37292SOL    HW213884   8.110   9.264   5.601  1.9769  0.5225  0.4244
37293SOL     OW13885   4.995   2.655   7.731 -0.1378 -0.0482 -0.4063
37293SOL    HW113886   5.078   2.688   7.697 -0.0664  0.0472 -0.1424
37293SOL    HW213887   5.000   2.560   7.720 -0.4797  0.0436 -1.4763
37294SOL     OW13888   0.552   2.121   9.843 -0.8311 -0.0946 -0.5577
37294SOL    HW113889   0.523   2.147   9.756  0.5920  0.5643 -0.8521
37294SOL    HW213890   0.532   2.196   9.898 -4.5698 -1.5620  0.4341
37295SOL     OW13891   7.824   6.954   0.804  0.4419 -0.2270 -0.3926
37295SOL    HW113892   7.875   6.904   0.741  0.0879  0.2943 -1.1166
37295SOL    HW213893   7.847   7.046   0.785  1.2148 -0.1080  1.0165
37296SOL     OW13894   1.614   5.956   6.660  0.7214 -0.4964 -0.5759
37296SOL    HW113895   1.670   5.990   6.729  0.1580 -1.3838  0.3534
37296SOL    HW213896   1.526   5.960   6.697  0.3130 -0.2941 -1.5327
37297SOL     OW13897   2.849   6.686   7.624  0.3130 -0.7023  0.2018
37297SOL    HW113898   2.808   6.760   7.670  0.3043 -1.4367  1.4388
37297SOL    HW213899   2.797   6.610   7.651  1.0001 -1.3077 -0.1546
37298SOL     OW13900   2.994   5.774   5.570 -0.3176 -0.6021 -0.0047
37298SOL    HW113901   2.973   5.784   5.478 -2.4775  1.2088  0.6023
37298SOL    HW213902   2.996   5.864   5.604 -1.9852 -1.2967  2.1568
37299SOL     OW13903   5.656   0.288   0.709 -0.0359 -0.4847  0.3798
37299SOL    HW113904   5.623   0.348   0.642 -1.3140 -1.8204 -0.2112
37299SOL    HW213905   5.721   0.235   0.663 -0.2008 -0.7454  0.4476
37300SOL     OW13906   4.481  10.651   4.624  0.2207  0.7096 -0.3450
37300SOL    HW113907   4.453  10.743   4.633  0.0253  0.5841  0.4411
37300SOL    HW213908   4.568  10.657   4.585 -0.0935  1.1978 -0.9893
37301SOL     OW13909   0.376  10.033   1.994 -0.6954  0.3893 -0.1450
37301SOL    HW113910   0.359  10.118   1.954 -0.6843  0.0321 -0.9439
37301SOL    HW213911   0.406  10.053   2.082  3.4587  1.5108 -1.5599
37302SOL     OW13912   0.885  10.562   4.158  0.6214 -0.4341  0.2362
37302SOL    HW113913   0.964  10.557   4.105  0.2096 -3.4144 -0.3058
37302SOL    HW213914   0.828  10.494   4.121 -2.6262  2.1550  0.0009
37303SOL     OW13915   1.315   7.430   1.069 -0.5568 -0.0394 -0.3495
37303SOL    HW113916   1.308   7.515   1.114  1.5832 -0.5084  0.9933
37303SOL    HW213917   1.232   7.386   1.088 -0.0939  0.1466  2.5207
37304SOL     OW13918   2.902   7.290   5.845 -0.2584  0.4379  0.1420
37304SOL    HW113919   2.879   7.198   5.827  4.6024 -1.4056  1.5273
37304SOL    HW213920   2.915   7.329   5.759  0.6744 -1.2560 -0.5417
37305SOL     OW13921   3.742  10.988   5.787 -0.3341 -0.0878  0.1644
37305SOL    HW113922   3.689  10.953   5.715 -0.0414 -1.8009  0.7308
37305SOL    HW213923   3.730  10.925   5.858  0.5133  0.8127  1.1317
37306SOL     OW13924   8.170   4.702   0.740 -0.4176 -0.3972  0.5545
37306SOL    HW113925   8.188   4.609   0.726 -1.5827 -0.4813 -0.5822
37306SOL    HW213926   8.198   4.719   0.830 -0.5553 -1.9487  0.9182
37307SOL     OW13927   3.037   2.391   5.716  0.4357  0.3206  0.8919
37307SOL    HW113928   3.085   2.370   5.796  0.8591 -0.1509  0.5142
37307SOL    HW213929   2.954   2.345   5.725  1.3559 -1.5945  0.0625
37308SOL     OW13930   4.371   6.424   0.514  0.1538  0.3384 -0.2883
37308SOL    HW113931   4.431   6.446   0.585 -0.5877 -0.5441  0.6468
37308SOL    HW213932   4.317   6.353   0.549 -0.4390  0.0873 -1.6332
37309SOL     OW13933   6.293   3.247   2.585 -0.6329 -0.2780  0.2303
37309SOL    HW113934   6.306   3.336   2.620 -0.0711 -0.5998  0.8824
37309SOL    HW213935   6.250   3.260   2.501 -2.8857  0.4985  1.4370
37310SOL     OW13936  10.023   1.214   2.953  0.0136  0.4345 -0.2334
37310SOL    HW113937  10.095   1.189   3.010  1.3982  1.3004 -1.5195
37310SOL    HW213938  10.058   1.203   2.864 -0.7978  2.6348 -0.8879
37311SOL     OW13939   1.171   5.859   7.812  0.3081  0.4998  0.3810
37311SOL    HW113940   1.092   5.806   7.800 -0.1963  1.1583  0.7473
37311SOL    HW213941   1.185   5.859   7.906  0.7612  0.3812  0.3166
37312SOL     OW13942   3.807   2.777   6.474  0.2447 -0.2396 -0.6504
37312SOL    HW113943   3.865   2.849   6.450  0.5571 -0.1113  0.4196
37312SOL    HW213944   3.766   2.805   6.556 -0.7635 -0.6513 -0.9920
37313SOL     OW13945  10.864   8.371   2.401 -0.2039 -0.0111 -0.5349
37313SOL    HW113946  10.942   8.427   2.402  0.6877 -1.2312 -0.2821
37313SOL    HW213947  10.859   8.339   2.311 -0.8497  0.6239 -0.7395
37314SOL     OW13948   1.715  10.660   7.319  0.0317 -0.0710 -0.0072
37314SOL    HW113949   1.722  10.565   7.319 -2.4194 -0.3466 -1.7092
37314SOL    HW213950   1.724  10.685   7.411  1.4009 -1.8440  0.3886
37315SOL     OW13951  10.754   7.865   5.443  0.0187  0.3861  0.2015
37315SOL    HW113952  10.748   7.772   5.465  0.6845 -0.4353 -2.6266
37315SOL    HW213953  10.671   7.903   5.473  0.5473 -0.6134  3.2083
37316SOL     OW13954   8.304   1.934   1.968  0.7730  1.1060  0.0246
37316SOL    HW113955   8.323   2.027   1.960 -1.1382  1.5311 -0.2545
37316SOL    HW213956   8.210   1.927   1.948  1.0983 -1.0240 -1.1397
37317SOL     OW13957   7.189   9.058   8.103  0.7449  0.2905 -1.0568
37317SOL    HW113958   7.103   9.044   8.065 -0.0717  2.1572 -0.0638
37317SOL    HW213959   7.248   9.001   8.053 -1.2986 -2.3847 -0.5944
37318SOL     OW13960   4.699   1.723   3.184  0.4048  0.2059  0.6056
37318SOL    HW113961   4.782   1.745   3.143  0.5441  0.5687  1.0632
37318SOL    HW213962   4.723   1.675   3.263  0.1091 -1.2736 -0.1724
37319SOL     OW13963   5.310   3.151   0.884  0.5248  0.0581 -0.3399
37319SOL    HW113964   5.378   3.155   0.950  1.3861 -0.9618 -1.1294
37319SOL    HW213965   5.234   3.116   0.930  1.7726 -2.9060 -0.3383
37320SOL     OW13966   5.741   7.184   1.115  0.1920  0.2300 -0.6374
37320SOL    HW113967   5.829   7.214   1.093 -0.1318  2.8936  1.2174
37320SOL    HW213968   5.753   7.134   1.196  0.0338  0.4617 -0.4699
37321SOL     OW13969  10.285   9.017   9.635 -0.2588 -0.0963  0.4420
37321SOL    HW113970  10.312   9.108   9.637 -0.1630 -0.0626  3.7737
37321SOL    HW213971  10.194   9.019   9.607  0.0886  0.8466 -0.7083
37322SOL     OW13972   0.263   8.386   1.236  0.1300 -0.6111  0.6516
37322SOL    HW113973   0.350   8.416   1.263 -0.2594  1.7959 -0.5485
37322SOL    HW213974   0.203   8.427   1.297 -0.3739  0.7594 -0.7008
37323SOL     OW13975   5.086   7.708   7.618  0.3919 -0.4205 -0.0069
37323SOL    HW113976   5.055   7.665   7.698  0.9898  0.1701  0.5627
37323SOL    HW213977   5.177   7.731   7.638  0.6209 -0.4661 -0.9490
37324SOL     OW13978   9.100   7.805   7.989 -0.7202  0.3306  0.4600
37324SOL    HW113979   9.093   7.814   8.084 -2.2964 -0.2079  0.4171
37324SOL    HW213980   9.188   7.770   7.975  0.3969  2.4420  1.5367
37325SOL     OW13981   9.032   7.424   1.705 -0.7323  0.2711 -0.3195
37325SOL    HW113982   8.984   7.393   1.628  0.4882  1.4248 -1.6180
37325SOL    HW213983   9.008   7.517   1.712  0.8901  0.7623 -0.7398
37326SOL     OW13984   2.401   2.185   8.403 -0.2365 -0.0746 -0.4449
37326SOL    HW113985   2.353   2.102   8.413  0.4524 -0.1607  3.8886
37326SOL    HW213986   2.360   2.244   8.465  1.5043  1.7715 -0.9448
37327SOL     OW13987   5.347   4.959   7.783  0.4317  0.0303 -0.4544
37327SOL    HW113988   5.353   4.968   7.878 -1.0433  0.9467 -0.4173
37327SOL    HW213989   5.432   4.988   7.750  1.0097 -0.4546  0.5922
37328SOL     OW13990   5.461   6.060   2.136 -0.2325  0.5950  0.3480
37328SOL    HW113991   5.406   6.135   2.157 -1.4300  0.1392 -0.9887
37328SOL    HW213992   5.424   6.025   2.055  1.3400 -0.4288  0.0258
37329SOL     OW13993   0.542   6.523   7.350 -0.1179  0.0033 -0.7451
37329SOL    HW113994   0.501   6.610   7.346  1.4407  0.7540 -0.9164
37329SOL    HW213995   0.615   6.533   7.410 -0.4553 -1.4565 -0.0367
37330SOL     OW13996   2.916   8.722   6.698  0.2518 -0.0873 -0.6993
37330SOL    HW113997   2.909   8.701   6.605 -2.6573 -0.5638 -0.4855
37330SOL    HW213998   2.825   8.729   6.728  1.0857  1.0535  1.9081
37331SOL     OW13999   1.120   8.712   2.696 -0.0227 -0.4528 -0.2616
37331SOL    HW114000   1.039   8.694   2.744 -0.1682 -0.8570 -0.6521
37331SOL    HW214001   1.190   8.698   2.760 -0.2801  0.4707  0.2447
37332SOL     OW14002   4.289   6.024   9.193  0.2205 -0.1053 -0.2150
37332SOL    HW114003   4.216   5.986   9.144 -2.1219 -0.5949  3.3054
37332SOL    HW214004   4.345   5.949   9.215  1.4494  0.1576 -2.2065
37333SOL     OW14005   2.969  10.323   1.478  0.2712 -0.3060 -0.1281
37333SOL    HW114006   2.945  10.261   1.410 -2.2339 -0.0489  0.4153
37333SOL    HW214007   2.988  10.404   1.431 -0.1875 -0.4797 -0.6225
37334SOL     OW14008   4.290   7.127   8.503 -0.1516 -0.4730  0.0214
37334SOL    HW114009   4.385   7.138   8.494  0.3778 -2.0135  2.6267
37334SOL    HW214010   4.252   7.194   8.445  2.5527  3.3571  2.1831
37335SOL     OW14011   2.153   7.110   7.460 -0.4890  0.6897  0.2095
37335SOL    HW114012   2.206   7.052   7.515  1.8509  0.9681 -1.6185
37335SOL    HW214013   2.147   7.192   7.510  0.9148  0.6823  0.4264
37336SOL     OW14014  10.644   6.314   9.427 -0.0572 -0.1498  0.1989
37336SOL    HW114015  10.631   6.287   9.336 -1.4477 -1.0602  0.6455
37336SOL    HW214016  10.633   6.234   9.477 -0.0468  0.4868  1.2330
37337SOL     OW14017   3.526   1.061   4.228 -0.1889 -0.9465 -0.2375
37337SOL    HW114018   3.524   1.017   4.313 -2.0545  0.6571  0.6320
37337SOL    HW214019   3.435   1.082   4.210  0.5369  3.5224  0.0510
37338SOL     OW14020   6.940   9.167   3.095 -0.6981  0.2363 -0.3804
37338SOL    HW114021   6.918   9.248   3.142  1.7146  0.4956  0.4418
37338SOL    HW214022   6.892   9.099   3.142 -0.5741  0.8729  0.7208
37339SOL     OW14023   0.981   5.593   2.744 -0.4085 -0.4517 -0.0802
37339SOL    HW114024   0.975   5.674   2.795 -0.3895 -0.9128  0.6772
37339SOL    HW214025   1.001   5.621   2.655  1.7278  0.2795  0.5716
37340SOL     OW14026   8.684   6.317   5.541  0.5802 -0.0879 -0.7671
37340SOL    HW114027   8.768   6.293   5.504  1.3139  1.2834 -0.0670
37340SOL    HW214028   8.629   6.337   5.465  1.0655 -0.3970 -1.2064
37341SOL     OW14029   7.080   6.682   5.612  0.5960 -0.0465  0.2731
37341SOL    HW114030   7.129   6.700   5.692  0.5819  0.6336  0.1370
37341SOL    HW214031   7.034   6.764   5.593 -1.3916 -0.9382  0.9318
37342SOL     OW14032   6.020   6.166   2.270 -0.1373 -0.3563  0.6902
37342SOL    HW114033   6.097   6.117   2.239 -0.0279 -0.0341  0.4459
37342SOL    HW214034   5.981   6.201   2.190 -0.8213 -0.9158  0.7650
37343SOL     OW14035   4.407   1.528  10.057 -0.7412  0.5840 -0.3958
37343SOL    HW114036   4.482   1.549  10.113 -1.1110 -0.4729  0.5490
37343SOL    HW214037   4.398   1.603   9.999  1.1389  0.6734 -0.6297
37344SOL     OW14038   4.715   5.491   3.672 -0.1677 -0.7750 -0.0249
37344SOL    HW114039   4.638   5.464   3.623 -0.5995 -1.4118  0.9595
37344SOL    HW214040   4.772   5.414   3.673  0.6652 -0.1898 -1.0678
37345SOL     OW14041   8.164   6.983   4.048  0.3221 -0.0258 -0.0639
37345SOL    HW114042   8.147   7.073   4.075  0.3825 -0.7564  2.8348
37345SOL    HW214043   8.242   6.957   4.098 -0.5845 -2.0983  0.4142
37346SOL     OW14044  10.196   0.305   7.461 -0.0141 -0.2695  0.3612
37346SOL    HW114045  10.106   0.291   7.431  0.0623  0.6451 -0.3277
37346SOL    HW214046  10.226   0.218   7.487 -0.7969 -0.7318 -0.2470
37347SOL     OW14047   7.294   9.392  10.974  0.2929 -0.0801  0.2732
37347SOL    HW114048   7.206   9.427  10.959  0.6454  0.4455 -0.6465
37347SOL    HW214049   7.345   9.425  10.901  1.1093 -0.9197  0.4563
37348SOL     OW14050   6.058   1.375  10.029  0.3880 -0.4315  0.6281
37348SOL    HW114051   5.975   1.363   9.984  1.3248  0.0758 -1.3753
37348SOL    HW214052   6.111   1.299  10.003  0.5653 -0.7460  1.8671
37349SOL     OW14053  10.518   8.869   0.782 -0.0965  0.6560 -0.1460
37349SOL    HW114054  10.466   8.882   0.702 -0.0573  0.0247 -0.2820
37349SOL    HW214055  10.592   8.928   0.772 -0.8962  1.7354  0.1532
37350SOL     OW14056   2.936   1.874   2.422 -0.7987  0.3248  0.5297
37350SOL    HW114057   2.878   1.854   2.496 -0.8345  1.1686  0.7355
37350SOL    HW214058   2.887   1.846   2.345 -1.0604  0.1054  0.7725
37351SOL     OW14059   3.994   4.167  10.776 -0.4379  0.4056  0.3450
37351SOL    HW114060   3.900   4.154  10.768 -0.3976  0.2208  0.1611
37351SOL    HW214061   4.033   4.096  10.725 -0.2046  0.8373 -0.0875
37352SOL     OW14062   4.866   4.802   6.703  0.2707 -0.4082 -0.0568
37352SOL    HW114063   4.833   4.724   6.657 -1.5561  0.2878  0.0043
37352SOL    HW214064   4.796   4.867   6.694  1.0694  0.6945  1.2930
37353SOL     OW14065   9.738   5.644  10.327 -0.2894 -0.0526  0.8130
37353SOL    HW114066   9.811   5.584  10.342 -0.4532 -0.0685  1.6042
37353SOL    HW214067   9.715   5.677  10.414 -0.9276  0.3047  0.5229
37354SOL     OW14068   6.865   0.390   7.601  0.4620  0.8495 -0.0561
37354SOL    HW114069   6.779   0.362   7.571 -0.1521  0.5970  1.8262
37354SOL    HW214070   6.859   0.486   7.604  0.2702  0.8365 -0.0121
37355SOL     OW14071   7.901   3.498  10.022 -0.4970 -0.0840  0.3715
37355SOL    HW114072   7.883   3.433   9.955  1.9529 -1.5551  1.0067
37355SOL    HW214073   7.821   3.501  10.075  0.0887 -4.5844  1.8752
37356SOL     OW14074   2.808   6.542   6.103 -0.1316 -0.3763  0.4692
37356SOL    HW114075   2.726   6.590   6.092 -1.1552 -2.0054  0.5703
37356SOL    HW214076   2.810   6.481   6.029  0.2092 -1.4090  1.3048
37357SOL     OW14077   6.616   7.586  10.815  0.2635  0.8941  0.1444
37357SOL    HW114078   6.694   7.629  10.849 -1.2691  2.6693  1.6868
37357SOL    HW214079   6.548   7.653  10.821 -1.5881 -0.8441 -0.3284
37358SOL     OW14080   9.142   7.851   8.243 -0.1330  0.2462  0.2216
37358SOL    HW114081   9.081   7.920   8.266 -0.9953 -0.9760  1.7322
37358SOL    HW214082   9.130   7.784   8.310  2.1786 -0.4658  0.0161
37359SOL     OW14083   1.337   4.785   3.021  0.3069 -0.0733 -0.7318
37359SOL    HW114084   1.343   4.828   3.106  3.8525  0.8346 -1.2965
37359SOL    HW214085   1.347   4.692   3.040  1.0538  0.1227 -0.1571
37360SOL     OW14086  10.841   3.829   4.367  0.3839 -0.0922 -0.0427
37360SOL    HW114087  10.916   3.819   4.307  0.8236  1.4158  0.2138
37360SOL    HW214088  10.807   3.916   4.347  0.7079  0.5620  2.0827
37361SOL     OW14089   7.558   2.328   2.656  0.3803  0.0169 -0.0406
37361SOL    HW114090   7.649   2.299   2.666  0.5568  1.0636  2.0806
37361SOL    HW214091   7.507   2.247   2.662  1.0438 -0.3210  2.0219
37362SOL     OW14092   3.802  10.284   8.104  0.1182 -0.0618 -0.1548
37362SOL    HW114093   3.774  10.322   8.186 -0.2359  1.5333 -0.9802
37362SOL    HW214094   3.897  10.298   8.102  0.0174  0.6492 -0.3634
37363SOL     OW14095   9.905   8.201   7.618  0.1189 -0.0557  0.3633
37363SOL    HW114096   9.841   8.136   7.648  0.4151 -1.2254 -1.4611
37363SOL    HW214097   9.876   8.224   7.530  0.8953  1.1769  0.4133
37364SOL     OW14098   3.762   0.062   3.378  0.2871 -0.2470 -0.6526
37364SOL    HW114099   3.673   0.091   3.356 -1.2048 -0.6425  3.8568
37364SOL    HW214100   3.818   0.131   3.343 -1.6577 -0.0952 -3.8849
37365SOL     OW14101   5.516   5.500  10.140 -0.2619 -0.1354 -0.0298
37365SOL    HW114102   5.608   5.515  10.159 -0.1994 -0.6239  0.0682
37365SOL    HW214103   5.495   5.560  10.069  0.4647 -0.9225 -0.9350
37366SOL     OW14104   2.683   0.511   8.963 -0.0329  0.0220  0.1750
37366SOL    HW114105   2.772   0.482   8.942 -0.9249 -3.7179  0.9043
37366SOL    HW214106   2.662   0.574   8.893  3.9119  3.0889  1.3427
37367SOL     OW14107   8.540   2.186   2.728 -0.2052 -0.4774  0.5782
37367SOL    HW114108   8.504   2.275   2.734 -1.0699 -0.6732 -1.0431
37367SOL    HW214109   8.464   2.131   2.707  0.7237 -1.1929 -1.0693
37368SOL     OW14110   2.399   5.232   6.375 -0.0656 -0.0939  0.5807
37368SOL    HW114111   2.382   5.191   6.460  0.5499  0.6780  1.0830
37368SOL    HW214112   2.312   5.246   6.338 -0.3425 -0.3131  1.1350
37369SOL     OW14113   9.751   0.897   7.564 -0.2506  0.2413  0.5622
37369SOL    HW114114   9.655   0.896   7.560 -0.2678 -1.7368 -1.9935
37369SOL    HW214115   9.776   0.961   7.497  0.1894  0.2885  0.7758
37370SOL     OW14116   2.196   5.741   9.300  0.0241  0.4457  0.0135
37370SOL    HW114117   2.239   5.762   9.382 -1.1915 -0.2908  0.8701
37370SOL    HW214118   2.108   5.777   9.308  0.2094  1.3103 -1.4221
37371SOL     OW14119   7.368  10.493   6.262  0.1595  0.1888 -0.3015
37371SOL    HW114120   7.366  10.527   6.351  0.6699  1.6208 -0.8120
37371SOL    HW214121   7.367  10.398   6.273  1.3356  0.3114  1.2721
37372SOL     OW14122   0.928   1.463   4.961 -0.2972  0.5138  0.6350
37372SOL    HW114123   0.888   1.483   5.046  1.3997 -0.6764  1.7863
37372SOL    HW214124   0.969   1.545   4.935 -0.6144  0.8244  1.0815
37373SOL     OW14125   4.558   7.488  10.603 -0.1739  0.3529  0.2428
37373SOL    HW114126   4.614   7.480  10.527  0.2490 -0.0605  0.5899
37373SOL    HW214127   4.618   7.504  10.676 -0.5269  0.2115  0.5702
37374SOL     OW14128   8.107   6.917   7.312 -0.3156 -0.5447 -0.6485
37374SOL    HW114129   8.030   6.920   7.256 -0.0467  2.5856 -1.0170
37374SOL    HW214130   8.072   6.905   7.400 -1.1196 -0.5468 -0.9627
37375SOL     OW14131   0.716   1.735   2.508  0.7998  0.0972 -0.1471
37375SOL    HW114132   0.631   1.770   2.534 -0.4283 -2.0640 -1.0120
37375SOL    HW214133   0.752   1.696   2.588 -0.6134 -1.9567 -0.4410
37376SOL     OW14134  10.084   1.811   3.308  0.1197  0.5001 -0.2632
37376SOL    HW114135  10.002   1.782   3.268  0.8816 -0.6146 -1.0896
37376SOL    HW214136  10.108   1.889   3.259 -1.1026  1.6541  0.8804
37377SOL     OW14137   4.823  10.275   1.902  0.2919 -0.6240  0.1517
37377SOL    HW114138   4.766  10.340   1.943 -1.2232 -2.2884  0.8059
37377SOL    HW214139   4.880  10.326   1.844  0.1654  1.4245  1.7236
37378SOL     OW14140   9.448   6.817   1.485 -0.1023  0.1690 -0.4914
37378SOL    HW114141   9.496   6.774   1.555 -0.8345  0.2026  0.0489
37378SOL    HW214142   9.407   6.745   1.436 -0.7329  0.2025 -0.0278
37379SOL     OW14143  11.266   8.557   5.409  0.0073  0.4127 -0.5481
37379SOL    HW114144  11.279   8.500   5.484 -0.9862  1.6274  0.6015
37379SOL    HW214145  11.191   8.520   5.363 -1.9606  1.7993  1.3252
37380SOL     OW14146   7.849   4.186   5.291  0.4979 -0.1380 -0.6709
37380SOL    HW114147   7.844   4.091   5.286  3.4733 -0.4637  0.3428
37380SOL    HW214148   7.904   4.211   5.216 -0.7268  0.8750 -1.2686
37381SOL     OW14149   5.414   0.965   2.995 -0.5022 -0.0682  0.1873
37381SOL    HW114150   5.395   1.020   3.071 -1.8520 -0.9623  0.5341
37381SOL    HW214151   5.330   0.924   2.973  0.2975 -1.4371 -0.4885
37382SOL     OW14152   7.391   2.924   9.313  0.4750 -0.1394  0.2663
37382SOL    HW114153   7.377   3.007   9.359 -1.0103 -0.0382 -0.3277
37382SOL    HW214154   7.441   2.948   9.236  0.8310  0.0628  0.5557
37383SOL     OW14155   4.790   5.782   7.603  1.2513 -0.1274  0.8017
37383SOL    HW114156   4.709   5.815   7.563  0.4979 -2.1773  0.5079
37383SOL    HW214157   4.860   5.823   7.552  0.3453 -0.4539 -0.7622
37384SOL     OW14158   1.717   1.286   5.486 -0.0252 -0.0550  0.1795
37384SOL    HW114159   1.630   1.279   5.448 -0.5406 -0.1231  1.3251
37384SOL    HW214160   1.738   1.196   5.513 -1.1173  0.4499  3.0644
37385SOL     OW14161   1.363   8.135   8.211  0.2816 -0.7295 -0.4034
37385SOL    HW114162   1.423   8.155   8.139  0.6043 -1.8586 -0.4683
37385SOL    HW214163   1.403   8.060   8.255 -1.8054 -2.5427 -1.3793
37386SOL     OW14164   6.384   3.861   5.710  0.2663  0.6706  0.2796
37386SOL    HW114165   6.337   3.873   5.793 -1.1935  0.1037 -0.4274
37386SOL    HW214166   6.432   3.942   5.697  0.1198  0.9576  1.4318
37387SOL     OW14167  10.253   0.681   7.172  0.3868 -0.2267  0.0531
37387SOL    HW114168  10.256   0.771   7.205  0.7316 -0.2400  0.0563
37387SOL    HW214169  10.322   0.677   7.106  0.8247 -0.6779  0.5298
37388SOL     OW14170   6.234   1.578  10.765  0.0637 -0.0612 -0.8473
37388SOL    HW114171   6.180   1.647  10.802  0.2359 -0.6706  0.6031
37388SOL    HW214172   6.172   1.510  10.738 -0.0552  0.3518 -1.6610
37389SOL     OW14173   1.540   2.996   0.518  0.7331  0.0560  0.1586
37389SOL    HW114174   1.591   2.995   0.437  0.9971  1.1127  0.2932
37389SOL    HW214175   1.451   2.973   0.491  0.2325  2.8292 -0.9120
37390SOL     OW14176   2.792  11.276   8.278 -0.3899  0.0943  0.0140
37390SOL    HW114177   2.840  11.252   8.357 -0.2311  1.4376  0.3481
37390SOL    HW214178   2.703  11.245   8.294 -0.0914 -0.6664  0.2247
37391SOL     OW14179   9.695   9.218   6.665 -0.9524  0.3656  0.5242
37391SOL    HW114180   9.668   9.280   6.598 -0.5728  0.1621  0.1737
37391SOL    HW214181   9.623   9.155   6.670 -0.2110 -0.6986 -1.0563
37392SOL     OW14182   5.582   9.715   2.824  0.3176  0.6885  0.1435
37392SOL    HW114183   5.507   9.772   2.843 -0.1300 -0.7175  3.3486
37392SOL    HW214184   5.623   9.701   2.910  1.8912 -1.7533 -0.8997
37393SOL     OW14185   5.346   9.126   6.455 -0.0587  0.2912 -0.6032
37393SOL    HW114186   5.378   9.091   6.372 -3.6374 -2.2010 -1.1641
37393SOL    HW214187   5.376   9.063   6.520 -0.8195 -0.1376 -0.6543
37394SOL     OW14188  10.507   6.565   3.057 -0.1699 -0.8481 -0.1504
37394SOL    HW114189  10.507   6.558   3.152  0.8862  0.4211 -0.0334
37394SOL    HW214190  10.416   6.585   3.034 -0.2663 -0.3034  0.6614
37395SOL     OW14191  10.319   6.811  10.473  0.2478 -0.0122 -0.8397
37395SOL    HW114192  10.245   6.768  10.515  0.3953  1.0222  0.5712
37395SOL    HW214193  10.323   6.774  10.385 -1.7772 -0.2608 -0.8533
37396SOL     OW14194   2.710   9.388   7.599 -0.4294  0.1165  0.3618
37396SOL    HW114195   2.725   9.455   7.666  2.0437 -0.1145  0.1543
37396SOL    HW214196   2.789   9.391   7.545 -1.5185 -1.0356 -1.3820
37397SOL     OW14197   3.919   6.583   9.007 -0.9333 -0.0939  0.1400
37397SOL    HW114198   3.861   6.537   8.946 -1.0927 -0.5902  0.6633
37397SOL    HW214199   3.972   6.640   8.950  0.0132 -1.6895 -0.6763
37398SOL     OW14200   5.595   2.345   4.767 -0.1370 -0.9330  0.2265
37398SOL    HW114201   5.581   2.323   4.859 -0.8339 -4.0373 -0.4947
37398SOL    HW214202   5.510   2.375   4.736 -0.2589 -1.2411  0.2641
37399SOL     OW14203   6.901   8.885   6.059 -0.4449  0.2656 -0.3316
37399SOL    HW114204   6.901   8.902   5.965 -0.5219  0.4683 -0.2969
37399SOL    HW214205   6.887   8.791   6.067  1.0112  0.0147 -0.5549
37400SOL     OW14206   7.947   8.095   1.974  0.0759  0.9775 -0.2738
37400SOL    HW114207   7.956   8.150   1.896 -1.1735  0.9513 -0.4603
37400SOL    HW214208   7.859   8.058   1.968  0.5995 -0.4330  0.2581
37401SOL     OW14209   3.461   9.224   4.504  0.0599 -0.0877 -0.1426
37401SOL    HW114210   3.474   9.141   4.550  1.8128  1.0579  1.5726
37401SOL    HW214211   3.487   9.205   4.414  4.0017 -0.6463  0.9399
37402SOL     OW14212  10.891   2.828   8.073 -0.4881 -0.3250  0.7405
37402SOL    HW114213  10.891   2.858   7.982  0.5044  1.4824  1.2890
37402SOL    HW214214  10.803   2.791   8.086 -0.5674 -0.8445 -0.9959
37403SOL     OW14215   3.426  10.831  11.154  0.3000  0.2079 -0.1880
37403SOL    HW114216   3.508  10.848  11.108  2.1371  0.5458  2.8934
37403SOL    HW214217   3.445  10.755  11.210 -1.5686  0.1385  0.4210
37404SOL     OW14218   7.572   4.285   6.221  0.3330 -0.0555  0.1677
37404SOL    HW114219   7.642   4.258   6.281  0.6347  0.7969  0.2115
37404SOL    HW214220   7.519   4.346   6.272  0.2731  0.2515 -0.2636
37405SOL     OW14221   6.445   7.171   4.268 -0.2772  0.3803  0.3571
37405SOL    HW114222   6.358   7.130   4.263 -0.1900  0.0944  1.0396
37405SOL    HW214223   6.503   7.111   4.223  0.0728 -0.9204  2.3922
37406SOL     OW14224   8.191   5.945   6.021 -0.2533  0.2822 -0.1211
37406SOL    HW114225   8.166   5.866   6.069 -1.1257  0.6401  0.0180
37406SOL    HW214226   8.263   5.917   5.964 -0.3581 -0.5366  0.1454
37407SOL     OW14227   5.385   7.727   2.139  0.1736 -0.4702  0.1206
37407SOL    HW114228   5.378   7.642   2.097  0.2278 -0.1325 -0.5820
37407SOL    HW214229   5.418   7.708   2.227  2.0459 -1.0170 -0.6580
37408SOL     OW14230   3.498   5.544  10.000  0.4263 -0.0190  0.1000
37408SOL    HW114231   3.413   5.576   9.970  0.8422  0.8930 -0.1503
37408SOL    HW214232   3.483   5.518  10.091 -0.6014 -1.8358 -0.5309
37409SOL     OW14233   3.776   8.614   1.801 -0.0768 -0.3041  0.0335
37409SOL    HW114234   3.871   8.619   1.797 -0.0570 -1.0833 -0.8261
37409SOL    HW214235   3.747   8.642   1.714 -0.8194  2.9387  1.1889
37410SOL     OW14236   1.557   3.762   4.852 -0.3143 -0.6011 -0.1923
37410SOL    HW114237   1.535   3.812   4.930  0.3397 -1.0637  0.2953
37410SOL    HW214238   1.617   3.694   4.882  0.5445 -0.3348 -1.2018
37411SOL     OW14239   9.866   2.393   1.433  0.0262 -0.5616 -0.6279
37411SOL    HW114240   9.925   2.373   1.360 -0.1505  0.7407 -1.1539
37411SOL    HW214241   9.780   2.362   1.404 -0.2465  0.8776 -1.4337
37412SOL     OW14242   6.524   3.735  10.071  0.1179  0.2087  0.3393
37412SOL    HW114243   6.612   3.746  10.108  0.3813 -2.1447  0.5272
37412SOL    HW214244   6.528   3.653  10.023 -1.3313  1.2845 -1.7663
37413SOL     OW14245   9.247   1.287   6.850 -0.0609 -0.6735  0.0954
37413SOL    HW114246   9.251   1.218   6.783  1.2675  0.0333 -0.5960
37413SOL    HW214247   9.279   1.365   6.805 -1.3079  0.3535  0.9394
37414SOL     OW14248   3.346   6.973   7.245  0.6482  0.4313  0.2728
37414SOL    HW114249   3.337   6.889   7.200 -0.0185 -0.5669  2.1231
37414SOL    HW214250   3.439   6.979   7.267  0.7470  0.3160 -0.1162
37415SOL     OW14251   9.822  10.369   3.905 -0.1863  0.3247 -0.0927
37415SOL    HW114252   9.779  10.328   3.830  1.1417  0.1823 -0.8011
37415SOL    HW214253   9.750  10.389   3.965 -1.2296  0.0165 -1.1881
37416SOL     OW14254   0.483   3.872  10.283 -0.3993  0.7937 -0.3911
37416SOL    HW114255   0.521   3.949  10.324  0.8549 -0.4619  0.9334
37416SOL    HW214256   0.409   3.849  10.339 -0.7434  0.9924 -0.7575
37417SOL     OW14257  10.215   1.637   5.907  0.1604  0.1847  0.2178
37417SOL    HW114258  10.239   1.730   5.909 -0.2757  0.3262 -0.5622
37417SOL    HW214259  10.202   1.618   5.814 -0.4445 -0.4763  0.4315
37418SOL     OW14260   5.871   6.204   2.761  0.6303 -0.1443 -0.3455
37418SOL    HW114261   5.836   6.144   2.695 -1.1650 -0.5584  0.9167
37418SOL    HW214262   5.948   6.158   2.796 -0.4062 -1.5027  0.2333
37419SOL     OW14263   8.361   6.408   1.260 -0.4480 -0.0917 -0.0293
37419SOL    HW114264   8.416   6.469   1.310 -0.3369 -0.3552  0.1688
37419SOL    HW214265   8.297   6.376   1.322 -1.1901  0.6499 -0.4007
37420SOL     OW14266  11.283   3.753   0.586 -0.5244  0.5676 -0.0774
37420SOL    HW114267  11.247   3.841   0.584  1.7324  1.5994  0.8855
37420SOL    HW214268  11.369   3.760   0.545 -0.9284 -1.5646 -1.4641
37421SOL     OW14269   7.173  10.166   3.788 -0.1124  0.1657 -0.4150
37421SOL    HW114270   7.124  10.241   3.823 -1.6702 -1.2468  0.5513
37421SOL    HW214271   7.125  10.139   3.710 -0.7779 -1.0729  0.3954
37422SOL     OW14272   1.014   3.676   0.188  0.0723  0.2660 -0.6259
37422SOL    HW114273   1.076   3.696   0.259  0.6561 -1.8621 -0.4569
37422SOL    HW214274   1.070   3.665   0.111 -0.7112  5.1456 -2.2661
37423SOL     OW14275  10.506  10.193   8.024 -0.3330 -0.4757  0.5958
37423SOL    HW114276  10.483  10.221   8.113 -0.1996  0.0467  0.4641
37423SOL    HW214277  10.563  10.117   8.038 -1.0890 -1.0005  0.9410
37424SOL     OW14278   0.024   2.374   4.258 -0.1991  0.2149 -0.1727
37424SOL    HW114279  -0.046   2.325   4.300  1.2084 -2.2137 -0.4780
37424SOL    HW214280   0.047   2.323   4.181  1.3302  1.3879 -0.5531
37425SOL     OW14281   2.102   5.081   1.855 -0.8385  0.4749  0.1860
37425SOL    HW114282   2.185   5.121   1.879 -0.6552 -0.3645  0.9944
37425SOL    HW214283   2.123   4.988   1.843 -1.1434  0.6469 -2.1422
37426SOL     OW14284   6.296   4.019   2.053  1.3728  0.2810 -0.0488
37426SOL    HW114285   6.370   3.976   2.010  1.7642 -0.9302  1.6939
37426SOL    HW214286   6.335   4.069   2.125  0.5978  0.5096  0.2263
37427SOL     OW14287   8.838  10.007   1.449  0.6193 -0.2579 -0.0637
37427SOL    HW114288   8.872  10.093   1.428 -0.5635 -0.1596 -1.7229
37427SOL    HW214289   8.745  10.021   1.469  1.1030 -0.7038  3.0932
37428SOL     OW14290   2.822   9.228   3.473  0.0088 -0.2382  0.6416
37428SOL    HW114291   2.886   9.168   3.435 -0.8983 -1.1559  0.5146
37428SOL    HW214292   2.846   9.314   3.440  0.2239 -0.7978 -0.6868
37429SOL     OW14293   2.894   2.734   5.195 -0.0878  0.0919  0.0399
37429SOL    HW114294   2.928   2.751   5.107 -0.8497 -1.5321 -0.6010
37429SOL    HW214295   2.944   2.658   5.225 -0.7845 -0.2137  0.4489
37430SOL     OW14296   3.888   4.004   0.232 -0.2025  0.2000 -0.1354
37430SOL    HW114297   3.807   3.960   0.258 -1.0356  0.5286 -1.9902
37430SOL    HW214298   3.875   4.095   0.259 -0.3620  0.2008 -0.2098
37431SOL     OW14299   4.931   7.161   7.691  0.2391 -0.0779  0.7820
37431SOL    HW114300   5.002   7.126   7.636 -0.3188  1.8074 -1.2692
37431SOL    HW214301   4.858   7.173   7.631 -1.0777  0.2347  2.3840
37432SOL     OW14302   8.600   8.934   1.970  0.5330  0.2309 -0.1621
37432SOL    HW114303   8.634   9.003   2.027  1.1490  0.1563 -0.4421
37432SOL    HW214304   8.525   8.898   2.019 -0.4401  1.7697 -0.4645
37433SOL     OW14305   5.736   3.328   9.369 -0.3028  0.0258  0.0307
37433SOL    HW114306   5.727   3.244   9.323  1.4590 -1.6702  2.5016
37433SOL    HW214307   5.774   3.387   9.305  0.6295 -1.7620 -1.1560
37434SOL     OW14308   4.586  10.714   3.257 -0.1122 -0.5045 -0.0993
37434SOL    HW114309   4.644  10.648   3.220  1.9368  1.6365 -1.0397
37434SOL    HW214310   4.535  10.746   3.183 -1.2413 -1.1343  0.3840
37435SOL     OW14311   7.585  11.159   0.204 -0.2123  0.8614  0.3116
37435SOL    HW114312   7.678  11.172   0.189  0.3470  0.1872  2.7468
37435SOL    HW214313   7.580  11.077   0.253 -2.2324  0.1149 -1.0246
37436SOL     OW14314   1.278   8.991   0.326 -0.3498  0.0442  0.6930
37436SOL    HW114315   1.236   8.982   0.241  2.8632 -4.5632 -0.7673
37436SOL    HW214316   1.336   9.066   0.317 -0.7043  0.1521 -0.8874
37437SOL     OW14317   6.120  10.232   3.781 -0.0357 -0.2657  0.1340
37437SOL    HW114318   6.153  10.319   3.803  0.4444 -0.1041 -1.1377
37437SOL    HW214319   6.034  10.228   3.821 -0.2039  0.9356 -0.0659
37438SOL     OW14320  11.262   0.821   1.471 -0.3105  0.0686 -0.2665
37438SOL    HW114321  11.336   0.824   1.411 -0.5711 -0.4375 -0.6208
37438SOL    HW214322  11.185   0.824   1.415 -0.5592 -0.5739  0.0213
37439SOL     OW14323  10.293   0.551  10.913  0.9155 -0.6986 -0.0079
37439SOL    HW114324  10.278   0.607  10.989 -0.1019 -0.2615 -0.5035
37439SOL    HW214325  10.340   0.608  10.851 -1.3286  0.1372 -1.0642
37440SOL     OW14326  10.101   6.958   4.845 -0.1333 -0.4819 -0.1712
37440SOL    HW114327  10.065   6.894   4.907  0.7676 -1.9205 -1.0724
37440SOL    HW214328  10.187   6.980   4.879 -0.0360 -0.5260 -0.3823
37441SOL     OW14329  10.234   5.618   8.334  0.5055  0.7295 -0.1575
37441SOL    HW114330  10.230   5.523   8.346  0.6760  0.7742  0.2814
37441SOL    HW214331  10.283   5.650   8.410 -0.1087  1.2338  0.0355
37442SOL     OW14332   1.326   5.985  10.298  0.1387 -0.5550 -0.1134
37442SOL    HW114333   1.267   5.998  10.371 -1.3347 -0.0732 -1.3426
37442SOL    HW214334   1.293   5.906  10.253  0.1007 -0.0060 -1.0841
37443SOL     OW14335   1.729   7.135   0.395 -0.4205 -0.0006 -0.1639
37443SOL    HW114336   1.736   7.104   0.304  2.6226  2.3012 -0.8979
37443SOL    HW214337   1.643   7.177   0.399 -0.7970 -0.5153 -1.8609
37444SOL     OW14338   5.593   0.910   3.712  0.1191 -0.2765 -0.1486
37444SOL    HW114339   5.676   0.943   3.677  0.0556  1.6952  1.4081
37444SOL    HW214340   5.551   0.986   3.752 -2.3300 -1.2760 -0.5866
37445SOL     OW14341   9.506   8.829   5.204  0.0318 -0.0159 -0.4579
37445SOL    HW114342   9.435   8.870   5.254  1.1591  0.9004  0.4628
37445SOL    HW214343   9.585   8.850   5.254  0.8996 -1.4622 -1.1645
37446SOL     OW14344   0.221   0.907   1.639 -0.6013 -0.6766 -0.4012
37446SOL    HW114345   0.138   0.866   1.662  0.6850 -2.0753  2.2137
37446SOL    HW214346   0.283   0.835   1.631  0.5354  0.3753 -1.6395
37447SOL     OW14347   5.613   3.726   4.091 -1.0399 -0.2139  0.7071
37447SOL    HW114348   5.660   3.752   4.011 -4.3334  2.5518 -0.5997
37447SOL    HW214349   5.573   3.642   4.069 -1.5750  0.3212 -0.4587
37448SOL     OW14350   6.101  10.493   0.141 -0.2961  0.1529  1.1471
37448SOL    HW114351   6.053  10.545   0.077 -0.3419 -1.2488 -0.0105
37448SOL    HW214352   6.137  10.557   0.203 -1.9690  1.3862  0.9025
37449SOL     OW14353   6.488   6.237  11.180 -0.4071  0.4914 -0.2111
37449SOL    HW114354   6.455   6.161  11.228 -0.4551  0.6348 -0.0224
37449SOL    HW214355   6.583   6.237  11.196 -0.5444  1.0806  0.6416
37450SOL     OW14356   7.078   5.567   0.421  0.0134  0.2281 -1.4200
37450SOL    HW114357   7.129   5.648   0.418  0.3417  0.2104  1.2117
37450SOL    HW214358   7.135   5.501   0.382  0.7998  0.7790 -1.2319
37451SOL     OW14359   2.423   9.482   7.077  0.2148 -0.2299  0.3955
37451SOL    HW114360   2.344   9.433   7.058 -0.8161  0.7015  2.0731
37451SOL    HW214361   2.445   9.460   7.168  1.0996  0.5616  0.3977
37452SOL     OW14362  10.471   6.819   9.231  0.4461 -0.0678 -0.1996
37452SOL    HW114363  10.558   6.792   9.202  0.1297  2.3963 -4.0516
37452SOL    HW214364  10.411   6.777   9.169 -0.8017  1.0577  0.2070
37453SOL     OW14365  10.744   3.341   6.157  0.3588  0.5315 -0.6175
37453SOL    HW114366  10.820   3.339   6.215 -1.2069  0.3624  1.5172
37453SOL    HW214367  10.724   3.248   6.141  0.6797  0.5761 -1.3392
37454SOL     OW14368  10.233   1.694   0.833  0.2886  0.0595 -0.0139
37454SOL    HW114369  10.322   1.660   0.830 -0.8291 -3.1683 -1.6236
37454SOL    HW214370  10.178   1.616   0.832 -2.5834  1.9359  0.3654
37455SOL     OW14371   9.425   5.743   9.715  0.1822 -0.0466 -0.3367
37455SOL    HW114372   9.435   5.699   9.630 -3.4417 -2.0686  0.0518
37455SOL    HW214373   9.391   5.830   9.693  1.7675  0.4483 -0.9619
37456SOL     OW14374   0.748   5.248  11.051 -0.2238  0.0906 -0.3099
37456SOL    HW114375   0.756   5.307  10.976  1.3965 -0.1942 -0.3976
37456SOL    HW214376   0.783   5.299  11.125 -1.1558  0.1182  0.1274
37457SOL     OW14377   7.598   9.028   4.070  0.3330 -0.0752 -0.0591
37457SOL    HW114378   7.648   8.961   4.116  0.3244  2.4730  4.0957
37457SOL    HW214379   7.522   8.981   4.034  2.6879 -3.0059 -1.6570
37458SOL     OW14380   9.435   5.573   6.214  0.1839 -0.7742 -0.5578
37458SOL    HW114381   9.480   5.657   6.217 -0.0076 -0.6830  0.0378
37458SOL    HW214382   9.349   5.593   6.178 -0.2873 -0.4923  0.6547
37459SOL     OW14383   9.164   7.717  10.690  0.2070 -0.5699 -0.9887
37459SOL    HW114384   9.148   7.791  10.632  2.1122  0.0552 -0.7817
37459SOL    HW214385   9.258   7.720  10.708 -0.5329  0.9330  4.3489
37460SOL     OW14386   8.645   5.624  10.144 -0.0689  0.5355 -0.1219
37460SOL    HW114387   8.692   5.553  10.101 -1.5600 -0.0224 -0.9151
37460SOL    HW214388   8.662   5.701  10.091 -1.5560 -0.0637 -1.5503
37461SOL     OW14389  10.891   7.698   4.188 -0.2980  0.4850 -0.6131
37461SOL    HW114390  10.868   7.657   4.271  0.7510 -0.7733 -0.9094
37461SOL    HW214391  10.905   7.790   4.209  0.2470  0.1233  0.6600
37462SOL     OW14392  10.925   3.486   0.492 -1.1028  0.4614  0.0778
37462SOL    HW114393  10.964   3.410   0.536 -1.7840  0.0941  0.0593
37462SOL    HW214394  10.833   3.463   0.481 -0.9192  0.4547 -1.7287
37463SOL     OW14395   8.242   8.129   0.771  0.3176  0.0827  0.7429
37463SOL    HW114396   8.180   8.189   0.731  1.0465  0.6719  0.4784
37463SOL    HW214397   8.318   8.183   0.792  1.7082 -1.0264 -1.0922
37464SOL     OW14398   7.486   2.100   9.671 -0.6322 -0.0479 -0.1931
37464SOL    HW114399   7.533   2.020   9.649 -1.8391 -1.2518  1.4414
37464SOL    HW214400   7.520   2.165   9.608  1.8913 -1.2687 -0.2287
37465SOL     OW14401   9.555   9.158   9.431 -0.0882  0.5053  0.0193
37465SOL    HW114402   9.586   9.071   9.459 -0.5963  0.5412  0.7433
37465SOL    HW214403   9.461   9.145   9.414 -0.4147  1.1470  1.2257
37466SOL     OW14404   8.918   8.690   2.436 -0.1239 -0.4657 -0.0267
37466SOL    HW114405   8.889   8.703   2.346 -1.7319  1.2211  0.6759
37466SOL    HW214406   8.953   8.775   2.462 -2.7501  0.1393  1.9397
37467SOL     OW14407   5.393   3.764   3.868 -0.5847 -0.1478 -0.0427
37467SOL    HW114408   5.304   3.769   3.902 -0.9352 -0.3442 -0.8977
37467SOL    HW214409   5.444   3.821   3.926 -0.8223 -1.6461  1.7366
37468SOL     OW14410   4.024   6.082   6.242  0.3059 -0.3013 -0.6456
37468SOL    HW114411   4.050   6.165   6.280  1.8064 -0.7791 -0.5694
37468SOL    HW214412   3.980   6.036   6.314  0.2524  0.0665 -0.4391
37469SOL     OW14413   3.591   7.921   3.397 -0.1324  0.5013  0.6253
37469SOL    HW114414   3.602   7.915   3.302 -0.4494  2.3936  0.4367
37469SOL    HW214415   3.678   7.942   3.430  0.4975 -2.3383  1.0539
37470SOL     OW14416  10.260   1.942  10.783 -0.1777 -0.1108 -0.3135
37470SOL    HW114417  10.167   1.936  10.804 -0.3031 -1.2680 -1.1312
37470SOL    HW214418  10.275   1.872  10.719  0.7747  1.4690 -1.9240
37471SOL     OW14419  11.121   7.734   4.890 -0.0094 -0.4197 -0.0690
37471SOL    HW114420  11.163   7.656   4.925  0.4996  0.2397  0.8124
37471SOL    HW214421  11.039   7.742   4.939 -0.1345 -0.4768 -0.2648
37472SOL     OW14422   0.283   4.430   9.276  0.2840 -0.7202 -0.0410
37472SOL    HW114423   0.197   4.471   9.275  1.2397  1.4233 -1.1630
37472SOL    HW214424   0.303   4.420   9.369 -0.8199 -0.4772  0.2365
37473SOL     OW14425   7.127   6.428   6.455 -0.3821 -0.0422  0.1546
37473SOL    HW114426   7.139   6.517   6.488  2.0916 -0.0113 -0.6464
37473SOL    HW214427   7.208   6.382   6.478 -2.5626 -2.9589  2.9246
37474SOL     OW14428   1.871   1.549   4.051  0.8063 -0.1577 -0.0474
37474SOL    HW114429   1.892   1.527   3.961 -0.6201  1.3376 -0.7913
37474SOL    HW214430   1.943   1.606   4.079  1.7927 -1.4441  0.1580
37475SOL     OW14431  10.677   0.275   9.722 -0.2715 -0.4436 -0.8879
37475SOL    HW114432  10.616   0.219   9.770 -1.1127  1.0549 -0.1407
37475SOL    HW214433  10.631   0.358   9.711  1.5552  0.7000 -0.4235
37476SOL     OW14434   3.247   7.346   1.471  0.7142 -0.3380  0.0443
37476SOL    HW114435   3.269   7.438   1.485 -2.3640  0.7172 -1.1882
37476SOL    HW214436   3.223   7.314   1.558  0.8001  0.3441  0.3311
37477SOL     OW14437   8.591  11.248   3.870  0.2309  0.4475  0.4743
37477SOL    HW114438   8.645  11.263   3.947 -0.3806  0.4342  0.9115
37477SOL    HW214439   8.502  11.240   3.904 -0.0454  0.4356 -0.2313
37478SOL     OW14440   3.473   5.541   5.598 -0.0882 -0.6991  0.0793
37478SOL    HW114441   3.513   5.613   5.646 -0.1437 -1.5188  1.4138
37478SOL    HW214442   3.380   5.547   5.619 -0.2176 -0.6835 -0.4688
37479SOL     OW14443  10.225   6.285   9.602  0.7021  0.4232 -0.0275
37479SOL    HW114444  10.257   6.201   9.636  0.9531 -0.0543 -1.3793
37479SOL    HW214445  10.291   6.312   9.538  0.0097  1.0408 -0.4973
37480SOL     OW14446   2.074   1.060   5.356 -0.4207  0.5435 -0.3922
37480SOL    HW114447   2.040   1.139   5.314 -2.0111  0.3666  0.4852
37480SOL    HW214448   2.162   1.084   5.384 -0.2544  1.4608 -1.5890
37481SOL     OW14449  10.412   6.726   7.071  0.2417 -0.3516 -0.2265
37481SOL    HW114450  10.498   6.691   7.046  0.2486 -0.5268  0.0391
37481SOL    HW214451  10.423   6.754   7.162  0.0892 -0.1356 -0.2732
37482SOL     OW14452   4.831   0.816   4.378 -0.1241 -0.7956 -0.3707
37482SOL    HW114453   4.798   0.885   4.320  1.9346 -1.2494 -2.2223
37482SOL    HW214454   4.893   0.861   4.435  2.0058 -1.1810 -2.2674
37483SOL     OW14455   7.856   4.621  10.606  0.1125 -0.0812 -0.1897
37483SOL    HW114456   7.837   4.558  10.675 -1.6144 -1.2327 -1.6422
37483SOL    HW214457   7.869   4.569  10.528  1.3477  1.2369 -0.9232
37484SOL     OW14458   7.696   1.642   8.319  0.0301  0.2625  0.2079
37484SOL    HW114459   7.632   1.693   8.369 -0.6561 -0.1406 -0.2352
37484SOL    HW214460   7.779   1.655   8.364  0.3679  3.5537 -1.0529
37485SOL     OW14461   2.575   1.154   1.921  0.2621  0.2752 -0.2932
37485SOL    HW114462   2.500   1.198   1.882 -1.0381 -1.7437 -0.2500
37485SOL    HW214463   2.650   1.189   1.874 -0.8969  0.8233 -1.8296
37486SOL     OW14464   6.548   3.454   2.244 -0.3048 -0.1919 -0.0168
37486SOL    HW114465   6.610   3.504   2.192  0.4335  0.0740  1.0770
37486SOL    HW214466   6.566   3.363   2.221 -0.0677 -0.0724 -0.3120
37487SOL     OW14467   1.196  10.940   6.162  1.0720 -0.5397  0.6023
37487SOL    HW114468   1.141  10.892   6.101  3.3863 -2.2849 -0.2531
37487SOL    HW214469   1.215  10.878   6.232  1.1716  0.3312  1.3637
37488SOL     OW14470   7.508   8.087   0.659  0.1984  0.3150  0.8756
37488SOL    HW114471   7.527   8.151   0.589 -0.1215 -2.1127 -1.6093
37488SOL    HW214472   7.493   8.005   0.612  1.3819 -1.8250  3.9489
37489SOL     OW14473   3.484   1.104   8.375  0.8765 -0.2182 -0.3749
37489SOL    HW114474   3.454   1.128   8.287  1.2527 -0.2043 -0.5034
37489SOL    HW214475   3.579   1.117   8.372  0.9250 -0.4875 -0.0514
37490SOL     OW14476   0.482  10.457  10.800 -0.2436 -0.2688  1.0427
37490SOL    HW114477   0.561  10.504  10.774 -0.4219 -0.7266 -0.4386
37490SOL    HW214478   0.459  10.494  10.885 -1.2891  3.5513 -0.6581
37491SOL     OW14479   6.145   3.773   6.636 -0.5251  0.0144  0.2791
37491SOL    HW114480   6.095   3.791   6.557  0.0168  1.2027  0.1794
37491SOL    HW214481   6.164   3.859   6.673  1.5545 -0.3627  0.2230
37492SOL     OW14482   4.424   4.421   0.582 -0.0490  0.7909  0.3015
37492SOL    HW114483   4.517   4.421   0.604  0.1293  0.4977 -0.4018
37492SOL    HW214484   4.406   4.512   0.557  0.8050  0.3003 -2.4622
37493SOL     OW14485  10.556   3.478   4.481 -0.5244  0.3611 -0.1367
37493SOL    HW114486  10.489   3.539   4.512 -2.7281 -2.0865  0.3000
37493SOL    HW214487  10.538   3.468   4.388 -0.0068  0.5266 -0.2602
37494SOL     OW14488   6.223   8.371   9.360  0.3204  0.1691  0.1561
37494SOL    HW114489   6.140   8.329   9.339  1.0492 -1.7342  0.8177
37494SOL    HW214490   6.223   8.452   9.310 -1.4065 -0.3758 -0.7933
37495SOL     OW14491   8.656   3.013   9.318 -0.2145 -0.0865 -0.6259
37495SOL    HW114492   8.600   3.000   9.395  1.7067 -0.1594  0.8491
37495SOL    HW214493   8.601   2.989   9.244 -3.3040  3.1686  0.3256
37496SOL     OW14494  10.794   3.186   9.887  0.3753 -0.7169  0.7233
37496SOL    HW114495  10.887   3.200   9.908  0.8366  1.7688 -2.1906
37496SOL    HW214496  10.753   3.270   9.904  0.1504  0.4440 -4.0993
37497SOL     OW14497   4.005   4.959   5.764  0.0338  0.0039 -0.9249
37497SOL    HW114498   4.038   5.048   5.775 -0.7191  0.2884 -0.8946
37497SOL    HW214499   3.910   4.969   5.764 -0.0706 -0.8891 -0.2018
37498SOL     OW14500  10.657   8.895   1.261 -0.0553 -0.0233 -0.1506
37498SOL    HW114501  10.575   8.873   1.217 -1.6443  3.0357  0.9726
37498SOL    HW214502  10.645   8.863   1.351  0.9755 -1.5839 -0.5455
37499SOL     OW14503   3.707   3.463   9.845 -0.0411 -0.2912 -0.0856
37499SOL    HW114504   3.757   3.429   9.919 -0.3812 -0.0398  0.2656
37499SOL    HW214505   3.733   3.409   9.771 -0.7393 -1.4626  0.5025
37500SOL     OW14506   6.506  11.274  11.141 -0.8557 -0.6190 -0.8838
37500SOL    HW114507   6.498  11.364  11.171  2.4113 -0.9736  1.6388
37500SOL    HW214508   6.467  11.222  11.211  2.2607 -1.2476  0.5773
37501SOL     OW14509   5.638   7.421   2.218 -0.2979  0.7872  0.5343
37501SOL    HW114510   5.572   7.377   2.163  1.8264 -2.2679  0.1636
37501SOL    HW214511   5.593   7.437   2.301 -1.8721  0.0056 -0.1161
37502SOL     OW14512   6.704   0.570  10.286  0.0761  0.8638  0.6728
37502SOL    HW114513   6.713   0.617  10.203  2.2852 -1.4100 -0.4913
37502SOL    HW214514   6.735   0.632  10.352  1.9533  1.4219 -0.6783
37503SOL     OW14515   7.866   4.961   9.395  0.3762 -0.1800  0.0041
37503SOL    HW114516   7.953   4.933   9.368  0.4767  2.1079 -2.4582
37503SOL    HW214517   7.827   4.883   9.435  2.9875 -1.6925 -0.1691
37504SOL     OW14518   2.264   8.746  10.045 -0.8706 -0.2318  0.0611
37504SOL    HW114519   2.195   8.811  10.030 -0.9435  0.1156  1.6987
37504SOL    HW214520   2.249   8.716  10.135  0.9376 -0.3560  0.3521
37505SOL     OW14521   9.063   9.864   5.940  0.2995 -0.4895  0.1083
37505SOL    HW114522   9.114   9.783   5.935 -1.0836 -1.3166 -2.5260
37505SOL    HW214523   8.991   9.844   5.999  2.0060  0.1822  2.5869
37506SOL     OW14524   1.913   3.633   5.263 -0.1007  0.0077 -0.2745
37506SOL    HW114525   1.874   3.717   5.238  1.3528  0.5842 -0.7634
37506SOL    HW214526   1.957   3.651   5.347  1.6379  0.2569 -1.1775
37507SOL     OW14527   3.429   0.334   4.682 -0.4677  0.3376  0.0686
37507SOL    HW114528   3.509   0.299   4.721 -0.4999 -0.6801 -0.7379
37507SOL    HW214529   3.459   0.389   4.610 -0.4891 -0.9557 -0.9674
37508SOL     OW14530  10.621  10.374   7.237 -0.1031  0.1848  0.7750
37508SOL    HW114531  10.651  10.424   7.313  1.0916  1.1106 -0.2569
37508SOL    HW214532  10.687  10.305   7.226  1.0334  1.4441 -0.7376
37509SOL     OW14533   7.750   7.582   9.162 -0.6963 -0.0878  0.2190
37509SOL    HW114534   7.763   7.488   9.176 -0.3078 -0.1336 -0.4261
37509SOL    HW214535   7.685   7.607   9.228  1.3257 -0.1945  2.3715
37510SOL     OW14536   9.063   5.368   6.141  0.0527  0.0884 -0.1287
37510SOL    HW114537   9.083   5.275   6.131 -0.2157  0.0785 -0.5543
37510SOL    HW214538   8.969   5.371   6.159  0.6024  0.0012  3.6151
37511SOL     OW14539   6.889   7.194  11.258 -0.3934  0.1212 -0.2715
37511SOL    HW114540   6.871   7.133  11.187  2.5242  0.2541 -1.2506
37511SOL    HW214541   6.877   7.280  11.219 -2.4069  0.2614  0.5207
37512SOL     OW14542   3.779   2.794   7.583  0.2297  0.0671  0.5895
37512SOL    HW114543   3.702   2.758   7.626 -0.0239 -0.9867 -0.6988
37512SOL    HW214544   3.853   2.760   7.634 -0.0875 -0.6017  0.6108
37513SOL     OW14545   7.046   5.480   4.070  0.4479 -0.4713  0.0554
37513SOL    HW114546   6.999   5.437   4.141 -1.2641  1.2605  0.0493
37513SOL    HW214547   6.986   5.478   3.995  0.7063  0.9914 -0.2249
37514SOL     OW14548   1.076   2.767   4.617 -0.3004  0.0315 -1.2441
37514SOL    HW114549   1.065   2.743   4.709 -2.6993 -3.6134 -2.2728
37514SOL    HW214550   1.167   2.745   4.597  0.0575  0.2506  0.0579
37515SOL     OW14551   4.045   1.086   8.331 -0.0233  0.4781  0.2958
37515SOL    HW114552   4.122   1.041   8.366  0.6772  0.8499 -0.7369
37515SOL    HW214553   4.060   1.178   8.350 -0.8948  0.4315  1.3310
37516SOL     OW14554   3.270   5.469   8.200 -0.3394 -0.1028  0.5393
37516SOL    HW114555   3.335   5.506   8.261 -1.0711  0.0498  1.2422
37516SOL    HW214556   3.221   5.406   8.252  0.6191 -1.8069 -0.5531
37517SOL     OW14557   4.818   7.005   1.309  0.1265  0.2980  0.0671
37517SOL    HW114558   4.769   7.081   1.279 -1.3094 -0.3949  0.6083
37517SOL    HW214559   4.901   7.041   1.341 -0.1968  1.5345 -0.4426
37518SOL     OW14560   8.163   1.886   0.209  0.2203  0.7978  0.4735
37518SOL    HW114561   8.204   1.867   0.293  0.0910  0.0297  0.3698
37518SOL    HW214562   8.233   1.879   0.145  0.4353  1.9119  0.5622
37519SOL     OW14563   1.600   6.364   9.653  0.1136  0.4276  0.8368
37519SOL    HW114564   1.549   6.312   9.714 -0.9425  1.7726  1.1488
37519SOL    HW214565   1.575   6.455   9.671 -0.0442  0.8913 -1.3923
37520SOL     OW14566   5.132   6.626   9.181 -0.2988 -0.0092  0.7004
37520SOL    HW114567   5.066   6.557   9.172 -1.2677  0.8322  1.1636
37520SOL    HW214568   5.185   6.618   9.102 -1.2806 -0.3787  0.0574
37521SOL     OW14569   4.303   9.325   0.611 -0.2369  0.3203 -0.4691
37521SOL    HW114570   4.357   9.336   0.533  0.3446 -1.7643 -0.4069
37521SOL    HW214571   4.358   9.278   0.673 -1.5861 -0.4786  0.1850
37522SOL     OW14572  10.828   0.918   8.431 -0.1421  0.2422 -0.3618
37522SOL    HW114573  10.922   0.904   8.428 -0.1900 -0.4295  0.7970
37522SOL    HW214574  10.804   0.940   8.341  1.0334 -0.1066 -0.7740
37523SOL     OW14575   7.435   7.545   5.350  0.0050 -0.1361  0.3337
37523SOL    HW114576   7.515   7.595   5.340  0.1009 -0.4186 -0.4138
37523SOL    HW214577   7.402   7.569   5.436  1.7560 -1.2598  1.3810
37524SOL     OW14578   1.129  10.297   0.662 -0.1116  0.3623 -0.1126
37524SOL    HW114579   1.179  10.230   0.711  0.4842  0.2455 -0.8575
37524SOL    HW214580   1.039  10.286   0.692  0.3009  0.6037  1.3048
37525SOL     OW14581   8.026   9.855  10.648 -0.0718  0.9899 -0.4985
37525SOL    HW114582   8.021   9.802  10.568 -1.3010 -0.5482  0.5431
37525SOL    HW214583   7.963   9.926  10.634  0.6862  1.5036 -1.4073
37526SOL     OW14584   8.834   2.431   5.926  0.0991 -0.4651 -0.0000
37526SOL    HW114585   8.807   2.390   6.009  1.0658  0.7678  0.9633
37526SOL    HW214586   8.802   2.521   5.933  0.0755 -0.3835 -1.0485
37527SOL     OW14587   8.026   3.955   4.640 -0.3262 -0.0052  0.1798
37527SOL    HW114588   8.089   3.902   4.688 -0.0115 -0.3924 -0.6548
37527SOL    HW214589   8.057   3.954   4.549  0.4483  2.7024  0.3457
37528SOL     OW14590   6.062   2.698   0.190  0.4545 -0.4412 -0.3741
37528SOL    HW114591   6.041   2.692   0.283 -1.5310  1.8071 -0.5692
37528SOL    HW214592   5.979   2.721   0.148  1.3978 -0.9079 -2.6470
37529SOL     OW14593   3.740   2.369   3.594 -0.2866  0.1608  0.2674
37529SOL    HW114594   3.829   2.356   3.625 -0.5181 -2.3749  0.0270
37529SOL    HW214595   3.747   2.366   3.498 -0.6519 -0.3326  0.2507
37530SOL     OW14596   3.428   6.092  10.371  0.3386 -0.4971  0.1813
37530SOL    HW114597   3.473   6.176  10.371  0.8660 -0.7742 -0.0051
37530SOL    HW214598   3.409   6.076  10.464 -0.5234  0.2206  0.1341
37531SOL     OW14599  10.252   2.684   5.408 -0.0723 -0.3870  0.7337
37531SOL    HW114600  10.232   2.634   5.488  0.0084 -0.2854  0.8174
37531SOL    HW214601  10.245   2.776   5.435 -1.8074 -0.3144  0.2015
37532SOL     OW14602   2.593   6.915   1.843  0.2713 -0.4496  0.2984
37532SOL    HW114603   2.503   6.936   1.866  0.0612  0.6864 -1.3807
37532SOL    HW214604   2.645   6.944   1.919 -0.6205  0.4410  0.5879
37533SOL     OW14605   6.393   8.035   4.839 -0.6011  0.3083  0.0097
37533SOL    HW114606   6.465   8.017   4.899 -1.8042  0.5536  1.5858
37533SOL    HW214607   6.317   7.995   4.880 -1.9471  2.6526 -0.0355
37534SOL     OW14608   0.931   8.340   6.992 -0.2255  0.2898 -0.4436
37534SOL    HW114609   0.937   8.293   6.908 -1.2380 -2.9291  1.1128
37534SOL    HW214610   0.969   8.279   7.056 -0.2855  2.2769  1.5925
37535SOL     OW14611   8.153  10.746   1.671  0.1103  0.3813 -0.1533
37535SOL    HW114612   8.133  10.823   1.617 -0.0688  0.8965  0.6364
37535SOL    HW214613   8.125  10.770   1.759 -1.2919 -1.1233 -0.1396
37536SOL     OW14614   6.505   9.082  10.551  0.8535 -0.1124 -0.3543
37536SOL    HW114615   6.566   9.084  10.477 -1.3365  2.5044 -2.2921
37536SOL    HW214616   6.499   9.174  10.579 -1.7546 -0.3337  0.0667
37537SOL     OW14617   7.050   6.593   1.286  0.3520  0.1702 -0.5277
37537SOL    HW114618   7.116   6.570   1.352 -0.4917 -0.6664  0.0554
37537SOL    HW214619   6.966   6.584   1.332 -0.1989  0.7745 -1.3795
37538SOL     OW14620   2.682   5.423   7.212  0.3486 -0.2220  0.1178
37538SOL    HW114621   2.637   5.342   7.235  1.5071 -0.5272  1.4737
37538SOL    HW214622   2.735   5.443   7.289  1.9732  0.4942 -1.1358
37539SOL     OW14623   3.606   0.399   4.911  0.3863 -0.2697 -0.5697
37539SOL    HW114624   3.651   0.354   4.840 -0.5147 -0.7630 -0.8469
37539SOL    HW214625   3.566   0.475   4.870  2.9855  1.6094  0.1284
37540SOL     OW14626   3.717   0.734   2.449 -0.2410  0.1783 -0.2681
37540SOL    HW114627   3.795   0.739   2.394 -1.2373  0.6072 -1.7059
37540SOL    HW214628   3.697   0.640   2.455  0.9437 -0.0161  0.9678
37541SOL     OW14629  10.349   5.069   4.638 -0.1495 -0.4495  0.1016
37541SOL    HW114630  10.291   5.002   4.672 -0.3702 -0.4259 -0.2173
37541SOL    HW214631  10.311   5.152   4.666  0.2276 -0.4615  0.6573
37542SOL     OW14632   0.377   6.023   3.289  0.2753 -0.5988  0.0275
37542SOL    HW114633   0.418   6.094   3.339  0.0540 -0.2073 -0.3331
37542SOL    HW214634   0.345   6.066   3.210 -2.1616 -0.5715  0.9486
37543SOL     OW14635   8.805   2.319   9.703 -0.0900  0.1060 -1.0048
37543SOL    HW114636   8.828   2.409   9.681 -2.2361  0.9734  0.0986
37543SOL    HW214637   8.789   2.277   9.618  1.9125  0.4178 -1.5912
37544SOL     OW14638   4.688   5.607   5.270 -0.2954  0.4831  0.6466
37544SOL    HW114639   4.768   5.567   5.304 -0.7962 -0.6715  0.5129
37544SOL    HW214640   4.638   5.534   5.234 -1.5038  1.1574  0.8965
37545SOL     OW14641   8.145   8.914   7.475  0.3707 -0.1365  0.3742
37545SOL    HW114642   8.127   8.989   7.419 -0.5529  0.2430  1.1461
37545SOL    HW214643   8.144   8.949   7.564  0.3603 -0.9790  0.7225
37546SOL     OW14644   4.621   7.900   1.427 -0.2677 -0.3852  0.5253
37546SOL    HW114645   4.703   7.877   1.383 -0.1599 -0.3928  0.7300
37546SOL    HW214646   4.609   7.992   1.406  0.9323  0.2171  2.2878
37547SOL     OW14647   6.090   6.297   9.542  0.3382  0.7951  0.1559
37547SOL    HW114648   6.182   6.289   9.517 -0.1480 -1.6692 -1.2182
37547SOL    HW214649   6.071   6.216   9.590 -1.6859  0.0350 -1.7592
37548SOL     OW14650   0.455   5.739   0.467 -0.2097 -0.0441  0.6444
37548SOL    HW114651   0.487   5.666   0.413 -1.8150 -1.0615  1.0253
37548SOL    HW214652   0.419   5.801   0.404  2.4503  1.1733  0.1924
37549SOL     OW14653   1.039   5.865  10.204  0.1062 -0.0751 -0.3295
37549SOL    HW114654   1.027   5.955  10.174  0.1517  0.7261  1.8604
37549SOL    HW214655   0.957   5.842  10.246  0.3709 -0.7930 -0.1868
37550SOL     OW14656   2.299   2.151  10.891  0.3923  0.1978  0.2203
37550SOL    HW114657   2.203   2.153  10.898  0.4144 -0.5941  0.9599
37550SOL    HW214658   2.317   2.168  10.799 -0.4387  0.8819  0.1682
37551SOL     OW14659   2.097   6.556   2.142 -0.4540  0.3200  0.0282
37551SOL    HW114660   2.044   6.629   2.173  1.2367  1.8111 -0.4714
37551SOL    HW214661   2.122   6.510   2.222 -1.6455  0.1582  0.3352
37552SOL     OW14662   1.770   8.189   0.110 -0.2858 -0.1936 -0.3711
37552SOL    HW114663   1.784   8.218   0.200 -1.9804 -0.3469 -0.0181
37552SOL    HW214664   1.775   8.094   0.114  0.0517 -0.1820 -0.5187
37553SOL     OW14665   4.033   5.395   7.038  0.5090  0.1633  0.3191
37553SOL    HW114666   4.026   5.463   7.105  0.3257 -0.4221  0.9062
37553SOL    HW214667   4.084   5.326   7.079 -1.1765 -1.0144  0.5640
37554SOL     OW14668   1.833   3.883   2.795  0.2764 -0.3678  0.0315
37554SOL    HW114669   1.748   3.926   2.804  0.0854 -0.9549  1.1615
37554SOL    HW214670   1.893   3.954   2.775 -0.3215  0.2018  0.2168
37555SOL     OW14671   3.062   3.674   7.207 -0.0306  0.7022 -0.2288
37555SOL    HW114672   3.110   3.620   7.270 -1.2972 -0.9210 -0.5878
37555SOL    HW214673   3.092   3.764   7.225  1.4807  0.0046  0.9884
37556SOL     OW14674   6.767   1.199  10.615 -0.0869 -0.3422 -0.5853
37556SOL    HW114675   6.714   1.132  10.659 -0.2939 -0.1418 -0.5314
37556SOL    HW214676   6.713   1.278  10.616  0.3575 -0.0355 -0.1929
37557SOL     OW14677   1.089   7.442   2.475  0.1171  0.0168 -0.0856
37557SOL    HW114678   1.126   7.445   2.387 -0.7971 -0.5067 -0.4935
37557SOL    HW214679   1.161   7.411   2.530 -0.4720 -4.2106 -1.3555
37558SOL     OW14680   6.701   5.716   5.592  0.2538  0.8882 -0.1737
37558SOL    HW114681   6.670   5.764   5.668 -0.8803  1.0372 -0.6999
37558SOL    HW214682   6.656   5.631   5.597  2.6682 -0.4216  1.0567
37559SOL     OW14683   6.701  10.624   1.461  0.0249 -0.1092 -0.1060
37559SOL    HW114684   6.789  10.617   1.497 -0.5125  0.3413  1.3701
37559SOL    HW214685   6.651  10.557   1.507 -0.4497 -0.2693 -0.8366
37560SOL     OW14686   3.273   1.736   2.412  0.2365  0.3483 -0.2076
37560SOL    HW114687   3.247   1.658   2.362 -0.7594  0.4887  0.0632
37560SOL    HW214688   3.191   1.786   2.421  0.8724  1.4649 -0.4477
37561SOL     OW14689   6.748   3.022   3.401 -0.9216  0.4061  0.8405
37561SOL    HW114690   6.778   2.948   3.455 -1.5239 -0.2599  0.2892
37561SOL    HW214691   6.828   3.072   3.383 -0.1024 -1.2868 -0.5190
37562SOL     OW14692   8.416   6.476   8.807 -0.0710 -0.1186 -0.3443
37562SOL    HW114693   8.497   6.483   8.858  0.1188 -0.7014 -0.5661
37562SOL    HW214694   8.373   6.561   8.819 -0.3847 -0.4834  1.3747
37563SOL     OW14695   1.292   5.894   8.064 -0.2978  0.0532 -0.2920
37563SOL    HW114696   1.267   5.868   8.152  0.5711  0.0504 -0.0411
37563SOL    HW214697   1.263   5.986   8.057 -0.1243  0.1354  0.0884
37564SOL     OW14698   3.576   5.849   2.961  0.3444 -0.0658 -0.4682
37564SOL    HW114699   3.664   5.881   2.943 -0.8321  2.9425 -1.4363
37564SOL    HW214700   3.542   5.907   3.030 -0.1890 -2.5841  1.5662
37565SOL     OW14701   0.685   2.491   7.827  0.0007  0.1105  0.0167
37565SOL    HW114702   0.600   2.468   7.864  0.2502  0.2845  0.7030
37565SOL    HW214703   0.668   2.569   7.773  0.0657  1.3424  1.7130
37566SOL     OW14704   5.496   2.761   5.659 -0.2362  0.3213  0.0862
37566SOL    HW114705   5.565   2.714   5.614 -0.9632 -0.9155  0.2033
37566SOL    HW214706   5.505   2.851   5.630 -0.6934 -0.4003 -2.5967
37567SOL     OW14707   8.980   0.292   0.045 -0.2694  0.5881 -0.3178
37567SOL    HW114708   9.055   0.343   0.014  0.1081  0.4537  0.3678
37567SOL    HW214709   9.000   0.202   0.021  0.6105  0.3035  1.4033
37568SOL     OW14710   1.806   0.145  10.246 -0.0971  0.2187  0.1513
37568SOL    HW114711   1.726   0.183  10.283 -1.0378  0.4196 -1.9949
37568SOL    HW214712   1.812   0.181  10.158  3.0588  1.1783  0.6388
37569SOL     OW14713   2.742   9.423   4.801 -0.3790  0.2338 -0.2484
37569SOL    HW114714   2.796   9.480   4.856 -1.9388  0.8388  0.7302
37569SOL    HW214715   2.792   9.413   4.720  2.2947 -1.1925  1.4437
37570SOL     OW14716   5.792   1.623   9.166  0.4758  0.1444 -0.2229
37570SOL    HW114717   5.703   1.587   9.172  0.0603  1.1421 -0.3216
37570SOL    HW214718   5.847   1.547   9.145 -0.3441 -0.4899 -0.1084
37571SOL     OW14719   1.931   8.271   7.496 -0.7696  0.5184  0.4519
37571SOL    HW114720   1.853   8.247   7.445 -1.4075  3.3798 -0.0857
37571SOL    HW214721   1.904   8.263   7.587 -0.3079 -2.4869  0.4396
37572SOL     OW14722   0.161  10.528   1.140 -0.3764  0.3242 -0.1352
37572SOL    HW114723   0.140  10.515   1.233 -1.2461 -0.6101 -0.4440
37572SOL    HW214724   0.252  10.557   1.141  0.2282 -1.3990  0.9523
37573SOL     OW14725   0.249   8.774   4.711 -0.2505  0.4480  0.0580
37573SOL    HW114726   0.286   8.859   4.687 -0.5915  0.1474 -1.6428
37573SOL    HW214727   0.173   8.764   4.653  0.2433 -1.3550 -0.3318
37574SOL     OW14728  10.698   1.666   5.991 -0.0834  0.3841 -0.7121
37574SOL    HW114729  10.702   1.577   6.027 -1.8198  1.0660  1.3337
37574SOL    HW214730  10.696   1.723   6.067  1.0535  2.2446 -1.9915
37575SOL     OW14731  10.819   2.525  10.854  0.3343 -0.0035 -0.2257
37575SOL    HW114732  10.832   2.600  10.797 -0.7108 -0.3069 -0.8853
37575SOL    HW214733  10.907   2.493  10.873  0.7584  1.0090 -0.4291
37576SOL     OW14734   5.883   8.014   1.871 -0.2526  0.6329 -0.0406
37576SOL    HW114735   5.923   7.930   1.894  1.2576  1.1033 -0.8081
37576SOL    HW214736   5.844   7.999   1.785 -1.3698  0.2946  0.5166
37577SOL     OW14737   4.287   7.834   2.968  0.4162 -0.0978 -0.4325
37577SOL    HW114738   4.322   7.762   2.915  0.0414 -0.4169 -0.2496
37577SOL    HW214739   4.237   7.791   3.037  0.4641  0.3328 -0.1283
37578SOL     OW14740   4.170  10.044   0.327  0.1304 -0.4504 -0.3507
37578SOL    HW114741   4.103  10.052   0.258 -1.1914  0.8841  1.0047
37578SOL    HW214742   4.199   9.953   0.321 -1.9694 -1.1578 -0.8886
37579SOL     OW14743   8.827   6.750  10.505  0.0730  0.0160 -0.3767
37579SOL    HW114744   8.746   6.801  10.494  1.2428  1.8612 -0.7602
37579SOL    HW214745   8.887   6.787  10.441  1.6729 -0.4289  0.8240
37580SOL     OW14746   9.659   0.094   4.879 -0.0294 -0.0174  0.0071
37580SOL    HW114747   9.627   0.083   4.790 -0.1159 -1.7667  0.2213
37580SOL    HW214748   9.690   0.007   4.904  2.8229  1.0857  0.6255
37581SOL     OW14749   2.279  10.524   1.969  0.1838 -0.0165  0.3397
37581SOL    HW114750   2.288  10.464   1.895 -0.3099  0.6992 -0.3146
37581SOL    HW214751   2.329  10.483   2.039 -2.9205 -3.0178  1.0560
37582SOL     OW14752   8.353  10.531   8.028  1.0334  0.5344  0.5912
37582SOL    HW114753   8.437  10.513   7.987 -1.0517 -2.8440 -2.8180
37582SOL    HW214754   8.341  10.459   8.090  0.7481  1.1750  1.2978
37583SOL     OW14755   2.975   3.238   9.806 -0.8992  0.4927  0.0495
37583SOL    HW114756   3.062   3.253   9.769 -1.1709  0.2386 -0.7000
37583SOL    HW214757   2.952   3.321   9.847 -0.6151  0.7891 -0.3841
37584SOL     OW14758   1.499   2.402  11.226 -0.2132  0.3502  0.1280
37584SOL    HW114759   1.466   2.317  11.253  1.1690 -0.2235  0.0701
37584SOL    HW214760   1.571   2.420  11.286 -0.0150  1.1383 -0.3375
37585SOL     OW14761   6.529   4.546   2.658 -0.1580 -0.2656 -0.0593
37585SOL    HW114762   6.580   4.606   2.605 -0.3724 -0.8880 -0.9835
37585SOL    HW214763   6.451   4.527   2.605 -1.5742  0.9743  1.4647
37586SOL     OW14764   6.052   6.323   0.798 -0.2131 -0.1388  0.2213
37586SOL    HW114765   6.012   6.383   0.735 -2.2573 -1.0845  0.5427
37586SOL    HW214766   6.018   6.352   0.883  0.4000 -0.5144  0.6034
37587SOL     OW14767   3.554   0.737   5.025 -0.0579 -0.1362  0.3508
37587SOL    HW114768   3.546   0.677   5.100  0.1099  0.5043  0.8922
37587SOL    HW214769   3.516   0.689   4.952  3.1404 -2.3205 -0.0548
37588SOL     OW14770   9.341   3.403   3.576  0.5178 -0.2893 -0.8388
37588SOL    HW114771   9.359   3.310   3.589 -0.7694 -0.6106 -1.2130
37588SOL    HW214772   9.411   3.448   3.624  1.4311 -1.4425 -1.0540
37589SOL     OW14773   6.930   8.859   8.861 -0.9273 -0.4894 -0.3511
37589SOL    HW114774   6.875   8.782   8.847 -0.4795 -0.8393 -0.2009
37589SOL    HW214775   6.981   8.839   8.939 -0.8801  0.0005 -0.2541
37590SOL     OW14776   3.117   8.250   9.957 -0.6575 -0.2374 -0.4714
37590SOL    HW114777   3.171   8.299   9.895 -0.7828 -0.3862 -0.7007
37590SOL    HW214778   3.053   8.205   9.902 -1.2362  0.2163 -0.1782
37591SOL     OW14779   0.214   9.018   6.366  0.3614  0.8246 -1.0194
37591SOL    HW114780   0.158   9.031   6.290 -0.6861  4.9363  0.1553
37591SOL    HW214781   0.164   8.960   6.423  0.4561 -1.0052 -2.6924
37592SOL     OW14782   2.046   5.622   3.647 -0.4595 -0.3349  0.7927
37592SOL    HW114783   2.019   5.708   3.679 -0.3140 -0.2164  0.5983
37592SOL    HW214784   1.969   5.589   3.600  0.2980  0.7980 -1.3876
37593SOL     OW14785  11.081   7.344   3.499  0.4525  0.3852  0.7622
37593SOL    HW114786  11.061   7.251   3.509  0.3903  0.4500  1.3058
37593SOL    HW214787  11.176   7.350   3.512  0.6053  0.2764 -0.2527
37594SOL     OW14788   3.883   5.359   9.638  0.9716 -0.2628  0.3267
37594SOL    HW114789   3.910   5.450   9.627  1.5857 -0.3355  1.1480
37594SOL    HW214790   3.896   5.341   9.731  2.7632 -1.8044 -0.1756
37595SOL     OW14791   8.327   0.067  10.960 -0.1940 -0.8190 -0.6727
37595SOL    HW114792   8.392   0.100  11.022  1.6567 -1.6898 -2.0430
37595SOL    HW214793   8.253   0.040  11.014  1.9463 -3.0721  1.4001
37596SOL     OW14794   2.394  10.269   5.721  0.4684 -0.0736  1.1889
37596SOL    HW114795   2.375  10.362   5.714  1.1535 -0.0483 -1.5423
37596SOL    HW214796   2.401  10.253   5.815 -2.7653  1.9219  1.9420
37597SOL     OW14797   4.701  11.117  10.940  0.1375  0.0617 -0.7845
37597SOL    HW114798   4.791  11.147  10.952  0.6514 -1.4984 -0.5987
37597SOL    HW214799   4.707  11.046  10.877 -0.8543 -0.6211 -0.1455
37598SOL     OW14800   1.970   8.439   7.081  0.3714 -0.3016 -0.2283
37598SOL    HW114801   2.033   8.450   7.010  1.0536 -0.0768  0.3975
37598SOL    HW214802   1.937   8.527   7.097  0.5197 -0.2865 -0.0002
37599SOL     OW14803  10.979   5.331   4.849 -0.1007 -0.3864  0.1153
37599SOL    HW114804  10.988   5.426   4.843 -1.1623 -0.3322 -1.0338
37599SOL    HW214805  11.069   5.298   4.839  0.2941  0.4894  0.6791
37600SOL     OW14806   3.610   8.212   4.408 -0.8701  0.4652  0.4997
37600SOL    HW114807   3.673   8.217   4.335  1.0424 -1.3477  1.9019
37600SOL    HW214808   3.564   8.296   4.405  2.4358  2.4523  0.0341
37601SOL     OW14809   1.573   7.579   9.705  0.7910 -0.0627 -0.2843
37601SOL    HW114810   1.626   7.562   9.783 -0.1739 -1.8043  0.0369
37601SOL    HW214811   1.493   7.529   9.719 -0.7877  2.1555 -0.9587
37602SOL     OW14812  11.215   1.623   7.649 -0.0814  0.0250  0.1211
37602SOL    HW114813  11.260   1.557   7.596 -0.4400 -0.0789 -0.0516
37602SOL    HW214814  11.157   1.572   7.706  1.6519 -0.0191  1.9519
37603SOL     OW14815   7.062  10.258   4.311 -0.1883  0.7189 -0.4497
37603SOL    HW114816   7.026  10.212   4.387  1.4936  1.6867  1.0012
37603SOL    HW214817   7.068  10.349   4.339 -2.8747  1.8785 -3.0357
37604SOL     OW14818   8.229   4.753   1.014 -0.7270 -0.2814 -0.4122
37604SOL    HW114819   8.323   4.743   1.003 -0.8710 -1.3228 -0.8599
37604SOL    HW214820   8.211   4.717   1.101 -0.6796  0.2180 -0.1901
37605SOL     OW14821   3.168   3.238   2.944 -0.2256  0.0519  0.2927
37605SOL    HW114822   3.208   3.152   2.959 -0.1297  0.5090  3.4891
37605SOL    HW214823   3.093   3.240   3.004  0.1097  2.3862  0.7270
37606SOL     OW14824   1.696   9.900   9.380  0.2241  0.4624  1.1924
37606SOL    HW114825   1.614   9.871   9.418 -0.4854  1.2763  0.3356
37606SOL    HW214826   1.752   9.822   9.379 -0.9578 -0.3948  0.6654
37607SOL     OW14827   0.420   4.712   2.284  0.3023 -0.2633 -0.1738
37607SOL    HW114828   0.327   4.721   2.308 -0.1504  0.4241 -1.9826
37607SOL    HW214829   0.433   4.780   2.217  2.2469 -0.0455  0.3929
37608SOL     OW14830   3.857   1.165   3.112  0.0533 -0.2132 -0.1545
37608SOL    HW114831   3.887   1.077   3.092  0.9835  0.2084 -0.7002
37608SOL    HW214832   3.829   1.161   3.203  3.8670 -0.1756  1.2089
37609SOL     OW14833   8.967   2.143   4.231  0.0927 -0.0350  0.0496
37609SOL    HW114834   8.968   2.227   4.184  0.2269  0.2852  0.6204
37609SOL    HW214835   8.904   2.156   4.302  1.7862  0.3830  1.5650
37610SOL     OW14836   7.302   2.116   1.878 -0.4019 -1.4255  0.3163
37610SOL    HW114837   7.373   2.052   1.881 -0.4617 -1.4740  0.7373
37610SOL    HW214838   7.293   2.147   1.968 -0.1064 -0.5148  0.0420
37611SOL     OW14839   2.087   8.601   0.118 -0.1534 -0.0234  0.1984
37611SOL    HW114840   2.067   8.639   0.033  1.0898  3.1383  1.1480
37611SOL    HW214841   2.174   8.562   0.108  0.6006  1.5266  0.2245
37612SOL     OW14842   2.515   8.296   5.203 -0.0909  0.5812  0.2884
37612SOL    HW114843   2.526   8.312   5.109 -0.0264  1.3530  0.4163
37612SOL    HW214844   2.517   8.201   5.212  0.9383  0.5179 -0.3751
37613SOL     OW14845   3.136   2.292   2.167 -0.4874  0.2391 -0.7325
37613SOL    HW114846   3.193   2.345   2.222 -1.2584  0.0076  0.3172
37613SOL    HW214847   3.082   2.242   2.228  0.1116 -1.6783 -1.6758
37614SOL     OW14848  10.376   5.155   6.292  0.6621 -0.9014  0.1692
37614SOL    HW114849  10.425   5.078   6.263 -0.3288 -1.7173  0.6022
37614SOL    HW214850  10.302   5.120   6.341 -0.5650  0.2690 -0.7557
37615SOL     OW14851   0.158   5.102   7.849  0.2289 -0.4651  0.4251
37615SOL    HW114852   0.139   5.091   7.756 -0.4398 -0.6255  0.5804
37615SOL    HW214853   0.075   5.129   7.888  1.0301  1.9638  0.6121
37616SOL     OW14854   5.615   2.819   9.184 -0.1039  0.6170  0.5322
37616SOL    HW114855   5.612   2.848   9.093 -0.0663 -2.6436 -0.6504
37616SOL    HW214856   5.564   2.737   9.185 -0.7804  0.9337  3.6452
37617SOL     OW14857   4.374   0.098   2.750  1.0818 -0.2997 -0.8679
37617SOL    HW114858   4.376   0.192   2.735 -1.7451 -0.3255 -2.1046
37617SOL    HW214859   4.382   0.059   2.662  1.1497 -1.1667 -0.4897
37618SOL     OW14860  10.294   1.244   6.506 -0.8752 -0.0628 -0.2646
37618SOL    HW114861  10.309   1.336   6.483 -0.0897 -0.7007 -2.5028
37618SOL    HW214862  10.378   1.201   6.489 -1.3706 -1.3012  0.3041
37619SOL     OW14863   9.477   0.359   1.759 -0.1622 -0.1539 -0.0558
37619SOL    HW114864   9.537   0.432   1.748 -0.4600  0.0357 -0.4556
37619SOL    HW214865   9.390   0.398   1.754 -0.3343 -0.6039 -0.9300
37620SOL     OW14866   4.751   9.818   4.813  0.0016 -0.4864 -0.2604
37620SOL    HW114867   4.695   9.892   4.837  0.4469 -0.7939  1.9442
37620SOL    HW214868   4.831   9.858   4.779  0.1155  0.0655  0.6186
37621SOL     OW14869  10.808   6.141   7.523  0.1173 -0.4254 -0.0764
37621SOL    HW114870  10.775   6.229   7.502 -0.9234 -0.9053 -0.4953
37621SOL    HW214871  10.756   6.082   7.469 -0.1543 -1.4104  1.2048
37622SOL     OW14872   1.973   3.607   4.659  0.3475 -0.7765 -0.3372
37622SOL    HW114873   2.062   3.628   4.688  0.5998 -2.4525  0.1887
37622SOL    HW214874   1.921   3.684   4.684  0.9918 -1.1440  2.5163
37623SOL     OW14875   8.041  10.192   5.968  0.0650  1.0940  0.4489
37623SOL    HW114876   8.013  10.160   6.054  0.2587  0.6799  0.3577
37623SOL    HW214877   7.964  10.182   5.912  0.0814  0.9210  0.4569
37624SOL     OW14878   1.738   3.845   0.024 -0.1281 -0.4269  0.2380
37624SOL    HW114879   1.732   3.851   0.120 -2.1533  0.9593  0.0806
37624SOL    HW214880   1.819   3.795   0.009  0.1443 -0.8699  2.6527
37625SOL     OW14881   4.266   7.126   3.623  0.1926 -0.0817 -0.0206
37625SOL    HW114882   4.253   7.145   3.530 -0.5616  0.3340  0.1590
37625SOL    HW214883   4.237   7.206   3.667 -0.0285 -0.5026  0.6021
37626SOL     OW14884   6.132   1.812   2.441  0.0462  0.2955 -0.2785
37626SOL    HW114885   6.213   1.780   2.482 -1.4150 -0.5964  2.1033
37626SOL    HW214886   6.087   1.733   2.412 -0.6042  0.6928 -0.3601
37627SOL     OW14887   6.952  10.007   0.164  0.6693 -0.6067  0.3346
37627SOL    HW114888   6.985   9.919   0.151  0.8544 -0.4552 -0.2519
37627SOL    HW214889   6.865  10.007   0.123  0.0464 -0.9256  1.6272
37628SOL     OW14890   5.801   1.058   5.390 -0.1848 -0.0358  0.1992
37628SOL    HW114891   5.765   1.019   5.310 -0.5677 -0.2680  0.4812
37628SOL    HW214892   5.867   0.996   5.419 -0.4986 -0.2751  0.4150
37629SOL     OW14893   9.376   2.257   5.430 -0.8905  0.0958  0.0026
37629SOL    HW114894   9.306   2.196   5.405  0.0974 -0.4633 -1.5369
37629SOL    HW214895   9.454   2.223   5.386  0.0659  1.4853  0.5648
37630SOL     OW14896  10.486   6.035   7.193 -0.0473  0.2495 -0.3372
37630SOL    HW114897  10.440   6.061   7.113 -0.3549 -1.1953 -0.6603
37630SOL    HW214898  10.577   6.060   7.178  0.0017 -0.5043 -1.3854
37631SOL     OW14899   6.347   6.129   9.661 -0.4816  0.8004 -0.4006
37631SOL    HW114900   6.394   6.210   9.680  2.8418 -0.3096 -2.7478
37631SOL    HW214901   6.336   6.130   9.566 -0.8589 -1.2052 -0.4297
37632SOL     OW14902  10.076  10.183   0.493 -0.9154  0.7974  0.3954
37632SOL    HW114903  10.121  10.109   0.451 -0.0076  1.2670  0.5174
37632SOL    HW214904  10.004  10.143   0.541 -0.4343 -0.0110  0.4638
37633SOL     OW14905   2.346   3.798   1.155  0.1297  0.3245  0.7818
37633SOL    HW114906   2.409   3.739   1.196  0.2837 -0.4770 -0.5609
37633SOL    HW214907   2.305   3.746   1.086  0.4702  1.8460 -0.6357
37634SOL     OW14908   1.944   4.398   2.120  0.7422 -0.7305 -0.1948
37634SOL    HW114909   2.029   4.364   2.092  2.6100  0.0893  3.7088
37634SOL    HW214910   1.899   4.323   2.158  0.0488 -0.9797 -1.4635
37635SOL     OW14911   4.305   1.262   8.913  0.3704 -0.6385 -0.5006
37635SOL    HW114912   4.307   1.235   8.821 -0.3379  0.2065 -0.7711
37635SOL    HW214913   4.371   1.330   8.920  0.4156 -0.6936 -0.3845
37636SOL     OW14914   4.445   9.970   6.187 -0.6889  1.0104 -0.2706
37636SOL    HW114915   4.509   9.987   6.255  1.3784 -1.9266 -1.2805
37636SOL    HW214916   4.496   9.934   6.114 -3.4182 -1.1896 -1.2712
37637SOL     OW14917   0.408   3.205   1.591  0.0247  0.3763  0.4081
37637SOL    HW114918   0.336   3.141   1.589  0.7952 -0.5201  0.7439
37637SOL    HW214919   0.399   3.252   1.508 -0.0884 -0.7066 -0.2234
37638SOL     OW14920   2.690   7.886   5.657 -0.4401  0.9144  0.1252
37638SOL    HW114921   2.634   7.961   5.636  1.3099  2.4875  0.7987
37638SOL    HW214922   2.728   7.860   5.572 -1.8012  0.1149 -0.2641
37639SOL     OW14923   9.162   0.631   9.737 -0.0266 -0.8784  0.0575
37639SOL    HW114924   9.170   0.726   9.748  0.3503 -0.3297 -3.7842
37639SOL    HW214925   9.074   0.618   9.702  0.3093 -1.8208 -0.4606
37640SOL     OW14926   6.323   5.043   3.998  0.3500  0.0851  0.1745
37640SOL    HW114927   6.344   4.963   4.047  0.4871 -0.7358 -1.1911
37640SOL    HW214928   6.287   5.102   4.064 -0.2009 -1.2663  1.1383
37641SOL     OW14929   4.068  10.564   5.066  0.3720  0.4396 -0.5151
37641SOL    HW114930   4.033  10.475   5.065  0.1068  0.5447 -0.6058
37641SOL    HW214931   4.059  10.592   5.157  0.4020  0.3923 -0.4976
37642SOL     OW14932   9.906   1.478   5.848  0.5480 -0.1520  0.7700
37642SOL    HW114933   9.967   1.505   5.780 -0.8379  1.0318 -0.0700
37642SOL    HW214934   9.844   1.420   5.803 -0.0039  0.1165  1.1687
37643SOL     OW14935   0.308   7.505   8.470 -0.5609  0.5662  0.2299
37643SOL    HW114936   0.244   7.533   8.405 -0.1195  1.7940  0.2816
37643SOL    HW214937   0.321   7.582   8.526  1.6353  0.6987 -0.3500
37644SOL     OW14938   2.198   0.767   7.366 -0.0568 -0.0530 -0.2354
37644SOL    HW114939   2.223   0.850   7.325 -1.4734  0.5701  0.0910
37644SOL    HW214940   2.254   0.761   7.443 -2.5306  2.6664  2.0261
37645SOL     OW14941   3.016   6.809  10.907  0.6620 -0.0581 -0.2479
37645SOL    HW114942   3.082   6.840  10.969  0.4832 -2.2493  1.1589
37645SOL    HW214943   3.005   6.716  10.928 -2.0001 -0.0645 -1.2191
37646SOL     OW14944   8.625   5.378   3.234 -0.2021  0.0024 -0.1334
37646SOL    HW114945   8.582   5.444   3.179 -3.5470 -1.9703 -0.1633
37646SOL    HW214946   8.719   5.395   3.222 -0.8377  3.6760 -1.3413
37647SOL     OW14947   5.557   1.858   7.978  0.1881 -0.4011  0.1996
37647SOL    HW114948   5.482   1.845   8.036  0.5809 -0.3355  0.7358
37647SOL    HW214949   5.525   1.915   7.908 -0.1300  0.0260  0.6894
37648SOL     OW14950   2.470   5.261   5.283  0.6581 -0.7825 -0.5829
37648SOL    HW114951   2.479   5.224   5.196 -0.6546 -1.4709 -0.4440
37648SOL    HW214952   2.429   5.346   5.269  0.0157 -1.0925 -0.6133
37649SOL     OW14953   5.900   9.601   2.373  0.0130  0.0660  0.8375
37649SOL    HW114954   5.853   9.533   2.421 -3.6057  0.3864 -1.8070
37649SOL    HW214955   5.847   9.680   2.386  0.1606  0.6605 -1.6457
37650SOL     OW14956   3.058   8.975   3.853 -0.4700  0.3979 -0.0351
37650SOL    HW114957   3.085   9.012   3.769 -0.7008  1.6490  0.4232
37650SOL    HW214958   2.980   9.024   3.877  1.1328  2.0113  2.2169
37651SOL     OW14959  10.528   5.779   6.360 -0.1810 -0.1169 -0.0131
37651SOL    HW114960  10.519   5.870   6.333  0.1873  0.1569  0.7731
37651SOL    HW214961  10.587   5.782   6.435 -1.5950 -0.8231  1.1556
37652SOL     OW14962   2.976   5.738  10.799  0.2118  0.6849  0.5263
37652SOL    HW114963   3.018   5.656  10.825  0.9964  1.6200  2.3699
37652SOL    HW214964   2.900   5.710  10.747 -0.6364 -1.3449  2.6416
37653SOL     OW14965   5.015   8.579  10.400 -0.2555  0.4610 -0.0158
37653SOL    HW114966   5.097   8.574  10.350 -0.2504 -0.3423  0.0671
37653SOL    HW214967   4.992   8.672  10.397  0.2852  0.5871 -0.6443
37654SOL     OW14968   2.481   9.288   3.783  0.0352  0.5385 -0.4257
37654SOL    HW114969   2.451   9.352   3.848 -1.3156  0.0158 -0.5094
37654SOL    HW214970   2.470   9.333   3.699 -1.1847  0.1172 -0.5058
37655SOL     OW14971   4.676   8.177  10.529 -0.2496 -0.6198  0.6285
37655SOL    HW114972   4.749   8.226  10.566 -0.0340 -1.2143  0.9975
37655SOL    HW214973   4.696   8.170  10.436 -0.3797  0.1590  0.5373
37656SOL     OW14974   2.892   6.983   1.604 -0.1244  0.0820 -0.0517
37656SOL    HW114975   2.919   7.054   1.663  0.2869 -0.3527  0.2852
37656SOL    HW214976   2.810   7.014   1.566 -0.9471 -0.0656  1.5304
37657SOL     OW14977   7.650   4.516   4.818 -0.6354 -0.2446 -0.6257
37657SOL    HW114978   7.631   4.444   4.758 -0.8342 -0.1060 -0.7292
37657SOL    HW214979   7.671   4.473   4.901 -1.4476 -0.4028 -0.4905
37658SOL     OW14980   3.717   3.185   3.427 -0.1207  1.4671 -0.2526
37658SOL    HW114981   3.793   3.132   3.405  0.2764  1.6656  0.6191
37658SOL    HW214982   3.643   3.125   3.422  0.0113  1.3879 -1.5982
37659SOL     OW14983   1.695   6.215  10.186  0.1376 -0.1280 -0.0270
37659SOL    HW114984   1.785   6.194  10.162 -0.2714 -0.6601 -1.2074
37659SOL    HW214985   1.678   6.163  10.264  0.7581 -0.2655  0.0213
37660SOL     OW14986   2.449  10.584   5.109 -0.3448 -0.1155  0.7075
37660SOL    HW114987   2.384  10.633   5.160 -1.3690 -0.1191 -0.5382
37660SOL    HW214988   2.506  10.544   5.175 -1.3604  0.2331  1.8349
37661SOL     OW14989   2.257   6.747   0.086 -0.2209 -0.2070 -0.1289
37661SOL    HW114990   2.275   6.674   0.027  2.1631  0.3643 -0.1945
37661SOL    HW214991   2.236   6.820   0.028  0.2546 -0.1202 -0.1932
37662SOL     OW14992   4.656   1.527   0.276 -0.4129 -0.2406  0.1301
37662SOL    HW114993   4.620   1.539   0.364  1.2446 -0.8924  0.9430
37662SOL    HW214994   4.748   1.505   0.291 -0.0754 -0.2790 -1.7825
37663SOL     OW14995   6.440  10.980   2.143  0.4411 -0.0521  0.2811
37663SOL    HW114996   6.364  11.001   2.197 -0.1589 -0.0166 -0.5465
37663SOL    HW214997   6.413  11.003   2.054  1.6845  0.6464  0.0522
37664SOL     OW14998   6.606   6.686   3.296  0.4372 -0.3031  0.1981
37664SOL    HW114999   6.535   6.692   3.361 -0.0943 -0.5427 -0.3541
37664SOL    HW215000   6.569   6.633   3.226  1.2940 -0.7242  0.0614
37665SOL     OW15001   3.629   6.253   7.414  0.0596 -0.0944  0.0856
37665SOL    HW115002   3.709   6.270   7.464  0.5423  0.3438 -0.8140
37665SOL    HW215003   3.563   6.310   7.453  0.2062 -0.3726  0.7566
37666SOL     OW15004   0.979   2.934   0.592  0.1715 -0.4526  0.0405
37666SOL    HW115005   0.983   3.008   0.531  0.5420  1.3387  2.1201
37666SOL    HW215006   1.068   2.901   0.597 -0.3122 -2.4320 -2.3714
37667SOL     OW15007   2.615   9.626  10.135  0.3722 -0.2850 -0.5073
37667SOL    HW115008   2.686   9.690  10.135  1.5772 -1.5711 -1.0998
37667SOL    HW215009   2.535   9.679  10.130  1.3610  1.1527 -2.8125
37668SOL     OW15010   3.722   8.351   0.419 -0.3661  0.4251 -0.9261
37668SOL    HW115011   3.701   8.355   0.326  1.2655 -0.5351 -1.3843
37668SOL    HW215012   3.783   8.423   0.433  1.8251 -1.2414 -1.3595
37669SOL     OW15013   0.561   5.644   3.363 -0.4118 -0.2776  0.5452
37669SOL    HW115014   0.632   5.629   3.300 -0.7943 -0.0809  0.0667
37669SOL    HW215015   0.580   5.731   3.399 -2.3304  1.3773 -2.1661
37670SOL     OW15016   6.549   6.568   9.228  0.0352  0.2079 -0.1586
37670SOL    HW115017   6.523   6.501   9.291 -1.8568 -0.0884 -1.1720
37670SOL    HW215018   6.633   6.539   9.195 -0.6086 -1.5288 -0.3605
37671SOL     OW15019  10.517   2.339   0.592 -0.7173 -0.5180 -0.0955
37671SOL    HW115020  10.518   2.308   0.502 -2.8674 -1.1869  0.0591
37671SOL    HW215021  10.425   2.351   0.613 -0.2492  4.5931  0.4076
37672SOL     OW15022   3.823  10.778   1.053 -0.4443  0.1690 -0.2160
37672SOL    HW115023   3.794  10.808   0.968 -3.2070 -1.7312 -0.0750
37672SOL    HW215024   3.916  10.759   1.041 -0.1702  2.2702 -2.0419
37673SOL     OW15025   8.220   4.720   4.131 -0.0962 -0.1039  0.2884
37673SOL    HW115026   8.133   4.685   4.150 -0.6876  1.4601  0.6116
37673SOL    HW215027   8.268   4.646   4.094 -1.1573 -1.3377  1.2836
37674SOL     OW15028   4.890   5.477   0.302 -0.1777 -0.3682  0.0932
37674SOL    HW115029   4.941   5.545   0.258  0.2689 -0.7188  0.0509
37674SOL    HW215030   4.957   5.419   0.339 -0.4731  0.8369  2.7416
37675SOL     OW15031   8.145   7.219   2.388  0.3706  0.0873 -0.0610
37675SOL    HW115032   8.181   7.229   2.300  0.2049  0.3349 -0.1008
37675SOL    HW215033   8.221   7.227   2.446  0.9319 -2.6340 -0.2774
37676SOL     OW15034   8.235   9.622   6.614 -0.1482 -0.3546  0.7306
37676SOL    HW115035   8.208   9.566   6.541  1.0336 -1.1092  0.8486
37676SOL    HW215036   8.327   9.643   6.596 -0.9083  2.8304 -0.0913
37677SOL     OW15037  10.612  10.961   7.535 -0.3152  0.4253 -0.5091
37677SOL    HW115038  10.574  10.877   7.508 -0.2704 -0.0476  0.7798
37677SOL    HW215039  10.691  10.936   7.583 -0.8857  1.1085  0.8565
37678SOL     OW15040   0.702   2.758   2.120  0.5945 -0.3173 -0.6125
37678SOL    HW115041   0.663   2.672   2.133 -0.9065  0.4883  0.3765
37678SOL    HW215042   0.718   2.792   2.208 -1.0958  1.3998 -0.9092
37679SOL     OW15043   2.092   9.650   8.396 -0.4734  0.6973  0.4836
37679SOL    HW115044   2.002   9.638   8.424  0.1680 -0.1246  2.3844
37679SOL    HW215045   2.143   9.596   8.456  1.3855  2.0210  0.1853
37680SOL     OW15046  10.116   2.448   0.901  0.0396  0.1481 -0.0826
37680SOL    HW115047  10.193   2.495   0.933  0.6667 -0.0239 -1.2553
37680SOL    HW215048  10.041   2.495   0.937  0.6788  0.0887  1.4090
37681SOL     OW15049   8.697   8.831   5.412 -0.4520  0.2130 -0.2958
37681SOL    HW115050   8.679   8.825   5.506  0.9534  1.8902  0.1311
37681SOL    HW215051   8.633   8.773   5.372 -2.8569  1.4118  1.5018
37682SOL     OW15052  11.002   3.349   1.264 -0.2703  0.0310 -0.1168
37682SOL    HW115053  10.949   3.411   1.313  0.2620 -0.1572  0.7352
37682SOL    HW215054  11.045   3.401   1.197 -0.4270  0.4447  0.1037
37683SOL     OW15055   8.449   9.152   3.125  0.2013 -0.3699  0.1235
37683SOL    HW115056   8.422   9.071   3.169 -0.1146 -1.6478 -2.2454
37683SOL    HW215057   8.425   9.222   3.186 -1.8160 -1.9064  1.1999
37684SOL     OW15058  10.429   4.162   4.679  0.1064  0.7943  0.0765
37684SOL    HW115059  10.391   4.091   4.628 -1.9027  1.8568  0.0268
37684SOL    HW215060  10.421   4.133   4.770  0.0706  0.6109  0.0157
37685SOL     OW15061   2.239   7.797   4.081 -0.1529  0.1168  0.0140
37685SOL    HW115062   2.282   7.715   4.057  2.0812  0.8262  1.2669
37685SOL    HW215063   2.308   7.863   4.074 -1.4222  1.5821  0.7981
37686SOL     OW15064   2.192  10.878   1.614  0.4675 -0.7027  0.8181
37686SOL    HW115065   2.271  10.879   1.668  0.2454  1.3448  1.2092
37686SOL    HW215066   2.120  10.867   1.677  0.2638  0.8369  0.8975
37687SOL     OW15067   1.702   4.623  11.238  0.0902 -0.1052  0.0701
37687SOL    HW115068   1.687   4.624  11.333  2.0403  2.2117  0.4518
37687SOL    HW215069   1.764   4.551  11.225  2.0496  1.3128  1.0531
37688SOL     OW15070   8.926   9.503   2.174 -0.1366 -0.2480 -0.5271
37688SOL    HW115071   8.878   9.472   2.251  0.7068  0.1453  0.1771
37688SOL    HW215072   8.999   9.442   2.166  0.8315  0.8069  0.1245
37689SOL     OW15073   5.430  10.941   1.041 -0.1784  0.4789  0.0421
37689SOL    HW115074   5.510  10.992   1.036  0.4791 -0.4652  0.7195
37689SOL    HW215075   5.391  10.965   1.125 -1.6588  2.4053 -1.1057
37690SOL     OW15076   0.392   7.524   2.053  0.3343  0.0297  0.3454
37690SOL    HW115077   0.326   7.455   2.053 -0.9476  1.1945 -0.3734
37690SOL    HW215078   0.471   7.482   2.020 -0.0533 -1.3868  1.1551
37691SOL     OW15079   5.853   4.729   4.415  0.6643 -0.1163  0.3621
37691SOL    HW115080   5.869   4.823   4.426  1.8454 -0.1610 -0.7371
37691SOL    HW215081   5.819   4.701   4.500 -0.6182  1.4646  0.4411
37692SOL     OW15082   2.067  10.156   2.173 -0.0224 -0.5569  0.0000
37692SOL    HW115083   2.058  10.178   2.080  0.6449  1.3127  0.3251
37692SOL    HW215084   1.984  10.114   2.196 -1.6193  2.0055 -0.6864
37693SOL     OW15085   6.528   4.076   5.609 -0.0219 -0.2603 -0.2234
37693SOL    HW115086   6.536   4.171   5.611 -0.2956 -0.2431  0.1303
37693SOL    HW215087   6.553   4.052   5.519  0.3883  0.1095 -0.2151
37694SOL     OW15088  10.279  10.942   6.742 -0.2366 -0.3179  0.4414
37694SOL    HW115089  10.228  11.006   6.792  0.2566  0.2121  0.2756
37694SOL    HW215090  10.321  10.888   6.809 -1.5136 -1.1978  0.5914
37695SOL     OW15091   5.583   4.240   0.812 -0.3278  0.1695  0.0011
37695SOL    HW115092   5.605   4.167   0.871  0.1174  1.6955  1.8148
37695SOL    HW215093   5.500   4.214   0.771  0.2531 -1.7211 -0.0951
37696SOL     OW15094   3.731   4.823   5.949 -0.0152  0.0383 -0.1547
37696SOL    HW115095   3.653   4.781   5.986  0.9714 -1.4686  0.2867
37696SOL    HW215096   3.728   4.802   5.856 -0.0927 -0.0781 -0.1260
37697SOL     OW15097  11.121   0.153  11.183  0.6000  0.2295  0.1169
37697SOL    HW115098  11.112   0.113  11.269 -0.7832  0.4268  0.0966
37697SOL    HW215099  11.196   0.212  11.191 -0.4593  1.4429  1.6931
37698SOL     OW15100   0.714   6.137   2.426 -0.1421  0.0745 -0.3864
37698SOL    HW115101   0.647   6.081   2.387 -0.5125  0.2015  0.0644
37698SOL    HW215102   0.759   6.175   2.351 -0.9032  0.3783 -0.7045
37699SOL     OW15103   0.304   3.087  10.830 -0.1682  0.4135  0.2211
37699SOL    HW115104   0.282   3.009  10.779  0.2245  0.4718 -0.0490
37699SOL    HW215105   0.358   3.053  10.902 -1.0065  0.2894  0.7944
37700SOL     OW15106   8.419   7.847   1.925 -0.2340 -0.8252  0.3967
37700SOL    HW115107   8.446   7.805   1.843  0.4133 -1.8572  1.1124
37700SOL    HW215108   8.327   7.867   1.912 -0.9248 -3.5809  0.4146
37701SOL     OW15109   9.758   4.588   7.949 -0.4502 -0.1889  0.4744
37701SOL    HW115110   9.812   4.519   7.987 -0.3185 -0.2179  0.2334
37701SOL    HW215111   9.718   4.631   8.025 -1.4211 -1.2390  0.5972
37702SOL     OW15112   7.014   1.270   9.165 -0.1167  0.5373  0.5884
37702SOL    HW115113   6.922   1.295   9.157 -0.6249 -1.5666 -1.2767
37702SOL    HW215114   7.053   1.292   9.080  1.1180  1.3680  1.3413
37703SOL     OW15115   3.817   9.509   1.523  0.1982 -0.0060  0.2443
37703SOL    HW115116   3.837   9.584   1.467  1.5608 -0.1826  0.4701
37703SOL    HW215117   3.874   9.519   1.599 -0.5692 -0.5610  0.9151
37704SOL     OW15118   5.875   1.536  10.663 -0.2739  0.8199 -0.0515
37704SOL    HW115119   5.898   1.445  10.677 -1.9186  0.4616  0.5751
37704SOL    HW215120   5.916   1.559  10.579  0.6033 -0.3132  0.0431
37705SOL     OW15121   0.475   0.101   1.287 -0.1912 -0.4145 -0.2232
37705SOL    HW115122   0.549   0.160   1.296  0.9344 -1.8133 -0.0692
37705SOL    HW215123   0.422   0.117   1.365  0.2311  0.1997 -0.0592
37706SOL     OW15124   1.770  11.034   9.591 -0.7950 -0.1842 -0.0661
37706SOL    HW115125   1.776  11.083   9.673 -0.4164  3.6450 -2.1739
37706SOL    HW215126   1.856  10.995   9.581 -0.0050  1.4085  0.2080
37707SOL     OW15127   8.681   3.280   9.136  0.0360 -0.1548 -0.5943
37707SOL    HW115128   8.606   3.336   9.159  0.2949 -0.5843  1.5113
37707SOL    HW215129   8.672   3.205   9.195 -0.3222 -2.4145 -3.3568
37708SOL     OW15130   4.454   0.650   6.495  0.4837 -0.4511  0.2917
37708SOL    HW115131   4.467   0.574   6.438 -0.0728 -2.0452  2.1859
37708SOL    HW215132   4.535   0.700   6.487 -0.1155  0.2444 -2.9798
37709SOL     OW15133  10.347   3.216   5.039 -1.0935 -0.0346  0.0763
37709SOL    HW115134  10.370   3.281   4.973  0.0550 -0.2495  0.2560
37709SOL    HW215135  10.392   3.245   5.118 -0.8178 -0.8855  0.2374
37710SOL     OW15136   7.544   7.816   4.989  0.7454  0.0696 -0.4035
37710SOL    HW115137   7.521   7.832   5.081 -1.3023  0.1827 -0.8803
37710SOL    HW215138   7.561   7.903   4.953 -0.7075  0.2828 -0.6424
37711SOL     OW15139   9.008   7.357   7.136 -0.1896 -0.4392 -0.3290
37711SOL    HW115140   9.025   7.369   7.230  1.8902 -2.4354 -0.3729
37711SOL    HW215141   8.968   7.440   7.109  2.1537  1.5234  1.6577
37712SOL     OW15142   4.447   6.852   5.017 -0.6279 -0.2732 -0.0136
37712SOL    HW115143   4.356   6.874   5.032 -0.1896  0.5203  1.6045
37712SOL    HW215144   4.475   6.807   5.097  0.7404  0.6522  0.0644
37713SOL     OW15145   8.119   5.418   2.518  0.5130  0.1667  0.0382
37713SOL    HW115146   8.143   5.382   2.604  0.3801  0.2031  0.0913
37713SOL    HW215147   8.024   5.410   2.515  0.4981  0.3623 -0.0181
37714SOL     OW15148  10.378  10.287   7.209  0.3487  0.3032 -1.1839
37714SOL    HW115149  10.386  10.192   7.222 -0.9671 -0.0378 -2.5868
37714SOL    HW215150  10.463  10.322   7.235 -0.2351 -0.8058  2.8444
37715SOL     OW15151   1.625   2.104   6.637  0.1218  0.4061  0.3417
37715SOL    HW115152   1.689   2.150   6.583  1.6114 -0.1463  1.5642
37715SOL    HW215153   1.549   2.092   6.580  1.6122 -0.1673 -1.6044
37716SOL     OW15154   9.678  10.124   6.518  0.3386 -0.0208  0.4362
37716SOL    HW115155   9.692  10.035   6.486 -0.5693  0.2850 -0.8889
37716SOL    HW215156   9.599  10.154   6.474  0.7534  1.5374  0.6686
37717SOL     OW15157   3.234  10.098  10.596  0.1214 -0.4545  0.4651
37717SOL    HW115158   3.289  10.046  10.655 -0.4600 -0.9254  0.6039
37717SOL    HW215159   3.227  10.183  10.638  1.1253 -0.2376  0.2113
37718SOL     OW15160   3.470  11.256   1.761  0.1125 -0.6421  0.1483
37718SOL    HW115161   3.405  11.321   1.734 -0.1167 -0.8369  0.2256
37718SOL    HW215162   3.421  11.193   1.813  0.7424  0.3411  2.0181
37719SOL     OW15163   9.724   5.073   3.165  0.1156 -0.2140 -0.0474
37719SOL    HW115164   9.711   5.010   3.237 -0.2776  0.2481  0.2949
37719SOL    HW215165   9.805   5.044   3.123  0.1299 -0.7446  0.3202
37720SOL     OW15166   1.302   8.220  10.412 -0.2002  0.7944  0.1747
37720SOL    HW115167   1.253   8.275  10.473  2.1097  2.5949  0.5478
37720SOL    HW215168   1.307   8.272  10.332 -2.2187 -1.0682 -1.2662
37721SOL     OW15169   6.997   1.128   8.781  0.3947  0.2537 -0.4636
37721SOL    HW115170   7.047   1.118   8.700  1.9672 -1.2104  0.6200
37721SOL    HW215171   7.041   1.197   8.829  0.0974  0.4014 -0.3990
37722SOL     OW15172   7.717   5.033   1.039 -0.0581 -0.1404  0.2125
37722SOL    HW115173   7.808   5.002   1.036 -0.1774 -0.8348  2.2522
37722SOL    HW215174   7.687   5.026   0.949  1.2360 -2.0462 -0.1405
37723SOL     OW15175   1.390   8.684  10.499 -0.1661 -0.2243  0.1344
37723SOL    HW115176   1.427   8.741  10.432  0.3671  1.1689  1.5427
37723SOL    HW215177   1.464   8.659  10.554 -0.8106 -0.0084  1.1387
37724SOL     OW15178  10.734   6.404   7.678  0.4638 -0.1624 -0.7310
37724SOL    HW115179  10.659   6.409   7.619 -0.7845 -0.1783  0.7793
37724SOL    HW215180  10.785   6.483   7.660 -1.1232  1.0162 -0.2846
37725SOL     OW15181   7.773   9.935   3.836 -0.0889 -0.1816 -0.0737
37725SOL    HW115182   7.827   9.864   3.802  0.3484 -0.3777  0.9688
37725SOL    HW215183   7.722   9.895   3.907 -0.1481  0.4407  0.2495
37726SOL     OW15184   3.286   9.864   8.374 -0.1262 -0.0733 -0.1040
37726SOL    HW115185   3.288   9.895   8.283 -1.0611  1.3987  0.3416
37726SOL    HW215186   3.197   9.884   8.404  0.4512  0.3549  1.4141
37727SOL     OW15187   8.869   7.046   3.930  0.1950 -0.4131  0.5614
37727SOL    HW115188   8.854   7.001   3.847  0.5408 -1.1741  0.9067
37727SOL    HW215189   8.812   7.123   3.926 -1.3597 -1.5174  0.4724
37728SOL     OW15190   8.753  10.585   0.080 -0.3535 -0.0735 -0.0603
37728SOL    HW115191   8.769  10.679   0.073 -1.2663  0.1264  0.3838
37728SOL    HW215192   8.836  10.545   0.054  0.3858  0.8731  0.7449
37729SOL     OW15193   5.861   6.253   1.664 -0.1191 -0.3049 -0.1516
37729SOL    HW115194   5.936   6.253   1.725  1.8751  0.8147 -2.4253
37729SOL    HW215195   5.796   6.198   1.707  2.8149 -3.2518  1.0366
37730SOL     OW15196   7.250  10.742   4.703 -0.0878 -0.1197 -0.1946
37730SOL    HW115197   7.299  10.752   4.784 -0.7529  0.0066  0.2018
37730SOL    HW215198   7.277  10.658   4.668  1.7893  0.7556 -0.9406
37731SOL     OW15199   1.066   6.064   0.080 -0.2869  0.6858 -0.2161
37731SOL    HW115200   1.143   6.120   0.069 -0.6837  2.2363  3.4567
37731SOL    HW215201   1.016   6.106   0.150 -2.1595 -2.6916  0.6707
37732SOL     OW15202   5.051   5.709   4.483  0.0804 -0.0285  0.2627
37732SOL    HW115203   5.039   5.804   4.476  0.3397  0.1582  1.9232
37732SOL    HW215204   5.056   5.693   4.577  2.0247 -1.4393 -0.0256
37733SOL     OW15205   4.016   6.439   9.310  0.4718  0.1198 -0.0025
37733SOL    HW115206   4.102   6.397   9.315  0.1916 -0.3151  1.9500
37733SOL    HW215207   3.959   6.384   9.363 -0.3066  2.0091  1.2478
37734SOL     OW15208   0.717   3.805   3.729  0.1317  0.0626 -0.1048
37734SOL    HW115209   0.695   3.893   3.697  1.9656  0.7893  0.4777
37734SOL    HW215210   0.647   3.784   3.791 -1.0189  0.5494 -1.2129
37735SOL     OW15211   1.702   4.509   2.027 -0.3868 -0.3690 -0.2930
37735SOL    HW115212   1.772   4.462   2.071 -0.5920  0.2199  0.6840
37735SOL    HW215213   1.746   4.558   1.957 -0.1186 -1.6263 -1.0392
37736SOL     OW15214   6.412   9.972   9.793  0.2726 -0.3185  0.5301
37736SOL    HW115215   6.453   9.918   9.860 -0.3296 -0.0582  1.1188
37736SOL    HW215216   6.474  10.043   9.778  0.2158 -0.1317  1.1491
37737SOL     OW15217   7.757   6.761   0.101 -0.7886 -0.1461  0.6097
37737SOL    HW115218   7.814   6.793   0.031 -2.3242 -1.1270 -1.2081
37737SOL    HW215219   7.754   6.833   0.164  0.8837  0.6806 -0.1853
37738SOL     OW15220  10.123   1.386   4.355 -0.0426  0.0484  0.0028
37738SOL    HW115221  10.212   1.419   4.345 -0.3708  0.8197 -0.5221
37738SOL    HW215222  10.133   1.304   4.403  0.8059  0.9821  1.5134
37739SOL     OW15223   2.056   5.429   1.876 -0.1702  0.5368  0.0264
37739SOL    HW115224   2.048   5.379   1.796  1.3109  1.9268 -1.0641
37739SOL    HW215225   1.987   5.395   1.933 -0.2389 -1.5862 -1.2176
37740SOL     OW15226   6.547   4.026   2.784 -0.3997  0.2275  0.6115
37740SOL    HW115227   6.562   4.103   2.840 -1.7121  0.3754  0.8144
37740SOL    HW215228   6.527   4.063   2.698 -1.4008  0.1556  0.7979
37741SOL     OW15229   7.108  10.972   8.953 -0.0191  0.2881  0.9265
37741SOL    HW115230   7.173  10.931   9.010  0.7430  1.6678  1.0968
37741SOL    HW215231   7.032  10.913   8.957  0.4967 -0.3354  2.3048
37742SOL     OW15232   3.270   5.927   6.799 -0.2617  0.0914  0.1862
37742SOL    HW115233   3.258   5.849   6.745 -2.3602  0.6495 -0.2548
37742SOL    HW215234   3.347   5.970   6.762 -0.2293 -0.7676 -0.8153
37743SOL     OW15235  11.167   2.038   5.894  0.5422 -0.5918 -0.3249
37743SOL    HW115236  11.146   1.952   5.858 -0.6994 -0.6556  0.4951
37743SOL    HW215237  11.140   2.034   5.985 -0.4877  0.9841 -0.5129
37744SOL     OW15238   5.358   3.939   6.581 -0.2028 -0.3599 -0.5875
37744SOL    HW115239   5.280   3.975   6.624  1.6091  1.2022  1.6447
37744SOL    HW215240   5.334   3.850   6.558 -2.6201  0.0516  0.0350
37745SOL     OW15241   9.671   9.341   5.768  0.6440 -0.1970  0.3495
37745SOL    HW115242   9.677   9.324   5.674  1.0592  1.1936  0.0949
37745SOL    HW215243   9.668   9.254   5.808 -2.1120 -0.8718 -1.0725
37746SOL     OW15244   4.870   3.161  10.588  0.4248 -0.3935 -0.0202
37746SOL    HW115245   4.899   3.211  10.512  2.3899 -0.7464  0.4405
37746SOL    HW215246   4.905   3.073  10.574 -0.3860 -0.8282  0.6242
37747SOL     OW15247   4.107   6.341   5.917  0.2246 -0.1164  0.3101
37747SOL    HW115248   4.080   6.249   5.927 -0.9649 -0.0395 -1.7185
37747SOL    HW215249   4.196   6.336   5.883 -0.9067 -0.6749 -2.8594
37748SOL     OW15250  10.228   9.143  10.451 -0.9459  0.1961  0.8712
37748SOL    HW115251  10.318   9.167  10.473 -1.1591 -0.2911  2.3598
37748SOL    HW215252  10.175   9.189  10.516 -1.7013 -0.3927  0.6775
37749SOL     OW15253  11.089   7.330   1.208  0.1084 -0.1272 -0.2074
37749SOL    HW115254  11.123   7.244   1.234  1.8842  0.5130 -0.3131
37749SOL    HW215255  11.038   7.313   1.129  0.1879 -1.1187 -0.0615
37750SOL     OW15256   1.893   9.450   2.778 -0.5470 -0.3146  0.4833
37750SOL    HW115257   1.860   9.492   2.857 -0.3429  1.8199 -0.5102
37750SOL    HW215258   1.905   9.521   2.715 -1.3473 -1.9919 -1.7219
37751SOL     OW15259   7.712   2.510   9.406  0.0883 -0.4670  0.0699
37751SOL    HW115260   7.774   2.477   9.471 -0.1168 -0.5867  0.2059
37751SOL    HW215261   7.698   2.601   9.431 -1.9581 -1.1526  1.7725
37752SOL     OW15262   9.856   2.709  10.509 -0.3899 -0.4172  0.2776
37752SOL    HW115263   9.814   2.760  10.440  0.2470  0.5536  0.5822
37752SOL    HW215264   9.906   2.642  10.462 -0.0344  0.1817 -0.2170
37753SOL     OW15265   4.811   6.261   1.814 -0.1182  0.2778  0.3980
37753SOL    HW115266   4.738   6.203   1.836 -0.2501 -0.2413 -1.2809
37753SOL    HW215267   4.775   6.321   1.749  0.7257  0.5464  0.1681
37754SOL     OW15268   8.496   0.509   1.466  0.2038  0.0733 -0.1425
37754SOL    HW115269   8.488   0.560   1.386  0.1175 -0.6274 -0.5802
37754SOL    HW215270   8.408   0.509   1.504 -0.2280 -1.3162 -1.1042
37755SOL     OW15271   4.634   5.381   8.173  0.0812 -0.1416  0.2720
37755SOL    HW115272   4.702   5.396   8.108  1.1425  1.9470  1.7765
37755SOL    HW215273   4.608   5.468   8.203 -3.9186 -0.7535 -0.8011
37756SOL     OW15274   7.224  11.172   8.372 -0.1528  0.0469  0.4604
37756SOL    HW115275   7.280  11.121   8.430 -0.3418  1.3273  1.8359
37756SOL    HW215276   7.165  11.219   8.431 -0.1137  1.6832 -0.7394
37757SOL     OW15277   1.406   5.508   1.984  0.2232 -0.3264 -0.0971
37757SOL    HW115278   1.314   5.496   1.961 -0.1943  1.4493  0.5178
37757SOL    HW215279   1.444   5.554   1.909  0.3904 -0.2335  0.0440
37758SOL     OW15280   4.135   9.711   3.505  0.5136  0.1405 -0.2891
37758SOL    HW115281   4.083   9.678   3.579 -0.2232  1.1178 -0.3530
37758SOL    HW215282   4.198   9.642   3.488  0.0118 -0.5582  0.5830
37759SOL     OW15283   1.092   7.043   6.891 -0.7139  0.0406  0.3825
37759SOL    HW115284   1.018   6.998   6.931 -1.4884  1.7602  0.9917
37759SOL    HW215285   1.126   7.100   6.960  2.2500 -1.8128  0.6484
37760SOL     OW15286   7.475   9.370   3.586 -0.9038  0.2513 -0.3392
37760SOL    HW115287   7.399   9.425   3.607 -1.2446 -0.0543 -0.7473
37760SOL    HW215288   7.512   9.347   3.671 -1.7947 -0.3126 -0.0842
37761SOL     OW15289   9.992   5.110   9.982 -0.1487  0.0904 -0.0751
37761SOL    HW115290  10.038   5.187  10.013  2.1382 -0.9878 -0.5928
37761SOL    HW215291   9.944   5.078  10.059 -0.3990  1.4810  0.3648
37762SOL     OW15292   3.361   7.363   5.701  0.1879  0.1174 -0.4674
37762SOL    HW115293   3.292   7.396   5.643  0.7197 -0.0232 -1.1975
37762SOL    HW215294   3.406   7.442   5.731 -0.9902  0.2893  0.9313
37763SOL     OW15295   4.422   8.205   4.012 -0.7311  0.1230 -0.3065
37763SOL    HW115296   4.370   8.219   3.933  2.2497  0.7119 -2.3180
37763SOL    HW215297   4.440   8.293   4.045 -1.4769 -0.1018  0.7686
37764SOL     OW15298   2.623   3.515   7.486  0.1739 -0.6487 -0.0440
37764SOL    HW115299   2.664   3.596   7.516  0.6094 -0.7879 -0.2618
37764SOL    HW215300   2.668   3.446   7.534 -0.7586 -0.7198  0.7649
37765SOL     OW15301   7.352   8.884   5.654 -0.1833  0.0576  0.6915
37765SOL    HW115302   7.431   8.938   5.650 -0.3189  0.7083  3.9583
37765SOL    HW215303   7.280   8.946   5.647 -0.5523 -0.6073 -3.0112
37766SOL     OW15304   7.928   4.065   3.451 -0.1645  0.2163 -0.1632
37766SOL    HW115305   7.991   4.007   3.495 -1.0281 -1.2108 -0.7570
37766SOL    HW215306   7.957   4.153   3.474  0.6935 -0.4500  1.4705
37767SOL     OW15307   7.278   7.353   0.113 -0.7636  0.0432 -0.2382
37767SOL    HW115308   7.248   7.353   0.204 -2.4341 -1.7205 -0.7328
37767SOL    HW215309   7.373   7.341   0.119 -0.0221  4.6294  1.3510
37768SOL     OW15310   5.565   3.602   7.964 -0.4782  0.2114 -0.8912
37768SOL    HW115311   5.606   3.669   7.910 -1.5309 -0.0273 -2.0356
37768SOL    HW215312   5.589   3.519   7.922 -0.9280 -0.0017 -0.7380
37769SOL     OW15313   2.017   4.019   6.607 -0.5033 -0.2056 -0.1164
37769SOL    HW115314   1.993   4.061   6.690 -1.7846 -0.8574 -0.1262
37769SOL    HW215315   1.938   4.025   6.553 -1.0557 -3.1769  0.1410
37770SOL     OW15316   5.709   2.220   5.651  0.7298  0.3279 -0.6680
37770SOL    HW115317   5.773   2.170   5.702 -0.3764  0.7299  1.1837
37770SOL    HW215318   5.666   2.155   5.596  3.1389  0.1373 -2.5074
37771SOL     OW15319   5.075   0.934   6.654 -0.1055  0.7431 -0.0859
37771SOL    HW115320   5.163   0.897   6.646 -0.5470 -1.0178  2.0193
37771SOL    HW215321   5.076   0.980   6.738 -1.5447 -0.6003  0.7249
37772SOL     OW15322   3.699   4.629   6.237 -0.4487  0.3535  0.0688
37772SOL    HW115323   3.661   4.691   6.299  0.2510  2.5231 -1.5385
37772SOL    HW215324   3.778   4.673   6.205  0.5657 -1.7705 -0.5466
37773SOL     OW15325   0.537  10.736   9.467  0.9425  0.1138  0.2514
37773SOL    HW115326   0.472  10.698   9.525  0.8070 -2.6431 -1.5008
37773SOL    HW215327   0.621  10.707   9.503  0.8388 -2.1878 -1.1042
37774SOL     OW15328   1.606   9.895   4.592 -0.2180 -0.2419 -0.3271
37774SOL    HW115329   1.694   9.904   4.629 -0.2062 -0.0378 -0.4014
37774SOL    HW215330   1.574   9.985   4.585  0.0672 -0.2159 -1.5076
37775SOL     OW15331   1.113   8.229   1.413  0.1526  0.7125  0.3659
37775SOL    HW115332   1.191   8.218   1.468 -0.2054  1.2976  1.0181
37775SOL    HW215333   1.145   8.271   1.333  0.5740  0.5143  0.4306
37776SOL     OW15334   3.501   8.875   1.205  0.2341  0.7389  0.0278
37776SOL    HW115335   3.512   8.936   1.278 -1.2533 -1.3850  2.2012
37776SOL    HW215336   3.419   8.901   1.164  0.7302  1.5321 -0.4742
37777SOL     OW15337   1.532   3.554   5.786 -0.2641  0.2322  0.2608
37777SOL    HW115338   1.516   3.561   5.692 -2.3135 -0.2706  0.5187
37777SOL    HW215339   1.503   3.465   5.808  3.8980 -1.2273  0.7627
37778SOL     OW15340   9.207   6.592   8.142  0.0278  0.0346 -0.5253
37778SOL    HW115341   9.185   6.596   8.235  1.1801  1.0556 -0.2668
37778SOL    HW215342   9.139   6.642   8.099 -1.7121 -2.1689 -0.5195
37779SOL     OW15343   3.001  10.208   3.142  1.0080  0.1196  0.2362
37779SOL    HW115344   3.085  10.255   3.141  2.2215 -1.5965  3.8166
37779SOL    HW215345   2.963  10.229   3.227 -0.6208 -1.7149  0.0194
37780SOL     OW15346   9.675  10.986   6.809  0.5766 -0.1503  0.3482
37780SOL    HW115347   9.617  11.045   6.858 -0.9049 -1.4203  0.2116
37780SOL    HW215348   9.624  10.963   6.731  1.0006 -1.8122  0.5322
37781SOL     OW15349   7.944   9.617   2.744  0.5113 -0.4885  0.6630
37781SOL    HW115350   7.862   9.583   2.780 -1.3242 -1.3884 -3.7343
37781SOL    HW215351   7.935   9.712   2.750  0.2742 -0.5891  2.3255
37782SOL     OW15352   9.785  10.690   4.485  0.4326 -0.0684 -0.4729
37782SOL    HW115353   9.794  10.618   4.423  0.0019  2.1104 -3.2715
37782SOL    HW215354   9.845  10.757   4.453 -0.3330  1.4448  1.0709
37783SOL     OW15355   3.687   5.931   5.165 -0.5426  0.1010  0.9835
37783SOL    HW115356   3.708   5.969   5.251 -1.0392 -0.6843  1.4612
37783SOL    HW215357   3.611   5.981   5.135 -0.4659  0.2744  1.0765
37784SOL     OW15358   4.704   8.132   7.052  0.0899 -0.0478 -0.2088
37784SOL    HW115359   4.772   8.109   7.116 -0.8924 -0.9759  0.5296
37784SOL    HW215360   4.750   8.136   6.969  1.0046 -0.9732  0.2315
37785SOL     OW15361   1.777   5.949   2.528  0.8871 -0.0343 -0.6540
37785SOL    HW115362   1.719   6.012   2.486 -0.6839 -0.3480  0.9126
37785SOL    HW215363   1.857   5.951   2.476 -0.0797  1.3171 -2.1736
37786SOL     OW15364   4.267   5.688   0.914  0.7564  0.2095 -0.0177
37786SOL    HW115365   4.232   5.648   0.835  1.2625 -1.0669  0.3924
37786SOL    HW215366   4.327   5.756   0.882 -2.3316  2.8528 -0.7640
37787SOL     OW15367   2.097   6.291   0.622  0.3006 -0.6087 -0.1519
37787SOL    HW115368   2.073   6.250   0.705  1.1495 -1.5703 -0.3608
37787SOL    HW215369   2.043   6.369   0.617 -1.4124 -1.7189  0.2411
37788SOL     OW15370   0.589   9.151   2.240  0.6475 -0.0256 -0.4526
37788SOL    HW115371   0.573   9.240   2.206 -1.3699  0.4506  1.4815
37788SOL    HW215372   0.502   9.117   2.259  1.5428 -0.9209  2.4580
37789SOL     OW15373   0.267   0.401   5.412  0.1485  0.0584 -0.7329
37789SOL    HW115374   0.308   0.483   5.442 -3.4961  0.7193  3.4232
37789SOL    HW215375   0.173   0.418   5.416 -0.7459 -3.6722 -2.1043
37790SOL     OW15376   0.965   7.190   2.893 -0.5411 -0.5239 -0.3967
37790SOL    HW115377   0.905   7.120   2.868 -0.8941 -0.1152 -0.7097
37790SOL    HW215378   0.916   7.270   2.876 -0.7216 -0.2127  1.4480
37791SOL     OW15379   1.789   1.784   7.062  0.0482 -0.3460 -0.1223
37791SOL    HW115380   1.814   1.792   6.970  0.4664 -1.1587 -0.0826
37791SOL    HW215381   1.725   1.713   7.064  1.1874 -1.3886  0.4178
37792SOL     OW15382   7.092   5.362  11.055 -0.9164 -0.5387  1.0860
37792SOL    HW115383   7.076   5.333  10.965 -2.5876  0.2101  1.1132
37792SOL    HW215384   7.065   5.288  11.109  1.3968 -1.5340  0.9804
37793SOL     OW15385   4.559   0.925   4.254  0.0437  0.8050  0.5982
37793SOL    HW115386   4.623   0.997   4.249 -1.1062  1.8208 -0.0991
37793SOL    HW215387   4.514   0.928   4.169 -1.7715  0.9344  1.5237
37794SOL     OW15388   0.163   5.159   8.210  0.0843 -0.1435 -0.2267
37794SOL    HW115389   0.122   5.137   8.126  0.0650 -0.2311 -0.1944
37794SOL    HW215390   0.183   5.075   8.250 -0.7742 -0.1227  0.2762
37795SOL     OW15391   2.662   2.485   9.959 -0.0047  0.2213 -0.3405
37795SOL    HW115392   2.691   2.453   9.873  1.3106 -1.8683  0.7931
37795SOL    HW215393   2.734   2.540   9.990  0.8614 -1.3509  0.5774
37796SOL     OW15394   9.548   1.426   3.966  0.0461 -0.2020 -0.3860
37796SOL    HW115395   9.479   1.380   4.015  0.8616  0.3075  1.3238
37796SOL    HW215396   9.564   1.506   4.016  0.8944  0.3896 -1.5490
37797SOL     OW15397  10.284   0.404   1.780 -0.1813  0.4342  0.2277
37797SOL    HW115398  10.333   0.367   1.854 -3.6811 -1.4194  1.8572
37797SOL    HW215399  10.213   0.453   1.822 -0.1474  2.5435 -2.0014
37798SOL     OW15400   4.374  10.971   5.864  0.2239 -0.3796 -0.2943
37798SOL    HW115401   4.390  10.988   5.956  1.1070  1.0642 -0.6889
37798SOL    HW215402   4.426  10.893   5.845  1.1612  0.1317  0.1122
37799SOL     OW15403   3.314   7.656   6.738 -0.3763 -0.3019  0.7195
37799SOL    HW115404   3.332   7.696   6.653 -0.2798  0.4120  1.0702
37799SOL    HW215405   3.357   7.570   6.733  0.7940  0.2749  0.5325
37800SOL     OW15406   0.341   6.597   1.163  0.6645 -0.0409  0.0004
37800SOL    HW115407   0.353   6.530   1.096 -1.3165  0.2612 -0.7154
37800SOL    HW215408   0.404   6.574   1.232  1.3557 -1.4948 -1.0769
37801SOL     OW15409   9.655   0.640   6.301 -0.1828  0.0408 -0.0121
37801SOL    HW115410   9.643   0.681   6.386 -1.8902  1.6084 -0.9300
37801SOL    HW215411   9.680   0.712   6.243  1.8055 -1.1421 -0.7085
37802SOL     OW15412   4.311   1.072   6.174 -0.4343  0.5040 -0.1216
37802SOL    HW115413   4.232   1.104   6.217  0.4159  2.0759  0.3271
37802SOL    HW215414   4.380   1.131   6.203  0.4521  0.7548 -2.5348
37803SOL     OW15415   3.471  10.852   5.973 -0.4568  0.2843 -0.2450
37803SOL    HW115416   3.562  10.856   6.003 -0.3922 -0.6232 -0.3086
37803SOL    HW215417   3.477  10.816   5.885 -0.8390  0.7173 -0.4473
37804SOL     OW15418   0.955   7.487   1.559  0.0481  0.1764 -0.3882
37804SOL    HW115419   0.954   7.565   1.502 -0.5665 -0.2065 -0.9174
37804SOL    HW215420   1.002   7.515   1.637 -3.6070  2.4577  1.3075
37805SOL     OW15421   3.999   5.698   3.787 -0.2937 -0.7465  0.4311
37805SOL    HW115422   3.964   5.630   3.844 -0.9483  0.4646  1.5366
37805SOL    HW215423   3.923   5.745   3.754  0.1353 -0.6705 -0.4937
37806SOL     OW15424   0.302   6.469   6.607  0.0072  0.3463  0.2687
37806SOL    HW115425   0.381   6.522   6.599  0.9829 -0.9641  0.7615
37806SOL    HW215426   0.237   6.528   6.643 -0.1359  2.2498 -2.7664
37807SOL     OW15427   6.311   9.168   5.683 -0.0589  0.6587  0.4893
37807SOL    HW115428   6.303   9.109   5.758 -0.0714 -0.6374 -0.4974
37807SOL    HW215429   6.238   9.143   5.625 -0.0156  1.5991  0.0173
37808SOL     OW15430  10.601   9.540   1.645  0.6772 -0.2331  0.5343
37808SOL    HW115431  10.662   9.490   1.698  2.0634  0.3536 -0.4541
37808SOL    HW215432  10.618   9.510   1.555  2.7574  3.0710 -0.3472
37809SOL     OW15433   8.134   8.180   6.247  0.1302  0.1892  0.6528
37809SOL    HW115434   8.205   8.216   6.194  1.5286 -1.5174  1.2682
37809SOL    HW215435   8.091   8.116   6.189  1.4753 -1.4616  1.3899
37810SOL     OW15436   4.124   8.265   4.493 -0.1913 -0.4338 -0.5526
37810SOL    HW115437   4.043   8.217   4.475 -1.9428  3.0114 -2.9515
37810SOL    HW215438   4.186   8.235   4.426  0.2367 -2.2750  0.6057
37811SOL     OW15439   5.886   0.855   3.019  0.3646  0.1407 -0.4133
37811SOL    HW115440   5.912   0.852   2.927  1.1984  2.1939 -0.3105
37811SOL    HW215441   5.968   0.854   3.068 -0.0451 -0.3294  0.2810
37812SOL     OW15442   2.860   2.128   8.213 -0.4015 -0.4691  0.1423
37812SOL    HW115443   2.852   2.037   8.182 -1.4823 -0.8458  1.4264
37812SOL    HW215444   2.788   2.173   8.168 -0.4320 -0.4571  0.2034
37813SOL     OW15445   2.293   5.821   3.590 -0.2408  0.8010 -0.5227
37813SOL    HW115446   2.385   5.804   3.609 -0.3816  0.6761  0.0630
37813SOL    HW215447   2.247   5.743   3.622 -0.5159  0.6873 -1.1644
37814SOL     OW15448   9.267   7.550   0.878  0.5653  0.0673 -0.6338
37814SOL    HW115449   9.242   7.613   0.946  2.6954 -0.7468  1.0392
37814SOL    HW215450   9.291   7.604   0.803  0.0312  1.1120 -0.0773
37815SOL     OW15451  11.271   3.832   4.909 -0.0607  0.1774 -0.2018
37815SOL    HW115452  11.201   3.883   4.868 -1.4394  1.7010  3.5571
37815SOL    HW215453  11.264   3.745   4.871 -2.3864  0.9413 -1.7128
37816SOL     OW15454   9.825   0.828   5.687 -0.3533 -0.5587  0.1956
37816SOL    HW115455   9.851   0.864   5.772  2.6365 -1.3631 -0.2437
37816SOL    HW215456   9.811   0.735   5.703 -0.6687 -0.5550 -0.0417
37817SOL     OW15457   3.541   9.913   1.249  0.2884  0.7118  0.1036
37817SOL    HW115458   3.613   9.952   1.300  0.7498  0.2780 -0.2095
37817SOL    HW215459   3.507   9.986   1.197 -0.0868  1.1285  0.8975
37818SOL     OW15460   4.834  10.500   0.136 -0.1888 -0.6011 -0.2273
37818SOL    HW115461   4.753  10.548   0.154 -0.7551  0.0691 -3.7640
37818SOL    HW215462   4.903  10.554   0.173 -1.0938  1.0594 -0.8615
37819SOL     OW15463   3.706   5.272   0.986  0.1960 -0.0394 -0.0097
37819SOL    HW115464   3.697   5.211   0.913  2.8762 -0.7466  0.1611
37819SOL    HW215465   3.730   5.355   0.946  1.5374 -0.3951  0.0101
37820SOL     OW15466   8.865   3.078   6.289 -0.1466 -0.4669  0.1431
37820SOL    HW115467   8.862   3.077   6.384  0.4979 -0.5872  0.1676
37820SOL    HW215468   8.810   3.005   6.261 -3.3736  1.7173  0.3120
37821SOL     OW15469   4.746   6.693   1.916  0.2578 -0.1312 -0.2728
37821SOL    HW115470   4.669   6.731   1.959 -0.7132  0.1586 -2.1885
37821SOL    HW215471   4.716   6.670   1.828  1.6210 -2.5667 -0.1957
37822SOL     OW15472   3.677   1.111   3.961 -0.3687 -0.8290 -0.2564
37822SOL    HW115473   3.655   1.106   4.054  0.8678  2.0108  0.3003
37822SOL    HW215474   3.595   1.135   3.918 -0.2180  1.7937  0.7224
37823SOL     OW15475  10.359   3.293   9.547 -0.4924 -0.4781  0.3217
37823SOL    HW115476  10.324   3.278   9.635  0.9491  1.1984  1.2665
37823SOL    HW215477  10.454   3.293   9.560 -0.2869  1.0856 -0.9894
37824SOL     OW15478   3.091   7.414   1.267  0.9170 -0.6343 -0.3275
37824SOL    HW115479   3.082   7.325   1.233 -1.5881 -0.4521 -0.3019
37824SOL    HW215480   3.150   7.405   1.342  3.5240 -1.6465 -2.3385
37825SOL     OW15481   7.097   0.280   5.614 -0.2963  0.5304 -0.0065
37825SOL    HW115482   7.093   0.246   5.703 -0.2865  1.9913  0.5812
37825SOL    HW215483   7.190   0.278   5.591 -0.0431  1.9935  0.7929
37826SOL     OW15484   5.596   0.017   1.976  0.4236  0.0788  0.4918
37826SOL    HW115485   5.627  -0.074   1.973 -0.3178 -0.1705  0.2152
37826SOL    HW215486   5.504   0.010   2.001 -0.1455  0.6199 -1.3002
37827SOL     OW15487   9.489   4.963   6.382 -0.0746  0.2277 -0.1657
37827SOL    HW115488   9.402   5.002   6.382 -0.8937 -1.4367  1.2144
37827SOL    HW215489   9.483   4.888   6.323  0.7561  0.7155 -0.8963
37828SOL     OW15490   8.340   3.511  10.328 -0.2469 -0.5685  0.2503
37828SOL    HW115491   8.407   3.475  10.270 -0.6887 -0.2872 -0.4368
37828SOL    HW215492   8.258   3.494  10.283 -0.4714  1.5241 -0.2365
37829SOL     OW15493   5.855   6.614   5.913  0.6367  0.2179  0.1556
37829SOL    HW115494   5.833   6.527   5.880  0.0564  0.4770 -0.1562
37829SOL    HW215495   5.864   6.602   6.008  0.4360 -0.1568  0.1278
37830SOL     OW15496   0.232   8.673   3.459 -0.2382  0.0793  0.6986
37830SOL    HW115497   0.229   8.581   3.488  2.2317 -0.5582 -0.7936
37830SOL    HW215498   0.292   8.715   3.521 -0.3990  0.4007  0.6374
37831SOL     OW15499   5.815   6.128   2.438 -0.6558 -0.2385  0.4821
37831SOL    HW115500   5.896   6.148   2.392  0.1177  2.4262  2.7209
37831SOL    HW215501   5.751   6.190   2.403 -1.2552 -1.0737  0.0512
37832SOL     OW15502   9.722  10.872   5.590  0.5143 -0.0254 -0.0208
37832SOL    HW115503   9.753  10.810   5.524  1.5561 -1.4363  1.7100
37832SOL    HW215504   9.784  10.945   5.585  0.0909  0.2789 -1.1364
37833SOL     OW15505   1.482   1.626   4.510  0.2775  0.2203  0.3280
37833SOL    HW115506   1.516   1.591   4.593 -1.3046 -0.8392  0.5808
37833SOL    HW215507   1.463   1.548   4.458  0.9834  0.8692 -0.9597
37834SOL     OW15508   7.513   4.760   9.768 -0.4123 -0.2667  0.1450
37834SOL    HW115509   7.529   4.710   9.848  0.8157  0.5084  0.4064
37834SOL    HW215510   7.491   4.694   9.703  1.7662 -1.2760  0.3306
37835SOL     OW15511   0.079   6.306   1.120  0.8534  0.5688 -0.2030
37835SOL    HW115512   0.155   6.247   1.122  1.1997  1.0301  0.6541
37835SOL    HW215513   0.114   6.388   1.085  0.6829  0.7013 -0.0557
37836SOL     OW15514   0.940   4.641  10.897 -0.0289 -0.2392 -0.0095
37836SOL    HW115515   1.024   4.686  10.888 -0.0337  0.1201  1.4590
37836SOL    HW215516   0.963   4.556  10.936 -0.3763  0.0496  0.8416
37837SOL     OW15517  10.480   5.679   2.801 -0.1066 -0.3919 -0.0483
37837SOL    HW115518  10.478   5.606   2.739 -0.0325  0.0652 -0.5988
37837SOL    HW215519  10.390   5.685   2.834 -0.7722  0.8514 -1.9084
37838SOL     OW15520  11.082   1.922   8.300  0.2368 -0.6140  0.1084
37838SOL    HW115521  11.007   1.932   8.358 -3.1307 -0.4193 -3.8568
37838SOL    HW215522  11.070   1.837   8.259  3.0655 -1.2122  0.3183
37839SOL     OW15523   3.430   6.780   4.287 -0.3248 -0.5397  0.0397
37839SOL    HW115524   3.475   6.799   4.204  0.4240 -1.6900  0.1704
37839SOL    HW215525   3.476   6.834   4.352  0.8935 -1.6920  0.1689
37840SOL     OW15526   2.494   3.535   1.843  0.6221 -0.1984 -0.5491
37840SOL    HW115527   2.538   3.454   1.821  0.4670 -0.2108 -0.8249
37840SOL    HW215528   2.406   3.526   1.805  0.9871  0.5784 -1.6291
37841SOL     OW15529   6.460   9.995   7.806  0.3665  0.0610  0.1727
37841SOL    HW115530   6.409   9.952   7.738 -3.0830  3.3150  0.3494
37841SOL    HW215531   6.542  10.020   7.762 -0.8790  0.2490 -2.2134
37842SOL     OW15532   5.272   3.580   4.502 -0.1400 -0.1927  0.5643
37842SOL    HW115533   5.267   3.486   4.517 -0.5782 -0.3497 -0.4891
37842SOL    HW215534   5.197   3.616   4.549 -0.2268 -0.4248  0.6036
37843SOL     OW15535   3.569   4.393   3.545 -0.2675 -0.3059 -0.0062
37843SOL    HW115536   3.634   4.348   3.598 -0.4477  0.7062  1.1380
37843SOL    HW215537   3.488   4.344   3.560 -0.2504 -0.2088  0.4228
37844SOL     OW15538   6.129   0.904   8.707 -0.1811  0.1136  0.8644
37844SOL    HW115539   6.098   0.815   8.722  0.8840 -0.4813 -0.3057
37844SOL    HW215540   6.074   0.936   8.635 -1.9179  1.1727  2.5560
37845SOL     OW15541   0.042   4.073   2.967  0.0449  0.1995  0.7834
37845SOL    HW115542  -0.052   4.063   2.976  0.0642 -1.2160 -0.2250
37845SOL    HW215543   0.065   4.143   3.028 -1.4900 -0.2026  1.8802
37846SOL     OW15544   1.490   6.636   2.759  0.3971 -0.8355  0.0868
37846SOL    HW115545   1.493   6.553   2.712 -0.0455 -1.0331  0.3999
37846SOL    HW215546   1.477   6.703   2.692 -0.8086 -1.1658 -0.0263
37847SOL     OW15547   4.439   5.495   5.060  0.2236  0.9264  0.2997
37847SOL    HW115548   4.364   5.553   5.045 -0.4802 -0.2912 -1.2987
37847SOL    HW215549   4.514   5.543   5.025  0.4496  2.5913  2.8477
37848SOL     OW15550   3.362  10.594   8.498 -0.1253  0.4160  0.5690
37848SOL    HW115551   3.281  10.549   8.478  0.4122 -1.3537  2.0965
37848SOL    HW215552   3.334  10.682   8.525 -1.6930 -0.4883  2.1475
37849SOL     OW15553   5.613   3.020   5.658 -0.0220  0.0687 -0.1589
37849SOL    HW115554   5.569   3.103   5.677  0.6423  1.7339 -4.5309
37849SOL    HW215555   5.681   3.012   5.725  0.3620  3.4957  0.0295
37850SOL     OW15556   9.456  10.341   7.285  0.3268 -0.1291 -0.3426
37850SOL    HW115557   9.537  10.370   7.244  0.8966 -0.9306  0.1839
37850SOL    HW215558   9.409  10.422   7.307  0.1089  0.3193 -2.3171
37851SOL     OW15559   7.950   0.391   0.803  0.6952 -0.4483  0.1821
37851SOL    HW115560   7.966   0.468   0.749  0.0830  0.3530  1.0912
37851SOL    HW215561   7.971   0.316   0.747 -2.6191  0.1775 -2.1770
37852SOL     OW15562  10.861   6.791   5.394 -0.6491  0.5522 -0.1039
37852SOL    HW115563  10.832   6.737   5.320  0.0992 -1.4477  0.9881
37852SOL    HW215564  10.884   6.875   5.355 -1.1478 -0.1443 -1.9987
37853SOL     OW15565   6.117   6.120   9.166  0.3159 -0.6145  0.7098
37853SOL    HW115566   6.039   6.067   9.150  0.6000 -0.3164 -2.4137
37853SOL    HW215567   6.129   6.169   9.084  3.6260 -0.4622  1.1542
37854SOL     OW15568   4.140   8.285   1.820 -0.3270  0.1019  1.0163
37854SOL    HW115569   4.083   8.244   1.886 -1.3582  0.8456  0.6155
37854SOL    HW215570   4.114   8.244   1.738  0.7692 -0.6284  1.0222
37855SOL     OW15571   9.934   2.443   4.120 -0.1780  0.5207  0.8860
37855SOL    HW115572   9.890   2.476   4.198 -3.2342 -2.8392  0.8496
37855SOL    HW215573   9.873   2.380   4.083  2.6576 -0.6918 -2.2493
37856SOL     OW15574   6.581   7.410   2.659 -0.6553  0.1682  0.0859
37856SOL    HW115575   6.562   7.402   2.753 -0.8628 -0.9655 -0.0328
37856SOL    HW215576   6.599   7.503   2.646  0.0014  0.2417  1.3661
37857SOL     OW15577   7.705  10.297   0.944 -0.6286  0.4701 -0.0986
37857SOL    HW115578   7.624  10.318   0.897  0.7274  0.4380 -2.6008
37857SOL    HW215579   7.762  10.372   0.930  1.1260 -1.0325 -1.7480
37858SOL     OW15580   5.986   3.031   1.069  1.0306  0.0425  0.2502
37858SOL    HW115581   5.966   3.040   0.975 -0.4977  2.6306  0.7081
37858SOL    HW215582   5.910   2.985   1.105  0.7861  0.6154  0.4709
37859SOL     OW15583   8.279  10.498  10.522  0.6444  0.9350  0.3623
37859SOL    HW115584   8.354  10.460  10.567  1.6966  0.7636 -1.4235
37859SOL    HW215585   8.214  10.427  10.521 -0.1580  1.5254  3.1278
37860SOL     OW15586  10.820   5.011   8.790 -0.7785  0.5546  0.2059
37860SOL    HW115587  10.876   4.936   8.771 -0.2136  0.2950  2.6157
37860SOL    HW215588  10.737   4.973   8.819 -0.2706  0.7913  2.0781
37861SOL     OW15589   0.386  11.034   3.148  0.3132  0.3321 -0.4945
37861SOL    HW115590   0.389  11.126   3.121 -1.1677  0.4338 -0.3729
37861SOL    HW215591   0.293  11.013   3.150  0.4882 -0.4925  1.7801
37862SOL     OW15592   1.297   5.309   2.391 -0.7914  0.2197 -0.0579
37862SOL    HW115593   1.367   5.373   2.408  0.4664 -0.3828 -2.4581
37862SOL    HW215594   1.307   5.287   2.298 -0.8661 -3.7893  0.7060
37863SOL     OW15595   2.098   3.396   5.269  0.6597 -0.1249  0.1353
37863SOL    HW115596   2.034   3.387   5.339  1.7145 -2.6124  0.8613
37863SOL    HW215597   2.053   3.449   5.203 -1.4410 -0.2116  1.3994
37864SOL     OW15598   2.077   1.348   8.913  0.1006 -0.0228 -0.1233
37864SOL    HW115599   2.112   1.309   8.832  1.3910 -0.7302  0.7475
37864SOL    HW215600   2.089   1.442   8.901  1.8853 -0.2025 -0.0911
37865SOL     OW15601   5.349   9.519   6.515  0.3727  0.5061  0.2501
37865SOL    HW115602   5.290   9.564   6.454 -2.4418 -1.2736  1.4611
37865SOL    HW215603   5.399   9.459   6.459 -3.1910 -2.2016 -0.4132
37866SOL     OW15604   9.497   2.694   7.655  0.2255  0.0190  0.0299
37866SOL    HW115605   9.504   2.785   7.684  0.5541  0.4211 -1.2353
37866SOL    HW215606   9.543   2.644   7.721  0.4467  0.8275  0.5044
37867SOL     OW15607   1.801   8.972   7.299  0.7566  0.0955 -0.2672
37867SOL    HW115608   1.744   9.033   7.345  2.0854 -0.0055  1.6442
37867SOL    HW215609   1.781   8.887   7.338 -0.2701 -0.5669 -2.1066
37868SOL     OW15610   7.620  10.360   3.333 -0.2101  0.2463 -0.2530
37868SOL    HW115611   7.649  10.445   3.367  2.4127 -0.1650 -1.2428
37868SOL    HW215612   7.525  10.363   3.340 -0.1291  2.7504  0.9176
37869SOL     OW15613  10.976   0.605   8.139 -0.4225 -0.8170 -0.5273
37869SOL    HW115614  11.031   0.566   8.208 -0.6566 -0.1882  0.0289
37869SOL    HW215615  10.893   0.622   8.183 -0.0121  1.2320 -0.4700
37870SOL     OW15616   1.145   1.474   6.727 -0.3691  0.4120  0.4123
37870SOL    HW115617   1.052   1.450   6.727  0.0645 -1.4247 -0.4581
37870SOL    HW215618   1.149   1.550   6.669 -1.2028 -0.0989 -0.3448
37871SOL     OW15619   8.844   9.339   4.672  0.1677 -0.2172 -0.1353
37871SOL    HW115620   8.907   9.360   4.741 -0.3365  1.2222 -0.0855
37871SOL    HW215621   8.880   9.380   4.594  0.4372 -1.3438 -0.6154
37872SOL     OW15622   4.172   2.456  10.089  0.0015  0.1238  0.8362
37872SOL    HW115623   4.119   2.406  10.151 -0.8353  0.4671  0.4208
37872SOL    HW215624   4.239   2.395  10.059 -0.0508 -0.2698  1.5055
37873SOL     OW15625  10.190   5.324   5.133 -0.4673  0.3420  0.1187
37873SOL    HW115626  10.274   5.299   5.171 -0.2194  2.8342  1.3685
37873SOL    HW215627  10.135   5.246   5.145  2.5069 -2.8280 -4.0723
37874SOL     OW15628  10.166   8.570  10.631  0.4976  0.4959  0.5584
37874SOL    HW115629  10.077   8.541  10.611  1.3111 -0.9597 -1.2672
37874SOL    HW215630  10.178   8.648  10.576  0.3609  0.6687  0.7746
37875SOL     OW15631   9.499   7.185   1.097  0.5082 -0.5421 -0.2552
37875SOL    HW115632   9.441   7.207   1.024  0.8322  0.1420 -0.3138
37875SOL    HW215633   9.576   7.239   1.084  1.4607 -1.9234 -0.5369
37876SOL     OW15634   7.376   4.099   6.246  0.7120  0.1942  0.3310
37876SOL    HW115635   7.436   4.161   6.205  0.3621 -0.0416 -0.5797
37876SOL    HW215636   7.343   4.144   6.323  1.5885  0.5618  0.4967
37877SOL     OW15637   6.029   9.730   7.558  0.1317 -0.8051  0.6708
37877SOL    HW115638   5.949   9.716   7.609 -0.5299 -0.6726 -0.2949
37877SOL    HW215639   6.004   9.708   7.468  1.0992 -0.4535  0.3006
37878SOL     OW15640   9.310   1.154   5.913 -1.0950 -0.5069 -0.3903
37878SOL    HW115641   9.228   1.132   5.869 -2.1308  0.3350  1.0494
37878SOL    HW215642   9.331   1.242   5.883 -0.2007 -1.0514 -1.4470
37879SOL     OW15643   3.500   1.842   6.088 -0.1371 -0.0887  0.1356
37879SOL    HW115644   3.572   1.890   6.132  0.0945  0.3725 -0.7261
37879SOL    HW215645   3.423   1.863   6.140  0.1787  0.2381  0.4831
37880SOL     OW15646  10.767   2.198   9.435  0.1448 -0.1637  0.0296
37880SOL    HW115647  10.693   2.254   9.460  1.6801  1.4101  1.3162
37880SOL    HW215648  10.816   2.186   9.517  1.6989 -0.5716 -0.9282
37881SOL     OW15649   0.710   8.027   3.354 -0.0199  0.5112 -0.2590
37881SOL    HW115650   0.720   8.024   3.259  0.1710  0.0003 -0.2238
37881SOL    HW215651   0.743   8.114   3.379 -2.3095  1.6561 -0.9198
37882SOL     OW15652   4.429   5.098   0.384  0.0977  0.0890  0.7037
37882SOL    HW115653   4.449   5.096   0.291  1.2253  0.8422  0.9088
37882SOL    HW215654   4.350   5.044   0.393  0.4617 -0.6973 -0.5571
37883SOL     OW15655   8.188   6.318   2.321  0.5173 -0.0456 -0.2846
37883SOL    HW115656   8.215   6.289   2.234 -0.4567  1.8172 -1.2914
37883SOL    HW215657   8.093   6.329   2.314  0.2802 -0.7567  1.3298
37884SOL     OW15658   4.607   8.226   7.383 -0.6519  0.5119  0.4112
37884SOL    HW115659   4.541   8.226   7.313  0.3790 -0.7553 -0.6101
37884SOL    HW215660   4.680   8.277   7.348  0.7149 -1.8112 -0.3677
37885SOL     OW15661   3.907  10.469  10.203  0.2605 -0.5776  0.1530
37885SOL    HW115662   3.817  10.455  10.174  1.1043 -0.7100 -2.6604
37885SOL    HW215663   3.953  10.388  10.182  1.4426  0.1560 -0.2413
37886SOL     OW15664   7.561   2.466   6.119 -0.5530 -0.5405  0.2426
37886SOL    HW115665   7.650   2.435   6.138 -0.6213  0.2485  2.0618
37886SOL    HW215666   7.571   2.521   6.041  0.8252  0.6276  1.1914
37887SOL     OW15667   4.829   1.777   4.144 -0.0491 -0.0522 -0.3841
37887SOL    HW115668   4.792   1.865   4.137 -1.5371 -0.7370 -1.7824
37887SOL    HW215669   4.869   1.761   4.059  0.6849 -0.5539  0.0397
37888SOL     OW15670   6.565   5.589   4.828 -0.6620  0.4175  0.2243
37888SOL    HW115671   6.511   5.510   4.835  0.3996 -0.4434 -0.9476
37888SOL    HW215672   6.645   5.567   4.875  0.8690 -0.3695 -2.5427
37889SOL     OW15673   9.327  10.604   0.233  0.0569  1.0562  0.4918
37889SOL    HW115674   9.367  10.637   0.313  0.9757 -0.6819  0.8072
37889SOL    HW215675   9.338  10.509   0.239 -1.6302  0.7460 -0.7737
37890SOL     OW15676  11.255   2.900   4.994  0.2821  0.2987 -0.1122
37890SOL    HW115677  11.304   2.832   4.949 -1.8149 -0.1349 -1.9396
37890SOL    HW215678  11.265   2.978   4.940 -0.5109  0.3590 -0.1899
37891SOL     OW15679   4.184   9.522   0.001 -0.4127 -0.4501  0.5589
37891SOL    HW115680   4.278   9.539   0.007  0.0761 -1.8467 -1.8148
37891SOL    HW215681   4.151   9.593  -0.055 -0.7760 -0.0715  1.2329
37892SOL     OW15682   8.425   9.271   1.144 -0.2052  0.1224  0.1480
37892SOL    HW115683   8.425   9.178   1.121  0.2002 -0.3616  1.9270
37892SOL    HW215684   8.450   9.316   1.063  0.0147 -1.3464 -0.6327
37893SOL     OW15685   4.790   3.888  11.271 -0.2151  0.5313 -0.1376
37893SOL    HW115686   4.724   3.946  11.309  0.4730  2.4072 -1.6292
37893SOL    HW215687   4.865   3.895  11.330 -0.3435  0.6956  0.0060
37894SOL     OW15688   0.924  10.817   1.968 -0.2705  0.0464  0.0559
37894SOL    HW115689   0.967  10.801   1.884 -1.1801  0.1148 -0.4278
37894SOL    HW215690   0.996  10.822   2.031  0.3555 -1.0506 -0.5485
37895SOL     OW15691  10.220   4.981   9.356 -0.3999 -0.0821  0.0693
37895SOL    HW115692  10.165   5.055   9.332 -1.1022 -0.1730  1.3058
37895SOL    HW215693  10.308   5.018   9.364 -0.7093  0.5882  0.4572
37896SOL     OW15694   6.084   2.776   8.448  0.2075 -0.6448 -0.4527
37896SOL    HW115695   5.994   2.746   8.458 -0.2824  1.2597  1.8868
37896SOL    HW215696   6.077   2.852   8.390  0.2979 -0.4573 -0.2182
37897SOL     OW15697   3.672   4.746   5.694  0.1937  0.2380 -0.0117
37897SOL    HW115698   3.610   4.801   5.646 -0.2949 -0.9817 -0.8325
37897SOL    HW215699   3.677   4.665   5.643  0.3547 -0.7598  1.5255
37898SOL     OW15700   7.467   7.212   0.621  0.0957 -0.0903  0.6408
37898SOL    HW115701   7.540   7.217   0.559 -0.6908 -1.1827 -0.3971
37898SOL    HW215702   7.497   7.263   0.697  2.9086 -2.3441  1.2398
37899SOL     OW15703   0.747   1.287   6.913 -0.3965  0.0086 -0.4535
37899SOL    HW115704   0.753   1.328   6.999 -0.6927  0.6382 -0.7245
37899SOL    HW215705   0.819   1.224   6.912 -0.6650 -0.3226  0.4134
37900SOL     OW15706   1.526  10.529   4.583  0.0914  0.9291  0.5920
37900SOL    HW115707   1.442  10.569   4.601 -0.4326  0.3057 -0.3796
37900SOL    HW215708   1.526  10.513   4.488  0.4009 -1.0105  0.8774
37901SOL     OW15709  10.124   3.879   0.416  0.5682 -0.0079  0.4990
37901SOL    HW115710  10.034   3.899   0.440  0.5064  2.1892 -1.2488
37901SOL    HW215711  10.171   3.874   0.500 -0.3208  3.4698  1.3527
37902SOL     OW15712   8.333   6.884   4.342  0.0354  0.4260 -0.1910
37902SOL    HW115713   8.419   6.850   4.366  0.5312  0.6028 -1.5967
37902SOL    HW215714   8.276   6.859   4.415  1.4023  0.9170  1.0937
37903SOL     OW15715   6.400   7.158   2.115 -0.4128 -0.5309 -0.2368
37903SOL    HW115716   6.315   7.155   2.160 -0.2261 -0.7114  0.1078
37903SOL    HW215717   6.455   7.097   2.164  0.4471  0.8915  0.6376
37904SOL     OW15718   5.202   3.315   2.024 -0.5745  0.2696 -0.4288
37904SOL    HW115719   5.163   3.279   2.103  0.8229 -0.3695 -0.0139
37904SOL    HW215720   5.250   3.393   2.054 -2.7286  2.0092 -1.1656
37905SOL     OW15721   8.743   9.753   3.402  0.2861  0.0307 -0.4758
37905SOL    HW115722   8.825   9.777   3.357  0.6521  0.9764  0.6323
37905SOL    HW215723   8.770   9.691   3.469 -0.3236 -1.7129 -1.7914
37906SOL     OW15724   6.001   3.095   2.439 -0.1685 -0.7130  0.1787
37906SOL    HW115725   5.985   3.078   2.531  1.3351 -1.5953  0.3119
37906SOL    HW215726   6.068   3.031   2.413 -1.2509 -1.1482 -1.7790
37907SOL     OW15727   2.102   4.768   5.710  0.3291 -0.5249 -0.4158
37907SOL    HW115728   2.115   4.674   5.711  1.2716 -0.4097  0.2997
37907SOL    HW215729   2.069   4.788   5.623 -1.7132 -1.7271  0.0193
37908SOL     OW15730   6.064   8.985  10.556  0.0855 -0.5185  0.6566
37908SOL    HW115731   6.144   8.945  10.592 -0.2882 -0.6150  1.3913
37908SOL    HW215732   6.037   9.048  10.623  0.5865  0.8946 -0.4243
37909SOL     OW15733   8.012   7.541   2.668 -0.1388 -0.0975  0.4346
37909SOL    HW115734   8.097   7.559   2.630  0.7824  0.3486  2.5586
37909SOL    HW215735   7.996   7.614   2.728 -1.2237 -1.0263  1.3302
37910SOL     OW15736   8.681   1.764  10.892  0.7739 -0.0187 -0.2064
37910SOL    HW115737   8.682   1.776  10.987 -0.3933 -0.6747 -0.0964
37910SOL    HW215738   8.722   1.843  10.857 -2.6850  2.3620  0.6374
37911SOL     OW15739   5.142   3.645   8.973  0.2519  0.4682 -0.3247
37911SOL    HW115740   5.227   3.608   8.951  0.5117  0.4755  0.6276
37911SOL    HW215741   5.079   3.577   8.950  0.5963  0.0580 -0.0583
37912SOL     OW15742  10.771   9.096   3.959 -0.7434 -0.0324  0.2569
37912SOL    HW115743  10.731   9.111   3.874  0.3111  0.7494 -0.1231
37912SOL    HW215744  10.824   9.017   3.947  0.0468  0.5331 -0.0638
37913SOL     OW15745   4.652   6.803   0.913  0.1578  0.3227  0.2046
37913SOL    HW115746   4.594   6.859   0.964  0.5653  0.2726  0.7317
37913SOL    HW215747   4.625   6.817   0.822  0.4622  1.6180  0.3034
37914SOL     OW15748   5.853   4.264   3.314  0.3779 -0.2769 -0.1211
37914SOL    HW115749   5.791   4.335   3.329  0.0378 -0.6165  0.0862
37914SOL    HW215750   5.937   4.308   3.303  0.0810  0.1958 -0.5537
37915SOL     OW15751   5.274   1.924   3.818 -0.1567  0.0300  0.0391
37915SOL    HW115752   5.224   1.990   3.867 -0.1276 -0.1288  0.2861
37915SOL    HW215753   5.210   1.883   3.760 -0.3152 -0.1784  0.3601
37916SOL     OW15754   8.438   0.962  10.344  0.4890  0.5078  0.1572
37916SOL    HW115755   8.453   1.011  10.264 -0.9941 -3.8822 -3.1861
37916SOL    HW215756   8.520   0.914  10.358 -0.7461 -2.3935 -1.7783
37917SOL     OW15757   1.651   6.615   0.695  0.4411  0.9340 -0.2438
37917SOL    HW115758   1.605   6.570   0.766  1.3857 -1.1221 -0.8621
37917SOL    HW215759   1.596   6.692   0.676 -0.5710  0.7560  1.7180
37918SOL     OW15760   0.286   6.040   1.051  0.1354 -0.1453 -0.2918
37918SOL    HW115761   0.379   6.019   1.046  0.0577 -0.5214 -0.1952
37918SOL    HW215762   0.268   6.050   1.145  0.5520  2.1520 -0.3788
37919SOL     OW15763   0.153   1.686   6.970  0.2105 -0.0704 -0.2992
37919SOL    HW115764   0.073   1.640   6.945  0.4414 -0.7412  0.1614
37919SOL    HW215765   0.198   1.626   7.030  1.1545  0.2182 -0.6962
37920SOL     OW15766   2.441   2.369   1.530  0.5592  0.5677 -0.4440
37920SOL    HW115767   2.516   2.369   1.471  1.1436  1.0735  0.2859
37920SOL    HW215768   2.476   2.343   1.615 -0.3859 -0.7604 -0.4264
37921SOL     OW15769   8.583   9.117   8.890 -0.5878 -0.0582  0.2996
37921SOL    HW115770   8.507   9.175   8.895 -1.5499 -1.0892 -1.5857
37921SOL    HW215771   8.658   9.177   8.887 -1.5080  1.0874 -0.8418
37922SOL     OW15772   2.415   0.467   4.379 -0.2232 -0.0106 -0.3904
37922SOL    HW115773   2.409   0.448   4.473 -1.1914 -0.8632 -0.6115
37922SOL    HW215774   2.404   0.562   4.373  0.7394  0.1665  0.4250
37923SOL     OW15775   2.773   2.636   8.777  0.8246  0.2068 -0.1776
37923SOL    HW115776   2.857   2.590   8.785  1.3121  1.2323  0.7911
37923SOL    HW215777   2.756   2.636   8.683  3.0587  1.9154 -0.6758
37924SOL     OW15778  10.853   4.194   3.574  0.5103 -0.4855  0.4781
37924SOL    HW115779  10.880   4.193   3.666 -2.5710 -1.4660  1.4943
37924SOL    HW215780  10.891   4.114   3.537  0.4540 -0.9277  1.3509
37925SOL     OW15781   5.615   0.748   3.097  0.3825 -0.2398 -0.2614
37925SOL    HW115782   5.555   0.807   3.050  1.6184 -0.0099 -1.6380
37925SOL    HW215783   5.702   0.776   3.069  1.1588 -0.5966  1.6622
37926SOL     OW15784   0.005   2.117  10.077  0.2653 -0.3838  0.1001
37926SOL    HW115785   0.065   2.057  10.120  1.5004  1.4160  1.0532
37926SOL    HW215786  -0.082   2.085  10.098  0.8420 -2.6160 -0.6503
37927SOL     OW15787   9.538   4.297   5.912 -0.4016  0.4150 -0.8875
37927SOL    HW115788   9.463   4.252   5.951  0.4340 -0.7269 -0.5454
37927SOL    HW215789   9.560   4.244   5.835  0.7861  0.0259 -0.3066
37928SOL     OW15790   8.916   9.092   2.490  0.2657  0.4592 -0.1695
37928SOL    HW115791   8.966   9.039   2.428  3.9215  4.2699 -0.9833
37928SOL    HW215792   8.833   9.111   2.446  0.4892 -1.3357 -1.4396
37929SOL     OW15793   2.509   9.591  10.941 -0.6986  0.1972 -0.3814
37929SOL    HW115794   2.469   9.511  10.973 -0.3626  0.3691  0.5073
37929SOL    HW215795   2.551   9.629  11.018 -1.4632  1.6013 -0.6229
37930SOL     OW15796   3.442   7.594   4.432  0.2828  0.6345  0.3091
37930SOL    HW115797   3.499   7.600   4.509 -0.3512  0.1793  0.8171
37930SOL    HW215798   3.493   7.540   4.370 -0.1336 -0.9600  1.2819
37931SOL     OW15799   1.972   6.327   1.132  0.4408 -0.3088 -0.1016
37931SOL    HW115800   1.994   6.420   1.125  1.6038 -0.4356  1.3576
37931SOL    HW215801   2.051   6.287   1.168 -1.3437 -1.1917  3.1972
37932SOL     OW15802   8.458   2.497   9.231  0.3493  0.0471 -0.1397
37932SOL    HW115803   8.424   2.558   9.297 -1.9292  0.4215 -1.5513
37932SOL    HW215804   8.432   2.411   9.264 -0.3777  0.1978 -0.2974
37933SOL     OW15805  10.787   1.076  10.226 -0.0096  0.2609  0.4094
37933SOL    HW115806  10.811   1.054  10.136 -0.3394 -1.7068  0.7579
37933SOL    HW215807  10.848   1.027  10.280  0.2769  1.5309  1.2983
37934SOL     OW15808   9.452   0.804   5.423 -0.8488 -0.3329  0.1721
37934SOL    HW115809   9.536   0.761   5.406  0.1677  2.0025 -1.1788
37934SOL    HW215810   9.466   0.854   5.503 -0.3132  1.4255 -0.9662
37935SOL     OW15811   5.973  10.740   3.563  0.1656 -0.5912 -0.3428
37935SOL    HW115812   6.044  10.774   3.508  0.7323 -2.2650 -0.6852
37935SOL    HW215813   5.931  10.673   3.510 -1.4758  0.1014  0.0044
37936SOL     OW15814   0.301   0.054   1.044  0.4504 -0.3252  0.5069
37936SOL    HW115815   0.278  -0.029   1.084 -1.3685 -0.4397 -0.6367
37936SOL    HW215816   0.235   0.116   1.076  1.4502  0.5546  0.9145
37937SOL     OW15817   0.988   0.039   1.359 -0.3109  0.4883 -0.5471
37937SOL    HW115818   0.983  -0.039   1.414 -0.9838  0.7233 -0.2778
37937SOL    HW215819   0.903   0.082   1.369 -1.2728 -0.5459 -3.3742
37938SOL     OW15820   6.507   5.543  10.749  0.3208 -0.1206  0.1084
37938SOL    HW115821   6.535   5.607  10.683  0.3533 -0.0380  0.2032
37938SOL    HW215822   6.510   5.591  10.832  2.3136 -0.7991  0.4851
37939SOL     OW15823   0.635   2.441   9.250  0.1578 -0.6778  0.5159
37939SOL    HW115824   0.546   2.476   9.245  0.3801 -0.1728 -0.0018
37939SOL    HW215825   0.638   2.394   9.333 -0.9412 -1.6763  0.0150
37940SOL     OW15826   4.902   4.649   8.435 -0.1540 -0.0668  0.0378
37940SOL    HW115827   4.858   4.567   8.415 -1.7064  0.9320 -0.8264
37940SOL    HW215828   4.946   4.633   8.518 -2.1596 -1.1437  0.9628
37941SOL     OW15829   8.595   6.466   8.478  0.0018 -0.2817 -0.0635
37941SOL    HW115830   8.539   6.509   8.543 -1.3548 -0.7805 -0.8609
37941SOL    HW215831   8.655   6.411   8.529 -1.7738 -1.5434  0.7450
37942SOL     OW15832  11.200   8.069   6.909  0.1703  0.0527 -0.0778
37942SOL    HW115833  11.277   8.015   6.891  1.3704  1.1303  1.5915
37942SOL    HW215834  11.171   8.098   6.822  1.7056 -0.3081 -0.7483
37943SOL     OW15835   5.568   1.276   5.020  0.6370  0.3984 -0.0321
37943SOL    HW115836   5.591   1.229   5.100 -0.2211  0.1053  0.0570
37943SOL    HW215837   5.546   1.365   5.050  2.8662  1.0782 -0.2749
37944SOL     OW15838   3.569   6.558   7.539  0.3093 -0.3113  0.7415
37944SOL    HW115839   3.632   6.501   7.584  1.2638  1.1750  1.3677
37944SOL    HW215840   3.622   6.632   7.508 -0.6405 -0.4064 -1.3069
37945SOL     OW15841   0.010   4.982   8.504 -0.5118 -0.3616 -0.3422
37945SOL    HW115842  -0.044   4.906   8.483 -0.7073  0.1502 -1.7501
37945SOL    HW215843  -0.002   5.041   8.430  0.6340  0.5016  0.1428
37946SOL     OW15844   0.957   9.774   0.934 -0.7466  0.1747 -0.6886
37946SOL    HW115845   1.023   9.735   0.992 -0.5590 -0.1927 -1.1425
37946SOL    HW215846   0.905   9.830   0.992  0.3705  0.9909 -0.4423
37947SOL     OW15847   9.950  11.097  10.015 -0.1360 -0.3503  0.2522
37947SOL    HW115848   9.977  11.178   9.973  0.3426  0.0113  1.2242
37947SOL    HW215849   9.983  11.104  10.105 -1.6244 -0.8349  0.8788
37948SOL     OW15850   1.731   5.629   4.829 -0.0740 -0.4923  0.5280
37948SOL    HW115851   1.754   5.720   4.807  0.0321 -0.3305  1.2744
37948SOL    HW215852   1.636   5.626   4.820  0.0069 -0.5470 -0.3492
37949SOL     OW15853   5.847   0.686   5.729  0.3177 -0.3376  0.3485
37949SOL    HW115854   5.834   0.606   5.678 -0.7868 -1.8730  2.8370
37949SOL    HW215855   5.771   0.740   5.710  1.7919  0.9522 -2.5291
37950SOL     OW15856   3.777   1.561   3.954  0.1891  0.1142  0.0320
37950SOL    HW115857   3.798   1.523   4.039  0.7085  1.8321  0.7156
37950SOL    HW215858   3.796   1.654   3.964 -0.0895  0.4178 -1.8621
37951SOL     OW15859   7.551   5.975   6.929 -0.1890 -0.0868  0.1498
37951SOL    HW115860   7.589   6.049   6.976 -0.8305  0.1476  0.3061
37951SOL    HW215861   7.531   5.910   6.998  0.6432 -0.5316 -0.0173
37952SOL     OW15862   4.044   4.919   3.322 -0.3331  0.6994 -0.2120
37952SOL    HW115863   4.127   4.943   3.364  1.8497 -1.6888 -2.7281
37952SOL    HW215864   4.009   4.849   3.376  1.9540 -1.6754 -1.5710
37953SOL     OW15865   0.424   8.860   6.835 -0.5389 -0.2684  0.5421
37953SOL    HW115866   0.392   8.945   6.803  1.3348 -0.8282 -3.4672
37953SOL    HW215867   0.347   8.818   6.872 -2.8572  1.1582 -2.2512
37954SOL     OW15868   2.322   2.326   7.927 -0.1302 -0.1033  0.2654
37954SOL    HW115869   2.361   2.414   7.924 -0.9716  0.2880  0.5576
37954SOL    HW215870   2.390   2.269   7.889 -0.3219  0.9482 -1.8154
37955SOL     OW15871   3.301   1.353   1.992  0.2442 -0.0140  0.7944
37955SOL    HW115872   3.314   1.309   2.076 -0.5849 -1.2135  0.3198
37955SOL    HW215873   3.316   1.286   1.926  0.5286  0.8240 -0.0170
37956SOL     OW15874   4.715   3.760   0.428  0.0683  0.2643 -0.1658
37956SOL    HW115875   4.744   3.684   0.377 -0.8901 -2.0492  2.4789
37956SOL    HW215876   4.778   3.766   0.499  1.3232  3.3594 -1.3558
37957SOL     OW15877   2.889   5.656   0.197  0.6552  0.7365 -0.1475
37957SOL    HW115878   2.849   5.735   0.233  0.5805  0.5025  0.2927
37957SOL    HW215879   2.868   5.588   0.261  0.2473  0.2458 -0.7974
37958SOL     OW15880   5.425   3.311   6.888 -0.3042 -0.0516 -0.1569
37958SOL    HW115881   5.435   3.348   6.800 -1.9262 -1.8824 -1.1713
37958SOL    HW215882   5.487   3.238   6.891 -0.5146 -0.2229  0.1008
37959SOL     OW15883   6.331   9.734   5.683 -0.7397 -0.1043  0.5310
37959SOL    HW115884   6.323   9.810   5.742  1.3472  0.0812  0.6599
37959SOL    HW215885   6.312   9.659   5.739 -4.6580  0.2837  0.0005
37960SOL     OW15886   3.892   3.664   6.045 -0.2189  0.2005 -0.2927
37960SOL    HW115887   3.811   3.706   6.016  0.6541  1.2939 -1.2675
37960SOL    HW215888   3.958   3.693   5.982  0.9551 -0.6071  0.5135
37961SOL     OW15889   2.309   7.515   9.139  0.5509  0.4250 -0.3573
37961SOL    HW115890   2.393   7.488   9.176 -0.2357  0.8973  1.9135
37961SOL    HW215891   2.321   7.607   9.115  1.0658  0.1139 -1.3731
37962SOL     OW15892   4.196   4.479   8.211 -0.3442 -0.2171 -0.3897
37962SOL    HW115893   4.142   4.472   8.133 -1.6833  3.5569 -0.0005
37962SOL    HW215894   4.276   4.431   8.190 -1.3647 -0.7703 -3.3856
37963SOL     OW15895   8.848   5.543   2.174  0.1477  0.0828 -0.3261
37963SOL    HW115896   8.804   5.619   2.213  1.4574  0.8286 -0.2360
37963SOL    HW215897   8.913   5.516   2.239 -1.1590 -1.9815  0.2090
37964SOL     OW15898   3.510   9.590   9.611 -0.5008 -0.3765  1.0173
37964SOL    HW115899   3.428   9.635   9.590 -1.2827 -1.7927  0.9298
37964SOL    HW215900   3.576   9.637   9.562 -1.4959 -0.1601 -0.1604
37965SOL     OW15901   5.982   2.502   6.674  0.4676  0.0225 -0.2790
37965SOL    HW115902   5.933   2.560   6.615  0.0414  0.2866  0.3261
37965SOL    HW215903   5.946   2.415   6.658  0.3191  0.1015 -0.3765
37966SOL     OW15904   8.061  11.025   8.231  0.0240  0.1011  0.4815
37966SOL    HW115905   8.044  10.973   8.152 -0.4108 -0.5441  0.9917
37966SOL    HW215906   7.981  11.016   8.283  0.0591  1.0522  0.7085
37967SOL     OW15907   3.371   6.985   8.704 -0.1759  0.2427  0.3858
37967SOL    HW115908   3.414   6.902   8.725 -0.7751 -1.3698 -3.7823
37967SOL    HW215909   3.442   7.041   8.672 -0.0765  0.5503  1.1380
37968SOL     OW15910   9.722   7.416   5.079 -0.1959 -0.3454 -0.0917
37968SOL    HW115911   9.711   7.468   5.158 -2.8591  0.0317 -0.6240
37968SOL    HW215912   9.666   7.340   5.092 -0.8527 -0.1741 -1.6448
37969SOL     OW15913  10.613   2.963   4.446  0.1553  0.3870 -0.1517
37969SOL    HW115914  10.659   3.046   4.460  1.1900 -0.3890  1.3169
37969SOL    HW215915  10.601   2.927   4.534 -0.2198 -1.0387 -0.7581
37970SOL     OW15916   7.210   2.274   7.079  0.4399 -0.0455  0.1392
37970SOL    HW115917   7.167   2.309   7.157 -0.1636  1.5958 -0.8721
37970SOL    HW215918   7.148   2.292   7.008  1.6896  0.0125 -0.9620
37971SOL     OW15919   1.355  11.027   9.272 -0.1519 -0.4207  0.0598
37971SOL    HW115920   1.392  10.974   9.342 -1.7500 -2.9726 -0.8924
37971SOL    HW215921   1.429  11.045   9.214  0.4658 -1.5598  0.4561
37972SOL     OW15922   5.453   2.571   1.890 -0.3988 -0.0120  0.2580
37972SOL    HW115923   5.459   2.597   1.982 -0.8984  1.8973 -0.2073
37972SOL    HW215924   5.503   2.637   1.843 -0.9934 -0.3850 -0.9516
37973SOL     OW15925   4.844   4.267   1.794 -0.2873  0.1852 -0.5121
37973SOL    HW115926   4.846   4.309   1.708  1.3868 -0.1005 -0.6612
37973SOL    HW215927   4.905   4.193   1.786 -0.8263 -0.4154  0.6469
37974SOL     OW15928   7.732   1.634   4.918  0.1987  0.3476  0.0673
37974SOL    HW115929   7.654   1.621   4.972 -0.8643  1.9563 -0.9965
37974SOL    HW215930   7.697   1.656   4.831  1.8129  1.7195 -0.2823
37975SOL     OW15931   2.088   1.489   3.582 -0.1256 -0.2577  0.2814
37975SOL    HW115932   2.172   1.533   3.595  0.6827 -0.6306 -2.8872
37975SOL    HW215933   2.057   1.519   3.497 -2.6051 -1.1672  0.7531
37976SOL     OW15934   9.287   2.875   3.978  0.4117  0.0587  0.4652
37976SOL    HW115935   9.273   2.880   4.072 -1.3849  2.0577  0.1672
37976SOL    HW215936   9.208   2.834   3.943  0.3887  0.7001 -0.2825
37977SOL     OW15937   1.596   9.035   8.018  0.3887 -0.4937  0.2398
37977SOL    HW115938   1.636   8.948   8.011 -0.8455 -1.1859  1.3062
37977SOL    HW215939   1.555   9.035   8.105  1.3978  1.6187  0.7900
37978SOL     OW15940   3.330   1.870   9.508  0.1895 -0.3504  0.2293
37978SOL    HW115941   3.333   1.934   9.579  0.5160  0.0786 -0.1596
37978SOL    HW215942   3.243   1.881   9.470  0.6472  0.7082 -0.5762
37979SOL     OW15943   6.226   2.602   7.148 -0.0486 -0.7095 -0.0084
37979SOL    HW115944   6.209   2.616   7.055  0.9365 -1.7632 -0.3750
37979SOL    HW215945   6.172   2.527   7.172 -3.1808  1.7415  1.2578
37980SOL     OW15946  10.224   0.945  10.541 -0.4817 -0.5187 -0.0410
37980SOL    HW115947  10.170   0.919  10.466 -1.7135  1.6342  0.0003
37980SOL    HW215948  10.182   0.904  10.616 -0.6230 -0.8085 -0.2769
37981SOL     OW15949   8.522   8.765   1.147  0.0312 -0.2764  0.4794
37981SOL    HW115950   8.552   8.838   1.093  2.5658 -0.8877  0.9360
37981SOL    HW215951   8.510   8.693   1.085 -3.8390  0.7496 -0.1925
37982SOL     OW15952   0.659   4.071   8.275  0.4749 -0.6009  0.4750
37982SOL    HW115953   0.572   4.088   8.239  1.7393  2.5596 -1.5415
37982SOL    HW215954   0.695   4.001   8.221 -0.2130 -0.8001  0.2697
37983SOL     OW15955   6.838   5.506   3.881  0.3772 -0.4253  0.4621
37983SOL    HW115956   6.798   5.554   3.954  1.4959 -0.3486  1.0567
37983SOL    HW215957   6.783   5.526   3.806 -1.6889 -1.6820  1.5331
37984SOL     OW15958   4.879   2.793  10.913  0.4744  0.4098  0.3042
37984SOL    HW115959   4.846   2.828  10.830 -1.9026 -0.7881  0.6597
37984SOL    HW215960   4.832   2.843  10.980  2.2548  1.2572  0.9579
37985SOL     OW15961   2.605   8.869   1.972 -0.0914 -0.2975 -0.6026
37985SOL    HW115962   2.525   8.843   1.925 -1.7631  3.3695 -0.0911
37985SOL    HW215963   2.670   8.881   1.903 -0.3825 -1.8187 -1.1842
37986SOL     OW15964   6.187   3.417   3.382 -0.8642 -0.3705  0.2459
37986SOL    HW115965   6.250   3.389   3.448 -0.8609 -0.9998 -0.0155
37986SOL    HW215966   6.233   3.482   3.329 -0.9945  0.4278  1.0955
37987SOL     OW15967   2.096   5.501   0.235 -0.1390 -0.5144  0.1703
37987SOL    HW115968   2.001   5.513   0.229  0.0985  0.9186 -1.2068
37987SOL    HW215969   2.108   5.406   0.227 -1.5163 -0.9012  1.9319
37988SOL     OW15970   6.436   4.278   7.256 -0.2896 -0.2864  0.1852
37988SOL    HW115971   6.456   4.186   7.244  0.7654 -0.4889  2.8463
37988SOL    HW215972   6.482   4.322   7.184  0.7054 -1.6713 -0.0705
37989SOL     OW15973   5.865   7.531  10.364 -0.4856  0.1572  1.0820
37989SOL    HW115974   5.910   7.447  10.376 -0.5391 -0.5370 -2.6223
37989SOL    HW215975   5.855   7.565  10.453  1.0082 -2.9626  2.6030
37990SOL     OW15976   4.421   4.161   4.279 -0.2960  0.1101  0.2209
37990SOL    HW115977   4.515   4.169   4.262 -0.3241  1.6930  0.7073
37990SOL    HW215978   4.389   4.103   4.210  0.7424  0.9755 -1.0301
37991SOL     OW15979   8.555   0.286   6.110 -0.3083  0.4290 -0.5453
37991SOL    HW115980   8.609   0.353   6.067  2.7496 -1.2879  0.2605
37991SOL    HW215981   8.523   0.328   6.189  0.3453  1.3995 -0.7776
37992SOL     OW15982   8.098   5.757   5.365 -0.0655 -0.9362 -0.9364
37992SOL    HW115983   8.029   5.793   5.310 -2.2226 -2.0511  0.9159
37992SOL    HW215984   8.069   5.668   5.386  1.2307 -0.9550  1.0361
37993SOL     OW15985   0.637   5.110   2.751  0.6689  0.3324  0.3522
37993SOL    HW115986   0.722   5.154   2.755 -0.3506  2.6573 -1.0960
37993SOL    HW215987   0.575   5.176   2.781 -0.5950 -1.6487  2.3966
37994SOL     OW15988  10.107   4.996   6.902 -0.3799  0.8359 -0.4464
37994SOL    HW115989  10.165   4.924   6.925 -0.0774  0.7287 -1.4900
37994SOL    HW215990  10.018   4.962   6.916 -0.2111  1.0955  1.4300
37995SOL     OW15991  10.959   7.488   1.665  0.1868 -0.9071 -0.6164
37995SOL    HW115992  11.008   7.406   1.674  0.4553 -0.5381  1.9231
37995SOL    HW215993  10.867   7.462   1.671  0.2821 -0.8605  3.3462
37996SOL     OW15994   3.012   7.984   8.146 -0.0504  0.2564  0.1632
37996SOL    HW115995   3.075   8.019   8.209 -0.6419  0.5500  0.6094
37996SOL    HW215996   3.052   8.000   8.061  0.0460  1.3498  0.3937
37997SOL     OW15997   5.846   7.341   8.445  0.2453 -0.5639 -0.8342
37997SOL    HW115998   5.920   7.391   8.478  1.4896 -1.6262 -1.8801
37997SOL    HW215999   5.831   7.375   8.357 -1.2083  0.3371 -0.2690
37998SOL     OW16000   6.260   4.264   3.785 -0.2474 -0.1690 -0.4005
37998SOL    HW116001   6.218   4.254   3.699 -1.4541  1.7118 -0.0914
37998SOL    HW216002   6.353   4.273   3.764 -0.3156 -1.3927 -1.3574
37999SOL     OW16003   1.824   6.268   5.826 -0.1896 -0.3264  0.4781
37999SOL    HW116004   1.734   6.250   5.798 -0.2676 -0.2061  0.6516
37999SOL    HW216005   1.835   6.362   5.814  0.0660 -0.4130  0.0180
38000SOL     OW16006   4.953   1.375   6.547 -0.0601  0.9651  0.0688
38000SOL    HW116007   4.888   1.437   6.578  0.4426  1.2133  0.6358
38000SOL    HW216008   4.994   1.418   6.472 -0.7278  0.6932 -0.4643
38001SOL     OW16009   3.926   6.196   2.919  0.1961 -0.5755 -0.3339
38001SOL    HW116010   3.988   6.173   2.988  0.0250 -1.1401 -0.3689
38001SOL    HW216011   3.945   6.288   2.901  0.6354 -0.5825  0.0568
38002SOL     OW16012  10.864   3.947   2.131  0.4368  0.3891  0.2807
38002SOL    HW116013  10.795   4.014   2.136 -1.9545 -1.4445 -3.5129
38002SOL    HW216014  10.934   3.989   2.081  1.6964  1.8003  2.9783
38003SOL     OW16015   3.681   2.176   8.068  0.0274 -0.3626  0.2786
38003SOL    HW116016   3.616   2.173   8.138  1.4351  3.4079  2.0359
38003SOL    HW216017   3.732   2.096   8.079 -0.9245 -0.7530  2.4655
38004SOL     OW16018   9.283   1.872   8.781  0.0369  0.8960 -0.2982
38004SOL    HW116019   9.274   1.889   8.688  0.7645 -3.8385 -1.4925
38004SOL    HW216020   9.376   1.883   8.800  0.8899 -2.8352 -1.5410
38005SOL     OW16021   4.736   4.413   8.506 -0.2507 -0.1025  0.4017
38005SOL    HW116022   4.731   4.452   8.593 -1.1370 -3.1627  1.8850
38005SOL    HW216023   4.651   4.371   8.494  0.3942 -1.0321 -1.3035
38006SOL     OW16024   6.612   1.667   4.109  0.2934  0.2731  0.1314
38006SOL    HW116025   6.524   1.703   4.094  0.3214  0.2721 -0.0403
38006SOL    HW216026   6.652   1.728   4.171 -0.1713 -0.2578  0.9763
38007SOL     OW16027   5.565   6.186   4.820  0.4153 -1.0467  0.0382
38007SOL    HW116028   5.641   6.225   4.862  0.7213 -2.2308  0.6454
38007SOL    HW216029   5.490   6.225   4.865  0.5295  1.4625 -1.7433
38008SOL     OW16030   9.764  10.325   4.818  0.0039  0.1755  0.0771
38008SOL    HW116031   9.842  10.378   4.835  0.3186  0.4467 -1.9677
38008SOL    HW216032   9.700  10.353   4.883  0.0251  3.3520 -1.1240
38009SOL     OW16033   0.351   5.825   0.695 -0.1721 -0.9577  0.0661
38009SOL    HW116034   0.297   5.875   0.634  1.4205 -0.1852 -0.7804
38009SOL    HW216035   0.393   5.758   0.640 -1.4385 -2.5640  0.9912
38010SOL     OW16036   7.947   3.898   2.393  0.4323  0.1863 -0.1725
38010SOL    HW116037   7.873   3.898   2.332  1.0233  0.0324 -0.8997
38010SOL    HW216038   7.933   3.819   2.446  0.4477 -0.2262 -0.7716
38011SOL     OW16039   1.292   6.266   3.884  0.5188  0.1138  1.0952
38011SOL    HW116040   1.328   6.178   3.877 -0.3857 -0.1730 -0.1495
38011SOL    HW216041   1.204   6.254   3.919  0.7489  0.6150  1.8705
38012SOL     OW16042   1.908   5.802   9.705 -0.3779 -0.2642 -0.2022
38012SOL    HW116043   1.932   5.731   9.646  0.7604 -1.1786  1.3013
38012SOL    HW216044   1.971   5.872   9.686 -1.9441  0.6898 -2.1858
38013SOL     OW16045   2.181   5.663   4.808 -0.2781 -0.1451  0.6156
38013SOL    HW116046   2.177   5.567   4.815  0.5579 -0.2383 -0.1356
38013SOL    HW216047   2.156   5.694   4.895 -1.3720 -1.0239  0.6375
38014SOL     OW16048  10.371   2.824   3.618 -0.1621  0.0365 -0.3240
38014SOL    HW116049  10.386   2.918   3.627 -1.2255  0.2416 -0.6070
38014SOL    HW216050  10.416   2.785   3.693  1.2253  0.6599 -0.7928
38015SOL     OW16051   5.268   3.844   1.518 -0.7083 -0.0372 -0.6829
38015SOL    HW116052   5.277   3.890   1.601  1.8363 -0.7374 -0.5000
38015SOL    HW216053   5.225   3.761   1.542  2.6013 -1.5618  0.5842
38016SOL     OW16054   4.294   1.401   7.474 -0.0106  0.0738 -0.5489
38016SOL    HW116055   4.235   1.428   7.544  0.3491  0.3612 -0.3524
38016SOL    HW216056   4.378   1.440   7.497 -0.1293  1.0786 -1.6922
38017SOL     OW16057   8.807   0.067   6.095  0.3778  0.1611  0.3651
38017SOL    HW116058   8.860   0.040   6.169 -1.2860 -0.0547  1.5250
38017SOL    HW216059   8.752   0.139   6.128 -0.9442 -0.4477 -0.3888
38018SOL     OW16060   7.716   3.404  10.913  0.8340 -0.4601 -0.1664
38018SOL    HW116061   7.636   3.359  10.942 -0.9669  3.0442  0.8125
38018SOL    HW216062   7.787   3.360  10.961 -0.8123 -1.8954  1.0785
38019SOL     OW16063   2.855   2.903   3.395  0.1490  0.1493  0.6400
38019SOL    HW116064   2.775   2.927   3.443 -0.9700  2.5496 -2.1449
38019SOL    HW216065   2.914   2.977   3.407  0.4762  0.0595 -0.3355
38020SOL     OW16066   3.478   3.502   9.097  0.3495 -0.4041  0.6818
38020SOL    HW116067   3.485   3.480   9.005 -0.9962  0.4285  0.3445
38020SOL    HW216068   3.497   3.596   9.101  1.6627 -0.6789  1.4505
38021SOL     OW16069  11.157   9.852   5.853 -0.3447 -0.0034  0.0683
38021SOL    HW116070  11.158   9.947   5.837  0.4363  0.1212  0.7789
38021SOL    HW216071  11.249   9.826   5.847 -0.6961 -1.0447 -1.8263
38022SOL     OW16072  10.307   9.919  10.044 -0.3932  0.0185  0.2006
38022SOL    HW116073  10.253   9.843  10.023 -1.2213  0.5279  0.4682
38022SOL    HW216074  10.311   9.968   9.962 -0.8613  0.3032  0.3475
38023SOL     OW16075   3.454   8.534   1.485 -0.3573 -0.0999 -0.1054
38023SOL    HW116076   3.427   8.578   1.565 -0.6974 -0.2646 -0.1310
38023SOL    HW216077   3.542   8.502   1.504 -0.4445 -0.1523  0.2060
38024SOL     OW16078  10.212   0.442   8.394  0.0722  0.2028  0.7762
38024SOL    HW116079  10.261   0.510   8.349 -0.7160  0.8936  0.9352
38024SOL    HW216080  10.126   0.481   8.410 -0.3735 -0.8122  0.9213
38025SOL     OW16081  10.176  10.912   0.398  0.0781  0.2537  0.6334
38025SOL    HW116082  10.093  10.887   0.357 -1.0109  0.4309  2.6171
38025SOL    HW216083  10.226  10.830   0.402 -0.0858  0.0936 -0.3375
38026SOL     OW16084   0.298   2.476  10.228  0.4440 -0.3232 -0.1334
38026SOL    HW116085   0.210   2.439  10.231 -0.6285  1.5473 -3.4569
38026SOL    HW216086   0.321   2.492  10.319 -2.8810 -0.3666  0.8350
38027SOL     OW16087   4.880   0.158   8.251 -0.1298 -0.5280  0.3631
38027SOL    HW116088   4.968   0.183   8.221 -0.5530  0.3467 -0.1988
38027SOL    HW216089   4.839   0.119   8.174 -0.8492  0.7390  0.0809
38028SOL     OW16090   5.125   5.811   8.314 -0.2116  0.5803  0.5925
38028SOL    HW116091   5.130   5.797   8.408  0.3419 -3.0268  0.1657
38028SOL    HW216092   5.092   5.729   8.279  0.1411  1.5899 -2.4469
38029SOL     OW16093   5.632   0.254   3.720 -0.2579 -0.0760 -0.0159
38029SOL    HW116094   5.569   0.294   3.780 -1.5533 -2.4120  0.3417
38029SOL    HW216095   5.687   0.326   3.690 -2.4382  1.9125  0.4909
38030SOL     OW16096   5.627   6.525   4.840 -0.1785  0.1701 -0.5490
38030SOL    HW116097   5.551   6.488   4.795 -0.5842 -0.6407  0.7690
38030SOL    HW216098   5.666   6.452   4.888  0.4552  0.9257  0.1304
38031SOL     OW16099   0.373   1.864   5.595 -0.1425  1.0933  0.4144
38031SOL    HW116100   0.284   1.895   5.583  0.2505  1.9421 -0.3716
38031SOL    HW216101   0.409   1.921   5.663 -0.1074  0.9227  0.5408
38032SOL     OW16102   5.083   4.318   2.496 -0.3791  0.1547  0.3436
38032SOL    HW116103   5.095   4.392   2.555 -2.4299  1.1340 -0.3857
38032SOL    HW216104   5.048   4.248   2.551 -0.6053  0.4845  0.6199
38033SOL     OW16105   3.436  10.179   1.144 -0.1634 -0.1561  0.2617
38033SOL    HW116106   3.506  10.139   1.093  0.6035  0.2002  1.0259
38033SOL    HW216107   3.399  10.245   1.086 -0.6834 -1.1543 -0.5841
38034SOL     OW16108   8.494   3.447   3.226 -0.2260 -0.3121 -0.9136
38034SOL    HW116109   8.572   3.416   3.180 -0.9117  0.4474 -2.6580
38034SOL    HW216110   8.465   3.372   3.278  0.4127 -1.3144 -1.9649
38035SOL     OW16111   1.801   7.963   3.654 -0.0493  0.0164 -0.0619
38035SOL    HW116112   1.792   7.869   3.644 -1.4350  0.2471 -1.3453
38035SOL    HW216113   1.831   7.994   3.568 -1.3370  0.9140 -0.2225
38036SOL     OW16114   8.115   2.463   8.016  0.3529  0.3537 -0.0813
38036SOL    HW116115   8.131   2.534   7.954 -0.2194 -0.0622 -0.7236
38036SOL    HW216116   8.087   2.506   8.096 -1.9790  0.8240 -1.0646
38037SOL     OW16117   8.988   3.050   0.940  0.1599  0.2144  0.2253
38037SOL    HW116118   9.041   3.034   1.017 -0.3382 -2.6050  0.0830
38037SOL    HW216119   8.899   3.064   0.974  0.4014  1.8021  0.2764
38038SOL     OW16120   9.668   2.644   8.697  0.3810 -0.1438  0.3966
38038SOL    HW116121   9.658   2.599   8.613  0.0603 -0.3304  0.5309
38038SOL    HW216122   9.730   2.590   8.746  1.5822  0.6526 -0.1875
38039SOL     OW16123   2.805  11.118   2.572  0.3436  0.4596 -1.0526
38039SOL    HW116124   2.769  11.205   2.555  1.3674  1.0029 -0.5586
38039SOL    HW216125   2.852  11.128   2.655 -0.7418 -0.9401 -0.2398
38040SOL     OW16126   0.884   6.593   7.242 -0.0378  0.1954  0.9622
38040SOL    HW116127   0.965   6.644   7.246 -0.2562  0.6588 -0.2486
38040SOL    HW216128   0.869   6.565   7.333  0.5727  1.5051  1.4901
38041SOL     OW16129   3.670   8.369  10.867 -0.0305 -0.4114  0.1435
38041SOL    HW116130   3.733   8.439  10.849  0.6603 -0.9222  0.5049
38041SOL    HW216131   3.614   8.404  10.936 -0.4287  0.2129 -0.4835
38042SOL     OW16132   8.274   4.692   5.951  0.3337  0.4419  0.6906
38042SOL    HW116133   8.206   4.682   5.884  1.2875 -1.1520 -0.0863
38042SOL    HW216134   8.229   4.673   6.033 -0.8242  2.3040  0.5469
38043SOL     OW16135  10.212   3.037   1.878 -0.1371 -0.2672  0.2821
38043SOL    HW116136  10.215   3.132   1.888 -0.0538 -0.0041 -1.8595
38043SOL    HW216137  10.153   3.007   1.947 -0.8936  1.4280  0.4021
38044SOL     OW16138   4.277  10.023   7.538 -0.1634  0.0758  0.2131
38044SOL    HW116139   4.209   9.957   7.533 -3.4356  3.1515  0.2812
38044SOL    HW216140   4.344   9.993   7.477 -2.7966 -1.8716 -1.9519
38045SOL     OW16141   2.977   2.139   6.679  0.3070  0.2705 -0.1219
38045SOL    HW116142   3.047   2.200   6.653  0.0814  0.5935  0.0181
38045SOL    HW216143   3.021   2.074   6.733  0.2291  1.4248  1.3970
38046SOL     OW16144  10.775   9.523   9.648  0.0098  0.7436  0.2291
38046SOL    HW116145  10.719   9.561   9.715 -0.9553 -0.3096  0.0559
38046SOL    HW216146  10.787   9.593   9.584 -1.9565  0.7191 -0.2301
38047SOL     OW16147   3.840   9.091   3.692  0.0855 -0.1522  0.4540
38047SOL    HW116148   3.794   9.076   3.774 -0.0042 -2.2034  0.0763
38047SOL    HW216149   3.925   9.126   3.719  0.1717 -1.0818  1.4454
38048SOL     OW16150   9.639   6.369  10.304 -0.0795  0.1732 -0.1599
38048SOL    HW116151   9.549   6.401  10.312 -0.1227  1.6006 -4.3353
38048SOL    HW216152   9.630   6.283  10.263  0.4230  0.6741 -1.3631
38049SOL     OW16153   1.247   1.273   8.958  0.2552  0.3020 -0.0921
38049SOL    HW116154   1.315   1.245   9.019  0.4700  3.2712  1.2253
38049SOL    HW216155   1.268   1.229   8.876  0.3297 -3.3789  1.6874
38050SOL     OW16156   6.259   5.705   2.631  0.1894  0.2778 -0.5240
38050SOL    HW116157   6.259   5.611   2.612  0.4198  0.7040 -2.9845
38050SOL    HW216158   6.186   5.717   2.692 -0.8532 -1.2954 -1.3841
38051SOL     OW16159   6.973   4.166   5.535 -0.7728 -0.1255  0.2186
38051SOL    HW116160   7.058   4.209   5.526 -0.8514  0.0210  0.1820
38051SOL    HW216161   6.935   4.167   5.448 -0.3691 -1.1143  0.0127
38052SOL     OW16162   6.358   2.328   5.336 -0.4117 -0.4607  0.6763
38052SOL    HW116163   6.392   2.303   5.422  0.8684  2.3584  1.0856
38052SOL    HW216164   6.434   2.325   5.278 -0.8939 -0.5734  0.0315
38053SOL     OW16165   4.328   1.025   2.756  0.3729 -0.3643  0.0589
38053SOL    HW116166   4.248   0.972   2.750 -0.5468  1.0557 -0.7312
38053SOL    HW216167   4.396   0.969   2.718 -0.8722 -0.4307 -2.2750
38054SOL     OW16168   6.539   9.502   1.926  0.2531 -0.8455  0.1357
38054SOL    HW116169   6.572   9.444   1.994  1.2857 -1.4377 -0.8447
38054SOL    HW216170   6.550   9.454   1.844 -2.4188 -0.7986 -0.3639
38055SOL     OW16171   2.077   5.628   3.976  0.4301  0.0527 -0.3308
38055SOL    HW116172   2.075   5.676   4.058 -1.0973 -0.1286 -0.2321
38055SOL    HW216173   2.143   5.674   3.923  2.0534 -0.3475  1.2592
38056SOL     OW16174   4.866   4.666   1.271  0.6141  0.7780 -0.0816
38056SOL    HW116175   4.790   4.669   1.329  0.4152  1.4124 -0.3620
38056SOL    HW216176   4.939   4.696   1.325  0.5611  0.6921  0.0363
38057SOL     OW16177   6.873  10.839  10.486  0.3722  0.1802  0.2014
38057SOL    HW116178   6.891  10.745  10.477  1.8639  0.5120 -0.5100
38057SOL    HW216179   6.781  10.848  10.460  1.1309 -0.6312 -3.3384
38058SOL     OW16180   7.659   1.686   1.008  0.4634  0.1287  0.1829
38058SOL    HW116181   7.722   1.635   0.956  1.1275  2.5659 -1.5776
38058SOL    HW216182   7.597   1.720   0.943 -0.3384  1.0161  1.3684
38059SOL     OW16183   5.950   4.901   2.868  0.4115  0.0888 -0.4245
38059SOL    HW116184   5.900   4.981   2.851  0.8341  0.1682 -1.3771
38059SOL    HW216185   5.930   4.879   2.959 -0.1593  0.9578 -0.3255
38060SOL     OW16186   0.927   6.627  10.799 -0.5048  0.6798 -0.0046
38060SOL    HW116187   0.875   6.580  10.734 -1.1062  1.2836  0.0279
38060SOL    HW216188   0.986   6.682  10.747 -0.5429  0.6886 -0.0387
38061SOL     OW16189   0.736   3.009   0.984 -0.2956  0.0478 -0.1028
38061SOL    HW116190   0.676   2.961   1.040 -2.7640  1.1121 -1.6887
38061SOL    HW216191   0.685   3.031   0.906  2.6905 -0.5864 -2.4364
38062SOL     OW16192   7.097  10.519   3.694  0.2639  0.0787  1.0513
38062SOL    HW116193   7.074  10.611   3.702  0.2219  0.1841 -0.0720
38062SOL    HW216194   7.036  10.485   3.628  2.4555  0.0903 -1.1280
38063SOL     OW16195   8.531   5.187   1.672  0.0420  0.0987 -0.2716
38063SOL    HW116196   8.560   5.186   1.581  0.6094  0.4340 -0.0937
38063SOL    HW216197   8.501   5.276   1.688  1.0833  0.3712  0.2241
38064SOL     OW16198   6.301   7.381   7.790 -0.3936 -0.1300  0.1596
38064SOL    HW116199   6.332   7.316   7.727  0.2878  1.0864 -0.7946
38064SOL    HW216200   6.315   7.339   7.875 -2.3429 -2.2485 -0.4514
38065SOL     OW16201   5.245   1.096   7.168 -0.2822 -0.3596 -0.5340
38065SOL    HW116202   5.154   1.091   7.197 -0.2130 -2.7640 -0.5034
38065SOL    HW216203   5.297   1.083   7.247  0.0970  0.5039 -0.6304
38066SOL     OW16204   4.660   3.905   2.034  0.1023  0.1108  0.5091
38066SOL    HW116205   4.675   3.993   1.999 -1.5645  0.5638  0.8659
38066SOL    HW216206   4.599   3.864   1.973 -1.3176  0.2153  1.7969
38067SOL     OW16207   3.620   5.174   3.417  0.5747 -0.0644  0.5319
38067SOL    HW116208   3.688   5.192   3.353 -0.7407  1.3605 -0.5034
38067SOL    HW216209   3.628   5.080   3.434  1.0280 -0.4640 -1.6357
38068SOL     OW16210   1.338   1.119   8.199  0.3446 -0.4665 -0.2832
38068SOL    HW116211   1.384   1.126   8.116 -0.1516 -1.9172 -0.7140
38068SOL    HW216212   1.402   1.079   8.259 -0.0005 -1.5788 -0.6216
38069SOL     OW16213   3.549   3.804   3.485  0.5337 -0.2754  0.2258
38069SOL    HW116214   3.467   3.802   3.435 -0.2314 -2.7439  1.4117
38069SOL    HW216215   3.528   3.855   3.563  0.7913  0.8978 -0.4542
38070SOL     OW16216   0.921   4.652   9.440  0.0021  0.2125  0.4658
38070SOL    HW116217   0.860   4.725   9.425 -1.0113 -0.4870  1.0505
38070SOL    HW216218   0.982   4.656   9.366 -0.7681  0.9196 -0.1524
38071SOL     OW16219   2.641   3.392   9.430 -0.5403 -0.3178 -0.0300
38071SOL    HW116220   2.637   3.476   9.384  1.9638 -0.0987 -0.0034
38071SOL    HW216221   2.638   3.326   9.360 -3.4180 -0.3446 -0.0060
38072SOL     OW16222   0.026   6.168   2.801 -0.5312 -0.3970 -0.0226
38072SOL    HW116223  -0.005   6.255   2.776 -2.4650 -0.6015  1.4019
38072SOL    HW216224  -0.044   6.109   2.773 -0.1326 -1.2545  0.7356
38073SOL     OW16225   9.232   7.292   2.590  0.2157  0.6293  0.0294
38073SOL    HW116226   9.265   7.358   2.529  0.9829 -0.2648 -0.5380
38073SOL    HW216227   9.310   7.246   2.620 -0.3183 -0.0672  0.3701
38074SOL     OW16228   3.908   9.882   7.225  0.5172  0.7031 -0.1600
38074SOL    HW116229   3.995   9.922   7.228  0.5193  0.6266  1.5049
38074SOL    HW216230   3.903   9.830   7.305 -1.2221  1.0388 -0.0225
38075SOL     OW16231   5.104   4.043   4.541 -0.1737  0.0516 -0.2902
38075SOL    HW116232   5.061   3.998   4.468 -0.8887 -0.1455  0.2525
38075SOL    HW216233   5.127   4.129   4.504  0.8272 -0.5625 -1.1970
38076SOL     OW16234   8.093   9.863   1.071  0.4524  0.2261 -0.3175
38076SOL    HW116235   8.039   9.795   1.031  1.3607 -1.5963  1.3644
38076SOL    HW216236   8.040   9.942   1.066 -0.6530 -0.5630 -2.3642
38077SOL     OW16237  10.353   0.004  11.139  0.3329  0.1213 -0.2710
38077SOL    HW116238  10.419   0.036  11.078 -1.1606  1.2550 -1.3874
38077SOL    HW216239  10.270   0.019  11.093 -0.7425 -0.5207  1.3952
38078SOL     OW16240   2.657   1.256   4.840  0.2410 -0.3567  0.2311
38078SOL    HW116241   2.667   1.235   4.747 -0.5299 -0.0928  0.0891
38078SOL    HW216242   2.666   1.351   4.844  0.7387 -0.4102  0.4947
38079SOL     OW16243   6.659   2.121   4.037  0.2920  0.3514 -0.2606
38079SOL    HW116244   6.670   2.089   3.948  2.6021  0.7308 -0.1744
38079SOL    HW216245   6.739   2.094   4.082 -0.3201  1.1479  1.4034
38080SOL     OW16246   9.962   6.721   2.067 -0.0809 -0.4383  0.1138
38080SOL    HW116247  10.022   6.772   2.121  2.3546 -1.2738 -1.6273
38080SOL    HW216248   9.960   6.634   2.107  1.5951 -1.0099 -0.9298
38081SOL     OW16249   1.663   3.741   2.386 -0.4561  0.0923 -0.3446
38081SOL    HW116250   1.754   3.769   2.371 -0.9900  1.7581 -0.6144
38081SOL    HW216251   1.614   3.781   2.315 -1.2929 -1.5906 -0.7675
38082SOL     OW16252   7.498   2.885   6.046  0.9591 -0.1227  0.1888
38082SOL    HW116253   7.534   2.851   6.128  0.5580 -0.7466  0.1137
38082SOL    HW216254   7.544   2.968   6.033  3.9396 -1.7726 -0.9457
38083SOL     OW16255   6.729   9.969   7.718 -0.6132 -0.8793 -0.2024
38083SOL    HW116256   6.800   9.929   7.669 -0.3915  0.0224 -0.6358
38083SOL    HW216257   6.770  10.041   7.766 -1.2218 -0.3519 -0.4549
38084SOL     OW16258  10.454   0.782   2.412 -0.2613  0.6446 -0.1716
38084SOL    HW116259  10.384   0.848   2.409 -1.0594  0.1167  2.9583
38084SOL    HW216260  10.408   0.699   2.424  0.8488  0.0966  0.4616
38085SOL     OW16261   5.310   3.731   5.944  0.4794  0.5401 -0.4600
38085SOL    HW116262   5.233   3.678   5.963 -1.7639  2.0549 -4.1209
38085SOL    HW216263   5.349   3.749   6.030 -1.4154 -2.8416  1.3007
38086SOL     OW16264   2.836   4.224   2.071 -0.2501 -0.8945 -0.5016
38086SOL    HW116265   2.916   4.231   2.019  0.6632 -0.9675  0.8283
38086SOL    HW216266   2.775   4.175   2.016  0.0269  0.5878 -2.1955
38087SOL     OW16267   7.527  10.732   5.619  0.1630  0.4458  0.5251
38087SOL    HW116268   7.604  10.697   5.666 -0.3280 -1.2923  0.0942
38087SOL    HW216269   7.455  10.722   5.681  0.1277  1.3890  0.6520
38088SOL     OW16270   7.590   6.748   7.083 -0.1028 -0.1523  0.1983
38088SOL    HW116271   7.679   6.783   7.085  0.1964 -0.8607 -0.3852
38088SOL    HW216272   7.562   6.748   7.175 -0.1980  1.7850  0.2112
38089SOL     OW16273  11.199   2.223  10.877 -0.5420  0.9380  0.3145
38089SOL    HW116274  11.260   2.287  10.841 -1.1291  0.8602 -0.8653
38089SOL    HW216275  11.124   2.275  10.906  0.2628  1.0995  2.2898
38090SOL     OW16276   4.838   4.296  11.185  0.2744  0.2716  0.5160
38090SOL    HW116277   4.796   4.305  11.100 -1.6316  1.8413  1.5178
38090SOL    HW216278   4.891   4.375  11.194  1.9248 -0.7417  0.1018
38091SOL     OW16279   7.367   9.549   9.266 -0.8690  0.3466 -0.6457
38091SOL    HW116280   7.286   9.600   9.267 -0.0562  1.6758 -0.7544
38091SOL    HW216281   7.415   9.580   9.343 -0.8632 -1.1399 -0.0116
38092SOL     OW16282  11.185   5.341   1.051  0.4222 -0.5170 -0.3209
38092SOL    HW116283  11.225   5.296   1.125  3.4162  0.3701 -1.2388
38092SOL    HW216284  11.226   5.302   0.974 -0.9552  0.0980 -1.4220
38093SOL     OW16285   9.624   0.582   1.638 -0.2868 -0.1883  0.5420
38093SOL    HW116286   9.604   0.670   1.608 -2.3762 -0.6531  0.4148
38093SOL    HW216287   9.685   0.547   1.574 -0.8585  0.5387 -0.4126
38094SOL     OW16288   6.973   6.127  10.015 -0.1061  0.3854  1.0067
38094SOL    HW116289   6.969   6.037   9.985  1.6546  1.2877 -2.4989
38094SOL    HW216290   7.067   6.148  10.015 -0.5762  3.1418 -1.8420
38095SOL     OW16291   8.142   7.745   1.754  0.2105 -0.1662 -0.1832
38095SOL    HW116292   8.193   7.726   1.675  1.4229 -1.8444  0.9394
38095SOL    HW216293   8.058   7.703   1.739 -0.0862  0.7338 -1.1422
38096SOL     OW16294   2.995   9.602   2.248  0.4695 -0.3839 -0.3651
38096SOL    HW116295   3.025   9.619   2.159 -1.9180 -0.9378 -1.3613
38096SOL    HW216296   2.935   9.528   2.239 -1.5413  0.9340  1.3026
38097SOL     OW16297   9.339  11.277   5.585  0.8299 -0.6513  0.1393
38097SOL    HW116298   9.417  11.234   5.620 -0.4027 -0.3595  3.5649
38097SOL    HW216299   9.355  11.370   5.597  0.3178 -0.5421  0.0121
38098SOL     OW16300   9.331   6.932   3.496  0.0454  0.0393 -0.5577
38098SOL    HW116301   9.322   6.874   3.572  1.6422  0.2685 -0.1411
38098SOL    HW216302   9.365   6.875   3.427  0.0994  0.1441 -0.6186
38099SOL     OW16303   5.543   2.849   3.601  0.1825  0.3559  0.6296
38099SOL    HW116304   5.616   2.889   3.554 -0.6261  0.3460 -0.6888
38099SOL    HW216305   5.545   2.757   3.575 -1.2656  0.6747 -0.7477
38100SOL     OW16306   8.518   3.810   7.373 -0.2872  0.7740  0.5906
38100SOL    HW116307   8.546   3.897   7.401  1.4841 -0.2714  2.3249
38100SOL    HW216308   8.449   3.787   7.435  0.3327  0.3488  1.1363
38101SOL     OW16309   5.006   3.590   2.595 -0.1990  0.0534  0.4400
38101SOL    HW116310   4.968   3.670   2.558  1.4270 -0.1022 -1.7199
38101SOL    HW216311   5.099   3.609   2.604  0.8740 -2.5250 -3.1899
38102SOL     OW16312   1.745  10.681   9.648 -0.3288 -0.2765 -0.3350
38102SOL    HW116313   1.741  10.745   9.720  1.0266  1.0236 -1.3414
38102SOL    HW216314   1.834  10.646   9.653 -0.9164 -1.7768 -0.0961
38103SOL     OW16315   2.520   8.709  10.825 -0.5403 -0.1016  0.0788
38103SOL    HW116316   2.593   8.731  10.883 -0.4518  1.8968 -0.7198
38103SOL    HW216317   2.561   8.669  10.748 -0.5543 -1.5369  0.7844
38104SOL     OW16318   9.364   6.677   4.577 -0.1166 -0.2576  0.2764
38104SOL    HW116319   9.456   6.696   4.595 -0.0542  0.2458 -0.5555
38104SOL    HW216320   9.362   6.584   4.557  0.6211  0.1768 -2.0969
38105SOL     OW16321   9.505   9.541   6.222  0.4097  0.4517  0.3167
38105SOL    HW116322   9.411   9.555   6.223  0.5922  1.8239  0.0961
38105SOL    HW216323   9.534   9.580   6.139  1.0997 -0.4722  0.1066
38106SOL     OW16324   7.127   2.277   6.229 -0.5782 -0.4679 -0.0785
38106SOL    HW116325   7.199   2.325   6.269  1.1382 -2.7831 -0.1983
38106SOL    HW216326   7.102   2.212   6.295 -1.4126 -0.8024 -0.7050
38107SOL     OW16327   5.968  10.959   7.525 -0.2480 -0.5178 -0.1268
38107SOL    HW116328   6.021  10.978   7.603  1.6568  1.7264 -1.8348
38107SOL    HW216329   6.027  10.915   7.465 -0.5522  1.0145 -1.6436
38108SOL     OW16330  11.182   2.076   4.858 -0.6063 -0.4923  0.1646
38108SOL    HW116331  11.208   2.063   4.767 -1.4864  0.3983 -0.2292
38108SOL    HW216332  11.118   2.147   4.855 -0.8983 -0.6760  1.4385
38109SOL     OW16333   3.031   7.670  10.794  0.7219 -0.6381  0.6310
38109SOL    HW116334   3.066   7.589  10.757  0.1566 -1.8689  2.6308
38109SOL    HW216335   2.984   7.642  10.873  0.2007  1.6091  1.1860
38110SOL     OW16336   9.547   4.573   5.386 -0.6467  0.0175  0.2935
38110SOL    HW116337   9.556   4.665   5.360  0.7286 -0.2462 -0.2474
38110SOL    HW216338   9.491   4.535   5.318  0.0510  0.1266 -0.3603
38111SOL     OW16339   9.252   7.187   0.524 -0.1321  0.2652 -0.1496
38111SOL    HW116340   9.309   7.261   0.501 -1.5061  1.7785  1.0157
38111SOL    HW216341   9.292   7.150   0.603  1.0095 -0.7936 -1.1967
38112SOL     OW16342   1.536   1.836   9.199 -1.2351 -0.0780 -0.5723
38112SOL    HW116343   1.608   1.773   9.202 -0.8776  0.3620  0.1114
38112SOL    HW216344   1.521   1.860   9.290 -2.7744 -0.7471 -0.6104
38113SOL     OW16345   7.723   6.469   5.920  0.6847  0.3244 -0.7591
38113SOL    HW116346   7.682   6.424   5.995  1.6272  1.5018  0.5200
38113SOL    HW216347   7.817   6.456   5.933  0.8743  0.8413 -1.5574
38114SOL     OW16348   2.729   8.519   4.314 -0.0095 -0.6093  0.5161
38114SOL    HW116349   2.738   8.486   4.404 -0.1094 -0.9544  0.3992
38114SOL    HW216350   2.654   8.579   4.319  0.7742  0.3671  0.9441
38115SOL     OW16351   1.318   6.136   7.890  0.3342 -0.3578 -0.7194
38115SOL    HW116352   1.408   6.145   7.861  1.1881  0.4312  1.8467
38115SOL    HW216353   1.294   6.046   7.868  0.8791  0.1040 -3.4982
38116SOL     OW16354   8.433   6.383   7.509  0.5448 -0.0906  0.0187
38116SOL    HW116355   8.489   6.456   7.534 -0.5084  0.5667  0.5509
38116SOL    HW216356   8.394   6.409   7.426  0.3033 -0.1133  0.1211
38117SOL     OW16357   5.482   9.447   0.286  0.1966  1.2532 -0.7143
38117SOL    HW116358   5.538   9.427   0.212  1.2960  1.5612  0.0014
38117SOL    HW216359   5.437   9.528   0.261  0.3041  1.1727 -1.1728
38118SOL     OW16360   9.017   6.833   6.168 -0.4769  0.7631  0.1100
38118SOL    HW116361   8.927   6.864   6.177 -0.2308  0.9840  2.2502
38118SOL    HW216362   9.070   6.900   6.211  0.8381  1.0403 -1.8164
38119SOL     OW16363  10.497   4.952   7.084 -0.0717  1.1059  0.0156
38119SOL    HW116364  10.456   5.013   7.146 -1.4722 -1.7251  2.1230
38119SOL    HW216365  10.424   4.905   7.044  0.9317 -0.6143  0.0738
38120SOL     OW16366   5.588   3.463   5.376 -0.1922 -0.1640 -0.1805
38120SOL    HW116367   5.655   3.531   5.369  0.7370 -0.9654  0.6990
38120SOL    HW216368   5.528   3.495   5.443 -0.7524  0.5758 -1.0016
38121SOL     OW16369   3.544   9.898   2.267 -0.1803  0.0775 -0.0942
38121SOL    HW116370   3.452   9.924   2.266 -0.8122 -1.9954  0.0923
38121SOL    HW216371   3.543   9.805   2.290  1.8526 -0.4673 -1.8553
38122SOL     OW16372   6.942   1.964   8.328  0.2952  0.1451  0.0237
38122SOL    HW116373   6.878   1.946   8.397 -0.3126  0.4249 -0.4556
38122SOL    HW216374   6.911   2.045   8.287  1.2089  0.5226  0.0686
38123SOL     OW16375   4.702   9.872   1.689  0.3502 -0.1215 -0.0768
38123SOL    HW116376   4.713   9.942   1.754 -0.4934  1.7466 -1.8487
38123SOL    HW216377   4.674   9.917   1.609  0.1913 -2.4584 -1.4304
38124SOL     OW16378   1.799   2.641   8.530 -0.3456  0.0007  0.5709
38124SOL    HW116379   1.784   2.706   8.460 -0.5878 -0.2237  0.4127
38124SOL    HW216380   1.870   2.587   8.497 -2.0986 -1.6896 -0.6449
38125SOL     OW16381   0.660   7.452   0.205 -0.4285  0.3329  0.3160
38125SOL    HW116382   0.685   7.538   0.172 -1.6773  0.5421 -0.1571
38125SOL    HW216383   0.607   7.471   0.283  1.9298 -0.1359  2.1377
38126SOL     OW16384   9.187   2.371   5.201 -0.7367 -0.2528 -0.6101
38126SOL    HW116385   9.158   2.290   5.244  0.9888 -0.6200 -0.0652
38126SOL    HW216386   9.124   2.383   5.130 -1.8786 -1.2776  0.1758
38127SOL     OW16387   8.494   8.590   5.753 -0.6390  0.5405 -0.0145
38127SOL    HW116388   8.538   8.668   5.720  0.3271 -0.3132 -0.8238
38127SOL    HW216389   8.552   8.557   5.822 -1.3062  0.8095  0.6964
38128SOL     OW16390   0.899   7.563  10.976  0.4240  0.0486  0.0400
38128SOL    HW116391   0.860   7.479  11.002 -0.5152  0.6669  0.7125
38128SOL    HW216392   0.928   7.549  10.886  1.2451 -1.3133  0.4909
38129SOL     OW16393   2.369   9.929   0.704 -0.1932  0.6717  0.1300
38129SOL    HW116394   2.441   9.916   0.643  0.4840  2.7380  0.3980
38129SOL    HW216395   2.291   9.904   0.655  0.6158 -0.9140 -0.4137
38130SOL     OW16396   0.565   8.269   1.957  0.7260 -0.1410  0.4854
38130SOL    HW116397   0.472   8.244   1.963  1.1125 -1.5727  0.9799
38130SOL    HW216398   0.586   8.258   1.865  0.3164  0.5211  0.3104
38131SOL     OW16399   4.724  10.032   0.020  0.3875  0.1719 -0.4902
38131SOL    HW116400   4.725   9.937   0.031 -2.5163  0.1888  0.6548
38131SOL    HW216401   4.815  10.058   0.034  1.4065 -2.4737 -1.5770
38132SOL     OW16402  10.333   9.174  11.246  0.0069 -0.0975 -0.2186
38132SOL    HW116403  10.304   9.122  11.171 -1.1242  1.5205 -0.9574
38132SOL    HW216404  10.412   9.130  11.277 -0.8672 -2.2020 -0.8212
38133SOL     OW16405   4.058   1.061   9.996 -0.0960  0.4867 -0.9529
38133SOL    HW116406   4.116   1.128   9.958  0.2505  1.2508  0.7933
38133SOL    HW216407   4.088   1.054  10.087 -0.6614 -1.4924 -0.8858
38134SOL     OW16408   9.534  10.558   5.448 -0.3963 -1.1966  0.4646
38134SOL    HW116409   9.497  10.643   5.470  0.8302 -1.3064  3.4570
38134SOL    HW216410   9.462  10.510   5.408 -1.0646  1.2367 -1.4599
38135SOL     OW16411   9.494   1.277   0.229 -0.3420 -0.6355  0.0649
38135SOL    HW116412   9.480   1.289   0.323  1.3925 -0.0225  0.2825
38135SOL    HW216413   9.490   1.183   0.216 -0.9680 -0.7021  0.6747
38136SOL     OW16414   6.840  10.708  10.063 -0.3914  0.2171 -0.6647
38136SOL    HW116415   6.854  10.640   9.997 -0.9090  0.8856 -1.4758
38136SOL    HW216416   6.926  10.746  10.078 -0.4339  0.7949 -1.7796
38137SOL     OW16417   6.427   5.181   3.286 -0.7222 -0.0894  1.1482
38137SOL    HW116418   6.522   5.186   3.284 -0.5982 -1.9300 -0.5559
38137SOL    HW216419   6.406   5.140   3.370 -0.0298  0.2315  1.4839
38138SOL     OW16420   9.726   2.592   8.371  0.0192 -0.6508  0.0215
38138SOL    HW116421   9.671   2.624   8.300 -1.4902  0.8631  1.7474
38138SOL    HW216422   9.743   2.500   8.350 -0.8365 -0.3911 -1.9800
38139SOL     OW16423   2.695   8.023   2.344  0.3217 -0.2080  0.1763
38139SOL    HW116424   2.647   8.090   2.295  2.4967  2.8508  1.8939
38139SOL    HW216425   2.712   7.954   2.279 -3.0216  0.2482 -1.3917
38140SOL     OW16426   3.834   1.566   0.773 -0.3240 -0.2334 -0.8859
38140SOL    HW116427   3.755   1.521   0.743 -0.2783 -0.4122 -0.7347
38140SOL    HW216428   3.806   1.657   0.785 -0.2666 -0.0771 -1.7988
38141SOL     OW16429   1.457   7.044   6.790  0.6863  0.1444 -0.2070
38141SOL    HW116430   1.445   6.974   6.855 -3.5975  0.8006  0.0169
38141SOL    HW216431   1.413   7.012   6.712  0.5723  1.7213 -0.8185
38142SOL     OW16432   5.041   9.200   7.612 -0.2860  0.1621 -0.0079
38142SOL    HW116433   4.970   9.212   7.675 -0.7351 -0.0564 -0.4618
38142SOL    HW216434   5.113   9.251   7.647 -0.7185  0.5137  0.3873
38143SOL     OW16435   5.639   7.765   9.117 -0.3474  0.8351 -0.7542
38143SOL    HW116436   5.629   7.670   9.123 -1.0906  0.7324 -2.6967
38143SOL    HW216437   5.713   7.777   9.058  0.5472  1.4917  0.4817
38144SOL     OW16438   3.449   2.923  11.031  0.6577  0.0635  0.1415
38144SOL    HW116439   3.489   2.847  10.990  0.6248 -0.4221  0.9953
38144SOL    HW216440   3.519   2.989  11.032  0.4146  0.4011 -1.4548
38145SOL     OW16441   6.732   8.460   7.275  0.0646  0.0656  0.5896
38145SOL    HW116442   6.802   8.434   7.335  1.0634 -1.1793 -1.0427
38145SOL    HW216443   6.741   8.402   7.200 -3.1448 -0.5925  0.5606
38146SOL     OW16444   9.833   7.628   5.682 -0.4123 -0.0694 -0.2069
38146SOL    HW116445   9.795   7.633   5.770  0.6759  0.2062  0.2619
38146SOL    HW216446   9.772   7.574   5.632 -0.5583 -1.0196  0.9745
38147SOL     OW16447   0.382   1.341   3.283 -0.4128  0.5789 -0.3411
38147SOL    HW116448   0.321   1.413   3.297 -0.0004  0.9928 -0.6501
38147SOL    HW216449   0.331   1.262   3.302 -1.2296  0.8791 -1.2330
38148SOL     OW16450   1.179   2.968   1.040  0.3006  0.2131  0.0212
38148SOL    HW116451   1.268   2.962   1.007 -0.0529 -0.2424 -0.8769
38148SOL    HW216452   1.189   2.997   1.131  1.4870 -1.9376  0.6324
38149SOL     OW16453   9.033   1.302   4.362  0.2381  0.1864 -0.2202
38149SOL    HW116454   9.085   1.272   4.436  0.8352  0.8313 -0.3625
38149SOL    HW216455   8.958   1.243   4.359 -0.3189  0.7397  1.4937
38150SOL     OW16456   2.529   0.536  10.050  0.1707  0.0496 -0.0106
38150SOL    HW116457   2.561   0.579   9.970 -2.3209  3.6098  0.6894
38150SOL    HW216458   2.547   0.598  10.120  0.7203 -2.2438  2.0118
38151SOL     OW16459   3.497   8.411   4.131 -0.3960  0.2947  0.7060
38151SOL    HW116460   3.540   8.325   4.141 -0.4312 -0.3869 -3.3459
38151SOL    HW216461   3.418   8.393   4.080 -0.7055  2.6742  0.2270
38152SOL     OW16462   3.663   1.771   0.680  0.1656  0.3617 -0.0579
38152SOL    HW116463   3.737   1.772   0.619 -0.7864 -0.2387 -1.2761
38152SOL    HW216464   3.586   1.760   0.624 -0.9858  2.1783  1.0600
38153SOL     OW16465   4.307   7.611   0.882  0.0526  0.1479  0.4907
38153SOL    HW116466   4.307   7.555   0.959 -0.1104 -0.1931  0.2473
38153SOL    HW216467   4.341   7.555   0.812 -1.5826 -0.1521 -0.1100
38154SOL     OW16468   5.181   4.057   7.761  0.2476 -0.2088 -0.9004
38154SOL    HW116469   5.118   4.073   7.831  0.7253  2.6561 -1.0295
38154SOL    HW216470   5.126   4.044   7.683 -0.2545  1.6134 -0.8925
38155SOL     OW16471   5.658   3.955   6.577  0.0826  0.4616 -0.2195
38155SOL    HW116472   5.570   3.938   6.545  0.5408 -0.9893 -0.8110
38155SOL    HW216473   5.715   3.935   6.502  0.9161  1.4954  0.1032
38156SOL     OW16474   4.639   4.822   3.542  0.5697 -0.7023  0.0499
38156SOL    HW116475   4.565   4.765   3.565  0.3711 -0.4168  0.1302
38156SOL    HW216476   4.651   4.878   3.620  1.1966 -1.0850  0.2335
38157SOL     OW16477   8.128   1.767   4.089 -0.2175  0.0951 -0.3659
38157SOL    HW116478   8.058   1.707   4.112 -0.8540 -0.0266 -2.4128
38157SOL    HW216479   8.169   1.729   4.011  1.2515  0.8535 -0.0125
38158SOL     OW16480   3.565   6.938   9.887  0.3610  0.3371  0.7347
38158SOL    HW116481   3.579   7.018   9.836  2.3252 -0.2359  0.2548
38158SOL    HW216482   3.622   6.948   9.963 -0.0841 -0.2113  1.1505
38159SOL     OW16483   7.358  11.115   1.571 -0.1034  0.0851  0.0281
38159SOL    HW116484   7.435  11.170   1.555 -0.1746 -0.4282 -2.6090
38159SOL    HW216485   7.284  11.167   1.538 -0.2276 -1.3002 -2.0411
38160SOL     OW16486   6.438   2.904   2.264  0.0970  0.6318  0.3402
38160SOL    HW116487   6.414   2.852   2.186  0.4737  0.2587  0.4672
38160SOL    HW216488   6.378   2.873   2.332 -0.6196  1.3667  0.0592
38161SOL     OW16489   7.040   0.196   6.631  0.4384  0.4534  0.5650
38161SOL    HW116490   7.113   0.253   6.654  3.0383 -1.2642 -2.5227
38161SOL    HW216491   7.060   0.112   6.673 -0.6612  0.4210  1.0415
38162SOL     OW16492   7.254   8.406  10.646 -0.5342  0.5206  0.4709
38162SOL    HW116493   7.295   8.320  10.636 -2.1759 -0.8544  3.9799
38162SOL    HW216494   7.170   8.398  10.600  0.3980  1.3002 -1.5195
38163SOL     OW16495   7.694  10.039   3.470  0.2914  0.0537  0.6278
38163SOL    HW116496   7.598  10.044   3.476  0.3313  2.2986  0.2191
38163SOL    HW216497   7.716   9.955   3.509 -1.7885 -0.1138  1.5604
38164SOL     OW16498   7.094  11.130   3.998 -0.4976 -0.5726 -0.2537
38164SOL    HW116499   7.098  11.122   4.093  2.5221 -1.4955 -0.3594
38164SOL    HW216500   7.151  11.061   3.965  1.0806  1.6512 -2.6010
38165SOL     OW16501   0.557   6.838   0.208  0.1245  0.0390 -0.0193
38165SOL    HW116502   0.646   6.806   0.195 -0.4033 -2.3041  1.5135
38165SOL    HW216503   0.568   6.931   0.229  1.9290  0.5215 -2.6698
38166SOL     OW16504   3.577   5.456   3.462 -0.5034 -0.0540 -0.1108
38166SOL    HW116505   3.588   5.361   3.462  0.3333  0.0095 -1.6928
38166SOL    HW216506   3.576   5.480   3.369  3.2638  1.8724  0.1596
38167SOL     OW16507  10.303  10.624   1.611 -0.5539  0.6300 -0.4772
38167SOL    HW116508  10.208  10.625   1.610 -0.7067 -1.5746  1.7700
38167SOL    HW216509  10.328  10.559   1.545 -0.6485  0.4726 -0.3573
38168SOL     OW16510   2.715   8.909   8.163 -0.7946 -0.3282  0.4040
38168SOL    HW116511   2.757   8.918   8.249 -0.4055  1.9223  0.0542
38168SOL    HW216512   2.786   8.919   8.100 -1.1378 -1.5608 -0.2108
38169SOL     OW16513   4.636  10.492   9.394 -0.2358  0.0492 -0.2356
38169SOL    HW116514   4.715  10.537   9.365  0.8447  0.4298  2.9174
38169SOL    HW216515   4.662  10.401   9.408 -0.0418  0.3339  1.5673
38170SOL     OW16516  10.656   8.133   8.057 -0.7271 -0.0409 -0.1132
38170SOL    HW116517  10.692   8.148   8.144  0.0407 -0.2631 -0.3912
38170SOL    HW216518  10.602   8.054   8.067  1.6562 -1.8327 -0.4538
38171SOL     OW16519   6.653   8.956   0.118  0.3474 -0.5185  0.5467
38171SOL    HW116520   6.564   8.921   0.128  0.6953 -1.6315 -0.0123
38171SOL    HW216521   6.671   9.000   0.201 -0.5051 -0.8159  0.8988
38172SOL     OW16522   9.995   8.904   1.538 -0.7147  0.2870 -0.1572
38172SOL    HW116523  10.049   8.860   1.604  0.9772  0.5243 -1.3221
38172SOL    HW216524   9.946   8.834   1.496 -2.0881  0.1647  1.5202
38173SOL     OW16525   0.880   8.892   1.801  0.7695 -0.1555 -1.0162
38173SOL    HW116526   0.939   8.967   1.809 -1.8806  1.8626  1.6952
38173SOL    HW216527   0.796   8.930   1.774 -1.2425 -1.6902  2.4346
38174SOL     OW16528   2.386   4.513  11.208  0.0352  0.2108  0.1200
38174SOL    HW116529   2.381   4.442  11.272 -0.4185  1.7950  1.9327
38174SOL    HW216530   2.296   4.521  11.174 -0.1053  0.4836  0.5563
38175SOL     OW16531  11.134  11.035   5.532  0.8090 -0.3263  0.1199
38175SOL    HW116532  11.116  11.125   5.502  0.6956 -0.6481 -0.8025
38175SOL    HW216533  11.055  11.010   5.581  1.1256  0.3161  0.9895
38176SOL     OW16534   1.712   8.974   8.629  0.1777  0.1565  0.3436
38176SOL    HW116535   1.636   9.019   8.666  0.5580  0.0777  1.2474
38176SOL    HW216536   1.771   9.045   8.602  0.7332  0.2347  1.6753
38177SOL     OW16537   0.090   3.008   7.364  0.1429  0.4366  0.0078
38177SOL    HW116538   0.069   2.955   7.441  2.1010  0.5188  0.6439
38177SOL    HW216539   0.142   2.950   7.308  0.6179  1.0721 -0.2220
38178SOL     OW16540   0.037   5.971   7.985  0.6213  0.0796 -0.3583
38178SOL    HW116541  -0.054   5.941   7.974  0.1913  0.7241  1.1332
38178SOL    HW216542   0.031   6.066   7.982  1.0626  0.1604  0.8993
38179SOL     OW16543   1.189  10.591   3.196  0.3901 -0.3230  0.6211
38179SOL    HW116544   1.249  10.601   3.122 -0.9699 -2.2322 -0.8280
38179SOL    HW216545   1.246  10.579   3.272  1.8183  0.9855 -0.1938
38180SOL     OW16546   9.267   3.705   6.394  0.2827 -0.1828  0.6220
38180SOL    HW116547   9.221   3.789   6.402 -1.0344 -0.9329  1.3489
38180SOL    HW216548   9.231   3.651   6.465  1.4067 -1.2333  0.4329
38181SOL     OW16549  11.029   5.068  10.877  1.0035 -0.2067 -0.7162
38181SOL    HW116550  11.035   5.158  10.910 -0.6562 -0.0164 -0.8709
38181SOL    HW216551  11.115   5.052  10.837  1.5709  1.0506 -0.0704
38182SOL     OW16552  10.504   3.100   2.076 -0.5135  0.3860 -0.5886
38182SOL    HW116553  10.414   3.111   2.045 -0.4947  1.2685 -0.3544
38182SOL    HW216554  10.541   3.035   2.017 -0.9361  0.9360 -1.4833
38183SOL     OW16555   5.427   2.563   2.745 -0.3277 -0.0656  0.7936
38183SOL    HW116556   5.509   2.555   2.695 -1.0685 -2.7537 -0.1613
38183SOL    HW216557   5.449   2.531   2.832 -0.2984 -0.6850  0.5682
38184SOL     OW16558   5.431   9.889   0.876  0.2652  0.0490  0.2982
38184SOL    HW116559   5.521   9.918   0.893 -0.5776  1.3632  2.8978
38184SOL    HW216560   5.433   9.795   0.895  1.2547 -0.1449 -0.6108
38185SOL     OW16561   6.142   0.421   8.994 -0.1458  0.1529  0.4649
38185SOL    HW116562   6.120   0.375   8.913  1.1631 -0.0990  0.2186
38185SOL    HW216563   6.083   0.385   9.059 -2.2533  1.4154 -0.6516
38186SOL     OW16564   0.773   7.731   6.784 -0.3507 -0.3369 -0.7628
38186SOL    HW116565   0.780   7.637   6.801 -2.1311 -0.5187 -0.8080
38186SOL    HW216566   0.707   7.737   6.714  0.3413  0.9076 -1.3327
38187SOL     OW16567   9.644   1.772   8.630  0.2583  0.0506  0.0379
38187SOL    HW116568   9.676   1.862   8.617  2.1158 -0.1513  2.4233
38187SOL    HW216569   9.607   1.772   8.718 -1.0528 -1.2314 -0.4634
38188SOL     OW16570   7.500  11.088   2.704  0.5821 -0.0114  0.2623
38188SOL    HW116571   7.542  11.149   2.765  1.7551  0.8905 -1.3744
38188SOL    HW216572   7.409  11.117   2.699  0.6257  0.2906  1.0731
38189SOL     OW16573   1.412   5.576   3.531  0.3587  0.2663 -0.3684
38189SOL    HW116574   1.474   5.649   3.524  1.4437 -0.4363  1.3221
38189SOL    HW216575   1.457   5.503   3.488  0.5094 -0.1282  0.4545
38190SOL     OW16576  10.079   3.632  10.608  0.0630  0.5627  0.0812
38190SOL    HW116577  10.039   3.655  10.524 -0.6530  0.9679  0.5239
38190SOL    HW216578  10.173   3.623  10.589 -0.0072  1.2804 -0.6315
38191SOL     OW16579   9.174   4.270   3.153 -0.5810  0.1658 -0.0154
38191SOL    HW116580   9.209   4.230   3.074 -1.4187  0.8445 -0.7496
38191SOL    HW216581   9.248   4.273   3.214 -0.0880 -0.9406 -0.5386
38192SOL     OW16582   5.193   2.553   4.447 -0.0876  0.1587  0.4903
38192SOL    HW116583   5.248   2.623   4.412  1.4777 -0.2640  1.9996
38192SOL    HW216584   5.157   2.589   4.528  0.1381 -0.5121  0.8946
38193SOL     OW16585   6.487   9.285   2.931 -0.1172  0.5521 -0.2843
38193SOL    HW116586   6.528   9.359   2.975 -1.7466  1.4652 -0.2256
38193SOL    HW216587   6.421   9.253   2.993 -0.3737 -0.0623 -0.8523
38194SOL     OW16588   2.782   0.456   6.437  0.0581  0.0087  0.0946
38194SOL    HW116589   2.732   0.393   6.384 -0.2745 -0.3171  0.7858
38194SOL    HW216590   2.735   0.460   6.520  2.9842 -2.9486  2.1519
38195SOL     OW16591   9.930   1.631   4.659 -0.4230 -0.5183 -0.1547
38195SOL    HW116592   9.955   1.639   4.567  0.3803 -0.1043  0.0921
38195SOL    HW216593   9.977   1.702   4.703  0.1466 -1.4537  0.7719
38196SOL     OW16594   5.570   3.616   6.175 -0.2852 -0.0543 -0.3175
38196SOL    HW116595   5.644   3.636   6.233 -0.0239  1.1007 -1.0196
38196SOL    HW216596   5.493   3.629   6.229 -0.0372  0.8068 -0.1482
38197SOL     OW16597   6.566   6.726   1.846 -1.1265 -0.1661 -0.1977
38197SOL    HW116598   6.517   6.789   1.793 -0.9894  0.0115 -0.1175
38197SOL    HW216599   6.501   6.686   1.903 -1.1628  0.1313 -0.0309
38198SOL     OW16600   9.653   2.411  10.236  0.5725 -0.0069  0.0637
38198SOL    HW116601   9.616   2.345  10.179 -1.0757  1.2500 -0.4007
38198SOL    HW216602   9.600   2.489  10.220  1.3380  0.9403  1.8511
38199SOL     OW16603   6.257   5.057   2.528  0.1206  0.3658  0.3924
38199SOL    HW116604   6.310   5.023   2.456 -2.2226  0.3901 -1.4759
38199SOL    HW216605   6.204   5.126   2.488 -2.4519 -0.7170  1.6837
38200SOL     OW16606   5.147   9.332   3.548  0.5621  0.8743  0.7378
38200SOL    HW116607   5.158   9.286   3.465  0.7437 -0.0027  1.2288
38200SOL    HW216608   5.054   9.352   3.553  0.1986 -0.7716  1.1679
38201SOL     OW16609   9.984   3.749   9.056  0.0343  0.2131  0.3759
38201SOL    HW116610  10.050   3.774   8.990 -1.4451  0.1004 -1.2070
38201SOL    HW216611   9.980   3.654   9.051  1.1270  0.0570  1.8917
38202SOL     OW16612   9.425   7.466   2.808 -0.9503 -0.0125  0.1273
38202SOL    HW116613   9.399   7.506   2.725 -1.6313  0.5120  0.5882
38202SOL    HW216614   9.461   7.538   2.860 -1.9210 -0.0257  0.8515
38203SOL     OW16615   9.223   6.011   4.464 -0.1346  0.0031  0.6432
38203SOL    HW116616   9.265   6.022   4.549 -0.0172  2.8196  0.3284
38203SOL    HW216617   9.290   5.969   4.410  0.4518 -0.1329  1.4571
38204SOL     OW16618   3.668   5.282   9.489  0.7932 -1.1896  0.2279
38204SOL    HW116619   3.745   5.296   9.544  0.7861 -2.2858  0.5612
38204SOL    HW216620   3.595   5.281   9.551  0.7579 -2.1982  0.1896
38205SOL     OW16621  10.681   7.017   0.257  0.2073  0.1494 -0.1661
38205SOL    HW116622  10.679   7.113   0.259  1.9499  0.2135  0.0857
38205SOL    HW216623  10.645   6.994   0.171  0.3643  1.0455 -0.4825
38206SOL     OW16624   7.781   3.401   4.525  0.5081  0.1011 -0.6575
38206SOL    HW116625   7.806   3.310   4.511 -0.5362 -0.0322 -1.8554
38206SOL    HW216626   7.702   3.397   4.579  3.0229  0.5338  3.4070
38207SOL     OW16627   4.075   0.111   4.543 -0.7159  0.4598  0.6215
38207SOL    HW116628   4.117   0.082   4.462 -0.9047 -0.3142  0.7894
38207SOL    HW216629   3.987   0.138   4.517 -0.5517  0.8454  0.4674
38208SOL     OW16630  10.851   8.541   0.796  0.0356 -0.7443  0.2681
38208SOL    HW116631  10.805   8.460   0.817 -1.5212 -0.0040 -0.1229
38208SOL    HW216632  10.801   8.609   0.840  0.1251  0.2078 -1.0369
38209SOL     OW16633   9.409   9.733   0.297 -0.5900 -0.4611  0.1509
38209SOL    HW116634   9.444   9.817   0.269  0.0195 -0.1847  1.6472
38209SOL    HW216635   9.466   9.668   0.256 -0.1125 -0.0862  0.2143
38210SOL     OW16636   1.733   6.641   8.221  0.1469  0.4927  0.1126
38210SOL    HW116637   1.661   6.619   8.281  0.0671 -2.2425 -0.8669
38210SOL    HW216638   1.702   6.719   8.174 -1.7264  0.0095  0.4595
38211SOL     OW16639  11.076   1.746  10.848 -0.1775  0.6896  0.0488
38211SOL    HW116640  11.131   1.689  10.794 -0.0245  1.8923 -1.1153
38211SOL    HW216641  11.098   1.722  10.938 -0.5183 -1.4329 -0.4044
38212SOL     OW16642   1.769   8.747   4.069  0.3584 -0.5052  0.5386
38212SOL    HW116643   1.756   8.817   4.133 -2.5976  0.1687 -0.6576
38212SOL    HW216644   1.694   8.688   4.080  1.0001 -1.6422 -0.7416
38213SOL     OW16645   1.765   9.760   0.756  0.2797 -0.2616 -0.7430
38213SOL    HW116646   1.783   9.695   0.824  0.3739 -0.1383 -0.6497
38213SOL    HW216647   1.752   9.709   0.677  0.1430 -0.4078 -0.6267
38214SOL     OW16648   1.689   5.220   0.748 -0.6181  0.4759  0.7391
38214SOL    HW116649   1.695   5.310   0.780  2.0583  0.0192  1.7880
38214SOL    HW216650   1.724   5.224   0.659  1.2346  0.2540  1.4163
38215SOL     OW16651   3.264   3.500   3.008  0.2828  1.2781  0.7088
38215SOL    HW116652   3.260   3.407   2.982  1.2447  1.3342  0.3267
38215SOL    HW216653   3.336   3.536   2.955 -0.3785  2.3511  0.5240
38216SOL     OW16654   9.696   9.285   7.475  0.7204 -0.1429  0.3298
38216SOL    HW116655   9.638   9.280   7.551  0.1403 -0.3070 -0.1213
38216SOL    HW216656   9.766   9.221   7.494 -1.0433 -2.5229 -0.6264
38217SOL     OW16657   9.298   3.824   9.764  0.3863 -0.5805  0.6625
38217SOL    HW116658   9.337   3.911   9.773 -0.8510 -0.2030  2.9115
38217SOL    HW216659   9.369   3.771   9.727  1.2287  1.2890 -0.6057
38218SOL     OW16660  10.218   2.746   2.874 -0.6903  0.1640  0.6206
38218SOL    HW116661  10.302   2.775   2.840 -0.3717 -0.7448  0.6117
38218SOL    HW216662  10.239   2.675   2.935 -1.4809 -0.4602  0.1927
38219SOL     OW16663   1.569   1.828   4.363  0.3843  0.1061  0.1580
38219SOL    HW116664   1.532   1.777   4.435 -0.3104  1.5822  0.8860
38219SOL    HW216665   1.581   1.765   4.292 -1.9787 -0.7823  0.4591
38220SOL     OW16666   0.702   2.475   3.074 -0.5020 -0.4023  0.0117
38220SOL    HW116667   0.628   2.477   3.135  0.0947 -1.8050  0.8331
38220SOL    HW216668   0.670   2.423   3.000 -1.5468  2.0789 -1.3894
38221SOL     OW16669   9.521   1.904   3.400  0.2213 -0.0598 -0.5099
38221SOL    HW116670   9.437   1.867   3.427  0.3156 -0.0598 -0.2062
38221SOL    HW216671   9.586   1.840   3.429  0.5258  1.0919  1.5872
38222SOL     OW16672  10.200   3.704   4.952 -0.1084 -0.2235 -0.3699
38222SOL    HW116673  10.234   3.792   4.966 -2.4114  0.2786  3.2563
38222SOL    HW216674  10.107   3.716   4.934 -0.9220 -1.8250  2.1689
38223SOL     OW16675   2.638  10.711   8.497  0.1697 -0.5275 -0.1950
38223SOL    HW116676   2.595  10.781   8.545 -1.7558 -1.3803 -0.5716
38223SOL    HW216677   2.569  10.645   8.484  2.1643 -3.0449  1.1663
38224SOL     OW16678   9.591  10.635   0.357 -0.0028 -0.0958  0.2511
38224SOL    HW116679   9.600  10.710   0.415  2.4408 -0.7403  0.8439
38224SOL    HW216680   9.595  10.672   0.269 -0.4634  0.5946  0.5151
38225SOL     OW16681   8.500   1.427   5.938 -0.4317  0.1913  0.1140
38225SOL    HW116682   8.509   1.467   5.851 -0.9609  0.9055  0.3776
38225SOL    HW216683   8.574   1.461   5.988  0.2778 -0.7831 -0.2608
38226SOL     OW16684   8.759   2.467   2.367  0.8953 -0.4040  0.3467
38226SOL    HW116685   8.772   2.531   2.298  0.4437 -0.2686  0.3824
38226SOL    HW216686   8.847   2.440   2.393  1.0876  0.3466  0.4702
38227SOL     OW16687   7.358   5.915   2.753 -0.4112 -0.2362  0.2787
38227SOL    HW116688   7.431   5.855   2.769  0.7624  0.4134 -2.1359
38227SOL    HW216689   7.295   5.865   2.702  0.1979  0.2933 -1.0373
38228SOL     OW16690   3.139   3.760  10.505 -0.2723 -0.5889 -0.1787
38228SOL    HW116691   3.232   3.737  10.510 -0.3930 -0.8985  0.9729
38228SOL    HW216692   3.137   3.843  10.457  0.5195 -0.9860 -0.9206
38229SOL     OW16693   5.495   1.240   8.400  0.5925  0.3572 -0.1386
38229SOL    HW116694   5.415   1.285   8.428  0.0521 -0.4470 -0.3457
38229SOL    HW216695   5.489   1.239   8.304  0.7950  0.1988 -0.1504
38230SOL     OW16696   6.822   4.915   6.631  0.3616 -0.5433 -0.7256
38230SOL    HW116697   6.910   4.880   6.621 -0.6038 -3.3217 -0.4185
38230SOL    HW216698   6.818   4.945   6.722  2.1064  3.4284 -1.7512
38231SOL     OW16699   6.626   8.704  11.028 -0.5312 -0.6363  0.0741
38231SOL    HW116700   6.555   8.737  10.973 -1.2588  0.0798  1.3962
38231SOL    HW216701   6.700   8.762  11.008 -0.7352 -0.4908 -0.2689
38232SOL     OW16702   1.790   8.401   5.731 -0.1187 -0.1182  0.4096
38232SOL    HW116703   1.754   8.372   5.647  0.9426 -3.1344  0.8841
38232SOL    HW216704   1.716   8.438   5.778 -2.0415 -3.3904  0.2202
38233SOL     OW16705   3.383  10.990   4.529 -0.3637  0.4845 -0.1597
38233SOL    HW116706   3.392  11.081   4.555  2.2943  0.5598 -0.9932
38233SOL    HW216707   3.419  10.940   4.602 -0.8440  0.1701 -0.1350
38234SOL     OW16708  10.926   4.145   2.695 -0.1300  0.3907 -0.4011
38234SOL    HW116709  10.877   4.089   2.754 -0.5512 -0.5995 -1.6433
38234SOL    HW216710  10.877   4.141   2.613  0.3500  1.8516 -0.7820
38235SOL     OW16711   8.859   0.509   0.250  0.2277 -0.4221  0.2733
38235SOL    HW116712   8.827   0.488   0.162 -0.6967  0.9797  0.2403
38235SOL    HW216713   8.801   0.461   0.309 -1.4019  1.3096  0.1795
38236SOL     OW16714   2.021   5.322   2.790  0.4407  0.1896 -0.2108
38236SOL    HW116715   2.018   5.358   2.702  1.8403 -0.1780 -0.4360
38236SOL    HW216716   1.939   5.273   2.799  1.2830 -1.7758 -2.2259
38237SOL     OW16717  10.485   3.207   7.112  0.4070 -0.1659  0.0974
38237SOL    HW116718  10.500   3.296   7.081  1.6312 -0.9259 -1.6944
38237SOL    HW216719  10.572   3.176   7.138 -0.0280 -0.7885  0.8477
38238SOL     OW16720   2.103   0.364   1.231 -0.2971  0.6334  0.5617
38238SOL    HW116721   2.066   0.400   1.312 -0.9244  1.8872 -0.2557
38238SOL    HW216722   2.119   0.440   1.176  0.9629 -0.1296 -0.1753
38239SOL     OW16723  10.179   4.580   2.779  0.4160 -0.0860 -0.1719
38239SOL    HW116724  10.177   4.582   2.874  0.7780  0.2071 -0.1665
38239SOL    HW216725  10.120   4.650   2.752  2.5276  1.8598 -0.1175
38240SOL     OW16726   4.457   1.286  10.210  0.1864 -0.2684  0.3149
38240SOL    HW116727   4.382   1.295  10.269  1.5471  0.8067  1.9481
38240SOL    HW216728   4.436   1.343  10.136 -1.0150 -0.7131  0.2932
38241SOL     OW16729   3.909   6.731   3.366  0.0617 -0.6640 -0.5988
38241SOL    HW116730   3.941   6.644   3.346 -0.1374 -0.7337 -0.6206
38241SOL    HW216731   3.875   6.765   3.282 -2.8638 -1.8327 -0.0223
38242SOL     OW16732   7.761   2.379   3.524  0.2912 -0.1260 -0.0021
38242SOL    HW116733   7.709   2.320   3.470 -0.4670  1.8383 -1.5271
38242SOL    HW216734   7.750   2.465   3.484  2.5666  0.8352  1.2263
38243SOL     OW16735  10.433  10.483   4.182 -0.2651  0.2276  0.2736
38243SOL    HW116736  10.397  10.572   4.190  0.5118  0.6754 -0.9212
38243SOL    HW216737  10.361  10.426   4.207 -1.2857  1.1578 -0.4332
38244SOL     OW16738   8.673  10.305   3.080 -0.2650 -0.1704  0.5332
38244SOL    HW116739   8.583  10.310   3.048 -1.0521 -1.5550  2.3341
38244SOL    HW216740   8.672  10.354   3.163  1.8301  3.8199 -1.5019
38245SOL     OW16741   4.243   4.546   3.270 -0.0451 -0.0330 -0.9271
38245SOL    HW116742   4.195   4.531   3.351 -0.3786 -0.1200 -1.1384
38245SOL    HW216743   4.197   4.492   3.205  1.1112 -1.1691 -0.8589
38246SOL     OW16744  10.761   0.382   3.851 -0.2727 -0.0996 -0.1857
38246SOL    HW116745  10.670   0.412   3.854 -1.5123 -2.8949 -3.6002
38246SOL    HW216746  10.759   0.296   3.892  1.3682  0.6487  1.5975
38247SOL     OW16747   8.887   5.705   0.826 -0.5445  0.1168  0.5453
38247SOL    HW116748   8.883   5.787   0.778  2.9537 -1.4170 -2.9330
38247SOL    HW216749   8.946   5.724   0.899  1.7524  0.4459 -1.2663
38248SOL     OW16750   7.188   6.072   1.275 -0.0630 -0.1031 -0.6677
38248SOL    HW116751   7.210   6.142   1.336 -1.0078  2.1244 -2.7240
38248SOL    HW216752   7.149   6.004   1.330  1.1339  0.8325  1.4523
38249SOL     OW16753   3.681   4.137   9.581  0.3537  0.9180  0.4177
38249SOL    HW116754   3.660   4.091   9.662 -3.1549 -0.6888 -1.1888
38249SOL    HW216755   3.713   4.068   9.522 -1.1035  1.1986 -0.7684
38250SOL     OW16756   6.443   1.223   5.806 -0.0720  0.0685 -0.8792
38250SOL    HW116757   6.402   1.140   5.831  1.5662  0.0118  2.0824
38250SOL    HW216758   6.536   1.209   5.821  0.1881  2.6297  0.4476
38251SOL     OW16759   2.913   8.320  10.177 -0.0541 -0.2241 -0.3677
38251SOL    HW116760   2.983   8.328  10.111 -1.1332 -1.0627 -1.6569
38251SOL    HW216761   2.924   8.398  10.232  2.3512 -0.6911 -0.0530
38252SOL     OW16762   4.934  10.306   3.045  0.2943 -0.5110 -0.6444
38252SOL    HW116763   5.005  10.243   3.060 -2.3341 -3.9079 -1.0305
38252SOL    HW216764   4.904  10.287   2.956 -0.3884  1.6149 -0.9057
38253SOL     OW16765   4.499   3.740   4.716 -0.2310 -0.3936  0.1649
38253SOL    HW116766   4.568   3.686   4.677 -0.7563 -1.4569  0.6977
38253SOL    HW216767   4.524   3.830   4.692  0.8718 -0.8222 -0.3792
38254SOL     OW16768  10.993  10.531   5.160  0.4384  0.3164 -0.0832
38254SOL    HW116769  10.912  10.543   5.112 -0.2468 -0.5845  0.8128
38254SOL    HW216770  11.025  10.445   5.133 -0.0418 -0.2752  1.1610
38255SOL     OW16771   0.617   2.495   2.142 -0.0624  0.0837 -0.0380
38255SOL    HW116772   0.682   2.441   2.186  1.0132  1.5820  0.2854
38255SOL    HW216773   0.633   2.480   2.048 -0.0978 -0.5038  0.0469
38256SOL     OW16774   3.871   0.061  10.919  0.5720 -0.1609 -0.7756
38256SOL    HW116775   3.948   0.013  10.888 -0.6715 -1.1917 -2.4092
38256SOL    HW216776   3.808  -0.007  10.942 -0.3609  0.6787 -0.8045
38257SOL     OW16777   5.105   1.534   2.875  0.7664  0.5707 -0.6318
38257SOL    HW116778   5.113   1.582   2.793  1.9156 -2.1950 -2.2616
38257SOL    HW216779   5.191   1.494   2.889 -0.3390 -1.7236  0.0993
38258SOL     OW16780   3.318   6.238   0.593 -0.8514 -0.3295 -0.2588
38258SOL    HW116781   3.310   6.329   0.619 -1.2199 -0.2844 -0.5217
38258SOL    HW216782   3.293   6.188   0.671 -1.2567 -0.2016 -0.3054
38259SOL     OW16783   1.146   7.910   7.548 -0.3427  0.5684 -0.1704
38259SOL    HW116784   1.201   7.987   7.533  1.3374 -0.6693 -0.6468
38259SOL    HW216785   1.203   7.836   7.530 -1.6369 -0.8301  1.2324
38260SOL     OW16786   0.040  10.139   9.948 -0.2838 -0.3148  0.1278
38260SOL    HW116787   0.009  10.209   9.891 -0.4674 -0.5203 -0.0253
38260SOL    HW216788  -0.004  10.154  10.031 -4.0746 -2.8992 -1.1335
38261SOL     OW16789   4.994   4.190   8.887 -0.0474 -0.1219 -0.1947
38261SOL    HW116790   5.003   4.150   8.800  0.1330 -0.5821  0.0341
38261SOL    HW216791   4.994   4.116   8.948 -0.3025  0.1919  0.1898
38262SOL     OW16792   4.140   1.474  11.257 -0.1851  0.3028 -0.4491
38262SOL    HW116793   4.231   1.454  11.279 -0.3008 -0.2003 -0.4081
38262SOL    HW216794   4.137   1.569  11.252  0.1849  0.3577  0.2350
38263SOL     OW16795   0.001   9.343   9.403 -0.2149 -0.2992 -0.3272
38263SOL    HW116796   0.002   9.256   9.443  0.9637 -0.2016 -0.1338
38263SOL    HW216797  -0.048   9.397   9.465  1.7335 -0.1076  1.1154
38264SOL     OW16798   9.959   3.549   1.912 -0.0210 -0.1544 -0.5884
38264SOL    HW116799   9.977   3.621   1.851 -0.5125  0.0484 -0.4993
38264SOL    HW216800   9.886   3.502   1.872 -0.0934 -0.2463 -0.3452
38265SOL     OW16801   0.023   5.314   6.045  0.2920  0.0600  0.2348
38265SOL    HW116802  -0.035   5.366   6.100  0.0384  1.6756 -1.4631
38265SOL    HW216803   0.107   5.360   6.049  0.0520  0.7174 -1.3195
38266SOL     OW16804   0.452   5.361   7.342  0.5521  0.1145 -0.1967
38266SOL    HW116805   0.367   5.393   7.371  0.1429  0.4403 -1.6835
38266SOL    HW216806   0.504   5.356   7.422 -0.9597 -0.4319  0.7936
38267SOL     OW16807   1.716   8.240   9.339  0.5049 -0.0306 -0.9211
38267SOL    HW116808   1.686   8.265   9.251  2.4849 -0.3823 -1.7702
38267SOL    HW216809   1.811   8.228   9.328  1.0014  1.1381  1.5751
38268SOL     OW16810   0.656   7.932   6.290  0.0251 -0.1288 -0.4380
38268SOL    HW116811   0.634   8.011   6.339  0.0517  0.0169 -0.6575
38268SOL    HW216812   0.648   7.861   6.353 -0.6538 -0.0272 -0.4073
38269SOL     OW16813   0.344   0.563   4.463 -0.2001 -0.6282  0.3876
38269SOL    HW116814   0.314   0.605   4.544  0.8972  1.4704 -0.2247
38269SOL    HW216815   0.373   0.636   4.408  2.5801 -2.2411 -0.4653
38270SOL     OW16816   7.403   8.532   4.728 -0.1509  0.1059  0.1857
38270SOL    HW116817   7.319   8.560   4.693 -0.7471 -1.1210  0.5876
38270SOL    HW216818   7.425   8.453   4.679 -0.2120 -0.7069  1.4211
38271SOL     OW16819   3.047  10.003   4.097  0.7429  0.6087  0.2713
38271SOL    HW116820   3.005   9.937   4.152 -0.6134  0.7189 -0.5935
38271SOL    HW216821   3.004  10.085   4.120 -0.6083  0.5057 -1.6274
38272SOL     OW16822  10.841   8.841   2.998  0.2993 -0.1556  0.1124
38272SOL    HW116823  10.791   8.856   3.078  0.1773 -1.4237  0.2864
38272SOL    HW216824  10.776   8.815   2.933  0.5965 -0.7826  0.0567
38273SOL     OW16825   3.943   2.968   5.151  0.1219 -0.1614  0.1451
38273SOL    HW116826   3.918   3.049   5.196  1.1561  0.0706  0.3280
38273SOL    HW216827   3.861   2.933   5.117 -0.3452  0.9711  0.0526
38274SOL     OW16828   8.717   9.181   4.100  0.3118  0.3070  0.4776
38274SOL    HW116829   8.766   9.103   4.074  2.0410  1.3772  0.3750
38274SOL    HW216830   8.656   9.196   4.027 -0.0486 -0.9304  0.5016
38275SOL     OW16831   9.708   2.632   1.182  0.2444 -0.1192 -0.6913
38275SOL    HW116832   9.707   2.694   1.256  0.0884 -1.5562  0.5704
38275SOL    HW216833   9.624   2.587   1.187  0.1492 -0.1017 -1.8904
38276SOL     OW16834   7.449   8.881   9.792 -0.0778 -0.0560 -0.3828
38276SOL    HW116835   7.406   8.918   9.715  0.5640 -1.4310 -1.4425
38276SOL    HW216836   7.474   8.793   9.766 -0.5840 -0.8777  1.7009
38277SOL     OW16837   0.884   0.839   6.785 -0.1199  0.1279  0.2603
38277SOL    HW116838   0.914   0.758   6.744  0.2419  0.9406 -1.1193
38277SOL    HW216839   0.872   0.900   6.712  1.6774  2.0033  1.4433
38278SOL     OW16840   3.837   0.357   9.940  0.3143 -0.9005  0.3255
38278SOL    HW116841   3.867   0.436   9.986 -0.2901 -1.3626  1.5570
38278SOL    HW216842   3.902   0.290   9.961  1.4236 -0.5088 -1.6010
38279SOL     OW16843   3.027   4.378  10.453  0.5397 -0.4252  0.3352
38279SOL    HW116844   3.014   4.464  10.493 -0.7602  0.5353 -1.9782
38279SOL    HW216845   2.943   4.334  10.463  0.3526 -0.3589 -0.8325
38280SOL     OW16846   8.704   5.895   4.468  0.4467  0.5630  0.0425
38280SOL    HW116847   8.673   5.985   4.458 -1.9344 -0.2962 -0.8475
38280SOL    HW216848   8.695   5.877   4.562  1.7141  1.4626  0.3708
38281SOL     OW16849   0.080   3.950   7.674 -0.8541 -0.5193  0.4347
38281SOL    HW116850   0.168   3.955   7.712  0.0721 -0.2850 -1.6358
38281SOL    HW216851   0.049   4.040   7.673  1.6963  0.6445 -4.8998
38282SOL     OW16852  10.218  10.391   6.697  0.2744  0.2838  0.5868
38282SOL    HW116853  10.231  10.438   6.614 -0.0352  2.1128  1.5083
38282SOL    HW216854  10.304  10.355   6.718  0.5428  0.4825 -0.1458
38283SOL     OW16855   9.337  10.888  10.519  0.1375  0.0594 -0.0289
38283SOL    HW116856   9.261  10.872  10.575  0.3141  1.0150  0.4942
38283SOL    HW216857   9.315  10.846  10.436 -0.8363  0.0693  0.2190
38284SOL     OW16858   2.595   4.862   2.371 -0.0826 -0.2421  0.5321
38284SOL    HW116859   2.562   4.948   2.396  1.4505  0.1301  1.4110
38284SOL    HW216860   2.584   4.808   2.449  0.7420 -0.2888  0.6239
38285SOL     OW16861   2.619   1.569   4.672 -0.5746  0.2956  0.3453
38285SOL    HW116862   2.611   1.493   4.615  0.4119  0.9435 -0.7019
38285SOL    HW216863   2.686   1.544   4.736 -0.2319  0.2827 -0.0134
38286SOL     OW16864   5.902   2.966   2.678  0.4693 -0.1576 -0.4765
38286SOL    HW116865   5.836   3.016   2.727 -0.8314 -1.9643 -0.3068
38286SOL    HW216866   5.925   2.893   2.736  0.8963 -0.8353 -1.4765
38287SOL     OW16867   5.631   8.301   2.776 -0.0018 -0.2264 -0.8523
38287SOL    HW116868   5.644   8.245   2.853 -0.8257 -0.6517 -1.0073
38287SOL    HW216869   5.679   8.257   2.706  0.3868 -0.0687 -0.6903
38288SOL     OW16870   6.957   5.031   3.728 -0.1245 -0.3882 -0.2676
38288SOL    HW116871   7.030   5.024   3.789 -2.0850 -0.0636  2.2541
38288SOL    HW216872   6.900   5.097   3.766 -2.1043 -1.1633 -1.7366
38289SOL     OW16873   4.232   2.742   6.478 -0.5334  0.2005 -0.3652
38289SOL    HW116874   4.299   2.674   6.481 -1.4021 -0.6444  0.2153
38289SOL    HW216875   4.278   2.818   6.442  0.8339 -0.2309  0.3918
38290SOL     OW16876   9.527   1.210   4.292 -0.1671 -0.1992  0.2099
38290SOL    HW116877   9.481   1.211   4.208  0.7289 -0.6835 -0.2927
38290SOL    HW216878   9.613   1.247   4.273 -0.0245 -0.1402  0.9528
38291SOL     OW16879   7.270   8.812   7.463 -0.2968 -0.0718 -0.4788
38291SOL    HW116880   7.194   8.867   7.444 -0.8082 -0.9549 -1.0812
38291SOL    HW216881   7.284   8.763   7.382 -0.3791 -1.4314  0.3075
38292SOL     OW16882  11.133   8.392   2.035 -0.4859  0.1427 -0.3403
38292SOL    HW116883  11.213   8.363   2.077 -0.9669 -2.6758 -1.1728
38292SOL    HW216884  11.066   8.332   2.066 -2.2551  2.1633  0.0054
38293SOL     OW16885   8.092   6.796   1.484 -0.6752  0.3968  0.7836
38293SOL    HW116886   8.159   6.778   1.550 -0.6569  0.4415  0.7779
38293SOL    HW216887   8.142   6.813   1.403 -0.7444 -0.9979  0.4274
38294SOL     OW16888  10.642   6.985   8.230 -0.1985 -0.4558  0.3788
38294SOL    HW116889  10.682   6.979   8.143  1.2131 -1.2988  1.0444
38294SOL    HW216890  10.717   6.994   8.290 -1.1852  1.7711  1.4022
38295SOL     OW16891   0.835   9.339   9.486  0.4781 -0.4510 -0.1921
38295SOL    HW116892   0.923   9.342   9.449  1.0722 -0.1636  1.1969
38295SOL    HW216893   0.786   9.404   9.435  0.9876 -0.7666 -1.1181
38296SOL     OW16894   0.986   0.387   7.468 -0.5648 -0.0347 -0.7755
38296SOL    HW116895   0.914   0.450   7.469 -0.6309 -0.0422 -2.2296
38296SOL    HW216896   0.944   0.302   7.454 -0.3265 -0.1264 -0.9452
38297SOL     OW16897   0.399   4.287   8.648  0.6471 -0.2575  0.2885
38297SOL    HW116898   0.365   4.250   8.729  1.1870 -1.5576 -0.0542
38297SOL    HW216899   0.475   4.339   8.674  2.1526 -2.4106  0.4487
38298SOL     OW16900   9.998   8.398   6.351  0.8424 -0.0258 -0.3582
38298SOL    HW116901   9.959   8.363   6.271 -2.2537  0.7445  0.6573
38298SOL    HW216902   9.988   8.328   6.415 -0.1997  0.6408  0.2472
38299SOL     OW16903   6.693   3.197   1.193 -1.0252 -0.0702 -0.4113
38299SOL    HW116904   6.695   3.202   1.097  0.0172  0.5929 -0.3811
38299SOL    HW216905   6.693   3.288   1.221  1.6174 -0.1785  0.2049
38300SOL     OW16906   8.434   4.066   9.593  0.0690  0.6773 -0.2971
38300SOL    HW116907   8.390   4.080   9.510  1.2055 -0.4785 -1.1333
38300SOL    HW216908   8.400   3.982   9.624  1.7346 -0.3019 -1.0235
38301SOL     OW16909  10.621   8.113   2.337 -0.2627  0.5193  0.1912
38301SOL    HW116910  10.705   8.067   2.346  0.7507  2.2410 -0.0119
38301SOL    HW216911  10.618   8.140   2.245 -0.0910  2.1232  0.6187
38302SOL     OW16912   7.756   8.808   9.799 -0.3283  0.1854  0.6071
38302SOL    HW116913   7.678   8.850   9.835 -0.8204 -0.2872  0.1193
38302SOL    HW216914   7.819   8.879   9.788 -0.5765  0.5183  1.2992
38303SOL     OW16915   7.778   6.138   8.415 -0.1117  0.4333 -0.0779
38303SOL    HW116916   7.844   6.207   8.410 -0.5923  0.7965 -3.4497
38303SOL    HW216917   7.710   6.174   8.472  0.5106  1.9760 -0.2649
38304SOL     OW16918   5.695   1.835   6.341  0.3810 -0.8410 -0.2437
38304SOL    HW116919   5.764   1.898   6.366 -0.0978 -0.3035 -0.2516
38304SOL    HW216920   5.613   1.884   6.352  0.0771 -0.9674 -1.7501
38305SOL     OW16921   6.583   1.165   3.623  0.3161  0.2448  0.3552
38305SOL    HW116922   6.646   1.211   3.677 -0.0261  0.7308  0.3505
38305SOL    HW216923   6.593   1.203   3.536  1.5255 -1.1955 -0.1632
38306SOL     OW16924   1.279   4.946   1.125 -0.1036  0.4243 -0.1877
38306SOL    HW116925   1.273   4.857   1.090 -0.8044  0.0488  0.8314
38306SOL    HW216926   1.358   4.946   1.178  0.0756  0.5025 -0.4574
38307SOL     OW16927   3.168   0.063   3.082 -0.8122 -0.2793 -0.0611
38307SOL    HW116928   3.144   0.144   3.037 -0.3803 -0.1184 -0.0027
38307SOL    HW216929   3.237   0.089   3.143  0.0331 -0.8857 -0.7510
38308SOL     OW16930   5.303   1.577  11.092  0.3510 -0.2028  0.3072
38308SOL    HW116931   5.243   1.516  11.134  1.2326 -1.6109 -0.4175
38308SOL    HW216932   5.342   1.528  11.020  0.1847  1.6096 -1.0835
38309SOL     OW16933   6.816   6.145   3.647  0.4886 -0.2054 -0.4205
38309SOL    HW116934   6.883   6.111   3.706 -0.7150  0.2890  1.3129
38309SOL    HW216935   6.774   6.066   3.612  2.2965 -0.5378 -2.0164
38310SOL     OW16936   5.031   2.588   3.189 -0.0607 -0.0600 -0.8481
38310SOL    HW116937   5.097   2.651   3.219 -1.3077  0.2893  1.3068
38310SOL    HW216938   4.948   2.622   3.222 -0.6945 -3.2584  1.2394
38311SOL     OW16939   0.583   8.745  10.790  0.0557 -0.5601 -0.2153
38311SOL    HW116940   0.531   8.678  10.745 -0.3642  1.3034 -2.7996
38311SOL    HW216941   0.581   8.820  10.730  0.6744  1.7015  2.4004
38312SOL     OW16942   6.359   0.483   5.377 -0.6863  0.6640 -0.1093
38312SOL    HW116943   6.308   0.557   5.410 -1.2057  0.5955 -0.7443
38312SOL    HW216944   6.354   0.491   5.282 -0.2260  0.1618 -0.1776
38313SOL     OW16945   9.149   6.859   1.524  0.1127 -0.3354  0.2182
38313SOL    HW116946   9.192   6.894   1.603 -1.9110 -0.1267  1.2985
38313SOL    HW216947   9.118   6.773   1.550  2.5780 -1.8985 -1.5658
38314SOL     OW16948   0.639   1.048  10.627 -0.4591 -0.1124  0.3304
38314SOL    HW116949   0.729   1.014  10.626 -0.2182  0.4732  0.9261
38314SOL    HW216950   0.592   0.989  10.685  0.2159  1.1319  2.2481
38315SOL     OW16951   2.168   0.231   3.433 -0.6367  0.1590  0.0185
38315SOL    HW116952   2.133   0.244   3.345  1.3406  0.1984 -0.8218
38315SOL    HW216953   2.252   0.186   3.419 -0.5188 -0.3245  1.9263
38316SOL     OW16954   0.341  11.202   4.758  0.4964 -0.3067 -0.5449
38316SOL    HW116955   0.399  11.137   4.799 -0.1827 -0.5760  0.0058
38316SOL    HW216956   0.330  11.269   4.825 -0.9305 -0.9381 -0.1123
38317SOL     OW16957   7.916   6.801   6.214 -0.0653  0.0921  0.1383
38317SOL    HW116958   7.921   6.797   6.310  2.0009 -2.0128  0.0369
38317SOL    HW216959   7.888   6.890   6.195  0.6976  0.9616  2.6748
38318SOL     OW16960   7.275  10.296   5.333 -0.1913  0.1144 -0.9577
38318SOL    HW116961   7.338  10.295   5.405  0.0465 -0.4626 -1.1695
38318SOL    HW216962   7.281  10.208   5.295 -2.3353 -0.5446  0.0601
38319SOL     OW16963  10.997   2.926   2.961 -0.2035 -0.3656  0.5786
38319SOL    HW116964  11.066   2.921   3.026  0.4276 -0.5919 -0.1008
38319SOL    HW216965  11.027   2.993   2.899  0.1356 -1.5375 -0.5513
38320SOL     OW16966   9.466   8.384   4.711 -0.2491 -0.2315  0.6037
38320SOL    HW116967   9.415   8.389   4.630  0.4147 -1.1267  0.1132
38320SOL    HW216968   9.464   8.292   4.735  2.5513 -0.6410 -0.3908
38321SOL     OW16969   8.535   9.260  10.638  0.8655  0.4007  0.3376
38321SOL    HW116970   8.548   9.319  10.564 -2.1687  0.6401 -0.1100
38321SOL    HW216971   8.552   9.173  10.602 -0.8491  0.4874 -0.7972
38322SOL     OW16972   5.032   0.774   4.607 -0.0347 -0.0096  0.5094
38322SOL    HW116973   5.036   0.825   4.688  2.2542 -0.3307  0.6600
38322SOL    HW216974   5.006   0.686   4.635 -0.6256  0.2073  0.6796
38323SOL     OW16975   3.100   6.696   0.374  0.3926 -0.2487 -0.4833
38323SOL    HW116976   3.179   6.666   0.420 -1.1351  0.0095  2.5129
38323SOL    HW216977   3.069   6.770   0.425 -1.7221 -0.2493 -1.6786
38324SOL     OW16978   4.519   5.634   7.172 -0.0347  0.2618  0.3237
38324SOL    HW116979   4.519   5.626   7.267  1.6985  0.8848  0.4090
38324SOL    HW216980   4.578   5.707   7.154  1.5468 -1.3152 -1.3058
38325SOL     OW16981   2.502   3.641   4.941 -0.2588 -0.0317 -0.2551
38325SOL    HW116982   2.577   3.699   4.954  0.6670 -1.2415 -0.0187
38325SOL    HW216983   2.540   3.558   4.911 -1.3001 -1.2639  1.6084
38326SOL     OW16984   6.164   3.838   3.164 -0.5640 -0.0321  0.1944
38326SOL    HW116985   6.115   3.807   3.088  0.0681 -0.2253 -0.1469
38326SOL    HW216986   6.157   3.933   3.160 -1.7454 -0.0780  0.7265
38327SOL     OW16987   8.706   2.891   8.825 -0.1802  0.0697  0.5169
38327SOL    HW116988   8.663   2.854   8.903 -1.0831  2.0356  1.0003
38327SOL    HW216989   8.635   2.904   8.762  0.4196 -0.6982 -0.3423
38328SOL     OW16990   9.208   6.646   1.743  0.1096  0.7619  0.0247
38328SOL    HW116991   9.291   6.633   1.790 -0.1245  1.3169  0.6053
38328SOL    HW216992   9.202   6.571   1.684 -0.3654 -0.8119  2.0069
38329SOL     OW16993  11.259   7.813   2.847  0.0663 -0.6785  0.2378
38329SOL    HW116994  11.262   7.790   2.754  2.9453 -0.3163  0.1568
38329SOL    HW216995  11.196   7.885   2.852  1.4839  0.7998 -1.8330
38330SOL     OW16996   6.319   3.569   2.389  0.0405  0.1720  0.4780
38330SOL    HW116997   6.374   3.534   2.320  0.9698  0.6372  0.9672
38330SOL    HW216998   6.230   3.543   2.364  0.6149 -2.0843  0.5652
38331SOL     OW16999   9.010   8.042   4.969  0.4076  0.2374 -0.3330
38331SOL    HW117000   8.921   8.041   4.932  0.0765  0.1912  0.4320
38331SOL    HW217001   9.046   8.126   4.942 -0.5362  1.0494  0.8058
38332SOL     OW17002   8.727   4.188   2.980 -0.5826  0.0023  0.0808
38332SOL    HW117003   8.683   4.260   3.026 -0.9309 -0.7574  0.9657
38332SOL    HW217004   8.819   4.196   3.005 -0.7100 -0.1839  0.6167
38333SOL     OW17005   8.171   3.540   5.458 -0.3110 -0.0205 -0.7524
38333SOL    HW117006   8.255   3.497   5.475 -0.2303  1.5019  4.1167
38333SOL    HW217007   8.195   3.626   5.424  0.3836  1.1646  2.4570
38334SOL     OW17008   1.258   9.960   4.430  0.9497 -0.0953 -0.2097
38334SOL    HW117009   1.303   9.899   4.371  2.1374  1.2104 -0.7342
38334SOL    HW217010   1.238  10.035   4.375 -0.9996 -0.2005  0.2864
38335SOL     OW17011   5.634   2.122   6.328 -0.3947 -0.1002  0.5369
38335SOL    HW117012   5.576   2.097   6.257 -0.7882 -0.0526  0.8351
38335SOL    HW217013   5.605   2.210   6.352 -0.7093 -0.3725  1.1918
38336SOL     OW17014   3.985   4.919   4.260 -0.5581 -0.0433 -0.2462
38336SOL    HW117015   4.025   4.933   4.346 -1.0723 -0.7134  0.1139
38336SOL    HW217016   3.907   4.866   4.278  1.1835 -3.3031 -1.4502
38337SOL     OW17017   5.580   4.458   6.250  0.0124 -1.0481  0.1736
38337SOL    HW117018   5.661   4.408   6.262 -0.4023 -1.3687  1.8982
38337SOL    HW217019   5.607   4.534   6.198  2.1048  0.3001  2.9196
38338SOL     OW17020   4.407  11.115   9.704 -0.2113  0.1931  0.6526
38338SOL    HW117021   4.379  11.162   9.783  1.4055  0.8742  0.8680
38338SOL    HW217022   4.492  11.077   9.728  0.2884  0.3775 -0.7428
38339SOL     OW17023   7.709   2.700   5.379  0.4065 -0.0717  1.2176
38339SOL    HW117024   7.693   2.794   5.370 -0.5206  0.0064  3.2249
38339SOL    HW217025   7.648   2.659   5.318  0.1716  0.5941  0.9987
38340SOL     OW17026   4.755   2.080   1.103  0.5064  0.4809 -0.0350
38340SOL    HW117027   4.717   2.003   1.146 -1.2483  1.1879 -0.2372
38340SOL    HW217028   4.764   2.145   1.173 -0.7307  1.0444 -0.3686
38341SOL     OW17029   4.792   4.891   5.406  0.4740 -0.8500  1.0000
38341SOL    HW117030   4.845   4.969   5.421  0.4003 -1.0908  2.6693
38341SOL    HW217031   4.739   4.882   5.485  1.7476 -3.5668  1.6579
38342SOL     OW17032   8.812   8.254  10.515  0.0819  0.2579 -0.0597
38342SOL    HW117033   8.735   8.307  10.536 -0.5267 -0.3321 -0.7553
38342SOL    HW217034   8.790   8.166  10.543  0.3197 -0.0068 -0.6875
38343SOL     OW17035   2.379   7.350  11.140 -0.3816 -0.1274 -0.0187
38343SOL    HW117036   2.409   7.411  11.073 -0.8770  0.1344 -0.0100
38343SOL    HW217037   2.347   7.275  11.091 -1.4714  0.3866 -0.1311
38344SOL     OW17038   3.896   4.311   0.233  0.1285  0.1483 -0.1326
38344SOL    HW117039   3.980   4.355   0.247  0.1513 -0.5116  2.2766
38344SOL    HW217040   3.840   4.379   0.195  0.8259  1.6472  1.3648
38345SOL     OW17041   2.264   6.624   6.610  0.0362 -0.0778  0.1763
38345SOL    HW117042   2.213   6.544   6.603  0.3748 -0.2142 -1.0308
38345SOL    HW217043   2.202   6.695   6.591  0.2085 -0.2248 -1.0203
38346SOL     OW17044   5.563  10.927   4.165  0.8867  0.0354 -0.3358
38346SOL    HW117045   5.652  10.905   4.137  0.9746 -0.8832  0.5870
38346SOL    HW217046   5.562  10.904   4.258 -0.5559 -0.7608 -0.5198
38347SOL     OW17047   4.302   1.796   4.721  0.6297 -0.3822 -0.1991
38347SOL    HW117048   4.336   1.802   4.810 -0.7937  2.1953  0.2536
38347SOL    HW217049   4.380   1.780   4.667  2.1797  2.1293  1.1028
38348SOL     OW17050   8.591   0.763   0.287  0.2885  0.4355  0.6429
38348SOL    HW117051   8.625   0.688   0.335 -0.1562  0.2368  0.6531
38348SOL    HW217052   8.658   0.831   0.297  1.0458 -0.2048 -0.0173
38349SOL     OW17053   0.876   2.356   4.435  0.1333  0.4118  0.3006
38349SOL    HW117054   0.952   2.311   4.400 -0.2551  0.0710 -0.1204
38349SOL    HW217055   0.903   2.448   4.443  0.0179  0.6423 -1.5636
38350SOL     OW17056   7.379  11.243   8.028  0.9352 -0.3826  0.0974
38350SOL    HW117057   7.460  11.193   8.043  0.6543 -0.7480  0.4373
38350SOL    HW217058   7.362  11.286   8.111  1.5541  0.8661 -0.4020
38351SOL     OW17059   0.002   0.701   6.335 -0.4449  0.0559 -0.3477
38351SOL    HW117060  -0.032   0.668   6.418 -1.0588 -0.2021 -0.6972
38351SOL    HW217061   0.015   0.795   6.350  0.7133 -0.2118  0.4490
38352SOL     OW17062   6.497   6.219   8.993  0.3630  0.2871  0.8309
38352SOL    HW117063   6.452   6.160   8.932 -0.1567  1.2884  0.2213
38352SOL    HW217064   6.556   6.270   8.937  0.2169  0.9048  1.2319
38353SOL     OW17065   7.836   1.718   2.971 -0.1636 -0.3416 -1.2594
38353SOL    HW117066   7.827   1.783   2.902  1.1487 -1.0846 -2.1804
38353SOL    HW217067   7.873   1.641   2.927 -3.2457 -2.4117 -0.6224
38354SOL     OW17068   8.791   6.759   3.954 -0.0654 -0.1555  0.3309
38354SOL    HW117069   8.870   6.807   3.928 -1.5418  2.5039  0.4125
38354SOL    HW217070   8.738   6.757   3.874 -0.6436 -0.3622  0.7222
38355SOL     OW17071   3.336   2.988   1.062  0.1162 -0.0272  0.8582
38355SOL    HW117072   3.292   3.062   1.104  2.0405  0.5705  1.9696
38355SOL    HW217073   3.389   3.028   0.993  0.2969 -0.5065  0.7157
38356SOL     OW17074   7.869   1.989   3.896  0.2788  0.3611  0.6595
38356SOL    HW117075   7.903   2.008   3.984  2.7323  0.2800 -0.1900
38356SOL    HW217076   7.907   1.904   3.874 -1.0514 -0.0470 -0.1502
38357SOL     OW17077   9.759   4.042  10.226 -0.5141 -0.0182 -0.6709
38357SOL    HW117078   9.759   4.062  10.320 -2.0165  0.7424 -0.8012
38357SOL    HW217079   9.682   3.986  10.214 -0.5523  0.2079 -1.5176
38358SOL     OW17080  10.601   1.972   1.504  0.0094  0.1091 -0.9217
38358SOL    HW117081  10.641   1.917   1.572 -1.1171 -1.0604 -1.1703
38358SOL    HW217082  10.630   1.933   1.422 -0.2051  0.3433 -1.1095
38359SOL     OW17083  10.956   6.829   6.518  0.0867 -0.4322 -0.5850
38359SOL    HW117084  11.035   6.876   6.489  0.2852 -0.5509 -0.2442
38359SOL    HW217085  10.933   6.773   6.444  0.7938 -0.9915 -0.3992
38360SOL     OW17086   6.661   8.357   0.283 -0.3307  0.3385  1.0975
38360SOL    HW117087   6.675   8.310   0.200 -1.3395  1.0588  0.4996
38360SOL    HW217088   6.656   8.288   0.349 -5.0654 -0.8716 -0.1411
38361SOL     OW17089   9.144   0.665   7.884 -0.6699  0.3303 -0.0069
38361SOL    HW117090   9.125   0.572   7.894  2.0886 -0.6338 -2.3576
38361SOL    HW217091   9.228   0.678   7.928 -1.7464  2.1815  1.7174
38362SOL     OW17092   0.560   7.213   7.144  0.2367  0.4305  0.5640
38362SOL    HW117093   0.598   7.286   7.095 -1.1417  0.8047  0.0073
38362SOL    HW217094   0.489   7.253   7.195  0.3915 -0.2862  1.3667
38363SOL     OW17095   5.893   7.824   0.340 -0.1361 -0.2205  0.1015
38363SOL    HW117096   5.972   7.770   0.350  2.3045  3.3181  2.2159
38363SOL    HW217097   5.876   7.824   0.246  1.8982 -1.7331 -0.3329
38364SOL     OW17098   7.973   7.426  10.999  0.3245  0.3658 -0.6821
38364SOL    HW117099   7.885   7.402  10.971 -0.1647 -0.3316  1.2756
38364SOL    HW217100   8.031   7.371  10.948 -0.4019  0.4049 -1.5692
38365SOL     OW17101   0.496   0.750   0.411  0.0582  0.0736  0.1435
38365SOL    HW117102   0.546   0.674   0.440  0.7797  0.9360  1.2674
38365SOL    HW217103   0.406   0.719   0.402  0.8643 -1.7148 -2.6666
38366SOL     OW17104   6.317   2.731  10.454 -0.0498  0.3377  0.1130
38366SOL    HW117105   6.350   2.724  10.364 -1.0266  0.3738 -0.2544
38366SOL    HW217106   6.365   2.664  10.503 -1.3604 -1.5003 -0.9985
38367SOL     OW17107   7.020   3.721   4.034 -0.1654 -0.4384 -0.1010
38367SOL    HW117108   7.104   3.675   4.042 -0.8993 -1.7532  0.3140
38367SOL    HW217109   7.015   3.774   4.113 -0.6060 -1.8959  0.8809
38368SOL     OW17110   4.409   3.558   1.436 -0.3464 -0.1417 -0.2369
38368SOL    HW117111   4.462   3.492   1.480 -0.3581  0.5617  0.8472
38368SOL    HW217112   4.365   3.510   1.366  2.0894 -0.6686 -1.5508
38369SOL     OW17113   7.561  10.923   6.905  0.0943  0.4337 -0.2319
38369SOL    HW117114   7.555  11.018   6.917  2.9928  0.6058  0.7344
38369SOL    HW217115   7.533  10.887   6.989  0.5282  0.5609 -0.0240
38370SOL     OW17116   7.917   7.832   7.128  0.0625  0.0406  0.4167
38370SOL    HW117117   7.861   7.774   7.076 -0.4032  1.0311 -0.2144
38370SOL    HW217118   7.860   7.906   7.152  1.1985  1.3210 -0.6582
38371SOL     OW17119   2.071   7.695  10.205 -0.1234  0.2862  0.4336
38371SOL    HW117120   2.024   7.763  10.253 -1.4592 -0.2420 -0.0661
38371SOL    HW217121   2.163   7.711  10.225 -0.3173  2.6647 -0.2013
38372SOL     OW17122   0.148   8.591   8.599 -0.0456  0.0578 -0.2018
38372SOL    HW117123   0.190   8.571   8.683  0.8009  0.0907 -0.6098
38372SOL    HW217124   0.058   8.616   8.623 -0.1258 -0.9436  0.5987
38373SOL     OW17125   5.867   1.724   8.434  0.6309 -0.1880  0.9732
38373SOL    HW117126   5.841   1.815   8.419 -0.3939 -0.6487 -0.1921
38373SOL    HW217127   5.930   1.729   8.506 -1.4296  1.1791  2.8174
38374SOL     OW17128   0.017   9.821   8.935  0.1583  0.0343  0.6413
38374SOL    HW117129  -0.049   9.886   8.956  1.8026  2.0508 -0.1372
38374SOL    HW217130  -0.004   9.746   8.991 -4.0972 -0.3814 -1.1699
38375SOL     OW17131   9.930   0.594   7.339  0.0047 -0.2302  0.7797
38375SOL    HW117132   9.982   0.586   7.259  0.0055  0.1882  0.7378
38375SOL    HW217133   9.956   0.679   7.376 -1.7382  0.7055 -0.0228
38376SOL     OW17134   6.226   5.897   9.826 -0.4709  0.0083 -0.1251
38376SOL    HW117135   6.263   5.977   9.790 -0.9034  0.7496  0.9976
38376SOL    HW217136   6.157   5.872   9.764  0.4494 -0.1794 -1.0971
38377SOL     OW17137   8.274  10.144   4.520  0.4339  0.2021 -0.0449
38377SOL    HW117138   8.187  10.120   4.552  0.8128 -0.3889  0.5674
38377SOL    HW217139   8.265  10.235   4.491  0.0890  0.8417  1.9215
38378SOL     OW17140  11.214   3.551  10.689 -0.6859  0.0901  0.0224
38378SOL    HW117141  11.241   3.622  10.747 -0.1620  0.0436 -0.1609
38378SOL    HW217142  11.119   3.547  10.700 -0.6344  0.3170  0.6059
38379SOL     OW17143   0.536  10.068   9.815  0.5138  0.5680  0.3289
38379SOL    HW117144   0.581   9.997   9.860  1.4966  0.3175 -1.0048
38379SOL    HW217145   0.581  10.147   9.845  0.4021  0.5071  0.6649
38380SOL     OW17146   0.915   5.069   5.056 -1.0319 -0.1367 -0.1581
38380SOL    HW117147   0.904   4.977   5.081 -0.4467 -0.8278 -2.2718
38380SOL    HW217148   0.833   5.091   5.011 -0.8381  0.1392 -0.3770
38381SOL     OW17149   2.249   1.799  10.941 -0.5408 -0.1514 -0.3811
38381SOL    HW117150   2.167   1.748  10.942 -0.5369 -0.1937  1.4688
38381SOL    HW217151   2.253   1.836  10.853 -3.2610  0.9418 -0.1500
38382SOL     OW17152   0.191   9.963   8.664  0.0763 -0.5768  0.5120
38382SOL    HW117153   0.281   9.943   8.640  0.4119  1.0440  0.3593
38382SOL    HW217154   0.162   9.884   8.712  1.9499 -0.6788  1.6028
38383SOL     OW17155   2.269   8.341   7.591  0.3696 -0.5306 -0.4724
38383SOL    HW117156   2.194   8.341   7.651  1.0326  0.9649  0.4180
38383SOL    HW217157   2.229   8.349   7.504 -0.5767 -1.9432 -0.2019
38384SOL     OW17158  11.089   0.136   1.449 -0.4090  1.3373 -0.0199
38384SOL    HW117159  11.063   0.223   1.419  0.4164  1.8551  0.7002
38384SOL    HW217160  11.012   0.081   1.436 -0.7951  2.0788 -0.8921
38385SOL     OW17161   2.140   6.281   3.456 -0.7873  0.2628 -0.1291
38385SOL    HW117162   2.202   6.230   3.403 -0.6618 -0.5879  0.8035
38385SOL    HW217163   2.149   6.370   3.423 -1.5824 -0.4111 -2.3518
38386SOL     OW17164   3.566   0.834   4.067 -0.6248  0.0514 -1.0102
38386SOL    HW117165   3.615   0.861   3.989 -0.8425 -2.0508 -1.9361
38386SOL    HW217166   3.579   0.906   4.129  2.0817  0.4359 -1.8795
38387SOL     OW17167   2.949   9.056   8.830  0.1829 -0.2301  0.6412
38387SOL    HW117168   3.018   9.042   8.765 -1.1358 -2.2975 -0.4381
38387SOL    HW217169   2.876   9.092   8.779 -0.5487 -0.9914  1.1248
38388SOL     OW17170   2.983  10.038  10.724 -0.2331 -0.1135 -0.3275
38388SOL    HW117171   2.986   9.963  10.783 -0.5226  0.2638  0.1734
38388SOL    HW217172   3.070  10.041  10.685 -0.6364 -1.5356 -1.4078
38389SOL     OW17173   0.162   4.297   2.244  0.3000  0.2291  0.3049
38389SOL    HW117174   0.209   4.294   2.328  0.7149  1.4073  0.1253
38389SOL    HW217175   0.213   4.239   2.187 -0.5413 -1.3768  1.1116
38390SOL     OW17176   9.833  10.234   9.643  0.1987  0.2943 -1.3689
38390SOL    HW117177   9.851  10.159   9.586 -1.6707  0.9925 -2.9963
38390SOL    HW217178   9.903  10.296   9.623  2.5043 -1.3349  0.8893
38391SOL     OW17179   4.044   4.984   2.624 -0.2667 -1.1507  0.6392
38391SOL    HW117180   3.974   4.919   2.619 -0.6597 -0.6401 -1.2785
38391SOL    HW217181   4.050   5.020   2.536  1.9930 -0.7099  0.9144
38392SOL     OW17182   8.562  10.710   3.278 -0.1948 -1.1541  0.1327
38392SOL    HW117183   8.587  10.620   3.298 -2.9317 -1.8811  0.7168
38392SOL    HW217184   8.558  10.753   3.363 -0.5891 -0.9954  0.0371
38393SOL     OW17185   8.764   0.870   1.756  0.0532  0.2815 -0.2939
38393SOL    HW117186   8.846   0.848   1.712  2.0221  3.2296  1.5412
38393SOL    HW217187   8.778   0.843   1.847 -0.8057  1.2126  0.1396
38394SOL     OW17188  10.843  10.077   1.561 -0.3378  0.0096  0.1397
38394SOL    HW117189  10.752  10.056   1.541  0.2699 -2.5884 -0.3425
38394SOL    HW217190  10.867  10.145   1.498 -1.2350 -1.1153 -1.4662
38395SOL     OW17191   4.169   9.651   0.986 -0.0168  0.1390  0.3612
38395SOL    HW117192   4.126   9.728   0.949 -5.5017 -3.0916 -1.1537
38395SOL    HW217193   4.123   9.636   1.069 -0.3970 -2.3328 -0.2185
38396SOL     OW17194   1.463   7.084   6.095 -0.8754 -0.0876 -0.4483
38396SOL    HW117195   1.489   6.998   6.127 -0.7421 -0.1271 -0.6563
38396SOL    HW217196   1.534   7.142   6.124  0.2561 -0.4477 -2.2926
38397SOL     OW17197   0.234   4.190   6.845 -0.2375  0.1064  0.0793
38397SOL    HW117198   0.285   4.235   6.778 -1.1817  2.4933  0.8672
38397SOL    HW217199   0.185   4.124   6.796  1.4670 -0.3726 -1.0722
38398SOL     OW17200   6.391  10.822   8.267 -0.0420  0.0118  0.7920
38398SOL    HW117201   6.415  10.762   8.196 -0.5680  0.5286  0.1574
38398SOL    HW217202   6.326  10.775   8.319 -1.6418  0.5676 -0.6094
38399SOL     OW17203   0.875   0.143   8.923  0.1384 -0.2936 -0.5571
38399SOL    HW117204   0.931   0.209   8.882  0.3997  0.8418  1.5148
38399SOL    HW217205   0.928   0.106   8.993  0.0636 -2.9072 -1.7536
38400SOL     OW17206   6.866   0.045   2.461 -0.0286  0.3557  0.9539
38400SOL    HW117207   6.881   0.139   2.458 -0.5871  0.4768  1.6439
38400SOL    HW217208   6.934   0.007   2.405  0.8255  1.0896  1.4766
38401SOL     OW17209   8.492   2.560   8.001  0.5706  0.1159  0.7899
38401SOL    HW117210   8.434   2.612   7.945  1.9953  0.1883 -0.7204
38401SOL    HW217211   8.555   2.624   8.035 -0.8816  0.2740  3.4564
38402SOL     OW17212   0.525   8.178   8.708 -0.0814 -0.0348  1.2381
38402SOL    HW117213   0.485   8.151   8.625  0.5889  2.4007  0.0314
38402SOL    HW217214   0.605   8.223   8.683 -1.0406  2.9084  3.0053
38403SOL     OW17215   6.103  11.013   3.758  0.0797 -0.2014  1.0584
38403SOL    HW117216   6.009  11.028   3.748  0.6082  3.1694 -0.5070
38403SOL    HW217217   6.141  11.054   3.680  2.9197 -0.1529  2.3673
38404SOL     OW17218  11.267   9.228   3.857 -0.0156  0.3973 -0.4088
38404SOL    HW117219  11.308   9.308   3.826 -0.3141  0.7724  0.1360
38404SOL    HW217220  11.322   9.200   3.930  1.1871 -0.9609 -1.7851
38405SOL     OW17221   0.530   8.367   7.563  0.5437  0.0266 -0.3599
38405SOL    HW117222   0.620   8.343   7.582  0.6525 -1.1671 -2.1384
38405SOL    HW217223   0.481   8.339   7.640  1.6490  0.5409  0.5553
38406SOL     OW17224   1.474   9.319   1.449  0.4496  0.0686  0.2219
38406SOL    HW117225   1.500   9.250   1.388 -1.5511  0.7181 -1.5028
38406SOL    HW217226   1.556   9.359   1.477  1.5672 -1.9114 -0.0155
38407SOL     OW17227   0.601  10.744   9.091 -0.4618  0.1965 -0.1787
38407SOL    HW117228   0.582  10.653   9.112 -0.6828  0.8553  3.0316
38407SOL    HW217229   0.659  10.741   9.015 -0.3549 -2.5813 -0.0556
38408SOL     OW17230   9.801   6.019   7.808  0.4493 -0.0996 -0.6434
38408SOL    HW117231   9.856   6.056   7.878  3.8970 -3.3943 -1.2612
38408SOL    HW217232   9.831   6.062   7.729  1.9203 -1.4755 -0.8995
38409SOL     OW17233   7.486   1.465   3.859  0.4615  0.3903  0.0495
38409SOL    HW117234   7.516   1.432   3.774 -0.5102  0.0970 -0.1999
38409SOL    HW217235   7.552   1.434   3.921  0.6063 -0.3524 -0.4557
38410SOL     OW17236   4.792   9.370   8.295 -0.1068 -0.2622  0.2260
38410SOL    HW117237   4.713   9.394   8.246 -0.8582 -0.2881  1.3968
38410SOL    HW217238   4.760   9.317   8.367  1.2433 -2.2983 -0.6063
38411SOL     OW17239   8.447   0.475  10.798  0.4619  0.3642  0.1852
38411SOL    HW117240   8.518   0.469  10.862  1.2643  0.9246 -0.6240
38411SOL    HW217241   8.468   0.554  10.747 -0.7773  0.5728 -0.0325
38412SOL     OW17242   4.800   0.990   9.257 -0.2321  0.5527 -0.1704
38412SOL    HW117243   4.713   0.983   9.219 -0.0013  0.4656 -0.6986
38412SOL    HW217244   4.800   1.073   9.304 -1.0139 -0.0433  0.9375
38413SOL     OW17245   8.280   1.964   5.836 -0.0715  0.1832  0.4474
38413SOL    HW117246   8.192   1.991   5.863 -0.5873 -0.0778 -0.8883
38413SOL    HW217247   8.281   1.979   5.742  0.8064 -1.2472  0.2137
38414SOL     OW17248   8.563   6.214  10.062  0.0364  0.1730  0.2622
38414SOL    HW117249   8.521   6.295  10.033 -0.2186 -0.5610 -1.5506
38414SOL    HW217250   8.569   6.160   9.983  0.8267 -1.3148  1.2816
38415SOL     OW17251   5.222   1.445   9.726 -0.0018  0.3718 -0.3226
38415SOL    HW117252   5.176   1.443   9.810 -1.2335  3.2465 -0.7993
38415SOL    HW217253   5.155   1.470   9.662  0.9954 -1.2840 -2.1512
38416SOL     OW17254   0.344   5.893   3.987  0.1850  0.3152  0.3446
38416SOL    HW117255   0.288   5.887   4.064 -0.0561 -1.2033  0.0815
38416SOL    HW217256   0.345   5.986   3.965 -0.9497  0.5708  1.2953
38417SOL     OW17257   1.072   9.935  10.400 -0.8565 -0.2697 -0.7467
38417SOL    HW117258   1.020   9.858  10.423 -3.0685  1.6136  0.9426
38417SOL    HW217259   1.008  10.002  10.376  0.8398  1.7206 -0.0717
38418SOL     OW17260   7.792   5.553   4.296 -0.7153 -0.3176  0.0127
38418SOL    HW117261   7.837   5.510   4.223 -0.3467 -3.1368  1.7637
38418SOL    HW217262   7.855   5.548   4.369 -1.3928  1.6603  0.8087
38419SOL     OW17263   2.521   3.930   0.163  0.4717 -0.0702  0.2882
38419SOL    HW117264   2.430   3.905   0.148  0.4576  0.7139 -1.0657
38419SOL    HW217265   2.571   3.851   0.142  0.3611  0.6035 -3.0500
38420SOL     OW17266   8.937   7.041   1.782  0.3336  0.1661  0.0988
38420SOL    HW117267   8.929   7.104   1.711 -2.5937 -0.2769 -0.0763
38420SOL    HW217268   8.934   7.095   1.862  0.2034  0.4152 -0.0732
38421SOL     OW17269   5.527   0.641   3.791  0.0917  0.0383 -0.8957
38421SOL    HW117270   5.573   0.574   3.741  0.7906  0.4108 -0.7695
38421SOL    HW217271   5.566   0.724   3.762  1.9231  0.1646  1.6438
38422SOL     OW17272   6.672   7.844   4.412  0.1507 -0.2236  0.0224
38422SOL    HW117273   6.646   7.914   4.472  0.1975  0.7524 -1.0755
38422SOL    HW217274   6.605   7.776   4.425  1.2482 -0.9328  2.6153
38423SOL     OW17275   2.827   0.802   3.660 -0.5270 -0.0537 -0.2175
38423SOL    HW117276   2.833   0.861   3.735  0.3158  0.0126 -0.3246
38423SOL    HW217277   2.899   0.740   3.673 -1.1332 -0.8002 -0.3307
38424SOL     OW17278   3.430   8.034   0.736  0.7747  0.4176  0.2254
38424SOL    HW117279   3.456   8.114   0.691  1.4926 -0.7181 -1.4946
38424SOL    HW217280   3.499   8.020   0.801  0.7354  1.0809  0.4217
38425SOL     OW17281   5.002   5.448   0.903 -0.1923  0.3078  0.0652
38425SOL    HW117282   5.053   5.515   0.950  0.2152 -1.1610  1.8449
38425SOL    HW217283   5.067   5.390   0.865 -0.4714 -1.0636  1.5805
38426SOL     OW17284   4.907   3.391   9.772 -0.1751 -0.3107 -0.2855
38426SOL    HW117285   4.920   3.468   9.827  1.3839 -1.2008  0.6849
38426SOL    HW217286   4.894   3.425   9.684  3.4494  1.0768 -0.4540
38427SOL     OW17287   1.428   1.691   8.615 -0.1397 -0.5218 -0.0726
38427SOL    HW117288   1.359   1.686   8.549 -0.6242 -2.2906  0.5047
38427SOL    HW217289   1.434   1.784   8.636 -1.3495 -0.1601 -1.1732
38428SOL     OW17290   0.918   5.846   8.067  0.5938 -0.4066 -0.3861
38428SOL    HW117291   0.840   5.830   8.015  0.7576  0.0577 -0.7795
38428SOL    HW217292   0.923   5.941   8.074  2.4469 -0.2995 -2.4031
38429SOL     OW17293   2.013   1.546   8.325  0.4092  0.2259  0.3470
38429SOL    HW117294   2.105   1.568   8.312  0.7768 -1.6998 -0.6448
38429SOL    HW217295   1.972   1.559   8.240  0.7346 -2.9696 -0.4401
38430SOL     OW17296   6.270   1.369  11.249  0.0077  0.7177  0.2578
38430SOL    HW117297   6.184   1.395  11.217 -0.4554  0.7238  1.4516
38430SOL    HW217298   6.255   1.341  11.340  1.0580 -0.4057  0.1275
38431SOL     OW17299   1.858   5.854   4.941 -0.3917 -0.1530  0.2388
38431SOL    HW117300   1.893   5.769   4.966  1.0058  0.5727  0.8247
38431SOL    HW217301   1.878   5.912   5.015 -0.2943  0.9482 -0.6182
38432SOL     OW17302   5.487   0.688   6.860  0.3389  0.2804  0.4994
38432SOL    HW117303   5.401   0.660   6.828  1.1155 -1.6593 -0.0136
38432SOL    HW217304   5.546   0.617   6.837  1.6395  0.3683  3.1202
38433SOL     OW17305   8.786   4.236   4.222 -0.3669 -0.3932 -0.1618
38433SOL    HW117306   8.846   4.211   4.293 -0.9937 -0.7098  0.2685
38433SOL    HW217307   8.835   4.301   4.171 -0.0460  0.1415  0.7921
38434SOL     OW17308   4.368  11.254   8.884  0.0029 -0.4236 -0.9791
38434SOL    HW117309   4.426  11.272   8.809 -0.8854  0.4053 -1.4945
38434SOL    HW217310   4.373  11.334   8.937 -0.3179 -0.5222 -0.7990
38435SOL     OW17311  10.132   3.215   8.472 -0.4270  0.2471 -0.2983
38435SOL    HW117312  10.162   3.140   8.421  1.8790  0.3859  0.7425
38435SOL    HW217313  10.171   3.203   8.558 -3.6296  0.3761  1.3464
38436SOL     OW17314   5.081   3.467   1.438 -0.2703 -0.2552 -0.2633
38436SOL    HW117315   5.003   3.478   1.382 -0.7500 -1.3944  0.1566
38436SOL    HW217316   5.070   3.533   1.507 -1.4390 -1.1138  0.4038
38437SOL     OW17317   1.743  10.379   6.494  0.4177 -0.7766 -0.0796
38437SOL    HW117318   1.759  10.341   6.580 -0.4861 -0.8003  0.0871
38437SOL    HW217319   1.693  10.312   6.447  0.3169 -0.4871 -0.3907
38438SOL     OW17320  10.221   2.836   0.756 -0.6459  0.0854  0.0385
38438SOL    HW117321  10.259   2.853   0.842  2.6527 -1.7107 -0.8912
38438SOL    HW217322  10.262   2.902   0.699 -4.2589  2.5608 -0.0264
38439SOL     OW17323   9.663  10.891   2.497 -0.0982  0.4996 -0.3047
38439SOL    HW117324   9.635  10.906   2.587  0.1470  1.0870 -0.3196
38439SOL    HW217325   9.702  10.974   2.470  1.2758 -0.1431 -0.4157
38440SOL     OW17326   2.171   0.464   9.058 -0.0887 -0.3813  0.1237
38440SOL    HW117327   2.251   0.460   9.005 -0.6061 -1.8027 -0.5905
38440SOL    HW217328   2.137   0.553   9.042  1.0367  0.0509  0.0115
38441SOL     OW17329   5.659  11.040   0.226  0.3003  0.3675 -0.3282
38441SOL    HW117330   5.655  10.985   0.148 -1.0533  0.4883 -0.3713
38441SOL    HW217331   5.641  11.128   0.193  0.1072  0.4739  0.0623
38442SOL     OW17332   1.387   2.326   2.663  0.3309 -0.1393  0.2601
38442SOL    HW117333   1.398   2.267   2.737 -2.8210  0.6781  1.5339
38442SOL    HW217334   1.365   2.411   2.703  0.0983  0.7189 -1.5811
38443SOL     OW17335   9.141   3.625   2.825 -0.1482  0.6121  0.1441
38443SOL    HW117336   9.108   3.584   2.905 -1.9803 -1.3774 -1.4969
38443SOL    HW217337   9.235   3.606   2.825 -0.5045 -1.3842  0.7483
38444SOL     OW17338   8.823   0.536   1.728  0.4777 -0.5026  0.3081
38444SOL    HW117339   8.801   0.592   1.653 -0.8788 -0.0991  0.9670
38444SOL    HW217340   8.899   0.579   1.767  0.3700  0.0486 -0.0611
38445SOL     OW17341  10.280   2.301   1.375 -0.1188 -0.1025  0.8321
38445SOL    HW117342  10.303   2.211   1.397  0.2424 -0.2492 -0.1141
38445SOL    HW217343  10.364   2.343   1.356 -0.4330 -0.0939 -0.6398
38446SOL     OW17344   1.270   5.871   1.830  0.1781  0.6342 -0.4336
38446SOL    HW117345   1.339   5.937   1.825  0.0032  0.6996 -2.9400
38446SOL    HW217346   1.209   5.893   1.760 -1.6132 -0.3317  0.7165
38447SOL     OW17347   1.688   0.528  10.702  0.3565 -0.1355  0.1720
38447SOL    HW117348   1.594   0.539  10.715  0.3039 -0.9206  0.5446
38447SOL    HW217349   1.698   0.515  10.608  0.3792  2.3424 -0.2313
38448SOL     OW17350   6.397   2.076  10.000  0.2177 -0.1610 -0.3132
38448SOL    HW117351   6.377   1.986  10.025 -0.3822 -0.1466 -0.7138
38448SOL    HW217352   6.480   2.096  10.044 -0.6449 -0.2287  1.3992
38449SOL     OW17353   1.020   8.188   6.010  0.6411 -0.7046  0.5590
38449SOL    HW117354   1.037   8.241   6.088  0.3448 -0.0760  0.1978
38449SOL    HW217355   0.931   8.156   6.021 -0.2747  1.2763 -0.5890
38450SOL     OW17356  10.077   3.432   6.668  0.0765  0.1874 -0.1161
38450SOL    HW117357  10.151   3.478   6.707 -0.4619  0.5289  0.5358
38450SOL    HW217358  10.112   3.347   6.641  0.4576 -0.0948  1.1965
38451SOL     OW17359   2.706   0.256   5.455 -0.4096  0.9669 -0.5288
38451SOL    HW117360   2.798   0.246   5.429 -0.8432 -1.3297 -1.4109
38451SOL    HW217361   2.660   0.273   5.373 -1.2455 -2.0923 -0.8059
38452SOL     OW17362   0.737   7.595   4.549  0.1025 -0.0818  0.4256
38452SOL    HW117363   0.676   7.525   4.570 -0.6829  0.4007 -0.1840
38452SOL    HW217364   0.767   7.575   4.460  0.0757  0.2029  0.3508
38453SOL     OW17365   4.620   5.146   4.369 -0.5404 -0.2584  0.0060
38453SOL    HW117366   4.580   5.077   4.422  1.3217 -1.6909 -0.3509
38453SOL    HW217367   4.714   5.135   4.382 -0.1587  1.5379 -0.9372
38454SOL     OW17368   0.357   4.073   3.886 -0.0354  0.2346  0.1481
38454SOL    HW117369   0.408   4.147   3.854  1.3985 -0.7415  0.1152
38454SOL    HW217370   0.379   4.067   3.979 -2.1220  1.3861  0.7909
38455SOL     OW17371  10.699   5.795   5.513  0.2268 -0.7187 -0.5686
38455SOL    HW117372  10.760   5.747   5.568  0.4267 -2.1100 -1.9599
38455SOL    HW217373  10.616   5.748   5.522  0.3152 -1.0886 -1.5996
38456SOL     OW17374   2.523   4.035  10.691 -1.2202  0.0688  0.5618
38456SOL    HW117375   2.533   3.971  10.761 -1.5649  0.6732  1.1788
38456SOL    HW217376   2.558   4.116  10.728  0.7106 -0.0897 -0.7558
38457SOL     OW17377   5.938   0.799   3.501 -0.1138 -0.8564  0.2476
38457SOL    HW117378   5.885   0.857   3.556 -0.2220 -0.2959 -0.4336
38457SOL    HW217379   5.874   0.759   3.442  0.2475 -0.0015 -0.7342
38458SOL     OW17380   7.923  10.936   3.492 -0.2062 -0.0621 -0.1025
38458SOL    HW117381   7.913  10.994   3.417 -1.7762 -0.2079 -0.0244
38458SOL    HW217382   7.980  10.865   3.460 -0.5704  0.0575 -1.0434
38459SOL     OW17383   6.479   7.574   1.773  0.2739  0.3431  0.6181
38459SOL    HW117384   6.513   7.618   1.851 -0.5160  2.1906 -0.0376
38459SOL    HW217385   6.385   7.589   1.776  0.0635 -0.7372 -0.0087
38460SOL     OW17386   7.018   1.489   1.190  0.3713 -0.2740 -0.5629
38460SOL    HW117387   7.021   1.525   1.101  0.1829  0.2844 -0.3497
38460SOL    HW217388   6.933   1.446   1.195 -0.2247  0.8960 -0.2130
38461SOL     OW17389   3.838   9.400   5.734 -0.3873  0.0606 -0.7279
38461SOL    HW117390   3.825   9.318   5.783  0.8773 -0.6416 -1.5130
38461SOL    HW217391   3.812   9.378   5.644  0.5253  0.3411 -1.0690
38462SOL     OW17392   3.295   4.468   3.373  0.6037  0.0168 -0.2963
38462SOL    HW117393   3.296   4.481   3.278  1.7033  2.9332  0.0120
38462SOL    HW217394   3.202   4.462   3.396 -0.0295  3.9331 -1.1582
38463SOL     OW17395   7.139   2.106   4.905  0.0304  0.5696 -0.3061
38463SOL    HW117396   7.152   2.079   4.996  1.1246 -0.0093 -0.6142
38463SOL    HW217397   7.072   2.047   4.872  0.4244  0.0435 -0.1790
38464SOL     OW17398   8.670   1.326   5.393  0.7699 -0.0538  0.3023
38464SOL    HW117399   8.638   1.415   5.380 -1.4245 -0.6788  1.0147
38464SOL    HW217400   8.754   1.324   5.347  0.5439  2.1560 -0.3347
38465SOL     OW17401   8.227   1.635   8.334  0.4734  0.2819 -0.0108
38465SOL    HW117402   8.303   1.606   8.385 -0.1282  0.0954  0.7981
38465SOL    HW217403   8.227   1.578   8.257  1.7829  1.0090 -0.5819
38466SOL     OW17404   7.079   0.344   8.500  0.8907 -0.7764 -0.2644
38466SOL    HW117405   7.076   0.425   8.551  1.3690 -1.6518  1.1872
38466SOL    HW217406   7.049   0.371   8.413 -0.2240  0.6971  0.5180
38467SOL     OW17407   9.168   9.908   4.609  0.2619 -0.6327 -0.9415
38467SOL    HW117408   9.097   9.894   4.547 -0.4042  1.4053 -0.7133
38467SOL    HW217409   9.134   9.974   4.670  2.5926  1.0320 -1.3123
38468SOL     OW17410   6.893   4.337   4.697  0.2307  0.2837 -0.6794
38468SOL    HW117411   6.891   4.272   4.627  0.1226 -0.8326  0.3199
38468SOL    HW217412   6.818   4.315   4.752  0.9783  0.4030  0.4132
38469SOL     OW17413   3.941  10.383   6.881 -0.3205 -0.7375 -0.7349
38469SOL    HW117414   3.864  10.354   6.930 -0.0684  2.3777  1.9340
38469SOL    HW217415   3.931  10.478   6.876  2.0811 -0.4917 -2.6865
38470SOL     OW17416  10.205   6.175   4.526 -0.6012  0.3163 -0.7819
38470SOL    HW117417  10.228   6.266   4.506 -2.9444  0.6721 -2.1808
38470SOL    HW217418  10.242   6.125   4.454  1.5456 -0.0583  0.4817
38471SOL     OW17419   3.850   3.168   5.283  0.2932  0.1983  0.6205
38471SOL    HW117420   3.769   3.215   5.260  0.6349 -0.2986 -1.8011
38471SOL    HW217421   3.887   3.220   5.355 -0.2761  2.6153 -0.7110
38472SOL     OW17422   3.537   3.819   7.206 -0.8702 -0.3342  0.3270
38472SOL    HW117423   3.491   3.740   7.177  0.7049 -0.7508 -1.1632
38472SOL    HW217424   3.616   3.822   7.153 -1.0218  2.4417  0.1344
38473SOL     OW17425   0.115   0.137   4.992 -0.2563  0.6060 -1.0176
38473SOL    HW117426   0.128   0.143   4.897  0.8773 -0.9537 -0.9970
38473SOL    HW217427   0.131   0.226   5.024  0.7398  0.8509 -2.1319
38474SOL     OW17428   5.921   2.051   9.206 -0.7670  0.7217 -0.3109
38474SOL    HW117429   5.842   2.097   9.234 -0.4486  1.1934 -0.1784
38474SOL    HW217430   5.920   1.969   9.255  0.2025  1.8714  1.7567
38475SOL     OW17431   3.607   9.319   0.113 -0.1203 -0.3359 -0.3376
38475SOL    HW117432   3.655   9.250   0.067 -0.8039  0.7475 -2.8293
38475SOL    HW217433   3.520   9.319   0.073 -1.2725 -0.1979  1.9610
38476SOL     OW17434   9.150  10.636   0.966 -0.2435 -0.4040 -0.7404
38476SOL    HW117435   9.062  10.601   0.984 -0.9119  1.0921 -0.9597
38476SOL    HW217436   9.194  10.631   1.051 -0.0300 -2.4271 -0.9088
38477SOL     OW17437  10.547   4.915   9.270 -0.5337 -0.5480 -0.0590
38477SOL    HW117438  10.534   4.827   9.308  0.7891 -1.1820 -0.9767
38477SOL    HW217439  10.557   4.899   9.176 -1.6970  0.7692 -0.4219
38478SOL     OW17440   7.209   4.534   5.996 -0.0588 -0.2604  0.0282
38478SOL    HW117441   7.181   4.455   6.042 -3.4440  1.9992  2.3311
38478SOL    HW217442   7.281   4.568   6.049  0.3173 -0.9467 -0.0333
38479SOL     OW17443   1.633   2.480   6.580  0.1985  0.1087 -0.3019
38479SOL    HW117444   1.610   2.572   6.563  0.3305  0.1984  0.0034
38479SOL    HW217445   1.597   2.462   6.666  1.0567  0.1782  0.0745
38480SOL     OW17446   5.318  10.052   0.263  0.1971 -0.0487 -0.1888
38480SOL    HW117447   5.238  10.002   0.280  0.1583  0.2363  0.4759
38480SOL    HW217448   5.381   9.986   0.234 -0.2235 -0.3019 -0.5429
38481SOL     OW17449   8.120   5.424   9.649  0.4984 -0.3360  0.0902
38481SOL    HW117450   8.111   5.464   9.563  2.1020  1.5431  0.6981
38481SOL    HW217451   8.212   5.439   9.673 -0.1352  0.2050  2.5352
38482SOL     OW17452   3.853  10.439   0.420  0.0183  0.1268 -0.2630
38482SOL    HW117453   3.816  10.470   0.338  0.2074 -1.4900 -0.9851
38482SOL    HW217454   3.825  10.348   0.427 -1.9150  0.8336  2.6207
38483SOL     OW17455   8.705   9.067   3.164  0.2735  0.1206 -0.2881
38483SOL    HW117456   8.746   9.086   3.080  1.9488  2.2624  0.8989
38483SOL    HW217457   8.612   9.060   3.144  0.7776 -1.2824 -2.5434
38484SOL     OW17458   1.694   8.762   2.474 -0.3727 -0.1527 -0.1389
38484SOL    HW117459   1.730   8.721   2.396  2.5280 -0.2936  1.1540
38484SOL    HW217460   1.769   8.772   2.533 -2.7742 -2.4523  3.7414
38485SOL     OW17461   5.979   1.322   4.663 -0.0915 -0.0597  0.0617
38485SOL    HW117462   6.043   1.391   4.679  0.1499 -0.6906  2.0448
38485SOL    HW217463   6.014   1.274   4.588  0.9016  0.5898  0.0861
38486SOL     OW17464   6.612   0.661   7.281 -0.1367  0.0385 -0.2967
38486SOL    HW117465   6.586   0.750   7.259 -0.8178 -0.3165 -1.0112
38486SOL    HW217466   6.529   0.615   7.297 -0.0100 -1.0842 -2.4427
38487SOL     OW17467   5.770   2.872   9.937  0.2315  0.0004  0.1003
38487SOL    HW117468   5.754   2.962   9.910 -0.7274 -0.5821 -1.4048
38487SOL    HW217469   5.847   2.846   9.886  1.1647  0.2732  1.3270
38488SOL     OW17470  10.976   5.690   6.148  0.5698  0.1552  0.2387
38488SOL    HW117471  10.937   5.645   6.223  0.7394  0.1472  0.3217
38488SOL    HW217472  11.039   5.628   6.112  1.0143  0.4364  0.5299
38489SOL     OW17473   0.974   8.916   6.333  0.0798 -0.7277  0.0953
38489SOL    HW117474   1.033   8.884   6.265  1.0251  1.2732 -0.0722
38489SOL    HW217475   1.015   8.996   6.366 -1.6870 -0.2090  1.1728
38490SOL     OW17476   0.848  10.929   5.992 -0.5017  0.3354 -0.1919
38490SOL    HW117477   0.767  10.888   6.022 -0.1834  0.7081  1.2557
38490SOL    HW217478   0.889  10.862   5.937  0.5800 -1.8950  3.0243
38491SOL     OW17479  10.487   8.222   4.893  0.1085 -0.4262  0.2907
38491SOL    HW117480  10.487   8.186   4.982 -0.4339  1.1509  0.9627
38491SOL    HW217481  10.469   8.146   4.837 -0.7606 -1.2474  1.6243
38492SOL     OW17482   1.495   7.030   3.986  0.0223  0.8311 -0.2268
38492SOL    HW117483   1.467   6.954   4.036  2.0434  1.7387  2.5637
38492SOL    HW217484   1.581   7.006   3.951  0.7714  1.8223  0.8438
38493SOL     OW17485   4.274   4.565   2.058  0.1531 -0.3997  0.1368
38493SOL    HW117486   4.254   4.615   2.138  0.4802 -1.6958  1.0711
38493SOL    HW217487   4.349   4.510   2.082 -0.2086 -1.3551 -0.8314
38494SOL     OW17488   3.914   3.655   0.748  0.1888  0.1204 -0.2266
38494SOL    HW117489   3.944   3.642   0.838  1.1217  1.6689 -0.2845
38494SOL    HW217490   3.819   3.642   0.753  0.3609 -1.0001  0.7211
38495SOL     OW17491   9.011  11.229   3.922  0.3795  0.7358 -0.5148
38495SOL    HW117492   9.085  11.171   3.907 -1.0720 -1.5703  0.5390
38495SOL    HW217493   9.049  11.309   3.958  2.3393 -0.3923  0.0547
38496SOL     OW17494   3.969   9.325   1.002  0.0326  0.2365  0.4162
38496SOL    HW117495   4.015   9.369   0.931  0.3281 -1.9930 -0.8652
38496SOL    HW217496   3.931   9.396   1.054  0.9140  1.9722 -1.2022
38497SOL     OW17497   1.262  10.741   7.875 -0.0057  0.2575 -0.1114
38497SOL    HW117498   1.249  10.828   7.837 -1.5600  0.2216  0.2514
38497SOL    HW217499   1.174  10.715   7.905  0.7281 -0.7481  1.2513
38498SOL     OW17500   6.506   0.728   6.301  0.5357 -0.0065 -0.0239
38498SOL    HW117501   6.482   0.638   6.322  0.3262 -0.0780 -0.5468
38498SOL    HW217502   6.423   0.777   6.309  0.1827 -0.2372 -1.7540
38499SOL     OW17503   6.226  10.664   8.864 -0.6442  0.2763 -0.2099
38499SOL    HW117504   6.221  10.749   8.909 -0.6319  0.8475 -1.2459
38499SOL    HW217505   6.314  10.662   8.827 -1.0568  0.3632 -1.2210
38500SOL     OW17506   5.809   8.465   9.700  0.2681 -0.0918  0.3666
38500SOL    HW117507   5.879   8.400   9.691  0.0964 -0.2356  0.0655
38500SOL    HW217508   5.737   8.416   9.741 -0.1687 -0.3181 -0.6472
38501SOL     OW17509   4.074   2.650  11.115  0.3043 -0.2515  0.4625
38501SOL    HW117510   4.114   2.687  11.036 -0.4196 -0.7780 -0.1600
38501SOL    HW217511   3.996   2.703  11.129 -0.2869 -0.9985  0.0495
38502SOL     OW17512   4.368   5.631  10.854  0.0894 -0.4899  0.0876
38502SOL    HW117513   4.337   5.569  10.788  0.1231 -0.0202 -0.3787
38502SOL    HW217514   4.310   5.707  10.844  0.7875  0.0192 -0.1534
38503SOL     OW17515   8.440   8.707   4.420  0.1275  0.5519 -0.4857
38503SOL    HW117516   8.467   8.625   4.461 -0.9570 -0.9483 -2.5869
38503SOL    HW217517   8.365   8.683   4.365  1.4753  2.3718 -3.3381
38504SOL     OW17518   9.820  10.721   8.674  0.1919  0.1477 -0.2045
38504SOL    HW117519   9.784  10.703   8.587 -0.6564  0.4003  0.0860
38504SOL    HW217520   9.886  10.653   8.686  2.7117  2.0195 -2.3809
38505SOL     OW17521   5.242   9.118   1.239  0.2957 -0.0828  0.9944
38505SOL    HW117522   5.159   9.134   1.194 -0.9712 -0.8564  2.9588
38505SOL    HW217523   5.309   9.143   1.175 -1.4226 -0.0167 -0.8674
38506SOL     OW17524   3.856   4.486  10.415  0.4163  0.2746 -0.2396
38506SOL    HW117525   3.851   4.571  10.370 -0.9036  0.3130 -0.0511
38506SOL    HW217526   3.900   4.429  10.353 -1.3121  0.3457 -1.6001
38507SOL     OW17527   8.912   1.926   4.070  0.2378  0.2904 -0.3587
38507SOL    HW117528   8.913   2.016   4.103 -2.4278 -0.0409  0.8509
38507SOL    HW217529   8.848   1.927   3.998 -0.3396 -0.7551  0.1177
38508SOL     OW17530   6.338   9.056   5.321 -0.2724 -0.1823  0.4959
38508SOL    HW117531   6.249   9.021   5.319  0.0634 -1.0092 -0.5747
38508SOL    HW217532   6.378   9.013   5.397 -0.4720 -0.6070  0.3658
38509SOL     OW17533   2.453   0.968   6.582  0.0332  0.3344  0.1137
38509SOL    HW117534   2.362   0.993   6.563 -0.1331  0.4052  0.9648
38509SOL    HW217535   2.476   0.905   6.513 -0.0281  1.7059 -1.2193
38510SOL     OW17536   9.858   2.137   9.731  0.0584  0.4050  0.0101
38510SOL    HW117537   9.859   2.113   9.638  0.7580 -0.3531  0.2042
38510SOL    HW217538   9.893   2.226   9.733  0.1622  0.3756 -0.4429
38511SOL     OW17539   1.014   5.809   4.335  0.1292 -0.2987  0.1444
38511SOL    HW117540   1.004   5.729   4.284  0.3198  0.3619 -0.9613
38511SOL    HW217541   0.959   5.795   4.412 -0.8193 -1.0028 -0.6272
38512SOL     OW17542   7.946   5.452   1.826  0.4707  0.5772  0.3796
38512SOL    HW117543   7.964   5.539   1.861  1.3074  0.4490  0.2963
38512SOL    HW217544   8.020   5.434   1.767 -1.3858  1.2275 -2.3483
38513SOL     OW17545   4.091   3.931  10.954  0.0993  0.0243 -0.2620
38513SOL    HW117546   4.136   3.991  11.012  1.4309  1.2570 -2.4444
38513SOL    HW217547   4.012   3.978  10.927 -1.2434 -1.0922  1.5201
38514SOL     OW17548   3.910   6.602   7.050 -0.0599 -0.4224  0.3470
38514SOL    HW117549   3.890   6.668   6.984  0.2245 -0.6855 -0.0020
38514SOL    HW217550   3.912   6.519   7.002  1.4550 -0.4556  0.4339
38515SOL     OW17551   7.930   0.131   8.587  0.0156 -0.2563 -0.3272
38515SOL    HW117552   8.004   0.134   8.648  0.1686  0.8133 -0.5471
38515SOL    HW217553   7.865   0.189   8.626 -0.6550 -1.0621 -0.2205
38516SOL     OW17554   3.177   0.273  10.671  0.8030  0.2029 -0.3362
38516SOL    HW117555   3.248   0.326  10.706  0.5951  1.5367 -1.8223
38516SOL    HW217556   3.099   0.301  10.720  1.0483 -0.2814  0.3464
38517SOL     OW17557   3.095  11.076   1.453 -0.3820  0.3093 -0.7753
38517SOL    HW117558   3.069  11.104   1.541 -0.4712 -1.3115 -0.2563
38517SOL    HW217559   3.191  11.080   1.455 -0.3387 -0.6723 -0.2500
38518SOL     OW17560   9.936   3.673   2.616 -0.2338  0.8531  0.0037
38518SOL    HW117561   9.911   3.674   2.524  0.4248  1.8145 -0.1808
38518SOL    HW217562  10.003   3.606   2.623 -0.8747  0.1962 -0.0431
38519SOL     OW17563   4.960  10.811   4.922 -0.6378 -0.2525 -0.2637
38519SOL    HW117564   5.008  10.873   4.977  1.8385 -1.9880 -0.2969
38519SOL    HW217565   4.928  10.745   4.983 -0.3133 -0.7104 -0.5845
38520SOL     OW17566   6.728   5.276   8.129 -0.0341  0.4049  0.0803
38520SOL    HW117567   6.813   5.321   8.129  0.4683 -0.5205  0.0666
38520SOL    HW217568   6.747   5.189   8.162 -1.3824  0.8641  2.2143
38521SOL     OW17569  10.763   8.519   0.315  0.2093 -0.0461 -0.3870
38521SOL    HW117570  10.772   8.473   0.231 -1.4365 -0.5267 -0.3393
38521SOL    HW217571  10.773   8.450   0.381  0.7047  0.1939 -0.2046
38522SOL     OW17572  10.566  11.197   9.294 -0.8001 -0.1901  0.2451
38522SOL    HW117573  10.473  11.195   9.319 -0.7243 -1.0662  0.4898
38522SOL    HW217574  10.613  11.169   9.373 -0.3146  0.3278  0.1483
38523SOL     OW17575   5.863   9.430   8.580 -0.0240 -0.3089 -0.1316
38523SOL    HW117576   5.780   9.417   8.536  0.3400 -1.9822 -0.4289
38523SOL    HW217577   5.845   9.494   8.649 -1.9966 -1.8673  0.9139
38524SOL     OW17578   0.116   1.398   3.394 -0.5454 -0.0339 -0.0183
38524SOL    HW117579   0.100   1.443   3.477 -3.1733 -1.2016  0.2250
38524SOL    HW217580   0.080   1.457   3.328  2.1275  1.1919 -0.4899
38525SOL     OW17581  10.982   1.957   1.290 -0.2197  0.4256 -0.5602
38525SOL    HW117582  10.968   2.010   1.369  0.9814  2.6482 -1.7482
38525SOL    HW217583  10.992   2.021   1.220  2.3232 -1.3249 -1.9329
38526SOL     OW17584   2.222  10.204  11.184 -0.4891  0.2900  0.1993
38526SOL    HW117585   2.237  10.130  11.125 -0.1702 -0.2754  0.9855
38526SOL    HW217586   2.273  10.275  11.146  1.4402 -0.6390  0.9231
38527SOL     OW17587  11.123   5.094  10.139  0.1110 -0.0498 -0.2673
38527SOL    HW117588  11.194   5.099  10.075  0.5599 -0.1891  0.2122
38527SOL    HW217589  11.047   5.129  10.094 -0.1558 -2.2502 -1.6706
38528SOL     OW17590   5.402   2.651  10.687 -0.8265 -0.2011  0.3677
38528SOL    HW117591   5.486   2.639  10.642 -0.8655 -0.2796  0.3153
38528SOL    HW217592   5.400   2.583  10.754 -0.4407  0.3875  0.9816
38529SOL     OW17593   7.892   5.560   8.887 -0.2873  0.5336 -0.0055
38529SOL    HW117594   7.869   5.503   8.960 -1.7952  2.1234  0.8377
38529SOL    HW217595   7.823   5.627   8.886  1.7185  2.7474 -0.4925
38530SOL     OW17596  10.785   9.752   7.816  0.1374 -0.3487 -0.4878
38530SOL    HW117597  10.785   9.670   7.766 -1.0116 -1.5016  1.3067
38530SOL    HW217598  10.799   9.820   7.750 -2.4701 -1.6703 -2.6152
38531SOL     OW17599   1.845   6.348   8.021  0.2037 -0.2453  0.4948
38531SOL    HW117600   1.783   6.346   7.949 -0.0174  0.2083  0.6663
38531SOL    HW217601   1.895   6.429   8.007  0.2796 -0.2472  0.7522
38532SOL     OW17602   5.874   9.610   8.783  0.4706 -0.6037 -0.0559
38532SOL    HW117603   5.844   9.700   8.769  0.7927 -0.5709 -0.5511
38532SOL    HW217604   5.816   9.576   8.852  0.1933 -0.0976 -0.0342
38533SOL     OW17605   1.915  11.237  10.804  0.3310 -0.0202 -0.4443
38533SOL    HW117606   1.909  11.315  10.860  1.3588  0.6218 -1.1788
38533SOL    HW217607   1.991  11.190  10.837 -0.1132 -0.5618 -0.1911
38534SOL     OW17608   4.513   4.046   5.915  0.5530  0.4573 -0.2443
38534SOL    HW117609   4.495   3.956   5.889  1.5458  0.8152 -2.4739
38534SOL    HW217610   4.432   4.076   5.955  0.4606 -1.6330  1.2981
38535SOL     OW17611   2.883   5.954   9.613 -0.4305 -0.2885 -0.6997
38535SOL    HW117612   2.835   5.911   9.543 -1.6330  0.1719 -0.1918
38535SOL    HW217613   2.855   6.046   9.609  1.4080  0.2988 -1.2013
38536SOL     OW17614   3.601   3.491   8.462  0.7228 -0.3928  0.1882
38536SOL    HW117615   3.599   3.569   8.406 -0.6980 -0.7386 -0.2741
38536SOL    HW217616   3.691   3.488   8.495  0.7993  1.4481  0.2434
38537SOL     OW17617   6.415   0.565  10.058  0.2459  0.4451  0.0413
38537SOL    HW117618   6.471   0.638  10.032  0.7241  0.0913  0.0711
38537SOL    HW217619   6.326   0.598  10.045  0.4601  0.7108 -0.8533
38538SOL     OW17620   9.156  10.453   2.013  0.0614  0.6142 -0.1599
38538SOL    HW117621   9.229  10.424   1.960  1.0908 -0.8429  1.9077
38538SOL    HW217622   9.173  10.546   2.029  0.5468  0.6868 -1.0653
38539SOL     OW17623   3.067   1.748   3.471  0.2096  0.6537  0.2891
38539SOL    HW117624   3.127   1.817   3.443  0.0274  1.0617  0.8840
38539SOL    HW217625   3.035   1.777   3.556  0.4052 -0.3401  0.7162
38540SOL     OW17626   3.337  10.452   5.280 -0.1115 -0.8621 -0.3055
38540SOL    HW117627   3.359  10.483   5.368 -0.5893  0.3068 -0.5848
38540SOL    HW217628   3.415  10.471   5.227  0.0152 -1.1720 -0.2316
38541SOL     OW17629   0.795   7.010   2.804  0.6736 -0.2014  0.0271
38541SOL    HW117630   0.776   7.020   2.711  0.7308 -0.7935 -0.0499
38541SOL    HW217631   0.774   6.918   2.824  2.2493 -0.5451  0.2176
38542SOL     OW17632   6.478   6.649   9.675 -0.4600  0.6026  0.1996
38542SOL    HW117633   6.564   6.618   9.647 -0.2706 -0.2609  1.6212
38542SOL    HW217634   6.485   6.745   9.675  0.3602  0.5450 -0.1219
38543SOL     OW17635   9.572   3.066   1.825  0.7684 -0.2963 -0.4713
38543SOL    HW117636   9.527   2.981   1.834 -0.7655  0.5120 -0.1414
38543SOL    HW217637   9.597   3.069   1.733  0.2548 -0.8392 -0.6411
38544SOL     OW17638  10.339   7.010   5.225 -0.0924 -0.4341  0.2714
38544SOL    HW117639  10.286   6.941   5.186  0.1877 -2.1885  2.7964
38544SOL    HW217640  10.428   6.975   5.226 -0.0147 -0.2735  1.9801
38545SOL     OW17641   0.828   8.670  10.048  0.4577 -0.0931  0.4282
38545SOL    HW117642   0.783   8.632  10.124 -1.2163  0.4465 -0.2524
38545SOL    HW217643   0.902   8.611  10.033  0.2280 -0.7992  1.8406
38546SOL     OW17644   8.760   2.806   6.153 -0.8663 -1.2224  0.5949
38546SOL    HW117645   8.854   2.821   6.156 -1.0479  0.2527  0.0528
38546SOL    HW217646   8.748   2.734   6.092 -0.1499 -0.4713 -0.4642
38547SOL     OW17647   7.748   0.372   1.696  0.3859  0.0264  0.4242
38547SOL    HW117648   7.830   0.418   1.681 -0.5171  1.1549 -1.4048
38547SOL    HW217649   7.738   0.315   1.620 -1.3261  1.2062 -0.2974
38548SOL     OW17650   6.025   9.505   6.021  0.8711  0.0568  0.2038
38548SOL    HW117651   6.074   9.522   6.102 -1.0230  0.0469  1.4195
38548SOL    HW217652   6.093   9.494   5.954  2.4951  1.9470  1.3850
38549SOL     OW17653   4.508  11.119   1.401 -0.0728 -0.2740  0.0326
38549SOL    HW117654   4.451  11.146   1.328  0.6366 -0.4088 -0.5862
38549SOL    HW217655   4.496  11.187   1.467  1.8865  1.7965 -1.5897
38550SOL     OW17656   2.185   8.666   7.091 -0.2572 -0.2103 -0.3177
38550SOL    HW117657   2.200   8.619   7.173 -1.6948 -1.5379 -0.7803
38550SOL    HW217658   2.133   8.742   7.117 -1.2631 -0.9653 -0.0500
38551SOL     OW17659   7.165   6.765   9.765 -0.4985 -0.6022  0.3750
38551SOL    HW117660   7.207   6.832   9.710  0.3721 -2.4306 -1.3181
38551SOL    HW217661   7.223   6.756   9.841  0.5884 -0.9569 -0.4688
38552SOL     OW17662   8.263  11.084  10.830 -0.0957 -0.1107  0.4891
38552SOL    HW117663   8.309  11.071  10.747  0.5494  0.0619  0.8156
38552SOL    HW217664   8.258  11.179  10.840  0.4673 -0.1333  0.9969
38553SOL     OW17665   2.597   1.875   8.654 -0.1906  0.3301 -0.3078
38553SOL    HW117666   2.641   1.929   8.589  2.7751 -0.6662  0.6881
38553SOL    HW217667   2.647   1.890   8.735 -1.0317 -1.7208  0.6654
38554SOL     OW17668   6.689   3.310   5.543 -1.0453 -0.3253  0.0015
38554SOL    HW117669   6.657   3.317   5.633  0.5913  0.3696  0.5580
38554SOL    HW217670   6.765   3.252   5.549 -0.1222  0.7852 -0.6960
38555SOL     OW17671   5.705   4.584   1.626  0.4924 -0.5261  0.0348
38555SOL    HW117672   5.765   4.657   1.639 -0.3902  0.3433 -0.6341
38555SOL    HW217673   5.624   4.611   1.668  0.2434 -1.2485  0.0344
38556SOL     OW17674  11.070   6.728   1.245 -0.2574 -0.2262  0.0248
38556SOL    HW117675  11.123   6.778   1.308 -1.3391  1.5661 -0.4293
38556SOL    HW217676  11.130   6.710   1.173  0.2604  0.0969  0.3635
38557SOL     OW17677   5.966   0.818   5.490  0.3442  0.1001  0.2952
38557SOL    HW117678   5.887   0.813   5.545 -0.2532 -1.5302 -0.6506
38557SOL    HW217679   6.010   0.734   5.503  1.7269  0.8239  0.4680
38558SOL     OW17680   3.650   4.744   6.975  0.0895 -0.2334  0.0265
38558SOL    HW117681   3.654   4.708   7.064  1.1824  1.0142  0.5290
38558SOL    HW217682   3.733   4.718   6.935 -0.2096 -0.4213 -0.4723
38559SOL     OW17683   5.121   0.058   6.862  0.6668 -0.3912 -0.0807
38559SOL    HW117684   5.197   0.003   6.844  1.2857 -0.2916  2.0075
38559SOL    HW217685   5.051  -0.003   6.883  0.6415 -0.4467 -0.3296
38560SOL     OW17686   7.171   9.753   1.208 -0.0581  0.7800 -0.4579
38560SOL    HW117687   7.226   9.803   1.268  0.2061  2.2265 -1.8325
38560SOL    HW217688   7.083   9.788   1.222 -0.0449  0.9129 -0.7100
38561SOL     OW17689   6.741   8.138   7.508 -0.5886 -0.0058  0.0173
38561SOL    HW117690   6.677   8.140   7.438 -0.1738  1.1411 -0.3438
38561SOL    HW217691   6.734   8.050   7.545 -1.2298 -0.4178 -1.0642
38562SOL     OW17692   4.205   5.700   9.124  0.7667  0.4153  0.5123
38562SOL    HW117693   4.262   5.653   9.063 -0.5530 -0.4247 -0.1110
38562SOL    HW217694   4.264   5.725   9.196  2.3590  1.4660 -1.0718
38563SOL     OW17695   2.428   5.062   1.609  0.3315  0.4124 -0.0757
38563SOL    HW117696   2.379   5.085   1.688 -0.3271  0.7807 -0.5837
38563SOL    HW217697   2.404   4.971   1.591  0.1258  0.4732 -0.1091
38564SOL     OW17698   3.824   7.050   8.425 -0.1731 -0.2806 -0.3780
38564SOL    HW117699   3.822   6.994   8.348 -0.4460  1.1950 -1.5017
38564SOL    HW217700   3.910   7.035   8.464  0.0749 -0.8418 -1.1300
38565SOL     OW17701   8.955   0.565  10.262  0.2126 -1.1936  0.0821
38565SOL    HW117702   8.954   0.644  10.316  3.3604  0.0875 -1.4647
38565SOL    HW217703   8.869   0.526  10.275 -1.8401  2.8863  0.3450
38566SOL     OW17704   3.598   7.773   6.976 -0.4567 -0.5952  0.8835
38566SOL    HW117705   3.595   7.830   6.899  0.3392 -1.0102  0.5327
38566SOL    HW217706   3.649   7.822   7.041 -1.3662 -0.1272  1.2535
38567SOL     OW17707   8.027   2.401   0.469 -1.1552  0.2517 -0.0790
38567SOL    HW117708   8.006   2.483   0.425  0.6184  0.5698 -0.3929
38567SOL    HW217709   8.050   2.427   0.559  0.4160  0.2627 -0.4560
38568SOL     OW17710   3.792   1.275   2.873  0.5247 -0.0660 -0.1069
38568SOL    HW117711   3.735   1.310   2.942 -2.1804 -1.5525 -1.4912
38568SOL    HW217712   3.849   1.213   2.919 -2.0812 -2.0046  0.7132
38569SOL     OW17713   1.798   5.145  11.015 -0.3912  0.0396  0.0684
38569SOL    HW117714   1.871   5.127  10.956 -0.7814  0.1535 -0.4537
38569SOL    HW217715   1.807   5.080  11.085  0.6562  0.5501  0.4181
38570SOL     OW17716   3.808   6.322   1.061 -0.0782 -1.2703  0.1151
38570SOL    HW117717   3.858   6.389   1.107  0.3262 -1.7389  0.3697
38570SOL    HW217718   3.758   6.278   1.129 -1.0806 -0.6129 -0.1791
38571SOL     OW17719   1.899   8.000   1.636  0.1485 -0.6337 -0.0253
38571SOL    HW117720   1.872   7.942   1.706  0.1204  1.6724  1.9760
38571SOL    HW217721   1.825   8.058   1.622  0.4594 -0.5377 -1.4316
38572SOL     OW17722   1.324   2.577   4.435  0.1922 -0.3199  0.2824
38572SOL    HW117723   1.389   2.647   4.441 -2.2073  1.9874  2.0301
38572SOL    HW217724   1.320   2.541   4.524  0.3758 -1.7032 -0.2561
38573SOL     OW17725   7.544   7.050   5.397 -0.0582  0.1540 -0.1931
38573SOL    HW117726   7.529   7.063   5.490  1.3068  0.4092  0.0150
38573SOL    HW217727   7.617   6.989   5.392 -0.8902 -0.8109 -1.1220
38574SOL     OW17728   3.098  10.239   3.437 -0.5912  0.0677 -0.5365
38574SOL    HW117729   3.110  10.313   3.496 -0.4498 -1.8377  2.0125
38574SOL    HW217730   3.184  10.198   3.431 -1.0199 -0.8831 -0.4398
38575SOL     OW17731   1.047   5.427   7.967 -0.7414  0.2208 -0.1373
38575SOL    HW117732   1.131   5.383   7.953 -0.8017  0.1787 -0.3837
38575SOL    HW217733   1.056   5.471   8.051 -0.2492  0.7302 -0.4530
38576SOL     OW17734   3.324   0.524   2.693 -0.6120 -0.4681 -1.4135
38576SOL    HW117735   3.327   0.471   2.772  0.9017 -0.5721 -1.5087
38576SOL    HW217736   3.257   0.484   2.638  0.3233 -2.1422 -1.3793
38577SOL     OW17737   0.508   8.380   4.767  0.0798  1.1318  0.3285
38577SOL    HW117738   0.583   8.327   4.739 -2.0507 -2.2180  0.3064
38577SOL    HW217739   0.513   8.459   4.713  2.7303  0.3713 -0.7129
38578SOL     OW17740  10.771   0.493   6.911 -0.7623  0.7037 -0.0573
38578SOL    HW117741  10.855   0.481   6.865  0.4504  1.3547  1.8541
38578SOL    HW217742  10.705   0.480   6.843  0.8943  0.8821 -1.8103
38579SOL     OW17743   9.075   2.488   7.900 -0.5528 -0.3562 -0.1115
38579SOL    HW117744   9.092   2.559   7.962 -0.9342  0.9481 -1.4294
38579SOL    HW217745   9.138   2.503   7.829  1.4174 -3.1047  0.8772
38580SOL     OW17746   3.574   3.919   9.308  0.3848  0.3413 -0.3161
38580SOL    HW117747   3.508   3.989   9.311  0.1299  0.0849  0.2182
38580SOL    HW217748   3.558   3.875   9.225 -0.5867 -0.1600  0.1121
38581SOL     OW17749  10.558   9.231   4.061 -0.8463  0.0553  0.0236
38581SOL    HW117750  10.651   9.207   4.066 -1.0438 -0.6967  0.2252
38581SOL    HW217751  10.542   9.243   3.968 -1.0992 -2.1858 -0.2902
38582SOL     OW17752  11.152   0.604   6.990  0.5813 -0.3148 -0.1141
38582SOL    HW117753  11.164   0.690   6.952  2.4022 -1.4273 -2.2949
38582SOL    HW217754  11.228   0.553   6.960 -0.3639 -2.6483  1.1487
38583SOL     OW17755   5.680   0.497   9.694 -0.1196  0.3337 -0.3914
38583SOL    HW117756   5.756   0.553   9.674 -0.4751  0.4631 -1.4055
38583SOL    HW217757   5.620   0.512   9.621  0.1331 -2.0327 -1.1466
38584SOL     OW17758  10.140   6.920   1.520  0.2561  0.3174 -0.1580
38584SOL    HW117759  10.196   6.909   1.596 -0.2688 -2.5454 -0.0480
38584SOL    HW217760  10.193   6.889   1.446 -1.3989 -4.1099  0.1601
38585SOL     OW17761   0.928   2.256   3.150  0.7645 -0.1215  0.3907
38585SOL    HW117762   1.002   2.232   3.094  1.5461 -0.7830  1.6451
38585SOL    HW217763   0.927   2.352   3.150  1.4742 -0.1113  0.1566
38586SOL     OW17764   9.059   3.871   4.575 -0.4246 -0.7639 -0.5024
38586SOL    HW117765   9.034   3.870   4.483 -1.1790 -1.2465 -0.2968
38586SOL    HW217766   9.044   3.781   4.605 -3.7939  0.1636  1.0346
38587SOL     OW17767  10.716   6.266   2.639 -0.0342  0.0295 -0.4810
38587SOL    HW117768  10.797   6.316   2.636  0.5017 -0.7864  0.0761
38587SOL    HW217769  10.672   6.294   2.719  0.2643 -0.3815 -0.1706
38588SOL     OW17770   7.264   3.607   6.221  0.1137  0.2789 -0.2369
38588SOL    HW117771   7.334   3.661   6.185 -0.9222  0.8403 -1.5128
38588SOL    HW217772   7.308   3.528   6.252  1.5632  1.5182  1.0088
38589SOL     OW17773   0.128   8.015  10.070  0.4864 -0.0337  0.0051
38589SOL    HW117774   0.191   8.069  10.023 -0.5089  0.7325 -0.4931
38589SOL    HW217775   0.132   7.930  10.027 -0.9146  0.8454 -2.0130
38590SOL     OW17776  10.764   0.402   8.241  0.4972  0.1230  0.3977
38590SOL    HW117777  10.824   0.355   8.298  1.1900 -0.0287 -0.4387
38590SOL    HW217778  10.693   0.430   8.298 -0.0390 -2.1037  0.9078
38591SOL     OW17779   4.349   7.994   1.516  0.0585  0.2337 -0.3581
38591SOL    HW117780   4.415   7.964   1.455  0.4220  1.2234 -0.4739
38591SOL    HW217781   4.386   8.074   1.553 -0.4315 -0.0085  0.6840
38592SOL     OW17782   9.405   0.864   0.057 -0.1493  0.2545 -0.2895
38592SOL    HW117783   9.429   0.923   0.128  2.0445 -0.1896 -0.5972
38592SOL    HW217784   9.414   0.776   0.094 -3.0809  0.0264  0.0763
38593SOL     OW17785   7.275   4.498   4.565 -0.0203  0.2969 -0.0624
38593SOL    HW117786   7.283   4.420   4.619 -1.1556 -0.6333 -1.1642
38593SOL    HW217787   7.198   4.544   4.601 -0.0404  0.3095 -0.1210
38594SOL     OW17788   7.460   1.433   2.286  0.3726 -0.1091  0.0374
38594SOL    HW117789   7.486   1.464   2.199 -0.7557  1.8737  0.3453
38594SOL    HW217790   7.437   1.513   2.334 -2.4863 -1.3785  0.9924
38595SOL     OW17791   4.941   0.601   6.062  0.3807  1.0057 -0.1589
38595SOL    HW117792   4.983   0.563   6.140 -0.6847  1.9247  0.8917
38595SOL    HW217793   5.006   0.590   5.993  0.3236 -2.3041  0.1609
38596SOL     OW17794   0.814   5.639   8.627  0.3259 -0.1261 -0.7187
38596SOL    HW117795   0.800   5.612   8.537  0.8953  0.5884 -1.0355
38596SOL    HW217796   0.813   5.735   8.624 -0.2592 -0.0922  0.1366
38597SOL     OW17797   5.073   0.745   1.779 -0.1869  0.1060  0.4664
38597SOL    HW117798   5.054   0.703   1.695 -0.0796 -0.7157  0.8473
38597SOL    HW217799   5.002   0.808   1.791 -1.4483 -1.3173  0.7998
38598SOL     OW17800   5.577   6.189   5.371  0.4362 -0.2693  0.5993
38598SOL    HW117801   5.576   6.116   5.310  1.1965 -2.2889  2.8581
38598SOL    HW217802   5.496   6.238   5.352 -1.1598 -2.8475  0.2870
38599SOL     OW17803   0.985   3.669   5.101 -0.0129 -0.0953  0.7023
38599SOL    HW117804   0.999   3.593   5.045 -0.4571  0.2080  0.1726
38599SOL    HW217805   0.950   3.736   5.043 -0.2916  0.2886  1.3018
38600SOL     OW17806   6.476   8.441   7.992  0.0100 -0.0843 -0.0232
38600SOL    HW117807   6.497   8.351   8.015  0.0107 -0.2832 -0.7784
38600SOL    HW217808   6.409   8.467   8.055  2.3009  0.5076  2.3493
38601SOL     OW17809   7.165   5.478  10.635 -0.2023  0.2140  0.2782
38601SOL    HW117810   7.227   5.550  10.617 -0.3625  0.1454 -0.5892
38601SOL    HW217811   7.140   5.491  10.726  0.0974  1.0134  0.2575
38602SOL     OW17812   6.679   3.679   6.300 -0.2026 -0.6972 -0.1095
38602SOL    HW117813   6.671   3.595   6.256 -0.6767  0.3181 -2.0657
38602SOL    HW217814   6.594   3.692   6.343  0.1922 -1.6019  0.9827
38603SOL     OW17815   5.419   0.380   1.530  0.1731 -0.0425  0.1417
38603SOL    HW117816   5.341   0.424   1.497  1.1694  1.4091 -0.3407
38603SOL    HW217817   5.489   0.406   1.471  1.7456  1.5635  2.5445
38604SOL     OW17818  10.888  10.191   8.457 -0.1527  0.0710 -0.0169
38604SOL    HW117819  10.863  10.138   8.533  0.9495  0.7018  0.8134
38604SOL    HW217820  10.970  10.151   8.428 -0.8209 -0.4840 -1.2210
38605SOL     OW17821  10.040   5.560   7.336 -0.1939 -0.1455  0.2363
38605SOL    HW117822  10.065   5.518   7.253 -0.1344 -0.6169  0.4869
38605SOL    HW217823  10.116   5.548   7.393 -1.1195 -2.0730  1.1880
38606SOL     OW17824   3.591   9.671   0.923 -0.1639  0.0858  0.0702
38606SOL    HW117825   3.523   9.723   0.879 -1.3701 -0.4957  1.1945
38606SOL    HW217826   3.575   9.684   1.016 -0.0333 -1.7009  0.3767
38607SOL     OW17827   9.861   8.393   4.317 -0.2601 -0.4226  0.0109
38607SOL    HW117828   9.781   8.347   4.341  1.3249 -3.2538  0.3448
38607SOL    HW217829   9.875   8.371   4.225 -0.3200  0.8212 -0.3086
38608SOL     OW17830   3.581   9.341   0.394 -0.2270 -0.2082  0.1591
38608SOL    HW117831   3.613   9.309   0.309 -1.4418 -2.0132  0.3372
38608SOL    HW217832   3.530   9.419   0.372 -0.7229 -0.7844 -0.8054
38609SOL     OW17833   4.113  11.216   5.453 -0.0306 -0.2327  0.4453
38609SOL    HW117834   4.199  11.205   5.494 -0.7418  0.4671  2.2116
38609SOL    HW217835   4.071  11.130   5.461  0.7161 -0.7908 -1.0759
38610SOL     OW17836   9.842   5.301   4.555 -0.0174  0.4687 -0.0916
38610SOL    HW117837   9.803   5.214   4.566 -1.7550  1.4792  2.9942
38610SOL    HW217838   9.932   5.283   4.529 -0.0788 -2.3122  1.2401
38611SOL     OW17839  10.334   5.775   4.256  0.1628  0.7570  0.5499
38611SOL    HW117840  10.249   5.814   4.272 -0.0228  1.0497 -0.9991
38611SOL    HW217841  10.360   5.807   4.170  0.7362 -1.2302 -0.0751
38612SOL     OW17842   1.452   8.112   2.740 -0.3726 -0.5999 -0.2965
38612SOL    HW117843   1.379   8.060   2.776  1.0861 -2.9884 -0.5842
38612SOL    HW217844   1.413   8.159   2.666 -1.8544 -0.9406  0.2150
38613SOL     OW17845   7.818   2.682   6.830  0.0175  0.4818 -0.1654
38613SOL    HW117846   7.774   2.626   6.894 -0.4339  1.0261  0.0104
38613SOL    HW217847   7.794   2.644   6.745  0.0138  0.1969 -0.0397
38614SOL     OW17848   1.138   7.035   1.142 -0.2940  0.2790 -0.1666
38614SOL    HW117849   1.170   6.946   1.154  3.1000  1.6150  2.0210
38614SOL    HW217850   1.074   7.047   1.213 -0.4176 -0.2549 -0.1849
38615SOL     OW17851   8.449   5.516   4.592 -0.0333 -0.6489 -0.5238
38615SOL    HW117852   8.481   5.426   4.585 -0.3874 -0.7776 -0.5208
38615SOL    HW217853   8.524   5.566   4.624  0.1560 -0.9506 -0.4934
38616SOL     OW17854   8.618   1.730  10.490 -0.8646  0.1538  0.4214
38616SOL    HW117855   8.710   1.708  10.476 -0.9655  0.3111 -0.5361
38616SOL    HW217856   8.576   1.646  10.511 -0.7954 -0.1922 -0.7621
38617SOL     OW17857   0.532   3.466   2.037 -0.3025 -0.2337  0.1845
38617SOL    HW117858   0.610   3.478   1.983  0.2722  1.0671  1.2522
38617SOL    HW217859   0.526   3.372   2.051  1.6428 -0.2978  0.8643
38618SOL     OW17860   9.487   4.458   9.017 -0.3165 -0.1403  0.1461
38618SOL    HW117861   9.441   4.540   8.998 -1.4478 -0.9182 -0.5824
38618SOL    HW217862   9.439   4.420   9.090  0.0041 -0.3227  0.2637
38619SOL     OW17863   5.119   3.360  10.365  0.1960  0.2259  0.1816
38619SOL    HW117864   5.178   3.371  10.440  0.1003  0.8896  0.1604
38619SOL    HW217865   5.163   3.294  10.311  1.2864  1.2204 -0.1941
38620SOL     OW17866   0.985   2.068  10.261 -0.2506  0.1446 -0.1944
38620SOL    HW117867   0.991   2.046  10.354  0.3880  0.6177 -0.1226
38620SOL    HW217868   1.010   1.987  10.216  0.2562  0.1604  0.0535
38621SOL     OW17869   3.565   6.349   7.809 -0.3078 -0.5224  0.5067
38621SOL    HW117870   3.536   6.425   7.758 -0.2247 -1.6498 -1.2913
38621SOL    HW217871   3.498   6.339   7.877 -0.6458  0.7687  0.3905
38622SOL     OW17872   1.698   5.263   2.860 -0.3690  0.2672 -0.1175
38622SOL    HW117873   1.702   5.216   2.943 -2.0709  1.0833  0.4821
38622SOL    HW217874   1.604   5.266   2.839 -0.1237  1.5518 -1.1825
38623SOL     OW17875   1.112   8.050   4.128  1.0715  0.0327  0.4702
38623SOL    HW117876   1.100   7.988   4.200 -0.8809 -0.8568 -0.5389
38623SOL    HW217877   1.039   8.111   4.137  3.5150  3.0111  2.0781
38624SOL     OW17878  10.027   0.706   1.653  1.2398  0.5213  0.2196
38624SOL    HW117879  10.079   0.694   1.574  1.7856  1.8417  0.3536
38624SOL    HW217880   9.976   0.625   1.661  1.5206  0.1813 -1.2092
38625SOL     OW17881   9.221   5.763   0.340  0.3638  0.3684  0.3311
38625SOL    HW117882   9.274   5.819   0.283 -1.0400  0.0099 -1.4017
38625SOL    HW217883   9.151   5.820   0.371  0.6183  0.3233  1.0131
38626SOL     OW17884   8.618   5.454   5.396 -0.0137 -0.2163  0.1854
38626SOL    HW117885   8.574   5.369   5.400 -0.2389 -0.1437 -0.6829
38626SOL    HW217886   8.547   5.518   5.395  0.0304 -0.1207 -2.0299
38627SOL     OW17887   8.766   1.264   8.133 -0.4174  0.4036 -0.4172
38627SOL    HW117888   8.782   1.226   8.219 -0.5258  1.3656  0.0480
38627SOL    HW217889   8.673   1.248   8.117  0.0693 -1.7834 -1.4006
38628SOL     OW17890   6.176   3.680   9.765 -0.1364  0.1119 -0.1011
38628SOL    HW117891   6.128   3.739   9.706 -0.5235  0.4003  0.4971
38628SOL    HW217892   6.108   3.627   9.806  0.2623 -1.5026 -1.3901
38629SOL     OW17893   8.990   5.257   1.996 -0.4400 -0.4507 -0.3953
38629SOL    HW117894   9.056   5.197   1.961 -0.9980 -1.6828  0.5956
38629SOL    HW217895   8.999   5.251   2.091 -2.0336 -0.7405 -0.2293
38630SOL     OW17896   8.641   4.930  10.769  0.5515  0.6132  0.2778
38630SOL    HW117897   8.659   5.021  10.749  2.8908  0.2428  0.4222
38630SOL    HW217898   8.709   4.905  10.831  1.5288 -1.8708 -1.6255
38631SOL     OW17899   7.273   8.574   4.072  0.1347 -0.0423  0.7279
38631SOL    HW117900   7.236   8.651   4.115  0.3366 -0.2955  1.3592
38631SOL    HW217901   7.240   8.579   3.982  3.0767  2.8495 -0.4050
38632SOL     OW17902   7.435   4.117   5.603  0.3186 -0.5972 -0.6326
38632SOL    HW117903   7.448   4.062   5.526 -0.3707 -2.3395  0.4195
38632SOL    HW217904   7.354   4.165   5.585  0.5965 -0.3799 -1.3225
38633SOL     OW17905  10.451  10.597   9.940  0.4405 -0.0739  0.1532
38633SOL    HW117906  10.431  10.652  10.016  0.5225  0.5818 -0.2900
38633SOL    HW217907  10.406  10.639   9.867  3.3921  1.5219 -0.9044
38634SOL     OW17908   4.036   6.127   1.752  0.9774 -0.3232  0.4292
38634SOL    HW117909   4.022   6.036   1.776 -0.8935 -0.1432  0.1895
38634SOL    HW217910   3.949   6.168   1.761  1.1224  0.7802 -2.2123
38635SOL     OW17911   7.520   4.246   3.611  0.6004  0.3328 -0.1135
38635SOL    HW117912   7.442   4.218   3.658  0.6954 -2.7157 -1.5546
38635SOL    HW217913   7.571   4.294   3.676 -1.2811  0.1665  1.5841
38636SOL     OW17914   7.853   5.050  10.056 -0.0618  0.1773 -0.3031
38636SOL    HW117915   7.864   5.001  10.138  0.6866  0.4502 -0.2303
38636SOL    HW217916   7.887   4.991   9.989  1.6227  0.8728 -0.1237
38637SOL     OW17917   0.139   8.256   9.400  0.3881 -0.6180  0.4104
38637SOL    HW117918   0.134   8.303   9.316 -1.3256 -1.2275  0.1209
38637SOL    HW217919   0.144   8.325   9.466 -2.9700  0.1437  0.0611
38638SOL     OW17920   3.271   3.120  10.135 -0.3738 -0.4523  0.2421
38638SOL    HW117921   3.181   3.140  10.109 -0.5809 -0.0442  1.2403
38638SOL    HW217922   3.285   3.030  10.105 -1.2588 -0.6731  0.4558
38639SOL     OW17923   3.528   8.296  11.140  0.0607 -0.3382  0.0724
38639SOL    HW117924   3.598   8.235  11.163  0.3838 -0.9182 -2.2090
38639SOL    HW217925   3.455   8.241  11.112  0.0757  0.2713 -1.2576
38640SOL     OW17926   9.553   3.962  10.433  0.2243  0.0072  0.2424
38640SOL    HW117927   9.548   3.968  10.529 -3.8449  0.1062  0.1671
38640SOL    HW217928   9.481   4.017  10.402  1.2384 -0.2762 -2.9200
38641SOL     OW17929  10.871   5.325   2.469 -0.2860 -0.9255 -0.4682
38641SOL    HW117930  10.920   5.243   2.469 -1.4419 -1.6292  0.0993
38641SOL    HW217931  10.804   5.313   2.401  0.2536  0.0089 -1.1972
38642SOL     OW17932   8.346   8.534   4.788  0.4600  0.0114 -0.7879
38642SOL    HW117933   8.354   8.625   4.760 -1.0951 -0.0424 -1.5330
38642SOL    HW217934   8.436   8.504   4.799  1.0191  2.0812  1.0416
38643SOL     OW17935  10.561   4.721   0.157 -0.1124  0.0490 -0.1717
38643SOL    HW117936  10.489   4.784   0.150 -0.5673 -0.6381 -2.2574
38643SOL    HW217937  10.569   4.683   0.069 -0.1839 -3.1620  1.0575
38644SOL     OW17938   0.264   3.675   8.143 -0.1562  0.4701  0.1342
38644SOL    HW117939   0.189   3.704   8.194 -1.3011 -1.2063 -0.5069
38644SOL    HW217940   0.234   3.677   8.052 -0.7633 -3.6281  0.0886
38645SOL     OW17941   2.949  10.644   4.968 -0.0407  0.1771  0.0786
38645SOL    HW117942   2.988  10.588   5.035  0.1037 -0.8394 -0.8276
38645SOL    HW217943   2.855  10.631   4.976 -0.1322  1.3040  1.1254
38646SOL     OW17944   9.497   7.230   7.394 -0.1645  0.2633 -0.4834
38646SOL    HW117945   9.471   7.201   7.307 -0.5017  0.0321 -0.3087
38646SOL    HW217946   9.552   7.307   7.379  2.1136 -1.3784 -1.0506
38647SOL     OW17947   1.389   3.722   6.741 -0.4543 -0.0993  0.8766
38647SOL    HW117948   1.475   3.708   6.779 -0.5455 -0.9742  0.7881
38647SOL    HW217949   1.338   3.764   6.811 -0.9758 -2.7518  2.2441
38648SOL     OW17950   5.346   9.702   8.879  0.5383 -0.2949 -0.1381
38648SOL    HW117951   5.319   9.769   8.815 -2.6308 -0.9578  0.3518
38648SOL    HW217952   5.415   9.745   8.930 -2.0944  3.1820  0.9191
38649SOL     OW17953   4.055   0.859   3.607 -0.2022 -0.2384  0.4869
38649SOL    HW117954   4.003   0.821   3.678  0.4442  0.8273  1.5698
38649SOL    HW217955   4.141   0.817   3.616  0.4302  1.1691  1.5145
38650SOL     OW17956   8.615   8.094   4.064 -0.5126 -0.3805  0.6821
38650SOL    HW117957   8.691   8.092   4.122  0.6779 -0.5719 -0.8186
38650SOL    HW217958   8.599   8.003   4.042  0.7127 -0.1914 -1.2867
38651SOL     OW17959   9.227   1.579   0.395  0.3754 -0.1801  0.0147
38651SOL    HW117960   9.229   1.665   0.438  1.3613 -0.6707  1.0027
38651SOL    HW217961   9.155   1.585   0.333  0.4828  1.3988 -0.0063
38652SOL     OW17962   0.265   2.562   5.104  0.6722 -0.0605  0.9478
38652SOL    HW117963   0.295   2.618   5.175  0.8169 -0.5905  1.3134
38652SOL    HW217964   0.227   2.486   5.148 -0.9151  0.4360  0.4957
38653SOL     OW17965   4.377   2.454  11.260 -0.5303  0.9972  0.5187
38653SOL    HW117966   4.398   2.362  11.248 -3.7414  0.4163 -1.9014
38653SOL    HW217967   4.461   2.499  11.253  1.0302 -1.6334  1.1011
38654SOL     OW17968   6.678   6.248   1.795  0.3742 -0.0534  0.6730
38654SOL    HW117969   6.688   6.204   1.711  0.8111 -0.0195  0.7069
38654SOL    HW217970   6.646   6.180   1.855 -0.6540  0.0931  0.3121
38655SOL     OW17971   3.024   9.326   5.503 -0.0398 -0.3324 -0.1614
38655SOL    HW117972   3.045   9.417   5.484  1.0578 -0.5941 -0.3055
38655SOL    HW217973   3.096   9.276   5.463  0.0904 -1.1740  1.0496
38656SOL     OW17974   6.657   5.239   6.981  0.1841 -0.2256 -0.6000
38656SOL    HW117975   6.685   5.330   6.971  0.4932 -0.3268 -0.7011
38656SOL    HW217976   6.569   5.244   7.016  1.2092  0.1145  2.1754
38657SOL     OW17977   9.299   8.612   2.595 -0.9051  0.8153  0.2918
38657SOL    HW117978   9.330   8.614   2.686  0.2165 -0.6209 -0.0249
38657SOL    HW217979   9.255   8.527   2.587 -0.2724  0.5775 -0.7291
38658SOL     OW17980  10.989   9.803  10.947 -0.1234  0.4442  0.4778
38658SOL    HW117981  10.923   9.790  10.879 -0.3068 -1.4587  0.9454
38658SOL    HW217982  11.072   9.780  10.906 -0.3959 -2.1249  1.1931
38659SOL     OW17983   6.847   8.376   7.528 -0.2742  0.4451 -0.6043
38659SOL    HW117984   6.768   8.427   7.545 -2.6930 -1.8894 -3.6306
38659SOL    HW217985   6.816   8.286   7.518  2.6504 -0.4969 -2.5970
38660SOL     OW17986   0.143   6.649   4.702 -0.0350  0.2072  0.9355
38660SOL    HW117987   0.167   6.645   4.609  0.0982 -1.1727  1.0148
38660SOL    HW217988   0.048   6.661   4.702 -0.1079 -0.3565  0.6192
38661SOL     OW17989   0.528   0.451   3.256 -0.2129  0.2559 -0.2615
38661SOL    HW117990   0.590   0.401   3.309  0.1204  0.2700 -0.6352
38661SOL    HW217991   0.444   0.442   3.303  0.1420  0.5520  0.4503
38662SOL     OW17992   9.404   4.230   2.315 -0.1746  0.6748  0.5560
38662SOL    HW117993   9.316   4.193   2.324 -1.7299  3.6587 -0.6576
38662SOL    HW217994   9.436   4.194   2.233 -0.6859  0.2953  0.5128
38663SOL     OW17995   6.682   0.531  11.260 -0.0572 -0.6199  0.1573
38663SOL    HW117996   6.718   0.444  11.245  2.3320 -0.3546  3.2903
38663SOL    HW217997   6.721   0.585  11.191 -0.4980 -1.7250 -0.9960
38664SOL     OW17998   2.294   1.803   1.017  0.3364  0.1313 -0.1666
38664SOL    HW117999   2.305   1.834   1.107 -1.8438 -0.0992  0.2129
38664SOL    HW218000   2.384   1.802   0.982  1.4435 -1.1514  2.4245
38665SOL     OW18001   7.530  11.155   3.155  0.2177 -0.6769  0.5574
38665SOL    HW118002   7.446  11.188   3.125  0.8444  0.4541 -0.0561
38665SOL    HW218003   7.528  11.062   3.135 -0.9349 -0.6898  0.6822
38666SOL     OW18004   9.881   2.774   1.531 -0.2766  0.2541 -0.2152
38666SOL    HW118005   9.818   2.823   1.478 -0.5876  1.1966  0.9859
38666SOL    HW218006   9.915   2.707   1.471 -2.2841 -0.1856 -0.9468
38667SOL     OW18007   7.924  10.557   3.020 -0.6507  0.6204  0.0022
38667SOL    HW118008   7.912  10.634   3.075 -1.7361  0.8437 -0.5179
38667SOL    HW218009   7.900  10.586   2.932  3.4329  0.9936 -1.2071
38668SOL     OW18010   2.305   5.191   3.599  0.4590  0.0255  0.0881
38668SOL    HW118011   2.347   5.160   3.519  0.4453 -0.0595  0.1137
38668SOL    HW218012   2.301   5.114   3.656  2.9690  0.6529  1.2665
38669SOL     OW18013   6.724   7.586   9.328 -0.1730  0.1848  0.5771
38669SOL    HW118014   6.679   7.540   9.400 -1.0871  1.2284  0.7130
38669SOL    HW218015   6.760   7.516   9.274 -0.3028 -0.6529  1.5314
38670SOL     OW18016   2.924   9.543   5.742  0.6798 -0.6910 -0.2011
38670SOL    HW118017   2.936   9.465   5.795  0.8375 -1.4522 -1.3207
38670SOL    HW218018   2.987   9.606   5.776 -1.0987 -0.1147  2.3464
38671SOL     OW18019   5.118   4.740   5.956  0.3840  0.2864 -0.7872
38671SOL    HW118020   5.141   4.663   5.904 -2.5845 -1.8857  0.8296
38671SOL    HW218021   5.025   4.731   5.974  0.8021  1.7671  3.3888
38672SOL     OW18022   0.919   1.577  10.260 -0.2634  0.1413  0.1246
38672SOL    HW118023   0.897   1.658  10.214 -1.7560 -0.4699 -0.2951
38672SOL    HW218024   0.858   1.512  10.225  0.0402 -0.8718  1.3865
38673SOL     OW18025  10.694   8.118   2.851 -0.3633 -0.0279  0.3557
38673SOL    HW118026  10.692   8.178   2.926  0.5394 -1.4462  1.5840
38673SOL    HW218027  10.730   8.170   2.779  0.5296  0.8559  1.4092
38674SOL     OW18028   7.891   0.960   5.501  0.3058 -0.0260  0.5229
38674SOL    HW118029   7.985   0.949   5.515  0.5674  0.7841 -0.4924
38674SOL    HW218030   7.852   0.942   5.587  1.2975 -1.2712  0.7383
38675SOL     OW18031   0.462   4.347   5.413 -0.4011  0.3635 -0.2835
38675SOL    HW118032   0.537   4.301   5.375 -0.2642 -0.9517  1.4110
38675SOL    HW218033   0.417   4.386   5.339  0.4836 -1.0746 -1.6369
38676SOL     OW18034  10.656  11.205  10.539  0.3634  0.2981  0.0941
38676SOL    HW118035  10.662  11.201  10.634  0.3000  2.8972  0.2758
38676SOL    HW218036  10.615  11.122  10.514  1.2818 -0.8770  2.2055
38677SOL     OW18037   4.633   5.306   7.443  0.4213  0.2683 -0.2127
38677SOL    HW118038   4.618   5.381   7.501  0.3159  1.1072 -1.2901
38677SOL    HW218039   4.728   5.290   7.449  0.2908 -0.2242  0.8384
38678SOL     OW18040  10.564   8.637   7.496 -0.9154  0.0345 -0.4833
38678SOL    HW118041  10.637   8.576   7.487 -2.1437 -1.2837 -2.0534
38678SOL    HW218042  10.546   8.637   7.590  0.7558  0.0177 -0.1169
38679SOL     OW18043   3.661   3.685   8.298  0.1997  0.1525  0.3226
38679SOL    HW118044   3.629   3.665   8.210  0.5968 -3.7632  0.8764
38679SOL    HW218045   3.756   3.676   8.291  0.2691  0.2741  1.0195
38680SOL     OW18046   1.286   4.888   8.260  0.4244  0.4167  0.9774
38680SOL    HW118047   1.282   4.839   8.342 -1.5181 -1.3036 -0.0465
38680SOL    HW218048   1.343   4.835   8.204 -3.0897 -1.8750 -0.7387
38681SOL     OW18049  10.731   4.044   5.548 -0.1931 -0.2216 -0.1741
38681SOL    HW118050  10.799   3.978   5.532 -2.9549 -4.2479  2.6143
38681SOL    HW218051  10.737   4.064   5.641 -2.4933 -0.4467  0.0979
38682SOL     OW18052  10.879   3.765   2.638 -0.0435 -0.0310  0.1817
38682SOL    HW118053  10.788   3.796   2.635  0.3149  1.0229 -0.2751
38682SOL    HW218054  10.930   3.837   2.601  1.0145 -0.5087  0.6698
38683SOL     OW18055   5.371   1.716   8.212 -0.1391 -0.5910  0.3519
38683SOL    HW118056   5.317   1.647   8.174  1.0605 -1.9978  1.0908
38683SOL    HW218057   5.454   1.673   8.231  1.2749  1.4782 -0.7398
38684SOL     OW18058  10.059   8.052   6.365 -0.0689  0.5575 -0.5482
38684SOL    HW118059  10.029   8.083   6.451  0.1026 -1.0529  0.1506
38684SOL    HW218060   9.985   8.066   6.307 -0.8653  0.0351  0.3018
38685SOL     OW18061   7.268   8.681   3.036 -0.4760  0.0601  0.1895
38685SOL    HW118062   7.287   8.772   3.013  1.7531 -0.5813 -0.7384
38685SOL    HW218063   7.208   8.651   2.968 -1.5154  0.9025  0.7002
38686SOL     OW18064   7.672   2.086  10.560  0.1879  0.2838 -0.8455
38686SOL    HW118065   7.645   2.020  10.624  0.7135  0.0144 -0.8975
38686SOL    HW218066   7.734   2.142  10.607  0.1815  0.3970 -0.9696
38687SOL     OW18067   8.247   3.188   1.070 -0.3202  0.8959 -0.3338
38687SOL    HW118068   8.313   3.164   1.005 -0.8295 -1.9805  0.0614
38687SOL    HW218069   8.293   3.185   1.154 -0.9850 -1.9309  0.0342
38688SOL     OW18070   3.858   2.833   5.387 -0.2338 -0.3965 -0.5420
38688SOL    HW118071   3.879   2.857   5.297  4.1538 -1.2521  0.0380
38688SOL    HW218072   3.888   2.908   5.439  0.1947 -1.1730  0.3558
38689SOL     OW18073   7.122   3.437   0.544 -0.7998  0.8718 -0.4757
38689SOL    HW118074   7.109   3.439   0.639 -0.9381  2.9444 -0.5079
38689SOL    HW218075   7.048   3.486   0.508  0.7616  2.6566 -1.4400
38690SOL     OW18076   3.317   8.313   0.957  0.2180 -0.0668 -0.2844
38690SOL    HW118077   3.249   8.366   0.998  0.2568 -0.5808  0.4822
38690SOL    HW218078   3.313   8.229   1.004 -0.9698 -1.3739 -2.5799
38691SOL     OW18079   3.885   3.857   5.838  0.1199  0.9218 -0.2985
38691SOL    HW118080   3.824   3.871   5.910 -0.2880  0.0784 -0.4750
38691SOL    HW218081   3.855   3.777   5.796  2.3489 -0.4748  0.6334
38692SOL     OW18082   8.594  10.950   7.161  0.2404 -0.2757 -0.4259
38692SOL    HW118083   8.602  11.022   7.224  0.7992  1.0482 -1.9491
38692SOL    HW218084   8.578  10.872   7.216  3.0899  0.3624  1.5616
38693SOL     OW18085   4.367   9.419   2.921  0.1202  0.4389  0.3692
38693SOL    HW118086   4.286   9.372   2.944 -0.6020  1.8646  0.8378
38693SOL    HW218087   4.401   9.449   3.005  2.1468 -1.6264  0.3981
38694SOL     OW18088   6.520   4.069   9.617 -0.2589 -0.4290 -0.1004
38694SOL    HW118089   6.545   4.057   9.525  0.3825  0.2509 -0.0247
38694SOL    HW218090   6.520   4.164   9.629  3.3466 -0.5020  1.5587
38695SOL     OW18091   2.577   7.357   5.670 -0.3762  0.4006  0.0442
38695SOL    HW118092   2.604   7.290   5.732 -1.8370  2.1461  2.8125
38695SOL    HW218093   2.606   7.440   5.709 -0.0991  1.5350 -2.3701
38696SOL     OW18094   3.631   4.028   3.178  0.5873  0.0521  0.6737
38696SOL    HW118095   3.569   3.962   3.208 -1.2665  1.0608 -0.7704
38696SOL    HW218096   3.607   4.108   3.225 -0.1924  0.8097 -0.9513
38697SOL     OW18097   9.159   4.690   4.156 -0.6151 -0.8222  0.4333
38697SOL    HW118098   9.161   4.663   4.064  0.2305  0.8550 -0.0894
38697SOL    HW218099   9.251   4.701   4.180 -0.8340 -1.1260  1.4567
38698SOL     OW18100   9.564   6.721   0.220 -0.0290 -0.1296  0.0758
38698SOL    HW118101   9.474   6.709   0.190 -0.4715  1.5981  0.6319
38698SOL    HW218102   9.556   6.756   0.308  1.1636  1.2620 -0.3349
38699SOL     OW18103   5.593   6.859   8.548  0.2213  0.2225 -0.0265
38699SOL    HW118104   5.651   6.786   8.570 -1.2774 -0.6587  1.1979
38699SOL    HW218105   5.652   6.934   8.535  1.7257 -0.9895 -0.4508
38700SOL     OW18106   2.879   7.766  10.437 -0.3204  0.3988  0.0200
38700SOL    HW118107   2.948   7.814  10.482  0.1161  0.6083 -0.8385
38700SOL    HW218108   2.798   7.794  10.479  0.1069  0.2727  0.9330
38701SOL     OW18109  10.375   7.533   2.099 -0.1129  0.3393 -0.1750
38701SOL    HW118110  10.283   7.554   2.086  0.1071  1.2571 -0.3505
38701SOL    HW218111  10.386   7.531   2.194 -0.7197 -1.7391 -0.0999
38702SOL     OW18112   2.280   7.784   7.212  0.5153 -0.0215  0.3809
38702SOL    HW118113   2.214   7.796   7.280  0.3159 -0.2465  0.2296
38702SOL    HW218114   2.268   7.694   7.183 -2.2811  1.1937 -2.9454
38703SOL     OW18115  10.672   0.479   7.972  0.4386  0.3095 -0.1636
38703SOL    HW118116  10.752   0.511   7.930  2.4908 -2.3790  1.3982
38703SOL    HW218117  10.697   0.463   8.062 -2.2550  0.4276  0.6943
38704SOL     OW18118   6.927   0.835   4.150  1.0091  0.3463  0.0311
38704SOL    HW118119   6.961   0.746   4.139  1.0948  0.4908 -1.0495
38704SOL    HW218120   6.961   0.864   4.234 -0.2483 -1.1780  1.1251
38705SOL     OW18121   6.037   3.845   3.387  0.2127 -0.0822  0.2240
38705SOL    HW118122   6.108   3.798   3.345 -0.0500  0.2832 -0.6658
38705SOL    HW218123   6.068   3.864   3.475  0.5451 -1.3944  0.4042
38706SOL     OW18124   6.601   3.387   2.981  0.1371 -0.4422  0.6716
38706SOL    HW118125   6.568   3.311   3.027 -1.9695  0.5219  0.8723
38706SOL    HW218126   6.695   3.387   2.999  0.9841 -4.9384 -2.2650
38707SOL     OW18127   5.521   9.859   6.892  0.1945  0.2849  0.0338
38707SOL    HW118128   5.471   9.823   6.965 -1.7329 -0.2490 -1.4410
38707SOL    HW218129   5.580   9.922   6.932  0.3035 -1.0743  2.1937
38708SOL     OW18130   8.646   0.553   0.443  0.1047  0.6589  0.2289
38708SOL    HW118131   8.640   0.458   0.432 -0.4059  0.8001 -0.7508
38708SOL    HW218132   8.698   0.564   0.523 -1.6549 -0.4702  1.6287
38709SOL     OW18133   2.704   3.646   6.451 -0.2061 -0.1105 -0.1811
38709SOL    HW118134   2.644   3.720   6.440 -2.3105 -1.4098  1.5691
38709SOL    HW218135   2.728   3.621   6.362 -2.4634  0.3553 -0.9901
38710SOL     OW18136   2.586   0.418   0.625 -0.1888 -0.5096 -0.0700
38710SOL    HW118137   2.627   0.347   0.576 -0.2454 -0.3107 -0.4085
38710SOL    HW218138   2.493   0.414   0.601 -0.0992  0.0339 -0.5359
38711SOL     OW18139   5.935  10.286   6.994  0.1703  0.2263 -0.0297
38711SOL    HW118140   5.930  10.271   7.088 -2.4623  1.7004  0.1475
38711SOL    HW218141   6.009  10.347   6.984  0.2394  0.3558  1.1118
38712SOL     OW18142  11.204  10.450   3.200 -0.0439  0.3864  0.5524
38712SOL    HW118143  11.271  10.465   3.134 -0.6375  0.1699 -0.1180
38712SOL    HW218144  11.214  10.358   3.225  0.9350  0.7668  1.6389
38713SOL     OW18145   9.397   3.747   7.398 -0.3212 -0.2244  0.0605
38713SOL    HW118146   9.348   3.710   7.471 -0.8193  1.2048  0.4821
38713SOL    HW218147   9.330   3.786   7.342  0.3210  2.4937  1.0606
38714SOL     OW18148   5.586   2.854   0.458 -0.2834  0.0894  0.0230
38714SOL    HW118149   5.582   2.789   0.528  2.1673  0.6770  0.7818
38714SOL    HW218150   5.584   2.939   0.503  1.7611  0.4738 -0.5186
38715SOL     OW18151   3.364   4.313   5.048 -0.6013 -0.1463  0.0266
38715SOL    HW118152   3.374   4.255   5.124 -2.7732 -0.0362  0.4460
38715SOL    HW218153   3.341   4.254   4.976  0.0587 -0.0893 -0.2414
38716SOL     OW18154   0.230   8.926   4.268 -0.0532  0.3781 -0.2934
38716SOL    HW118155   0.319   8.934   4.302 -0.6842  0.2251  1.4632
38716SOL    HW218156   0.179   8.989   4.318 -1.3039 -0.8959  0.1061
38717SOL     OW18157  10.787  10.278   4.994  0.0066 -0.2793 -0.2829
38717SOL    HW118158  10.857  10.212   4.993 -1.4951 -1.9324 -0.2151
38717SOL    HW218159  10.749  10.272   5.082 -0.5052  0.3118 -0.4556
38718SOL     OW18160   0.623   7.618   2.865  0.0863  0.1156 -0.0319
38718SOL    HW118161   0.561   7.547   2.850  0.7680 -0.4706 -0.1181
38718SOL    HW218162   0.585   7.693   2.820 -0.0731 -0.4937 -0.9411
38719SOL     OW18163   7.592   7.996   1.728 -0.4031 -0.0778  0.5172
38719SOL    HW118164   7.542   7.944   1.665 -1.2834 -1.4490  2.2656
38719SOL    HW218165   7.530   8.060   1.761 -0.2319 -0.0157  0.7199
38720SOL     OW18166   4.616   6.212   1.298  0.1427 -0.2352 -0.2600
38720SOL    HW118167   4.662   6.154   1.237  0.4630 -2.0776  1.5940
38720SOL    HW218168   4.685   6.268   1.333  0.1414  0.1146 -0.8068
38721SOL     OW18169   6.097   9.149   5.504 -0.1513 -0.0916 -0.5344
38721SOL    HW118170   6.117   9.162   5.411  0.7870  0.7625 -0.2270
38721SOL    HW218171   6.005   9.175   5.512  0.0310  0.7648 -1.0546
38722SOL     OW18172   4.867   1.084  10.719  0.5145  0.4348 -0.2150
38722SOL    HW118173   4.868   1.175  10.746 -2.5538  0.4144  0.2834
38722SOL    HW218174   4.776   1.067  10.695  0.9532 -2.5464 -0.1328
38723SOL     OW18175   5.640   9.264   9.193 -0.1443  0.2063 -0.1909
38723SOL    HW118176   5.577   9.310   9.249  1.5005 -1.2717  3.1267
38723SOL    HW218177   5.725   9.300   9.218  0.6273  0.4447 -2.8283
38724SOL     OW18178   9.085   7.702   1.985 -0.3619 -0.0924 -0.0077
38724SOL    HW118179   9.160   7.760   1.997 -0.3319  0.2610 -1.6609
38724SOL    HW218180   9.036   7.707   2.067  1.4101 -0.3401  1.1033
38725SOL     OW18181   4.418   8.969   2.103 -0.3162 -0.0192  0.4165
38725SOL    HW118182   4.452   9.058   2.111  0.2736 -0.3035  1.2250
38725SOL    HW218183   4.405   8.940   2.193  1.9098 -1.6342  0.3044
38726SOL     OW18184   2.284   4.805  10.356  0.2401 -0.2540  0.0366
38726SOL    HW118185   2.287   4.713  10.384  1.2184 -0.0177  0.7614
38726SOL    HW218186   2.270   4.854  10.436  1.2463  0.3203 -0.1254
38727SOL     OW18187   8.293   4.450   2.101 -0.7858 -0.5788  0.0861
38727SOL    HW118188   8.368   4.399   2.070 -0.8990 -0.6887 -0.0106
38727SOL    HW218189   8.254   4.486   2.021  0.2210  0.9876  0.2417
38728SOL     OW18190   0.195   5.711   8.584  1.4381 -0.6150 -1.2234
38728SOL    HW118191   0.280   5.750   8.606  1.6132 -1.4680 -0.3801
38728SOL    HW218192   0.216   5.638   8.525  1.3816 -1.4406 -0.2370
38729SOL     OW18193   8.638   4.252   2.519 -0.3316  0.3001 -0.0827
38729SOL    HW118194   8.637   4.194   2.596 -2.0637  0.8591  0.3692
38729SOL    HW218195   8.612   4.195   2.446 -0.9392  0.2647  0.1594
38730SOL     OW18196   0.301  10.447   6.179 -0.3477 -0.0413 -0.1867
38730SOL    HW118197   0.285  10.513   6.246 -0.9499  1.3525 -1.6311
38730SOL    HW218198   0.223  10.451   6.122 -0.8638 -2.6843  0.1895
38731SOL     OW18199   3.809   0.940   9.468 -0.3237 -0.2450 -1.2167
38731SOL    HW118200   3.770   0.866   9.514 -0.2042 -1.5727 -3.1321
38731SOL    HW218201   3.755   1.015   9.492 -0.6424 -0.9892  0.5278
38732SOL     OW18202   3.443   3.446   8.803  0.0725 -0.1511  0.8061
38732SOL    HW118203   3.370   3.505   8.782 -0.2406 -0.7858  0.0702
38732SOL    HW218204   3.515   3.476   8.748  0.5688  0.8497  1.9645
38733SOL     OW18205   8.719   5.844   5.703  0.1703 -0.0746 -0.4821
38733SOL    HW118206   8.644   5.890   5.665 -0.8354 -0.6957  0.6828
38733SOL    HW218207   8.752   5.905   5.770 -1.0995 -0.9301  0.9911
38734SOL     OW18208   3.554   9.218   4.242  0.0328  0.1598 -1.0036
38734SOL    HW118209   3.478   9.256   4.197 -1.0449 -1.0706 -0.3003
38734SOL    HW218210   3.589   9.155   4.179 -1.0118 -1.0069 -0.4575
38735SOL     OW18211   0.478   8.631   1.726  0.1301 -0.3973 -0.0442
38735SOL    HW118212   0.388   8.664   1.721  0.4342  0.5626  0.6184
38735SOL    HW218213   0.498   8.631   1.819  1.8280  2.2012 -0.3310
38736SOL     OW18214   3.974   9.435   3.642 -0.0371 -0.6818 -0.2734
38736SOL    HW118215   3.882   9.460   3.649 -0.2335 -1.0447 -1.3199
38736SOL    HW218216   3.979   9.350   3.687  0.0088 -0.1997  0.6577
38737SOL     OW18217   6.996  10.548  10.811  0.1137  0.0739  0.1718
38737SOL    HW118218   7.084  10.518  10.788 -1.0069 -2.1040 -1.7584
38737SOL    HW218219   7.003  10.643  10.816  2.9871 -0.1118  2.1930
38738SOL     OW18220   1.825   3.136   1.428 -0.3318 -0.0705 -0.6239
38738SOL    HW118221   1.775   3.192   1.369  1.5227  0.9969 -1.2688
38738SOL    HW218222   1.836   3.189   1.507 -1.0472 -0.7029 -0.0777
38739SOL     OW18223   9.290  10.382   6.690 -0.5715 -0.1749 -0.2868
38739SOL    HW118224   9.328  10.365   6.776  3.3342  0.4939 -1.6925
38739SOL    HW218225   9.299  10.300   6.643  0.3135  0.3484 -1.0462
38740SOL     OW18226   2.913   1.666   9.519  0.9068  0.2913 -0.1061
38740SOL    HW118227   2.971   1.590   9.528  0.2671 -0.2942 -0.7904
38740SOL    HW218228   2.828   1.629   9.494 -0.5760  0.8666  3.4220
38741SOL     OW18229   7.907   0.180   9.068  0.0806  0.1825 -0.7278
38741SOL    HW118230   7.890   0.102   9.121 -0.5809  0.1727 -0.9493
38741SOL    HW218231   8.002   0.178   9.052  0.2153 -0.0490  0.0759
38742SOL     OW18232   3.174  11.042  10.030  0.2027  0.9758 -0.0782
38742SOL    HW118233   3.138  11.107  10.090  0.1680  0.1274  0.8473
38742SOL    HW218234   3.235  11.091   9.975  0.4249  1.7320  0.8201
38743SOL     OW18235   4.687   9.266   0.993 -0.0932  0.0374 -0.1177
38743SOL    HW118236   4.681   9.260   1.089  0.0658  2.0677  0.0554
38743SOL    HW218237   4.735   9.347   0.977 -0.9087  0.2071 -1.9288
38744SOL     OW18238   9.029   8.097   7.342  0.8534 -0.9124 -0.8842
38744SOL    HW118239   8.953   8.040   7.332  0.9857 -1.6594  1.7732
38744SOL    HW218240   8.992   8.185   7.351  0.3500 -1.1724 -0.3874
38745SOL     OW18241   8.966   6.060   1.443 -0.1842  0.3309 -0.4497
38745SOL    HW118242   8.936   6.147   1.419 -1.1174 -0.0143 -0.5734
38745SOL    HW218243   8.917   6.001   1.386 -1.7669 -0.4561  1.5853
38746SOL     OW18244   8.259   1.185   8.666 -0.6567  0.1322  0.3262
38746SOL    HW118245   8.213   1.127   8.605 -0.3084  1.7537 -1.5546
38746SOL    HW218246   8.350   1.155   8.665 -0.9852 -1.0224  1.5616
38747SOL     OW18247   3.106   1.044   0.999  0.0663 -0.5383 -0.0094
38747SOL    HW118248   3.112   0.953   1.028  0.7762 -0.3739  0.3823
38747SOL    HW218249   3.171   1.090   1.052  0.4719  0.0044 -0.9645
38748SOL     OW18250   3.374   0.081   7.937  0.0709  1.2994 -0.6058
38748SOL    HW118251   3.413   0.156   7.981  0.9236  0.1270  0.7416
38748SOL    HW218252   3.437   0.010   7.950 -1.5100 -0.1115 -0.2075
38749SOL     OW18253  10.733   3.725   1.998 -0.0024 -0.1019  0.7880
38749SOL    HW118254  10.790   3.800   2.017  1.4071 -0.4559 -1.7097
38749SOL    HW218255  10.786   3.649   2.019 -0.1303 -0.4241 -0.0211
38750SOL     OW18256   4.474   9.500  10.897  0.1225  0.2691 -0.4249
38750SOL    HW118257   4.440   9.573  10.845 -0.2178  1.0354  0.8283
38750SOL    HW218258   4.569   9.502  10.884  0.0509  0.5433 -0.8927
38751SOL     OW18259   5.444   5.076   9.054 -0.5127 -0.0042 -0.0404
38751SOL    HW118260   5.368   5.027   9.022 -0.5576  0.0626 -0.0389
38751SOL    HW218261   5.411   5.120   9.133 -0.9346  1.2834 -0.9033
38752SOL     OW18262   6.185   5.082   9.412  0.2037 -0.7067 -0.6386
38752SOL    HW118263   6.129   5.048   9.343  1.5307  0.5326 -2.4335
38752SOL    HW218264   6.264   5.028   9.409  1.0964  0.5676 -1.5210
38753SOL     OW18265   7.835   9.766  10.995 -0.0469  0.0143  0.6277
38753SOL    HW118266   7.846   9.672  11.003  0.5369  0.2034  2.6115
38753SOL    HW218267   7.753   9.785  11.042 -0.6346  0.4171 -0.5139
38754SOL     OW18268   3.968   7.667   6.952 -0.5006  0.1156  0.2464
38754SOL    HW118269   4.012   7.693   6.872 -0.0699  0.8190  0.6972
38754SOL    HW218270   3.974   7.572   6.953  0.9138  0.1831  0.2330
38755SOL     OW18271  11.155   3.112   4.697  0.6170  0.0695  0.1382
38755SOL    HW118272  11.165   3.200   4.659 -0.1699  0.5213  0.9226
38755SOL    HW218273  11.138   3.128   4.790  0.1260 -0.8976  0.2257
38756SOL     OW18274   4.897   1.538   6.947  0.0851 -0.5725  0.2174
38756SOL    HW118275   4.906   1.565   7.039 -0.5326 -2.1504  0.7797
38756SOL    HW218276   4.837   1.463   6.950 -1.9714  0.8430 -1.7393
38757SOL     OW18277  11.261   5.737   9.446  0.5610 -0.3971  0.5138
38757SOL    HW118278  11.312   5.814   9.470  0.3267  0.6200 -1.9483
38757SOL    HW218279  11.322   5.683   9.394  0.0802 -0.7872  0.3459
38758SOL     OW18280   5.646   1.194   0.413  0.0098 -0.2034 -0.0170
38758SOL    HW118281   5.623   1.280   0.379 -0.3754 -0.4136 -0.2883
38758SOL    HW218282   5.591   1.182   0.490  2.0140  0.9647  1.7234
38759SOL     OW18283   9.861   7.557   1.603  0.3362  0.5105  0.1303
38759SOL    HW118284   9.856   7.626   1.537  0.3616  0.8310  0.4644
38759SOL    HW218285   9.954   7.533   1.605  0.0966 -0.7082 -1.1818
38760SOL     OW18286   4.462   9.739   8.118  0.0502 -0.3208 -0.6338
38760SOL    HW118287   4.451   9.670   8.052 -0.9150 -1.3847  0.5980
38760SOL    HW218288   4.403   9.714   8.189  1.5209  0.4529  0.9175
38761SOL     OW18289   5.022   5.666   5.117 -0.0219 -0.1745  0.0914
38761SOL    HW118290   4.945   5.723   5.113 -0.8085 -1.2620 -0.8228
38761SOL    HW218291   5.000   5.601   5.184 -0.9177 -1.8644 -1.7620
38762SOL     OW18292   8.129   9.950   6.519  1.1879 -0.1019  0.1637
38762SOL    HW118293   8.224   9.944   6.518  1.0883 -3.3103 -1.0285
38762SOL    HW218294   8.101   9.914   6.434 -1.0854  1.5348  0.1236
38763SOL     OW18295   0.011   9.921   3.212 -0.5989  0.1871  0.4601
38763SOL    HW118296  -0.043   9.844   3.233  0.2736 -1.2093 -2.0285
38763SOL    HW218297   0.056   9.898   3.131  0.9167  2.7595  0.4521
38764SOL     OW18298   8.487   1.296   7.469 -0.0254 -0.2255  0.2502
38764SOL    HW118299   8.392   1.294   7.464 -0.2221  1.1734  2.2599
38764SOL    HW218300   8.508   1.229   7.535  0.6333 -2.2078 -1.8338
38765SOL     OW18301   4.983   0.416   8.927 -0.0544 -0.0348 -0.1506
38765SOL    HW118302   4.925   0.428   8.852 -0.7241  0.0981  0.3767
38765SOL    HW218303   5.040   0.493   8.926 -1.2616  0.8990  0.5185
38766SOL     OW18304   9.667   4.448   1.765  0.1574  0.9739  0.1194
38766SOL    HW118305   9.712   4.532   1.756 -0.4830  1.2805 -0.3420
38766SOL    HW218306   9.583   4.470   1.805 -0.2224  0.6262 -0.4700
38767SOL     OW18307   7.430   8.594   9.736 -0.1552  0.2349 -0.2513
38767SOL    HW118308   7.355   8.568   9.789  0.8860 -0.7642  0.7700
38767SOL    HW218309   7.462   8.512   9.697  1.0351  0.4723  0.1823
38768SOL     OW18310  10.856   8.565   3.688  0.0637  0.3304  0.0077
38768SOL    HW118311  10.851   8.474   3.718  1.9344  0.3641  0.5070
38768SOL    HW218312  10.930   8.602   3.735  0.5100  1.5892 -1.5879
38769SOL     OW18313   7.893  11.215   9.185  0.2004 -0.6145 -0.0001
38769SOL    HW118314   7.887  11.153   9.113 -0.7284 -2.5539  1.6265
38769SOL    HW218315   7.959  11.178   9.244  2.0438  1.6857 -0.4539
38770SOL     OW18316   5.932   4.612   3.170  0.4918  0.1407 -0.3205
38770SOL    HW118317   5.909   4.534   3.221 -0.7917  1.6711  1.5960
38770SOL    HW218318   6.017   4.590   3.131  0.8327 -1.7086  1.2662
38771SOL     OW18319   5.531   4.250   8.986  0.3888 -0.5793  0.3435
38771SOL    HW118320   5.517   4.209   8.900 -0.5754  1.1614 -0.3841
38771SOL    HW218321   5.497   4.339   8.975  2.5984  0.5075  1.7822
38772SOL     OW18322   6.643   9.178   3.767  0.5720 -0.2666  0.1985
38772SOL    HW118323   6.625   9.090   3.736  2.4354 -0.9345  0.9367
38772SOL    HW218324   6.687   9.166   3.851  1.4819  1.3384 -0.0075
38773SOL     OW18325   5.856   4.348  10.530  0.1110  0.3199  0.0816
38773SOL    HW118326   5.841   4.373  10.621  0.9235  0.8245  0.0926
38773SOL    HW218327   5.950   4.361  10.517 -0.1686  1.3216 -1.1431
38774SOL     OW18328   0.870   8.207   7.960 -0.2081 -0.1406  1.1257
38774SOL    HW118329   0.779   8.191   7.937  0.3662 -0.6597 -0.9898
38774SOL    HW218330   0.891   8.291   7.919  1.1971 -1.6817 -1.6026
38775SOL     OW18331   8.673   9.288   9.250  0.1653  0.0270  0.2112
38775SOL    HW118332   8.719   9.356   9.201 -1.2583  2.2894  1.7919
38775SOL    HW218333   8.586   9.285   9.209 -0.9935  1.8462  2.2970
38776SOL     OW18334   8.888   0.096   5.432 -0.0040  0.2488  0.3543
38776SOL    HW118335   8.965   0.074   5.380  0.7527  0.1322  1.4853
38776SOL    HW218336   8.830   0.142   5.372 -0.0767 -1.6828 -1.1602
38777SOL     OW18337   8.327   1.964   5.392  0.7608  0.2145  0.8387
38777SOL    HW118338   8.277   2.002   5.464  1.6277  0.8013  1.1544
38777SOL    HW218339   8.313   2.023   5.319 -0.6161 -0.7113  0.3204
38778SOL     OW18340   9.228   7.334   1.257 -0.4253 -0.2055 -0.1318
38778SOL    HW118341   9.162   7.265   1.253  0.1037 -0.7548  0.4719
38778SOL    HW218342   9.177   7.415   1.247 -1.3237 -0.5648  1.1351
38779SOL     OW18343   1.081  11.078   2.902  0.3987  0.1781 -0.4497
38779SOL    HW118344   1.040  10.996   2.929  2.1397 -0.8980 -0.9487
38779SOL    HW218345   1.046  11.143   2.963 -0.9175 -0.9347  0.0437
38780SOL     OW18346   7.444   2.601  10.326 -0.3303 -0.6900  0.0606
38780SOL    HW118347   7.382   2.673  10.312 -0.6553 -1.1102 -0.7545
38780SOL    HW218348   7.509   2.612  10.256  0.4914 -0.3019  0.8582
38781SOL     OW18349   5.853   9.436  10.275  0.0094 -0.1736 -0.1130
38781SOL    HW118350   5.850   9.379  10.352 -1.6725  0.7497  0.5642
38781SOL    HW218351   5.889   9.518  10.308  0.6523 -0.2268 -0.6607
38782SOL     OW18352   4.443   8.773   8.534 -0.6318  0.7130 -0.7893
38782SOL    HW118353   4.396   8.855   8.516 -0.9505  0.1228 -3.0729
38782SOL    HW218354   4.397   8.708   8.480  2.1712 -0.0870 -2.4072
38783SOL     OW18355   8.612   5.025   3.196 -0.4765  0.2123 -0.2424
38783SOL    HW118356   8.591   5.008   3.104 -1.9615 -0.3034  0.1705
38783SOL    HW218357   8.590   5.118   3.209 -1.7003 -0.0990 -0.0385
38784SOL     OW18358   0.913   6.589   9.688  0.4568 -0.3705 -0.7684
38784SOL    HW118359   0.889   6.505   9.726 -2.6272 -0.3265 -2.3467
38784SOL    HW218360   0.949   6.567   9.602  0.6153 -0.0938 -0.7759
38785SOL     OW18361   7.403   0.267   2.155 -0.0270 -0.5016 -0.2244
38785SOL    HW118362   7.347   0.273   2.078  0.8687  0.0428 -0.8500
38785SOL    HW218363   7.363   0.199   2.209 -1.1030 -0.3454 -0.8018
38786SOL     OW18364   0.621   1.643  10.230  0.6914 -0.5647  0.1552
38786SOL    HW118365   0.641   1.553  10.204 -0.3348 -1.2172  1.4402
38786SOL    HW218366   0.680   1.697  10.179  0.8156 -1.9231 -1.2212
38787SOL     OW18367   8.143   4.471   8.215 -0.1797 -0.1763  0.6060
38787SOL    HW118368   8.074   4.488   8.151  0.1277  1.2979  0.6369
38787SOL    HW218369   8.183   4.557   8.231  1.1571 -0.8793  1.1697
38788SOL     OW18370   8.903   2.110   4.754 -0.1244 -0.5372  1.2357
38788SOL    HW118371   8.934   2.035   4.704 -0.3805 -0.9671  1.7067
38788SOL    HW218372   8.809   2.114   4.737  0.1904  0.9054 -0.3726
38789SOL     OW18373   6.873   2.777  11.261 -0.4259 -0.6690  0.4401
38789SOL    HW118374   6.940   2.721  11.299 -0.2724  0.2610  1.6196
38789SOL    HW218375   6.883   2.861  11.307 -0.2580  0.5293 -1.6566
38790SOL     OW18376   8.714   1.987   0.639  0.2160  0.4223  0.2699
38790SOL    HW118377   8.715   1.894   0.663 -1.0998  0.3581  0.1479
38790SOL    HW218378   8.632   2.020   0.675 -0.4800  0.9683 -1.6967
38791SOL     OW18379   1.001   9.721   4.841  0.9391  0.1722 -0.6445
38791SOL    HW118380   1.013   9.736   4.747 -0.5263  2.9359 -0.4677
38791SOL    HW218381   1.087   9.740   4.879  1.9184 -2.1759 -1.4220
38792SOL     OW18382   4.097   8.368   9.242 -0.8306  0.2957 -0.0600
38792SOL    HW118383   4.039   8.385   9.316 -1.3522 -3.5084  0.5949
38792SOL    HW218384   4.047   8.309   9.185  1.3877 -0.9145 -0.8563
38793SOL     OW18385   9.340   9.989   4.923 -0.0730 -0.2139  0.9803
38793SOL    HW118386   9.397  10.033   4.860 -1.2083  1.5858  1.1210
38793SOL    HW218387   9.301   9.917   4.874 -0.1066  0.4935 -0.0672
38794SOL     OW18388   8.219  11.172   9.327 -0.0202 -0.1751  0.3854
38794SOL    HW118389   8.299  11.222   9.345 -0.5849  0.1828  2.1462
38794SOL    HW218390   8.191  11.140   9.413 -1.5800 -0.5923 -0.2353
38795SOL     OW18391  10.344   3.121  10.854 -0.3559  0.3038  0.2328
38795SOL    HW118392  10.331   3.170  10.773 -1.3013  1.1567  0.8917
38795SOL    HW218393  10.260   3.125  10.899 -0.8143 -2.7792 -0.1169
38796SOL     OW18394   1.551   5.232   8.843 -0.7986 -0.2398 -0.3859
38796SOL    HW118395   1.553   5.254   8.936  0.1641 -1.6524 -0.0420
38796SOL    HW218396   1.459   5.241   8.818 -1.1927 -0.5179  0.8744
38797SOL     OW18397   7.669   7.995   6.496 -0.2562  0.6255 -0.0620
38797SOL    HW118398   7.633   7.907   6.485 -1.5932  0.6396  3.1439
38797SOL    HW218399   7.758   7.989   6.463  0.5094 -2.6642  2.1672
38798SOL     OW18400   6.026   7.490   8.578 -0.2824  0.1481  0.1959
38798SOL    HW118401   6.106   7.445   8.604  0.8209  1.0498 -1.4468
38798SOL    HW218402   6.044   7.583   8.595 -0.7855  0.4088 -0.6234
38799SOL     OW18403   4.179   3.929   0.073 -0.1910 -0.3333 -0.1233
38799SOL    HW118404   4.093   3.943   0.112  0.0833  1.0395  0.0269
38799SOL    HW218405   4.165   3.860   0.009 -1.0123 -1.4357  1.1822
38800SOL     OW18406   7.136   8.439   3.126 -0.5473  0.2910  0.1061
38800SOL    HW118407   7.200   8.438   3.197  0.1843 -1.3808 -0.5247
38800SOL    HW218408   7.187   8.462   3.048 -1.5685  3.4593  0.2090
38801SOL     OW18409   2.671  10.785   0.997  0.0100 -0.2503  0.0627
38801SOL    HW118410   2.726  10.733   1.055  0.0185  1.1919  1.3983
38801SOL    HW218411   2.585  10.742   1.000  0.0514 -0.2770  1.0382
38802SOL     OW18412   9.636   3.642   5.940  0.2058  0.2559 -0.0140
38802SOL    HW118413   9.590   3.586   6.003 -1.7004  3.1418  1.3732
38802SOL    HW218414   9.601   3.730   5.957  4.7729  2.3924 -0.2877
38803SOL     OW18415   7.585   1.018   0.004 -0.2975 -0.1362  0.7330
38803SOL    HW118416   7.540   0.978  -0.070 -0.1102  1.8479 -0.5232
38803SOL    HW218417   7.514   1.037   0.067 -0.3271 -2.8034  1.6508
38804SOL     OW18418   7.062   1.587   0.515 -0.1674 -0.6191  0.4219
38804SOL    HW118419   7.131   1.581   0.581  2.3326  1.8035 -1.7653
38804SOL    HW218420   7.017   1.669   0.534 -1.2210 -1.2160  0.6240
38805SOL     OW18421   0.711   3.689   7.658  0.0734 -0.4546  0.0730
38805SOL    HW118422   0.634   3.632   7.667 -1.0783  0.5817 -2.4179
38805SOL    HW218423   0.782   3.640   7.700 -1.4870 -2.3624  0.6378
38806SOL     OW18424   6.040   0.434   1.144  0.4371 -0.3916  0.3294
38806SOL    HW118425   6.029   0.516   1.193 -0.5721  0.8223 -1.7875
38806SOL    HW218426   5.986   0.371   1.192  0.7382  0.3275  1.6589
38807SOL     OW18427   4.998   7.610   3.837 -0.2238  0.2375  0.0592
38807SOL    HW118428   5.092   7.615   3.820  0.1250 -0.4795  1.6202
38807SOL    HW218429   4.960   7.584   3.753  1.1121 -0.7191 -0.2814
38808SOL     OW18430   6.156   7.957   3.963 -0.5630  0.1097  0.4998
38808SOL    HW118431   6.105   7.918   4.035 -3.2622  1.1729 -0.7254
38808SOL    HW218432   6.111   8.038   3.943  3.1379  2.5231  0.9538
38809SOL     OW18433   9.435  11.106   5.209  0.4070  0.1450 -0.1192
38809SOL    HW118434   9.509  11.167   5.217  0.2937  0.2183  0.4455
38809SOL    HW218435   9.433  11.061   5.294  1.2708 -1.5560 -0.9583
38810SOL     OW18436   7.102  10.068   8.063 -0.0517  0.0103 -0.8127
38810SOL    HW118437   7.180  10.013   8.055  0.9595  1.4446 -1.2724
38810SOL    HW218438   7.049  10.023   8.129  1.0256 -1.1533 -0.6766
38811SOL     OW18439   6.377   5.847   0.418 -0.1296 -0.6142 -0.4369
38811SOL    HW118440   6.340   5.765   0.387  1.5630 -1.3774 -0.5849
38811SOL    HW218441   6.321   5.915   0.381 -4.4049 -1.6276  3.3663
38812SOL     OW18442   7.994   6.484   6.764  0.1668 -0.3016  0.6947
38812SOL    HW118443   8.000   6.552   6.831 -0.0247  0.1809  0.2308
38812SOL    HW218444   7.922   6.512   6.708  1.0220 -0.1317 -0.3497
38813SOL     OW18445   3.540   0.105  10.695 -0.2150  0.1010  0.3468
38813SOL    HW118446   3.558   0.024  10.744  0.9262 -0.1120 -0.3762
38813SOL    HW218447   3.475   0.079  10.629  0.3257 -0.3018 -0.0386
38814SOL     OW18448   9.006   5.838   1.133  0.3725  0.2658 -0.2504
38814SOL    HW118449   9.038   5.923   1.105  2.0103  0.5863  2.2646
38814SOL    HW218450   9.085   5.785   1.145 -0.3691 -0.6211  1.0993
38815SOL     OW18451   8.841   0.395   7.004 -0.1467 -0.2202  0.3561
38815SOL    HW118452   8.761   0.347   7.023  0.6343 -0.9072  2.2019
38815SOL    HW218453   8.813   0.470   6.952 -1.6649 -1.6100 -0.9587
38816SOL     OW18454   9.161   5.905   5.220  0.0747 -0.3274  0.8346
38816SOL    HW118455   9.074   5.943   5.207  1.5443  3.2808  0.4006
38816SOL    HW218456   9.155   5.860   5.304 -2.4838 -1.3113  0.2407
38817SOL     OW18457   5.395   5.553   1.731 -0.3676 -0.4098  0.5948
38817SOL    HW118458   5.485   5.566   1.762 -0.1714 -0.2147 -0.0257
38817SOL    HW218459   5.356   5.491   1.792  0.3407 -0.8581  0.6030
38818SOL     OW18460   7.376   3.201   9.307 -0.1859 -0.6932 -0.5788
38818SOL    HW118461   7.323   3.280   9.296  0.3071 -0.5797 -2.4269
38818SOL    HW218462   7.466   3.230   9.294  0.3468 -1.0226  1.8170
38819SOL     OW18463   4.376   7.576   8.493 -0.5684  0.8819  0.0352
38819SOL    HW118464   4.322   7.575   8.572 -0.6955 -1.4451 -0.0375
38819SOL    HW218465   4.443   7.642   8.511 -0.0991 -0.1670  2.4293
38820SOL     OW18466   8.338   3.529   5.918 -0.6369  0.3908 -0.7681
38820SOL    HW118467   8.414   3.473   5.937 -0.5332  0.9141  0.4777
38820SOL    HW218468   8.271   3.468   5.887 -0.3590 -0.3778  0.0718
38821SOL     OW18469   1.407   0.908   2.979  0.2497  0.4731  0.4405
38821SOL    HW118470   1.416   0.871   2.891  0.8307  2.6927 -0.5269
38821SOL    HW218471   1.313   0.922   2.990  0.0097 -1.2595  0.8693
38822SOL     OW18472   2.497   6.703   7.983 -1.0023 -0.0071  0.2780
38822SOL    HW118473   2.534   6.677   7.899  0.4640  2.2934  0.1027
38822SOL    HW218474   2.479   6.797   7.973  0.7854  0.7501  2.9780
38823SOL     OW18475   3.060   7.351   7.042  0.4045 -0.0883 -0.3912
38823SOL    HW118476   3.034   7.303   6.963 -1.0594  0.4943 -0.2895
38823SOL    HW218477   3.138   7.400   7.015  1.7425 -2.1991 -0.5885
38824SOL     OW18478   1.944   8.638   9.803 -0.8363 -0.2073  0.4318
38824SOL    HW118479   1.933   8.617   9.710  1.6195 -0.2116  0.0966
38824SOL    HW218480   1.973   8.729   9.804 -2.6166  0.4138  1.3674
38825SOL     OW18481  10.703   5.556   9.737 -0.0579 -0.0588 -0.1586
38825SOL    HW118482  10.673   5.514   9.657  0.6582 -0.7225 -0.0902
38825SOL    HW218483  10.770   5.498   9.771 -0.5411  0.0741  1.0770
38826SOL     OW18484   9.842   0.730   3.601  0.1457  0.2208  0.4980
38826SOL    HW118485   9.842   0.821   3.629 -1.1832  0.7767 -1.1752
38826SOL    HW218486   9.925   0.719   3.555  0.7185  0.2942  1.4816
38827SOL     OW18487   2.670   6.781   5.882 -0.4486  0.3784 -0.6560
38827SOL    HW118488   2.643   6.693   5.855  0.9047  0.5375 -2.7641
38827SOL    HW218489   2.657   6.782   5.976 -0.6409 -2.0512 -0.5904
38828SOL     OW18490   5.672   5.464   1.797  0.4099 -0.8057  0.3194
38828SOL    HW118491   5.751   5.487   1.748  0.7959 -1.5749  0.5673
38828SOL    HW218492   5.705   5.424   1.877 -0.1863 -3.9449 -0.8806
38829SOL     OW18493   7.176  10.717   1.792  0.1578  0.5685  0.4427
38829SOL    HW118494   7.175  10.774   1.715 -1.8897  0.2374  0.1817
38829SOL    HW218495   7.243  10.755   1.848  2.8947 -0.0791 -2.1200
38830SOL     OW18496   1.055   6.699   5.655  0.2110  0.6067  0.4233
38830SOL    HW118497   0.969   6.702   5.696 -0.3624 -0.8849 -0.5773
38830SOL    HW218498   1.078   6.606   5.656  0.6091  0.6413 -1.7078
38831SOL     OW18499   1.271   1.329   1.892 -0.1237  0.2714  0.6737
38831SOL    HW118500   1.287   1.412   1.937 -0.0765 -0.9335  3.0480
38831SOL    HW218501   1.185   1.300   1.923 -1.1384  0.3814 -1.7862
38832SOL     OW18502   6.881   1.825   5.476 -0.5325  0.1453  0.2564
38832SOL    HW118503   6.842   1.855   5.558 -2.7935 -0.3904 -0.5505
38832SOL    HW218504   6.954   1.885   5.460  0.0023  0.2094  2.6595
38833SOL     OW18505   6.256   3.017   4.521 -0.7999 -0.9520 -0.8479
38833SOL    HW118506   6.260   2.999   4.614 -0.5555 -0.4885 -0.7626
38833SOL    HW218507   6.198   3.094   4.514  0.6668  0.1889 -0.8882
38834SOL     OW18508   8.151   6.107   3.464  0.0690  0.3084 -0.8533
38834SOL    HW118509   8.132   6.196   3.432 -0.1415 -0.2330 -2.3359
38834SOL    HW218510   8.074   6.084   3.516  0.0973  0.9750 -0.5085
38835SOL     OW18511   7.503   3.707   6.237  0.4761 -0.4203 -0.6811
38835SOL    HW118512   7.527   3.791   6.197  2.8067 -1.0566 -0.7643
38835SOL    HW218513   7.580   3.682   6.288 -0.9457 -1.5465  1.0244
38836SOL     OW18514   6.367   0.313   7.106 -0.3118 -0.3000  0.1034
38836SOL    HW118515   6.331   0.280   7.024 -0.6687  1.6302 -0.5520
38836SOL    HW218516   6.438   0.251   7.127 -0.6601 -1.2088 -1.2717
38837SOL     OW18517   1.154  10.790  10.743  0.1480 -0.5943 -0.1016
38837SOL    HW118518   1.174  10.751  10.658  1.2218 -2.9164  1.1336
38837SOL    HW218519   1.105  10.869  10.722 -0.9960 -1.9037 -2.8351
38838SOL     OW18520  10.607   9.537   6.477  0.4606 -0.3649 -0.0520
38838SOL    HW118521  10.552   9.615   6.487  2.6968  1.3154  0.0430
38838SOL    HW218522  10.624   9.508   6.567 -1.2977 -1.7404 -0.1087
38839SOL     OW18523   1.855   2.492   8.755 -0.1746 -0.4049 -0.0853
38839SOL    HW118524   1.780   2.446   8.794 -0.4622 -0.2224 -0.4200
38839SOL    HW218525   1.834   2.496   8.662 -1.4945  2.8665  0.2435
38840SOL     OW18526   0.544   1.391   5.405 -0.1204 -0.8731  0.2902
38840SOL    HW118527   0.529   1.475   5.449 -1.0054 -0.1018 -1.3668
38840SOL    HW218528   0.504   1.403   5.319 -0.3814 -3.0654  0.0652
38841SOL     OW18529   7.135   3.901   1.868  0.5048  0.2946  0.6026
38841SOL    HW118530   7.076   3.964   1.909 -1.2805 -0.3691 -0.7815
38841SOL    HW218531   7.095   3.816   1.887  2.1575 -0.3544  1.3372
38842SOL     OW18532   0.105   5.207   9.279 -1.0307  0.5468 -0.3836
38842SOL    HW118533   0.013   5.228   9.297 -1.0451  0.8098 -0.7498
38842SOL    HW218534   0.102   5.151   9.202 -0.9555 -0.3933  0.2753
38843SOL     OW18535   2.230   5.759   8.210  0.2296  0.3101  0.0982
38843SOL    HW118536   2.305   5.711   8.177  0.4508 -0.0966  1.1431
38843SOL    HW218537   2.199   5.707   8.285 -0.3451  1.1027  0.4266
38844SOL     OW18538   0.317   8.467   7.418 -0.0131  0.3076  0.1355
38844SOL    HW118539   0.359   8.434   7.497  1.3824  0.9503 -0.3024
38844SOL    HW218540   0.387   8.471   7.353 -0.9027  0.7792 -0.8387
38845SOL     OW18541   3.437   0.685   1.302 -0.1108 -0.2884 -0.2238
38845SOL    HW118542   3.419   0.688   1.396 -0.4834 -0.3349 -0.2889
38845SOL    HW218543   3.503   0.752   1.287 -0.0249 -0.3069  0.0788
38846SOL     OW18544   3.436  11.077   9.228 -0.4835  0.2616 -0.0225
38846SOL    HW118545   3.522  11.037   9.217 -1.4850 -1.6010 -1.7853
38846SOL    HW218546   3.398  11.033   9.303  0.1107  1.2054  0.8649
38847SOL     OW18547   6.042   8.858   2.218 -0.3041  0.2755  0.5777
38847SOL    HW118548   6.085   8.879   2.135 -0.4282 -1.1988  0.1105
38847SOL    HW218549   5.951   8.842   2.194 -0.8014  1.7794  1.3217
38848SOL     OW18550  11.045   4.844   5.856  0.5075 -0.1219  0.2830
38848SOL    HW118551  11.028   4.937   5.837 -0.3318  0.0203  1.6310
38848SOL    HW218552  11.114   4.820   5.794  1.8306  1.8057  0.8839
38849SOL     OW18553   3.817   6.543   7.320  0.1290  0.1039 -0.1993
38849SOL    HW118554   3.795   6.631   7.350 -2.8731  0.2520 -2.3347
38849SOL    HW218555   3.842   6.554   7.229 -1.1030 -1.2668 -0.7447
38850SOL     OW18556   1.732   3.685   5.937  0.1431 -0.4169  0.7935
38850SOL    HW118557   1.703   3.776   5.940  0.8895 -0.1884  1.7281
38850SOL    HW218558   1.669   3.641   5.879  0.3378  0.8823 -0.4625
38851SOL     OW18559   1.152   9.324   6.664  0.4903  0.3629 -0.0239
38851SOL    HW118560   1.132   9.393   6.728 -2.6820 -3.3709  3.4901
38851SOL    HW218561   1.228   9.279   6.702 -0.5018 -0.9939  0.3821
38852SOL     OW18562   1.592   2.050   1.173  0.1147  0.4583 -0.4136
38852SOL    HW118563   1.604   1.955   1.166 -1.6289  0.1126  0.7676
38852SOL    HW218564   1.623   2.084   1.089  1.9549 -1.0086 -0.4040
38853SOL     OW18565   5.697  11.004  10.194 -0.6634  0.5566  0.1317
38853SOL    HW118566   5.604  11.025  10.188 -0.3715  1.9198  0.1406
38853SOL    HW218567   5.713  10.991  10.288 -1.6306 -3.7405 -0.0734
38854SOL     OW18568   1.336  10.979   3.775  0.0419 -0.2371 -0.7002
38854SOL    HW118569   1.323  11.063   3.730  1.8878 -0.2034 -1.2697
38854SOL    HW218570   1.255  10.964   3.822 -0.6099  1.5105 -1.1883
38855SOL     OW18571   3.981   0.852   3.903  0.8114 -0.1315 -0.9406
38855SOL    HW118572   3.947   0.930   3.947  3.4148 -0.1290  1.3110
38855SOL    HW218573   3.958   0.779   3.962  0.2120 -0.8086 -1.9854
38856SOL     OW18574   2.772   2.688   2.676 -0.8808 -0.0810  0.6715
38856SOL    HW118575   2.698   2.629   2.660 -1.2864  0.9317 -1.5433
38856SOL    HW218576   2.738   2.775   2.657  0.7613  0.4498 -0.0117
38857SOL     OW18577  11.130   1.188  10.541  0.0114 -0.3289  0.5092
38857SOL    HW118578  11.122   1.281  10.519  1.6514 -0.1557  0.5421
38857SOL    HW218579  11.188   1.185  10.617 -1.3820 -1.2878  1.5827
38858SOL     OW18580   1.211   8.113   9.377  0.2194  0.3449  0.0187
38858SOL    HW118581   1.275   8.058   9.332 -0.1793 -0.5583  0.5232
38858SOL    HW218582   1.154   8.146   9.308 -0.5820 -1.2803 -0.1242
38859SOL     OW18583   5.990   5.058   8.514  0.2067 -0.3617  0.1644
38859SOL    HW118584   5.902   5.095   8.521 -0.0082 -0.4982 -1.3283
38859SOL    HW218585   6.048   5.126   8.548 -0.5213 -0.6859  2.1783
38860SOL     OW18586   4.625   9.923   6.776  0.1862  0.0476 -0.3696
38860SOL    HW118587   4.682   9.857   6.737  0.2974  0.6783 -1.3011
38860SOL    HW218588   4.542   9.878   6.788  0.4626 -0.4650 -0.3422
38861SOL     OW18589   5.177   9.225   9.306 -0.2141  0.0705 -0.2813
38861SOL    HW118590   5.108   9.266   9.357  0.5859 -0.6624  1.4708
38861SOL    HW218591   5.141   9.139   9.283 -0.8521  0.6641 -1.6541
38862SOL     OW18592  10.766   0.531   7.396  0.2573  0.2517  0.4007
38862SOL    HW118593  10.684   0.493   7.428  1.5311 -4.1641 -0.8690
38862SOL    HW218594  10.831   0.506   7.462  1.0971  0.9550 -0.1408
38863SOL     OW18595   2.085   3.979   8.190  0.0981 -0.4067  0.4213
38863SOL    HW118596   2.122   4.053   8.141  1.1466 -1.5137 -0.5382
38863SOL    HW218597   2.000   4.010   8.220  0.5914  1.2465  0.2140
38864SOL     OW18598  10.936   3.699   6.690 -0.3472 -0.0228  0.2720
38864SOL    HW118599  10.893   3.633   6.745 -0.6753  1.0510  1.3420
38864SOL    HW218600  10.935   3.660   6.602 -2.6545 -0.4713  0.4077
38865SOL     OW18601   8.597  10.158  10.366 -0.3130  0.7602  0.2585
38865SOL    HW118602   8.523  10.126  10.314  0.3892 -1.8358  0.7083
38865SOL    HW218603   8.606  10.093  10.437  0.2894  2.8521  2.2125
38866SOL     OW18604   6.718   8.767   0.626 -0.2437  0.3183  0.1923
38866SOL    HW118605   6.750   8.677   0.640 -1.8618 -0.1533  1.1464
38866SOL    HW218606   6.680   8.765   0.539 -0.6000 -0.0293  0.3534
38867SOL     OW18607   3.173   5.816   0.551  0.3908 -0.6645 -0.7584
38867SOL    HW118608   3.079   5.798   0.564  0.5508 -1.0535 -0.0610
38867SOL    HW218609   3.183   5.824   0.456 -0.2137 -1.4174 -0.8974
38868SOL     OW18610   6.153   2.999   5.526  0.4133  0.4228 -0.0106
38868SOL    HW118611   6.197   3.081   5.506  3.1890 -1.2004 -1.0853
38868SOL    HW218612   6.206   2.958   5.593  1.2680 -2.0413 -2.0162
38869SOL     OW18613   3.097  11.202   7.588 -0.2036  0.1078  0.1899
38869SOL    HW118614   3.073  11.118   7.626  1.4220  0.1423  1.3934
38869SOL    HW218615   3.186  11.189   7.556  1.1838  2.0685  2.8886
38870SOL     OW18616   3.610   1.819   9.268 -0.2665  0.2943 -0.1856
38870SOL    HW118617   3.565   1.797   9.187 -2.0093  0.8937  0.5855
38870SOL    HW218618   3.546   1.804   9.337  1.5251 -1.3600  1.2521
38871SOL     OW18619   9.184   9.325   2.278  0.6416 -0.1366 -0.0446
38871SOL    HW118620   9.162   9.293   2.191  0.4166  0.6271 -0.2813
38871SOL    HW218621   9.191   9.247   2.332  2.7325 -0.8244 -1.1669
38872SOL     OW18622   6.315  11.227   6.221  0.5469 -0.0914  0.1520
38872SOL    HW118623   6.283  11.313   6.196  1.4041  0.3036  0.3608
38872SOL    HW218624   6.389  11.211   6.162 -0.7221 -1.5259 -1.1792
38873SOL     OW18625   6.434   1.454   7.551 -0.1630  0.0711  0.2763
38873SOL    HW118626   6.350   1.437   7.592 -0.4532  0.9812  0.0968
38873SOL    HW218627   6.416   1.524   7.488  0.9753  1.2570  1.2012
38874SOL     OW18628   1.451   5.674   1.687 -0.2911 -0.1576  0.1286
38874SOL    HW118629   1.456   5.709   1.598  0.5613  2.7607  1.2137
38874SOL    HW218630   1.441   5.751   1.743 -0.6033 -1.8793  2.6047
38875SOL     OW18631  11.082   1.838   5.635 -0.6184  0.2508  0.5994
38875SOL    HW118632  11.126   1.780   5.698  1.0024  0.4016 -0.3320
38875SOL    HW218633  10.990   1.832   5.658 -0.6683 -3.3652  0.0638
38876SOL     OW18634   3.079   8.493   2.193  0.0016 -0.1912 -0.0630
38876SOL    HW118635   3.002   8.530   2.150  1.1400  1.9471 -0.3709
38876SOL    HW218636   3.139   8.566   2.202  1.2734 -1.3904  1.8801
38877SOL     OW18637   5.434   7.422   0.593 -0.2765 -0.0346  0.4836
38877SOL    HW118638   5.523   7.413   0.627 -0.3826 -0.1339  0.7367
38877SOL    HW218639   5.381   7.367   0.650  0.1178 -3.5725 -2.2287
38878SOL     OW18640   2.405  11.158   3.553  0.1610  0.0895  1.0949
38878SOL    HW118641   2.315  11.129   3.539  1.2881 -2.9140 -1.0881
38878SOL    HW218642   2.421  11.142   3.646 -0.9435 -1.4597  1.0608
38879SOL     OW18643  11.029  10.282   7.558  0.3008 -0.0166 -0.1551
38879SOL    HW118644  10.989  10.295   7.644  1.5487 -0.1335  0.4618
38879SOL    HW218645  11.042  10.187   7.553  0.8798  0.0595 -0.1620
38880SOL     OW18646   8.675   9.772   9.891  0.0037 -0.1026 -0.2618
38880SOL    HW118647   8.731   9.842   9.858  0.2951 -0.0101  0.4035
38880SOL    HW218648   8.639   9.731   9.813  0.9197 -0.0978 -0.7062
38881SOL     OW18649   5.924   5.145   2.522  0.2617 -0.0890 -0.1121
38881SOL    HW118650   5.870   5.091   2.579 -0.7260 -1.6162 -2.3479
38881SOL    HW218651   5.967   5.207   2.581 -1.6734 -0.7106  2.1067
38882SOL     OW18652   2.742   2.512  10.925  0.4643  0.1324  0.3701
38882SOL    HW118653   2.744   2.439  10.987 -2.1048  1.2113  1.9170
38882SOL    HW218654   2.805   2.488  10.858  0.3024 -3.1368  1.1882
38883SOL     OW18655   4.027   4.162   3.508  0.0182 -0.3656 -0.5215
38883SOL    HW118656   4.051   4.071   3.494 -1.9870 -1.0749  0.3313
38883SOL    HW218657   3.960   4.180   3.442  0.2546  0.4438 -0.5571
38884SOL     OW18658   3.971   8.936   8.026  0.0492 -0.4358 -0.0590
38884SOL    HW118659   4.033   8.869   8.055 -2.2277 -1.6476  2.4836
38884SOL    HW218660   3.917   8.892   7.961 -0.9719 -0.8915  1.0651
38885SOL     OW18661   9.140   7.124   9.797  0.1632  0.8130 -0.0793
38885SOL    HW118662   9.210   7.079   9.844 -0.5682 -0.3836 -0.0746
38885SOL    HW218663   9.154   7.100   9.706 -0.2689  0.5101 -0.0695
38886SOL     OW18664   2.691  10.519   3.807 -0.4540  0.0693 -0.0968
38886SOL    HW118665   2.681  10.430   3.773 -0.7304  0.6644 -1.6577
38886SOL    HW218666   2.727  10.568   3.733 -1.4658  1.5247  0.3548
38887SOL     OW18667   4.243   5.715   3.350  0.0275 -0.1141  0.4455
38887SOL    HW118668   4.200   5.786   3.396  2.2610  0.6073  1.5965
38887SOL    HW218669   4.222   5.637   3.402 -1.2218 -0.0696  0.0232
38888SOL     OW18670   6.674   4.869  10.751 -0.1159 -0.6925 -0.2395
38888SOL    HW118671   6.699   4.793  10.804 -1.7695 -0.9701  0.2196
38888SOL    HW218672   6.709   4.944  10.797  0.8088 -1.1205 -0.2345
38889SOL     OW18673   1.196   5.354   4.273  0.3633  0.4284  0.3182
38889SOL    HW118674   1.117   5.324   4.319 -1.2941  2.5763 -0.9215
38889SOL    HW218675   1.167   5.432   4.225  3.0486  0.7474 -0.9436
38890SOL     OW18676   8.409   9.386   3.960  0.1804 -0.9369 -0.9618
38890SOL    HW118677   8.468   9.313   3.943  0.6790 -0.5671 -0.8660
38890SOL    HW218678   8.332   9.369   3.905  0.6078 -1.1521 -1.5096
38891SOL     OW18679  10.815   0.090   8.697 -0.2311  0.1385 -0.3826
38891SOL    HW118680  10.850   0.028   8.760  0.6766 -0.4048 -1.3887
38891SOL    HW218681  10.787   0.037   8.623 -0.6909  0.8189 -0.7139
38892SOL     OW18682   0.736   6.097   8.750  0.4989  0.0598 -0.3027
38892SOL    HW118683   0.774   6.169   8.800  2.3417 -1.1071  0.0610
38892SOL    HW218684   0.644   6.122   8.738  1.0953  2.4768 -0.2637
38893SOL     OW18685   0.105  10.981   3.387 -0.1103 -0.5529 -0.2468
38893SOL    HW118686   0.147  11.066   3.377 -0.6610 -0.3359 -0.7001
38893SOL    HW218687   0.175  10.925   3.422 -0.0975  0.4002  1.3928
38894SOL     OW18688   2.065   3.981   7.774 -0.0027 -0.0103  0.6806
38894SOL    HW118689   2.043   4.038   7.700 -1.6988 -2.6303 -0.9810
38894SOL    HW218690   2.158   3.960   7.762  0.9542  2.9811  1.8837
38895SOL     OW18691   6.484   2.545   8.669  0.5094 -0.5165 -0.2268
38895SOL    HW118692   6.553   2.582   8.615 -0.3507 -0.1883 -1.1138
38895SOL    HW218693   6.458   2.615   8.729 -0.6746  0.1499 -1.4769
38896SOL     OW18694   8.066   5.800   8.088 -0.0128  0.1492 -0.0712
38896SOL    HW118695   8.054   5.779   7.996  2.5049  1.1374 -0.7097
38896SOL    HW218696   8.150   5.761   8.111 -0.3412  0.3849  1.6723
38897SOL     OW18697   1.995   6.752   6.648 -0.4588  0.1617 -0.7686
38897SOL    HW118698   2.005   6.668   6.694 -1.0268 -0.0649 -1.0510
38897SOL    HW218699   1.990   6.817   6.718  0.4830  0.0213 -0.5577
38898SOL     OW18700  10.345  11.058   3.266 -0.7818 -0.8578 -0.8175
38898SOL    HW118701  10.304  11.082   3.349 -0.4945  1.3630 -1.2498
38898SOL    HW218702  10.317  10.968   3.250 -0.5515 -1.4838  1.8409
38899SOL     OW18703   0.239   8.292   5.348  0.3684 -0.0110 -0.2517
38899SOL    HW118704   0.209   8.379   5.321  4.0224  1.7934  0.9306
38899SOL    HW218705   0.199   8.279   5.434  0.1395  0.6719 -0.2471
38900SOL     OW18706  11.114   8.671   7.509 -0.1975 -0.0872 -0.4371
38900SOL    HW118707  11.198   8.636   7.537 -1.6235 -1.4499  2.5207
38900SOL    HW218708  11.063   8.595   7.481 -0.9123  0.5590 -0.9931
38901SOL     OW18709   0.221   7.976   1.227 -0.5058  0.0710  0.6396
38901SOL    HW118710   0.173   7.979   1.145  0.7637  2.6252 -0.0986
38901SOL    HW218711   0.308   8.009   1.206  0.4465 -0.9213  2.6802
38902SOL     OW18712   0.261   7.097  10.285  0.2046 -0.5663  0.1635
38902SOL    HW118713   0.293   7.035  10.350 -0.7576 -0.4401  0.7782
38902SOL    HW218714   0.332   7.159  10.273  0.5531 -0.8459  0.7621
38903SOL     OW18715   6.180   2.965   9.908 -0.6016  0.8287 -0.4009
38903SOL    HW118716   6.112   2.914   9.952  0.7658  1.7548  3.1815
38903SOL    HW218717   6.254   2.905   9.899 -0.0560  1.2705  0.9152
38904SOL     OW18718  10.845   9.852  10.697  0.1376 -0.6148  0.6407
38904SOL    HW118719  10.844   9.940  10.660  0.5778 -0.0672  1.8616
38904SOL    HW218720  10.885   9.797  10.629 -2.9228 -0.5240 -1.3986
38905SOL     OW18721   1.448   5.951  11.094  0.9187 -0.2663  0.9695
38905SOL    HW118722   1.370   5.944  11.040  2.5461  0.3139 -1.6408
38905SOL    HW218723   1.424   5.910  11.177 -2.3122  0.4766  0.5368
38906SOL     OW18724   2.573   3.250  10.460  0.3299 -0.2803 -0.2073
38906SOL    HW118725   2.552   3.215  10.374 -0.0350 -2.1636  0.5900
38906SOL    HW218726   2.582   3.344  10.447  2.3259 -0.7089 -2.7021
38907SOL     OW18727   1.490   8.599   7.994 -0.0184  0.1498  0.4803
38907SOL    HW118728   1.520   8.670   7.938  0.2383  0.8230  1.4437
38907SOL    HW218729   1.569   8.548   8.012  0.2797  0.9810  1.6784
38908SOL     OW18730   4.901   2.957   4.603 -0.7783  0.0305  0.8068
38908SOL    HW118731   4.950   2.904   4.540 -2.1883 -0.1755 -0.1621
38908SOL    HW218732   4.916   2.914   4.687  0.0704 -0.4600  0.4180
38909SOL     OW18733  11.042   3.289   3.083 -0.5237  0.2832  0.2879
38909SOL    HW118734  11.089   3.205   3.080 -1.8096 -0.4318 -1.5888
38909SOL    HW218735  10.949   3.264   3.082 -0.9231  1.7254 -0.4899
38910SOL     OW18736   0.089   0.755   5.693 -0.6813  0.4422  0.3937
38910SOL    HW118737   0.095   0.746   5.788  0.5514 -0.6581  0.2344
38910SOL    HW218738   0.120   0.844   5.674 -0.4663  0.4902  0.9784
38911SOL     OW18739   4.905   8.151   8.334 -0.4320 -0.2890 -0.1796
38911SOL    HW118740   4.873   8.093   8.404 -0.4400 -0.3684 -0.2498
38911SOL    HW218741   4.995   8.123   8.319 -0.3882 -0.1861 -0.1115
38912SOL     OW18742   5.729   9.389   4.360 -0.1330 -0.8443  0.0221
38912SOL    HW118743   5.750   9.316   4.302  1.0960 -0.5983  0.1322
38912SOL    HW218744   5.806   9.396   4.418 -1.0005 -0.6024  1.1819
38913SOL     OW18745   9.013   9.505  10.419 -0.0574  0.1529 -0.8629
38913SOL    HW118746   8.990   9.497  10.511  0.7776 -2.8535 -0.8173
38913SOL    HW218747   8.930   9.491  10.372 -0.3952  1.2267 -0.6153
38914SOL     OW18748   9.614   5.249   7.663  0.0021  0.3013 -0.0568
38914SOL    HW118749   9.619   5.345   7.667  2.7459  0.4347 -2.9304
38914SOL    HW218750   9.535   5.231   7.613 -0.1004  1.0944 -0.1966
38915SOL     OW18751   0.981   2.590   4.087 -0.2529  0.6405  0.1683
38915SOL    HW118752   0.986   2.571   4.180 -0.5758  1.3094  0.3253
38915SOL    HW218753   0.926   2.521   4.051  0.2162  0.1362  0.3972
38916SOL     OW18754   3.257  10.384  10.273 -0.1074 -0.5980 -0.5155
38916SOL    HW118755   3.265  10.390  10.178  0.5036  1.0306 -0.3861
38916SOL    HW218756   3.309  10.307  10.297 -0.5560 -1.2288 -1.5113
38917SOL     OW18757   1.913   8.281   3.245 -0.2375 -0.2528 -0.6009
38917SOL    HW118758   1.841   8.329   3.203 -0.0416 -0.7090 -1.4850
38917SOL    HW218759   1.913   8.312   3.336  0.3233  1.9451 -1.2890
38918SOL     OW18760   9.190   3.192   2.992  0.0152 -0.0708  0.5072
38918SOL    HW118761   9.126   3.200   3.063  1.0754 -1.3112  1.6296
38918SOL    HW218762   9.136   3.186   2.913 -1.2206  4.9220  0.6219
38919SOL     OW18763   2.484   1.244  10.525  0.4943 -0.7908 -0.3046
38919SOL    HW118764   2.388   1.250  10.519  0.5479  0.7279 -0.1154
38919SOL    HW218765   2.499   1.200  10.608 -0.0384 -1.8760 -0.7651
38920SOL     OW18766   5.926   8.007   3.604  0.0228 -0.5961  0.0071
38920SOL    HW118767   6.017   7.997   3.576 -0.4798 -0.5752 -1.7466
38920SOL    HW218768   5.920   8.099   3.632 -0.1054  0.3153 -2.6845
38921SOL     OW18769   1.000  11.071   1.819 -0.0317  0.2166  0.4935
38921SOL    HW118770   0.908  11.044   1.824 -0.2444  0.8346  0.0107
38921SOL    HW218771   1.048  10.989   1.810 -0.5449 -0.1066  0.6564
38922SOL     OW18772   5.084   3.110   3.781 -0.2429 -0.6471  0.1638
38922SOL    HW118773   5.015   3.087   3.843 -1.0560  0.0238 -0.4602
38922SOL    HW218774   5.062   3.200   3.754  0.6650 -0.5618 -0.3238
38923SOL     OW18775   8.816  10.167   7.958  0.3084  0.4824  0.2808
38923SOL    HW118776   8.724  10.179   7.935  0.1591 -1.7750 -0.5014
38923SOL    HW218777   8.862  10.232   7.904 -0.8307  2.2495  1.3428
38924SOL     OW18778  11.285   6.789   0.872 -0.4747  0.0369  0.2439
38924SOL    HW118779  11.211   6.773   0.814 -0.7797 -0.3674  0.7341
38924SOL    HW218780  11.334   6.859   0.830 -0.3493 -0.6724 -0.8125
38925SOL     OW18781   6.600   7.397  10.116 -0.4782  0.3291  0.1525
38925SOL    HW118782   6.624   7.375  10.026  1.0494  1.3918  0.2613
38925SOL    HW218783   6.639   7.328  10.170  2.1606  1.8168  0.2908
38926SOL     OW18784  10.821   3.494  11.178  0.1123 -0.1051  0.4955
38926SOL    HW118785  10.760   3.501  11.251 -2.1589  0.0445 -1.2992
38926SOL    HW218786  10.778   3.540  11.106  2.7872  0.7809 -0.6694
38927SOL     OW18787  11.167  10.226  10.921  0.0121 -0.3949  0.5355
38927SOL    HW118788  11.183  10.303  10.976  0.2912 -0.0436 -0.0253
38927SOL    HW218789  11.166  10.261  10.831 -0.0591 -1.0150  0.2926
38928SOL     OW18790   7.019   8.673  10.783  0.2186 -0.1326  0.0946
38928SOL    HW118791   7.019   8.646  10.875  3.1502  0.1046  0.2581
38928SOL    HW218792   7.085   8.742  10.779 -0.4431  0.4439 -2.0615
38929SOL     OW18793   5.003   2.851   7.370 -0.7263 -0.4981  0.0487
38929SOL    HW118794   4.983   2.914   7.439 -0.7123 -1.1592  0.6568
38929SOL    HW218795   5.059   2.786   7.412 -0.6579 -0.8690 -0.6041
38930SOL     OW18796   6.835   3.605   2.589  0.0680 -0.3004  0.2133
38930SOL    HW118797   6.787   3.525   2.610  0.5600 -0.4859  0.6434
38930SOL    HW218798   6.916   3.575   2.550 -0.6390  0.0263 -1.6205
38931SOL     OW18799  11.201   4.256   3.190  0.1622 -0.2671  0.3194
38931SOL    HW118800  11.234   4.245   3.279 -0.9251 -0.1051  0.7683
38931SOL    HW218801  11.112   4.291   3.202  0.3399  0.6304 -0.8574
38932SOL     OW18802   7.357  10.021   6.778 -0.2121  0.0226 -0.4808
38932SOL    HW118803   7.417   9.965   6.827 -2.0075 -0.1780  1.6345
38932SOL    HW218804   7.332  10.090   6.839 -3.4710 -0.9046 -0.5780
38933SOL     OW18805  10.494   0.596   5.113  0.0088  0.9932  0.1168
38933SOL    HW118806  10.487   0.675   5.166 -2.1524  1.2573 -0.4727
38933SOL    HW218807  10.488   0.524   5.176  1.1613  1.2725  0.5688
38934SOL     OW18808   9.882   7.779   9.221 -0.3219 -0.3585  0.4553
38934SOL    HW118809   9.861   7.778   9.128 -0.0867  0.1415  0.3979
38934SOL    HW218810   9.921   7.865   9.237  0.7497 -0.8780  0.7638
38935SOL     OW18811   3.077   2.417   2.765  0.3417  0.0411 -0.0384
38935SOL    HW118812   3.119   2.444   2.684  0.0204 -1.6063 -0.7906
38935SOL    HW218813   3.080   2.322   2.763 -1.4621 -0.0796  0.9191
38936SOL     OW18814  10.362   2.898   1.004  0.2162 -0.7855 -0.1521
38936SOL    HW118815  10.426   2.866   1.067  1.9993  0.3236 -1.3013
38936SOL    HW218816  10.292   2.936   1.057  1.1340 -0.8409  1.1381
38937SOL     OW18817   7.487   1.598   6.758 -0.5044 -0.5441 -0.4750
38937SOL    HW118818   7.463   1.653   6.684 -1.4562 -1.5164 -0.9138
38937SOL    HW218819   7.509   1.514   6.719 -1.0403 -1.0756  0.3496
38938SOL     OW18820   7.693  10.275   5.244 -0.6201 -0.3367 -0.3611
38938SOL    HW118821   7.778  10.319   5.244 -1.3736  1.2642 -2.5177
38938SOL    HW218822   7.714  10.182   5.236  0.9352  0.0474 -1.1299
38939SOL     OW18823  10.935   2.052   7.522  0.3426 -0.5016 -0.0046
38939SOL    HW118824  10.901   1.994   7.591  0.9619 -0.7859  0.0656
38939SOL    HW218825  11.014   2.008   7.491 -0.5815 -1.0147 -1.7661
38940SOL     OW18826   3.180   5.064   7.375 -0.1001  0.4610 -0.7043
38940SOL    HW118827   3.147   5.106   7.454  0.0793 -0.9349  0.1437
38940SOL    HW218828   3.234   4.992   7.407  0.9093  0.5586 -2.0956
38941SOL     OW18829   5.770   1.799   4.164  0.3390 -0.2911 -0.0822
38941SOL    HW118830   5.751   1.882   4.121  0.3625  0.3969  1.2135
38941SOL    HW218831   5.814   1.822   4.245 -0.1920 -1.5371  0.5990
38942SOL     OW18832   3.470   0.666   8.960  0.4875  0.4681 -0.3643
38942SOL    HW118833   3.493   0.686   9.051 -0.5053  1.7035 -0.3498
38942SOL    HW218834   3.490   0.573   8.950  0.2118  0.1969  1.2632
38943SOL     OW18835   1.882   6.356  11.284 -0.1619  0.2454  0.4829
38943SOL    HW118836   1.879   6.269  11.325 -0.5569  0.3791  0.7456
38943SOL    HW218837   1.828   6.347  11.206  1.3646 -0.2769 -0.5616
38944SOL     OW18838   9.276   8.034  11.224  0.3857 -0.1359  0.2080
38944SOL    HW118839   9.327   8.057  11.146 -0.7013  2.0082  0.0617
38944SOL    HW218840   9.228   7.955  11.199  1.1542 -0.3009 -0.7816
38945SOL     OW18841   1.079   1.789   4.360 -0.6736 -0.3618 -0.0358
38945SOL    HW118842   1.079   1.708   4.411  3.2974  0.2828  1.3900
38945SOL    HW218843   1.039   1.766   4.277 -0.7812 -3.4509  0.7656
38946SOL     OW18844   4.014   4.338   5.232 -0.0999 -0.1764  0.0557
38946SOL    HW118845   4.102   4.330   5.194 -0.2104  0.5300 -0.3587
38946SOL    HW218846   4.024   4.308   5.322  1.1149  2.1843  0.7784
38947SOL     OW18847   3.485   5.036   0.559  0.3201 -0.1369 -0.5199
38947SOL    HW118848   3.487   4.941   0.548  2.8262 -0.1068 -0.9489
38947SOL    HW218849   3.495   5.071   0.470  3.1268  0.3825 -0.1138
38948SOL     OW18850   4.352   5.661   9.554  0.0694  0.1964 -0.0289
38948SOL    HW118851   4.325   5.704   9.634  2.7800  0.5444  0.8083
38948SOL    HW218852   4.448   5.656   9.560  0.1206 -3.8377 -1.1383
38949SOL     OW18853   8.865  10.942   9.841  0.0089  0.4187 -0.2157
38949SOL    HW118854   8.773  10.917   9.845  0.3064 -0.4919  2.2198
38949SOL    HW218855   8.869  11.025   9.888  0.5939 -0.2161  0.9023
38950SOL     OW18856   6.293   5.141   3.043 -0.0207 -0.1199 -0.0480
38950SOL    HW118857   6.262   5.051   3.040 -0.0267 -0.0877 -0.9599
38950SOL    HW218858   6.330   5.150   3.131  0.2819 -1.1124 -0.0619
38951SOL     OW18859   1.985   1.950   1.240 -0.2309 -0.1441  0.2057
38951SOL    HW118860   1.981   1.901   1.322 -1.3752  1.3494  1.0978
38951SOL    HW218861   1.936   2.030   1.257 -2.9756 -0.9492 -2.7714
38952SOL     OW18862   7.971   5.516   6.028 -0.5435 -0.3518 -0.4481
38952SOL    HW118863   7.905   5.575   5.991 -0.1126 -0.4153 -1.3447
38952SOL    HW218864   7.928   5.430   6.028 -0.8011 -0.2247 -0.1238
38953SOL     OW18865   3.632  10.894   6.605  0.0635  0.7147 -0.7437
38953SOL    HW118866   3.711  10.938   6.636  1.1010 -0.4622 -1.6131
38953SOL    HW218867   3.664  10.816   6.559 -1.6497 -0.4185 -0.1189
38954SOL     OW18868   5.190   7.275  11.192 -0.3022 -1.2390 -0.3446
38954SOL    HW118869   5.211   7.187  11.162 -2.1657 -1.2729 -1.7632
38954SOL    HW218870   5.249   7.333  11.143  0.0094 -1.6095 -0.4090
38955SOL     OW18871   5.190   4.518   5.807  0.4947  0.0442  0.2021
38955SOL    HW118872   5.254   4.493   5.741  2.9888 -2.0511  3.1374
38955SOL    HW218873   5.117   4.456   5.794  1.2353 -0.7576 -0.2067
38956SOL     OW18874   9.682   8.198  10.338 -0.4245  0.3080  0.1302
38956SOL    HW118875   9.746   8.145  10.385 -0.0366 -0.0165 -0.7637
38956SOL    HW218876   9.609   8.138  10.322 -1.6281  1.0330  2.4055
38957SOL     OW18877   4.528   2.065   4.479 -0.1382 -0.1172 -0.0454
38957SOL    HW118878   4.612   2.109   4.466 -0.4316  0.2960 -0.6042
38957SOL    HW218879   4.513   2.069   4.574  0.1975  0.3183 -0.0062
38958SOL     OW18880   3.866   7.991   3.447 -0.4616  1.1874  0.0099
38958SOL    HW118881   3.919   8.059   3.405  1.3808 -1.4333 -2.3097
38958SOL    HW218882   3.910   7.975   3.531  3.6910 -1.7923 -2.3367
38959SOL     OW18883   4.918  10.088   3.320  0.3920  0.0241 -0.3274
38959SOL    HW118884   4.883  10.145   3.252  0.6526 -2.3457 -2.6374
38959SOL    HW218885   5.010  10.075   3.296  0.1781 -1.8654 -0.3429
38960SOL     OW18886   0.917   5.797   1.427 -0.0165  0.1649  0.2144
38960SOL    HW118887   0.958   5.816   1.343  0.3456  2.4578  0.8381
38960SOL    HW218888   0.824   5.786   1.407 -0.0369  1.3578 -0.4341
38961SOL     OW18889   9.558   8.275   6.959 -0.6082 -0.9332 -0.5257
38961SOL    HW118890   9.632   8.333   6.975 -1.9375  0.7692 -0.2301
38961SOL    HW218891   9.549   8.274   6.863  0.6910 -2.3893 -0.6702
38962SOL     OW18892   4.413  11.210   6.591 -0.9249  0.1208  0.1477
38962SOL    HW118893   4.379  11.259   6.667 -2.0081 -0.7088  0.2030
38962SOL    HW218894   4.391  11.119   6.609  1.3913 -0.4871  0.2136
38963SOL     OW18895   7.455   4.574   2.127 -0.0373  0.8877  0.0498
38963SOL    HW118896   7.398   4.559   2.202  0.5494  1.4098  0.6148
38963SOL    HW218897   7.543   4.555   2.160  0.2613  1.4424 -0.4085
38964SOL     OW18898   7.496   1.055   5.574 -0.0765  0.2017 -0.3546
38964SOL    HW118899   7.479   1.052   5.668  1.3949 -0.5994 -0.0932
38964SOL    HW218900   7.429   1.114   5.540  0.6138  2.2088  1.4986
38965SOL     OW18901   0.347   1.033   0.128 -0.8147  0.2388 -0.0792
38965SOL    HW118902   0.414   1.062   0.191  0.3645  1.8575 -1.9484
38965SOL    HW218903   0.267   1.078   0.156 -0.8393 -0.6665  1.4106
38966SOL     OW18904   6.118   3.333   2.310  0.8923  0.0907 -0.3447
38966SOL    HW118905   6.093   3.379   2.390 -2.1905  0.7294 -1.5545
38966SOL    HW218906   6.084   3.244   2.321 -1.5280  0.7654 -1.7152
38967SOL     OW18907   4.383   8.820   9.170 -0.2117  0.0101  0.0944
38967SOL    HW118908   4.402   8.855   9.083  0.1815 -0.7580 -0.1408
38967SOL    HW218909   4.359   8.896   9.222  1.4962  0.7665 -0.1578
38968SOL     OW18910   4.664   1.274   3.686 -0.1262 -0.3314 -0.1813
38968SOL    HW118911   4.753   1.245   3.703 -0.3974 -1.3006 -0.3849
38968SOL    HW218912   4.634   1.308   3.771  1.5634  3.2741 -0.8225
38969SOL     OW18913  10.598   8.911   9.255 -0.1494 -0.0551 -0.4145
38969SOL    HW118914  10.638   8.832   9.293 -1.1390 -0.1114  0.5733
38969SOL    HW218915  10.598   8.975   9.327  1.1486  1.0634 -1.3628
38970SOL     OW18916   0.246   4.187   1.265  0.7283  0.1372 -0.2425
38970SOL    HW118917   0.251   4.282   1.273  2.6749  0.2058 -1.5341
38970SOL    HW218918   0.305   4.154   1.332 -0.4382 -0.2045  0.6304
38971SOL     OW18919   5.586   5.551   3.216  0.0618 -0.0350  0.4608
38971SOL    HW118920   5.540   5.633   3.235  1.4993  1.0054 -0.3781
38971SOL    HW218921   5.598   5.511   3.302  0.3441  1.1968  1.0305
38972SOL     OW18922  10.862   9.600   1.218  0.4024  0.3548 -0.4025
38972SOL    HW118923  10.878   9.636   1.306  2.5749 -3.0435  0.7839
38972SOL    HW218924  10.773   9.628   1.197 -1.0583 -0.3622  3.8230
38973SOL     OW18925   4.676   2.772   7.575 -0.0855 -0.4921  0.0823
38973SOL    HW118926   4.768   2.784   7.599  0.2241 -2.6885  0.1772
38973SOL    HW218927   4.635   2.738   7.654 -0.5267 -1.4060 -0.5197
38974SOL     OW18928   9.994   4.605   1.214 -0.2589 -0.2968  0.7888
38974SOL    HW118929   9.989   4.534   1.150 -0.9281 -0.0227  0.5334
38974SOL    HW218930   9.964   4.565   1.296  1.7043 -0.9682  1.2349
38975SOL     OW18931   6.223   2.834   2.005 -0.2460  0.3903  0.1677
38975SOL    HW118932   6.287   2.767   2.030  1.7233  2.1495  0.0893
38975SOL    HW218933   6.168   2.844   2.083 -1.6259 -2.3523 -0.3273
38976SOL     OW18934   1.890   6.671   3.987  0.3083  1.0096 -0.8644
38976SOL    HW118935   1.887   6.645   4.079 -0.5046  1.1863 -0.8381
38976SOL    HW218936   1.981   6.699   3.973  1.7212 -3.0049 -1.2327
38977SOL     OW18937   6.207   5.775   8.933 -0.8229  0.1311  0.1323
38977SOL    HW118938   6.223   5.855   8.883 -2.1422 -0.3141 -1.0797
38977SOL    HW218939   6.275   5.715   8.904 -0.3255  0.5441  0.4293
38978SOL     OW18940   7.583   7.587   2.108 -0.6429 -0.1300  0.0954
38978SOL    HW118941   7.518   7.518   2.123 -0.2974 -0.6382 -0.6699
38978SOL    HW218942   7.653   7.545   2.058 -0.4454  0.7759 -0.4353
38979SOL     OW18943   5.333   6.400  10.703 -0.1176 -0.5550 -0.1371
38979SOL    HW118944   5.373   6.466  10.646  1.3467 -0.7610  0.5891
38979SOL    HW218945   5.307   6.329  10.645 -0.2187 -0.0226 -0.7425
38980SOL     OW18946   2.128   2.021   3.635 -0.2178 -0.1920  0.1633
38980SOL    HW118947   2.167   2.020   3.548  0.5156 -0.2655  0.4802
38980SOL    HW218948   2.127   1.928   3.661  0.5008 -0.0884  0.6192
38981SOL     OW18949   1.477   7.519   2.912 -0.2586 -0.2460 -0.0660
38981SOL    HW118950   1.417   7.510   2.987 -0.9422 -0.2477 -0.5987
38981SOL    HW218951   1.507   7.430   2.895  0.0422 -0.2210  0.3159
38982SOL     OW18952   5.573   1.197   4.477 -0.1924  0.4927 -0.1515
38982SOL    HW118953   5.613   1.274   4.517  1.2619 -0.3170  0.0436
38982SOL    HW218954   5.602   1.124   4.532 -2.6639 -0.0884  0.5004
38983SOL     OW18955   5.913   4.387   6.682 -0.5853 -0.9777  0.1051
38983SOL    HW118956   5.844   4.364   6.619 -0.3446 -0.4747 -0.3453
38983SOL    HW218957   5.913   4.314   6.744 -1.3136 -1.1345 -0.0686
38984SOL     OW18958   4.516  10.188   0.072 -0.1312  0.2427 -0.4552
38984SOL    HW118959   4.521  10.270   0.023 -0.1534 -0.8189 -2.3296
38984SOL    HW218960   4.600  10.144   0.054 -0.1586 -0.2023  0.4359
38985SOL     OW18961   6.371   4.557  10.657  0.5891  0.5280 -0.0290
38985SOL    HW118962   6.334   4.583  10.573  2.6631  0.6945 -0.9393
38985SOL    HW218963   6.423   4.479  10.638  1.1620  0.6201  1.0667
38986SOL     OW18964   2.122  11.101   5.437  0.7646 -0.3161  0.6059
38986SOL    HW118965   2.105  11.166   5.369 -1.5848 -0.7563  0.6945
38986SOL    HW218966   2.128  11.152   5.518  1.6933  0.0279  0.3329
38987SOL     OW18967   4.943   7.922   0.522  0.0061 -0.2079 -0.0890
38987SOL    HW118968   5.027   7.902   0.480  0.6505  2.0425 -0.0337
38987SOL    HW218969   4.937   7.861   0.595  1.2006 -0.9517 -0.5863
38988SOL     OW18970   9.740   3.723  10.452  0.4052 -0.4962  0.5735
38988SOL    HW118971   9.806   3.793  10.453  2.6501 -2.3351 -2.3522
38988SOL    HW218972   9.664   3.763  10.410  2.2032 -0.0420 -2.5681
38989SOL     OW18973   8.035   6.384   1.061  0.2098 -0.0207 -0.2228
38989SOL    HW118974   8.026   6.289   1.054  0.5171 -0.2607  1.9724
38989SOL    HW218975   8.015   6.404   1.153  2.6651  1.7120  0.0400
38990SOL     OW18976   3.163   5.491   2.532 -0.1514 -0.4223  0.2117
38990SOL    HW118977   3.174   5.586   2.522  1.5741 -0.8172 -3.1262
38990SOL    HW218978   3.250   5.459   2.553 -0.7588 -1.3164  1.4789
38991SOL     OW18979   7.383   5.491   2.833  0.0884  0.1432 -0.3838
38991SOL    HW118980   7.454   5.544   2.869  0.5955  0.2346 -1.4779
38991SOL    HW218981   7.393   5.498   2.738 -1.0518 -0.2981 -0.5542
38992SOL     OW18982   5.535   0.549  10.604  0.4138  0.2839  0.1392
38992SOL    HW118983   5.539   0.478  10.539  0.5222 -0.6728  1.1682
38992SOL    HW218984   5.449   0.588  10.592  0.2853 -0.1304 -0.3284
38993SOL     OW18985   3.625   0.876   2.982  0.0606  0.7220 -0.2062
38993SOL    HW118986   3.587   0.873   3.070  1.8795 -1.4856  0.6162
38993SOL    HW218987   3.592   0.797   2.940  1.6791  0.0805 -0.3401
38994SOL     OW18988   6.963   8.356   7.783  0.1820 -0.1037 -0.1814
38994SOL    HW118989   6.979   8.263   7.799 -0.3526  0.2641  3.3694
38994SOL    HW218990   6.920   8.359   7.698 -1.9894 -3.3999  0.6173
38995SOL     OW18991   3.148   4.118  10.568 -0.3394  0.1412 -0.3195
38995SOL    HW118992   3.157   4.195  10.512 -1.2024  0.4230 -0.0848
38995SOL    HW218993   3.054   4.104  10.575 -0.2542  0.0792  1.0040
38996SOL     OW18994   1.193  10.591   4.695 -0.3642 -0.1236 -0.3608
38996SOL    HW118995   1.129  10.611   4.626  1.1007 -2.7086 -2.6614
38996SOL    HW218996   1.198  10.496   4.697  1.0918 -0.0966  2.0545
38997SOL     OW18997   9.118  10.838  10.708  0.2540 -0.5969  0.3339
38997SOL    HW118998   9.024  10.817  10.707 -0.3335  1.7693 -0.4766
38997SOL    HW218999   9.157  10.768  10.760 -1.9093 -1.8180  0.4484
38998SOL     OW19000   7.174   1.149   7.565  0.7107  0.6201  0.5922
38998SOL    HW119001   7.119   1.209   7.514  2.3869  1.5826 -0.1752
38998SOL    HW219002   7.112   1.099   7.618 -0.7522  3.2011  1.4637
38999SOL     OW19003  10.085   5.796   7.548 -0.1334 -0.3630  0.0132
38999SOL    HW119004  10.046   5.735   7.610 -0.9455  0.2640  0.1340
38999SOL    HW219005  10.066   5.758   7.462  0.5200 -0.9508  0.1189
39000SOL     OW19006   9.184   5.578  10.875 -0.0592 -0.0563  0.3070
39000SOL    HW119007   9.261   5.546  10.922 -0.8056  0.7753  2.1715
39000SOL    HW219008   9.211   5.662  10.838  0.9790 -1.3433 -2.1079
39001SOL     OW19009   6.308   9.048   3.742 -0.3353 -0.6142  0.0797
39001SOL    HW119010   6.384   8.994   3.723 -2.8040 -3.9238 -1.4499
39001SOL    HW219011   6.266   9.006   3.817 -1.3689  0.3316  0.0615
39002SOL     OW19012  11.130   3.417   3.581  0.6472  0.1841  0.0406
39002SOL    HW119013  11.096   3.453   3.500 -3.2675 -0.7760  1.0268
39002SOL    HW219014  11.167   3.332   3.556 -0.2121  0.0418 -0.7987
39003SOL     OW19015   1.537   6.011   4.867  0.0127  0.2193 -0.3261
39003SOL    HW119016   1.463   5.949   4.869  0.0626  0.0741 -1.8723
39003SOL    HW219017   1.586   5.991   4.947 -2.5815  1.5890  1.8161
39004SOL     OW19018   2.256  10.170   6.087 -0.1413 -0.3449  0.6477
39004SOL    HW119019   2.255  10.259   6.123  0.3355 -0.0824  0.0489
39004SOL    HW219020   2.168  10.136   6.102 -0.7318  0.7049 -0.2565
39005SOL     OW19021   3.414   4.790   4.093  0.2019 -0.3241 -0.2189
39005SOL    HW119022   3.446   4.808   4.182 -0.4409 -0.5855  0.0752
39005SOL    HW219023   3.398   4.695   4.093  1.5364 -0.5601 -1.0677
39006SOL     OW19024   6.402   0.457   4.468  0.2106  0.3390 -0.2813
39006SOL    HW119025   6.372   0.390   4.407 -0.2743  0.5262 -0.2602
39006SOL    HW219026   6.334   0.525   4.462 -0.7298 -0.3637  1.6752
39007SOL     OW19027  10.128   1.022   8.261 -0.2470  0.0831  1.3347
39007SOL    HW119028  10.080   1.026   8.178 -2.6086 -1.2048  2.5111
39007SOL    HW219029  10.106   1.103   8.306  1.2610  0.9119  0.6556
39008SOL     OW19030   2.124   6.044   9.112  0.1039 -0.0223  0.1076
39008SOL    HW119031   2.160   6.001   9.189 -1.5408 -0.9336  0.4300
39008SOL    HW219032   2.171   6.005   9.038 -0.0802 -1.0445  0.5145
39009SOL     OW19033   5.045  10.347   2.549  1.0054  0.1216 -0.7153
39009SOL    HW119034   5.025  10.389   2.465 -0.2923 -3.4773 -2.4118
39009SOL    HW219035   4.997  10.399   2.613 -1.7556  0.4411 -2.8355
39010SOL     OW19036   5.063   5.271   0.419  0.3138 -0.4661 -0.2043
39010SOL    HW119037   5.091   5.359   0.445  1.5034 -0.6620 -0.7680
39010SOL    HW219038   5.105   5.212   0.482  0.4465 -0.7059 -0.5139
39011SOL     OW19039   4.549   0.626   5.466 -0.1965 -0.1387 -0.2035
39011SOL    HW119040   4.473   0.599   5.414 -0.9844 -1.3830  1.5084
39011SOL    HW219041   4.620   0.571   5.436 -0.3908 -0.1660 -0.6245
39012SOL     OW19042   4.085   7.129   2.136  0.0767 -0.0018  0.1286
39012SOL    HW119043   4.093   7.068   2.063 -0.8946 -1.4006  1.1486
39012SOL    HW219044   3.993   7.123   2.162  0.0956  1.4882  0.6278
39013SOL     OW19045   8.332   9.424   8.683  0.2782  0.0030  0.1537
39013SOL    HW119046   8.315   9.334   8.654 -0.9946 -0.0526  1.0106
39013SOL    HW219047   8.268   9.476   8.635  2.7682  0.9098 -2.4976
39014SOL     OW19048   5.858   6.480   8.844 -0.4998 -0.0388 -0.3339
39014SOL    HW119049   5.793   6.474   8.915 -1.0563  1.6595 -0.6586
39014SOL    HW219050   5.941   6.494   8.889 -0.9466  1.7455  0.0103
39015SOL     OW19051   1.078   1.294   2.783 -0.2809  0.0601 -0.3690
39015SOL    HW119052   1.065   1.341   2.866  4.2478  2.0574 -0.4860
39015SOL    HW219053   1.030   1.346   2.718 -0.4858  0.8821  0.4248
39016SOL     OW19054  10.482   8.586   9.579  0.6657 -0.2975 -0.0933
39016SOL    HW119055  10.416   8.517   9.582  0.4883 -0.1124  0.2682
39016SOL    HW219056  10.558   8.549   9.625  0.1437  0.1928  1.2136
39017SOL     OW19057   9.305   0.489   3.901  0.1705 -0.1816 -0.4084
39017SOL    HW119058   9.266   0.500   3.815  1.9804  2.5349 -1.0305
39017SOL    HW219059   9.400   0.490   3.884  0.5581 -0.6913  1.5045
39018SOL     OW19060  10.023   7.773   6.501 -1.0166 -0.5326  0.0014
39018SOL    HW119061   9.991   7.822   6.425  1.8515  2.7986  0.6934
39018SOL    HW219062   9.999   7.827   6.576 -0.1400 -1.6197  1.1002
39019SOL     OW19063   8.799   5.232   6.585  0.9111  0.2331  0.3349
39019SOL    HW119064   8.806   5.145   6.626 -0.9885  0.1825  0.6654
39019SOL    HW219065   8.864   5.285   6.630  0.5653 -0.4674  1.7478
39020SOL     OW19066   5.817   8.726   3.282  0.0521 -0.4069 -0.3894
39020SOL    HW119067   5.866   8.795   3.238  1.6821 -1.4890 -0.3684
39020SOL    HW219068   5.812   8.756   3.373 -0.4791  0.3209 -0.6497
39021SOL     OW19069   2.608   4.959   3.065 -0.4384 -0.2788  0.0636
39021SOL    HW119070   2.542   5.029   3.068 -2.0180 -1.7196  0.3056
39021SOL    HW219071   2.574   4.892   3.123  0.7061 -1.5537 -0.6936
39022SOL     OW19072   6.829   5.742   8.507 -0.0291  0.2202 -0.1593
39022SOL    HW119073   6.736   5.757   8.494 -0.2765 -2.0178 -1.4551
39022SOL    HW219074   6.858   5.815   8.563 -2.4719  1.0832  0.0811
39023SOL     OW19075   4.517   0.892   4.611 -0.0539  0.2312  0.5101
39023SOL    HW119076   4.476   0.941   4.539 -1.3005 -0.8886  0.4279
39023SOL    HW219077   4.596   0.855   4.572 -0.0682  0.6552  0.0636
39024SOL     OW19078   9.521   1.068   2.100 -0.3156  0.1387 -0.0744
39024SOL    HW119079   9.539   1.053   2.007  1.4749  1.9985 -0.1030
39024SOL    HW219080   9.502   0.980   2.134 -0.7435 -0.6321 -2.1116
39025SOL     OW19081   1.094   3.429   3.676 -0.3919 -0.3203 -0.0101
39025SOL    HW119082   1.130   3.478   3.601 -1.0950 -1.1011 -0.8794
39025SOL    HW219083   1.068   3.345   3.639 -0.0082 -1.0358  1.2926
39026SOL     OW19084   3.234   8.010   9.276  0.3603 -0.1181 -0.0669
39026SOL    HW119085   3.194   8.084   9.322 -0.7403  0.2942 -1.6160
39026SOL    HW219086   3.193   7.933   9.314  2.2565 -0.0747  2.2852
39027SOL     OW19087   3.980   6.206   0.178 -0.4534 -0.2360 -0.1927
39027SOL    HW119088   4.030   6.282   0.207 -2.2929  0.0645  2.5297
39027SOL    HW219089   3.951   6.164   0.258 -1.7215 -2.3305 -1.6447
39028SOL     OW19090  11.185   9.188  10.872  0.2532 -0.1813 -0.2106
39028SOL    HW119091  11.178   9.164  10.965  0.5882  0.2626 -0.0669
39028SOL    HW219092  11.096   9.178  10.839  0.1022 -0.2105  0.1938
39029SOL     OW19093   8.236   2.214   3.265  0.5816  0.0165 -0.0475
39029SOL    HW119094   8.183   2.237   3.341  1.8761  2.3096  0.2306
39029SOL    HW219095   8.181   2.237   3.190 -0.0408 -0.6596  0.1895
39030SOL     OW19096   1.493   1.810   9.732 -0.0133  0.4887 -0.1957
39030SOL    HW119097   1.445   1.755   9.671 -0.7808  0.0289  0.8040
39030SOL    HW219098   1.460   1.786   9.819  0.9215  1.2507  0.4009
39031SOL     OW19099   0.407   7.012   1.567 -0.5799 -0.0740 -0.2274
39031SOL    HW119100   0.332   6.996   1.624 -0.3621 -1.7253 -0.3437
39031SOL    HW219101   0.387   7.094   1.522 -1.4077  0.5055  1.1526
39032SOL     OW19102  10.553   8.532  10.436 -0.0271  0.4046  0.0079
39032SOL    HW119103  10.488   8.510  10.502 -1.3111 -0.5108 -1.5041
39032SOL    HW219104  10.615   8.459  10.437  0.1751  0.5767  0.4375
39033SOL     OW19105   6.701   8.315   4.356  0.8579 -0.8763  1.1335
39033SOL    HW119106   6.795   8.320   4.373  0.6198  0.7773  2.1785
39033SOL    HW219107   6.694   8.305   4.261  2.0758 -0.3691  0.9753
39034SOL     OW19108   8.944   9.741   4.401  0.1945 -0.1532  0.0798
39034SOL    HW119109   8.981   9.656   4.427  0.8125  0.8236  2.7418
39034SOL    HW219110   8.853   9.738   4.431 -0.4573 -0.6275 -1.8080
39035SOL     OW19111   3.808   1.798   1.147 -0.6674 -0.0626 -1.0124
39035SOL    HW119112   3.779   1.708   1.128  1.2474 -0.8201 -0.4858
39035SOL    HW219113   3.727   1.850   1.143 -1.7081 -1.6734 -2.0482
39036SOL     OW19114   7.335   0.178  10.750 -0.1789 -0.0558 -0.0308
39036SOL    HW119115   7.245   0.188  10.717 -0.4139  1.7930  0.9946
39036SOL    HW219116   7.336   0.092  10.792 -1.4199 -0.1870 -0.2211
39037SOL     OW19117   1.520   0.613   0.385  0.3549  0.0654  0.2991
39037SOL    HW119118   1.589   0.620   0.451  0.4047 -1.1344  0.4058
39037SOL    HW219119   1.465   0.689   0.400  1.7280  1.1251  0.1220
39038SOL     OW19120   9.343  10.710   8.493  0.4991  0.2991 -0.1393
39038SOL    HW119121   9.317  10.619   8.508 -0.8957  0.6800 -0.1288
39038SOL    HW219122   9.348  10.749   8.580  1.9809  0.0360 -0.0712
39039SOL     OW19123   0.305   1.922   2.659 -0.2606  0.2935  0.1969
39039SOL    HW119124   0.393   1.892   2.635 -1.4141  0.0480 -4.7030
39039SOL    HW219125   0.317   2.013   2.685  1.4271  0.4367 -0.8999
39040SOL     OW19126   5.679   8.066   7.493  0.2246 -0.1182  0.2171
39040SOL    HW119127   5.668   8.143   7.549  0.4080 -0.7209  1.0987
39040SOL    HW219128   5.590   8.037   7.474  0.1249 -1.4628  2.4115
39041SOL     OW19129   9.926   0.414   8.755  0.1196 -0.3282  0.2704
39041SOL    HW119130   9.951   0.332   8.798  1.4722 -0.1930 -0.2240
39041SOL    HW219131   9.885   0.466   8.824  4.3374  0.8752  2.1364
39042SOL     OW19132   0.585   6.776   2.595  0.2118 -0.1591  0.1412
39042SOL    HW119133   0.561   6.728   2.515 -0.2347  1.0011 -0.4378
39042SOL    HW219134   0.624   6.857   2.564  1.1400 -0.2071  1.1194
39043SOL     OW19135   0.247   9.737   1.653  0.6858  1.1652  0.1344
39043SOL    HW119136   0.187   9.811   1.646  1.1267  1.4108 -1.5064
39043SOL    HW219137   0.331   9.771   1.621  0.9368  0.0222 -0.4767
39044SOL     OW19138   8.723   5.763   7.782  0.4524 -0.4630  0.6577
39044SOL    HW119139   8.784   5.814   7.834 -0.9966  0.5044  1.4791
39044SOL    HW219140   8.672   5.713   7.846  0.1146 -0.9518  0.0295
39045SOL     OW19141   2.874   6.859  10.652 -0.6613  0.0753 -0.1164
39045SOL    HW119142   2.891   6.782  10.597  0.0144  0.6399 -0.7238
39045SOL    HW219143   2.904   6.833  10.739 -1.2320 -0.6414 -0.1228
39046SOL     OW19144   2.967   5.830   4.461  0.0645 -0.3312 -0.5326
39046SOL    HW119145   2.990   5.922   4.469  2.4931 -0.5504 -3.3628
39046SOL    HW219146   2.913   5.825   4.382  4.2768 -1.7226 -3.6800
39047SOL     OW19147   9.869   3.178   1.804 -0.2297  0.2385 -0.1334
39047SOL    HW119148   9.879   3.105   1.865  1.5355  0.4944 -0.0654
39047SOL    HW219149   9.958   3.198   1.775 -0.7951  1.6089 -1.0583
39048SOL     OW19150   5.048  10.658   0.288  0.4258  0.5634 -0.0989
39048SOL    HW119151   5.138  10.630   0.269  0.3940  0.4582 -0.0932
39048SOL    HW219152   5.057  10.747   0.322  0.6302  0.1136  1.0693
39049SOL     OW19153   6.032   1.309   6.843  0.0782  0.3306 -0.5806
39049SOL    HW119154   5.975   1.335   6.915  0.0385  0.6484 -0.7249
39049SOL    HW219155   6.121   1.326   6.875  0.0266  1.5675 -1.0148
39050SOL     OW19156   5.734   7.063   4.219  0.0645  0.1519  0.5640
39050SOL    HW119157   5.699   7.075   4.308 -0.1879 -1.6140  0.7400
39050SOL    HW219158   5.821   7.026   4.232 -0.0239 -0.2390  0.0841
39051SOL     OW19159   5.488   2.599   0.195 -0.3077 -0.4580  0.2153
39051SOL    HW119160   5.553   2.669   0.202 -0.8588  0.0469  0.2746
39051SOL    HW219161   5.470   2.593   0.101 -1.4885  0.6234  0.3429
39052SOL     OW19162   3.521   0.265   6.279 -0.2285  0.3204  0.2451
39052SOL    HW119163   3.610   0.246   6.249 -0.5972 -1.7359  0.3037
39052SOL    HW219164   3.493   0.185   6.324 -2.1624  0.8566  0.0828
39053SOL     OW19165   7.553   2.311   9.494  0.2372 -0.2158 -0.6214
39053SOL    HW119166   7.503   2.320   9.413 -0.8023 -1.9867 -0.2273
39053SOL    HW219167   7.615   2.384   9.492  1.0317 -0.8607 -3.5313
39054SOL     OW19168   4.315   7.489   9.103 -0.0919 -1.1090 -0.0168
39054SOL    HW119169   4.230   7.522   9.077 -0.8076 -3.3968 -0.8024
39054SOL    HW219170   4.374   7.565   9.095 -2.0090  0.5333  0.6102
39055SOL     OW19171   0.186  10.098  10.303 -0.3812  0.3900 -0.4898
39055SOL    HW119172   0.100  10.130  10.275 -0.5005 -0.1975 -0.8159
39055SOL    HW219173   0.243  10.114  10.227  0.1873  2.1930  0.2463
39056SOL     OW19174  10.956   5.102   1.173 -0.8132 -0.4582 -0.7248
39056SOL    HW119175  10.889   5.042   1.206 -1.1276 -1.2593 -2.7138
39056SOL    HW219176  10.964   5.168   1.242 -1.5654 -1.9225  0.8404
39057SOL     OW19177   2.616   7.597   5.795  0.1405  0.3893  0.2261
39057SOL    HW119178   2.671   7.589   5.872  0.8510  0.7900 -0.2253
39057SOL    HW219179   2.639   7.683   5.759 -0.8446  0.6005  0.0771
39058SOL     OW19180   8.377   3.364   4.465 -0.2002 -0.4359  0.1371
39058SOL    HW119181   8.365   3.405   4.379  3.2953 -2.1463 -1.3565
39058SOL    HW219182   8.294   3.320   4.482 -1.1476  0.2644 -2.1951
39059SOL     OW19183   9.692   5.572   4.618 -0.4770 -0.6722 -0.4743
39059SOL    HW119184   9.636   5.519   4.561  1.2228 -2.1054 -0.8860
39059SOL    HW219185   9.778   5.529   4.615  0.0938  0.1095  1.9311
39060SOL     OW19186   7.812   7.289   5.491 -0.6880 -0.1838 -0.0003
39060SOL    HW119187   7.817   7.197   5.466  0.8322  0.3530 -1.9649
39060SOL    HW219188   7.891   7.306   5.542  1.3092  0.8684 -3.1518
39061SOL     OW19189  10.783   3.216   2.027  0.9121  0.1787 -0.1592
39061SOL    HW119190  10.779   3.294   2.083  0.2046  0.4395 -0.5691
39061SOL    HW219191  10.714   3.159   2.061  3.2376 -1.5771  2.0267
39062SOL     OW19192   6.181   1.828   2.881 -0.2117  0.1117 -0.3739
39062SOL    HW119193   6.235   1.887   2.933 -0.7824  0.0753  0.2704
39062SOL    HW219194   6.092   1.863   2.889 -0.3130  0.1235 -1.3517
39063SOL     OW19195   7.837   3.712   7.987 -0.4564 -0.1239  0.3199
39063SOL    HW119196   7.779   3.652   8.034  0.9906 -2.0082 -0.1614
39063SOL    HW219197   7.908   3.656   7.955  1.3873  1.9899  0.4755
39064SOL     OW19198   6.237   4.784  10.727 -0.6694 -0.1381 -0.0841
39064SOL    HW119199   6.310   4.725  10.708 -0.1628  0.2767  0.5184
39064SOL    HW219200   6.178   4.775  10.652  0.7429  0.6685 -1.3438
39065SOL     OW19201   3.346   0.338   9.631  0.2173 -0.1376 -0.0363
39065SOL    HW119202   3.306   0.332   9.718 -1.5478 -0.8532 -0.8417
39065SOL    HW219203   3.416   0.273   9.632 -0.6481 -1.1067  0.4593
39066SOL     OW19204  10.164   2.938   1.624 -0.5430  0.3552  0.3563
39066SOL    HW119205  10.186   2.973   1.711  1.7212  1.2778 -0.5032
39066SOL    HW219206  10.075   2.905   1.633  0.5483 -2.2586  3.8578
39067SOL     OW19207   9.682   3.957   5.280 -0.1539  0.3412 -0.4290
39067SOL    HW119208   9.761   3.970   5.333  1.4769  0.4630 -2.7672
39067SOL    HW219209   9.649   4.046   5.263  0.4450  0.4221 -1.2045
39068SOL     OW19210   2.113   7.266   5.518 -0.0775  0.3635  0.0664
39068SOL    HW119211   2.061   7.306   5.448  0.3285 -0.1752 -0.5587
39068SOL    HW219212   2.162   7.196   5.474 -1.2816 -1.2801  1.2547
39069SOL     OW19213   0.767   2.314   5.273 -0.1441  0.2485  0.2753
39069SOL    HW119214   0.757   2.331   5.179  0.8952 -1.2875 -0.1699
39069SOL    HW219215   0.828   2.240   5.277 -0.8624 -0.3085  2.1390
39070SOL     OW19216   4.012  10.377   4.441 -0.4647  0.2910  0.4860
39070SOL    HW119217   4.030  10.305   4.500 -0.8806 -0.0741  0.1748
39070SOL    HW219218   4.038  10.345   4.355 -3.0970 -0.5245 -0.1162
39071SOL     OW19219   6.246   4.005   6.754 -0.2850  0.1853 -0.0165
39071SOL    HW119220   6.277   4.072   6.693  0.6909  1.4653  1.8244
39071SOL    HW219221   6.286   4.027   6.838 -0.4631 -2.3365  0.8227
39072SOL     OW19222   5.536   2.273   1.319  0.4646 -0.0227 -0.2636
39072SOL    HW119223   5.522   2.201   1.257  0.6541 -0.3287  0.0412
39072SOL    HW219224   5.477   2.253   1.391 -1.0967  1.2919 -1.1190
39073SOL     OW19225   9.255   0.292  10.610  0.5572  0.7885  0.2088
39073SOL    HW119226   9.165   0.267  10.592  0.1647  0.1030  2.6768
39073SOL    HW219227   9.307   0.247  10.544 -0.8065  0.1539 -0.4618
39074SOL     OW19228   3.214   9.608   6.088  0.1135 -0.0960 -0.5247
39074SOL    HW119229   3.136   9.659   6.067  0.2957 -0.0725 -1.1804
39074SOL    HW219230   3.217   9.606   6.183  1.3189  3.0947 -0.3484
39075SOL     OW19231   3.517  10.201   0.775 -0.4965 -0.1422  0.0390
39075SOL    HW119232   3.552  10.208   0.686  0.8123 -1.1144  0.4421
39075SOL    HW219233   3.428  10.167   0.764 -0.0374 -1.1049 -0.8820
39076SOL     OW19234   5.737   5.401   6.225  0.2544  0.3095 -0.3676
39076SOL    HW119235   5.791   5.432   6.298 -0.1325 -0.3427  0.2103
39076SOL    HW219236   5.794   5.408   6.149  0.0752  2.8026 -0.3659
39077SOL     OW19237   8.341   7.724   6.252 -0.3123 -0.8244 -0.1839
39077SOL    HW119238   8.256   7.768   6.239 -0.9828 -2.0837 -0.2603
39077SOL    HW219239   8.334   7.645   6.198  1.7559  0.0817 -1.9212
39078SOL     OW19240   7.691   4.289   6.514 -0.4992  0.0703 -0.3661
39078SOL    HW119241   7.784   4.310   6.510 -0.4052  0.0645  1.1838
39078SOL    HW219242   7.648   4.372   6.537 -0.5720 -0.4511  1.5303
39079SOL     OW19243   2.052   2.913   2.159 -0.1255 -0.1859  0.1073
39079SOL    HW119244   2.135   2.869   2.176  0.5016  1.6892  2.4804
39079SOL    HW219245   2.070   2.970   2.084  1.1781  1.0755  1.3095
39080SOL     OW19246  10.744  10.235   5.573  0.1599  0.3156 -0.3015
39080SOL    HW119247  10.764  10.216   5.665  2.7452 -1.1804 -1.0704
39080SOL    HW219248  10.707  10.323   5.574 -1.9663 -0.4896  2.3637
39081SOL     OW19249   2.969  10.543  10.024  0.6029 -0.5066  0.0315
39081SOL    HW119250   2.964  10.455  10.061  0.6836 -0.2539  0.6544
39081SOL    HW219251   3.006  10.596  10.093  0.8162 -0.0311 -0.4401
39082SOL     OW19252   0.236   5.374   9.753 -0.0741 -0.4211 -0.5118
39082SOL    HW119253   0.322   5.404   9.782 -0.0430 -1.7474  0.8758
39082SOL    HW219254   0.254   5.322   9.674  0.2616  0.2012 -0.8489
39083SOL     OW19255  10.406   7.781   1.749 -0.2670  0.4055  0.1218
39083SOL    HW119256  10.417   7.833   1.829 -2.2759  0.8478  0.1532
39083SOL    HW219257  10.341   7.829   1.698  0.2689 -0.3921 -1.3508
39084SOL     OW19258  10.620   2.215   4.490  0.2273 -0.5103 -0.2960
39084SOL    HW119259  10.539   2.191   4.445 -0.0520  1.2915 -0.8245
39084SOL    HW219260  10.601   2.203   4.583 -1.0135  0.8009 -0.3415
39085SOL     OW19261   7.320   7.488   4.576 -0.1678  0.0606 -0.1666
39085SOL    HW119262   7.415   7.472   4.574 -0.0305  0.8711 -0.9140
39085SOL    HW219263   7.302   7.532   4.493 -1.2471 -0.3061 -0.1361
39086SOL     OW19264   2.464   1.189   6.386  0.3151  0.2395 -0.1160
39086SOL    HW119265   2.472   1.102   6.424  2.2800 -1.3143 -3.5857
39086SOL    HW219266   2.539   1.238   6.420 -0.4446  0.4175  1.3582
39087SOL     OW19267   7.843   7.566   3.951  0.5275  0.1895  0.2239
39087SOL    HW119268   7.765   7.568   4.006  1.2436 -0.2979  1.2887
39087SOL    HW219269   7.815   7.605   3.868 -0.9371 -0.3160  0.4516
39088SOL     OW19270   3.543   7.167  10.218  0.1682  0.2314  0.2933
39088SOL    HW119271   3.603   7.171  10.144  0.2520  0.4051  0.3717
39088SOL    HW219272   3.583   7.104  10.278 -0.1314 -0.2699 -0.0142
39089SOL     OW19273   3.779   4.955   8.392  0.4617 -0.1167 -0.0354
39089SOL    HW119274   3.798   4.864   8.373  0.7421 -0.5189  1.9367
39089SOL    HW219275   3.822   4.972   8.476  2.0512  2.3993 -1.2234
39090SOL     OW19276   1.035   0.824   5.257 -0.0366  0.0706  0.3613
39090SOL    HW119277   1.082   0.833   5.340  1.4551 -1.4363 -0.2663
39090SOL    HW219278   1.103   0.807   5.192 -1.1185  1.6743 -1.2878
39091SOL     OW19279   9.362   2.170   2.188  0.4698  0.4830 -0.2065
39091SOL    HW119280   9.425   2.191   2.119  0.9241  0.5334  0.2191
39091SOL    HW219281   9.280   2.209   2.158  0.7369  0.7722 -0.5700
39092SOL     OW19282   7.905   5.466   7.362  0.9418 -0.5320 -0.3985
39092SOL    HW119283   7.938   5.382   7.394  0.5269 -1.2323 -1.7526
39092SOL    HW219284   7.813   5.466   7.389  0.5232 -1.2361 -1.7157
39093SOL     OW19285   0.134   6.976   4.507 -0.8055 -0.2356  0.1662
39093SOL    HW119286   0.221   6.957   4.473 -0.8546  0.4002 -0.3367
39093SOL    HW219287   0.083   7.002   4.430 -0.1857  3.9477  0.9435
39094SOL     OW19288   9.958   5.281   0.732 -0.8423  0.0650  0.3938
39094SOL    HW119289   9.865   5.303   0.724 -1.5410 -2.7402 -0.1244
39094SOL    HW219290   9.960   5.191   0.764  1.7494  0.3638  1.3817
39095SOL     OW19291   9.873   1.035  10.852  0.2609  0.0081 -0.0793
39095SOL    HW119292   9.966   1.058  10.842  0.4491 -0.8410 -0.3030
39095SOL    HW219293   9.838   1.038  10.763  0.6648 -2.1103 -0.3636
39096SOL     OW19294   1.205   7.897   6.863  0.0835 -0.0211  0.2815
39096SOL    HW119295   1.232   7.984   6.835  0.1942 -0.1786 -0.1011
39096SOL    HW219296   1.269   7.838   6.825 -0.6111 -0.3692 -0.3717
39097SOL     OW19297   5.694   7.177   5.948  0.5700 -0.0091 -0.7982
39097SOL    HW119298   5.774   7.214   5.911  0.4612  1.1179  0.0433
39097SOL    HW219299   5.683   7.222   6.031 -1.4833  0.5778 -1.3362
39098SOL     OW19300   1.002   1.617   1.104 -0.6066  0.3470 -0.3400
39098SOL    HW119301   0.967   1.631   1.016  0.7472  1.3926 -0.7594
39098SOL    HW219302   1.088   1.659   1.102  0.5645 -1.8324  0.7086
39099SOL     OW19303   1.553   3.483   9.261  0.2371 -1.0064 -0.2675
39099SOL    HW119304   1.568   3.484   9.166 -1.0714  1.7952 -0.5548
39099SOL    HW219305   1.620   3.541   9.297  0.2213 -1.4112  0.4299
39100SOL     OW19306   5.503   6.817   0.663 -0.1042 -0.6262  0.2290
39100SOL    HW119307   5.533   6.875   0.593  0.5926 -2.7910 -1.3680
39100SOL    HW219308   5.464   6.876   0.727  0.2646  1.5672 -1.4316
39101SOL     OW19309   5.654   8.881   4.816  0.1352  0.1293 -0.2119
39101SOL    HW119310   5.574   8.922   4.781  0.0626 -0.2550 -0.4934
39101SOL    HW219311   5.662   8.799   4.769  1.5132  0.8186 -1.2508
39102SOL     OW19312   8.340   4.810   7.332 -0.0562  0.2105  1.0651
39102SOL    HW119313   8.415   4.852   7.375  0.1411  0.5547  0.4148
39102SOL    HW219314   8.311   4.743   7.393  0.6364  0.2385  1.4378
39103SOL     OW19315  11.251   9.556   6.816  0.7781 -0.1939  0.3457
39103SOL    HW119316  11.344   9.576   6.832  1.3454 -1.8872 -0.5497
39103SOL    HW219317  11.252   9.502   6.737 -1.1307  0.8721 -0.4591
39104SOL     OW19318   8.990   7.702   1.723 -0.8428 -0.0285 -0.3546
39104SOL    HW119319   9.034   7.687   1.807 -2.9877 -1.3756  0.6244
39104SOL    HW219320   9.012   7.792   1.700  0.8663 -0.0502  0.9665
39105SOL     OW19321   1.346   3.976  10.810 -0.5170  0.2902  0.1151
39105SOL    HW119322   1.345   3.959  10.905 -1.5465  1.7102  0.3966
39105SOL    HW219323   1.423   3.929  10.778  0.2291  0.3153  1.7736
39106SOL     OW19324   5.189   0.159   3.646  0.0098  0.7540  0.3014
39106SOL    HW119325   5.200   0.229   3.710  1.1848 -1.7741  3.1063
39106SOL    HW219326   5.110   0.113   3.674  2.1247 -2.1685  2.0016
39107SOL     OW19327   6.743   1.691   3.868 -1.2307 -0.1472  0.5465
39107SOL    HW119328   6.659   1.722   3.835 -2.6192 -2.3488  1.7497
39107SOL    HW219329   6.720   1.637   3.944  1.1305 -2.0127  0.0655
39108SOL     OW19330   0.552   6.088   5.093  0.2417 -0.5985 -0.0794
39108SOL    HW119331   0.480   6.149   5.077  0.6552 -0.4139 -1.3750
39108SOL    HW219332   0.532   6.048   5.177 -0.4338  0.7826  0.4425
39109SOL     OW19333   5.809   4.713   5.631 -0.4172 -0.2814 -0.7502
39109SOL    HW119334   5.827   4.806   5.616  0.6813 -0.7539 -2.6846
39109SOL    HW219335   5.716   4.710   5.654  0.0877  1.5211  1.9393
39110SOL     OW19336   9.752   1.320   9.109  0.3771 -0.3342  0.2638
39110SOL    HW119337   9.675   1.264   9.102  0.1603 -0.5564  3.3378
39110SOL    HW219338   9.722   1.406   9.079 -1.0185 -0.4679  1.2149
39111SOL     OW19339   5.719   6.912   5.893 -0.3564  0.2281  0.3583
39111SOL    HW119340   5.707   7.004   5.915 -0.6437  0.7495 -1.7790
39111SOL    HW219341   5.632   6.873   5.905 -0.1202  0.0763  1.7715
39112SOL     OW19342   0.786   7.026   6.752 -0.0874  0.2714 -0.1007
39112SOL    HW119343   0.845   6.981   6.693 -0.9793 -0.7282 -0.2493
39112SOL    HW219344   0.752   7.100   6.701  0.8669  0.7476 -0.0697
39113SOL     OW19345   1.662   7.971  11.149 -0.0361  1.2777  0.1233
39113SOL    HW119346   1.754   7.997  11.152  0.8853 -1.5291 -0.5412
39113SOL    HW219347   1.619   8.039  11.098  2.3843  0.9543 -2.5853
39114SOL     OW19348   2.657   6.252   5.021  0.1797 -0.4681  0.2904
39114SOL    HW119349   2.680   6.256   4.928  2.2144  0.5388  0.7657
39114SOL    HW219350   2.625   6.340   5.041  0.7608 -0.3598  0.7641
39115SOL     OW19351   7.768   5.899   0.785  0.7352  0.3014 -1.1903
39115SOL    HW119352   7.733   5.988   0.786  0.5943  0.2486 -0.3488
39115SOL    HW219353   7.693   5.844   0.762 -0.1170  0.0776  1.6792
39116SOL     OW19354   3.844   9.009   7.643  0.5373 -1.0132 -0.0393
39116SOL    HW119355   3.829   8.914   7.646 -3.2321 -0.6800 -1.9264
39116SOL    HW219356   3.886   9.023   7.558 -0.1389 -0.9058 -0.3599
39117SOL     OW19357   7.920   0.735   8.697 -0.1990 -0.6537  0.0717
39117SOL    HW119358   7.898   0.711   8.787  0.2943 -0.0700  0.3576
39117SOL    HW219359   7.984   0.669   8.669  1.4372  0.4752  0.9787
39118SOL     OW19360   8.890   8.751   2.974  0.6526 -0.1892  0.3492
39118SOL    HW119361   8.848   8.811   2.913  1.1945 -1.0715 -0.9142
39118SOL    HW219362   8.844   8.766   3.057  0.9776  2.1610  0.1679
39119SOL     OW19363   3.631   3.846  10.019 -0.3273 -0.5400 -0.0389
39119SOL    HW119364   3.555   3.864  10.073 -1.5061 -0.4896 -1.6509
39119SOL    HW219365   3.595   3.821   9.934  1.4592 -0.4745 -0.8609
39120SOL     OW19366   1.285   7.718   2.882  0.5487 -0.3005 -0.2806
39120SOL    HW119367   1.364   7.666   2.893  0.1223 -0.7808  0.5778
39120SOL    HW219368   1.213   7.656   2.893  0.0288  0.0012 -1.6517
39121SOL     OW19369   5.907   4.175   1.937  0.1981  0.0087  0.0723
39121SOL    HW119370   5.996   4.205   1.918 -0.0751  0.1073 -1.1404
39121SOL    HW219371   5.911   4.080   1.928  0.1027  0.0426 -0.3338
39122SOL     OW19372   5.834  10.230   6.251 -0.4224 -0.3021  0.5946
39122SOL    HW119373   5.819  10.235   6.346 -0.6942 -1.8545  0.6648
39122SOL    HW219374   5.910  10.287   6.236 -0.3709 -0.0312  1.7445
39123SOL     OW19375   1.159   1.232   1.026 -0.1771 -0.2015  0.0048
39123SOL    HW119376   1.153   1.171   0.953 -4.3586 -1.0326  0.7937
39123SOL    HW219377   1.120   1.313   0.993  0.7328  0.4276  0.4409
39124SOL     OW19378   2.697   0.271   0.114  0.4255  0.5796  0.1250
39124SOL    HW119379   2.749   0.282   0.194  0.5761  2.2137 -0.1585
39124SOL    HW219380   2.751   0.310   0.045  0.1767 -0.5682 -0.7416
39125SOL     OW19381   2.517   9.825   8.229  0.4469  0.1392 -0.1452
39125SOL    HW119382   2.473   9.833   8.313 -0.1674 -0.4643 -0.3988
39125SOL    HW219383   2.510   9.732   8.207 -1.3762  0.6037 -1.8922
39126SOL     OW19384   5.498   2.140  11.077 -0.1782 -0.1853  0.3950
39126SOL    HW119385   5.576   2.195  11.070 -0.5038  0.2451 -0.0235
39126SOL    HW219386   5.531   2.051  11.087  0.3624  0.0297  0.5408
39127SOL     OW19387   3.522   8.704   0.308 -0.2364  0.3618 -0.3896
39127SOL    HW119388   3.508   8.798   0.312  0.8960  0.5896 -1.2112
39127SOL    HW219389   3.458   8.667   0.369  2.3099  1.9941  3.7172
39128SOL     OW19390   0.297   1.068   0.921  0.2393 -0.8903 -0.6087
39128SOL    HW119391   0.250   1.071   0.838 -2.8421 -1.2556  0.9881
39128SOL    HW219392   0.299   0.975   0.944 -0.6509 -0.6239  0.6018
39129SOL     OW19393   0.185   9.854   4.887  0.5668  0.0178  0.2106
39129SOL    HW119394   0.246   9.845   4.960  0.6584  0.0837  0.1417
39129SOL    HW219395   0.240   9.871   4.811  0.3701  2.4871  0.5300
39130SOL     OW19396   9.224   1.787   4.875 -0.4357 -0.1642  0.4542
39130SOL    HW119397   9.170   1.822   4.946 -1.6979  0.5097 -0.7732
39130SOL    HW219398   9.175   1.710   4.845  0.1656 -0.5324  0.4073
39131SOL     OW19399   0.076   2.087   5.250  0.4467 -0.2148 -0.2068
39131SOL    HW119400   0.030   2.018   5.297  2.1851 -1.7708 -0.6495
39131SOL    HW219401   0.091   2.051   5.163  1.6280  0.5771 -0.3636
39132SOL     OW19402   0.679   3.340   1.626  0.0108  0.2694 -0.1422
39132SOL    HW119403   0.719   3.266   1.581 -0.0651 -0.9307  1.6491
39132SOL    HW219404   0.591   3.309   1.649 -0.7057  1.6034 -0.9542
39133SOL     OW19405   8.760   4.746   0.890 -0.4415  0.3501 -0.4497
39133SOL    HW119406   8.745   4.840   0.905 -2.0962  0.1209 -0.5914
39133SOL    HW219407   8.855   4.737   0.898 -0.1726  2.1483 -1.0879
39134SOL     OW19408   0.156   6.394   1.437 -0.4149  0.0148 -0.4275
39134SOL    HW119409   0.112   6.391   1.522 -2.2986  2.6447 -1.1712
39134SOL    HW219410   0.237   6.443   1.454 -0.7518  0.4780 -0.0963
39135SOL     OW19411   9.515  10.701   3.389 -0.2057 -0.2120 -0.5699
39135SOL    HW119412   9.434  10.677   3.344 -0.3431 -1.4541  0.2681
39135SOL    HW219413   9.515  10.646   3.467  2.3775 -1.7534 -1.5204
39136SOL     OW19414   7.215   6.674  10.447 -0.4789  0.5081  0.2640
39136SOL    HW119415   7.287   6.694  10.388 -1.1624  0.6078 -0.5617
39136SOL    HW219416   7.167   6.603  10.403 -0.7822  0.3162  0.8851
39137SOL     OW19417   0.483   4.787   7.825 -0.0455  0.2821 -0.8151
39137SOL    HW119418   0.451   4.755   7.740 -1.0735 -0.8602 -0.0434
39137SOL    HW219419   0.578   4.786   7.817 -0.0569 -1.7366 -1.3233
39138SOL     OW19420   0.732   0.612   0.345  0.3725  0.3162  0.4118
39138SOL    HW119421   0.732   0.683   0.281 -0.6782  1.2654  1.4210
39138SOL    HW219422   0.790   0.546   0.308  0.2689  1.1007 -1.2240
39139SOL     OW19423  10.896   7.665   2.725  0.6054 -0.7159 -0.4330
39139SOL    HW119424  10.900   7.569   2.723 -1.6180 -0.9048  1.0674
39139SOL    HW219425  10.940   7.689   2.806 -0.4318 -0.6158  0.1092
39140SOL     OW19426   6.987   9.495  10.746 -0.7882  0.0664  0.1916
39140SOL    HW119427   6.940   9.429  10.696 -0.6878  0.0192  0.1590
39140SOL    HW219428   7.030   9.549  10.679  1.8221 -1.7787  0.2318
39141SOL     OW19429   0.530  10.516   8.440  0.3237 -0.3759 -0.3550
39141SOL    HW119430   0.550  10.580   8.373  0.3557  0.5650  0.5240
39141SOL    HW219431   0.452  10.550   8.484 -0.2673 -1.4644 -0.5281
39142SOL     OW19432   3.949   9.605   4.048  0.2277  0.1045  0.5302
39142SOL    HW119433   3.885   9.536   4.067  1.7036 -0.9326  2.1441
39142SOL    HW219434   4.034   9.560   4.049  1.1308  1.7101  0.2444
39143SOL     OW19435   2.909   9.696   4.075  0.1032 -0.2779  0.3264
39143SOL    HW119436   2.978   9.707   4.009  0.9342 -0.5924  1.1180
39143SOL    HW219437   2.949   9.640   4.142 -0.4370  0.6787  1.4811
39144SOL     OW19438   6.436   1.919   3.143 -0.2987  0.2433  0.0860
39144SOL    HW119439   6.382   1.970   3.083 -1.2089 -0.2563  0.4520
39144SOL    HW219440   6.520   1.964   3.145 -0.4983  0.6811 -0.9880
39145SOL     OW19441   0.816   0.550   6.354 -0.3115  0.3617  0.4941
39145SOL    HW119442   0.783   0.481   6.295  2.6087 -0.2222 -0.6127
39145SOL    HW219443   0.789   0.632   6.312  0.5249 -0.0681 -0.9467
39146SOL     OW19444   3.092   5.758   8.525 -0.2718  0.3214 -0.3787
39146SOL    HW119445   3.026   5.704   8.480  0.8595 -0.9196 -0.6041
39146SOL    HW219446   3.113   5.827   8.462 -1.1052  0.5481 -0.4259
39147SOL     OW19447  10.575   6.556   1.029 -0.7231  0.4302  0.2515
39147SOL    HW119448  10.509   6.610   1.072 -1.5838  0.0213 -0.5230
39147SOL    HW219449  10.650   6.614   1.018 -1.2109  1.1172  0.5105
39148SOL     OW19450   0.524   6.169   7.069  0.0928 -0.4579  0.1094
39148SOL    HW119451   0.569   6.157   6.985 -2.0466 -1.6789 -0.9442
39148SOL    HW219452   0.455   6.233   7.051  0.0327 -0.2105  1.1380
39149SOL     OW19453   7.317   8.961   6.959  0.2804 -0.7761  0.8236
39149SOL    HW119454   7.361   9.032   6.913  0.2283 -1.0493  0.3524
39149SOL    HW219455   7.309   8.891   6.895 -0.8218 -0.7401  0.9029
39150SOL     OW19456   6.285   9.732   1.113 -0.1614  0.0055 -0.3094
39150SOL    HW119457   6.273   9.771   1.027 -0.7363  1.7984  0.5378
39150SOL    HW219458   6.368   9.769   1.145 -0.9430  0.9396  0.6922
39151SOL     OW19459   3.554   4.662   0.326 -0.4471 -0.3792  0.1978
39151SOL    HW119460   3.493   4.590   0.342 -0.6503 -0.5370 -1.1538
39151SOL    HW219461   3.640   4.623   0.342 -0.6510 -0.2649  1.7123
39152SOL     OW19462   2.924   2.413   4.884 -0.2653 -0.4606 -0.7925
39152SOL    HW119463   2.975   2.460   4.818  1.2933 -2.1809 -0.9043
39152SOL    HW219464   2.843   2.389   4.838  0.3764 -0.8000 -1.7858
39153SOL     OW19465   8.824   4.991   8.724  0.8682 -0.4959  0.0144
39153SOL    HW119466   8.748   4.934   8.741  0.9252 -0.6731 -0.3176
39153SOL    HW219467   8.815   5.016   8.633  2.3569 -2.2703 -0.6879
39154SOL     OW19468   3.060   1.141   6.127 -0.4626  0.1448  0.6689
39154SOL    HW119469   2.971   1.128   6.095 -0.3739 -0.2940  0.5900
39154SOL    HW219470   3.050   1.163   6.220 -0.5821 -1.7426  1.1481
39155SOL     OW19471   9.987   4.751   3.298 -0.2157  0.2448  1.0801
39155SOL    HW119472  10.011   4.676   3.352 -3.2827  0.2304  2.6630
39155SOL    HW219473   9.899   4.730   3.266 -0.3908  2.3483 -0.0103
39156SOL     OW19474  10.963   6.529   1.826  0.1774  0.3804  0.3233
39156SOL    HW119475  10.980   6.613   1.870  0.9642  0.0021  0.7830
39156SOL    HW219476  11.032   6.523   1.760 -0.8183  0.8016 -0.7915
39157SOL     OW19477   6.875   2.126   4.237  0.9103  0.0949 -0.1212
39157SOL    HW119478   6.825   2.055   4.278 -1.4013  1.7069  0.0318
39157SOL    HW219479   6.963   2.090   4.228  0.2603 -2.1765  1.4910
39158SOL     OW19480   6.893   1.348   0.460 -0.4654 -0.5176  0.0182
39158SOL    HW119481   6.934   1.299   0.530  1.7313 -0.5312 -1.1980
39158SOL    HW219482   6.932   1.435   0.465  0.6987 -0.8727 -1.8999
39159SOL     OW19483   4.436   8.702   0.871 -0.0548  0.6067 -0.2823
39159SOL    HW119484   4.436   8.681   0.965 -1.9661 -0.2206 -0.4354
39159SOL    HW219485   4.386   8.783   0.864 -1.0649 -0.0412 -0.7096
39160SOL     OW19486   6.258  10.311   5.569  0.1155 -0.1929 -0.0497
39160SOL    HW119487   6.210  10.229   5.572 -0.4909  0.1614  0.0610
39160SOL    HW219488   6.243  10.352   5.654 -0.0587  0.2936 -0.3085
39161SOL     OW19489   7.643   0.501   2.487  0.0139 -0.3885  0.5277
39161SOL    HW119490   7.547   0.507   2.490 -0.1975 -2.1337 -0.8223
39161SOL    HW219491   7.660   0.439   2.416  2.1962  0.6565  0.0678
39162SOL     OW19492   3.850   7.663   6.254 -0.0168 -0.2114  0.8633
39162SOL    HW119493   3.929   7.623   6.291  0.6294  0.5807  0.3567
39162SOL    HW219494   3.829   7.733   6.316 -0.4446 -0.5494  1.1039
39163SOL     OW19495   7.674   4.033   6.590  0.1131  0.0265 -0.6397
39163SOL    HW119496   7.692   4.126   6.573  0.8247 -0.4489 -2.7754
39163SOL    HW219497   7.580   4.023   6.577  0.0062  0.4633 -0.2328
39164SOL     OW19498   1.666   8.322   7.371  0.8371 -0.5397 -0.8051
39164SOL    HW119499   1.726   8.277   7.311  0.1039 -0.0280 -1.9495
39164SOL    HW219500   1.618   8.384   7.315 -0.4640 -0.6492  0.1577
39165SOL     OW19501   5.245   9.287   7.799 -0.8942 -0.1709  0.1066
39165SOL    HW119502   5.274   9.349   7.866 -1.5693 -1.8713  2.0834
39165SOL    HW219503   5.220   9.209   7.848 -0.0582 -2.0510 -2.2631
39166SOL     OW19504   7.319   9.614   7.069 -0.1678 -0.0222  0.1351
39166SOL    HW119505   7.372   9.552   7.119 -0.9695  0.4647  1.6423
39166SOL    HW219506   7.341   9.700   7.107 -1.1269  0.3107 -0.0467
39167SOL     OW19507   0.917   1.068   2.759 -0.0795  0.3491 -0.0081
39167SOL    HW119508   0.862   1.094   2.833 -0.0050 -1.0979  0.5825
39167SOL    HW219509   0.974   1.143   2.744  0.5484  0.3216  2.0110
39168SOL     OW19510   0.029   5.787   0.544 -0.4016  0.7598 -0.2820
39168SOL    HW119511  -0.019   5.847   0.487 -1.6277  1.2684  1.2100
39168SOL    HW219512   0.095   5.748   0.488 -0.9433  1.9417 -1.8049
39169SOL     OW19513   5.936   3.132   2.122  0.3461 -0.2492  0.0499
39169SOL    HW119514   5.926   3.037   2.115  1.2694 -0.3598  0.0768
39169SOL    HW219515   5.997   3.155   2.051 -1.5645  0.6389 -1.3890
39170SOL     OW19516   4.764   3.460   7.285  0.5597 -0.0264 -0.4660
39170SOL    HW119517   4.775   3.404   7.209  0.2312 -0.9518  0.1458
39170SOL    HW219518   4.755   3.399   7.359  1.0320  0.8434  0.3379
39171SOL     OW19519   4.258   8.439   9.563  0.0351  0.0168 -0.2349
39171SOL    HW119520   4.176   8.485   9.577 -2.8429 -3.7837 -2.4914
39171SOL    HW219521   4.283   8.408   9.650 -1.4495  0.5303  0.4103
39172SOL     OW19522   5.856   2.675   8.391  0.4088  0.2802  0.4853
39172SOL    HW119523   5.812   2.671   8.306  0.4545 -2.5064  0.5229
39172SOL    HW219524   5.795   2.631   8.451  1.0616  0.8463  1.5889
39173SOL     OW19525   2.185  10.839  10.771 -0.1075  0.2127 -0.2584
39173SOL    HW119526   2.114  10.788  10.731  0.5285  0.9358 -2.4393
39173SOL    HW219527   2.239  10.867  10.697  2.6410 -0.5252  1.3355
39174SOL     OW19528   6.900   5.089   7.925 -0.1701 -0.4887 -0.3401
39174SOL    HW119529   6.829   5.101   7.862 -0.0007 -0.6093 -0.5556
39174SOL    HW219530   6.887   5.001   7.959  1.8503 -1.9453 -2.9165
39175SOL     OW19531   4.126  11.147   7.124  0.2387 -0.4574 -0.3020
39175SOL    HW119532   4.125  11.073   7.185 -1.1674 -0.5154 -0.3498
39175SOL    HW219533   4.160  11.110   7.042  0.9110 -0.6949  0.0819
39176SOL     OW19534   6.938   2.050   9.023  0.5007 -0.3613 -0.4483
39176SOL    HW119535   6.875   2.107   9.069  1.1651 -0.8693  1.1550
39176SOL    HW219536   6.919   2.064   8.930  0.7626  2.6202 -0.1480
39177SOL     OW19537  10.292   0.688   3.521  0.5063 -0.3323 -0.0751
39177SOL    HW119538  10.257   0.689   3.610  0.9014  1.7734  0.1130
39177SOL    HW219539  10.367   0.629   3.525  0.8548  0.1652  1.1453
39178SOL     OW19540   2.557  10.319   2.804 -0.1717  0.0319 -0.5119
39178SOL    HW119541   2.533  10.411   2.788 -0.9280 -0.3457 -1.6458
39178SOL    HW219542   2.652  10.320   2.809 -0.2223  1.1295  1.1782
39179SOL     OW19543   2.982   9.903   6.066 -0.6410 -0.3518  0.3732
39179SOL    HW119544   2.964   9.841   6.136 -0.9084 -0.5787  0.1061
39179SOL    HW219545   2.962   9.989   6.103  1.8381 -0.1694  1.4945
39180SOL     OW19546  10.236   9.183   5.624 -0.0123  0.1679  0.1787
39180SOL    HW119547  10.165   9.223   5.574  0.4903  1.6017  0.5646
39180SOL    HW219548  10.237   9.231   5.706 -0.5645 -1.8878  1.4429
39181SOL     OW19549   7.819   4.689   8.661 -0.2524  0.0176  0.1399
39181SOL    HW119550   7.871   4.746   8.717 -0.6306  0.1970  0.3182
39181SOL    HW219551   7.734   4.734   8.654  0.0656  0.4357 -1.2933
39182SOL     OW19552   1.651   8.639   5.273  0.5415  0.3261 -0.3672
39182SOL    HW119553   1.575   8.582   5.284  0.9418 -0.0734  0.3910
39182SOL    HW219554   1.620   8.726   5.296  0.5925 -0.0187  1.1228
39183SOL     OW19555   6.505   1.735   5.477 -0.2913 -0.4775  0.0530
39183SOL    HW119556   6.561   1.660   5.494  1.2286  0.2559 -1.3711
39183SOL    HW219557   6.419   1.698   5.458  0.3772 -1.8457 -0.4295
39184SOL     OW19558   0.900   2.335   8.346 -0.7425 -0.8588  0.4610
39184SOL    HW119559   0.884   2.418   8.391 -0.2279  1.4132 -3.0896
39184SOL    HW219560   0.995   2.330   8.339 -0.7842  0.2547 -2.3635
39185SOL     OW19561   8.523   1.362   6.925  0.3067 -0.2096 -0.1761
39185SOL    HW119562   8.578   1.340   7.000 -0.8868 -2.4503  0.1217
39185SOL    HW219563   8.583   1.366   6.851  1.4682  1.7822  0.7918
39186SOL     OW19564  11.194  10.610   3.777 -0.5881 -0.3069  0.3217
39186SOL    HW119565  11.225  10.647   3.860  0.9164  1.4954 -0.9713
39186SOL    HW219566  11.200  10.515   3.790  0.0300 -0.0638  2.1263
39187SOL     OW19567   1.056   2.178   1.424 -0.3243 -0.2431  0.0073
39187SOL    HW119568   1.086   2.221   1.504 -1.6469 -0.6611  0.7630
39187SOL    HW219569   1.120   2.203   1.358  0.4255  0.6720  1.0396
39188SOL     OW19570   4.179  10.367   6.706 -0.3475 -0.0430 -0.0008
39188SOL    HW119571   4.104  10.317   6.738 -0.3798  0.2175  0.3394
39188SOL    HW219572   4.252  10.339   6.761 -0.3121  0.0994  0.0257
39189SOL     OW19573   5.687   5.621   9.181 -0.4503 -0.0955 -0.2635
39189SOL    HW119574   5.601   5.580   9.179  0.4130 -2.1363  1.0888
39189SOL    HW219575   5.697   5.653   9.271 -0.1931  1.0725 -0.6932
39190SOL     OW19576  10.341  11.198   7.558  0.2238 -0.1259 -0.3980
39190SOL    HW119577  10.283  11.131   7.523 -2.0533  1.3801  0.3142
39190SOL    HW219578  10.385  11.234   7.481  0.6740 -1.6166 -0.8897
39191SOL     OW19579   5.628   6.834   6.733  0.1350  0.3254  0.0496
39191SOL    HW119580   5.670   6.809   6.651  2.1848  1.6314  0.6258
39191SOL    HW219581   5.545   6.873   6.707  1.3538  1.9934 -1.5523
39192SOL     OW19582   1.260   1.359   5.384  0.3547 -0.1423 -0.2392
39192SOL    HW119583   1.309   1.442   5.375  0.4432 -0.0207  1.1569
39192SOL    HW219584   1.228   1.360   5.473  3.2274 -3.1353  1.0431
39193SOL     OW19585   3.268   6.134   7.288 -0.1722 -0.2210 -0.1001
39193SOL    HW119586   3.232   6.218   7.261  0.2571  0.0817  0.2417
39193SOL    HW219587   3.279   6.085   7.207 -1.6763 -0.4729 -0.1847
39194SOL     OW19588   4.987   1.948   1.602  1.0888  0.1489 -0.4103
39194SOL    HW119589   4.932   2.021   1.574 -4.1534 -3.2370 -0.3254
39194SOL    HW219590   5.009   1.902   1.521  1.3754 -0.0318 -0.2321
39195SOL     OW19591   1.305   8.933  10.340  0.7518 -0.4130  0.5821
39195SOL    HW119592   1.265   8.869  10.281  1.5703  0.1556 -0.6497
39195SOL    HW219593   1.385   8.959  10.295  2.7159 -1.7200  3.0708
39196SOL     OW19594   7.592   3.945  10.976 -0.0245 -0.5064  0.3678
39196SOL    HW119595   7.508   3.979  11.007 -1.5215 -2.8937 -0.7394
39196SOL    HW219596   7.640   4.022  10.945 -1.4752  1.0164  1.7347
39197SOL     OW19597   2.740   0.422   9.480  0.0462 -0.5278  0.4751
39197SOL    HW119598   2.672   0.484   9.506  1.1101 -0.1540  2.5533
39197SOL    HW219599   2.805   0.475   9.433 -0.5452 -0.6950 -0.5698
39198SOL     OW19600  10.392   4.315  10.024  0.3032 -0.1314  1.0663
39198SOL    HW119601  10.386   4.329   9.930  2.1325 -4.3480  0.0802
39198SOL    HW219602  10.312   4.267  10.046 -0.3205  1.2019  1.8162
39199SOL     OW19603  11.052   9.034   3.146 -0.2209  0.1197 -0.0010
39199SOL    HW119604  11.064   8.977   3.221 -0.2729  1.0309  0.7162
39199SOL    HW219605  10.976   8.998   3.100  0.8314 -1.4422 -0.5838
39200SOL     OW19606   7.988   5.346  10.312 -0.4722  0.3921 -0.7265
39200SOL    HW119607   8.030   5.261  10.299 -0.9418  0.0488 -0.0401
39200SOL    HW219608   8.044   5.407  10.265 -0.3724 -0.3572 -1.6171
39201SOL     OW19609   0.315   1.382   6.419  1.1950  0.1447  0.5294
39201SOL    HW119610   0.259   1.435   6.363 -0.8839 -2.5062 -0.0869
39201SOL    HW219611   0.284   1.398   6.508 -2.3578 -2.8877  0.0890
39202SOL     OW19612  10.796   4.043  11.236 -0.1483  0.4873  0.3428
39202SOL    HW119613  10.703   4.061  11.227 -0.2823 -0.3174  0.0343
39202SOL    HW219614  10.839   4.118  11.195 -0.6786  0.3863 -0.4170
39203SOL     OW19615   7.084   9.619   6.648  0.3505  0.2976  0.0421
39203SOL    HW119616   7.031   9.682   6.600 -0.1130  0.8946  1.3005
39203SOL    HW219617   7.173   9.654   6.643  0.6020 -0.4605 -1.6656
39204SOL     OW19618   0.167   6.513   0.299  0.0382 -0.2625 -0.0476
39204SOL    HW119619   0.239   6.568   0.331 -0.1406 -0.2302  0.3011
39204SOL    HW219620   0.117   6.570   0.241  1.4033 -0.8382 -1.8631
39205SOL     OW19621   6.316   8.896  10.633  0.1922  0.1387 -0.3786
39205SOL    HW119622   6.353   8.851  10.709 -0.7742  0.0214  0.0351
39205SOL    HW219623   6.388   8.950  10.600  1.2639 -1.3779 -0.6460
39206SOL     OW19624  10.477   6.720   7.390 -0.3760  0.0645  0.2482
39206SOL    HW119625  10.537   6.646   7.380 -1.6493 -0.9783 -0.0768
39206SOL    HW219626  10.400   6.682   7.432 -0.1495  1.7312  2.2977
39207SOL     OW19627   9.213  10.933   4.449 -0.2895  0.4681 -0.2737
39207SOL    HW119628   9.270  10.936   4.372 -1.0528 -1.3337 -0.9669
39207SOL    HW219629   9.257  10.875   4.510 -0.4409  0.6303 -0.0100
39208SOL     OW19630   6.689   5.999  11.078 -0.6797 -0.2376 -0.4044
39208SOL    HW119631   6.622   6.029  11.016  1.1284  0.7733 -1.9651
39208SOL    HW219632   6.700   6.073  11.139 -0.4720 -0.1156 -0.5894
39209SOL     OW19633  10.579   3.797   4.480  0.0128  0.3965  0.7200
39209SOL    HW119634  10.664   3.772   4.444  0.5336  3.7833 -0.7460
39209SOL    HW219635  10.596   3.815   4.573  0.9710  1.2955  0.3787
39210SOL     OW19636   0.397  10.497   0.693  0.7786  0.0012 -0.2242
39210SOL    HW119637   0.329  10.430   0.701 -0.1385  1.1312  2.7104
39210SOL    HW219638   0.368  10.551   0.619  0.9425 -2.0918 -1.9134
39211SOL     OW19639   3.322   3.144   9.253  0.0341  0.0455 -0.5262
39211SOL    HW119640   3.321   3.208   9.323 -0.2124  0.0546 -0.5388
39211SOL    HW219641   3.353   3.192   9.176 -0.4601  0.2280 -0.6129
39212SOL     OW19642   2.438   0.734   4.783 -0.6449  0.6940  0.0772
39212SOL    HW119643   2.348   0.764   4.797 -0.8328 -0.4506  1.5754
39212SOL    HW219644   2.491   0.789   4.841 -0.8222 -0.8313  1.7603
39213SOL     OW19645   4.370   4.739  10.512 -0.1558  0.6492  0.4648
39213SOL    HW119646   4.463   4.743  10.491 -0.2047 -1.1568 -0.2781
39213SOL    HW219647   4.337   4.666  10.460 -1.5950  0.0428  2.1513
39214SOL     OW19648   4.846   2.406   7.119 -0.0322  0.5820 -0.0142
39214SOL    HW119649   4.787   2.343   7.160 -0.1609  0.1167 -0.8715
39214SOL    HW219650   4.903   2.437   7.189  1.1571 -1.7617  0.1533
39215SOL     OW19651   4.091   9.767   1.227 -0.5499 -0.0901  0.2724
39215SOL    HW119652   4.081   9.855   1.264  0.1606  0.5364 -0.9189
39215SOL    HW219653   4.062   9.708   1.295 -3.3427  1.1404  0.2742
39216SOL     OW19654   0.674   2.621   0.844  0.3731  0.0096 -0.2183
39216SOL    HW119655   0.688   2.539   0.797  0.1389  0.1483 -0.5298
39216SOL    HW219656   0.679   2.689   0.776  0.1219  0.2165 -0.0295
39217SOL     OW19657   7.869   4.514   6.765 -0.2351 -0.2223  0.2139
39217SOL    HW119658   7.796   4.564   6.802 -1.4570 -3.2937  2.3762
39217SOL    HW219659   7.947   4.548   6.810 -1.0254 -0.3252  1.7036
39218SOL     OW19660   9.208   1.589   0.885 -0.2041  0.0304  0.1640
39218SOL    HW119661   9.212   1.578   0.980  0.2660  0.2287  0.1712
39218SOL    HW219662   9.190   1.501   0.852  1.6801 -0.4740  0.3301
39219SOL     OW19663   7.804   7.310   9.240  0.5198  0.5451 -0.4581
39219SOL    HW119664   7.730   7.297   9.299 -0.8074 -0.4570 -2.2360
39219SOL    HW219665   7.874   7.254   9.276 -0.2962 -0.1435  0.0884
39220SOL     OW19666   1.387   8.944   8.872 -0.5042  0.2515  1.0565
39220SOL    HW119667   1.306   8.895   8.884 -1.0985  0.5666 -1.2209
39220SOL    HW219668   1.455   8.885   8.905 -1.3410 -1.4635 -0.1323
39221SOL     OW19669   9.768   6.795   1.905 -0.2529 -0.1618  0.2335
39221SOL    HW119670   9.815   6.867   1.863 -1.1075 -1.3930 -3.1584
39221SOL    HW219671   9.830   6.759   1.968  2.0198  0.5051 -1.5118
39222SOL     OW19672   8.737   3.688   8.785 -0.0747 -0.0620  0.0349
39222SOL    HW119673   8.713   3.778   8.765 -2.0953 -0.2797  1.1751
39222SOL    HW219674   8.756   3.688   8.879  0.6245 -0.7034 -0.0908
39223SOL     OW19675  10.931   2.560   9.261 -0.7548  0.8009  0.5702
39223SOL    HW119676  10.930   2.618   9.185 -2.3440  0.1462  0.0408
39223SOL    HW219677  11.004   2.591   9.314 -1.1539  2.8725 -0.0022
39224SOL     OW19678   4.213   1.940   9.059  0.6469 -1.0111  0.2284
39224SOL    HW119679   4.138   1.886   9.037  1.0244 -2.4482  2.1420
39224SOL    HW219680   4.176   2.023   9.089  0.0665  0.0257 -3.0541
39225SOL     OW19681   7.018   9.329   9.063  0.3161 -0.6629 -0.2776
39225SOL    HW119682   7.021   9.348   9.156  1.1427  0.3973 -0.4992
39225SOL    HW219683   7.038   9.236   9.056  3.5175 -0.1256  0.4262
39226SOL     OW19684   7.058   1.018   0.434  0.0387  0.5714 -0.3087
39226SOL    HW119685   6.987   1.035   0.372 -0.6069  1.1398  0.5611
39226SOL    HW219686   7.116   0.957   0.388  0.7400  2.6363 -2.3088
39227SOL     OW19687   6.380   4.974   2.757  0.2411  0.4613  0.2293
39227SOL    HW119688   6.417   5.058   2.784 -0.3117  1.0656 -0.8391
39227SOL    HW219689   6.339   4.991   2.673  2.2171 -1.4045 -1.2403
39228SOL     OW19690   5.904  10.060   5.907  0.1872  0.0184  0.3060
39228SOL    HW119691   5.985  10.010   5.894 -1.5552 -2.8947 -0.1044
39228SOL    HW219692   5.862  10.020   5.983 -2.3128 -0.6772 -1.3159
39229SOL     OW19693   8.145  11.078   7.494  0.1083 -0.1385 -0.5044
39229SOL    HW119694   8.105  11.037   7.571  1.0156  1.2073  0.7410
39229SOL    HW219695   8.160  11.006   7.434 -2.2900 -0.9928 -0.2087
39230SOL     OW19696   9.437   2.519  10.049 -0.2740 -0.4069  0.3366
39230SOL    HW119697   9.412   2.441  10.099 -0.2826 -0.4176  0.3152
39230SOL    HW219698   9.356   2.567  10.037 -0.3906 -0.7483 -0.2690
39231SOL     OW19699   7.925   2.829   4.637  0.4794  0.3861 -0.4685
39231SOL    HW119700   7.950   2.882   4.712  1.5416  1.8640 -1.7988
39231SOL    HW219701   7.844   2.786   4.663  1.2229  0.2437  1.7713
39232SOL     OW19702   2.777   2.183  10.554 -1.0390 -0.1517 -0.0382
39232SOL    HW119703   2.717   2.110  10.540 -2.1078  0.2731  2.0229
39232SOL    HW219704   2.722   2.254  10.585  0.3020  0.8367  0.1780
39233SOL     OW19705   9.077   2.936   9.145  0.4422  0.5374  0.1767
39233SOL    HW119706   9.155   2.896   9.108  0.3269 -1.5717  1.9671
39233SOL    HW219707   9.104   2.967   9.231 -0.0192  2.5094 -0.3365
39234SOL     OW19708   1.842   7.526  10.466 -0.2451  0.4880  0.1311
39234SOL    HW119709   1.773   7.559  10.524 -0.4011 -0.1185  0.3051
39234SOL    HW219710   1.835   7.579  10.387 -0.3992  0.9519  0.4540
39235SOL     OW19711   3.251   9.719   2.847  0.0218  0.6887  0.3402
39235SOL    HW119712   3.201   9.637   2.856  0.4761  0.3189 -0.3544
39235SOL    HW219713   3.190   9.779   2.804 -0.4720  0.8751  1.2841
39236SOL     OW19714   6.927   5.080   0.571  0.6059  0.0258  0.1800
39236SOL    HW119715   6.996   5.057   0.633  2.5490 -2.5903 -2.6448
39236SOL    HW219716   6.971   5.135   0.505 -0.6063  0.2770 -0.4526
39237SOL     OW19717   9.945   6.882   6.384 -0.2323 -0.3512  0.0323
39237SOL    HW119718   9.978   6.961   6.341 -2.4769  1.2008  1.0050
39237SOL    HW219719   9.962   6.897   6.477 -1.2250 -0.7401  0.2772
39238SOL     OW19720  11.124   0.605   3.257  0.3212  1.1102  0.1990
39238SOL    HW119721  11.043   0.556   3.274  1.5169 -0.6500  1.1739
39238SOL    HW219722  11.095   0.694   3.240 -1.8752  0.3759 -0.2342
39239SOL     OW19723  11.079   3.477   6.112 -0.0746  0.0999  0.6033
39239SOL    HW119724  11.158   3.443   6.070 -1.0033 -0.6876 -0.5609
39239SOL    HW219725  11.099   3.569   6.130  1.0827 -0.0767  0.2964
39240SOL     OW19726   1.424   4.237   3.809 -0.7264 -0.1906 -0.6059
39240SOL    HW119727   1.517   4.256   3.795 -0.6244  0.1658  0.4711
39240SOL    HW219728   1.387   4.320   3.840 -0.8626 -0.9826  1.4284
39241SOL     OW19729   9.967   8.586   7.406  0.1950  0.1075  0.4805
39241SOL    HW119730   9.872   8.599   7.406  0.2079  0.2023 -0.0348
39241SOL    HW219731  10.003   8.668   7.440  0.1558  0.5622 -0.5542
39242SOL     OW19732   4.727  10.799   8.899 -0.2943  0.6087  0.3015
39242SOL    HW119733   4.776  10.866   8.850  0.4610 -0.4769 -0.4654
39242SOL    HW219734   4.648  10.845   8.928 -2.2026  0.7162 -4.2611
39243SOL     OW19735   1.586  10.389   7.970 -0.3906 -0.3461  0.3199
39243SOL    HW119736   1.560  10.338   8.047 -1.3587 -0.5849 -0.1403
39243SOL    HW219737   1.645  10.455   8.004  0.0512 -1.1160  1.0993
39244SOL     OW19738   8.404   4.964   7.644  0.3420 -0.1150  0.0588
39244SOL    HW119739   8.460   4.970   7.566  0.3251  2.7324  0.1424
39244SOL    HW219740   8.451   4.906   7.703 -0.2720 -3.4584 -2.4632
39245SOL     OW19741   3.282   9.078  11.175 -0.4270  0.0729  0.3409
39245SOL    HW119742   3.375   9.061  11.166  0.1640  2.7023  0.7584
39245SOL    HW219743   3.243   9.042  11.095  1.1771  0.4274 -0.6378
39246SOL     OW19744   9.332   5.470   7.597 -0.5308 -0.5441  0.1562
39246SOL    HW119745   9.293   5.399   7.647 -2.6556 -0.0805 -0.7514
39246SOL    HW219746   9.419   5.481   7.635 -2.2950  0.4710  4.4472
39247SOL     OW19747  10.975  11.162   1.016 -0.2959  0.4202  0.2508
39247SOL    HW119748  10.883  11.149   1.040 -0.4225 -0.2542 -0.5157
39247SOL    HW219749  11.024  11.117   1.085 -0.6443 -1.4008 -0.6228
39248SOL     OW19750   4.260   7.996   6.641 -0.7273  0.4023 -0.1870
39248SOL    HW119751   4.275   8.046   6.560  0.0795  2.2799  1.0404
39248SOL    HW219752   4.343   7.953   6.658 -0.2863  1.4969  0.5628
39249SOL     OW19753   2.128   4.179   8.015  0.4822  0.1003 -0.7642
39249SOL    HW119754   2.050   4.230   8.040  1.3839  1.4341 -0.5951
39249SOL    HW219755   2.153   4.214   7.930 -0.1502 -1.5924 -1.6766
39250SOL     OW19756   4.997   0.499   9.670 -0.0071 -0.5725  0.1578
39250SOL    HW119757   4.922   0.541   9.629  0.0040 -0.0914  0.6263
39250SOL    HW219758   4.963   0.415   9.701 -0.0774 -0.8316 -0.5986
39251SOL     OW19759   3.153   7.684   4.632 -0.6107 -0.0463 -0.5668
39251SOL    HW119760   3.174   7.774   4.608  0.2810  0.0463  0.4619
39251SOL    HW219761   3.080   7.691   4.693  0.9739  0.2289  1.4254
39252SOL     OW19762   5.309   8.654   2.173  0.1682  0.1633 -0.1132
39252SOL    HW119763   5.344   8.733   2.134 -0.8221  0.2374 -0.8943
39252SOL    HW219764   5.303   8.592   2.101 -0.4889 -0.1219  0.1718
39253SOL     OW19765   7.738   9.929   8.041 -1.0160  1.3183  0.0249
39253SOL    HW119766   7.738   9.853   8.099  0.8195  1.9333  0.8992
39253SOL    HW219767   7.684   9.902   7.967  0.3174 -1.2093 -0.1562
39254SOL     OW19768   4.050  10.869   0.379  0.3251  0.0307  0.4977
39254SOL    HW119769   4.134  10.865   0.424  0.3972 -0.1940  0.3421
39254SOL    HW219770   4.068  10.917   0.298  0.6515 -1.4088 -0.3079
39255SOL     OW19771   8.414   9.947   5.171  0.4658 -0.3174 -0.3107
39255SOL    HW119772   8.391   9.930   5.080 -1.4584 -1.7558  0.3862
39255SOL    HW219773   8.456   9.867   5.202  4.2422  1.2761 -0.7413
39256SOL     OW19774   3.749   2.915   8.395  0.2784 -0.6143 -0.3953
39256SOL    HW119775   3.715   2.980   8.333  0.3839 -1.0949 -0.9641
39256SOL    HW219776   3.685   2.915   8.466 -0.7711 -1.2899 -1.3059
39257SOL     OW19777  10.461   8.030   2.784  0.1995 -0.4052 -0.5538
39257SOL    HW119778  10.549   8.055   2.811  0.9470 -1.0030 -2.2501
39257SOL    HW219779  10.462   8.040   2.688 -2.1930  1.4774 -0.4898
39258SOL     OW19780  10.951   6.565   7.656 -0.2638  0.1334 -0.4026
39258SOL    HW119781  10.978   6.651   7.690 -0.4383 -0.5947  1.7628
39258SOL    HW219782  10.993   6.559   7.570  2.5582  1.0293  0.7970
39259SOL     OW19783   7.101   7.579   2.904  0.2304  0.8510  0.0335
39259SOL    HW119784   7.023   7.567   2.850 -0.1273  0.1545  0.6855
39259SOL    HW219785   7.101   7.505   2.964  1.6848  0.5618 -0.2806
39260SOL     OW19786   0.294   3.927   8.665  0.4253  0.6395  0.3507
39260SOL    HW119787   0.363   3.908   8.602 -1.8694 -1.9194 -1.6699
39260SOL    HW219788   0.320   3.878   8.743  1.2625  0.3017 -0.1196
39261SOL     OW19789   0.916   4.458   2.859  0.1239 -1.1172 -0.3027
39261SOL    HW119790   0.924   4.537   2.911  2.3877 -1.0630 -0.6351
39261SOL    HW219791   0.822   4.447   2.845 -0.2879  0.8962  0.6449
39262SOL     OW19792   1.515   4.251   4.611  0.0422 -0.2095  0.3484
39262SOL    HW119793   1.576   4.311   4.654 -0.4583  0.7288 -0.2158
39262SOL    HW219794   1.559   4.166   4.613  0.8052  0.1910  1.0789
39263SOL     OW19795  10.512   1.520   1.441  0.0006 -0.6953  0.4710
39263SOL    HW119796  10.428   1.477   1.424  0.0741 -0.4787 -0.5351
39263SOL    HW219797  10.574   1.448   1.450 -0.1774 -0.8419  0.5459
39264SOL     OW19798   6.799   9.023  10.515 -0.0688 -0.1276 -0.7130
39264SOL    HW119799   6.753   9.040  10.598 -0.5123 -2.8239 -0.2986
39264SOL    HW219800   6.882   8.983  10.541 -0.9730 -2.7193 -1.4822
39265SOL     OW19801   0.068   9.382   8.510 -0.5474  0.3143 -0.1874
39265SOL    HW119802  -0.006   9.330   8.540 -1.4393  1.6307  0.0059
39265SOL    HW219803   0.104   9.421   8.590  0.5961 -0.5842 -0.2376
39266SOL     OW19804   2.542   2.153   9.793  0.4001  0.2016  0.3881
39266SOL    HW119805   2.634   2.141   9.817  0.0368  0.1268  1.8350
39266SOL    HW219806   2.545   2.184   9.702  1.8527  0.2932  0.4390
39267SOL     OW19807   3.965   8.645   4.244  0.1107  0.0489  0.1068
39267SOL    HW119808   3.869   8.647   4.253  0.0400  0.7870 -0.6654
39267SOL    HW219809   3.996   8.608   4.327 -0.7670  1.4275  1.1100
39268SOL     OW19810   0.871   4.570   8.303  0.0598  0.0954 -0.6204
39268SOL    HW119811   0.786   4.615   8.310  0.2015  0.2418  0.1856
39268SOL    HW219812   0.935   4.641   8.293  0.1643  0.0157 -0.5076
39269SOL     OW19813   4.440   4.146   5.469 -0.4343  0.2847  0.0166
39269SOL    HW119814   4.422   4.156   5.376  0.9307  1.6246 -0.1319
39269SOL    HW219815   4.364   4.098   5.503 -0.0908 -1.9700 -2.0989
39270SOL     OW19816   7.951   8.939  10.921  0.4909 -0.3664  0.3771
39270SOL    HW119817   7.946   8.872  10.852  1.6782 -2.3629  2.0955
39270SOL    HW219818   7.920   8.894  11.000  0.6208  1.3748  1.4711
39271SOL     OW19819   5.480   9.370   6.330 -0.0341  0.0061  0.0041
39271SOL    HW119820   5.478   9.289   6.382 -2.0134 -0.2125 -0.3098
39271SOL    HW219821   5.439   9.346   6.247 -0.0126  1.1559 -0.3591
39272SOL     OW19822   2.859  10.315   0.219 -0.0671 -0.0543 -0.2874
39272SOL    HW119823   2.811  10.239   0.187  1.1027 -0.6002 -0.8232
39272SOL    HW219824   2.920  10.336   0.148  1.9161 -0.6888  1.1428
39273SOL     OW19825   2.937   6.440   9.459  0.0573 -0.3563  0.1865
39273SOL    HW119826   2.881   6.427   9.536 -0.4198  1.0298  0.1099
39273SOL    HW219827   2.914   6.528   9.428  1.4083 -0.2551 -0.5862
39274SOL     OW19828   3.015   5.742   9.383 -0.2347  0.4753  0.7321
39274SOL    HW119829   2.955   5.817   9.384 -2.3392 -1.1185  1.3613
39274SOL    HW219830   2.979   5.682   9.448  0.7128 -1.5843 -0.5489
39275SOL     OW19831   4.651   4.960   8.922 -0.3936  0.3368  0.1656
39275SOL    HW119832   4.563   4.965   8.885 -1.0488  0.3687  1.6484
39275SOL    HW219833   4.658   5.038   8.978  0.7489  0.5679 -0.2618
39276SOL     OW19834  10.747   5.409   7.709  0.6202  0.3926 -0.5739
39276SOL    HW119835  10.818   5.405   7.645  0.4244 -1.2256 -0.7404
39276SOL    HW219836  10.683   5.345   7.678  0.1909  0.0898  0.8479
39277SOL     OW19837   6.157   9.170   9.517  0.8315 -0.0822  0.3402
39277SOL    HW119838   6.104   9.130   9.586  0.0696  1.2435  0.5701
39277SOL    HW219839   6.125   9.131   9.436 -1.8505  1.9657  0.2816
39278SOL     OW19840   0.253   5.826   2.067 -0.3728  0.0711  0.7052
39278SOL    HW119841   0.221   5.849   2.154  1.5864 -2.8539  2.3367
39278SOL    HW219842   0.226   5.735   2.055  1.1386 -0.2093 -0.8975
39279SOL     OW19843   6.929   7.610   3.295 -0.0565 -0.0961 -0.3434
39279SOL    HW119844   6.977   7.546   3.242  0.5397  1.0726 -1.2570
39279SOL    HW219845   6.962   7.695   3.266 -1.8066  0.7028 -0.1411
39280SOL     OW19846  10.914   1.069   3.508  0.7434  0.1221 -0.5681
39280SOL    HW119847  10.885   1.146   3.460  2.7850  1.0292 -0.4540
39280SOL    HW219848  10.968   1.021   3.445  2.5282  0.7481  0.4233
39281SOL     OW19849   8.036   2.834   5.842 -0.1090 -0.0118 -0.2631
39281SOL    HW119850   8.048   2.924   5.813 -1.0367 -0.1138 -0.9996
39281SOL    HW219851   8.041   2.838   5.938  2.6734  0.3798 -0.3365
39282SOL     OW19852  11.075   9.986   4.056  0.0740 -0.7433  0.1275
39282SOL    HW119853  10.990  10.016   4.088  0.0348  1.6877 -1.9303
39282SOL    HW219854  11.059   9.898   4.022 -1.3298 -0.7896  0.8324
39283SOL     OW19855   8.778   1.769   6.550  0.2446  0.2047  0.3141
39283SOL    HW119856   8.768   1.864   6.541  0.7529  0.1556 -1.1687
39283SOL    HW219857   8.707   1.733   6.497 -0.2203 -0.2576  1.2419
39284SOL     OW19858   6.545   8.581   8.440 -0.2965 -0.4528 -0.0184
39284SOL    HW119859   6.486   8.542   8.375  1.9147 -0.6719 -2.0244
39284SOL    HW219860   6.633   8.555   8.411  0.9002  1.1837  1.9240
39285SOL     OW19861  10.517   5.316   5.228 -0.3483  0.3416  0.8469
39285SOL    HW119862  10.607   5.290   5.210 -1.2914 -1.4703 -2.0221
39285SOL    HW219863  10.522   5.408   5.252  2.1116  0.8883 -1.3464
39286SOL     OW19864   3.290   9.947   4.215 -0.4221  0.0025  0.4234
39286SOL    HW119865   3.197   9.954   4.195 -0.0594 -0.7142 -1.7976
39286SOL    HW219866   3.326   9.893   4.144  1.4798 -0.7948  1.8891
39287SOL     OW19867   1.352   4.656   6.038  0.0919  0.1262  0.2100
39287SOL    HW119868   1.432   4.693   6.075  0.8385 -0.5211 -0.7296
39287SOL    HW219869   1.294   4.646   6.114  0.3488  1.9226  0.6985
39288SOL     OW19870   0.059   5.906   9.045  0.4320  0.3675  0.2773
39288SOL    HW119871  -0.012   5.969   9.033  3.4239  3.7430 -1.2910
39288SOL    HW219872   0.043   5.840   8.978 -2.8490 -0.9051  2.0458
39289SOL     OW19873   1.334   5.640   2.712  0.2341 -0.2063 -0.2477
39289SOL    HW119874   1.359   5.676   2.797 -2.5884 -0.3011  0.7280
39289SOL    HW219875   1.281   5.709   2.671  0.7595 -0.5319 -1.5546
39290SOL     OW19876  11.261   2.860   9.603 -0.3790  0.1506 -0.4223
39290SOL    HW119877  11.331   2.874   9.666 -0.9413  0.5726  0.1279
39290SOL    HW219878  11.232   2.770   9.620 -2.0488  0.9655  1.5507
39291SOL     OW19879   6.003   1.144   7.991  0.3198  0.7895  0.7106
39291SOL    HW119880   5.996   1.184   8.078  3.3919  0.3177  1.3002
39291SOL    HW219881   6.071   1.194   7.947  0.0130 -0.0545 -0.7891
39292SOL     OW19882   0.891   9.215   4.391 -0.7243 -0.1023  0.0267
39292SOL    HW119883   0.854   9.302   4.406  0.2554  0.2920  0.2603
39292SOL    HW219884   0.832   9.156   4.437 -1.5688  0.4050 -0.3792
39293SOL     OW19885   7.228   8.286   1.360  0.6769  0.2863  0.0243
39293SOL    HW119886   7.243   8.356   1.297  1.7180  0.3810  0.3629
39293SOL    HW219887   7.309   8.235   1.360 -0.3627 -1.4717 -0.8836
39294SOL     OW19888   5.398   0.683   8.963  0.8790 -0.3719 -0.3815
39294SOL    HW119889   5.394   0.627   9.041 -1.7905 -0.6610 -0.6308
39294SOL    HW219890   5.413   0.771   8.998  0.6703 -0.6328  0.3919
39295SOL     OW19891   7.055   6.223   3.270 -0.0814  0.3209  0.1548
39295SOL    HW119892   7.124   6.168   3.232  0.9365  0.9233  1.0653
39295SOL    HW219893   7.010   6.260   3.194  0.4044 -0.3240 -0.4636
39296SOL     OW19894   6.199   0.817   3.438  0.1537 -0.3021  0.3266
39296SOL    HW119895   6.258   0.853   3.504 -0.4837 -0.5492  1.0536
39296SOL    HW219896   6.112   0.821   3.480 -0.0606 -1.8220  0.0721
39297SOL     OW19897   0.336   7.160   6.311 -0.0284 -0.1025 -0.1916
39297SOL    HW119898   0.241   7.162   6.320  0.0412 -0.0422  0.6434
39297SOL    HW219899   0.353   7.189   6.222 -0.8934 -2.3528 -1.1371
39298SOL     OW19900   1.803   2.733   8.903  0.4475  0.0919 -0.0406
39298SOL    HW119901   1.836   2.661   8.849  3.2906  2.2630 -1.4784
39298SOL    HW219902   1.716   2.752   8.867 -0.5453 -2.7048  0.6092
39299SOL     OW19903   2.657   1.494   4.063 -0.2210  0.5315 -0.1996
39299SOL    HW119904   2.716   1.567   4.081 -1.8520  1.5503  1.3111
39299SOL    HW219905   2.572   1.535   4.050 -0.8760 -0.9968 -0.9850
39300SOL     OW19906   6.826  10.235  10.376  0.1445 -0.5641 -0.0495
39300SOL    HW119907   6.735  10.223  10.405  0.1458  2.4342  1.5680
39300SOL    HW219908   6.870  10.275  10.451  1.8958  1.3907 -1.9947
39301SOL     OW19909   4.957   1.679   7.810  0.8297 -0.4446 -0.4303
39301SOL    HW119910   4.880   1.671   7.865 -0.9113 -1.1118 -2.8285
39301SOL    HW219911   4.993   1.766   7.831  0.0061 -0.5027  1.3711
39302SOL     OW19912   9.910  11.230   7.892  0.7983  0.1639 -0.5248
39302SOL    HW119913   9.985  11.175   7.915  0.5170 -0.5675 -1.3544
39302SOL    HW219914   9.948  11.304   7.845  1.2069  0.8740  0.8400
39303SOL     OW19915   6.701   5.269   0.545 -0.3953  0.1171 -0.1411
39303SOL    HW119916   6.738   5.228   0.467  0.9043 -1.0365  1.0247
39303SOL    HW219917   6.776   5.301   0.594 -1.2628  1.9167  0.0924
39304SOL     OW19918   6.616   4.944   7.980  0.0957 -0.0990  0.6893
39304SOL    HW119919   6.556   4.990   8.040 -2.5108 -0.5541 -1.3713
39304SOL    HW219920   6.646   5.012   7.920  1.2667  0.0052  1.3537
39305SOL     OW19921   7.158   6.133   2.191  0.5025  0.4518  0.8455
39305SOL    HW119922   7.068   6.110   2.165  0.3742  1.0318  0.7549
39305SOL    HW219923   7.155   6.136   2.286  0.8830 -1.3187  0.9480
39306SOL     OW19924   6.670   7.684   3.947  0.2768  0.4738 -0.6933
39306SOL    HW119925   6.636   7.746   4.011  1.8259  0.9102 -0.2520
39306SOL    HW219926   6.604   7.681   3.878 -2.0221 -0.9132  1.4383
39307SOL     OW19927  10.020   9.267   8.279  0.0051  0.5108 -0.7605
39307SOL    HW119928  10.026   9.265   8.183  1.2503  1.3154 -0.7205
39307SOL    HW219929  10.069   9.345   8.304  1.9869 -1.1120  0.7050
39308SOL     OW19930   9.950   2.551   5.286 -0.0252 -0.0447 -0.6769
39308SOL    HW119931   9.888   2.486   5.253  2.5263 -2.1534 -1.6188
39308SOL    HW219932   9.919   2.634   5.249 -3.1550 -0.6784  0.2220
39309SOL     OW19933  11.261   7.488   0.926  0.2231  0.2681 -0.4209
39309SOL    HW119934  11.224   7.404   0.952  0.5968 -0.2390 -1.4535
39309SOL    HW219935  11.216   7.552   0.980 -1.2182 -0.4450 -0.7418
39310SOL     OW19936  10.230   3.252  10.501 -0.0607 -0.0262  0.3467
39310SOL    HW119937  10.144   3.287  10.476  0.1315  0.3637  0.2182
39310SOL    HW219938  10.211   3.166  10.538 -0.7725  0.9461  2.4151
39311SOL     OW19939   2.446   5.223   7.655  0.2202  0.3358  0.2014
39311SOL    HW119940   2.442   5.155   7.722 -0.3938 -0.6483 -0.8116
39311SOL    HW219941   2.388   5.192   7.585  0.1170  1.7840 -0.3892
39312SOL     OW19942  10.133   6.412   2.439 -0.1100 -0.0379 -0.4594
39312SOL    HW119943  10.063   6.406   2.504  0.1292 -1.0195 -0.2633
39312SOL    HW219944  10.164   6.502   2.444  0.3409 -0.2652  1.2694
39313SOL     OW19945  10.917   8.056   0.642 -0.5068  0.1952 -0.2055
39313SOL    HW119946  10.964   8.018   0.716 -0.0470  0.7164 -0.2210
39313SOL    HW219947  10.866   8.127   0.681  1.0322  1.5861 -0.5961
39314SOL     OW19948  10.962   6.322   5.970  0.9745 -0.0845 -0.7214
39314SOL    HW119949  10.924   6.401   5.932  1.5655  0.7178  0.3319
39314SOL    HW219950  10.886   6.268   5.994  0.5359  0.8033 -0.0905
39315SOL     OW19951   3.838   7.010   7.335  0.1034 -0.1748  0.0185
39315SOL    HW119952   3.820   7.100   7.363  1.7185  0.7688 -1.7884
39315SOL    HW219953   3.776   6.994   7.264 -1.2220 -1.1014  1.3214
39316SOL     OW19954  11.202   7.992   1.585  0.0834  0.3209  0.0420
39316SOL    HW119955  11.219   7.903   1.615  0.9923  0.1350 -0.9515
39316SOL    HW219956  11.200   8.044   1.665  1.6845 -0.2631  0.5084
39317SOL     OW19957   7.863   2.361   7.765  0.1322 -0.2933 -0.0057
39317SOL    HW119958   7.809   2.437   7.743  1.4074  0.5810 -0.2356
39317SOL    HW219959   7.905   2.337   7.682 -1.6572 -2.4524 -0.3707
39318SOL     OW19960   0.369   3.788   3.850 -0.4245  0.4245 -0.0473
39318SOL    HW119961   0.314   3.729   3.800  0.2705  0.2537 -0.6274
39318SOL    HW219962   0.368   3.870   3.801  0.9850 -0.0133 -0.8771
39319SOL     OW19963   0.977   7.877   9.823 -0.1072 -0.2410  0.2345
39319SOL    HW119964   0.986   7.795   9.871 -0.1870 -0.1057  0.4792
39319SOL    HW219965   0.898   7.867   9.771  0.3504 -0.6530 -0.3915
39320SOL     OW19966   5.747  10.928   4.927 -0.2605 -0.3718 -0.0622
39320SOL    HW119967   5.802  10.965   4.996  1.5651 -0.2065 -1.5323
39320SOL    HW219968   5.803  10.925   4.849 -2.4628  0.2273 -1.7941
39321SOL     OW19969   5.491   2.070   1.129 -0.1380 -0.3283 -0.1597
39321SOL    HW119970   5.439   2.011   1.075  1.7092 -1.2999 -0.9384
39321SOL    HW219971   5.563   2.098   1.072  0.7693  0.1700  1.1813
39322SOL     OW19972   8.054   3.620   5.065  0.1229 -0.1127  0.5880
39322SOL    HW119973   8.118   3.600   4.997 -0.1108  2.3537 -0.4659
39322SOL    HW219974   8.076   3.560   5.137  0.6549 -2.5133 -1.4181
39323SOL     OW19975   2.489   6.496   2.953  0.8385 -0.2109  0.2646
39323SOL    HW119976   2.446   6.479   3.037 -2.0150  0.7499 -0.8891
39323SOL    HW219977   2.458   6.427   2.895  0.5607  0.6755 -0.6857
39324SOL     OW19978   8.707   2.479   1.943 -0.7544  0.4565 -0.2545
39324SOL    HW119979   8.641   2.434   1.995  1.1073  2.2175  4.1101
39324SOL    HW219980   8.664   2.557   1.910 -1.4179  0.4877  0.6694
39325SOL     OW19981   5.186   2.248   9.694  0.2213 -0.0227 -0.9344
39325SOL    HW119982   5.200   2.299   9.615  0.4357 -0.3654 -1.1186
39325SOL    HW219983   5.183   2.157   9.664 -0.2647 -0.1135 -0.6249
39326SOL     OW19984   9.947   5.824   7.075 -0.1048  0.5087  0.0857
39326SOL    HW119985  10.042   5.826   7.082 -0.1624 -0.0952  1.3526
39326SOL    HW219986   9.923   5.914   7.054  0.7559  0.6199 -0.4712
39327SOL     OW19987  10.698   3.288   8.286 -0.1861  0.2428  0.8981
39327SOL    HW119988  10.745   3.283   8.370  0.8861  0.4345  0.3322
39327SOL    HW219989  10.757   3.247   8.223 -2.0061 -2.1553  0.6035
39328SOL     OW19990   9.969  10.370   5.914  0.3604 -0.7244  0.2641
39328SOL    HW119991   9.877  10.397   5.912  1.3086  3.0312  0.8174
39328SOL    HW219992   9.996  10.369   5.822 -0.2329 -2.1105  0.0762
39329SOL     OW19993   0.044   8.216   6.014 -0.5191  0.0055 -0.0464
39329SOL    HW119994  -0.027   8.195   6.074 -0.4647 -0.1908 -0.0510
39329SOL    HW219995   0.123   8.180   6.055 -0.5392 -0.4907 -0.4224
39330SOL     OW19996  10.447   2.776   0.115  0.3394 -0.0915  0.6259
39330SOL    HW119997  10.391   2.712   0.072 -0.7335 -0.0567  1.9147
39330SOL    HW219998  10.421   2.860   0.077 -0.4866 -0.0778  1.2042
39331SOL     OW19999   5.126   3.230   4.240  0.0670 -0.1891 -0.1730
39331SOL    HW120000   5.166   3.151   4.205 -0.5809  0.4150 -2.4924
39331SOL    HW220001   5.032   3.215   4.234 -0.0813 -0.0040  1.3000
39332SOL     OW20002   6.722   9.259   4.083 -0.1842 -0.5604 -0.3573
39332SOL    HW120003   6.786   9.193   4.060  1.2334  0.3212  0.8578
39332SOL    HW220004   6.766   9.342   4.066 -1.1346  0.0669  0.1508
39333SOL     OW20005   6.074   6.892   4.564 -0.0034  0.3397  0.4119
39333SOL    HW120006   6.119   6.922   4.643  0.3571  3.2992 -0.7638
39333SOL    HW220007   5.986   6.869   4.594  1.1050 -1.9698  2.1509
39334SOL     OW20008   2.437   7.197   3.860 -0.0231 -0.5108 -0.3093
39334SOL    HW120009   2.487   7.178   3.781 -0.8727 -0.4426 -0.8837
39334SOL    HW220010   2.471   7.280   3.892 -0.0282 -0.2766 -0.9034
39335SOL     OW20011  11.102   8.063   0.884 -0.0204  0.2467  0.2386
39335SOL    HW120012  11.121   8.149   0.847 -2.2701  0.4001 -0.7091
39335SOL    HW220013  11.024   8.076   0.939 -2.0886 -1.5622 -2.0290
39336SOL     OW20014   0.892   8.253  10.100 -0.6277 -0.8914 -0.1456
39336SOL    HW120015   0.963   8.255  10.037 -0.0201  0.1796  0.5447
39336SOL    HW220016   0.932   8.223  10.182 -0.7178  0.6185  0.4944
39337SOL     OW20017   7.727   1.778  11.258  0.7704  0.1133  0.0060
39337SOL    HW120018   7.762   1.771  11.347  0.3374  1.9726  0.3580
39337SOL    HW220019   7.634   1.798  11.270  0.8101  0.8821 -0.8503
39338SOL     OW20020   8.151   8.060   6.002 -0.3271 -0.1847  0.0929
39338SOL    HW120021   8.202   8.089   5.926  0.5221 -1.2432  0.2450
39338SOL    HW220022   8.079   8.008   5.964  0.5589 -1.4052  0.0217
39339SOL     OW20023  10.836   6.054   9.366 -0.8042  0.1514  0.7034
39339SOL    HW120024  10.928   6.036   9.346 -1.0200 -1.3510  0.8865
39339SOL    HW220025  10.805   6.108   9.294 -0.6194 -2.1274 -1.2213
39340SOL     OW20026   7.955   6.179  10.940  0.2488  0.2391  0.3737
39340SOL    HW120027   7.933   6.247  10.877  0.9274 -0.2126 -0.3675
39340SOL    HW220028   7.986   6.226  11.018 -0.5439  0.7958  0.3599
39341SOL     OW20029   4.856   9.612   1.410 -0.3867 -0.1419  0.5180
39341SOL    HW120030   4.775   9.572   1.441 -1.3956  0.9928 -0.5507
39341SOL    HW220031   4.925   9.550   1.435 -1.5541 -1.0548  1.5774
39342SOL     OW20032   3.649   4.941  10.676  0.2941  0.3334  0.7388
39342SOL    HW120033   3.670   4.921  10.585  2.0829  0.3762  1.0982
39342SOL    HW220034   3.586   5.013  10.672 -3.6893 -2.8250 -0.5316
39343SOL     OW20035   0.738   2.932   4.392 -0.3739  0.0385 -0.2337
39343SOL    HW120036   0.735   2.839   4.416 -0.8806  0.2710  0.6515
39343SOL    HW220037   0.676   2.974   4.451 -0.8298  0.8180 -1.2364
39344SOL     OW20038   0.744   7.600   5.037  0.3591  0.7171 -0.4613
39344SOL    HW120039   0.820   7.562   4.992  0.5840  1.5825 -0.8377
39344SOL    HW220040   0.738   7.689   5.002  0.6572  1.4996  1.3350
39345SOL     OW20041   3.616   7.502   2.881 -0.0182 -0.2687  0.4854
39345SOL    HW120042   3.709   7.485   2.892  0.0003  0.0077  0.7649
39345SOL    HW220043   3.589   7.545   2.962 -0.8058 -2.0428  1.2182
39346SOL     OW20044   9.078   1.560   9.670  0.2421  0.7485 -0.5770
39346SOL    HW120045   9.128   1.585   9.747  1.5025  0.8321 -1.3944
39346SOL    HW220046   9.026   1.638   9.649  1.0771  1.2786 -0.7228
39347SOL     OW20047   5.843   3.421   7.274 -0.2102 -0.1822  0.5944
39347SOL    HW120048   5.918   3.457   7.227  0.3276 -0.1672  1.4432
39347SOL    HW220049   5.845   3.327   7.254 -0.7071  0.0035 -0.3797
39348SOL     OW20050   4.673   4.541   3.745  0.3059 -0.1327  0.0739
39348SOL    HW120051   4.730   4.607   3.785 -0.4421  0.5233  0.0855
39348SOL    HW220052   4.699   4.459   3.786  1.0133  0.2034  0.3245
39349SOL     OW20053   4.333   3.681   3.592 -0.1026 -0.6901  0.1245
39349SOL    HW120054   4.427   3.696   3.587 -0.3674  1.5229  0.8308
39349SOL    HW220055   4.325   3.592   3.626  1.7003 -1.0644 -0.3051
39350SOL     OW20056  10.817   4.032   5.827 -0.8437  0.4500  0.2597
39350SOL    HW120057  10.778   4.038   5.915 -2.0487  0.5971 -0.2655
39350SOL    HW220058  10.855   4.119   5.813  1.1788 -0.1834  1.4245
39351SOL     OW20059   1.820   8.997   1.591  0.3365  0.5667 -0.4793
39351SOL    HW120060   1.755   9.025   1.656  0.8862  3.4093 -1.0108
39351SOL    HW220061   1.904   9.012   1.633  0.8273 -3.2308  0.2540
39352SOL     OW20062  11.014   0.179   2.813 -0.4045  0.1836  0.1679
39352SOL    HW120063  11.082   0.196   2.877  1.3699  0.3420 -1.6612
39352SOL    HW220064  11.044   0.102   2.765 -1.8521 -0.1497 -0.2625
39353SOL     OW20065  10.002   8.497   9.028  0.1814 -0.1780 -0.0211
39353SOL    HW120066   9.915   8.524   8.999  0.1871  1.6958  1.5378
39353SOL    HW220067  10.062   8.532   8.962 -0.2042 -1.7083 -1.2464
39354SOL     OW20068   4.216   3.546   1.989  0.1576  0.1626  0.4206
39354SOL    HW120069   4.290   3.524   2.046  0.3450 -1.8131 -0.4814
39354SOL    HW220070   4.176   3.623   2.029  2.1555  0.7385  1.4348
39355SOL     OW20071   6.293   5.177   4.254  0.5518 -0.3519  0.0058
39355SOL    HW120072   6.256   5.265   4.248  0.7687 -0.3150 -0.9879
39355SOL    HW220073   6.219   5.121   4.278 -0.6933 -0.5633 -3.6711
39356SOL     OW20074   9.775   7.678   5.970  0.1267  0.2274 -0.5457
39356SOL    HW120075   9.782   7.720   6.056  1.0228  1.0622 -1.0077
39356SOL    HW220076   9.731   7.595   5.988  0.3075  0.3753  0.7252
39357SOL     OW20077   2.979   0.223   1.190 -0.4821  0.3830  0.4931
39357SOL    HW120078   3.021   0.144   1.156  1.0160  1.7931 -1.2131
39357SOL    HW220079   2.929   0.194   1.266  1.2807 -1.9238  0.8847
39358SOL     OW20080   5.233   7.806  10.334 -0.5561 -0.0494 -0.3315
39358SOL    HW120081   5.282   7.862  10.273 -0.0431 -0.1968 -0.0664
39358SOL    HW220082   5.251   7.717  10.303 -0.0994 -0.1384  0.1641
39359SOL     OW20083   9.091   4.746   5.055  0.4427 -0.3268 -0.5261
39359SOL    HW120084   9.096   4.651   5.062  0.7864 -0.4229 -1.8290
39359SOL    HW220085   9.002   4.767   5.084 -0.1919 -1.2240 -1.7240
39360SOL     OW20086   7.941   3.796   6.329 -0.2812 -0.3892 -0.4900
39360SOL    HW120087   7.916   3.888   6.341  1.4816  0.1315 -0.5756
39360SOL    HW220088   7.859   3.748   6.342 -1.1531  1.1433  0.0384
39361SOL     OW20089   7.764  10.236   5.885  0.2036  0.1972  0.0075
39361SOL    HW120090   7.708  10.294   5.937 -2.4155 -0.2952 -2.0147
39361SOL    HW220091   7.796  10.291   5.814  1.2247  0.1292  0.3938
39362SOL     OW20092   2.583   0.616  10.667 -0.7884 -0.0667 -0.0535
39362SOL    HW120093   2.516   0.549  10.664 -0.4702 -0.3610 -0.7051
39362SOL    HW220094   2.656   0.575  10.714 -0.7487 -0.0295 -0.0830
39363SOL     OW20095   4.690   9.817  10.997 -0.5108  0.1444 -0.2752
39363SOL    HW120096   4.694   9.911  11.017  0.5494 -0.2208  1.3693
39363SOL    HW220097   4.777   9.795  10.966 -1.7988  0.4917 -4.9544
39364SOL     OW20098  10.686   2.007   2.057 -0.3883 -0.1821 -0.1742
39364SOL    HW120099  10.645   1.938   2.005  1.7699 -1.0771 -0.8116
39364SOL    HW220100  10.613   2.060   2.090 -2.0419 -2.0655 -0.6435
39365SOL     OW20101   3.673   0.827   1.424 -0.5721 -0.2919  0.0775
39365SOL    HW120102   3.637   0.906   1.466  0.7771  0.3251  0.1176
39365SOL    HW220103   3.733   0.790   1.488 -1.4435 -1.5709  0.1869
39366SOL     OW20104   3.652   0.163   3.884 -0.0358 -0.0550  0.5006
39366SOL    HW120105   3.705   0.121   3.817 -0.7484  0.6995 -0.5508
39366SOL    HW220106   3.695   0.248   3.899  0.0174 -0.1461  0.8733
39367SOL     OW20107   1.415  10.692   0.882  0.6675 -0.5014 -0.5609
39367SOL    HW120108   1.434  10.665   0.793  0.1637 -1.7390 -0.3158
39367SOL    HW220109   1.456  10.625   0.937 -1.0519 -1.0876  0.0661
39368SOL     OW20110   3.564   2.754   7.755  0.3730 -0.3226  0.1345
39368SOL    HW120111   3.490   2.742   7.695  0.9435 -0.3902 -0.5677
39368SOL    HW220112   3.564   2.675   7.809 -0.1324 -0.2712  0.2179
39369SOL     OW20113   5.335   0.280   7.464 -0.5369  0.5774  0.1142
39369SOL    HW120114   5.289   0.337   7.525 -1.0876 -0.3274  0.5592
39369SOL    HW220115   5.426   0.278   7.496 -0.4126  1.5388 -0.1614
39370SOL     OW20116   5.602   5.539   4.577 -0.6933 -0.0306 -0.6948
39370SOL    HW120117   5.520   5.573   4.613 -0.8318 -1.5037  0.4788
39370SOL    HW220118   5.648   5.616   4.544 -1.6954  1.0696  0.4006
39371SOL     OW20119   6.104   4.492  10.406  0.5333 -0.0276  0.7469
39371SOL    HW120120   6.146   4.411  10.434  2.0192  0.5040  0.1452
39371SOL    HW220121   6.158   4.523  10.334 -2.4544 -0.7215 -1.9893
39372SOL     OW20122   7.226   0.931   1.106 -0.6964  0.0789  0.6391
39372SOL    HW120123   7.271   0.883   1.036 -1.2243  0.0312  0.3308
39372SOL    HW220124   7.241   0.878   1.185 -0.8201 -0.3139  0.4030
39373SOL     OW20125   2.279   4.043   9.652  0.5894  0.5004  0.0929
39373SOL    HW120126   2.276   3.955   9.613 -0.4174  0.3655  0.4289
39373SOL    HW220127   2.337   4.093   9.594  0.1952 -0.0578 -0.8164
39374SOL     OW20128   9.908   0.515   6.039  0.4979 -0.0902 -0.3312
39374SOL    HW120129   9.822   0.477   6.023 -0.2911  1.4027  0.1636
39374SOL    HW220130   9.960   0.443   6.074 -0.3714 -1.1579 -1.1825
39375SOL     OW20131  11.183   0.551   9.708  0.2125  0.5020 -0.4149
39375SOL    HW120132  11.212   0.472   9.754 -1.1659 -0.2795 -0.8387
39375SOL    HW220133  11.251   0.616   9.728 -0.0832  0.0877  2.3224
39376SOL     OW20134   3.445   3.344  11.094 -0.0079  0.0833  0.7541
39376SOL    HW120135   3.394   3.263  11.099 -0.9767  0.7562  2.6899
39376SOL    HW220136   3.507   3.338  11.166 -0.2851  1.1703  1.1037
39377SOL     OW20137   3.248  10.345   6.465 -0.4806  0.6462  0.6234
39377SOL    HW120138   3.271  10.343   6.372 -0.9667  0.6644  0.4998
39377SOL    HW220139   3.309  10.284   6.506  2.3259  3.3655  0.8855
39378SOL     OW20140   9.714   4.074   6.709 -0.3197  0.1917 -0.5655
39378SOL    HW120141   9.797   4.081   6.664  1.2095  0.8852  2.1170
39378SOL    HW220142   9.714   3.985   6.745  0.3825  0.8881  1.2902
39379SOL     OW20143   8.524   6.605   0.390  0.3522  0.3630  0.4896
39379SOL    HW120144   8.519   6.670   0.460 -2.3717  0.6921  0.0987
39379SOL    HW220145   8.508   6.521   0.433  0.2436  0.3831  0.4890
39380SOL     OW20146   3.635   6.013   5.815  0.5477 -0.0492 -0.0239
39380SOL    HW120147   3.599   5.983   5.898  0.0629  0.5487 -0.0089
39380SOL    HW220148   3.562   6.004   5.753  0.4189  0.9703 -0.0389
39381SOL     OW20149   8.202   3.785   3.345  0.2069  0.3081  0.4685
39381SOL    HW120150   8.232   3.864   3.390  0.5049 -0.5923  1.9395
39381SOL    HW220151   8.167   3.816   3.262  3.6247  1.6586 -0.6583
39382SOL     OW20152   4.753   4.995   3.248 -0.2346  0.4848  0.6428
39382SOL    HW120153   4.838   4.952   3.239 -0.4558 -0.1344  1.3306
39382SOL    HW220154   4.690   4.930   3.214 -0.4868  0.6461  0.7947
39383SOL     OW20155   6.511   9.211   0.062  0.4559 -0.1448  0.1557
39383SOL    HW120156   6.440   9.159   0.100 -0.4856  2.0802  1.6173
39383SOL    HW220157   6.588   9.153   0.068 -0.6997 -1.6892  0.8546
39384SOL     OW20158   0.365   3.142  10.501  0.2562 -0.5124  0.0095
39384SOL    HW120159   0.458   3.152  10.483 -0.1708  2.9236 -1.0629
39384SOL    HW220160   0.353   3.175  10.590 -0.0368 -0.0089 -0.2110
39385SOL     OW20161   8.647   0.651   5.750  0.0331 -0.1362  0.6445
39385SOL    HW120162   8.725   0.677   5.701 -0.3242  0.3996  0.3385
39385SOL    HW220163   8.644   0.713   5.823 -1.1373  1.1078 -0.4041
39386SOL     OW20164   2.808   1.890   4.238 -0.0123 -0.1775  0.3410
39386SOL    HW120165   2.720   1.907   4.202 -1.2024 -0.7149  2.8050
39386SOL    HW220166   2.804   1.921   4.328  2.2078 -0.6671  0.6734
39387SOL     OW20167   0.083   5.948   6.664  0.1097 -0.2316 -0.3642
39387SOL    HW120168   0.096   6.039   6.690 -1.4884 -0.0109 -0.2337
39387SOL    HW220169   0.036   5.954   6.581 -0.2888 -0.9286 -0.1939
39388SOL     OW20170   7.040   1.555   0.921  0.4376  0.5571  0.4897
39388SOL    HW120171   7.119   1.540   0.869 -1.7778 -0.6371 -2.8100
39388SOL    HW220172   6.985   1.612   0.868 -0.8340  1.7422  2.8822
39389SOL     OW20173   2.339   2.401   8.958  0.2175  0.5191 -0.2366
39389SOL    HW120174   2.351   2.307   8.972  0.8906  0.6295 -0.0657
39389SOL    HW220175   2.247   2.409   8.931 -1.2741  0.2258  3.9034
39390SOL     OW20176   5.200  10.088   6.847 -0.2642 -0.3674 -0.0322
39390SOL    HW120177   5.249  10.011   6.875 -0.5220  0.2288  2.2164
39390SOL    HW220178   5.263  10.138   6.795  0.3688 -1.3435 -0.2410
39391SOL     OW20179   9.356   5.569   7.224 -0.2675 -0.3184 -0.1812
39391SOL    HW120180   9.392   5.497   7.173  2.4571  1.2260 -0.6060
39391SOL    HW220181   9.401   5.564   7.308  0.5039  1.2561 -0.4609
39392SOL     OW20182   8.023   9.506   5.981  0.2910  0.4861  0.5051
39392SOL    HW120183   7.976   9.423   5.974 -0.8292  1.2208 -1.3418
39392SOL    HW220184   7.965   9.571   5.941  0.2999  2.5643  3.5195
39393SOL     OW20185  10.316   9.068   3.816  0.2351 -0.2776  0.1064
39393SOL    HW120186  10.229   9.061   3.775 -0.5167  0.5128  1.5051
39393SOL    HW220187  10.377   9.057   3.743 -1.0321 -0.9042 -0.9080
39394SOL     OW20188   0.850   4.079   4.724 -0.4000 -0.1615  0.0831
39394SOL    HW120189   0.883   4.077   4.634 -1.1822 -1.4414 -0.2022
39394SOL    HW220190   0.875   3.995   4.761  1.8625  1.1942  1.8455
39395SOL     OW20191   1.000   4.680   4.577 -0.4335 -0.5095 -0.7055
39395SOL    HW120192   1.004   4.639   4.490 -0.0402  1.1614 -1.5335
39395SOL    HW220193   1.090   4.709   4.593 -0.7192  0.1204 -0.2182
39396SOL     OW20194   0.554  11.052   4.801  0.4408  0.0148 -0.0756
39396SOL    HW120195   0.633  11.008   4.771  1.1787  1.7320 -0.8339
39396SOL    HW220196   0.584  11.140   4.824 -1.0428  0.3149  0.8182
39397SOL     OW20197   8.272   9.613   4.432 -0.2972 -0.3991 -0.9109
39397SOL    HW120198   8.190   9.657   4.452 -1.0603 -1.3333 -1.8967
39397SOL    HW220199   8.295   9.641   4.344  1.1411  0.8440 -0.1905
39398SOL     OW20200   9.534   6.231   8.171  0.1886 -0.9437  0.2854
39398SOL    HW120201   9.484   6.151   8.182  0.7593 -1.3616 -0.1023
39398SOL    HW220202   9.625   6.205   8.185  0.4205 -0.4445 -0.2292
39399SOL     OW20203   5.133   7.536   9.205  0.5638 -0.0179 -0.2007
39399SOL    HW120204   5.107   7.453   9.244  1.8015 -0.4334 -0.2153
39399SOL    HW220205   5.154   7.592   9.280 -1.5231  0.7573 -0.1306
39400SOL     OW20206   8.174   4.054   7.427  0.0369  0.6647  0.3632
39400SOL    HW120207   8.245   4.100   7.470  1.0986 -0.0998 -0.5212
39400SOL    HW220208   8.200   4.050   7.335 -1.1237  0.3199  0.0296
39401SOL     OW20209  10.958   9.535   8.609 -0.0973 -0.3696 -0.7512
39401SOL    HW120210  10.922   9.624   8.608  0.0948 -0.2981 -1.3799
39401SOL    HW220211  11.031   9.539   8.671  0.6567  0.2100 -1.6578
39402SOL     OW20212   8.433   3.829   0.835  0.1181  0.4816 -0.3006
39402SOL    HW120213   8.514   3.778   0.831  0.0358  0.4210 -1.9520
39402SOL    HW220214   8.457   3.915   0.800  0.2719  1.7048  2.5145
39403SOL     OW20215   2.202   1.625   1.782 -0.6544  0.7494 -0.1388
39403SOL    HW120216   2.192   1.586   1.695 -1.0380 -0.2597  0.3443
39403SOL    HW220217   2.189   1.553   1.843  0.6225  1.2381  0.7561
39404SOL     OW20218   1.622   0.377   5.957  0.3058 -0.1089 -0.2172
39404SOL    HW120219   1.587   0.292   5.981  1.8928 -0.7240  0.0353
39404SOL    HW220220   1.682   0.400   6.029  1.0082  0.5298 -0.9835
39405SOL     OW20221  11.033   7.028   9.576 -0.1828  0.1647  0.5905
39405SOL    HW120222  10.979   7.052   9.500 -0.3124  0.1388  0.6748
39405SOL    HW220223  11.113   6.992   9.538 -0.2787  0.0822  0.4657
39406SOL     OW20224   4.626   5.235   8.913 -0.0973  0.6289  0.2454
39406SOL    HW120225   4.696   5.299   8.906 -0.1549  0.6592 -0.0964
39406SOL    HW220226   4.578   5.242   8.830  1.2652 -1.4250 -0.8198
39407SOL     OW20227   6.437   4.332   9.991 -0.1901  0.1915  0.0920
39407SOL    HW120228   6.380   4.255   9.993  0.7826 -0.5588 -0.2254
39407SOL    HW220229   6.524   4.297   9.974  0.6705  1.1247  2.1544
39408SOL     OW20230   6.496  10.119   1.588 -0.1744 -0.7808  0.2102
39408SOL    HW120231   6.472  10.029   1.607  1.5371 -1.1302  0.9161
39408SOL    HW220232   6.592  10.119   1.588 -0.1089  0.6263 -1.8762
39409SOL     OW20233  10.496   9.892   2.228  0.1397 -0.6351  0.2512
39409SOL    HW120234  10.427   9.843   2.271 -1.3215  1.1813  0.1210
39409SOL    HW220235  10.482   9.876   2.134 -0.4026  0.0512  0.2031
39410SOL     OW20236   9.269   6.072   0.752  0.2373 -0.3507  0.5896
39410SOL    HW120237   9.330   6.143   0.771  0.6509 -0.8801  1.2740
39410SOL    HW220238   9.306   6.029   0.675  0.1098  0.0312  0.3126
39411SOL     OW20239   4.805   5.105   1.095 -0.0256  0.0883  0.2289
39411SOL    HW120240   4.822   5.033   1.034 -0.4188 -1.7137  2.1447
39411SOL    HW220241   4.711   5.121   1.085  0.1506  0.6992 -0.5480
39412SOL     OW20242  10.627   6.517   2.465 -0.1279 -0.4431  0.2234
39412SOL    HW120243  10.710   6.476   2.490  0.3483  0.8404  0.8023
39412SOL    HW220244  10.592   6.553   2.546  0.9310  2.8867 -0.6666
39413SOL     OW20245   8.057   3.432  10.228  0.1783 -0.0404  0.2773
39413SOL    HW120246   8.071   3.340  10.207 -0.1287 -0.6034  2.3110
39413SOL    HW220247   7.991   3.461  10.165  1.3005 -0.7996 -1.2970
39414SOL     OW20248   6.570   7.428   3.364 -0.4024 -0.0143 -0.4697
39414SOL    HW120249   6.582   7.356   3.302  0.2475 -1.5985  1.4000
39414SOL    HW220250   6.475   7.434   3.376 -0.5735  0.6756 -1.9769
39415SOL     OW20251   5.814   3.804   1.576  0.3405  0.3784  0.6811
39415SOL    HW120252   5.722   3.800   1.547  0.1194  0.3218  1.3642
39415SOL    HW220253   5.864   3.772   1.502 -0.2100  0.2494  0.3567
39416SOL     OW20254   0.757   7.720  10.733  0.2902 -0.1565 -0.1298
39416SOL    HW120255   0.725   7.694  10.820 -1.7754 -1.6705 -1.2436
39416SOL    HW220256   0.678   7.718  10.678  1.8914 -1.6629 -2.5598
39417SOL     OW20257  10.389   3.669   2.756 -0.0542  0.4137 -0.2569
39417SOL    HW120258  10.426   3.629   2.834  1.1284 -0.1581 -1.0817
39417SOL    HW220259  10.313   3.614   2.735 -0.9330  1.1203  0.9898
39418SOL     OW20260   6.653  10.739  10.292  0.5189  0.1604 -0.4285
39418SOL    HW120261   6.740  10.715  10.261  0.7038 -0.2560  0.3920
39418SOL    HW220262   6.601  10.659  10.280  0.0187  0.6450 -1.6873
39419SOL     OW20263   0.800   0.800   7.031  0.3280  0.5585 -0.8456
39419SOL    HW120264   0.885   0.806   7.074  1.5876 -2.9835 -2.4643
39419SOL    HW220265   0.820   0.809   6.938 -0.7493 -1.7495 -1.3788
39420SOL     OW20266   0.559   5.244   3.106 -0.6166 -0.1870 -0.0023
39420SOL    HW120267   0.470   5.233   3.075 -0.2736 -0.9004 -0.7534
39420SOL    HW220268   0.584   5.332   3.078 -1.0144 -0.0621  0.0375
39421SOL     OW20269   5.180   9.572   4.031  0.0018 -0.2679 -0.4190
39421SOL    HW120270   5.193   9.660   3.995 -2.0950  0.1689 -0.1947
39421SOL    HW220271   5.104   9.580   4.088  0.6537 -1.9261  0.7623
39422SOL     OW20272   0.940  10.725  10.914 -0.6728  0.5218  0.3871
39422SOL    HW120273   1.004  10.713  10.844 -1.5343  0.1232 -0.3547
39422SOL    HW220274   0.963  10.659  10.979 -1.3035 -0.7137 -0.6156
39423SOL     OW20275   3.074  11.083   5.398 -0.4098 -0.1218  0.3086
39423SOL    HW120276   3.038  10.996   5.385  0.1081 -0.4939  1.3425
39423SOL    HW220277   3.013  11.141   5.350 -1.4014 -0.9116  0.5717
39424SOL     OW20278   1.869   9.676   6.554 -0.4565  0.2723 -0.2655
39424SOL    HW120279   1.945   9.727   6.581  0.0563 -0.6271  0.0479
39424SOL    HW220280   1.794   9.723   6.589 -0.0518  1.2121 -0.6379
39425SOL     OW20281   2.964   7.873   0.539 -0.1834  0.0323 -0.3465
39425SOL    HW120282   3.035   7.846   0.598  0.9434 -0.4710 -1.8609
39425SOL    HW220283   2.971   7.968   0.536 -0.9241  0.1531  1.1121
39426SOL     OW20284   3.294   0.066   5.973 -0.5237 -0.2768 -0.8413
39426SOL    HW120285   3.390   0.058   5.970 -0.6020 -1.8728  0.1411
39426SOL    HW220286   3.278   0.135   6.036 -0.0177  0.3279 -1.3578
39427SOL     OW20287   6.005   5.517   2.389 -0.1325 -0.0094 -0.1775
39427SOL    HW120288   5.947   5.454   2.347  1.5189 -0.0589 -2.5535
39427SOL    HW220289   6.023   5.478   2.475 -0.4623 -1.9695 -0.9433
39428SOL     OW20290   2.432   8.914   5.435  0.1624 -0.0388 -0.0723
39428SOL    HW120291   2.366   8.969   5.477  0.1673  0.4976 -0.7588
39428SOL    HW220292   2.417   8.827   5.472 -1.6374 -0.1636 -0.9634
39429SOL     OW20293  10.426   9.367   4.257  0.4550  0.2983 -0.0153
39429SOL    HW120294  10.447   9.301   4.191 -0.6792  0.2733 -0.3803
39429SOL    HW220295  10.467   9.334   4.338  1.4569  0.0916 -0.5858
39430SOL     OW20296   4.009   0.877   9.320  0.0908  0.7253 -0.7697
39430SOL    HW120297   3.926   0.908   9.356  0.1034  0.4403 -0.4914
39430SOL    HW220298   3.991   0.860   9.228 -0.2839  0.2098 -0.6053
39431SOL     OW20299   2.454   6.151   4.321 -0.1736 -0.6916  0.1380
39431SOL    HW120300   2.379   6.183   4.371 -0.6637 -0.1079 -0.9320
39431SOL    HW220301   2.513   6.226   4.314  0.2567 -0.9948  0.5130
39432SOL     OW20302   1.150   4.217   0.765 -0.4384 -0.3124 -0.0277
39432SOL    HW120303   1.098   4.163   0.704  0.7265 -1.4506 -0.0562
39432SOL    HW220304   1.109   4.204   0.850  0.3143 -1.9540  0.1158
39433SOL     OW20305   6.909   6.450   5.597  0.7986  0.4022 -0.0736
39433SOL    HW120306   6.817   6.476   5.598  0.5161 -0.5481  0.7832
39433SOL    HW220307   6.957   6.532   5.588 -0.1263  0.9360 -0.2787
39434SOL     OW20308  10.608   5.263   0.578 -0.0658  0.1985  0.1503
39434SOL    HW120309  10.597   5.187   0.521 -1.2518 -0.4922  1.2567
39434SOL    HW220310  10.613   5.226   0.666  0.4081  1.3374  0.6137
39435SOL     OW20311   8.695   3.055   7.161 -0.4584  0.2240  0.4472
39435SOL    HW120312   8.739   3.054   7.076  0.0946  0.1318  0.7286
39435SOL    HW220313   8.612   3.009   7.146  0.0539 -0.6229  0.1816
39436SOL     OW20314   5.667   5.220  10.633  0.1959  0.0640 -0.1900
39436SOL    HW120315   5.604   5.288  10.611  1.3232  1.3817  0.4952
39436SOL    HW220316   5.614   5.141  10.644 -1.1855  0.8831 -0.7102
39437SOL     OW20317   3.917   3.703   9.163 -0.2582 -0.1556 -0.0056
39437SOL    HW120318   3.992   3.741   9.117 -1.4313  1.2212 -0.8502
39437SOL    HW220319   3.910   3.614   9.129  2.1423 -1.0427  1.5227
39438SOL     OW20320   6.710   1.978  11.127  0.2241 -0.3937 -0.4825
39438SOL    HW120321   6.713   2.031  11.047 -1.9422 -0.5710 -0.7230
39438SOL    HW220322   6.694   1.889  11.097  1.7718 -0.8892  0.0504
39439SOL     OW20323   6.993   6.328   5.265  0.1511 -0.8786  0.5892
39439SOL    HW120324   6.931   6.338   5.193  1.6132  0.9062 -0.5056
39439SOL    HW220325   6.945   6.358   5.342 -0.5072  0.1061 -0.1727
39440SOL     OW20326   5.547   8.549   8.035 -0.2240 -0.1778 -0.1337
39440SOL    HW120327   5.595   8.612   8.090  2.0467 -0.7540 -1.3545
39440SOL    HW220328   5.568   8.464   8.072  0.1307 -0.4757 -1.0093
39441SOL     OW20329  10.322   4.031   9.997 -0.2479  0.0394 -0.1103
39441SOL    HW120330  10.231   4.051  10.017  0.4057  0.7288  2.5916
39441SOL    HW220331  10.336   4.068   9.910 -2.3190  0.6628 -0.2293
39442SOL     OW20332   3.752   6.202  10.248 -0.2441  0.1970 -0.9599
39442SOL    HW120333   3.707   6.233  10.169 -2.7552  1.7360  0.9034
39442SOL    HW220334   3.828   6.258  10.257 -1.6716  2.1851 -0.6805
39443SOL     OW20335   6.090   6.284   1.101 -0.3993 -0.1972 -0.0453
39443SOL    HW120336   6.047   6.354   1.150 -0.8313  1.1669 -2.2590
39443SOL    HW220337   6.028   6.211   1.105 -0.0268 -0.4580  2.1256
39444SOL     OW20338   8.503  11.053   0.949  0.3673 -0.4655 -0.6819
39444SOL    HW120339   8.471  11.141   0.928 -2.5816 -0.9258  1.2960
39444SOL    HW220340   8.432  10.995   0.922  0.9249 -1.9268  0.8209
39445SOL     OW20341   6.829   9.452   3.205  0.2755 -0.0465  0.1092
39445SOL    HW120342   6.735   9.446   3.222  0.1402  3.2833  1.3016
39445SOL    HW220343   6.836   9.465   3.111 -0.4000 -0.6042 -0.0292
39446SOL     OW20344  10.111   2.410   6.546 -0.3919 -0.7041 -0.3025
39446SOL    HW120345  10.081   2.320   6.560 -0.9484 -0.7574 -1.6932
39446SOL    HW220346  10.074   2.459   6.620 -0.1759 -1.5732  0.4103
39447SOL     OW20347   9.342   4.201   4.441  0.3982  0.0541  0.7164
39447SOL    HW120348   9.409   4.182   4.506  1.7949  2.5583  0.1374
39447SOL    HW220349   9.391   4.231   4.364 -1.2021 -2.2097 -1.3690
39448SOL     OW20350   1.793   7.079   1.379  0.0545  0.4169 -0.3130
39448SOL    HW120351   1.873   7.058   1.331  1.8840 -0.9410  2.9835
39448SOL    HW220352   1.786   7.174   1.374  1.1260  0.4657 -1.7290
39449SOL     OW20353   9.163   7.016   7.375  0.1300  0.2955  0.1606
39449SOL    HW120354   9.142   7.030   7.283 -0.7675  0.5825  0.4008
39449SOL    HW220355   9.134   6.927   7.393 -1.1616  0.7723  0.5520
39450SOL     OW20356   5.093   4.296   4.724 -0.6280  0.1493  0.0880
39450SOL    HW120357   5.014   4.280   4.775 -2.0626  1.9544 -1.4159
39450SOL    HW220358   5.061   4.304   4.633  1.3506  0.4210 -0.6260
39451SOL     OW20359   9.883   8.510   9.680 -0.3421 -0.5911  0.3434
39451SOL    HW120360   9.898   8.442   9.614 -1.8118 -0.9270  0.3148
39451SOL    HW220361   9.939   8.484   9.754  2.4166  0.5526 -1.2050
39452SOL     OW20362   5.168  10.784   7.757  0.2240  0.5469 -0.1455
39452SOL    HW120363   5.255  10.822   7.772  0.1209  0.5993  0.3425
39452SOL    HW220364   5.107  10.848   7.796 -0.1419  1.2642 -1.8162
39453SOL     OW20365   5.235   8.468   0.536  0.3153  0.0357 -0.1002
39453SOL    HW120366   5.283   8.415   0.473  0.2893 -0.0102 -0.0813
39453SOL    HW220367   5.187   8.404   0.590  1.9339 -0.0968  1.2973
39454SOL     OW20368   5.459   1.421   1.489 -0.3205 -0.0988  0.0916
39454SOL    HW120369   5.524   1.423   1.559 -1.3441  3.0789  1.1260
39454SOL    HW220370   5.416   1.335   1.498  3.4364 -2.2455 -0.5477
39455SOL     OW20371   5.409   6.762   4.507  0.0839  0.6830  0.6577
39455SOL    HW120372   5.356   6.719   4.440  1.3276  1.7088 -1.0666
39455SOL    HW220373   5.406   6.702   4.582 -0.2444 -1.2112 -0.7864
39456SOL     OW20374   0.046   3.609   9.194 -0.6785 -0.0863 -0.1050
39456SOL    HW120375  -0.036   3.659   9.194 -1.5969 -1.5072 -1.1129
39456SOL    HW220376   0.045   3.564   9.279 -1.0248 -0.1960 -0.1619
39457SOL     OW20377   8.335   2.755   6.952  0.2709 -0.8814  1.0266
39457SOL    HW120378   8.268   2.795   7.007 -1.0038  1.4230 -1.8865
39457SOL    HW220379   8.303   2.667   6.934 -2.5344  0.3752 -0.8607
39458SOL     OW20380   6.673   9.768   8.448  0.1985 -0.4607 -0.1433
39458SOL    HW120381   6.749   9.777   8.391  1.1350  0.4626  1.1905
39458SOL    HW220382   6.643   9.858   8.462  0.5595 -0.5754  1.5226
39459SOL     OW20383   7.337   0.265   6.664 -0.4208 -0.1824 -0.1411
39459SOL    HW120384   7.383   0.282   6.582 -0.3856  0.1058 -0.0631
39459SOL    HW220385   7.382   0.319   6.729 -2.0199  1.6350 -0.4174
39460SOL     OW20386   2.010  10.529   1.013  0.2208 -0.2559  0.5726
39460SOL    HW120387   2.044  10.612   1.047 -0.5735  0.7663 -1.0268
39460SOL    HW220388   2.088  10.479   0.989  0.6933  0.1508  1.2295
39461SOL     OW20389   6.068  10.676  10.105 -0.4034  0.2816  0.1141
39461SOL    HW120390   6.002  10.630  10.054 -0.9587  0.2832  0.8010
39461SOL    HW220391   6.021  10.752  10.141  0.2353  0.8317 -0.1961
39462SOL     OW20392   2.968   4.025   7.542  0.3161 -0.7242  0.8265
39462SOL    HW120393   3.038   3.961   7.549  0.2193 -0.6902  2.5128
39462SOL    HW220394   2.967   4.050   7.449  0.4465 -3.0250  0.1608
39463SOL     OW20395   7.958   6.075   1.052  0.3495  0.5882  0.1663
39463SOL    HW120396   7.876   6.105   1.012 -0.4899 -0.0461  1.3218
39463SOL    HW220397   7.965   5.983   1.025 -0.5302 -0.0181  1.8587
39464SOL     OW20398   4.014   8.060   2.002 -0.4479  0.0311 -0.5746
39464SOL    HW120399   4.012   8.089   2.093 -1.1625  0.6038 -0.7727
39464SOL    HW220400   4.074   7.985   2.003 -1.3937 -0.7516  0.5973
39465SOL     OW20401   7.200   6.514   1.519 -0.3323  0.5613 -0.2508
39465SOL    HW120402   7.137   6.579   1.551 -0.0302  0.0244  1.5175
39465SOL    HW220403   7.177   6.434   1.566 -0.2328 -0.4500 -1.8544
39466SOL     OW20404  10.719   4.611   8.848 -0.2357  0.1080  0.1259
39466SOL    HW120405  10.739   4.561   8.769  0.7530  1.3274 -0.4231
39466SOL    HW220406  10.646   4.564   8.888  0.6978 -1.8195 -0.3118
39467SOL     OW20407   1.620   8.424   4.593 -0.2664  0.0543  0.2869
39467SOL    HW120408   1.669   8.422   4.511 -0.5698  1.4473  0.0499
39467SOL    HW220409   1.611   8.332   4.618  1.6040 -0.2901 -0.1651
39468SOL     OW20410   1.841  11.117   4.230  0.1171 -0.7367  0.2860
39468SOL    HW120411   1.859  11.190   4.288  1.4452 -0.1117 -0.8590
39468SOL    HW220412   1.881  11.041   4.272  0.5578 -0.4038  0.4676
39469SOL     OW20413   7.167   8.720   4.735 -0.6462  0.2583 -0.4210
39469SOL    HW120414   7.198   8.778   4.804  0.0730  0.2048 -0.6907
39469SOL    HW220415   7.072   8.723   4.742 -0.5815  0.3253  0.5065
39470SOL     OW20416   8.254   3.178   8.780  0.1355  0.0932 -0.0538
39470SOL    HW120417   8.230   3.271   8.782 -1.3437 -0.2399 -0.6973
39470SOL    HW220418   8.291   3.161   8.867  1.8844  1.6122 -0.4400
39471SOL     OW20419   0.829   6.844   9.593 -0.4859  0.1792  0.5066
39471SOL    HW120420   0.891   6.917   9.589 -2.9169  2.4181  1.1085
39471SOL    HW220421   0.884   6.766   9.601  2.3734  1.5728 -3.0237
39472SOL     OW20422   8.461   2.016   0.237 -0.3187 -0.0590  0.2427
39472SOL    HW120423   8.411   2.014   0.156 -0.1514 -0.7484  0.1440
39472SOL    HW220424   8.510   1.933   0.236 -0.5673 -0.2244  1.2041
39473SOL     OW20425   6.192   6.644   7.649  0.4438 -0.1399  0.0584
39473SOL    HW120426   6.269   6.588   7.660 -0.7125 -1.7571  0.3122
39473SOL    HW220427   6.122   6.596   7.693 -0.7477  1.2091 -0.3228
39474SOL     OW20428   4.665   7.296   1.369 -0.5510 -0.2248  0.1270
39474SOL    HW120429   4.716   7.294   1.451 -0.1215 -1.6159 -0.1505
39474SOL    HW220430   4.703   7.368   1.320 -0.5467  0.3766  0.9887
39475SOL     OW20431   4.989   4.333   0.276 -0.4261  0.1817  0.0046
39475SOL    HW120432   4.896   4.356   0.271 -1.1153 -1.9323  1.6009
39475SOL    HW220433   5.032   4.414   0.302 -1.9651  0.9788  0.2066
39476SOL     OW20434   7.045   5.543   5.431 -0.2083 -0.3347  0.0711
39476SOL    HW120435   7.100   5.596   5.372 -0.4918 -0.7452 -0.5646
39476SOL    HW220436   7.052   5.588   5.515 -3.5965  3.1544 -1.2109
39477SOL     OW20437   7.542   6.307   0.736  0.2466  0.1083 -0.1890
39477SOL    HW120438   7.509   6.301   0.646  1.4715 -2.5812 -0.5574
39477SOL    HW220439   7.579   6.395   0.742 -1.1303  0.8499 -1.8259
39478SOL     OW20440   5.882   9.638   3.404  0.3536  0.1076  0.6561
39478SOL    HW120441   5.801   9.610   3.446  0.2510  1.1265  1.1701
39478SOL    HW220442   5.915   9.709   3.459  0.2368  1.4616 -0.9373
39479SOL     OW20443  10.893   4.295   4.760  0.1239  0.4163  0.0603
39479SOL    HW120444  10.879   4.261   4.848  1.3140 -3.1120 -0.9335
39479SOL    HW220445  10.971   4.349   4.767  0.2739  0.0845  1.1394
39480SOL     OW20446   1.026   5.466   6.086 -1.1218  0.0657 -0.1080
39480SOL    HW120447   1.040   5.397   6.151 -1.4502  0.9606  0.9177
39480SOL    HW220448   0.983   5.421   6.013 -2.6606 -0.5563  1.1234
39481SOL     OW20449   1.294   9.515   0.139  0.0112  0.4299  0.0224
39481SOL    HW120450   1.305   9.556   0.225  2.6184 -0.6160  0.2691
39481SOL    HW220451   1.299   9.588   0.077 -0.3615  1.0204  0.6686
39482SOL     OW20452   2.780   9.935   7.919  0.5250 -0.9631  0.2902
39482SOL    HW120453   2.800   9.995   7.991 -1.8311  2.2299 -1.4263
39482SOL    HW220454   2.832   9.968   7.845 -2.2364  0.4032 -1.2040
39483SOL     OW20455   6.707  10.486   8.251 -0.4324 -0.8424 -0.7734
39483SOL    HW120456   6.795  10.491   8.288 -0.6380 -2.5204  0.0203
39483SOL    HW220457   6.687  10.576   8.226  0.1384  0.2823  2.3137
39484SOL     OW20458   6.317   5.000   4.914  0.3369  0.1223  0.2216
39484SOL    HW120459   6.342   5.018   5.005 -1.6786  1.5199  0.5726
39484SOL    HW220460   6.374   5.056   4.861 -1.3928  2.8012  0.9555
39485SOL     OW20461  10.720   5.186   4.803 -0.5815  0.2640  0.4519
39485SOL    HW120462  10.679   5.262   4.762  0.4867  1.9692  2.4093
39485SOL    HW220463  10.808   5.215   4.827 -0.4824 -1.2457  2.1827
39486SOL     OW20464   4.614   6.793   1.359  0.9405 -0.0104 -0.4904
39486SOL    HW120465   4.613   6.715   1.304 -1.1516  0.2921 -0.9258
39486SOL    HW220466   4.638   6.864   1.300  1.5449 -0.1086 -0.3716
39487SOL     OW20467   5.934   6.219   7.921 -0.5725 -0.4265  0.0433
39487SOL    HW120468   5.844   6.250   7.910 -0.2948  0.0185 -1.2961
39487SOL    HW220469   5.985   6.277   7.864  0.3069 -1.8188 -0.6432
39488SOL     OW20470   8.576   8.806   7.830 -0.2954  0.1979 -0.5653
39488SOL    HW120471   8.522   8.850   7.895 -0.2626 -2.9283  1.8428
39488SOL    HW220472   8.517   8.743   7.788  0.9031 -2.0232  0.8563
39489SOL     OW20473   8.781   0.844   3.441 -0.2484 -0.9536  0.1354
39489SOL    HW120474   8.871   0.874   3.445 -0.8538  0.9874  0.3057
39489SOL    HW220475   8.750   0.869   3.354 -1.4822  1.2645  1.1183
39490SOL     OW20476   0.002   1.269   0.443  0.2824  0.1976  0.5171
39490SOL    HW120477   0.087   1.235   0.414 -0.8406 -2.1268 -0.2630
39490SOL    HW220478  -0.025   1.210   0.513 -1.0620  0.3848  0.1792
39491SOL     OW20479   0.151   4.831   3.171  0.1306  0.7392  0.5615
39491SOL    HW120480   0.122   4.872   3.089  0.3032 -0.4120 -0.1069
39491SOL    HW220481   0.247   4.837   3.167  0.1766 -0.0886  0.2457
39492SOL     OW20482   8.906  10.502   5.678  0.8035 -0.3823  0.7493
39492SOL    HW120483   8.980  10.458   5.720  1.6021  2.8282  3.0688
39492SOL    HW220484   8.829  10.453   5.707  1.7517 -1.8578  0.9039
39493SOL     OW20485   0.870  11.013  10.818 -0.2843  0.6887 -0.3281
39493SOL    HW120486   0.947  11.067  10.799  0.2457 -0.1444 -0.6050
39493SOL    HW220487   0.906  10.925  10.832 -1.0560  0.5335  0.7885
39494SOL     OW20488   2.420   6.301   2.749  0.1897  0.1382  0.0579
39494SOL    HW120489   2.462   6.242   2.686  2.9544  1.8295  0.1388
39494SOL    HW220490   2.370   6.361   2.695 -0.5830 -0.7242 -0.2072
39495SOL     OW20491   0.778   4.136   5.012  0.4160 -0.4671  0.0978
39495SOL    HW120492   0.854   4.194   5.021  0.4030 -0.2803 -0.8847
39495SOL    HW220493   0.800   4.079   4.938  0.6634 -2.1117  1.3695
39496SOL     OW20494   8.863   8.181   3.012 -0.2979 -0.0223  0.0063
39496SOL    HW120495   8.778   8.138   3.025 -0.4065  0.5270  1.2018
39496SOL    HW220496   8.840   8.271   2.986 -0.0779  0.0488  0.0583
39497SOL     OW20497   4.797   8.246   5.034  0.0127  0.9659  0.1350
39497SOL    HW120498   4.869   8.293   5.076  1.3722 -1.4294  0.6954
39497SOL    HW220499   4.828   8.229   4.945  0.3159 -0.3540  0.4750
39498SOL     OW20500   7.521   6.410   2.148  0.5051  0.5209  0.2329
39498SOL    HW120501   7.428   6.423   2.167 -0.5453  0.1023 -3.7263
39498SOL    HW220502   7.561   6.495   2.165 -0.3187  0.4700  2.8783
39499SOL     OW20503  11.167   4.919   3.862 -0.2840 -0.0450  0.5113
39499SOL    HW120504  11.160   4.923   3.767  0.3653  0.6339  0.4828
39499SOL    HW220505  11.193   4.828   3.880  0.7635  0.1247 -0.0464
39500SOL     OW20506   1.260   2.901   3.060 -0.1556 -0.0481 -0.3188
39500SOL    HW120507   1.339   2.868   3.103  0.3111 -0.7075 -1.6117
39500SOL    HW220508   1.281   2.991   3.038 -0.7433  0.5974  1.5948
39501SOL     OW20509  11.214   8.332   2.684  0.4658 -0.2212  0.5741
39501SOL    HW120510  11.125   8.367   2.689 -0.4836 -2.5380  0.8396
39501SOL    HW220511  11.269   8.403   2.719 -1.2198  1.3017  0.3065
39502SOL     OW20512   8.303   4.746   9.849 -0.1888 -0.3227  0.2667
39502SOL    HW120513   8.325   4.839   9.845 -0.6209 -0.1384  1.6102
39502SOL    HW220514   8.296   4.727   9.943  0.7579 -1.9188  0.0546
39503SOL     OW20515   6.178   0.462   4.766 -0.2425 -0.9526  0.8539
39503SOL    HW120516   6.089   0.438   4.741  0.0957  0.2314 -1.8191
39503SOL    HW220517   6.175   0.557   4.776  0.5371 -1.0003  1.6467
39504SOL     OW20518   0.757   2.176   5.918 -0.0877 -0.3275  0.2504
39504SOL    HW120519   0.746   2.201   5.826  1.1613  1.0998  0.4642
39504SOL    HW220520   0.796   2.253   5.960 -1.4945 -0.5838  2.1965
39505SOL     OW20521   0.925   0.650   2.938  0.3987  0.6635  0.2233
39505SOL    HW120522   0.876   0.590   2.995 -0.1741  0.1687 -0.7744
39505SOL    HW220523   0.873   0.731   2.938 -0.6184  0.0428 -1.0678
39506SOL     OW20524   5.213   6.267   9.056 -0.0024  0.0746  0.5753
39506SOL    HW120525   5.294   6.276   9.005 -1.3855  0.0005 -1.8109
39506SOL    HW220526   5.154   6.332   9.018 -1.9000 -1.6457  0.4399
39507SOL     OW20527   1.596   6.303   6.288 -0.0884 -0.3742 -0.3933
39507SOL    HW120528   1.505   6.300   6.319  0.6093  1.1773  2.0706
39507SOL    HW220529   1.630   6.216   6.307 -0.3323 -0.1403  1.3393
39508SOL     OW20530   0.254   9.395   5.046  0.3038  0.2272  0.3712
39508SOL    HW120531   0.202   9.337   4.989 -1.6584  1.8895  0.3389
39508SOL    HW220532   0.324   9.428   4.989 -1.7208  2.0030 -1.2842
39509SOL     OW20533  10.647  10.090  11.131 -0.2173  0.4049  0.8184
39509SOL    HW120534  10.731  10.060  11.098 -0.2951 -1.4985  2.2310
39509SOL    HW220535  10.665  10.116  11.221 -1.2308 -0.5284  1.3034
39510SOL     OW20536   5.202  10.163   2.751  0.1719 -0.8344  0.0185
39510SOL    HW120537   5.253  10.188   2.829 -1.9131 -1.9867  1.8799
39510SOL    HW220538   5.157  10.244   2.726  0.3543 -0.5981  0.4314
39511SOL     OW20539   8.560   8.292   9.278  0.0068 -0.5234  0.4711
39511SOL    HW120540   8.586   8.224   9.340  0.2497 -1.0081 -0.1487
39511SOL    HW220541   8.494   8.344   9.325  0.8698 -0.2904  1.4741
39512SOL     OW20542  10.915   7.798   1.626  0.2433  0.1059 -0.2535
39512SOL    HW120543  10.933   7.704   1.631  0.0068  0.0797  0.1785
39512SOL    HW220544  10.874   7.819   1.710 -0.4167  0.4448 -0.6560
39513SOL     OW20545   4.167   0.709  10.566  0.3636  0.5946 -0.2718
39513SOL    HW120546   4.131   0.760  10.493 -1.3111  1.5257  1.1169
39513SOL    HW220547   4.212   0.773  10.620  1.0208  0.0311 -0.1484
39514SOL     OW20548   8.914   6.620   8.124  0.0216 -0.0571  0.4840
39514SOL    HW120549   8.897   6.711   8.098 -0.0430  0.3863  1.9655
39514SOL    HW220550   8.827   6.584   8.144  0.1668  0.1015  1.5000
39515SOL     OW20551   2.669   6.729  11.027  0.6225 -0.5262 -0.5552
39515SOL    HW120552   2.661   6.807  10.973  1.7816 -1.1433 -1.6814
39515SOL    HW220553   2.753   6.691  11.001 -0.0303 -2.2765 -0.2174
39516SOL     OW20554   6.492   3.435   5.863  0.7173  0.0799 -0.4343
39516SOL    HW120555   6.507   3.344   5.887  0.7601  0.2772  0.3004
39516SOL    HW220556   6.397   3.444   5.859  0.7141 -0.1377 -1.0968
39517SOL     OW20557   8.750  10.739   7.811  0.2527  0.9417  0.0068
39517SOL    HW120558   8.833  10.765   7.772  1.6189 -0.8755  1.5590
39517SOL    HW220559   8.687  10.746   7.739  1.8947  1.5134 -1.4385
39518SOL     OW20560   2.052   9.585   5.484 -0.2708  0.2425  0.1333
39518SOL    HW120561   2.145   9.587   5.462 -0.3374  0.3974 -0.1416
39518SOL    HW220562   2.019   9.671   5.456 -0.6113 -0.0252 -0.3040
39519SOL     OW20563   8.277   2.309   7.128  0.0997  0.8534  0.4932
39519SOL    HW120564   8.236   2.383   7.172  2.3856  2.6004 -0.1096
39519SOL    HW220565   8.368   2.311   7.157  1.3433  1.1230 -2.9499
39520SOL     OW20566   0.806   0.749   0.683 -0.2848  0.5341  0.1467
39520SOL    HW120567   0.779   0.838   0.659 -1.1641  0.5156  1.0160
39520SOL    HW220568   0.781   0.740   0.775  1.1919 -0.0874  0.5133
39521SOL     OW20569   3.641   9.712   5.671 -0.6929  0.0014  0.1340
39521SOL    HW120570   3.591   9.742   5.746 -2.2291 -1.9409 -0.0377
39521SOL    HW220571   3.704   9.650   5.708 -1.0285 -0.4758 -0.0796
39522SOL     OW20572   5.181   5.764  10.237  0.7087 -0.1255 -0.5586
39522SOL    HW120573   5.164   5.718  10.155 -1.5291  1.4112 -1.0393
39522SOL    HW220574   5.100   5.753  10.288  1.7726 -0.4110  1.1675
39523SOL     OW20575   1.164   5.484  10.963 -0.0392 -0.3105  0.7643
39523SOL    HW120576   1.244   5.437  10.941  0.4402  0.6785  0.3040
39523SOL    HW220577   1.139   5.528  10.882  0.1479  1.0877  1.4282
39524SOL     OW20578   2.178   7.119   6.008 -0.3059 -0.1605  0.4198
39524SOL    HW120579   2.151   7.209   6.019  2.0183  0.8550 -1.2287
39524SOL    HW220580   2.146   7.074   6.086  0.3934  2.5686  2.4231
39525SOL     OW20581  10.136   9.781   2.644  0.0408 -0.6579 -0.5986
39525SOL    HW120582  10.067   9.796   2.580 -2.2746 -0.2383  1.8255
39525SOL    HW220583  10.177   9.867   2.656  1.9976 -1.1526 -2.9711
39526SOL     OW20584  10.276   7.456   8.146 -0.7867 -0.0262  0.1876
39526SOL    HW120585  10.315   7.388   8.091 -1.5983  0.0214 -0.4552
39526SOL    HW220586  10.347   7.520   8.158  0.1388 -1.2028  1.2184
39527SOL     OW20587   7.620   2.749   3.998  0.3078 -0.4068  0.7311
39527SOL    HW120588   7.640   2.818   4.062 -0.4652  2.1534 -1.5757
39527SOL    HW220589   7.698   2.745   3.942 -1.1916  1.9630 -1.8161
39528SOL     OW20590   4.048   5.774  10.265  0.0387  0.1640  0.1104
39528SOL    HW120591   3.996   5.833  10.320  0.6624  0.2267  0.6295
39528SOL    HW220592   3.982   5.722  10.218 -0.5023 -0.3217  1.3622
39529SOL     OW20593   2.647   3.751   1.954  0.1026  0.2439 -0.3058
39529SOL    HW120594   2.729   3.743   1.906 -1.4620 -0.8889 -2.9676
39529SOL    HW220595   2.601   3.669   1.938 -2.0184  1.2667  0.2036
39530SOL     OW20596   0.371   8.600   4.168 -0.1315  0.1351 -0.2000
39530SOL    HW120597   0.415   8.581   4.251 -1.4669 -0.1873  0.4487
39530SOL    HW220598   0.371   8.696   4.163 -0.0812  0.1602  0.1992
39531SOL     OW20599   9.190  10.679  11.132 -0.5553  0.1563  0.1221
39531SOL    HW120600   9.163  10.746  11.070 -2.8190 -1.4798 -0.8304
39531SOL    HW220601   9.143  10.600  11.104  0.5891 -1.3828  2.2163
39532SOL     OW20602  10.729   6.806   7.195 -0.0306 -0.1159  0.5341
39532SOL    HW120603  10.823   6.823   7.198 -0.0349 -0.1634  2.2427
39532SOL    HW220604  10.714   6.765   7.110  1.7666 -1.5716  0.8687
39533SOL     OW20605   8.594   1.632   4.313  1.2169  0.2214  0.4379
39533SOL    HW120606   8.579   1.618   4.219 -1.2887  1.2713  0.6126
39533SOL    HW220607   8.640   1.715   4.318  0.1509  0.8512  0.1561
39534SOL     OW20608   5.790   9.644   1.659  0.1107 -0.0181 -0.1090
39534SOL    HW120609   5.795   9.696   1.740  1.1958 -2.4743  1.5346
39534SOL    HW220610   5.706   9.600   1.665 -0.0135  0.1576 -0.5692
39535SOL     OW20611  10.819   7.495   7.251 -0.0432 -0.1958  0.0632
39535SOL    HW120612  10.787   7.568   7.304  1.2211 -0.0272  0.6189
39535SOL    HW220613  10.889   7.532   7.198 -0.2316 -0.7280 -0.5715
39536SOL     OW20614   6.773  11.000   2.842 -0.3830  0.0488  0.1976
39536SOL    HW120615   6.763  11.093   2.858  0.1681 -0.0521  1.1415
39536SOL    HW220616   6.731  10.957   2.917 -1.4496 -0.4923 -0.6639
39537SOL     OW20617   5.519  10.118   2.544  0.8676 -0.3716 -0.1630
39537SOL    HW120618   5.506  10.029   2.577 -0.5247 -0.6150 -1.2579
39537SOL    HW220619   5.571  10.106   2.464  2.4898  0.0225  0.8001
39538SOL     OW20620   5.525   3.198   9.540  0.7517  0.1692 -0.6811
39538SOL    HW120621   5.526   3.115   9.491  1.8387 -0.4466  0.3212
39538SOL    HW220622   5.594   3.251   9.499  3.2856 -1.2036  1.4464
39539SOL     OW20623   5.265   7.647   9.413  0.1910 -0.8554  0.0973
39539SOL    HW120624   5.262   7.551   9.407 -0.3495 -0.8242 -0.2215
39539SOL    HW220625   5.358   7.668   9.420  0.5282 -1.2697 -2.2639
39540SOL     OW20626   3.590   9.852   6.800 -0.1679  0.2721 -0.0099
39540SOL    HW120627   3.655   9.865   6.870  1.4232 -1.2054 -1.1198
39540SOL    HW220628   3.529   9.788   6.836  0.8583 -0.7645 -0.0602
39541SOL     OW20629   5.674   0.476   6.799  0.1483 -0.3065  0.7544
39541SOL    HW120630   5.713   0.388   6.794  1.5075  0.3203 -0.9039
39541SOL    HW220631   5.702   0.518   6.718 -2.6306  0.8265  0.2918
39542SOL     OW20632   2.994   2.279   3.412 -0.4149 -0.4991  0.2883
39542SOL    HW120633   2.944   2.262   3.333  0.4298 -0.5278 -0.2499
39542SOL    HW220634   3.004   2.193   3.454 -1.2360 -0.4196  0.6651
39543SOL     OW20635  10.335   0.537   8.645 -0.7901  0.3129  0.2558
39543SOL    HW120636  10.330   0.626   8.680 -0.6177  0.6446 -0.5450
39543SOL    HW220637  10.250   0.522   8.603 -0.7251  0.1972  0.1632
39544SOL     OW20638   1.534   8.304   2.966  0.2711  0.7179  0.0142
39544SOL    HW120639   1.547   8.232   3.027  3.3937 -0.8267 -2.2145
39544SOL    HW220640   1.529   8.262   2.880  1.6658  3.0764 -1.3281
39545SOL     OW20641   8.346   3.324   0.240  0.1066 -0.4606 -0.0819
39545SOL    HW120642   8.360   3.253   0.178  0.6243 -0.2428 -0.2219
39545SOL    HW220643   8.319   3.398   0.186 -2.8547 -1.1460  0.2586
39546SOL     OW20644   4.278   4.082   0.957  0.7071 -0.6824 -0.2035
39546SOL    HW120645   4.318   4.163   0.925 -0.0190 -0.4513 -0.5669
39546SOL    HW220646   4.236   4.044   0.880 -1.2882  0.0093  0.4688
39547SOL     OW20647   9.317   1.521   2.098 -0.2239 -0.0554  0.7703
39547SOL    HW120648   9.355   1.571   2.025 -1.3268  0.9089  0.8203
39547SOL    HW220649   9.393   1.483   2.143  0.5608  0.4453 -0.0901
39548SOL     OW20650   9.718   0.170   3.038  0.5780  0.0844  0.4045
39548SOL    HW120651   9.687   0.085   3.069  0.3648  0.8596  2.4672
39548SOL    HW220652   9.809   0.154   3.013  1.0278 -0.4693  2.2331
39549SOL     OW20653   6.317   4.241  11.035  0.4410  1.0011  0.7026
39549SOL    HW120654   6.229   4.233  11.073  1.2945 -0.8780  2.4692
39549SOL    HW220655   6.309   4.312  10.971 -2.0777  1.6351  1.6014
39550SOL     OW20656   1.721   9.420   6.031 -0.8934  0.4323  0.2340
39550SOL    HW120657   1.706   9.418   6.126 -0.0004 -1.4451  0.3768
39550SOL    HW220658   1.649   9.370   5.994 -0.3050 -0.3453  0.1032
39551SOL     OW20659   6.436  10.791   2.673 -0.1834 -0.1885 -0.4457
39551SOL    HW120660   6.436  10.697   2.657  0.6790 -0.2475 -0.1915
39551SOL    HW220661   6.516  10.823   2.631 -1.5794  0.8140 -2.5098
39552SOL     OW20662   2.514   0.472   6.615 -0.6324 -0.0164 -0.5846
39552SOL    HW120663   2.491   0.381   6.597  1.9822 -0.6653 -1.1844
39552SOL    HW220664   2.478   0.521   6.541  0.4181 -1.0611 -1.8644
39553SOL     OW20665   1.035   1.898  10.540  0.1936  0.2299 -0.1338
39553SOL    HW120666   0.947   1.864  10.559  0.4071 -0.2830 -0.0385
39553SOL    HW220667   1.074   1.831  10.484  0.8731 -0.0255  0.6204
39554SOL     OW20668   4.558  10.044   9.078  0.3514 -0.5356 -0.0885
39554SOL    HW120669   4.620  10.111   9.106  0.1338 -0.7830  1.0147
39554SOL    HW220670   4.591   9.963   9.118 -0.6936 -0.6640  0.5283
39555SOL     OW20671   8.643  10.032   6.081  0.6161  0.0717  0.0629
39555SOL    HW120672   8.573   9.970   6.065  0.5598 -0.1298  0.9964
39555SOL    HW220673   8.646  10.040   6.177 -1.1476  3.4983 -0.0173
39556SOL     OW20674   3.668   0.792   6.205  0.9862  0.1164  0.1939
39556SOL    HW120675   3.656   0.713   6.257  1.7687  0.5756  1.1010
39556SOL    HW220676   3.720   0.851   6.261  2.5290  0.3296 -1.3576
39557SOL     OW20677  11.201   4.635  10.441  0.5036  0.3808 -0.4891
39557SOL    HW120678  11.128   4.676  10.489  1.4155  1.6945 -0.1785
39557SOL    HW220679  11.189   4.663  10.350  1.8196  2.4905 -0.0833
39558SOL     OW20680  10.067   2.688   3.382  0.4445  0.7952  0.4895
39558SOL    HW120681  10.045   2.762   3.440 -0.8260  2.3340 -1.8133
39558SOL    HW220682   9.991   2.631   3.387  2.0739 -1.4206  3.5563
39559SOL     OW20683   5.023   4.806   4.482 -0.2050 -0.0470  0.0601
39559SOL    HW120684   5.062   4.744   4.544 -0.4840 -1.6277 -1.2977
39559SOL    HW220685   4.944   4.762   4.450 -1.1495  1.5792  0.0307
39560SOL     OW20686   8.119   8.828   6.191 -0.1244 -0.2785 -0.8620
39560SOL    HW120687   8.098   8.920   6.202 -1.4527 -0.4877 -1.4888
39560SOL    HW220688   8.175   8.826   6.113  1.0440  0.1172 -0.0639
39561SOL     OW20689   9.807   7.561   3.961  0.1017  0.6006 -0.6253
39561SOL    HW120690   9.738   7.533   3.902 -0.6645  2.4204 -0.6621
39561SOL    HW220691   9.762   7.612   4.028  1.0822 -0.5678  0.9982
39562SOL     OW20692   8.532   1.450   6.235 -0.4893  0.0281 -0.1212
39562SOL    HW120693   8.466   1.404   6.183  0.0321  1.9283 -2.6407
39562SOL    HW220694   8.503   1.541   6.236  1.0120  0.5356  0.4757
39563SOL     OW20695  11.098   2.529  10.917  0.1054  0.4342 -0.6907
39563SOL    HW120696  11.091   2.624  10.925  0.4628  0.3347  1.0740
39563SOL    HW220697  11.187   2.515  10.882  0.5344  0.7062  0.2736
39564SOL     OW20698   8.290  10.498   3.773  0.1384 -0.0098  0.6275
39564SOL    HW120699   8.227  10.500   3.701 -0.7829 -0.5572  1.3867
39564SOL    HW220700   8.281  10.583   3.815 -0.9163 -0.4626  1.3822
39565SOL     OW20701   3.909   4.139   2.945 -0.4568  0.2020  0.3710
39565SOL    HW120702   3.871   4.066   2.993  2.2593 -0.4360  1.7239
39565SOL    HW220703   3.904   4.213   3.006 -1.3390  0.6539 -0.2258
39566SOL     OW20704   6.171   1.216   9.817 -0.2599 -0.2742  0.0095
39566SOL    HW120705   6.217   1.229   9.734 -1.4255  0.8047 -0.4997
39566SOL    HW220706   6.089   1.174   9.793 -1.8140  2.4139  0.2231
39567SOL     OW20707   5.252  10.660   6.685 -0.4209  0.3196  0.4298
39567SOL    HW120708   5.212  10.586   6.731 -1.9502  0.4673 -0.5743
39567SOL    HW220709   5.180  10.723   6.674  0.0168  0.5221 -1.6451
39568SOL     OW20710   8.531  10.764   6.739  0.0329 -0.1517 -0.0118
39568SOL    HW120711   8.572  10.684   6.708 -0.0184 -0.6057  1.0544
39568SOL    HW220712   8.581  10.835   6.697  1.8197 -0.6830  1.1165
39569SOL     OW20713   1.730   4.796   8.596  0.3922 -0.1189 -0.0686
39569SOL    HW120714   1.754   4.732   8.664  1.7920 -0.8195 -1.1566
39569SOL    HW220715   1.810   4.847   8.583  0.8720 -1.3346 -2.5656
39570SOL     OW20716   3.758   7.995   8.428 -0.3079  0.3839 -0.3085
39570SOL    HW120717   3.808   7.918   8.403  0.3777  0.1022  1.7130
39570SOL    HW220718   3.717   8.025   8.347  0.5825 -1.2363 -1.4110
39571SOL     OW20719   0.469   1.240   4.931  0.1011  0.4157 -0.7689
39571SOL    HW120720   0.411   1.211   5.002 -0.2782 -0.0093 -1.2463
39571SOL    HW220721   0.437   1.193   4.854  1.7708 -0.6890 -0.8391
39572SOL     OW20722   2.091   3.078   2.476 -0.6964  0.1054  0.5011
39572SOL    HW120723   2.147   3.125   2.414 -0.9634  0.5819  0.6192
39572SOL    HW220724   2.128   2.989   2.479 -2.0915 -0.6707 -2.1686
39573SOL     OW20725   6.178   0.455   2.147  0.1394 -0.4580  0.3142
39573SOL    HW120726   6.171   0.484   2.238 -0.6679 -0.4031  0.2448
39573SOL    HW220727   6.153   0.532   2.096  0.1835 -0.6117  0.0598
39574SOL     OW20728   5.752   0.601   1.489  0.8676 -0.1627 -0.5789
39574SOL    HW120729   5.727   0.572   1.577 -0.0264 -1.7670 -1.2934
39574SOL    HW220730   5.670   0.594   1.439  1.4233  0.4733 -1.5912
39575SOL     OW20731   2.724   1.088   3.148 -0.5420 -0.0236  0.2108
39575SOL    HW120732   2.765   1.172   3.166  1.7392  0.0801 -4.0678
39575SOL    HW220733   2.634   1.108   3.125 -0.2074  1.1700 -0.0886
39576SOL     OW20734   7.653   5.189   2.467 -0.1572 -0.7686 -0.1081
39576SOL    HW120735   7.580   5.251   2.458 -0.2041 -0.8414 -0.2372
39576SOL    HW220736   7.686   5.204   2.555 -0.2547 -0.6529 -0.0896
39577SOL     OW20737   7.437   9.667  10.268  0.2943  0.6495  1.0769
39577SOL    HW120738   7.450   9.695  10.358  0.1541  0.1740  1.2482
39577SOL    HW220739   7.414   9.574  10.275  1.6381  0.2419  0.4724
39578SOL     OW20740   0.753   0.671   8.457  0.0690 -0.3530  0.3792
39578SOL    HW120741   0.718   0.641   8.373  1.9032  0.1067 -0.6085
39578SOL    HW220742   0.813   0.742   8.433  1.0991 -0.6281  2.0296
39579SOL     OW20743   1.210   8.777   3.789 -0.4402  0.1730 -0.2481
39579SOL    HW120744   1.289   8.823   3.761 -0.6418  0.5056 -0.2754
39579SOL    HW220745   1.172   8.743   3.709 -1.1747  1.3742 -0.4351
39580SOL     OW20746  10.082   1.248   8.462 -0.1819 -0.4635 -0.3492
39580SOL    HW120747  10.099   1.342   8.463 -0.7787 -0.3317  1.2252
39580SOL    HW220748  10.004   1.238   8.407 -0.0171 -0.0552 -0.6583
39581SOL     OW20749   8.241  11.276   6.924 -0.2939 -0.2674 -0.0186
39581SOL    HW120750   8.221  11.187   6.954  0.6571 -0.2718  0.6306
39581SOL    HW220751   8.328  11.294   6.959  1.2176 -0.4931 -3.3057
39582SOL     OW20752   9.347   7.596   9.072  0.2887 -0.3443 -0.3786
39582SOL    HW120753   9.308   7.510   9.061 -0.8247  0.1615 -0.5825
39582SOL    HW220754   9.440   7.583   9.055  0.4871 -1.8715  1.4937
39583SOL     OW20755   2.111   7.649   8.849 -0.0074  0.4647  0.1386
39583SOL    HW120756   2.110   7.737   8.886  1.4274 -0.1426  1.8391
39583SOL    HW220757   2.200   7.617   8.868 -0.7346 -1.6167  0.3306
39584SOL     OW20758  11.189   0.295   6.027 -0.0090  1.0158 -0.0539
39584SOL    HW120759  11.284   0.302   6.034  0.2157 -1.4536 -0.0141
39584SOL    HW220760  11.175   0.229   5.960 -1.8052  3.6469 -2.5367
39585SOL     OW20761   9.080   7.457   9.186  0.4526 -0.0594  0.6180
39585SOL    HW120762   9.038   7.403   9.252 -2.5902 -0.9506 -1.7878
39585SOL    HW220763   9.114   7.395   9.121  3.2708  0.7824  1.1676
39586SOL     OW20764   4.944   7.053   9.432  0.3924 -0.1611  0.1885
39586SOL    HW120765   4.991   7.024   9.354  0.0125 -0.9786  0.2509
39586SOL    HW220766   4.882   6.982   9.450 -1.5980  1.2917 -0.4782
39587SOL     OW20767   2.210   0.019  10.038  0.3545 -0.4562 -1.1585
39587SOL    HW120768   2.246  -0.036   9.969 -0.9184  0.2135 -2.4000
39587SOL    HW220769   2.121   0.039  10.009 -0.4602 -0.6809  0.9962
39588SOL     OW20770   4.314   1.599   8.464  0.0502 -0.2202 -0.0279
39588SOL    HW120771   4.352   1.686   8.476 -0.7250  0.0122  0.8473
39588SOL    HW220772   4.335   1.553   8.545 -0.1055 -0.6298 -0.2202
39589SOL     OW20773   7.443   9.498  11.264 -0.5506 -0.2106  0.1685
39589SOL    HW120774   7.387   9.486  11.188 -0.5277 -0.1397  0.1404
39589SOL    HW220775   7.383   9.525  11.334 -0.3295  1.6162 -0.3032
39590SOL     OW20776   2.618   9.285   6.468  0.0076 -0.0963 -0.0332
39590SOL    HW120777   2.667   9.324   6.395  3.7388 -0.9051  1.8351
39590SOL    HW220778   2.550   9.350   6.488  2.9656  3.2993 -0.0979
39591SOL     OW20779   7.481  11.218   6.599 -0.2439  0.0946  0.0074
39591SOL    HW120780   7.457  11.253   6.513 -3.5241  0.1795  0.8045
39591SOL    HW220781   7.516  11.130   6.581  0.4028  0.6342 -1.4736
39592SOL     OW20782   8.429  10.557   5.998  0.4357 -0.2875  0.3616
39592SOL    HW120783   8.474  10.612   5.933  1.9103 -1.3098  0.4679
39592SOL    HW220784   8.470  10.581   6.081  0.5177 -0.9587  0.5188
39593SOL     OW20785   1.147   3.844   2.027 -1.0517  0.2109 -0.0450
39593SOL    HW120786   1.085   3.874   1.960 -1.4900  1.8871  1.0500
39593SOL    HW220787   1.125   3.896   2.104  2.0506  1.2405  0.2584
39594SOL     OW20788   1.565  10.566  10.352  0.7248  0.5070  0.1316
39594SOL    HW120789   1.612  10.485  10.331 -0.9758 -0.3176 -0.6427
39594SOL    HW220790   1.634  10.632  10.357  2.0904 -0.8416  0.1437
39595SOL     OW20791   4.034   3.944   1.709 -0.3331 -0.0088  0.0009
39595SOL    HW120792   3.944   3.916   1.693 -0.8793  1.7597 -0.2289
39595SOL    HW220793   4.086   3.865   1.696 -1.8631 -1.1416  0.4306
39596SOL     OW20794   6.963   5.113   3.124  0.0878 -0.0136 -0.5420
39596SOL    HW120795   7.038   5.065   3.159 -0.6532  1.3822  3.5426
39596SOL    HW220796   6.987   5.205   3.135 -0.8431  0.5263 -2.6241
39597SOL     OW20797   5.960   2.937   1.920  0.5229 -0.1658  0.1263
39597SOL    HW120798   6.037   2.992   1.909  0.9411 -0.5808  0.9234
39597SOL    HW220799   5.988   2.851   1.889 -0.0577 -0.0022 -0.9005
39598SOL     OW20800   9.139   1.474   7.708  0.3538 -0.2278 -0.2501
39598SOL    HW120801   9.119   1.500   7.618 -0.0849 -0.5531 -0.2439
39598SOL    HW220802   9.054   1.458   7.748  0.6117 -1.5119 -0.1959
39599SOL     OW20803   9.904   8.170   2.209 -0.2439  0.1892  0.2189
39599SOL    HW120804   9.886   8.091   2.260  0.1569 -1.3360 -1.8393
39599SOL    HW220805   9.874   8.148   2.120  2.0232  1.4850 -0.9560
39600SOL     OW20806   5.874   7.470   8.819  0.6206  0.2714 -0.0322
39600SOL    HW120807   5.893   7.377   8.836  3.4975  0.4953 -1.3974
39600SOL    HW220808   5.914   7.487   8.734  1.5410  3.1028  0.8550
39601SOL     OW20809   3.610   6.031   7.222 -0.4124  0.0581 -0.1738
39601SOL    HW120810   3.651   5.989   7.297 -2.8851  0.6903  1.6889
39601SOL    HW220811   3.600   6.123   7.249 -0.0464  0.6215 -1.8805
39602SOL     OW20812   6.362  10.175   6.156 -0.6713  0.1079 -0.0115
39602SOL    HW120813   6.385  10.249   6.099 -1.4074  1.4483  1.3352
39602SOL    HW220814   6.329  10.108   6.097  0.6852  0.5702 -1.3534
39603SOL     OW20815   2.155   6.600   1.484  0.0765 -0.0925  0.0841
39603SOL    HW120816   2.137   6.539   1.555  2.0311 -0.0444  0.6507
39603SOL    HW220817   2.084   6.584   1.421 -0.5367 -1.5630  1.0879
39604SOL     OW20818   2.942   5.697   3.677  0.8472  0.2978 -0.0921
39604SOL    HW120819   2.972   5.619   3.725  1.1666  0.5301  0.0875
39604SOL    HW220820   2.975   5.771   3.728  0.2654  0.5597 -0.0803
39605SOL     OW20821   3.119   5.437  10.516 -0.3037  0.1157 -0.0724
39605SOL    HW120822   3.067   5.356  10.508  0.1242 -0.2545  0.7735
39605SOL    HW220823   3.083   5.495  10.448 -2.5204  0.2481  1.1050
39606SOL     OW20824   6.952   9.763   7.168  0.1490 -0.3276 -0.2834
39606SOL    HW120825   6.926   9.714   7.090 -0.9248 -0.6138  0.2371
39606SOL    HW220826   6.964   9.696   7.236 -0.6563  0.0605  0.2549
39607SOL     OW20827   4.130   0.412   1.060  0.0355 -0.4448  0.4507
39607SOL    HW120828   4.041   0.407   1.095 -0.0260 -1.1303  0.2123
39607SOL    HW220829   4.121   0.452   0.974 -0.0281 -0.4234  0.4677
39608SOL     OW20830   4.923   2.814   9.615 -0.1806 -0.0968 -0.5427
39608SOL    HW120831   4.858   2.839   9.681 -0.1811  0.6279 -0.8039
39608SOL    HW220832   4.940   2.895   9.567 -0.5897 -0.7188 -1.7867
39609SOL     OW20833   9.169   6.197   1.097  0.7406 -0.3317 -0.3380
39609SOL    HW120834   9.225   6.119   1.091  2.6746  1.0461 -1.3124
39609SOL    HW220835   9.230   6.270   1.099 -1.0167  1.3855 -2.9346
39610SOL     OW20836   7.735   0.549   0.591 -0.1597  0.3869 -0.0576
39610SOL    HW120837   7.741   0.545   0.496  2.4222  1.7516 -0.0472
39610SOL    HW220838   7.826   0.543   0.621 -0.6898  2.0403  2.2009
39611SOL     OW20839   7.485   6.174   5.936 -0.2233  0.2585  0.0348
39611SOL    HW120840   7.520   6.103   5.882 -0.5193 -0.7537  1.1331
39611SOL    HW220841   7.490   6.141   6.025  2.6402  2.8187  1.0146
39612SOL     OW20842   8.996   8.520   6.870  0.0400 -0.3194 -0.0364
39612SOL    HW120843   8.987   8.614   6.886 -0.0976 -0.3866  0.3018
39612SOL    HW220844   9.061   8.513   6.800 -0.4797  0.0527 -0.5601
39613SOL     OW20845   5.640   0.455   0.130  0.7816 -0.3255  0.6554
39613SOL    HW120846   5.730   0.488   0.124  0.4492  1.2500  2.9417
39613SOL    HW220847   5.585   0.533   0.121 -0.3890 -1.2566 -0.6269
39614SOL     OW20848   0.856   8.835   2.229  1.1077 -0.3668  0.1271
39614SOL    HW120849   0.797   8.764   2.256  0.6319  0.2422  0.7363
39614SOL    HW220850   0.910   8.852   2.306  4.9469 -3.5585 -1.4988
39615SOL     OW20851   1.987   8.666   1.913  0.1028  0.1715  0.3936
39615SOL    HW120852   1.976   8.571   1.918 -0.1287  0.2534  1.9520
39615SOL    HW220853   2.014   8.691   2.001 -2.3633  1.8456  0.7723
39616SOL     OW20854   1.281   7.803   6.479 -0.0011 -0.3315  0.2184
39616SOL    HW120855   1.216   7.800   6.549 -1.0593 -0.0783 -0.7334
39616SOL    HW220856   1.296   7.711   6.456 -1.3277 -0.3315 -0.7228
39617SOL     OW20857   6.350   6.576   1.125 -0.2037 -0.1848 -0.1519
39617SOL    HW120858   6.421   6.565   1.061 -0.4310 -0.6075 -0.3320
39617SOL    HW220859   6.277   6.610   1.074  0.0232  0.7689  0.1291
39618SOL     OW20860   0.018   6.054  10.745  0.5078 -0.2120  0.6124
39618SOL    HW120861   0.056   6.034  10.660 -1.3180  1.6983 -0.7641
39618SOL    HW220862   0.012   5.969  10.790 -0.6244 -1.6622 -2.0862
39619SOL     OW20863   4.756   6.704  10.414 -0.3818  0.0970 -0.1071
39619SOL    HW120864   4.763   6.637  10.346  2.5323 -0.0664  0.2395
39619SOL    HW220865   4.836   6.756  10.405 -1.7810  2.5679  0.6943
39620SOL     OW20866   8.922  10.700   3.377 -0.4030 -0.9875  0.2379
39620SOL    HW120867   8.862  10.664   3.442  0.7023 -1.4579  1.0085
39620SOL    HW220868   8.920  10.637   3.305 -1.9443 -0.2593 -0.4089
39621SOL     OW20869   0.990  10.792   2.970  0.5524 -0.2282 -0.0980
39621SOL    HW120870   1.020  10.787   2.879  2.1094 -1.3300  0.4398
39621SOL    HW220871   0.925  10.722   2.978  2.2942 -1.8818  0.2607
39622SOL     OW20872  11.244   8.081   8.192 -0.1795 -0.2229 -0.4071
39622SOL    HW120873  11.301   8.006   8.206  0.3202  0.5592  2.3552
39622SOL    HW220874  11.304   8.154   8.175 -0.5650 -0.0850 -1.2195
39623SOL     OW20875   5.178  10.617  10.530 -0.1336 -0.1130  0.3014
39623SOL    HW120876   5.224  10.596  10.449  2.1366 -2.7056  2.0786
39623SOL    HW220877   5.245  10.650  10.589 -1.6653  1.4195  1.2730
39624SOL     OW20878  10.707   0.160   2.147 -0.1345  0.4232  0.9969
39624SOL    HW120879  10.716   0.203   2.062 -0.2927  1.4656  1.4904
39624SOL    HW220880  10.797   0.145   2.176 -0.0329  1.9424  1.5532
39625SOL     OW20881  10.595   5.810   5.825 -0.4199 -0.8806  0.0403
39625SOL    HW120882  10.608   5.801   5.920 -0.5569  2.4401  0.4781
39625SOL    HW220883  10.683   5.824   5.790 -0.6750  1.5539  0.2440
39626SOL     OW20884   3.271   0.924   2.804 -0.0641  0.0414 -0.3066
39626SOL    HW120885   3.286   0.997   2.744  2.3625 -0.4419 -0.4152
39626SOL    HW220886   3.273   0.964   2.891 -3.0971  0.6673 -0.4067
39627SOL     OW20887   9.311   8.396   3.165  0.1608  0.3551  1.0273
39627SOL    HW120888   9.318   8.491   3.156  0.3423  0.2782  0.3432
39627SOL    HW220889   9.298   8.382   3.259  1.4822  0.9753  1.3259
39628SOL     OW20890  10.540   8.417  10.903 -0.0201  0.8568  0.6352
39628SOL    HW120891  10.608   8.364  10.862 -0.6636  0.1769  0.4158
39628SOL    HW220892  10.579   8.504  10.913 -0.2533  1.4404 -2.6369
39629SOL     OW20893   7.875   3.595   9.168 -0.2439 -0.3269  0.4811
39629SOL    HW120894   7.962   3.628   9.144 -0.8401  0.1623 -1.1163
39629SOL    HW220895   7.860   3.630   9.256  1.7251 -1.5755  1.3974
39630SOL     OW20896   6.582  10.164   7.131 -0.2096 -0.5171  0.2029
39630SOL    HW120897   6.573  10.259   7.130 -1.0035 -0.5837 -0.1339
39630SOL    HW220898   6.676  10.148   7.126 -0.1628  0.2273 -2.1158
39631SOL     OW20899   7.648  10.580   8.643 -0.1442  0.0639  0.4359
39631SOL    HW120900   7.578  10.629   8.685 -1.2338 -0.9054 -0.1829
39631SOL    HW220901   7.620  10.572   8.552 -0.8943 -3.1186  0.8293
39632SOL     OW20902   7.400  10.997   9.992 -0.2570 -0.0657 -0.6001
39632SOL    HW120903   7.354  11.064  10.042 -1.1180 -1.9142  1.2348
39632SOL    HW220904   7.341  10.977   9.919 -1.2330 -0.6082  0.3046
39633SOL     OW20905  10.532   3.153  10.552 -0.2597 -0.4052  0.3305
39633SOL    HW120906  10.452   3.100  10.551  0.1716 -1.0711  0.2924
39633SOL    HW220907  10.581   3.123  10.475 -0.4308  0.7310 -0.2433
39634SOL     OW20908  10.868   7.329   6.946 -0.4045 -0.5553 -0.3930
39634SOL    HW120909  10.827   7.270   7.009  0.6336 -0.9251 -0.0346
39634SOL    HW220910  10.802   7.342   6.879 -1.4116 -0.4349  0.5890
39635SOL     OW20911   6.632   7.890  10.827 -0.1540  0.6718  0.4551
39635SOL    HW120912   6.718   7.850  10.812  0.0114  1.2950 -0.3200
39635SOL    HW220913   6.604   7.920  10.741 -0.8655  1.0487  0.8067
39636SOL     OW20914   5.906   3.502   2.205  0.5482  0.2270 -0.5941
39636SOL    HW120915   5.956   3.477   2.282  0.5908  0.3011 -0.5976
39636SOL    HW220916   5.913   3.427   2.146  1.8659  0.7923 -1.2016
39637SOL     OW20917   6.339   2.608   2.115  0.3136 -0.2960  0.1299
39637SOL    HW120918   6.250   2.597   2.149  0.6661 -4.6391  0.2080
39637SOL    HW220919   6.391   2.543   2.162  3.4249  1.5468 -0.4938
39638SOL     OW20920   6.629   3.420  10.563  0.7592  0.3509  0.3415
39638SOL    HW120921   6.612   3.439  10.471  3.2508 -1.5816 -0.6494
39638SOL    HW220922   6.627   3.505  10.606 -2.8672  1.0908 -0.9262
39639SOL     OW20923   1.085  11.192  10.344  0.4170 -0.0013 -0.1330
39639SOL    HW120924   1.114  11.282  10.361  3.3276 -0.3530 -2.3545
39639SOL    HW220925   1.164  11.139  10.356 -1.3342 -2.3916  1.5495
39640SOL     OW20926   8.240   1.700   5.347  0.1537  0.2485 -0.2240
39640SOL    HW120927   8.331   1.676   5.328  0.8840  2.1660  0.5526
39640SOL    HW220928   8.244   1.793   5.369 -2.0299  0.4030 -0.2437
39641SOL     OW20929   0.065   0.514   4.390  0.0228  1.3242 -0.1025
39641SOL    HW120930   0.153   0.528   4.426 -0.1297  1.0499  0.3936
39641SOL    HW220931   0.028   0.445   4.445 -0.3154  1.0800 -0.6351
39642SOL     OW20932   1.920   3.326   5.484  0.7001  0.0289 -1.1816
39642SOL    HW120933   1.893   3.370   5.565  0.6054  1.1928 -1.8209
39642SOL    HW220934   1.931   3.234   5.509 -1.2819 -0.0167 -0.2928
39643SOL     OW20935   6.227   0.109   1.455  0.0781 -0.1674 -0.5422
39643SOL    HW120936   6.209   0.081   1.544  1.9293 -0.4485 -0.2090
39643SOL    HW220937   6.188   0.042   1.399 -3.4332  1.3353 -0.1244
39644SOL     OW20938   2.251   7.077   9.010  0.0032 -0.3540 -0.0183
39644SOL    HW120939   2.280   7.168   9.001 -3.3965  0.8264 -0.4117
39644SOL    HW220940   2.197   7.076   9.088  1.2186 -2.4987  0.9010
39645SOL     OW20941   4.173   9.078   6.007 -0.2043 -0.1026  0.3595
39645SOL    HW120942   4.211   9.008   6.059  1.0092 -1.6158 -2.3541
39645SOL    HW220943   4.211   9.158   6.042  0.4297 -1.0227  1.8582
39646SOL     OW20944   6.286   6.405   3.101 -0.4617  0.0763  0.2971
39646SOL    HW120945   6.307   6.360   3.019  2.5119 -0.3470  1.1421
39646SOL    HW220946   6.255   6.335   3.159  1.6777 -0.5338  0.8084
39647SOL     OW20947   3.034   6.749   0.797  0.0403 -0.4195 -0.6887
39647SOL    HW120948   3.031   6.797   0.714  1.7164  1.7955  0.4223
39647SOL    HW220949   2.942   6.745   0.825 -0.2209  2.3251 -0.8370
39648SOL     OW20950   0.118   7.563   0.549 -0.2815  0.4774  0.8527
39648SOL    HW120951   0.084   7.476   0.529 -2.5480  0.8320  2.7955
39648SOL    HW220952   0.089   7.618   0.476 -0.4780 -0.0229  0.5514
39649SOL     OW20953   5.831   8.676   6.679  0.2909  0.2788 -0.0643
39649SOL    HW120954   5.911   8.699   6.727  0.6510  1.5850 -1.2500
39649SOL    HW220955   5.862   8.623   6.605 -0.0768 -0.1789  0.1018
39650SOL     OW20956   7.400   6.463   9.398 -0.2663  0.8671  0.3612
39650SOL    HW120957   7.328   6.472   9.336 -1.1348  0.4160  1.2828
39650SOL    HW220958   7.387   6.378   9.439  0.5233  0.9855  0.8913
39651SOL     OW20959   3.329   7.197   9.215 -0.5273 -0.4482  0.0842
39651SOL    HW120960   3.313   7.256   9.142 -0.2640 -1.1943 -0.5912
39651SOL    HW220961   3.394   7.135   9.182  1.9009  0.9671  1.8808
39652SOL     OW20962   4.357   6.626   8.094 -0.1835 -0.2692 -0.3150
39652SOL    HW120963   4.315   6.709   8.117  1.0554 -0.7138  4.5234
39652SOL    HW220964   4.445   6.652   8.065 -0.4387  0.1471 -0.7423
39653SOL     OW20965   7.269   5.980   1.971 -0.0581  0.2649  0.2409
39653SOL    HW120966   7.215   6.011   2.043 -0.2551  1.3689 -0.3697
39653SOL    HW220967   7.350   6.030   1.978 -0.8241  1.8235 -1.4359
39654SOL     OW20968   4.950   0.732   6.488  0.3841  0.2111 -0.1920
39654SOL    HW120969   5.026   0.675   6.474  1.1532  0.8968  1.0176
39654SOL    HW220970   4.980   0.798   6.550 -1.2509  0.4416  0.4094
39655SOL     OW20971  10.253   9.018   7.829  0.6508 -0.1390 -1.0215
39655SOL    HW120972  10.331   8.980   7.869 -0.6328 -1.9555 -0.0932
39655SOL    HW220973  10.182   8.960   7.856 -1.3984  2.6187  0.0579
39656SOL     OW20974   0.565   3.204   4.363  0.4072  0.0368 -0.0052
39656SOL    HW120975   0.582   3.209   4.457  0.9962 -0.3651 -0.0851
39656SOL    HW220976   0.651   3.194   4.323  0.0709 -1.2757 -0.4728
39657SOL     OW20977   4.157   8.759   4.920 -0.6873 -0.0600 -0.6673
39657SOL    HW120978   4.221   8.800   4.978  1.1367 -0.7390 -2.1037
39657SOL    HW220979   4.143   8.823   4.851  0.7734 -1.0454 -1.9377
39658SOL     OW20980   8.867   3.119   7.347  0.0613 -0.0771 -0.2156
39658SOL    HW120981   8.960   3.120   7.326 -0.2507 -0.6427 -1.8551
39658SOL    HW220982   8.824   3.112   7.261 -1.4076 -1.8518  0.5890
39659SOL     OW20983   9.902   3.060  10.325 -0.2171  0.8074  0.0371
39659SOL    HW120984   9.848   3.092  10.397  0.0921 -0.1692  0.7263
39659SOL    HW220985   9.848   2.993  10.283 -0.0974  0.8353 -0.1621
39660SOL     OW20986   5.863   5.275   1.930 -0.1777  0.1223  0.0641
39660SOL    HW120987   5.826   5.235   1.852  0.4957  0.5709 -0.5028
39660SOL    HW220988   5.926   5.210   1.962 -0.8050 -0.2680  0.5231
39661SOL     OW20989  11.285   5.741   8.838  0.4226 -0.6722 -0.0177
39661SOL    HW120990  11.213   5.796   8.806  0.5593  0.2118  1.1188
39661SOL    HW220991  11.342   5.730   8.763  0.6594  1.2012 -0.1614
39662SOL     OW20992   8.729   6.789   0.961  0.1843 -0.0658  0.0741
39662SOL    HW120993   8.786   6.814   0.889 -0.9045 -2.7229 -1.8721
39662SOL    HW220994   8.780   6.725   1.011 -0.4860 -1.2791 -0.7612
39663SOL     OW20995   3.073   7.339  10.113  0.0929 -0.0508  0.0901
39663SOL    HW120996   2.985   7.306  10.095  0.5302 -1.9780  1.1599
39663SOL    HW220997   3.109   7.357  10.027 -2.0312  2.9113 -0.3252
39664SOL     OW20998   2.243   9.599   5.117  0.2344 -0.0567 -0.0275
39664SOL    HW120999   2.150   9.622   5.116  0.0621 -0.7437 -0.2092
39664SOL    HW221000   2.254   9.538   5.044  0.4165 -1.5238  1.1739
39665SOL     OW21001   6.871   5.463   7.857 -0.2848  0.4098 -0.3777
39665SOL    HW121002   6.831   5.548   7.877  0.9317  0.6813  1.1269
39665SOL    HW221003   6.912   5.436   7.939  1.0444 -0.6871 -1.3549
39666SOL     OW21004   1.114   1.412   7.609 -0.1664 -0.3538 -0.9076
39666SOL    HW121005   1.122   1.465   7.530 -1.7079 -0.2343 -1.0230
39666SOL    HW221006   1.020   1.413   7.629  0.3798  1.5048  2.2180
39667SOL     OW21007  10.056   0.506   5.216 -0.1216 -0.0908  0.4802
39667SOL    HW121008   9.987   0.463   5.268  1.4396 -1.7222  1.3180
39667SOL    HW221009  10.013   0.582   5.177 -2.6807 -1.6414  0.0565
39668SOL     OW21010   4.396   3.982  10.817  0.5642 -0.2841 -0.0333
39668SOL    HW121011   4.307   3.971  10.851  0.3705  1.8385  0.2600
39668SOL    HW221012   4.407   3.909  10.756 -1.2107 -0.8312  0.2227
39669SOL     OW21013   3.364   6.441   3.528 -0.1048  0.1940 -0.2399
39669SOL    HW121014   3.420   6.437   3.606  0.0624  0.5423 -0.3398
39669SOL    HW221015   3.332   6.531   3.525 -2.0096 -0.4120  0.7310
39670SOL     OW21016   5.698   4.411   2.391 -0.1030 -0.6584 -0.4403
39670SOL    HW121017   5.737   4.497   2.376 -1.2212 -0.1832 -0.6566
39670SOL    HW221018   5.671   4.412   2.482 -1.4461 -0.2222 -0.8258
39671SOL     OW21019   4.816   9.325  10.312 -0.2451 -0.6319 -0.2244
39671SOL    HW121020   4.896   9.286  10.347 -0.7408 -1.1854  0.3200
39671SOL    HW221021   4.795   9.273  10.235 -0.2895 -0.7178 -0.1537
39672SOL     OW21022   0.423   1.390   8.454  0.1123  0.3336  0.2612
39672SOL    HW121023   0.428   1.364   8.362 -0.0843  3.0213 -0.5841
39672SOL    HW221024   0.334   1.423   8.465 -0.2724 -1.0598  1.8039
39673SOL     OW21025  11.104   4.055   5.564  0.0790  0.4955  0.2477
39673SOL    HW121026  11.049   3.994   5.612 -1.3577 -0.2195 -2.1708
39673SOL    HW221027  11.194   4.029   5.586 -0.5132 -1.4468  0.5147
39674SOL     OW21028   1.985   6.932   0.024  0.7090 -0.3437  0.2445
39674SOL    HW121029   1.969   6.903   0.114  0.1502  1.5590  0.8054
39674SOL    HW221030   1.992   7.027   0.030  0.9599 -0.1925 -1.6960
39675SOL     OW21031   7.073   9.669   9.902 -0.6279 -0.8159  0.4753
39675SOL    HW121032   7.031   9.592   9.864  0.4706 -2.3291  2.1501
39675SOL    HW221033   7.010   9.740   9.888 -2.4859 -2.3781  0.4344
39676SOL     OW21034  11.119  10.162   8.810 -0.1720  0.1167  0.1259
39676SOL    HW121035  11.143  10.148   8.902  0.1842  0.0197  0.0174
39676SOL    HW221036  11.061  10.238   8.812 -0.8262 -0.3771  0.5285
39677SOL     OW21037  10.644   9.453   8.703  0.1282  0.5199  0.4990
39677SOL    HW121038  10.611   9.542   8.694  0.2736  0.3821 -1.8322
39677SOL    HW221039  10.734   9.464   8.734  0.0346  1.1610  0.5562
39678SOL     OW21040   9.796   5.044   1.436  0.1628  0.4831  0.5147
39678SOL    HW121041   9.777   4.985   1.363  3.2017  0.5488 -0.4921
39678SOL    HW221042   9.747   5.008   1.510 -1.6092 -0.6251 -1.1013
39679SOL     OW21043  10.943  10.043   6.498  0.2999  0.1475 -0.5935
39679SOL    HW121044  10.953  10.135   6.477  2.1953  0.0827 -0.2000
39679SOL    HW221045  10.972  10.035   6.589 -2.3923 -0.4563  0.3153
39680SOL     OW21046   8.633   6.165   0.267 -0.5993 -0.0936  0.6633
39680SOL    HW121047   8.596   6.082   0.235 -1.8051  1.0558 -1.0821
39680SOL    HW221048   8.594   6.232   0.212  2.5975  1.4464 -0.0041
39681SOL     OW21049   4.141   0.362  10.665 -0.2135  0.2754 -0.2039
39681SOL    HW121050   4.101   0.275  10.674 -1.5327  1.0118  1.6696
39681SOL    HW221051   4.205   0.352  10.594 -2.3658 -1.4605 -2.0388
39682SOL     OW21052   7.409   8.926   5.978 -0.2989  0.0596  0.1962
39682SOL    HW121053   7.367   8.840   5.969  0.6945 -0.4625  0.4202
39682SOL    HW221054   7.338   8.989   5.965 -1.0326 -0.7947 -0.0139
39683SOL     OW21055   8.502   6.041   8.767  0.0280  0.5348  0.6794
39683SOL    HW121056   8.581   5.993   8.743  0.7856  1.9913  0.1159
39683SOL    HW221057   8.512   6.059   8.860 -0.0472 -0.0010  0.7921
39684SOL     OW21058   6.305   1.015   1.311  0.1278 -0.6078 -0.3006
39684SOL    HW121059   6.286   1.064   1.231  0.5401  0.1545  0.0555
39684SOL    HW221060   6.218   0.994   1.347 -0.1092  1.3241  0.3992
39685SOL     OW21061   3.757   1.096   8.233 -0.4791 -0.3157  0.3361
39685SOL    HW121062   3.827   1.057   8.285  0.3588 -0.7097 -1.0349
39685SOL    HW221063   3.720   1.022   8.184 -0.2773  0.2618 -0.7046
39686SOL     OW21064   0.805   1.622   9.475  0.3203  0.2279 -0.4494
39686SOL    HW121065   0.892   1.629   9.435 -0.4460 -0.4267 -2.3349
39686SOL    HW221066   0.749   1.678   9.421 -0.4744  0.6165  0.7251
39687SOL     OW21067   1.820   6.957   9.584 -0.3664  0.5872  0.1385
39687SOL    HW121068   1.861   6.992   9.663 -0.9714  0.3060  0.5808
39687SOL    HW221069   1.832   6.862   9.590 -0.0455  0.5911 -0.3203
39688SOL     OW21070   5.551   8.056   3.589 -0.7356 -0.0763 -0.1661
39688SOL    HW121071   5.479   8.038   3.529  1.2105 -0.7028 -2.4633
39688SOL    HW221072   5.607   7.979   3.583  2.6312  2.2773 -2.3897
39689SOL     OW21073   7.971   0.104  10.905 -0.6771 -0.2550 -0.0913
39689SOL    HW121074   7.960   0.038  10.974 -0.8445 -1.3256 -1.1100
39689SOL    HW221075   7.912   0.175  10.931  0.3931  0.0641  1.6567
39690SOL     OW21076   9.340   8.791   4.565  0.3446 -0.4362 -0.5759
39690SOL    HW121077   9.375   8.837   4.490  1.4910 -1.4885 -0.7109
39690SOL    HW221078   9.397   8.816   4.638  2.3504 -3.1796 -1.0555
39691SOL     OW21079  10.742   8.717   2.509 -0.1232  0.7207  0.3341
39691SOL    HW121080  10.786   8.671   2.437  1.5214  2.5548  0.0741
39691SOL    HW221081  10.667   8.760   2.468 -0.1565  0.4003  0.0588
39692SOL     OW21082   5.442   1.520   2.655  0.3949  0.3455 -0.0306
39692SOL    HW121083   5.446   1.432   2.616 -0.9975  0.6663 -0.9971
39692SOL    HW221084   5.348   1.538   2.662  0.6439  1.2287  1.4357
39693SOL     OW21085   2.400   7.761   5.409  0.2155 -0.1903 -0.2248
39693SOL    HW121086   2.443   7.676   5.415 -1.1250 -0.9544 -0.9652
39693SOL    HW221087   2.400   7.781   5.315 -3.7468 -1.7559 -0.7675
39694SOL     OW21088   7.120   6.575   0.063  0.0949 -0.1240  0.0098
39694SOL    HW121089   7.141   6.551  -0.027  2.4137  0.4016  0.3427
39694SOL    HW221090   7.102   6.669   0.059  3.8889  0.8134  0.4817
39695SOL     OW21091   3.339   0.454   7.463 -0.0748 -0.0145  0.1372
39695SOL    HW121092   3.265   0.393   7.462 -1.2956  1.4524 -0.8213
39695SOL    HW221093   3.387   0.430   7.543 -1.4013 -1.1946  0.6290
39696SOL     OW21094   7.685   6.535   0.790  0.3782 -0.7811  0.0978
39696SOL    HW121095   7.669   6.607   0.730  1.7041  0.5481  1.2792
39696SOL    HW221096   7.754   6.566   0.847  0.3467 -2.6582  1.2336
39697SOL     OW21097  10.754   5.033   3.453 -0.9988 -0.2341  0.6189
39697SOL    HW121098  10.686   5.101   3.451  0.3307  1.1732  0.9210
39697SOL    HW221099  10.823   5.069   3.397  0.4305 -0.5774  2.1239
39698SOL     OW21100   9.263   1.843   2.951 -0.4275 -0.2688 -0.1806
39698SOL    HW121101   9.335   1.884   3.000  0.2706  1.2168 -2.3179
39698SOL    HW221102   9.292   1.845   2.860 -2.5681 -1.0150 -0.9387
39699SOL     OW21103   4.596   6.742   8.016 -0.4809 -0.3071 -0.7399
39699SOL    HW121104   4.635   6.677   7.957 -1.8921 -0.5685 -1.4272
39699SOL    HW221105   4.534   6.790   7.961  0.4010  1.5460 -0.2064
39700SOL     OW21106   4.439   8.275   5.008  0.0484  0.7301 -0.3828
39700SOL    HW121107   4.455   8.242   4.919  0.0960  4.1599 -1.7943
39700SOL    HW221108   4.525   8.299   5.041 -0.0309 -0.0279  0.4175
39701SOL     OW21109   6.358   1.356   3.024  0.2810 -0.2137  0.0738
39701SOL    HW121110   6.329   1.349   3.115  1.4758 -0.5081  0.4531
39701SOL    HW221111   6.452   1.335   3.027  0.0536 -1.6847 -1.4299
39702SOL     OW21112   3.768   4.448  11.071 -0.4782  0.3576 -0.5521
39702SOL    HW121113   3.801   4.374  11.122 -2.3182  0.5777  1.0651
39702SOL    HW221114   3.813   4.524  11.108  0.4836  0.2175 -1.3829
39703SOL     OW21115   8.306   4.779  10.956 -0.2305  0.6437  0.0399
39703SOL    HW121116   8.392   4.739  10.964  1.1168  3.5668  2.0601
39703SOL    HW221117   8.318   4.851  10.894 -2.1484 -0.9055 -2.2862
39704SOL     OW21118   7.484   3.226   5.119  0.2304  0.3520 -0.0765
39704SOL    HW121119   7.427   3.296   5.148 -0.4091 -0.0605 -0.3256
39704SOL    HW221120   7.427   3.149   5.113  0.4401  0.2948 -1.9119
39705SOL     OW21121   1.565   8.146   4.613  0.4369 -0.3821  0.4735
39705SOL    HW121122   1.579   8.061   4.655  1.0477 -1.2070 -1.2757
39705SOL    HW221123   1.472   8.164   4.626 -0.0831 -2.1306 -0.4842
39706SOL     OW21124   3.318   3.883   5.306  0.1537 -0.0881 -0.5339
39706SOL    HW121125   3.362   3.823   5.246 -1.5053  1.7202 -3.8121
39706SOL    HW221126   3.232   3.843   5.321  0.7355 -0.7900  1.2122
39707SOL     OW21127   9.610   5.029  10.630 -0.6281 -0.9170 -0.2080
39707SOL    HW121128   9.610   4.996  10.720  1.5323 -2.0531 -0.5612
39707SOL    HW221129   9.698   5.012  10.598 -0.7368  1.2448 -1.9303
39708SOL     OW21130   7.725   4.972   8.064 -0.6435 -0.1164 -0.4081
39708SOL    HW121131   7.807   4.925   8.079 -0.5532  0.6708  1.9615
39708SOL    HW221132   7.752   5.064   8.055 -1.3159  0.3750  1.9617
39709SOL     OW21133  10.827   7.238   4.206  0.5177 -0.1290 -0.1993
39709SOL    HW121134  10.817   7.324   4.165  2.0236  1.2700  2.1249
39709SOL    HW221135  10.921   7.219   4.198  0.6604 -0.3128  1.4951
39710SOL     OW21136   3.629   5.900   0.439  0.3697  0.0671  0.3418
39710SOL    HW121137   3.563   5.959   0.402  1.3859  1.3262  0.4758
39710SOL    HW221138   3.582   5.853   0.508 -0.4499  0.8002  0.3046
39711SOL     OW21139  10.036  10.858  10.268 -0.2758  0.2995  0.8577
39711SOL    HW121140  10.078  10.892  10.189  0.0221 -1.0106  0.4318
39711SOL    HW221141  10.105  10.860  10.335  0.0449 -0.4149  0.5599
39712SOL     OW21142   6.901   4.305   3.664  0.9343  0.1890 -0.3888
39712SOL    HW121143   6.890   4.290   3.758 -1.2709  1.1637 -0.4296
39712SOL    HW221144   6.882   4.398   3.653  1.6581  0.1892 -1.7579
39713SOL     OW21145   2.009   9.277   4.814  0.0352 -0.5984  0.3939
39713SOL    HW121146   2.101   9.260   4.832 -0.4566 -1.9886  1.7911
39713SOL    HW221147   2.010   9.344   4.745  2.0657  0.2141  1.1388
39714SOL     OW21148   7.971   0.539   9.381  0.9226  0.6981  0.0817
39714SOL    HW121149   7.978   0.513   9.289 -0.8356  2.9809 -0.7937
39714SOL    HW221150   8.049   0.593   9.397  0.5014  1.5292 -0.5663
39715SOL     OW21151   1.119   5.592  10.201 -0.2277  0.2025 -0.0900
39715SOL    HW121152   1.122   5.668  10.142 -0.2820  1.1240  1.0598
39715SOL    HW221153   1.035   5.600  10.246 -0.1984 -0.5054  0.1003
39716SOL     OW21154   1.588   8.241   5.131 -0.1576 -0.1299  0.3032
39716SOL    HW121155   1.627   8.156   5.151 -0.0356  0.2636  1.9120
39716SOL    HW221156   1.536   8.226   5.052  0.0093 -1.6472  0.4515
39717SOL     OW21157  10.975   7.363  10.774 -0.0893  0.8978  0.4010
39717SOL    HW121158  11.004   7.283  10.819 -1.7875  1.2056  2.2246
39717SOL    HW221159  11.012   7.434  10.826  0.2786  1.2944 -0.3981
39718SOL     OW21160  10.752   3.696   0.850  0.5445  0.2206 -0.3700
39718SOL    HW121161  10.835   3.656   0.826  0.7954 -0.4574  1.4999
39718SOL    HW221162  10.736   3.668   0.940 -0.6423  2.0836  0.0679
39719SOL     OW21163   6.565   6.583   3.891  1.1382 -0.3716 -0.7830
39719SOL    HW121164   6.474   6.588   3.921  0.8376  0.1362 -1.7564
39719SOL    HW221165   6.608   6.656   3.935  1.2577 -1.0144  0.2203
39720SOL     OW21166   9.084   5.616  10.288 -0.1849 -0.5435  0.1064
39720SOL    HW121167   9.021   5.546  10.275 -2.1728  1.2199 -0.2123
39720SOL    HW221168   9.031   5.694  10.300  1.9510  1.0414 -0.2203
39721SOL     OW21169   2.466   5.428   6.701 -1.1619  1.0316  0.7639
39721SOL    HW121170   2.530   5.437   6.630 -0.1866 -0.5712  1.3942
39721SOL    HW221171   2.489   5.496   6.764  0.4160  0.0469  1.3121
39722SOL     OW21172   9.474   1.356   9.595  0.3532  0.1616 -0.4092
39722SOL    HW121173   9.485   1.293   9.524 -4.2402  0.8694 -2.0545
39722SOL    HW221174   9.407   1.318   9.652 -0.8550  2.4919 -0.1706
39723SOL     OW21175   5.857   5.398   9.130  1.0608  0.3202 -0.7811
39723SOL    HW121176   5.929   5.423   9.188  0.1552 -0.4489  0.7526
39723SOL    HW221177   5.809   5.480   9.115  2.0681  0.7812 -1.5778
39724SOL     OW21178   4.237  10.094   8.449 -0.8560  0.7517  0.0410
39724SOL    HW121179   4.145  10.078   8.469 -0.7137 -1.2251 -0.6647
39724SOL    HW221180   4.277  10.008   8.453  0.5737  1.2920 -1.6558
39725SOL     OW21181  10.778   2.317   9.905 -0.2365  0.3268 -0.2339
39725SOL    HW121182  10.687   2.337   9.927 -0.4195  1.1393 -1.6096
39725SOL    HW221183  10.773   2.274   9.819  0.7692  2.2224 -1.3072
39726SOL     OW21184   7.556  10.517   2.122 -0.6667 -0.1876  0.1313
39726SOL    HW121185   7.620  10.469   2.069 -1.5845 -1.6674  0.3137
39726SOL    HW221186   7.568  10.483   2.211 -0.7015  0.6213  0.4561
39727SOL     OW21187   8.577   1.533   8.148 -0.2706 -0.4866 -0.3310
39727SOL    HW121188   8.672   1.547   8.146  0.1743 -2.8166  1.0220
39727SOL    HW221189   8.546   1.569   8.064  1.8458 -0.1000 -1.0115
39728SOL     OW21190   3.925   4.612   7.129  0.0391 -0.0254  0.4107
39728SOL    HW121191   4.002   4.605   7.073  0.9894  0.7098  1.5696
39728SOL    HW221192   3.856   4.565   7.081  1.6839 -2.4525  0.2494
39729SOL     OW21193   5.850   1.029   3.621 -1.1054  0.3127  0.2592
39729SOL    HW121194   5.859   1.085   3.544 -0.8589  0.5068  0.4275
39729SOL    HW221195   5.898   1.075   3.690  1.5589 -1.3947 -0.2691
39730SOL     OW21196  10.687   2.024   5.236 -0.5014  0.1192  0.2244
39730SOL    HW121197  10.687   1.972   5.156 -0.6736 -0.4381  0.5837
39730SOL    HW221198  10.763   2.082   5.226 -1.4625  1.2424 -1.0894
39731SOL     OW21199   0.943   3.230   0.553 -0.3425 -0.4034  0.0621
39731SOL    HW121200   0.849   3.227   0.535 -0.0836  1.2530 -1.9198
39731SOL    HW221201   0.950   3.283   0.633 -1.2075 -3.4245  2.3281
39732SOL     OW21202   4.106  10.347  10.601 -0.4316 -0.0198 -0.4239
39732SOL    HW121203   4.199  10.323  10.607 -0.1278  0.6096 -2.1255
39732SOL    HW221204   4.102  10.408  10.527 -2.1826  0.0797 -0.2724
39733SOL     OW21205   2.239   3.702   4.880  0.5878  0.6321  0.3753
39733SOL    HW121206   2.228   3.633   4.946 -1.5035  1.7711  1.3006
39733SOL    HW221207   2.332   3.699   4.859  0.8184 -1.5823  1.3537
39734SOL     OW21208   5.975   3.495   8.596  0.2220 -0.7124 -0.2824
39734SOL    HW121209   5.898   3.536   8.635  0.8326  0.4311 -0.2370
39734SOL    HW221210   5.967   3.402   8.620 -1.4592 -0.7523 -0.8245
39735SOL     OW21211   1.735   9.250   2.973 -0.3286  0.6132  0.2965
39735SOL    HW121212   1.759   9.334   3.013  3.8190 -0.1705 -0.0911
39735SOL    HW221213   1.761   9.185   3.039  1.6657 -0.4862 -1.4751
39736SOL     OW21214   8.980   3.040   9.884  0.7067 -0.4875  0.7200
39736SOL    HW121215   8.939   3.113   9.838  1.1437 -0.1985  0.7868
39736SOL    HW221216   9.017   3.079   9.963  0.3826 -0.8939  1.0747
39737SOL     OW21217   9.149   8.262   0.416  0.4165  0.3427  0.8078
39737SOL    HW121218   9.202   8.216   0.482 -2.4790 -1.1226  2.2746
39737SOL    HW221219   9.092   8.319   0.467 -0.5773  0.6198 -0.5702
39738SOL     OW21220   9.448   1.398   4.897 -0.1312  0.4207 -0.5104
39738SOL    HW121221   9.360   1.434   4.881 -1.1622 -1.3075  0.8974
39738SOL    HW221222   9.480   1.446   4.973 -0.8894 -0.5555  0.4528
39739SOL     OW21223   2.390   7.087  10.375  0.2167 -0.0806  0.1327
39739SOL    HW121224   2.351   7.006  10.410 -0.7474  0.3949  0.1725
39739SOL    HW221225   2.367   7.086  10.282  0.1230  0.1868  0.1518
39740SOL     OW21226   6.349   9.811  10.639 -0.3651  0.1163  0.1061
39740SOL    HW121227   6.397   9.832  10.559 -0.6600 -0.5620 -0.2570
39740SOL    HW221228   6.351   9.892  10.690 -0.1005  0.5323 -0.5481
39741SOL     OW21229   1.009  11.243   9.595 -0.4931 -0.2749 -0.4180
39741SOL    HW121230   0.952  11.319   9.585 -1.1125 -0.8161 -1.1485
39741SOL    HW221231   1.097  11.276   9.579 -0.3865  0.8579  2.0177
39742SOL     OW21232   6.429   6.490   4.505 -0.5751 -0.3502  0.3647
39742SOL    HW121233   6.520   6.506   4.482 -0.7977  0.0276 -0.2896
39742SOL    HW221234   6.402   6.567   4.554 -0.4584 -0.6025  0.8340
39743SOL     OW21235   3.412   2.454   6.695  0.0534 -0.7215  0.2542
39743SOL    HW121236   3.471   2.380   6.680  0.7939 -0.7143  2.6109
39743SOL    HW221237   3.467   2.531   6.692 -0.4755 -0.3736 -0.8612
39744SOL     OW21238   0.989   1.372   3.604 -0.1285  0.3032 -0.1018
39744SOL    HW121239   0.964   1.450   3.655 -0.7452  0.6591 -0.9301
39744SOL    HW221240   1.077   1.393   3.572  0.6007 -0.2584  1.4516
39745SOL     OW21241   2.000   0.419   1.485  0.8195  0.1232  0.5349
39745SOL    HW121242   2.035   0.488   1.541  0.0577  0.9895 -0.0204
39745SOL    HW221243   1.907   0.438   1.478  1.0973  0.9713 -2.2041
39746SOL     OW21244   1.184  10.737   0.291  0.1361 -0.3333 -0.0369
39746SOL    HW121245   1.256  10.712   0.233 -0.0277  0.0511 -0.4149
39746SOL    HW221246   1.181  10.668   0.357 -0.1637 -1.1834 -0.9202
39747SOL     OW21247   2.502  10.767   0.529  0.5531 -0.3155 -0.1291
39747SOL    HW121248   2.521  10.820   0.606  0.3635  0.0711 -0.3444
39747SOL    HW221249   2.538  10.680   0.549 -0.1786 -0.4382  0.6978
39748SOL     OW21250   4.828   6.166   8.525 -0.1464 -0.6961  0.1655
39748SOL    HW121251   4.859   6.166   8.616  2.3654  0.9770 -0.6198
39748SOL    HW221252   4.845   6.077   8.494  1.3378 -0.5875  0.6072
39749SOL     OW21253   2.560   7.889   0.061  0.0114 -1.2212 -0.5036
39749SOL    HW121254   2.612   7.927   0.133  3.1200 -1.8631 -2.2276
39749SOL    HW221255   2.517   7.813   0.100  1.6422 -1.5769  0.7034
39750SOL     OW21256  11.026   8.432   7.387  0.1203  0.0654  0.1803
39750SOL    HW121257  10.989   8.381   7.315 -2.4132  0.9072  0.8179
39750SOL    HW221258  11.096   8.376   7.421 -1.0100 -1.9532 -0.6408
39751SOL     OW21259   5.055   1.786   5.360  0.4368 -0.0114 -0.4076
39751SOL    HW121260   5.116   1.830   5.301  0.9079 -1.0490 -0.7311
39751SOL    HW221261   4.979   1.766   5.306 -0.6324  2.0837  0.2143
39752SOL     OW21262   5.891   2.925   7.508 -0.6687  0.1535 -0.6304
39752SOL    HW121263   5.843   2.910   7.590 -0.0920  1.9185  0.0766
39752SOL    HW221264   5.975   2.962   7.536 -0.2539  0.3060 -2.0041
39753SOL     OW21265   5.600   2.400   6.395 -0.0950  0.8330  0.3178
39753SOL    HW121266   5.606   2.467   6.326  2.8122  3.6950  3.0143
39753SOL    HW221267   5.524   2.426   6.447  1.5210  2.8425  1.8715
39754SOL     OW21268  10.877   8.273  11.102 -0.7517  0.1182 -0.1446
39754SOL    HW121269  10.944   8.264  11.034  2.4566  1.5622  2.5388
39754SOL    HW221270  10.826   8.193  11.096  1.7298 -1.4922 -1.8769
39755SOL     OW21271   0.273  10.353   6.488 -0.8246 -0.2164 -0.7457
39755SOL    HW121272   0.282  10.446   6.467 -0.8490 -0.4055 -1.6562
39755SOL    HW221273   0.236  10.314   6.409 -0.1376 -1.1253 -0.6461
39756SOL     OW21274   5.941   8.602   0.135 -0.2169  0.4720 -0.6257
39756SOL    HW121275   6.004   8.625   0.067 -0.1557 -0.4653 -0.8941
39756SOL    HW221276   5.986   8.539   0.190 -0.3094  1.1373  0.2348
39757SOL     OW21277   4.313   1.732   9.886  0.3045  0.2480  0.2934
39757SOL    HW121278   4.231   1.736   9.935 -0.1325 -0.6457 -0.3396
39757SOL    HW221279   4.304   1.797   9.817 -1.4485 -2.2544 -2.0532
39758SOL     OW21280   4.891   0.134   9.310 -0.2968  0.4601 -0.0314
39758SOL    HW121281   4.891   0.121   9.216  2.2345  0.1104 -0.0281
39758SOL    HW221282   4.856   0.052   9.346 -2.9225  1.2131 -0.6328
39759SOL     OW21283   0.035  10.696   3.993  0.5965 -0.2729 -0.4382
39759SOL    HW121284   0.129  10.682   3.981  0.5390  0.6093 -2.1554
39759SOL    HW221285   0.029  10.758   4.066  1.3767 -0.1054 -0.5112
39760SOL     OW21286   6.382   0.364   8.090 -1.2329  0.0566 -0.4581
39760SOL    HW121287   6.441   0.439   8.082  0.7881 -1.1346  1.7473
39760SOL    HW221288   6.407   0.307   8.017 -3.1396  1.6080 -2.4664
39761SOL     OW21289   5.090   6.456  10.389 -0.0573  0.4606  0.6685
39761SOL    HW121290   5.043   6.529  10.347  0.0181 -0.5483 -1.2756
39761SOL    HW221291   5.038   6.437  10.467 -1.5138  0.9796 -0.1252
39762SOL     OW21292   6.711   7.857   1.874  0.3829 -0.6042 -0.1182
39762SOL    HW121293   6.806   7.843   1.864  0.3497 -0.8367 -0.1005
39762SOL    HW221294   6.691   7.825   1.962  0.1482 -1.2984 -0.4132
39763SOL     OW21295   5.117   7.963   7.309  0.6901  0.1050  0.4506
39763SOL    HW121296   5.120   7.977   7.404  1.0456  0.3123  0.4080
39763SOL    HW221297   5.144   7.872   7.297  2.7414  0.6918  0.3929
39764SOL     OW21298   9.004   8.055  10.845  0.1218  0.8974 -0.2221
39764SOL    HW121299   9.095   8.078  10.858 -0.0336  0.9765  0.7500
39764SOL    HW221300   9.004   8.002  10.765  0.8142  2.0839 -1.0373
39765SOL     OW21301   9.200   1.225   8.623  0.1816  0.2409 -0.4948
39765SOL    HW121302   9.263   1.260   8.560  0.3511 -1.2243 -1.1703
39765SOL    HW221303   9.186   1.297   8.684  2.2511  0.7331 -0.5141
39766SOL     OW21304  10.190   7.374   3.368 -0.6975 -0.5653  0.4976
39766SOL    HW121305  10.273   7.372   3.320 -0.9129 -3.2881  0.0630
39766SOL    HW221306  10.216   7.385   3.460  0.4422 -3.7538  0.6744
39767SOL     OW21307   4.784  10.276   2.798 -0.1660 -0.6488 -0.8044
39767SOL    HW121308   4.810  10.363   2.828 -0.2845 -0.6601 -0.6680
39767SOL    HW221309   4.714  10.250   2.858 -0.6247 -0.5395 -1.2862
39768SOL     OW21310   2.779   7.865   8.314 -0.3785  0.3696  0.3923
39768SOL    HW121311   2.842   7.935   8.296 -0.5002  0.4795  0.3957
39768SOL    HW221312   2.770   7.820   8.230 -1.0215  0.9457  0.1466
39769SOL     OW21313   5.302   2.239   7.978  0.2633  0.1253 -0.3532
39769SOL    HW121314   5.263   2.179   8.041  1.8340 -1.4392 -0.7978
39769SOL    HW221315   5.394   2.214   7.975  0.8163  2.0808 -1.1398
39770SOL     OW21316   7.666   1.284   3.425 -0.0142 -0.4493  0.8861
39770SOL    HW121317   7.677   1.245   3.338  0.9152 -0.5008  1.0192
39770SOL    HW221318   7.629   1.371   3.408  1.1184 -0.0515  0.3604
39771SOL     OW21319   0.040   4.896   0.311  0.1993 -0.0583  0.5247
39771SOL    HW121320   0.098   4.820   0.301 -1.3118 -1.2167  0.1130
39771SOL    HW221321  -0.048   4.858   0.311 -0.7347  1.8479 -1.7120
39772SOL     OW21322   9.424   7.421   7.155 -0.4596  0.1722  0.6418
39772SOL    HW121323   9.364   7.367   7.105 -0.7049 -0.1627  1.2792
39772SOL    HW221324   9.370   7.460   7.224 -0.3806  1.6084 -0.0745
39773SOL     OW21325   5.938   9.999   7.573  0.4346  0.2492 -0.1279
39773SOL    HW121326   6.001   9.943   7.528  1.1295  0.0394  1.0721
39773SOL    HW221327   5.869  10.014   7.508  1.6289  0.3625 -1.4248
39774SOL     OW21328   7.121   0.070   3.305  0.3799  0.7501  0.1924
39774SOL    HW121329   7.179   0.054   3.230 -0.2507 -0.2507 -0.0929
39774SOL    HW221330   7.097  -0.017   3.336 -3.6826  0.9168 -1.7869
39775SOL     OW21331   0.021   6.170   8.348  0.2100  0.5673  0.1737
39775SOL    HW121332  -0.071   6.144   8.358  1.0818 -2.5081  1.1833
39775SOL    HW221333   0.023   6.216   8.264 -2.2231  0.5941  0.0512
39776SOL     OW21334   2.582   6.687   6.136 -0.4708  0.3014 -0.1195
39776SOL    HW121335   2.489   6.712   6.130 -0.6227  0.1021  1.0768
39776SOL    HW221336   2.599   6.685   6.230  0.2268 -1.5905 -0.2533
39777SOL     OW21337  11.203   3.550   4.164  0.3682  0.3901 -0.3784
39777SOL    HW121338  11.208   3.534   4.070  0.0252  1.8638 -0.6795
39777SOL    HW221339  11.225   3.466   4.204  1.3254 -0.0581 -1.7587
39778SOL     OW21340   8.769   0.719   9.413  0.3423  0.1334  0.8470
39778SOL    HW121341   8.679   0.685   9.416 -0.8007  2.7780 -0.6122
39778SOL    HW221342   8.801   0.696   9.326  0.2552  1.0575  0.5589
39779SOL     OW21343   3.491   7.238   2.777  0.0136 -0.1922  0.3133
39779SOL    HW121344   3.502   7.333   2.767  1.1338 -0.4263 -1.0465
39779SOL    HW221345   3.568   7.200   2.734  0.9978 -1.6894  3.1447
39780SOL     OW21346   0.547   5.665   1.948 -0.3947  0.5705 -0.6555
39780SOL    HW121347   0.589   5.684   1.864 -0.6520 -1.4453 -1.2972
39780SOL    HW221348   0.517   5.574   1.940  2.5076 -0.9414  2.7988
39781SOL     OW21349  10.722   7.003   7.956 -0.6059  0.1932  0.0348
39781SOL    HW121350  10.799   6.965   7.914 -0.6990 -2.1270  1.7523
39781SOL    HW221351  10.678   7.052   7.886  1.9659  0.9412 -1.1762
39782SOL     OW21352   8.246   8.773  10.694  0.4486 -0.4277  0.2513
39782SOL    HW121353   8.242   8.826  10.773 -1.1033  0.4531 -0.3818
39782SOL    HW221354   8.172   8.714  10.700 -0.4031  0.4486 -1.0606
39783SOL     OW21355   6.767   5.462  10.657 -0.0151  0.2302 -0.3866
39783SOL    HW121356   6.774   5.375  10.616 -0.4252 -0.5983  1.2257
39783SOL    HW221357   6.720   5.446  10.739 -0.8509  2.1195 -0.4526
39784SOL     OW21358   7.333   4.443   1.172 -0.5886  0.2713 -0.8180
39784SOL    HW121359   7.348   4.349   1.179 -0.6413  0.3425  0.8794
39784SOL    HW221360   7.240   4.454   1.192 -0.5381  0.6883 -0.8026
39785SOL     OW21361   3.340  10.998   7.774 -0.4163 -0.4953  0.2231
39785SOL    HW121362   3.360  11.054   7.699 -0.3629 -0.1857  0.4616
39785SOL    HW221363   3.245  10.985   7.770 -0.7505  1.2652  1.2685
39786SOL     OW21364   5.904   3.191   1.305  0.4591 -0.2542 -0.0304
39786SOL    HW121365   5.987   3.239   1.302  1.6285 -2.1502 -2.3276
39786SOL    HW221366   5.917   3.125   1.373 -0.0331  0.7951  1.1058
39787SOL     OW21367   4.901   3.062   6.387 -0.5566  0.7239 -0.2233
39787SOL    HW121368   4.911   3.063   6.483  0.0852 -0.4113 -0.2603
39787SOL    HW221369   4.821   3.012   6.372 -1.0023  1.4461 -0.2620
39788SOL     OW21370  11.114   0.746   4.739  0.5840 -0.4410 -0.6367
39788SOL    HW121371  11.202   0.720   4.709  0.5264 -1.6776  0.1911
39788SOL    HW221372  11.126   0.833   4.775  1.2893 -0.2362 -1.3262
39789SOL     OW21373   0.432   1.060   3.936 -0.2995  0.4355 -0.2418
39789SOL    HW121374   0.359   1.066   3.874  0.1248  0.0702 -0.7881
39789SOL    HW221375   0.449   0.966   3.943  1.0381  0.5715 -1.2361
39790SOL     OW21376   8.195  10.015   0.697  0.4584  0.4261 -0.3484
39790SOL    HW121377   8.196  10.097   0.647  1.8764  0.1021 -0.9145
39790SOL    HW221378   8.159   9.951   0.636  0.6035  0.3630 -0.3671
39791SOL     OW21379  11.242   6.726   0.202 -0.4034  0.4376 -1.0241
39791SOL    HW121380  11.279   6.720   0.113 -0.2180 -1.2701 -0.8701
39791SOL    HW221381  11.178   6.654   0.206  0.1254  0.0112  0.4512
39792SOL     OW21382   3.547  10.491   6.441  0.9745 -0.0461 -0.1942
39792SOL    HW121383   3.615  10.559   6.435 -0.3220  1.2087 -1.2374
39792SOL    HW221384   3.539  10.457   6.352 -0.5907  0.6818 -0.3648
39793SOL     OW21385   8.089   0.067   0.220  0.4100 -0.2205  0.2416
39793SOL    HW121386   8.110   0.092   0.310 -2.2112  1.2511  0.5447
39793SOL    HW221387   8.172   0.034   0.185  1.7329 -0.0482  2.8964
39794SOL     OW21388   0.728   7.655   7.735 -0.8435 -0.3136 -0.2095
39794SOL    HW121389   0.732   7.564   7.704 -1.0413 -1.2273  2.2830
39794SOL    HW221390   0.813   7.692   7.709 -0.1980 -1.6255 -0.0828
39795SOL     OW21391   1.931  10.363   4.073 -0.4251 -0.1625 -0.5836
39795SOL    HW121392   1.960  10.305   4.143 -0.1627 -0.6203 -1.0598
39795SOL    HW221393   2.011  10.398   4.035 -0.5941  0.8666 -0.0206
39796SOL     OW21394   7.961   3.604   4.526 -0.2210 -0.8751 -0.1953
39796SOL    HW121395   8.043   3.574   4.566  0.9745 -0.0878 -1.9661
39796SOL    HW221396   7.901   3.530   4.538 -0.2538 -0.4663  3.6340
39797SOL     OW21397   4.014   9.806   3.090  0.1580  0.0554 -0.3324
39797SOL    HW121398   4.102   9.782   3.060  0.3407  0.7414 -0.3541
39797SOL    HW221399   3.956   9.746   3.042  0.6259 -0.6356 -0.0617
39798SOL     OW21400   7.969   0.431   2.134 -0.4186 -0.7410 -0.1207
39798SOL    HW121401   7.973   0.389   2.220 -2.8800 -0.5782  0.1477
39798SOL    HW221402   7.930   0.517   2.151 -0.5782 -0.5523 -1.3479
39799SOL     OW21403   9.086   0.899   9.014 -0.3089 -0.4796 -0.4613
39799SOL    HW121404   9.113   0.837   9.083  0.0021 -0.2284 -0.3558
39799SOL    HW221405   9.073   0.844   8.937  0.9913 -0.5614 -0.6523
39800SOL     OW21406   5.588   4.434   1.864 -0.0351 -0.1956  0.0063
39800SOL    HW121407   5.570   4.460   1.773  1.1272  0.2027 -0.1161
39800SOL    HW221408   5.643   4.504   1.899 -0.8199 -0.1336  1.1686
39801SOL     OW21409  10.531   4.488   5.602 -0.1569 -0.2945  0.5378
39801SOL    HW121410  10.626   4.485   5.590 -0.3283  0.5311 -1.4333
39801SOL    HW221411  10.515   4.431   5.677  1.7815 -1.5314  0.1093
39802SOL     OW21412   7.447   4.225   9.254  0.8706 -0.1531 -0.6941
39802SOL    HW121413   7.504   4.148   9.259 -0.0599 -0.7793  0.5759
39802SOL    HW221414   7.382   4.204   9.187  1.2834  0.0069 -1.1552
39803SOL     OW21415   9.844   3.056   3.227  0.0815  0.0348  0.0526
39803SOL    HW121416   9.752   3.065   3.205 -0.0874  0.0869  0.7714
39803SOL    HW221417   9.859   2.961   3.233  0.0429  0.0309  0.0822
39804SOL     OW21418   2.324   9.319   0.728 -0.4783 -0.3025 -0.0770
39804SOL    HW121419   2.291   9.329   0.639  1.7170 -3.6996 -1.5080
39804SOL    HW221420   2.289   9.235   0.757  1.3716 -0.7780  0.9578
39805SOL     OW21421   1.487   6.842   2.580  0.2001 -0.1260 -0.2599
39805SOL    HW121422   1.409   6.893   2.599  1.6373  1.2866  2.4826
39805SOL    HW221423   1.531   6.890   2.509 -0.2206  0.4532 -0.1327
39806SOL     OW21424   5.801   5.025  11.260  0.5905  0.1574 -0.1761
39806SOL    HW121425   5.722   5.069  11.289  0.7820  0.0591  0.5202
39806SOL    HW221426   5.848   5.004  11.341  1.6223  0.7554 -0.6071
39807SOL     OW21427   4.232   4.947  10.912  0.0685 -0.1320  0.1302
39807SOL    HW121428   4.137   4.943  10.911 -0.0854  2.2152 -0.6178
39807SOL    HW221429   4.257   4.956  10.820  0.6745  3.3040  0.5075
39808SOL     OW21430   1.014   7.621   2.681  0.5941  0.3093 -0.3040
39808SOL    HW121431   1.066   7.594   2.605  0.7091 -0.1105 -0.0762
39808SOL    HW221432   0.966   7.543   2.708  1.4445  0.1334  0.7681
39809SOL     OW21433   1.591   5.516   0.443 -0.9426  0.7939 -0.2288
39809SOL    HW121434   1.619   5.603   0.413  0.0733  1.1844  1.6393
39809SOL    HW221435   1.665   5.459   0.423 -1.1167  0.6237 -0.3817
39810SOL     OW21436   1.094  10.271   6.280  1.0530 -0.1556 -0.4441
39810SOL    HW121437   1.013  10.321   6.278  1.5744  0.6767 -1.2934
39810SOL    HW221438   1.145  10.310   6.350  0.6469 -0.8373  0.2567
39811SOL     OW21439   1.004   5.142  10.014 -0.7263  0.3400 -0.0859
39811SOL    HW121440   1.012   5.049  10.038 -0.8472 -0.2139 -2.0803
39811SOL    HW221441   0.959   5.142   9.930 -2.0201  2.3114  0.5399
39812SOL     OW21442   9.463   7.695   2.956  0.4630  0.4735 -0.3966
39812SOL    HW121443   9.438   7.762   3.019  0.8623 -0.0200  0.3050
39812SOL    HW221444   9.551   7.669   2.984 -0.5750 -2.0028  0.7914
39813SOL     OW21445  10.536   9.985   6.218 -0.0030  0.4669 -0.5840
39813SOL    HW121446  10.507   9.933   6.143 -0.3153  1.1600 -0.9535
39813SOL    HW221447  10.537   9.923   6.291  1.0826 -0.4272 -1.3029
39814SOL     OW21448   2.989   8.583   2.599  0.3047 -0.2643  0.8895
39814SOL    HW121449   2.936   8.518   2.646 -0.6063 -1.0859 -1.1488
39814SOL    HW221450   2.945   8.593   2.515 -0.4209  4.1090  1.5743
39815SOL     OW21451   3.208   3.993   2.440 -0.0345 -0.3269  0.0291
39815SOL    HW121452   3.179   4.070   2.391  0.5035  0.1685  0.4698
39815SOL    HW221453   3.129   3.963   2.486 -1.2275 -2.3703 -3.0837
39816SOL     OW21454   1.560   5.407   3.745 -0.3170 -0.0648  0.5872
39816SOL    HW121455   1.471   5.374   3.749  0.4599 -2.4381 -0.1761
39816SOL    HW221456   1.564   5.458   3.664 -0.3899 -2.0718 -0.7546
39817SOL     OW21457  10.066   0.254   4.336  0.2428  0.2847 -0.2615
39817SOL    HW121458  10.045   0.165   4.366 -2.6855  0.4651 -1.4375
39817SOL    HW221459  10.085   0.302   4.417  3.1733 -1.5703  0.3366
39818SOL     OW21460  10.706   9.241   8.534 -0.1219 -0.5721 -0.2553
39818SOL    HW121461  10.662   9.274   8.456 -2.9901 -2.7194  0.2818
39818SOL    HW221462  10.718   9.318   8.589 -1.1982  0.4745 -1.4141
39819SOL     OW21463   1.523   3.674  10.773  0.2767  0.6177 -0.2445
39819SOL    HW121464   1.591   3.738  10.795  0.5905  0.3631 -0.4649
39819SOL    HW221465   1.553   3.592  10.813 -0.1497  0.6169  0.0856
39820SOL     OW21466  10.532   7.216   6.089 -0.4068 -0.6010 -0.2490
39820SOL    HW121467  10.444   7.250   6.107 -0.0721 -0.6393  1.7003
39820SOL    HW221468  10.553   7.249   6.002 -1.6025  1.0124  0.0209
39821SOL     OW21469   1.386   1.966   7.671 -0.6961  0.0021  0.0254
39821SOL    HW121470   1.379   1.916   7.753 -3.5265  0.2578  0.0441
39821SOL    HW221471   1.349   2.052   7.692  0.1179  0.6498 -1.1071
39822SOL     OW21472   1.334   7.957   8.680 -0.4886  0.5415  0.2155
39822SOL    HW121473   1.324   8.034   8.624  0.0096  1.3897  1.2429
39822SOL    HW221474   1.420   7.969   8.722 -1.6597  1.0144  2.6769
39823SOL     OW21475   4.210   2.975   2.967  0.0040  0.1798  0.6472
39823SOL    HW121476   4.266   2.945   3.038  0.4014  0.9098  0.6454
39823SOL    HW221477   4.122   2.946   2.993 -0.0405  1.4075  2.0074
39824SOL     OW21478   2.590   8.911   3.169 -0.2117  0.5281 -0.3768
39824SOL    HW121479   2.558   8.823   3.186  0.8228 -0.0084 -1.0868
39824SOL    HW221480   2.673   8.917   3.218 -0.4271  1.2145 -0.0837
39825SOL     OW21481   4.068   0.055   6.873  0.1176 -0.4857 -0.7261
39825SOL    HW121482   4.099   0.145   6.880 -0.8444 -0.1022 -1.1873
39825SOL    HW221483   4.031   0.034   6.959 -1.4431  0.2691 -1.1739
39826SOL     OW21484   7.527   9.106   9.499  0.3698  0.4149 -0.1622
39826SOL    HW121485   7.602   9.046   9.498 -0.2657 -0.3957 -0.6731
39826SOL    HW221486   7.565   9.192   9.480  1.0152 -0.1799 -1.7403
39827SOL     OW21487   7.345   9.850   0.807  0.2011 -0.3910  0.4145
39827SOL    HW121488   7.289   9.774   0.826 -0.9147  0.2026 -0.4045
39827SOL    HW221489   7.431   9.824   0.840 -0.6955 -1.0383  2.3763
39828SOL     OW21490   0.455   2.799   1.693 -0.6214 -0.4916 -0.3546
39828SOL    HW121491   0.452   2.852   1.772 -0.1224 -1.1639  0.1244
39828SOL    HW221492   0.363   2.780   1.673 -0.7915  0.3918 -0.4331
39829SOL     OW21493   7.656   1.413   4.077  0.3774  0.2219  0.1665
39829SOL    HW121494   7.721   1.352   4.113  0.3732  0.2192  0.1701
39829SOL    HW221495   7.572   1.379   4.107  0.2835 -0.4148 -0.7486
39830SOL     OW21496  10.405   5.035   2.663 -0.0995 -0.1446 -0.0931
39830SOL    HW121497  10.388   5.107   2.603  0.1540  0.7054  0.8284
39830SOL    HW221498  10.498   5.043   2.684 -0.2435 -0.2728  0.6144
39831SOL     OW21499   0.307   1.036   6.965  0.4419 -0.3819 -0.7874
39831SOL    HW121500   0.249   1.096   7.012 -1.0057 -2.2415 -0.0942
39831SOL    HW221501   0.297   1.060   6.873  1.2776  1.5696 -0.4250
39832SOL     OW21502   0.659   7.003   3.318  0.0660  0.2236  0.1892
39832SOL    HW121503   0.636   7.096   3.323 -1.7206 -0.2192  1.5424
39832SOL    HW221504   0.747   7.001   3.280  0.1856  2.4637  0.2410
39833SOL     OW21505   4.677  11.020   3.472 -0.3045  0.1097  0.3812
39833SOL    HW121506   4.598  11.044   3.520 -2.0045  0.4332 -2.3421
39833SOL    HW221507   4.717  11.104   3.448 -0.1709 -0.0063  0.1968
39834SOL     OW21508   1.387   4.868   7.552 -0.5428 -0.4091  0.2008
39834SOL    HW121509   1.380   4.891   7.645  1.1764 -0.4195  0.3596
39834SOL    HW221510   1.300   4.837   7.529 -2.1517  3.1274  0.8146
39835SOL     OW21511   3.282   3.236   2.605 -0.2320  0.4944 -0.4930
39835SOL    HW121512   3.367   3.277   2.590  1.6303 -1.4684  3.1950
39835SOL    HW221513   3.225   3.307   2.633  0.3452  1.7201 -2.2788
39836SOL     OW21514   4.501   6.603   1.739  0.5044  0.7502  0.0429
39836SOL    HW121515   4.420   6.583   1.692  0.4650  0.0446  0.3856
39836SOL    HW221516   4.478   6.592   1.831  0.4094  2.7471  0.2892
39837SOL     OW21517  10.770   1.172   4.156 -0.3134  0.5339  0.3994
39837SOL    HW121518  10.732   1.094   4.116 -0.1676  0.7674 -0.1957
39837SOL    HW221519  10.836   1.138   4.217 -0.5520  0.1809  0.4611
39838SOL     OW21520   5.110   5.501   0.561 -0.1482 -0.6250  0.0782
39838SOL    HW121521   5.159   5.476   0.639  0.0110 -0.3016  0.0834
39838SOL    HW221522   5.125   5.595   0.552 -0.9798 -0.4693  0.2273
39839SOL     OW21523   6.546   1.631   1.722 -0.1623  0.7391  0.2896
39839SOL    HW121524   6.548   1.541   1.692  0.6917 -0.2606  3.0031
39839SOL    HW221525   6.619   1.673   1.677  1.0388 -0.6585  0.8346
39840SOL     OW21526   2.864   5.835   0.581 -0.3289 -0.0090 -0.3737
39840SOL    HW121527   2.889   5.905   0.641 -3.4869  1.1222 -0.1924
39840SOL    HW221528   2.769   5.829   0.589 -0.4243 -2.7744 -2.1251
39841SOL     OW21529   1.919   4.422   1.547  0.6643  0.4361 -0.0190
39841SOL    HW121530   1.915   4.517   1.535  0.8410  0.5511  0.7829
39841SOL    HW221531   1.851   4.403   1.612 -0.8935 -0.2853 -1.7497
39842SOL     OW21532  10.343  10.761   2.513  0.8238  0.1309  0.7307
39842SOL    HW121533  10.261  10.804   2.489  1.5304  0.3060 -1.6278
39842SOL    HW221534  10.407  10.833   2.521  0.6956  0.0585  3.1233
39843SOL     OW21535   2.883  10.829   6.763 -0.1683  0.3228 -1.1294
39843SOL    HW121536   2.881  10.805   6.856 -1.9304  0.9904 -0.9473
39843SOL    HW221537   2.865  10.748   6.717 -3.0842  0.5766 -0.6577
39844SOL     OW21538   4.784  10.965   0.607  0.0895  0.3188 -0.6924
39844SOL    HW121539   4.863  11.012   0.581 -0.1170  0.7141 -0.6105
39844SOL    HW221540   4.734  11.029   0.658 -0.6721  0.3411 -1.4388
39845SOL     OW21541   2.695   2.335   6.382 -0.2379 -0.4394 -0.4541
39845SOL    HW121542   2.688   2.295   6.469  0.5597 -0.1557 -0.2416
39845SOL    HW221543   2.605   2.351   6.355 -0.5539 -1.7711 -0.2735
39846SOL     OW21544   3.001   6.662   7.393  0.5200  0.2903  0.1058
39846SOL    HW121545   2.920   6.681   7.347 -0.2247  1.4167  1.7400
39846SOL    HW221546   2.974   6.645   7.484  2.0053 -0.5234  0.4393
39847SOL     OW21547   8.801   9.264   7.683 -0.1582 -0.4655 -0.4518
39847SOL    HW121548   8.764   9.185   7.643  0.1352 -1.9974  2.0279
39847SOL    HW221549   8.862   9.297   7.618 -1.1243 -1.6201 -2.0328
39848SOL     OW21550   0.197   5.476   0.649 -0.0729 -0.2148 -0.1803
39848SOL    HW121551   0.118   5.445   0.604 -0.1567  0.5577 -0.5824
39848SOL    HW221552   0.269   5.445   0.594 -0.1044 -0.6744  0.0335
39849SOL     OW21553   8.503   2.928   9.558 -0.0947 -0.4746  0.8576
39849SOL    HW121554   8.536   2.839   9.545  2.3592  0.6566 -1.6677
39849SOL    HW221555   8.434   2.938   9.492  3.1677  0.9477 -2.7194
39850SOL     OW21556   2.772   0.817   7.543  0.5312 -0.0821 -0.5219
39850SOL    HW121557   2.780   0.744   7.481 -0.1159  0.0333 -0.7528
39850SOL    HW221558   2.857   0.861   7.540  0.5209 -0.1037 -1.3061
39851SOL     OW21559   3.161   8.978   4.266  0.3435  0.4537 -0.0366
39851SOL    HW121560   3.248   8.939   4.275  0.4302  0.7245  0.2973
39851SOL    HW221561   3.105   8.905   4.237  0.4364 -0.0008  0.8921
39852SOL     OW21562   8.176   1.840   1.130 -0.7130  0.0681  0.5328
39852SOL    HW121563   8.166   1.884   1.046 -1.2127  1.0797  1.1090
39852SOL    HW221564   8.216   1.905   1.188  0.5979 -0.9386  0.8255
39853SOL     OW21565   5.427  10.357   7.190 -0.2784  0.3078 -0.0007
39853SOL    HW121566   5.363  10.373   7.259 -0.1605  2.0130 -0.2380
39853SOL    HW221567   5.501  10.316   7.235 -1.6286 -2.0649  0.2107
39854SOL     OW21568   5.564   6.370   5.628  0.3067  0.4782  0.4473
39854SOL    HW121569   5.485   6.342   5.583  0.6209 -0.2271  0.3159
39854SOL    HW221570   5.541   6.367   5.721  0.2491  0.0269  0.4233
39855SOL     OW21571   6.251   4.536   4.196 -0.0530 -0.0129 -0.0538
39855SOL    HW121572   6.198   4.457   4.186  0.0134 -0.3471  1.9175
39855SOL    HW221573   6.200   4.592   4.254  0.9681  0.3777  0.4882
39856SOL     OW21574   4.008  10.992   3.297 -0.0009  0.2354  0.2652
39856SOL    HW121575   4.065  10.915   3.297 -0.4903 -0.1769  1.7401
39856SOL    HW221576   4.023  11.032   3.383  0.1288  1.7200 -0.4236
39857SOL     OW21577   2.279   3.954   1.784  0.2192 -0.1192  0.1963
39857SOL    HW121578   2.241   3.884   1.731  0.6565 -1.4206  1.5349
39857SOL    HW221579   2.210   3.976   1.847  0.3838  0.0641  0.3142
39858SOL     OW21580   7.565   2.667   5.926 -0.1892 -0.4092 -0.1880
39858SOL    HW121581   7.653   2.675   5.964 -0.3903 -1.4369  0.5416
39858SOL    HW221582   7.520   2.748   5.953  0.6955  0.3918 -1.0525
39859SOL     OW21583   3.657   6.295  10.517 -0.1373 -0.3485 -0.2024
39859SOL    HW121584   3.709   6.275  10.439  1.1483 -1.3099  0.8399
39859SOL    HW221585   3.678   6.224  10.578 -2.4325 -0.5868  0.4217
39860SOL     OW21586   5.059   5.608   1.145  0.0436  0.2117  0.5575
39860SOL    HW121587   5.028   5.671   1.210 -0.0934 -0.6177  1.3259
39860SOL    HW221588   5.115   5.548   1.194  0.9034  0.2480 -0.3341
39861SOL     OW21589   5.580   9.296   3.744 -0.1284  1.1435  0.2821
39861SOL    HW121590   5.487   9.303   3.767 -0.5538  1.4488 -1.3828
39861SOL    HW221591   5.624   9.357   3.804 -0.9876  1.0020  1.0892
39862SOL     OW21592   8.924   9.734   1.200 -0.1505  0.0625 -0.0930
39862SOL    HW121593   8.850   9.673   1.200  1.7554 -2.5478  2.7922
39862SOL    HW221594   8.888   9.816   1.166 -3.2966 -2.1383 -2.6250
39863SOL     OW21595   2.838   7.560   0.603 -0.1639 -0.0011  0.3837
39863SOL    HW121596   2.801   7.474   0.624 -1.7366  0.3778 -0.6611
39863SOL    HW221597   2.794   7.586   0.522  0.5678  1.6329  0.4695
39864SOL     OW21598  10.701   3.925   4.998  0.2177 -0.3327  0.0150
39864SOL    HW121599  10.669   3.934   5.088  1.3227 -2.1552  0.6375
39864SOL    HW221600  10.763   3.997   4.987  0.4825 -0.4121  0.9131
39865SOL     OW21601   6.770   1.823   8.931 -0.1941  0.1556  0.7349
39865SOL    HW121602   6.781   1.758   8.861  0.1636 -0.0644  0.9911
39865SOL    HW221603   6.848   1.812   8.986 -1.6372 -1.4358  2.6156
39866SOL     OW21604   2.984   2.694   1.221  0.7273  0.4522  0.3757
39866SOL    HW121605   2.983   2.681   1.126  2.4364 -1.4145  0.5424
39866SOL    HW221606   2.949   2.782   1.234  0.6777  0.8404 -1.9910
39867SOL     OW21607   6.971  10.752   5.640  0.4207  0.2323  0.7998
39867SOL    HW121608   7.032  10.822   5.619 -0.7153  0.7990 -0.8093
39867SOL    HW221609   7.015  10.702   5.708  2.4227  0.9539  0.1206
39868SOL     OW21610   3.982   8.996  10.568  0.5368  0.0362 -0.2366
39868SOL    HW121611   4.057   8.982  10.626  1.0345  1.6984 -0.4318
39868SOL    HW221612   4.014   9.059  10.504 -0.5982 -0.3466 -1.2054
39869SOL     OW21613  11.046   2.032   3.775  0.2497 -0.5486  0.1076
39869SOL    HW121614  11.113   2.058   3.711  1.5418 -1.7298  0.9072
39869SOL    HW221615  11.001   1.958   3.734 -1.5066  1.0346 -0.9720
39870SOL     OW21616   4.218   2.348   5.101  0.7767  0.2045 -0.1011
39870SOL    HW121617   4.130   2.382   5.082  0.2734 -0.9790  0.0600
39870SOL    HW221618   4.253   2.409   5.166  0.2969  0.9951 -0.5556
39871SOL     OW21619   8.827   1.447   1.603 -0.2777  0.5478 -0.0208
39871SOL    HW121620   8.816   1.525   1.549 -1.0514  1.3582  1.2420
39871SOL    HW221621   8.740   1.430   1.640 -0.1607 -0.9957 -0.3550
39872SOL     OW21622   1.667   0.758  11.253 -0.4288  0.1905  0.3734
39872SOL    HW121623   1.614   0.716  11.320  1.8243 -0.7809  1.6586
39872SOL    HW221624   1.679   0.690  11.186 -0.9049  0.4603  0.0072
39873SOL     OW21625   5.091   6.984   4.696  0.2694  0.0845  0.0149
39873SOL    HW121626   5.131   6.941   4.771  0.2344  0.7037  0.3964
39873SOL    HW221627   5.160   7.040   4.660  0.0084  0.5013  0.1551
39874SOL     OW21628   1.248  11.001   8.286  0.3049  0.6726  0.0889
39874SOL    HW121629   1.194  11.080   8.274 -0.7930 -0.3085 -1.7935
39874SOL    HW221630   1.221  10.967   8.371 -0.0459  1.6772  0.4045
39875SOL     OW21631   9.209   6.040   2.745 -0.4599 -0.9327  0.0242
39875SOL    HW121632   9.214   6.065   2.838 -0.6121 -3.0651  0.6509
39875SOL    HW221633   9.166   6.115   2.703  2.7076  1.6651  0.9709
39876SOL     OW21634   4.541  10.395   9.011 -0.4703 -0.4109  0.0020
39876SOL    HW121635   4.498  10.424   9.092  1.7190  1.1608  0.7118
39876SOL    HW221636   4.633  10.415   9.025  0.0504 -0.5200 -2.7318
39877SOL     OW21637  10.634   2.790   6.643  0.8600 -0.1357  0.5492
39877SOL    HW121638  10.594   2.779   6.729 -0.2096  1.3705  0.2814
39877SOL    HW221639  10.581   2.735   6.585 -2.8252  3.8323 -0.3191
39878SOL     OW21640  10.467   4.417   4.731  0.1814 -0.0693  0.9474
39878SOL    HW121641  10.451   4.416   4.825  0.0368 -2.5094  0.9622
39878SOL    HW221642  10.459   4.325   4.704 -2.0006  0.7727 -1.8234
39879SOL     OW21643   4.989   0.654   5.312  0.5816  0.3250  0.0384
39879SOL    HW121644   4.998   0.692   5.224 -0.1878  1.0604  0.2620
39879SOL    HW221645   5.079   0.644   5.343  0.8475  0.4347 -0.6745
39880SOL     OW21646   1.187   8.230   2.553 -0.4120  0.3436  0.0280
39880SOL    HW121647   1.126   8.277   2.495  0.4322  1.7387  0.2177
39880SOL    HW221648   1.203   8.147   2.509 -3.7702 -0.8702  0.7980
39881SOL     OW21649   4.555   7.972  10.023 -0.2585 -0.3249 -0.6373
39881SOL    HW121650   4.619   8.000   9.958 -0.9639  0.8203 -0.8716
39881SOL    HW221651   4.479   8.028  10.007 -1.4250 -1.8157 -0.5464
39882SOL     OW21652   0.103   4.063  11.077 -0.0823  0.4407  0.2935
39882SOL    HW121653   0.183   4.016  11.054 -2.2573 -2.6338 -1.7100
39882SOL    HW221654   0.114   4.149  11.037  1.7761 -0.2490 -0.8259
39883SOL     OW21655   7.236  10.932   4.510  0.6988  0.1419  0.5568
39883SOL    HW121656   7.299  10.994   4.547  0.4454 -0.5956  2.3089
39883SOL    HW221657   7.232  10.860   4.573 -1.2313 -0.2702  0.0489
39884SOL     OW21658   4.440   8.148   8.965 -0.4262  0.1192  0.2481
39884SOL    HW121659   4.403   8.091   8.897 -0.5965  0.8123 -0.2501
39884SOL    HW221660   4.407   8.235   8.944  0.2778  0.4973  0.6845
39885SOL     OW21661   5.727   4.501   4.590  0.1641  0.4338  0.3744
39885SOL    HW121662   5.805   4.467   4.635  2.5533  2.1728 -2.0493
39885SOL    HW221663   5.730   4.461   4.503 -1.3262  1.0136  0.0282
39886SOL     OW21664   3.839   7.719   3.145  0.3818  0.1257 -0.1648
39886SOL    HW121665   3.868   7.631   3.167  0.9648  0.1989 -0.6235
39886SOL    HW221666   3.744   7.711   3.136 -0.0853  0.3340  3.4206
39887SOL     OW21667   0.676   9.067   8.370 -0.2516 -0.4293 -0.5399
39887SOL    HW121668   0.757   9.073   8.319 -0.6642 -0.8569 -1.2666
39887SOL    HW221669   0.658   8.973   8.374  0.4994 -0.5271  1.5854
39888SOL     OW21670   9.225   7.963   1.893  0.2140  0.3586 -0.1248
39888SOL    HW121671   9.219   8.059   1.887 -1.4765  0.3056  0.0877
39888SOL    HW221672   9.141   7.932   1.859 -0.1873 -0.9317  1.8611
39889SOL     OW21673   9.141   2.554   5.990 -0.4324 -0.1394 -0.0334
39889SOL    HW121674   9.209   2.565   5.924  1.0912 -0.4531  1.4014
39889SOL    HW221675   9.061   2.540   5.940  0.1426  2.2390 -1.8268
39890SOL     OW21676   4.615   3.622   7.008 -0.2046 -0.4351  0.3528
39890SOL    HW121677   4.664   3.669   6.940  2.3795 -2.1029  0.8905
39890SOL    HW221678   4.626   3.530   6.984  1.2770 -1.1215  3.2345
39891SOL     OW21679   2.127   1.692   9.107 -0.0461 -0.1755 -0.3276
39891SOL    HW121680   2.218   1.700   9.079  0.5775  0.7840  1.7834
39891SOL    HW221681   2.076   1.717   9.029  1.4917 -0.1160 -1.3546
39892SOL     OW21682  10.802   9.931   2.821 -0.4718 -0.3062  0.5057
39892SOL    HW121683  10.835   9.842   2.835  2.3994  0.6627  0.6123
39892SOL    HW221684  10.742   9.922   2.747  0.6169 -2.1901 -0.2435
39893SOL     OW21685  10.294   6.174   7.930 -0.1402  0.0852 -0.3090
39893SOL    HW121686  10.385   6.158   7.905  0.1695 -1.5677  1.6363
39893SOL    HW221687  10.294   6.264   7.965  0.2715  0.8464 -2.1561
39894SOL     OW21688   2.530  11.111   8.358  0.7673 -0.6625 -0.0488
39894SOL    HW121689   2.566  11.090   8.445 -0.3199  0.5315  0.7178
39894SOL    HW221690   2.570  11.046   8.300  0.2544 -2.5695  1.6021
39895SOL     OW21691   9.912   7.293   3.693  0.5035 -0.3169 -0.1954
39895SOL    HW121692   9.877   7.275   3.780 -0.7986 -0.4350 -0.7159
39895SOL    HW221693   9.978   7.360   3.707 -1.6516  1.7925  0.5988
39896SOL     OW21694   8.510   6.695   7.420 -0.7008 -0.1232  0.5232
39896SOL    HW121695   8.446   6.755   7.382 -1.5517 -2.1028 -1.3905
39896SOL    HW221696   8.464   6.655   7.494  0.1557  2.0373  2.3576
39897SOL     OW21697   6.980   4.107   8.031  0.5006  0.1051 -0.1199
39897SOL    HW121698   7.073   4.086   8.034  0.3972 -0.5489 -0.9786
39897SOL    HW221699   6.976   4.201   8.048  1.2828  0.0686  0.3038
39898SOL     OW21700   7.546   2.819  11.087 -0.1123 -0.3812  0.6348
39898SOL    HW121701   7.608   2.778  11.026 -0.5331  1.0447 -0.8147
39898SOL    HW221702   7.583   2.800  11.173  2.5309  0.6192 -0.1544
39899SOL     OW21703   4.878   9.071   6.317 -0.1174 -0.9057  0.4814
39899SOL    HW121704   4.918   8.986   6.299  0.4770 -0.5370  0.0213
39899SOL    HW221705   4.908   9.127   6.246  0.1876 -0.0814  1.2438
39900SOL     OW21706   9.871   4.292   2.025  0.5768  0.1876  0.4491
39900SOL    HW121707   9.963   4.279   2.003  0.4123  0.6518 -0.5849
39900SOL    HW221708   9.849   4.219   2.083  1.4860 -0.1479  0.3821
39901SOL     OW21709   6.598   3.408   1.721 -0.0574 -1.0105  0.5221
39901SOL    HW121710   6.507   3.398   1.692 -0.4818  2.5670  0.2160
39901SOL    HW221711   6.639   3.461   1.653  1.9124 -1.4039  1.3355
39902SOL     OW21712   6.335   0.742   1.096  1.1047  0.0964 -0.6730
39902SOL    HW121713   6.370   0.782   1.176  0.7360 -1.1864  0.1546
39902SOL    HW221714   6.309   0.654   1.123  0.4129 -0.1462 -2.0778
39903SOL     OW21715   4.747  10.061   6.977 -0.3889 -0.2106 -0.3389
39903SOL    HW121716   4.743  10.156   6.966  0.7572 -0.1189 -0.0976
39903SOL    HW221717   4.738  10.027   6.888  2.2093  0.2698 -0.8634
39904SOL     OW21718   6.247   3.649   8.333  0.0302  0.2777 -0.0046
39904SOL    HW121719   6.216   3.736   8.310  1.1357  1.0673  1.3408
39904SOL    HW221720   6.207   3.631   8.418  1.1024  0.2058  0.5087
39905SOL     OW21721   0.372   7.081   5.712  0.0837  0.7371  0.0485
39905SOL    HW121722   0.391   7.115   5.624  1.0717  0.4332  0.1366
39905SOL    HW221723   0.349   6.989   5.697 -3.1355  1.4558 -0.2551
39906SOL     OW21724   8.907   2.169   8.357 -0.5482 -0.1036  0.0386
39906SOL    HW121725   8.973   2.168   8.427 -0.4045  2.9688  0.1140
39906SOL    HW221726   8.841   2.231   8.389 -1.7348 -0.4999 -1.5387
39907SOL     OW21727   9.897   8.463   2.047  0.3543  0.6235  0.5493
39907SOL    HW121728   9.990   8.451   2.032 -0.1022 -0.7101 -1.6444
39907SOL    HW221729   9.857   8.380   2.021 -1.3087  0.4649  3.2291
39908SOL     OW21730   7.448   6.957   1.067  0.0645  0.0100 -0.0267
39908SOL    HW121731   7.366   6.908   1.060 -0.6132  1.1964 -0.7852
39908SOL    HW221732   7.423   7.039   1.110  1.0658 -0.0490  0.7020
39909SOL     OW21733   2.271   9.454  10.192 -0.2850  0.4717  0.0448
39909SOL    HW121734   2.284   9.451  10.287 -0.7857  1.5514  0.1569
39909SOL    HW221735   2.283   9.546  10.169  0.9280  0.0641 -1.1145
39910SOL     OW21736   3.503   3.647   7.682  0.1877 -0.5005 -0.1159
39910SOL    HW121737   3.433   3.582   7.690  0.4966 -0.8257  0.0040
39910SOL    HW221738   3.469   3.725   7.725 -0.6642 -0.1799 -1.3157
39911SOL     OW21739   1.137  10.463   5.996 -0.0755  0.0678  0.2463
39911SOL    HW121740   1.058  10.417   6.024 -0.5752 -0.3198 -1.6503
39911SOL    HW221741   1.209  10.413   6.033 -0.5700 -2.7701 -2.2769
39912SOL     OW21742  10.403  10.215   9.240 -0.0374  0.4941 -0.0245
39912SOL    HW121743  10.462  10.192   9.311  0.2695  0.5505 -0.2625
39912SOL    HW221744  10.442  10.292   9.200  0.0884  0.1324 -0.6079
39913SOL     OW21745   6.706   8.824  10.284  0.0774 -1.0337  0.6726
39913SOL    HW121746   6.617   8.808  10.315 -0.6146 -0.5301 -0.9451
39913SOL    HW221747   6.707   8.917  10.261  0.0565 -1.6047 -2.0446
39914SOL     OW21748   3.031   1.751   6.209 -0.1386  0.1157 -0.0933
39914SOL    HW121749   2.975   1.675   6.225 -1.1988  0.0416 -3.4189
39914SOL    HW221750   3.071   1.734   6.124  1.6596  2.1516  0.2509
39915SOL     OW21751  10.448   1.513   2.671  0.1898  0.5116  0.2059
39915SOL    HW121752  10.435   1.595   2.718  0.5110  0.1321  0.9877
39915SOL    HW221753  10.523   1.529   2.614 -1.1431  1.4600 -1.3618
39916SOL     OW21754   6.115   7.635   2.753  0.1402 -0.2619 -0.6607
39916SOL    HW121755   6.035   7.687   2.743  0.8145  0.5806 -2.0047
39916SOL    HW221756   6.086   7.544   2.745 -0.4324  0.0942 -3.5806
39917SOL     OW21757   3.126   3.946   5.038 -0.2561  0.0902 -0.5460
39917SOL    HW121758   3.115   3.911   4.950  1.4014  1.2606 -1.2675
39917SOL    HW221759   3.221   3.950   5.050 -0.4118 -1.0092  1.7102
39918SOL     OW21760   2.675   4.599   6.902 -0.0753 -0.2043  0.0526
39918SOL    HW121761   2.628   4.649   6.835 -1.2882 -2.1480 -0.6592
39918SOL    HW221762   2.721   4.531   6.852  1.0627 -0.1678  1.0145
39919SOL     OW21763   2.418   7.773   9.328 -0.0101  0.3549  0.2950
39919SOL    HW121764   2.385   7.767   9.238  0.1214  2.1232  0.0875
39919SOL    HW221765   2.494   7.715   9.330  0.0011  0.3176 -0.7370
39920SOL     OW21766   4.475   2.998   7.597 -0.5584 -0.2841  0.3996
39920SOL    HW121767   4.508   3.054   7.667  0.7525 -0.9238  0.3209
39920SOL    HW221768   4.526   2.918   7.604 -1.3973 -0.9151 -0.4073
39921SOL     OW21769   2.328   7.763   9.071  0.1904 -0.0783 -0.3610
39921SOL    HW121770   2.391   7.776   9.000  0.1636 -0.0717 -0.3838
39921SOL    HW221771   2.246   7.800   9.038  0.7286  2.0787  0.5641
39922SOL     OW21772   8.483   3.491  10.985  0.3803  0.5358 -0.0318
39922SOL    HW121773   8.416   3.430  10.955  0.4569  1.3923 -2.1567
39922SOL    HW221774   8.435   3.571  11.006  0.6626  1.0551 -1.2740
39923SOL     OW21775   4.340   6.618   8.818  0.4773 -0.6023  0.0487
39923SOL    HW121776   4.429   6.583   8.818  1.7929  2.4208  0.4694
39923SOL    HW221777   4.352   6.713   8.812 -2.7262 -0.0613  0.5592
39924SOL     OW21778  10.277   1.654  10.612 -0.2224  0.6117  0.0001
39924SOL    HW121779  10.342   1.607  10.665 -2.4833 -3.0272 -0.0531
39924SOL    HW221780  10.296   1.628  10.522 -0.5211  1.1924 -0.2362
39925SOL     OW21781  10.676   4.977   2.733 -0.0450  0.3197  0.1286
39925SOL    HW121782  10.653   4.886   2.749  0.5173  0.2376  0.4916
39925SOL    HW221783  10.771   4.975   2.716  0.3003  1.0379  1.8148
39926SOL     OW21784   9.857   5.763   9.493  0.3224  0.2780  0.6540
39926SOL    HW121785   9.771   5.784   9.457  0.2522  0.7105  1.0533
39926SOL    HW221786   9.872   5.832   9.558 -0.2071 -1.2723  2.5167
39927SOL     OW21787   2.828   1.368  10.481 -0.3067 -0.1825  0.0327
39927SOL    HW121788   2.748   1.386  10.530  0.7908  0.8362  1.5241
39927SOL    HW221789   2.834   1.439  10.417  0.2909  0.7662  1.1089
39928SOL     OW21790   7.870   8.506   8.654 -0.2381  0.2294 -0.0184
39928SOL    HW121791   7.796   8.548   8.609  0.4887  0.9976 -0.5105
39928SOL    HW221792   7.830   8.431   8.699 -1.1974  0.1767 -0.9015
39929SOL     OW21793   1.315  11.230   3.365  0.3552 -0.5546 -0.0147
39929SOL    HW121794   1.301  11.215   3.458 -0.5684 -2.1541 -0.3838
39929SOL    HW221795   1.277  11.154   3.322  2.4259 -0.7613 -1.6108
39930SOL     OW21796   0.084   4.000   5.461  0.0363  0.3778 -0.4172
39930SOL    HW121797   0.119   3.955   5.384 -0.0696  0.7087 -0.6590
39930SOL    HW221798   0.117   4.090   5.454 -1.1297  0.7840 -0.8258
39931SOL     OW21799   3.869   3.098  11.090 -0.4887  0.2426  0.2195
39931SOL    HW121800   3.898   3.130  11.175 -1.4298  0.3748  0.5012
39931SOL    HW221801   3.947   3.104  11.034  0.2872 -0.3631  1.1979
39932SOL     OW21802   6.886   4.886   1.086 -0.5611 -0.4329  0.4437
39932SOL    HW121803   6.936   4.816   1.044 -2.0331 -1.4019  0.2221
39932SOL    HW221804   6.801   4.885   1.042 -0.7072  1.3493  0.6153
39933SOL     OW21805   0.660   3.912   4.070 -0.0820  0.3359  0.4777
39933SOL    HW121806   0.614   3.834   4.038  0.8843 -0.2545  0.4699
39933SOL    HW221807   0.591   3.974   4.090 -1.0724 -1.3631  2.7821
39934SOL     OW21808   4.475   0.096   8.307  0.2457 -0.0696  0.1954
39934SOL    HW121809   4.427   0.178   8.304  0.1483 -0.1368 -0.1201
39934SOL    HW221810   4.425   0.037   8.251  0.2436 -0.3809  0.5236
39935SOL     OW21811  11.198   1.843   0.632  0.0085  0.4507 -0.2047
39935SOL    HW121812  11.238   1.929   0.619  3.1162 -0.7310  0.6764
39935SOL    HW221813  11.220   1.794   0.553  0.2317 -0.2268  0.2748
39936SOL     OW21814   0.414   6.767  10.011 -0.1790 -0.2447 -0.2246
39936SOL    HW121815   0.366   6.735  10.087  0.0847  0.6840  0.3449
39936SOL    HW221816   0.368   6.847   9.985  0.7604  0.3966  0.0334
39937SOL     OW21817   4.798   5.851   0.855 -0.2130  0.3825 -0.3691
39937SOL    HW121818   4.797   5.940   0.822  0.9868  1.0788  1.3308
39937SOL    HW221819   4.891   5.828   0.859 -0.5149 -1.2716 -1.5174
39938SOL     OW21820   9.043   0.106   4.350 -0.3354  0.0361 -0.1205
39938SOL    HW121821   9.126   0.152   4.340  1.0674 -2.1949  0.3982
39938SOL    HW221822   9.053   0.028   4.295 -2.2988 -0.0510 -0.4125
39939SOL     OW21823   2.276   3.103   4.923 -0.7722  0.4099  0.4605
39939SOL    HW121824   2.362   3.075   4.953 -1.1656 -1.3849  0.0578
39939SOL    HW221825   2.218   3.030   4.947 -1.5375 -0.0218 -2.3642
39940SOL     OW21826   1.804   8.955   6.731 -0.2733  0.0877 -0.3488
39940SOL    HW121827   1.788   8.967   6.825  2.9370 -0.1125  0.3290
39940SOL    HW221828   1.725   8.912   6.698 -0.7851 -1.4849  2.6157
39941SOL     OW21829   4.435   0.148  10.947  0.3655 -0.1934  0.3146
39941SOL    HW121830   4.478   0.171  11.029  1.6135  0.3363 -0.4678
39941SOL    HW221831   4.419   0.232  10.904 -4.2851  0.0193  1.8476
39942SOL     OW21832   6.937   2.157  10.098  0.1627 -0.2602 -0.3824
39942SOL    HW121833   6.878   2.225  10.132  0.5602  1.3482 -2.6768
39942SOL    HW221834   6.887   2.114  10.029  0.6090 -0.9956 -0.2554
39943SOL     OW21835   8.931   9.774   8.425 -0.7604 -0.1936  0.0441
39943SOL    HW121836   8.985   9.719   8.482 -0.8668 -0.4450 -0.0937
39943SOL    HW221837   8.933   9.729   8.340  0.1939  0.6766 -0.4171
39944SOL     OW21838   0.037   3.741   2.850 -0.0006 -0.1236 -0.1040
39944SOL    HW121839  -0.007   3.751   2.934  1.1044 -1.1310  0.6289
39944SOL    HW221840  -0.017   3.678   2.802 -1.2436  1.2902 -0.6192
39945SOL     OW21841   3.318   1.640   9.855  0.2905 -0.4438 -1.0213
39945SOL    HW121842   3.324   1.735   9.860 -0.7905 -0.4394  1.2521
39945SOL    HW221843   3.293   1.612   9.943  2.3220 -2.9877 -1.1057
39946SOL     OW21844   4.635   6.389   7.622 -0.4526  0.1785 -0.3721
39946SOL    HW121845   4.680   6.364   7.542  0.6348  0.0190  0.2643
39946SOL    HW221846   4.566   6.324   7.633 -0.9807  0.5281 -1.4561
39947SOL     OW21847  10.106   5.693   0.666  0.5971  0.0972  0.4528
39947SOL    HW121848  10.024   5.741   0.669  1.4798  1.7969 -0.8423
39947SOL    HW221849  10.082   5.603   0.686 -1.5053  0.6272  0.5162
39948SOL     OW21850   2.241   1.304   0.612  0.1826 -0.0726 -0.0299
39948SOL    HW121851   2.259   1.383   0.664  0.5169  0.3950 -0.8359
39948SOL    HW221852   2.157   1.272   0.644  0.0406  0.6202  0.2980
39949SOL     OW21853   6.824   3.719   3.072 -0.4740  0.1363  0.4682
39949SOL    HW121854   6.729   3.710   3.085 -0.4723  0.8042  0.9962
39949SOL    HW221855   6.834   3.728   2.977 -0.8385 -0.9894  0.3122
39950SOL     OW21856   8.646  10.433   6.723  0.1445 -0.9219  0.1298
39950SOL    HW121857   8.583  10.413   6.793  1.0533 -2.2768  0.6028
39950SOL    HW221858   8.731  10.434   6.768  0.5400  0.2880 -0.6043
39951SOL     OW21859   3.298   6.187   0.106 -0.6943 -0.3526 -0.4175
39951SOL    HW121860   3.287   6.153   0.017 -0.7548  1.6627 -1.2305
39951SOL    HW221861   3.215   6.230   0.125  0.0994  1.2502 -0.3557
39952SOL     OW21862   4.795   4.242   2.977  0.0712 -0.1747 -0.0094
39952SOL    HW121863   4.865   4.290   3.022  0.7332 -0.8261 -0.3272
39952SOL    HW221864   4.798   4.277   2.887 -0.7729  0.6098  0.2572
39953SOL     OW21865   2.415   1.678  10.381  0.2282 -0.0048  0.1307
39953SOL    HW121866   2.443   1.769  10.383  0.6956 -0.1404  2.0530
39953SOL    HW221867   2.466   1.636  10.451 -0.5935 -1.5455 -0.1553
39954SOL     OW21868   1.086   5.045   2.575  0.7447  0.3852  0.2886
39954SOL    HW121869   1.102   4.960   2.616  0.5047 -0.4872 -1.3256
39954SOL    HW221870   1.173   5.084   2.566  0.8477  0.3619  1.1018
39955SOL     OW21871   7.873  10.362   4.431  0.2118 -0.3251  0.3960
39955SOL    HW121872   7.909  10.357   4.519 -0.7632 -1.3658  0.7519
39955SOL    HW221873   7.794  10.415   4.440  0.8055  0.6629 -0.1006
39956SOL     OW21874   1.675   3.007   0.251 -0.5502  0.4554  0.3388
39956SOL    HW121875   1.641   3.002   0.162  0.9701  0.4221 -0.2688
39956SOL    HW221876   1.750   3.066   0.245  0.3136 -0.4865  1.3447
39957SOL     OW21877   8.105   5.382   9.266 -0.3518 -0.3108  0.9578
39957SOL    HW121878   8.200   5.392   9.269 -0.2505 -1.3289  1.7685
39957SOL    HW221879   8.074   5.431   9.342 -0.1932 -2.3925  2.4596
39958SOL     OW21880   3.542   7.885   4.168  0.4703 -0.3891 -0.6636
39958SOL    HW121881   3.627   7.884   4.212 -0.2008  0.4308  0.7064
39958SOL    HW221882   3.508   7.796   4.178  1.4734 -0.9505 -1.9143
39959SOL     OW21883   7.498   1.402   0.225 -0.4628 -0.5014 -0.0990
39959SOL    HW121884   7.464   1.391   0.137 -1.1387  0.2498  0.0607
39959SOL    HW221885   7.549   1.482   0.222 -0.3999 -0.5290  0.1628
39960SOL     OW21886   7.457   0.777   0.098  1.1955 -0.0600  0.0664
39960SOL    HW121887   7.406   0.716   0.151  0.5981  0.3280 -0.0531
39960SOL    HW221888   7.402   0.795   0.023  0.9643  1.3445  0.5492
39961SOL     OW21889   1.032   7.953   6.548 -0.8733 -0.0890  0.5536
39961SOL    HW121890   0.996   7.989   6.467  0.0003 -1.0801 -0.2860
39961SOL    HW221891   1.029   7.858   6.537  3.7756 -0.3578 -0.4763
39962SOL     OW21892   6.725   0.493   6.134  0.2972 -1.5059 -0.3261
39962SOL    HW121893   6.801   0.457   6.088  0.9006 -0.2706 -0.3591
39962SOL    HW221894   6.672   0.533   6.064  1.1266  0.2185 -0.0219
39963SOL     OW21895   6.437   8.208  10.419  0.0462  0.0727 -1.0347
39963SOL    HW121896   6.400   8.152  10.487  1.4893 -0.4665 -0.6526
39963SOL    HW221897   6.387   8.289  10.425 -2.2342 -1.1941 -1.7425
39964SOL     OW21898   9.925   4.652   0.746  0.2814 -0.0624  0.3015
39964SOL    HW121899  10.012   4.688   0.765  0.9432 -1.8718  0.9756
39964SOL    HW221900   9.912   4.667   0.653  0.1910  2.4696  0.6517
39965SOL     OW21901   6.164   4.087   5.965  0.3978  0.8316  0.9077
39965SOL    HW121902   6.096   4.059   6.026  0.0264 -0.1869  0.0497
39965SOL    HW221903   6.238   4.030   5.984 -0.3189 -0.7167 -0.7643
39966SOL     OW21904  10.349  11.256   6.695 -0.2579 -0.2085  0.6226
39966SOL    HW121905  10.366  11.187   6.631 -0.7815  1.7130 -1.7130
39966SOL    HW221906  10.413  11.240   6.765  0.3698 -2.3632 -0.3595
39967SOL     OW21907  10.987  10.856   4.055  0.5445 -0.3365 -0.2104
39967SOL    HW121908  10.994  10.788   4.122 -2.4287  0.4845  1.0775
39967SOL    HW221909  10.996  10.938   4.104  0.3517  0.2581 -1.1432
39968SOL     OW21910   6.721   2.335  10.748 -0.1214  0.4584 -0.1659
39968SOL    HW121911   6.785   2.401  10.723 -0.5780  0.8725 -0.2454
39968SOL    HW221912   6.649   2.384  10.786  0.4088 -0.1180  1.7146
39969SOL     OW21913   5.357   6.538  10.398 -0.8178 -0.2951  0.0471
39969SOL    HW121914   5.349   6.559  10.304 -1.6364 -1.5358 -0.1769
39969SOL    HW221915   5.267   6.523  10.427 -0.6205  0.5532  1.1693
39970SOL     OW21916  10.452   2.714   1.800  0.2441 -0.1154  0.7616
39970SOL    HW121917  10.429   2.763   1.721  1.6238  1.2463  1.1478
39970SOL    HW221918  10.516   2.649   1.771 -0.8611 -1.0883  0.4186
39971SOL     OW21919  10.825  10.417   3.690  0.3762  0.0785 -0.5387
39971SOL    HW121920  10.829  10.484   3.621  0.1506  1.4996  0.7655
39971SOL    HW221921  10.736  10.384   3.686  0.4402 -0.0362 -1.0923
39972SOL     OW21922   7.313   2.833   1.909  0.3179 -0.1509 -0.4697
39972SOL    HW121923   7.378   2.855   1.976  0.3576  1.3987 -0.9828
39972SOL    HW221924   7.344   2.750   1.871  1.3040 -0.0695  0.1372
39973SOL     OW21925   3.742   1.469   7.723  0.1382 -0.1220  0.3997
39973SOL    HW121926   3.682   1.424   7.782 -0.5470 -0.1307 -0.2852
39973SOL    HW221927   3.817   1.492   7.778 -0.2282 -0.6347  1.1338
39974SOL     OW21928   2.262   5.882   9.787  0.1798 -0.2101  0.1326
39974SOL    HW121929   2.237   5.815   9.850 -0.4897 -0.3579 -0.2813
39974SOL    HW221930   2.212   5.959   9.813 -1.1058 -0.6437 -0.9842
39975SOL     OW21931   4.468   1.977   2.945  0.5058 -0.9205 -0.5294
39975SOL    HW121932   4.462   1.982   3.041 -0.8709  0.1917 -0.6400
39975SOL    HW221933   4.542   2.034   2.923  1.5367 -2.0469 -0.0843
39976SOL     OW21934   5.620   4.997   1.497 -0.1247  0.4904 -0.4589
39976SOL    HW121935   5.552   4.930   1.493  0.7256 -0.4361  0.1028
39976SOL    HW221936   5.697   4.956   1.457  0.5690  0.9084  0.4117
39977SOL     OW21937   8.041   9.778   0.090 -0.4738  0.3064 -0.4623
39977SOL    HW121938   7.954   9.818   0.091 -0.7166 -0.1319 -1.8834
39977SOL    HW221939   8.075   9.797   0.002  0.4046 -0.5022 -0.3157
39978SOL     OW21940   9.018   5.040  10.149 -0.5394  0.6780 -0.1686
39978SOL    HW121941   9.035   5.113  10.207  0.6389 -0.9657  1.6898
39978SOL    HW221942   9.099   4.989  10.150 -1.2660 -0.5717 -1.4933
39979SOL     OW21943   1.344   4.116   6.724  0.2761 -0.1511 -0.4263
39979SOL    HW121944   1.282   4.178   6.685 -0.1034  0.5886  1.2766
39979SOL    HW221945   1.411   4.171   6.765 -0.9203 -0.7070  2.5333
39980SOL     OW21946   7.864   2.275   2.375 -0.0732 -0.3284  0.1226
39980SOL    HW121947   7.933   2.209   2.379 -0.0984 -0.4887 -1.4017
39980SOL    HW221948   7.789   2.235   2.418 -0.1889 -1.4536 -1.0783
39981SOL     OW21949   2.359   1.246   5.283  0.3150 -0.1691  0.5121
39981SOL    HW121950   2.430   1.240   5.347 -0.0260 -0.7006  0.8520
39981SOL    HW221951   2.327   1.336   5.291  2.2189  0.7128 -1.0572
39982SOL     OW21952   8.782   1.652   1.448 -0.2819  0.0809  0.2012
39982SOL    HW121953   8.747   1.739   1.466  0.6605  0.6272 -0.4838
39982SOL    HW221954   8.803   1.653   1.354  1.9741  0.0003  0.6340
39983SOL     OW21955   9.962  10.240   4.105  0.6413 -0.5125  0.5197
39983SOL    HW121956   9.877  10.222   4.146  0.3680 -0.0491  0.1639
39983SOL    HW221957   9.941  10.294   4.029  1.3823  0.8019  1.2196
39984SOL     OW21958   8.703   1.516   0.103  0.0668  0.6165  0.1808
39984SOL    HW121959   8.629   1.456   0.090 -1.0711  1.3862  2.5420
39984SOL    HW221960   8.663   1.602   0.108  0.9749  0.9744  2.3585
39985SOL     OW21961   3.783   1.432   7.237 -0.1750  0.2372  0.1126
39985SOL    HW121962   3.860   1.379   7.253 -0.7413 -0.6005  0.1204
39985SOL    HW221963   3.810   1.493   7.168  0.1358 -0.8471 -0.7488
39986SOL     OW21964   3.359   2.410  10.563 -0.2431 -0.0722  0.6148
39986SOL    HW121965   3.410   2.489  10.578 -0.5958  0.0249  1.3491
39986SOL    HW221966   3.405   2.342  10.611 -0.7553  0.0064  1.2439
39987SOL     OW21967   1.650   9.700   5.523 -0.3982 -0.2271  0.6705
39987SOL    HW121968   1.638   9.762   5.595 -0.2875  1.8687 -1.0119
39987SOL    HW221969   1.570   9.707   5.471 -0.7420 -2.1677  0.8503
39988SOL     OW21970   6.888   1.708   2.415  0.7865 -0.1609 -0.2923
39988SOL    HW121971   6.817   1.643   2.409 -0.5580  1.3790 -1.9250
39988SOL    HW221972   6.857   1.770   2.481  1.8960 -0.9056  0.9783
39989SOL     OW21973  10.854  10.895  11.202 -0.1035 -0.5732  0.2892
39989SOL    HW121974  10.916  10.831  11.238  0.8076 -1.7652 -3.0080
39989SOL    HW221975  10.908  10.956  11.152 -1.2600  1.0353  0.9174
39990SOL     OW21976   6.484   9.393   6.358 -0.3208 -0.9240 -0.1628
39990SOL    HW121977   6.508   9.391   6.265  1.1856 -0.4511  0.1893
39990SOL    HW221978   6.539   9.462   6.395 -0.6557 -1.3454  1.1531
39991SOL     OW21979   0.365   2.199   5.480  0.0163 -0.0379 -0.0642
39991SOL    HW121980   0.334   2.176   5.567  1.1991 -0.8023  0.1817
39991SOL    HW221981   0.296   2.170   5.421 -1.4047  1.6830  0.6698
39992SOL     OW21982   1.892   5.399   8.071 -0.5005 -0.0279  0.1404
39992SOL    HW121983   1.960   5.427   8.009 -1.1862 -0.0334 -0.6447
39992SOL    HW221984   1.814   5.387   8.016 -0.9232 -0.8198  0.8924
39993SOL     OW21985   6.717   7.867   2.505 -0.2209 -0.3100  0.1990
39993SOL    HW121986   6.678   7.954   2.492 -1.1211 -0.6114  0.7665
39993SOL    HW221987   6.644   7.807   2.491  0.8784 -1.1414 -2.5226
39994SOL     OW21988   5.826   8.691   9.351  0.3572 -0.2150  0.3919
39994SOL    HW121989   5.731   8.698   9.347  0.4981  1.5489 -1.5779
39994SOL    HW221990   5.844   8.599   9.332 -0.9266 -0.1854 -1.2353
39995SOL     OW21991   3.739   1.647   9.856 -0.0557 -0.5911 -0.1248
39995SOL    HW121992   3.683   1.680   9.786  1.1803 -0.5369 -1.1200
39995SOL    HW221993   3.683   1.589   9.906 -1.1019 -0.2431 -0.8609
39996SOL     OW21994  10.122   4.124  10.983 -0.1957 -0.3244  0.4164
39996SOL    HW121995  10.027   4.137  10.978 -0.0516  0.9316  0.5759
39996SOL    HW221996  10.142   4.065  10.911 -0.7972  1.3943 -1.2546
39997SOL     OW21997   1.892   1.654   3.392  0.0552 -0.0100 -0.0267
39997SOL    HW121998   1.968   1.687   3.343 -0.4020  0.7848 -0.2056
39997SOL    HW221999   1.820   1.710   3.365 -0.5400 -0.5743  0.3744
39998SOL     OW22000  11.217   4.776  10.193  0.1081  0.5125 -0.4280
39998SOL    HW122001  11.249   4.792  10.104  2.0017  1.6536  0.3904
39998SOL    HW222002  11.133   4.821  10.197 -1.2839 -1.7109 -2.3707
39999SOL     OW22003   7.391   4.185   1.156 -0.2348  0.5441 -0.0412
39999SOL    HW122004   7.427   4.180   1.067  2.0445 -0.2068  0.8424
39999SOL    HW222005   7.347   4.101   1.168 -2.3332  1.4146 -1.0834
40000SOL     OW22006   5.792   0.887   9.546  0.0080 -0.0020  0.1478
40000SOL    HW122007   5.715   0.911   9.598  0.8852  1.2567  0.9241
40000SOL    HW222008   5.772   0.918   9.458 -0.9210 -0.9001  0.0281
40001SOL     OW22009   0.990  10.776   5.413 -0.3195  0.1304 -0.2706
40001SOL    HW122010   0.997  10.869   5.394  0.5071  0.5820  2.0068
40001SOL    HW222011   1.056  10.735   5.356  2.0139  1.4010  1.3662
40002SOL     OW22012   7.981   0.540   5.360 -0.1804 -0.2742  0.2625
40002SOL    HW122013   8.056   0.527   5.301  0.8466 -0.3801  1.5506
40002SOL    HW222014   7.912   0.573   5.303  0.6882 -0.6194 -1.0545
40003SOL     OW22015   2.813   2.060   6.189 -0.4031  0.1087 -0.4357
40003SOL    HW122016   2.799   1.966   6.203  1.0996 -0.1029 -0.1302
40003SOL    HW222017   2.876   2.084   6.257 -3.5505  2.2031  2.0219
40004SOL     OW22018   7.916   3.524   3.619 -0.1851  0.0626  0.4806
40004SOL    HW122019   8.009   3.515   3.600 -0.0888  0.7581  0.5747
40004SOL    HW222020   7.906   3.488   3.707  0.5252  2.4021  1.6103
40005SOL     OW22021   7.859   0.780   5.841 -0.4819 -0.0802  0.4481
40005SOL    HW122022   7.843   0.703   5.786 -0.7597  0.2409  0.0704
40005SOL    HW222023   7.817   0.852   5.794  0.2985  0.4159  0.4920
40006SOL     OW22024   5.527   2.691  11.032  0.5037  0.4755  0.7590
40006SOL    HW122025   5.479   2.669  10.952  0.7154 -1.4431  1.1199
40006SOL    HW222026   5.619   2.694  11.005  0.3694  2.7166  0.3717
40007SOL     OW22027   0.597   1.729   4.576 -0.0162  0.0798 -0.4999
40007SOL    HW122028   0.657   1.779   4.521  0.6942 -0.3913 -0.1599
40007SOL    HW222029   0.548   1.675   4.515  2.2531 -2.0485 -0.5656
40008SOL     OW22030   0.307   7.465   4.763  0.7145  0.1671 -0.3196
40008SOL    HW122031   0.395   7.445   4.792  1.1044  0.2764 -1.3815
40008SOL    HW222032   0.315   7.547   4.714  0.1393 -0.1358 -0.9422
40009SOL     OW22033   6.466  10.386   5.985 -0.2485 -0.2745  0.0854
40009SOL    HW122034   6.499  10.403   5.896 -3.0339  1.1577 -0.8083
40009SOL    HW222035   6.518  10.443   6.041  1.5439 -1.1769 -0.5728
40010SOL     OW22036  10.373   0.492   3.125  0.2708 -0.4385  0.0821
40010SOL    HW122037  10.445   0.435   3.152  0.4665 -1.4489 -2.3024
40010SOL    HW222038  10.381   0.569   3.181  0.2276 -2.5119  3.1977
40011SOL     OW22039   5.218   6.107   3.413 -0.3127 -0.0013 -0.1375
40011SOL    HW122040   5.189   6.173   3.476  1.5217  0.1412  0.6210
40011SOL    HW222041   5.299   6.142   3.376 -0.8078 -0.5704 -1.8373
40012SOL     OW22042   1.116   6.744   2.254 -0.5988 -0.5082  0.0123
40012SOL    HW122043   1.102   6.777   2.342 -3.5619  0.8263 -0.8026
40012SOL    HW222044   1.201   6.780   2.228 -1.3974  2.4128  1.0047
40013SOL     OW22045   4.396   0.086   3.207 -0.7920  0.0788  0.2342
40013SOL    HW122046   4.411   0.129   3.122 -1.3746  0.3708  0.2757
40013SOL    HW222047   4.335   0.015   3.187  1.4972 -1.9116 -0.1672
40014SOL     OW22048   4.198   2.651   0.881 -0.7114  0.0690  0.1909
40014SOL    HW122049   4.224   2.675   0.793  3.2238 -1.8944  0.5666
40014SOL    HW222050   4.214   2.729   0.934 -2.6085  1.0886 -0.6432
40015SOL     OW22051  10.089   9.010   8.113  0.3231  0.6532  0.3024
40015SOL    HW122052  10.029   9.079   8.085  0.4275  1.2872  1.5342
40015SOL    HW222053  10.167   9.057   8.144  0.5651 -0.0415  0.7855
40016SOL     OW22054   3.026   7.070   1.325  0.1551  0.1943 -0.3934
40016SOL    HW122055   3.032   7.094   1.233 -0.3238 -2.5634 -1.2274
40016SOL    HW222056   2.937   7.037   1.336  0.9405 -1.8313  0.3692
40017SOL     OW22057   9.149   1.426   3.971 -0.3378  0.5624  0.0245
40017SOL    HW122058   9.219   1.486   3.997  0.4852 -0.5920  0.5222
40017SOL    HW222059   9.078   1.443   4.034  1.2859 -1.5612  2.6400
40018SOL     OW22060   6.382   4.626   7.247  0.0685 -0.6367  0.3504
40018SOL    HW122061   6.371   4.709   7.294  0.9931 -0.9652  1.1837
40018SOL    HW222062   6.299   4.581   7.257  0.0222 -0.4044  1.0876
40019SOL     OW22063   6.109   7.299   8.864  0.3460  1.0385  0.3905
40019SOL    HW122064   6.138   7.341   8.945  0.6314  0.2328  0.7150
40019SOL    HW222065   6.188   7.260   8.828 -0.1586 -0.5223  0.8856
40020SOL     OW22066   4.169   5.818  10.820  0.3160  0.0430  0.1914
40020SOL    HW122067   4.081   5.793  10.848  0.6185 -0.4892  0.6882
40020SOL    HW222068   4.170   5.801  10.726  0.7193 -2.5618  0.5800
40021SOL     OW22069   7.806  11.161   5.749  0.4728  0.3095 -0.5343
40021SOL    HW122070   7.716  11.132   5.735  1.3195 -1.0569 -4.1367
40021SOL    HW222071   7.802  11.256   5.738 -0.5239  0.2971 -0.3994
40022SOL     OW22072   3.172  11.205   8.618 -0.2128  0.0073  0.2150
40022SOL    HW122073   3.252  11.152   8.622 -1.5701 -2.4560 -2.2272
40022SOL    HW222074   3.121  11.176   8.694  0.7663  0.9550  1.2814
40023SOL     OW22075   8.933   3.988   6.639  0.0244  0.6425  0.3383
40023SOL    HW122076   8.986   4.010   6.715  2.7302  2.3360 -1.8623
40023SOL    HW222077   8.887   4.069   6.617 -2.2368 -0.3303  1.1362
40024SOL     OW22078   5.856   9.116   8.580 -0.4278 -0.2724 -0.0032
40024SOL    HW122079   5.809   9.193   8.613 -0.3950 -0.7843  1.2994
40024SOL    HW222080   5.942   9.121   8.621 -1.0134 -1.9251  1.5561
40025SOL     OW22081   8.791   8.119   3.750  0.2752 -0.4822  0.5113
40025SOL    HW122082   8.696   8.105   3.746 -0.7127  3.8310  2.7840
40025SOL    HW222083   8.814   8.155   3.664 -1.2544  2.6497  1.2527
40026SOL     OW22084  10.043  10.701   8.246  1.1455  0.6683  0.2258
40026SOL    HW122085  10.129  10.726   8.212 -0.4446  3.9108 -1.9737
40026SOL    HW222086  10.015  10.778   8.297 -0.6915 -0.0169  0.3266
40027SOL     OW22087   6.882  10.789   6.293 -0.6620  0.4390  0.1404
40027SOL    HW122088   6.853  10.861   6.349 -0.4963  0.6188 -0.0036
40027SOL    HW222089   6.978  10.796   6.291 -0.7014  0.9821 -0.8718
40028SOL     OW22090   3.733   1.929   2.734 -0.0244  0.0113  0.8812
40028SOL    HW122091   3.763   1.861   2.795  3.1136  0.8572  0.4929
40028SOL    HW222092   3.774   2.009   2.767 -0.5639  0.9958 -0.7478
40029SOL     OW22093   3.467   1.422   8.404  0.7836  0.2673  0.5045
40029SOL    HW122094   3.546   1.371   8.422  0.9118  0.2153 -0.2015
40029SOL    HW222095   3.424   1.430   8.490  0.2225 -1.9156  0.4855
40030SOL     OW22096  10.326   4.062   4.019  0.6850 -0.9956 -0.6097
40030SOL    HW122097  10.233   4.043   4.031  0.1497  1.9300  0.8532
40030SOL    HW222098  10.367   4.033   4.101  0.9959 -1.7399 -1.0163
40031SOL     OW22099  10.279   0.012   3.179 -0.3877  0.2132  0.3454
40031SOL    HW122100  10.317   0.027   3.093 -1.5581  0.7313 -0.0971
40031SOL    HW222101  10.325  -0.065   3.212  1.1217  0.8784 -0.1009
40032SOL     OW22102   8.610   8.210   6.012  0.0258 -0.2494 -0.3301
40032SOL    HW122103   8.547   8.146   5.979  1.6088 -1.8133 -0.4421
40032SOL    HW222104   8.658   8.163   6.080 -0.4834  1.6569  1.4723
40033SOL     OW22105   4.560   2.001   9.773  0.2836  0.3080 -0.2193
40033SOL    HW122106   4.603   2.038   9.849  0.1772 -2.2144  1.1909
40033SOL    HW222107   4.623   1.937   9.739 -0.3635  0.1709 -1.2140
40034SOL     OW22108   7.866  10.246   1.346 -0.0479  0.5009 -0.2522
40034SOL    HW122109   7.889  10.289   1.429 -0.3883 -0.9779  0.6454
40034SOL    HW222110   7.938  10.185   1.330  2.0274  3.3936 -3.1176
40035SOL     OW22111   3.831   0.702  10.851  0.1750 -0.2359  0.1524
40035SOL    HW122112   3.769   0.774  10.840  0.0022 -0.2783  0.8041
40035SOL    HW222113   3.842   0.694  10.945 -0.0585 -1.2787  0.1094
40036SOL     OW22114   9.377   4.244   3.337 -0.3054 -0.3736 -0.2474
40036SOL    HW122115   9.473   4.252   3.343 -0.3481 -0.2130  0.2945
40036SOL    HW222116   9.351   4.209   3.422 -0.6767 -0.9601 -0.5984
40037SOL     OW22117   0.415   6.855  11.231  0.1521  0.4686  0.4191
40037SOL    HW122118   0.408   6.945  11.262 -1.2227 -0.0769  1.8478
40037SOL    HW222119   0.440   6.805  11.309  0.2220 -0.4744 -0.1920
40038SOL     OW22120   2.248   5.115   5.399  0.2331  0.2998 -0.8071
40038SOL    HW122121   2.218   5.152   5.482 -1.3629  0.3253 -1.3705
40038SOL    HW222122   2.324   5.168   5.375  0.3551  0.6675  0.3360
40039SOL     OW22123  11.221   7.245   7.618 -0.2007 -0.0718 -0.6073
40039SOL    HW122124  11.265   7.321   7.580 -1.1475  1.4428  1.1596
40039SOL    HW222125  11.128   7.259   7.600 -0.7463  0.9371  2.4168
40040SOL     OW22126   7.626   8.506   8.501  0.4922 -0.3924  0.4617
40040SOL    HW122127   7.583   8.508   8.586  0.8681 -0.1630  0.6465
40040SOL    HW222128   7.573   8.444   8.450  2.2840 -3.4091  1.9634
40041SOL     OW22129   3.512   7.849   2.138  0.3314 -0.2154 -0.2735
40041SOL    HW122130   3.580   7.790   2.170  0.1104  0.2490  1.0857
40041SOL    HW222131   3.447   7.852   2.208 -1.3177 -0.9396 -1.6796
40042SOL     OW22132   1.230   6.362   5.371 -0.0620  0.0135 -0.4249
40042SOL    HW122133   1.170   6.352   5.297 -0.2046  0.5457 -0.3877
40042SOL    HW222134   1.317   6.359   5.331 -0.1486  1.0659 -0.7319
40043SOL     OW22135   1.781  10.560   8.009  0.4064 -1.1534  0.2911
40043SOL    HW122136   1.731  10.642   8.015  0.7170 -1.0051  0.9964
40043SOL    HW222137   1.869  10.588   7.983  0.1065 -1.4282 -1.0958
40044SOL     OW22138  10.096  10.173   9.114  0.0691  0.2114  0.1895
40044SOL    HW122139  10.059  10.087   9.137 -1.6865  1.3222  1.8357
40044SOL    HW222140  10.093  10.176   9.019  0.4109 -1.6397  0.0828
40045SOL     OW22141   1.935   0.082   4.318 -0.5854  0.3664 -0.2320
40045SOL    HW122142   1.900   0.169   4.341  0.4851  0.6359  0.4735
40045SOL    HW222143   2.027   0.098   4.296 -0.5510 -0.5001 -0.7679
40046SOL     OW22144   8.654  11.008   4.398  0.0368 -0.0447 -0.1015
40046SOL    HW122145   8.681  11.097   4.375  1.9583 -0.8603 -1.1898
40046SOL    HW222146   8.702  10.987   4.478  0.6265 -0.5563 -0.5778
40047SOL     OW22147   8.400   2.915   8.072  0.1462  0.1106  1.0429
40047SOL    HW122148   8.313   2.903   8.034  0.5692 -1.8179  0.5963
40047SOL    HW222149   8.438   2.986   8.019 -0.4808 -0.2818  0.0227
40048SOL     OW22150   5.256   6.641   3.853 -0.1443 -0.2708  0.1703
40048SOL    HW122151   5.162   6.651   3.835  0.0397 -0.7470 -1.1629
40048SOL    HW222152   5.275   6.551   3.827  0.4313 -0.5933  1.6542
40049SOL     OW22153   6.847   4.036   3.535  0.4364  0.0543  0.4891
40049SOL    HW122154   6.820   4.127   3.520  1.0364  0.0763 -0.6137
40049SOL    HW222155   6.788   3.984   3.481  0.0766 -0.2216  1.1380
40050SOL     OW22156   8.516   5.098   8.267 -0.0061  0.0645 -0.6414
40050SOL    HW122157   8.441   5.099   8.327  0.4873 -1.0781  0.0254
40050SOL    HW222158   8.569   5.173   8.295 -0.1840  0.0221 -0.1731
40051SOL     OW22159   0.980   2.814   8.550  0.2008 -0.3831  0.3973
40051SOL    HW122160   1.037   2.785   8.479  0.9574 -2.5502  1.7728
40051SOL    HW222161   0.893   2.782   8.525 -0.1702  1.4921 -0.9172
40052SOL     OW22162   3.459   2.441   2.456 -0.1140 -0.2675  0.1866
40052SOL    HW122163   3.380   2.387   2.462 -0.7756  0.8107  2.2360
40052SOL    HW222164   3.493   2.442   2.546  1.9047 -0.1816 -0.5212
40053SOL     OW22165   0.515   4.330   4.011 -0.1110  0.3896  0.0057
40053SOL    HW122166   0.608   4.321   3.992  0.0325 -1.5228  1.2871
40053SOL    HW222167   0.497   4.423   4.001  1.7796  0.7022 -0.9062
40054SOL     OW22168   9.955  10.030   3.694  0.0320 -0.1352 -0.4735
40054SOL    HW122169   9.960   9.937   3.671 -0.6002  0.1822 -1.9868
40054SOL    HW222170   9.966  10.076   3.611 -2.0598  1.0836 -0.1322
40055SOL     OW22171   0.199   6.427   6.331 -0.2808  0.3751 -0.3187
40055SOL    HW122172   0.130   6.361   6.338 -1.6004  1.5165 -1.6828
40055SOL    HW222173   0.227   6.444   6.421 -4.6900  2.7535  0.9082
40056SOL     OW22174   2.337   2.818   9.593 -0.7224 -1.0315 -0.0158
40056SOL    HW122175   2.331   2.782   9.505 -4.5784  0.3503 -0.4972
40056SOL    HW222176   2.379   2.750   9.644  1.6813 -1.8814 -2.8447
40057SOL     OW22177   1.182   6.312   0.415  0.2076  0.3711 -0.1312
40057SOL    HW122178   1.156   6.242   0.475 -0.5732  0.8037  0.0403
40057SOL    HW222179   1.122   6.305   0.341 -0.3011  1.2584  0.1798
40058SOL     OW22180   0.921   5.201   5.722 -0.9322 -0.1066  0.3337
40058SOL    HW122181   1.000   5.224   5.672 -2.5061  2.0562 -1.3295
40058SOL    HW222182   0.954   5.148   5.794  1.8600 -0.6086 -1.1421
40059SOL     OW22183   2.746  10.623   9.897 -0.5181 -0.0234  0.0113
40059SOL    HW122184   2.747  10.577   9.813 -0.9642 -0.1572  0.0738
40059SOL    HW222185   2.814  10.582   9.949 -0.9617 -0.6651  0.0936
40060SOL     OW22186   6.736   1.313   7.951  0.1340 -0.2851 -0.1900
40060SOL    HW122187   6.812   1.371   7.953 -0.1665  0.1032  0.4204
40060SOL    HW222188   6.741   1.269   7.867  1.7855 -1.2735  0.3841
40061SOL     OW22189   9.406   7.850   2.547  0.1952 -0.2609  0.3098
40061SOL    HW122190   9.369   7.833   2.634  0.9556  1.3183  0.9754
40061SOL    HW222191   9.424   7.944   2.546  1.5614 -0.4958 -1.0273
40062SOL     OW22192   8.871   4.071   7.710 -0.2230  0.0842  0.0682
40062SOL    HW122193   8.887   3.978   7.724  0.3499  0.4002  1.7216
40062SOL    HW222194   8.799   4.092   7.769  0.5710  0.9559  0.7712
40063SOL     OW22195   6.498   1.278   7.267  0.9507  0.0526 -0.2134
40063SOL    HW122196   6.434   1.271   7.196  1.3509 -0.6977 -0.5152
40063SOL    HW222197   6.558   1.347   7.239  1.9606 -1.2051 -1.3274
40064SOL     OW22198   9.111   0.142   4.049  0.0069 -0.4884  0.1726
40064SOL    HW122199   9.200   0.176   4.040 -0.1975 -0.1166 -0.5576
40064SOL    HW222200   9.056   0.209   4.008 -0.7252 -0.1936  1.5823
40065SOL     OW22201   9.837   5.769   5.078 -0.0032 -0.1011 -0.3787
40065SOL    HW122202   9.816   5.706   5.009  0.9836  0.8189 -1.5602
40065SOL    HW222203   9.832   5.719   5.159 -1.7756 -1.0739 -1.0365
40066SOL     OW22204  10.894   2.850   2.673  0.6756  0.5062 -0.7703
40066SOL    HW122205  10.868   2.877   2.585 -0.1764 -0.1702 -0.7343
40066SOL    HW222206  10.965   2.910   2.696 -0.2595  1.8425 -1.2170
40067SOL     OW22207   6.521  11.113   7.320 -0.1519 -0.6984  0.3056
40067SOL    HW122208   6.544  11.142   7.408 -0.6306  0.0846  0.1891
40067SOL    HW222209   6.601  11.074   7.285 -0.5465 -3.0601  1.8661
40068SOL     OW22210   0.183   5.191   0.235 -0.5794 -0.0802 -0.7371
40068SOL    HW122211   0.195   5.096   0.235 -1.0241 -0.1647 -2.5368
40068SOL    HW222212   0.196   5.217   0.144  1.6314  1.8766  0.0392
40069SOL     OW22213   8.308   4.701   8.346 -0.2666  0.2176  0.0968
40069SOL    HW122214   8.384   4.733   8.299  1.1413  0.8423  2.6517
40069SOL    HW222215   8.338   4.620   8.388 -1.6310 -0.6061 -0.4376
40070SOL     OW22216   5.424   0.377  10.384 -0.1531 -0.2483  0.5828
40070SOL    HW122217   5.447   0.333  10.465 -0.4894  0.4149  1.0519
40070SOL    HW222218   5.359   0.442  10.410 -0.4367 -0.1800 -0.2548
40071SOL     OW22219   7.319   4.327   1.977  0.3420  0.1775  0.2594
40071SOL    HW122220   7.385   4.392   1.999 -1.0724  1.0787  2.2235
40071SOL    HW222221   7.360   4.243   1.997  1.5237  0.5859 -0.4033
40072SOL     OW22222   6.121   1.906   3.408  0.1140  0.4306  0.3617
40072SOL    HW122223   6.186   1.968   3.376  0.4544  0.0934  0.3864
40072SOL    HW222224   6.150   1.885   3.497 -0.1799  0.4839  0.4692
40073SOL     OW22225   8.524   7.850   4.044 -0.0078 -0.0239  0.2619
40073SOL    HW122226   8.490   7.821   4.128  1.2649 -0.5264  0.6383
40073SOL    HW222227   8.465   7.812   3.979  0.6313 -2.1006  0.8276
40074SOL     OW22228   2.980   5.813  10.465  0.4906  0.1917  0.1885
40074SOL    HW122229   2.914   5.782  10.526  1.1211 -1.0523  0.2727
40074SOL    HW222230   2.939   5.806  10.379  0.7365 -1.2439  0.1746
40075SOL     OW22231   2.150   6.712   3.939 -0.0338 -0.2524 -0.4785
40075SOL    HW122232   2.182   6.800   3.958 -1.7841 -0.1459  2.6669
40075SOL    HW222233   2.221   6.671   3.890  1.4601  2.3937 -0.7486
40076SOL     OW22234   3.538   2.236   1.228  0.4384  0.7661  0.1509
40076SOL    HW122235   3.471   2.284   1.180  1.6324  2.1493 -0.2036
40076SOL    HW222236   3.532   2.269   1.318  1.1994  1.5486 -0.0729
40077SOL     OW22237   4.989   2.576   9.335 -0.1954 -0.4278 -0.0925
40077SOL    HW122238   4.915   2.552   9.391 -0.7126 -2.4129 -1.4866
40077SOL    HW222239   4.949   2.623   9.262  0.0833 -0.4325 -0.2493
40078SOL     OW22240   4.551   0.889   1.132 -0.1936  0.2127  0.2353
40078SOL    HW122241   4.579   0.813   1.081 -0.9166  0.8495 -1.1601
40078SOL    HW222242   4.633   0.935   1.152  0.2646 -0.9833  1.2330
40079SOL     OW22243   4.142   4.052   1.319 -0.7553 -0.0712  0.0124
40079SOL    HW122244   4.174   4.107   1.248  1.0199  0.1689  0.9416
40079SOL    HW222245   4.141   3.963   1.283  0.2094  0.0349 -0.3085
40080SOL     OW22246   9.966   7.602   7.090 -0.1507  0.2750 -0.3058
40080SOL    HW122247  10.004   7.690   7.095  1.3862 -0.4100  1.1112
40080SOL    HW222248   9.916   7.602   7.009 -2.3769  3.2752  0.8499
40081SOL     OW22249   3.003   5.623   3.372  0.2827  0.3188 -0.2379
40081SOL    HW122250   2.910   5.613   3.392  0.9348 -3.3331  1.8817
40081SOL    HW222251   3.043   5.653   3.454  1.3351 -1.3813 -0.0875
40082SOL     OW22252   6.509   0.597  10.955 -0.3731 -0.7474  0.4109
40082SOL    HW122253   6.563   0.565  11.027  0.8447  0.2728 -0.0091
40082SOL    HW222254   6.423   0.610  10.994  0.9453  2.8950  2.6954
40083SOL     OW22255   5.373   0.993   1.894  0.1824 -0.1406  0.0308
40083SOL    HW122256   5.448   1.050   1.907 -0.1377  0.3070 -0.0547
40083SOL    HW222257   5.411   0.906   1.879  0.9657  0.6444 -3.8206
40084SOL     OW22258   2.480   0.873   1.870 -0.1778  0.4475 -0.4607
40084SOL    HW122259   2.416   0.861   1.800  1.1418  0.6502 -1.7506
40084SOL    HW222260   2.493   0.968   1.874 -1.6489  0.6252  1.4185
40085SOL     OW22261  10.035  10.454   4.754 -0.4008 -0.6203 -0.7058
40085SOL    HW122262  10.022  10.521   4.687  2.5733 -0.1894 -0.9458
40085SOL    HW222263  10.121  10.417   4.735 -1.1821 -3.2922  0.5196
40086SOL     OW22264   9.629   2.866   0.036  0.3328 -0.2072 -0.1345
40086SOL    HW122265   9.619   2.825   0.122  0.4202 -1.9906 -0.9352
40086SOL    HW222266   9.572   2.815  -0.021 -1.4738  2.3119 -0.7647
40087SOL     OW22267   9.330   2.795   2.965 -0.1787 -0.3397 -0.5574
40087SOL    HW122268   9.292   2.707   2.969  0.0578 -0.3990  2.2791
40087SOL    HW222269   9.268   2.850   3.014  2.2097 -0.0414  2.4155
40088SOL     OW22270  11.039   5.911   4.008  0.3763  0.1967  0.0478
40088SOL    HW122271  11.107   5.963   4.050 -1.1819  1.9711  0.4865
40088SOL    HW222272  11.016   5.960   3.929 -0.8256 -0.0338  0.2345
40089SOL     OW22273  10.049   2.479   2.129  0.4896  0.2071 -0.1092
40089SOL    HW122274   9.997   2.496   2.050  0.6308  1.1440 -0.0082
40089SOL    HW222275  10.137   2.460   2.096 -0.0733 -2.3266 -0.3439
40090SOL     OW22276   4.222   6.957   9.434 -0.1473 -0.7247 -0.8294
40090SOL    HW122277   4.288   6.889   9.422 -0.4977 -1.1501 -0.4167
40090SOL    HW222278   4.269   7.039   9.422  1.2636 -0.8525  2.6174
40091SOL     OW22279   7.997   6.443   5.986 -0.6689  0.0115  0.1296
40091SOL    HW122280   8.058   6.506   5.948 -0.6011  0.0913  0.3654
40091SOL    HW222281   7.972   6.482   6.070  0.5188 -0.9497  0.9547
40092SOL     OW22282   3.423   6.388   0.254 -0.1773 -0.3734  0.6474
40092SOL    HW122283   3.417   6.470   0.204 -1.1611 -0.3673  0.7697
40092SOL    HW222284   3.360   6.329   0.213  1.3787 -1.5031 -0.2039
40093SOL     OW22285  10.037   3.407   1.165  0.0153 -0.2209  0.9091
40093SOL    HW122286  10.126   3.416   1.132 -0.1612 -3.0719 -0.6605
40093SOL    HW222287   9.981   3.423   1.089 -0.6919 -0.7150  1.3131
40094SOL     OW22288   2.297   6.907   0.887 -0.0724  0.0067 -0.3954
40094SOL    HW122289   2.289   6.923   0.793 -2.0592 -2.7211 -0.7717
40094SOL    HW222290   2.208   6.892   0.917  0.5368  0.6702  1.9471
40095SOL     OW22291   1.442   1.736   3.310  0.2165  0.3679  0.4989
40095SOL    HW122292   1.521   1.712   3.261  0.8720 -0.1445  1.7710
40095SOL    HW222293   1.451   1.691   3.394 -1.0338  0.9791  0.9822
40096SOL     OW22294   2.237   2.584   1.520  0.1853  0.2352  0.5311
40096SOL    HW122295   2.186   2.506   1.540 -1.4283  0.7194 -1.3445
40096SOL    HW222296   2.328   2.556   1.528 -0.3565 -1.5402  0.9132
40097SOL     OW22297   0.052   3.690   7.505  0.1023  0.3582  0.3027
40097SOL    HW122298   0.129   3.681   7.449 -1.3004  0.4555 -1.7813
40097SOL    HW222299   0.069   3.767   7.559  0.5902  1.7020 -1.6755
40098SOL     OW22300   0.481   5.378  10.189  0.4987  0.0784  0.6111
40098SOL    HW122301   0.465   5.465  10.154 -3.0949 -1.5269 -2.3669
40098SOL    HW222302   0.429   5.374  10.269 -1.3278 -0.0143 -0.5400
40099SOL     OW22303   4.247   4.136   8.245  0.0382 -0.1532 -0.5194
40099SOL    HW122304   4.324   4.130   8.302  1.1921  0.6418 -1.9402
40099SOL    HW222305   4.229   4.046   8.220  0.1588 -0.4046  0.2651
40100SOL     OW22306   8.090   4.471   3.412 -0.5616 -0.2046  0.1580
40100SOL    HW122307   8.091   4.562   3.382 -2.1371 -0.3808 -0.5683
40100SOL    HW222308   8.055   4.422   3.338 -0.1276 -1.3485  0.6883
40101SOL     OW22309   4.142   7.655   0.167 -0.6583 -0.4547 -0.5928
40101SOL    HW122310   4.184   7.598   0.102  1.0853 -0.2650  0.2951
40101SOL    HW222311   4.203   7.728   0.177 -2.1651  0.8572 -0.6523
40102SOL     OW22312   0.488   7.792  10.114 -0.1766  0.4262  0.1608
40102SOL    HW122313   0.509   7.699  10.114  0.9632  0.6526 -0.4113
40102SOL    HW222314   0.521   7.824  10.198  0.2564  0.4716 -0.0235
40103SOL     OW22315   9.389   8.680   3.315 -0.3808  0.2192  0.6073
40103SOL    HW122316   9.303   8.718   3.296  0.4958  2.0465  0.1433
40103SOL    HW222317   9.445   8.708   3.243  0.9328  0.1902  1.5759
40104SOL     OW22318   8.378   5.967   9.473  0.1437 -0.1097 -0.3794
40104SOL    HW122319   8.363   6.061   9.463  1.0324 -0.0309 -1.1195
40104SOL    HW222320   8.404   5.956   9.564  3.9375  0.9924 -1.1336
40105SOL     OW22321   7.199   8.660  10.516  0.1206  0.4002 -0.3678
40105SOL    HW122322   7.114   8.633  10.550  0.8658 -0.0835  1.1770
40105SOL    HW222323   7.262   8.604  10.560  1.3899  1.9642 -0.1068
40106SOL     OW22324   7.414   5.186   2.860 -0.1874  1.1684  0.4776
40106SOL    HW122325   7.334   5.153   2.818  0.6343  1.1079 -1.1163
40106SOL    HW222326   7.404   5.281   2.861  0.2175  1.2426 -0.8360
40107SOL     OW22327   6.788   0.832   6.726 -0.9901  0.0110 -0.3150
40107SOL    HW122328   6.868   0.849   6.777 -1.7327 -2.5265  1.9227
40107SOL    HW222329   6.748   0.918   6.715  0.2538  0.9276  1.6930
40108SOL     OW22330   8.290   2.654   3.878  0.5013 -0.0656 -0.0365
40108SOL    HW122331   8.226   2.720   3.907 -0.2934 -0.8487  0.0099
40108SOL    HW222332   8.326   2.691   3.797 -2.0670 -0.8467 -1.6554
40109SOL     OW22333   7.115   1.561   5.670 -1.0321 -0.0800 -0.0202
40109SOL    HW122334   7.163   1.507   5.733  0.6266  0.9595 -0.3376
40109SOL    HW222335   7.042   1.597   5.721 -0.7187 -0.6270  0.8471
40110SOL     OW22336   4.380   1.765   0.694  0.3276  0.9044 -0.4122
40110SOL    HW122337   4.397   1.778   0.601  0.9387  1.8156 -0.1872
40110SOL    HW222338   4.446   1.819   0.739 -0.5704  1.2701  0.5276
40111SOL     OW22339   1.976   0.029   9.320 -0.0890 -0.0591  0.3616
40111SOL    HW122340   2.056  -0.009   9.283 -2.1063 -2.1002 -2.3276
40111SOL    HW222341   1.985   0.123   9.307  0.5722 -0.4613 -3.0574
40112SOL     OW22342   4.780   1.974   0.333 -0.3380  0.0653 -0.3561
40112SOL    HW122343   4.744   2.062   0.334  0.2184  0.3242 -1.2944
40112SOL    HW222344   4.779   1.946   0.424 -1.3866  0.6792 -0.1674
40113SOL     OW22345   0.678   1.853   0.241  0.7902  0.5587 -0.1542
40113SOL    HW122346   0.764   1.820   0.218 -0.5722 -3.7079  0.0266
40113SOL    HW222347   0.691   1.903   0.321  3.5785  4.0641 -2.4753
40114SOL     OW22348  10.539   1.136   9.139  0.3398 -0.1768 -0.1500
40114SOL    HW122349  10.633   1.139   9.119  0.3291 -1.5036 -0.4768
40114SOL    HW222350  10.521   1.220   9.181  1.8872 -0.3091  0.8450
40115SOL     OW22351   9.636  10.543   7.382  0.2267 -0.3432  0.2348
40115SOL    HW122352   9.715  10.591   7.405 -0.2395  0.6873 -0.2548
40115SOL    HW222353   9.575  10.610   7.352 -0.1929 -1.3042 -1.1538
40116SOL     OW22354   0.123   9.331   1.481  0.4011 -0.1965  0.0783
40116SOL    HW122355   0.082   9.280   1.411  2.4790 -1.7426 -0.1054
40116SOL    HW222356   0.176   9.396   1.437  0.4857 -0.1433  0.2561
40117SOL     OW22357   7.547  10.402   7.177  0.0963 -0.0288 -0.8849
40117SOL    HW122358   7.513  10.476   7.128  0.3103  1.2288  0.7573
40117SOL    HW222359   7.495  10.401   7.258  0.1503 -1.6433 -0.8301
40118SOL     OW22360   5.060  11.163   9.581 -0.2356 -0.5489 -0.1066
40118SOL    HW122361   5.046  11.256   9.598  0.6759 -0.5549  0.7434
40118SOL    HW222362   5.122  11.161   9.508 -0.9170 -0.5053 -0.6977
40119SOL     OW22363   2.044   1.608   9.735 -0.1888 -0.2427 -0.1715
40119SOL    HW122364   2.101   1.536   9.708  2.8248  1.3410  1.4785
40119SOL    HW222365   1.966   1.565   9.771  1.0702 -2.6448 -0.1515
40120SOL     OW22366   8.139   6.723   5.858 -0.1611  0.4448 -0.0923
40120SOL    HW122367   8.141   6.779   5.781 -0.0808 -0.3321 -0.6599
40120SOL    HW222368   8.221   6.673   5.855 -0.2866  0.2032  0.3361
40121SOL     OW22369   6.676   5.741   4.065 -0.7758 -0.1549  0.8432
40121SOL    HW122370   6.760   5.724   4.107 -0.6023 -0.8781  0.2295
40121SOL    HW222371   6.616   5.761   4.137  0.0998  1.2274  1.2348
40122SOL     OW22372   7.292   7.935   9.318 -0.4501  1.0386  0.0199
40122SOL    HW122373   7.385   7.923   9.336 -0.3645  2.1203  0.3457
40122SOL    HW222374   7.256   7.972   9.398 -1.3870 -0.3033  0.2659
40123SOL     OW22375   9.931   5.274   6.924 -0.5944  0.3158  0.0699
40123SOL    HW122376   9.955   5.229   7.005  3.0280 -0.2851 -1.1407
40123SOL    HW222377   9.860   5.222   6.887  0.2929 -1.6819  1.0332
40124SOL     OW22378   3.988   7.755   9.842 -0.0001 -0.1737 -0.1812
40124SOL    HW122379   4.069   7.803   9.825  0.0922  0.1214  1.0025
40124SOL    HW222380   3.918   7.817   9.820  0.0985 -0.1794 -0.5166
40125SOL     OW22381   8.919   7.692   0.711 -0.2476  0.9951  0.9410
40125SOL    HW122382   8.920   7.648   0.796  0.0941  1.0143  0.9487
40125SOL    HW222383   8.896   7.623   0.648 -4.6796  1.7210  1.4413
40126SOL     OW22384   1.497   9.140   0.156  1.0131  0.0710  0.1407
40126SOL    HW122385   1.507   9.144   0.061  0.6312 -0.3069  0.0844
40126SOL    HW222386   1.434   9.209   0.177  0.2651 -0.5541 -0.0032
40127SOL     OW22387   1.374   2.505   9.980 -0.8010  0.4345  0.8163
40127SOL    HW122388   1.414   2.571   9.925 -0.8964  0.1738  0.4324
40127SOL    HW222389   1.352   2.551  10.061  0.5569  0.4993  1.1604
40128SOL     OW22390   4.244   8.381   1.083  0.0449 -0.1169  0.0853
40128SOL    HW122391   4.198   8.346   1.006 -1.3356  0.5698  0.5806
40128SOL    HW222392   4.269   8.303   1.133 -0.4339 -0.5072 -0.2708
40129SOL     OW22393   6.978  10.492   8.296 -0.8637  0.2301 -0.0797
40129SOL    HW122394   7.060  10.443   8.300 -1.9474 -1.7695 -1.0174
40129SOL    HW222395   6.995  10.561   8.232  0.4039  0.5494  0.5701
40130SOL     OW22396   4.436   0.031   1.567  0.1650 -0.2216  0.4226
40130SOL    HW122397   4.372   0.098   1.540 -0.6098 -1.4299 -0.8890
40130SOL    HW222398   4.387  -0.028   1.624  0.8802  0.3606  1.6827
40131SOL     OW22399   4.183   7.534   0.516  0.7879 -0.6013  0.5726
40131SOL    HW122400   4.105   7.541   0.461  0.5408 -0.9582  0.8741
40131SOL    HW222401   4.250   7.581   0.467  0.1534  0.5353  0.7527
40132SOL     OW22402   0.386   0.804   3.651 -0.7760  0.0705  0.2191
40132SOL    HW122403   0.348   0.839   3.571 -0.4467 -2.1978 -1.0148
40132SOL    HW222404   0.471   0.849   3.659 -0.6553  0.0791 -0.9163
40133SOL     OW22405  10.521   9.477  10.589 -0.1966 -0.0275  0.4272
40133SOL    HW122406  10.548   9.531  10.515 -0.9783  2.1638  1.6392
40133SOL    HW222407  10.493   9.395  10.550  0.7864  0.5204 -1.5445
40134SOL     OW22408  10.796   7.057   6.422 -0.0966 -0.3740 -0.2338
40134SOL    HW122409  10.840   6.997   6.483 -2.6648 -1.6182  0.5279
40134SOL    HW222410  10.736   7.001   6.373 -0.3198  1.1253 -1.7617
40135SOL     OW22411   8.284   5.089   5.300  0.6802  1.0238 -0.0649
40135SOL    HW122412   8.362   5.056   5.255  1.6049  1.9649  0.7730
40135SOL    HW222413   8.238   5.140   5.233  0.9223  0.6888 -0.4956
40136SOL     OW22414   0.391   5.102   7.529 -0.5040  0.5255  0.1746
40136SOL    HW122415   0.348   5.120   7.613 -0.5537  0.7518  0.1019
40136SOL    HW222416   0.321   5.108   7.464 -0.7423 -1.0390  0.2579
40137SOL     OW22417   1.006   5.284   8.590  0.1773  0.4063  0.1911
40137SOL    HW122418   1.012   5.359   8.650 -1.1004 -1.8726  3.4234
40137SOL    HW222419   0.916   5.255   8.597  1.2029 -3.0414  1.3244
40138SOL     OW22420   5.408   4.539   7.405  0.4643  0.2757 -0.5094
40138SOL    HW122421   5.376   4.602   7.340  2.3674  0.2658 -1.5031
40138SOL    HW222422   5.400   4.586   7.488  1.7334  1.8480 -1.2193
40139SOL     OW22423   1.505   3.036   6.411 -0.3692 -0.2691  0.0158
40139SOL    HW122424   1.518   3.128   6.391 -0.2435 -0.1297  0.7295
40139SOL    HW222425   1.430   3.034   6.470 -1.5962 -0.7920 -1.4966
40140SOL     OW22426   6.261   8.050   0.076  0.1046 -0.1679 -0.7348
40140SOL    HW122427   6.321   8.061   0.149  1.6698  2.1207 -2.2384
40140SOL    HW222428   6.310   8.080  -0.001 -2.4544  0.4320 -2.2579
40141SOL     OW22429   3.368   6.649   3.982  0.0079  0.1525  0.1756
40141SOL    HW122430   3.417   6.663   3.901  0.4780  2.6519  0.8100
40141SOL    HW222431   3.287   6.699   3.970 -0.2440 -0.0516  0.9694
40142SOL     OW22432   6.064   9.045   1.557 -0.3887  0.0054 -0.6175
40142SOL    HW122433   6.142   9.056   1.612 -0.8518 -1.8927  0.5153
40142SOL    HW222434   6.090   8.981   1.491 -0.5532  0.5043 -1.1766
40143SOL     OW22435  10.386   3.021   3.933 -0.2737 -0.4320  0.3208
40143SOL    HW122436  10.391   3.108   3.973 -0.8460 -0.2501  0.0183
40143SOL    HW222437  10.477   2.996   3.918 -0.0293 -0.6877  2.0877
40144SOL     OW22438   9.720   3.707   9.450  0.0556 -0.2024  0.0140
40144SOL    HW122439   9.675   3.735   9.370 -0.3530 -0.2898  0.2103
40144SOL    HW222440   9.813   3.708   9.426  0.2894  3.2115  0.5280
40145SOL     OW22441   5.149   7.302   3.266 -0.2783 -0.3682  0.2114
40145SOL    HW122442   5.219   7.268   3.211 -0.5769 -2.3870  0.9915
40145SOL    HW222443   5.193   7.360   3.328  0.5065 -0.5953 -0.1271
40146SOL     OW22444   5.852   9.347  10.023 -0.5188 -0.1244 -0.0542
40146SOL    HW122445   5.902   9.414   9.978  2.4385 -0.8786  1.8145
40146SOL    HW222446   5.836   9.383  10.110 -0.9121 -0.9566  0.2323
40147SOL     OW22447   0.306   1.729   3.328  0.5936 -0.0465  0.0252
40147SOL    HW122448   0.225   1.687   3.358  1.1060  0.3349  2.1032
40147SOL    HW222449   0.334   1.782   3.402  0.7459  2.9224 -1.9756
40148SOL     OW22450   9.233   9.837   2.840  0.2245  0.5343 -0.0403
40148SOL    HW122451   9.207   9.778   2.769  0.2064  0.2618  0.1917
40148SOL    HW222452   9.157   9.894   2.853  0.0221  0.2203  0.1395
40149SOL     OW22453   8.258   8.665   9.100 -0.0452  0.3553 -0.3359
40149SOL    HW122454   8.182   8.649   9.044  0.5114 -0.4241 -0.8900
40149SOL    HW222455   8.333   8.646   9.044  0.5368  0.1135  0.5153
40150SOL     OW22456   0.657   1.486   1.164  0.9468 -0.0287 -0.0878
40150SOL    HW122457   0.704   1.408   1.193 -0.5867 -0.3578  1.7257
40150SOL    HW222458   0.617   1.521   1.244 -0.3629  1.2426 -1.2456
40151SOL     OW22459   2.578  10.742   8.981 -0.2044 -0.0648 -0.0861
40151SOL    HW122460   2.561  10.700   8.897 -0.8664 -2.5608  1.2036
40151SOL    HW222461   2.621  10.825   8.958 -2.9487  0.7599 -2.9909
40152SOL     OW22462   3.533  10.248   0.502  0.1136  0.2640  0.3397
40152SOL    HW122463   3.518  10.319   0.439 -1.1425  1.1024  1.5335
40152SOL    HW222464   3.470  10.180   0.478  0.8254 -0.1719 -0.3547
40153SOL     OW22465   4.939  10.731  10.604  0.2169 -0.0515 -0.6585
40153SOL    HW122466   5.027  10.695  10.590  0.1600 -0.2519 -0.5070
40153SOL    HW222467   4.886  10.655  10.628 -0.0387  0.0428 -0.9328
40154SOL     OW22468   1.132   0.392   5.526  0.1436  0.2861 -0.1123
40154SOL    HW122469   1.157   0.346   5.606 -3.9836 -0.5773  0.9275
40154SOL    HW222470   1.138   0.326   5.458 -1.0363 -0.4416  0.4606
40155SOL     OW22471   2.441  10.126   4.696 -0.3547 -0.3087 -0.3750
40155SOL    HW122472   2.411  10.103   4.784 -1.1130  0.4785 -0.4055
40155SOL    HW222473   2.389  10.203   4.673  0.8294  0.3495 -0.9491
40156SOL     OW22474   7.792   3.634   9.415 -0.2258  0.1334  0.2641
40156SOL    HW122475   7.873   3.595   9.447 -0.2657  0.7380  1.1626
40156SOL    HW222476   7.723   3.590   9.464 -0.2862  1.0966  1.0920
40157SOL     OW22477   3.020   4.256   7.703  0.3676  0.6336 -0.2508
40157SOL    HW122478   2.999   4.185   7.642  1.0290  0.3005 -0.0995
40157SOL    HW222479   2.959   4.325   7.680 -0.1419  0.0975 -0.5499
40158SOL     OW22480   3.185   0.988   5.239 -0.2111  0.8070 -0.4307
40158SOL    HW122481   3.273   0.965   5.207  0.2526  2.0021 -0.0706
40158SOL    HW222482   3.154   1.054   5.176 -1.2017 -0.1807 -1.0190
40159SOL     OW22483   5.771   2.433   8.712 -0.0568  0.1988 -0.0821
40159SOL    HW122484   5.851   2.414   8.762 -0.5563  0.4701  0.8504
40159SOL    HW222485   5.707   2.369   8.743 -1.0481  1.7865  1.3594
40160SOL     OW22486   7.198   4.206   1.763  0.0929 -0.3220  0.3878
40160SOL    HW122487   7.223   4.260   1.839  0.1952 -0.9270  0.7933
40160SOL    HW222488   7.240   4.121   1.780  0.8540 -0.1961 -0.7895
40161SOL     OW22489  10.244   7.259   8.532  0.3782  0.5104  0.5889
40161SOL    HW122490  10.237   7.179   8.584  0.5603  0.1791  0.1121
40161SOL    HW222491  10.155   7.276   8.501  0.4647  0.0892  0.1005
40162SOL     OW22492   3.658   1.262   1.137  0.7492 -0.2823 -0.2740
40162SOL    HW122493   3.610   1.339   1.105  1.2301  0.7081  1.2759
40162SOL    HW222494   3.590   1.205   1.174  0.3626 -0.7466 -1.6402
40163SOL     OW22495   4.318   7.673   2.739 -0.0791  0.5065  0.4640
40163SOL    HW122496   4.369   7.611   2.687 -0.3769 -0.2838  1.0964
40163SOL    HW222497   4.237   7.685   2.690  0.2891  0.9786 -0.0349
40164SOL     OW22498   3.945   7.183   2.995 -0.0550  0.6511 -0.0059
40164SOL    HW122499   3.886   7.257   3.009 -1.0420  0.3357 -2.1384
40164SOL    HW222500   4.024   7.223   2.956 -1.5245  0.4851 -3.5446
40165SOL     OW22501   0.597   5.031  10.541 -0.2184  0.2920  0.1852
40165SOL    HW122502   0.528   4.991  10.489  0.1933 -0.3234  0.1017
40165SOL    HW222503   0.558   5.043  10.628 -0.2068 -0.7245  0.3437
40166SOL     OW22504   4.058   7.442   7.637 -0.1027  0.2086 -0.3299
40166SOL    HW122505   4.040   7.469   7.547 -0.0097 -0.3640 -0.5244
40166SOL    HW222506   4.129   7.500   7.666  1.4553 -1.0566 -1.4035
40167SOL     OW22507   4.097   1.382   8.446 -0.3697  0.0600  0.1189
40167SOL    HW122508   4.040   1.397   8.521 -1.2059  0.4184 -0.5612
40167SOL    HW222509   4.126   1.469   8.419 -0.6177  0.0013 -0.3665
40168SOL     OW22510   8.772   5.722   3.354  0.1501 -0.1525  0.8301
40168SOL    HW122511   8.705   5.788   3.376 -0.2459 -0.1016 -0.4300
40168SOL    HW222512   8.777   5.724   3.258 -0.5963 -2.6673  0.6703
40169SOL     OW22513   0.119   9.289   2.716 -0.3689 -0.3273 -0.5979
40169SOL    HW122514   0.124   9.325   2.628  1.2981  2.0023  0.3361
40169SOL    HW222515   0.026   9.276   2.733 -1.0613  2.7378 -1.4270
40170SOL     OW22516   1.231   9.620   0.588 -0.8705 -0.0614  0.1777
40170SOL    HW122517   1.210   9.635   0.680  0.2210  0.7189  0.3210
40170SOL    HW222518   1.174   9.548   0.562  0.0237 -1.5239  1.9624
40171SOL     OW22519   4.452   5.620   3.204  0.2861 -0.1781 -0.1454
40171SOL    HW122520   4.435   5.532   3.239 -0.6818  0.9595  2.4874
40171SOL    HW222521   4.385   5.675   3.244  1.9254  2.0872 -0.3413
40172SOL     OW22522   3.020   2.537  11.061  0.4865 -0.0696  0.3693
40172SOL    HW122523   2.967   2.460  11.082  1.8493 -1.0423  0.3922
40172SOL    HW222524   2.997   2.558  10.971 -1.9788  1.2757  1.2384
40173SOL     OW22525   5.396   9.713   2.563  0.0043 -0.0983  0.1957
40173SOL    HW122526   5.386   9.770   2.487  0.7377  2.7059  2.0319
40173SOL    HW222527   5.385   9.772   2.638 -0.7460 -2.7257  2.2879
40174SOL     OW22528   2.956   1.996  10.972 -0.1179 -0.2713  0.2075
40174SOL    HW122529   2.999   2.007  10.887 -0.3528 -0.8373  0.0041
40174SOL    HW222530   2.997   2.060  11.029  1.1118 -0.9006  0.0646
40175SOL     OW22531   0.681   7.570   2.196  0.2331  0.3350 -0.1075
40175SOL    HW122532   0.641   7.490   2.160  1.4960 -1.1002  1.5007
40175SOL    HW222533   0.769   7.571   2.158  1.1079 -0.4744  1.7770
40176SOL     OW22534  11.035   3.954   1.866  0.2400 -0.4284 -0.3617
40176SOL    HW122535  11.081   4.034   1.890 -0.5442  0.5638 -1.9898
40176SOL    HW222536  11.102   3.886   1.870  1.1615  0.4755  0.0612
40177SOL     OW22537   7.423   6.911   9.683 -0.5834  0.1785 -0.2986
40177SOL    HW122538   7.415   6.830   9.633 -2.0008 -0.8395  1.4712
40177SOL    HW222539   7.459   6.884   9.768  0.4662  1.6642 -0.2193
40178SOL     OW22540   3.414   7.544   7.984  0.1816 -0.0729 -1.0691
40178SOL    HW122541   3.368   7.508   7.908 -3.0511  1.7500 -0.2157
40178SOL    HW222542   3.506   7.529   7.967 -0.6280 -3.5792 -3.2603
40179SOL     OW22543   8.860   2.702   6.661  0.1520 -0.0406  0.8320
40179SOL    HW122544   8.916   2.656   6.598  0.4543 -0.1923  1.2057
40179SOL    HW222545   8.773   2.666   6.646 -0.3484  1.8062 -1.3444
40180SOL     OW22546   8.724   2.940   4.843  0.0533  0.1252 -0.8796
40180SOL    HW122547   8.744   3.031   4.866 -0.1604 -0.0474  0.0066
40180SOL    HW222548   8.787   2.888   4.893 -1.3736 -0.3278  0.5380
40181SOL     OW22549   5.575   6.310   4.224 -0.2804  0.4355  0.6500
40181SOL    HW122550   5.524   6.343   4.150 -1.9535 -3.0055  0.0563
40181SOL    HW222551   5.539   6.356   4.300 -0.9724  1.5071 -0.2896
40182SOL     OW22552   3.589   4.334   0.344 -0.7461  0.2118 -0.2119
40182SOL    HW122553   3.512   4.278   0.354  0.9684 -2.8482 -2.6403
40182SOL    HW222554   3.634   4.301   0.266  2.9245  1.9841  0.9064
40183SOL     OW22555   9.230   2.646   8.849 -0.1147  0.4076 -0.4000
40183SOL    HW122556   9.235   2.671   8.757  0.4630 -1.2309 -0.8500
40183SOL    HW222557   9.287   2.710   8.893  1.3366 -0.0617 -1.4927
40184SOL     OW22558   3.916  11.171   5.721 -0.4052  0.4141  0.2662
40184SOL    HW122559   3.832  11.136   5.752  0.3777  0.2372  2.3266
40184SOL    HW222560   3.980  11.103   5.743  0.4242  0.9427 -0.4477
40185SOL     OW22561   6.259   4.326   2.794 -0.4799  0.5226 -0.0893
40185SOL    HW122562   6.320   4.273   2.847 -1.0844 -0.9380 -0.8106
40185SOL    HW222563   6.180   4.332   2.848 -0.8751 -0.4451 -0.5339
40186SOL     OW22564   6.625   6.563   2.677  0.3347 -0.0146  0.2461
40186SOL    HW122565   6.613   6.495   2.743  0.0602 -1.3707 -1.1408
40186SOL    HW222566   6.540   6.570   2.634  0.7688  0.1298 -0.6040
40187SOL     OW22567   8.946   7.168   7.795 -0.4646 -0.5208  0.5949
40187SOL    HW122568   9.005   7.128   7.859  1.7271  0.2166 -0.8444
40187SOL    HW222569   8.925   7.254   7.831  2.5750  0.8302 -0.5402
40188SOL     OW22570   6.946   5.518   8.742  0.2100  0.3966 -0.2949
40188SOL    HW122571   7.010   5.589   8.738  0.3276  0.3265  0.2346
40188SOL    HW222572   6.998   5.438   8.733  0.4664  0.2371  1.9061
40189SOL     OW22573  11.119   6.316   6.671 -0.0024  0.2023 -1.5280
40189SOL    HW122574  11.107   6.227   6.637 -1.0025 -0.7136  0.9589
40189SOL    HW222575  11.106   6.373   6.595 -0.4635 -1.7263 -2.9666
40190SOL     OW22576   1.160   3.378   5.770  0.6870  0.0571 -0.1249
40190SOL    HW122577   1.117   3.425   5.841 -0.6577 -1.7622  0.3392
40190SOL    HW222578   1.144   3.432   5.692  0.4270  1.0549  0.6029
40191SOL     OW22579   2.356   0.732   4.406  0.4771 -0.4453 -0.1644
40191SOL    HW122580   2.435   0.762   4.363  0.6960 -2.0207 -0.9391
40191SOL    HW222581   2.305   0.811   4.422  1.6132  0.4461 -0.8545
40192SOL     OW22582   9.969   3.929  10.097  0.6545  0.1634  0.6847
40192SOL    HW122583   9.892   3.965  10.141  0.3405  0.5900 -0.1779
40192SOL    HW222584   9.948   3.837  10.082  0.1342  0.3702  0.0968
40193SOL     OW22585   1.473   8.776   2.633 -0.6079  0.2177 -0.8116
40193SOL    HW122586   1.414   8.834   2.585  0.1035 -0.5538 -2.6772
40193SOL    HW222587   1.551   8.769   2.579  0.3092 -0.5848  0.5395
40194SOL     OW22588  11.195   4.811   6.668 -0.1241 -0.5430  0.1703
40194SOL    HW122589  11.238   4.800   6.753 -0.4611 -2.5464  0.1259
40194SOL    HW222590  11.260   4.857   6.615 -0.0012  0.9781  1.5472
40195SOL     OW22591   4.260   3.265   1.489 -0.2709 -0.1494 -0.2142
40195SOL    HW122592   4.199   3.329   1.524  0.1164 -0.3276  0.8461
40195SOL    HW222593   4.232   3.182   1.528  2.3001  0.1696  2.6974
40196SOL     OW22594   0.253   8.931   2.095  0.2652 -0.8699  0.1223
40196SOL    HW122595   0.198   9.001   2.060 -2.1321 -3.2808 -1.3202
40196SOL    HW222596   0.334   8.936   2.045 -1.3384 -1.3937 -2.7554
40197SOL     OW22597   5.374  10.253   9.705 -0.1370  0.2498 -0.2723
40197SOL    HW122598   5.446  10.196   9.729 -0.4222 -0.3370 -0.7756
40197SOL    HW222599   5.371  10.249   9.609  0.5251  1.9637 -0.4014
40198SOL     OW22600   4.270   1.736   2.843  0.6998 -0.0736  0.3594
40198SOL    HW122601   4.349   1.736   2.898  0.3563 -2.1561  0.9461
40198SOL    HW222602   4.221   1.812   2.872  1.3010 -0.2027  1.8245
40199SOL     OW22603   4.255   5.244  10.974  0.1408 -0.1029 -0.1693
40199SOL    HW122604   4.206   5.325  10.956  0.9414  0.4458  0.0939
40199SOL    HW222605   4.201   5.175  10.935 -0.0806  0.6500 -1.2393
40200SOL     OW22606   4.269   6.681   2.690  0.1708  0.3935 -0.1746
40200SOL    HW122607   4.355   6.722   2.699  0.9625 -1.3485  0.5488
40200SOL    HW222608   4.218   6.715   2.765  0.2957  1.2231 -0.4573
40201SOL     OW22609  11.017   0.814   5.637  0.5738 -0.1372  0.0548
40201SOL    HW122610  11.068   0.830   5.717  1.3261 -0.2911 -0.3793
40201SOL    HW222611  11.029   0.720   5.620  1.8134  0.2136 -1.1525
40202SOL     OW22612   9.981   5.789   9.099  0.6061 -0.0688 -0.2064
40202SOL    HW122613   9.886   5.785   9.090  0.5540 -2.7845  0.5284
40202SOL    HW222614   9.996   5.828   9.185  0.1394 -0.0778 -0.1200
40203SOL     OW22615   0.630   1.559   8.536  0.4973 -0.3367 -0.4538
40203SOL    HW122616   0.552   1.504   8.536 -0.2501  0.6364 -2.3562
40203SOL    HW222617   0.615   1.623   8.606  1.8127 -2.9846  2.4581
40204SOL     OW22618   0.069   9.123   9.105 -0.1601  0.0898  0.2791
40204SOL    HW122619   0.009   9.197   9.118 -1.3293 -0.0250 -3.3185
40204SOL    HW222620   0.151   9.152   9.143 -0.6211  3.2742 -0.8106
40205SOL     OW22621   6.898   9.375   4.576  0.7307  0.3584 -0.1171
40205SOL    HW122622   6.862   9.373   4.665 -0.0333  1.2348 -0.3853
40205SOL    HW222623   6.966   9.308   4.576  0.1450 -0.2676  0.8729
40206SOL     OW22624   2.338   0.981  11.106  0.4545 -0.1433 -0.6922
40206SOL    HW122625   2.363   1.050  11.168  0.7666 -0.6595 -0.2280
40206SOL    HW222626   2.422   0.944  11.077  0.3548  0.7128 -2.1614
40207SOL     OW22627   7.397  11.021   8.522 -0.6493  0.1321  0.3718
40207SOL    HW122628   7.446  11.103   8.517  1.3522 -1.0620 -1.2402
40207SOL    HW222629   7.400  10.996   8.614 -1.5041  1.9442  0.9245
40208SOL     OW22630  10.829   5.187  10.180  1.0365  0.1220 -0.0528
40208SOL    HW122631  10.800   5.102  10.211  0.8446  1.0747  2.6367
40208SOL    HW222632  10.762   5.214  10.117 -0.2695 -0.6068  0.9837
40209SOL     OW22633   9.640   0.474   6.976  1.0074  0.1825  0.3179
40209SOL    HW122634   9.617   0.435   7.061  0.2329 -1.5171 -0.6209
40209SOL    HW222635   9.571   0.537   6.959  0.7262 -0.0480  0.5892
40210SOL     OW22636   9.588   8.474   2.404  0.4878 -0.1967  0.0093
40210SOL    HW122637   9.679   8.467   2.375  0.8604 -1.3707  1.3059
40210SOL    HW222638   9.595   8.502   2.496 -0.5028  0.4013 -0.0825
40211SOL     OW22639   1.645  10.867   0.517  1.0890 -0.0972 -0.3686
40211SOL    HW122640   1.660  10.795   0.455 -0.4039 -0.3946 -0.4229
40211SOL    HW222641   1.641  10.824   0.602 -1.6108 -0.3994 -0.5691
40212SOL     OW22642   0.697   4.731   9.787 -0.3700  0.2444 -0.2560
40212SOL    HW122643   0.771   4.704   9.732 -1.5837  0.8948 -2.3143
40212SOL    HW222644   0.630   4.758   9.725 -1.5286  1.8699  1.5929
40213SOL     OW22645  10.286   4.174   8.711 -0.1221 -0.1368  0.1686
40213SOL    HW122646  10.357   4.234   8.688 -0.8316  0.1692 -1.3732
40213SOL    HW222647  10.216   4.196   8.650 -0.1410 -3.0940 -1.0118
40214SOL     OW22648   0.780  11.168   9.387 -0.0476 -0.5429  0.2857
40214SOL    HW122649   0.866  11.204   9.369 -1.0488  0.7800 -2.3268
40214SOL    HW222650   0.776  11.088   9.334 -0.6244 -0.2564 -0.1191
40215SOL     OW22651   4.376   8.688   9.491 -0.2543 -0.2400 -0.2131
40215SOL    HW122652   4.349   8.772   9.455  0.1309  0.5672  1.3026
40215SOL    HW222653   4.307   8.627   9.464 -1.6290  0.9859  0.3777
40216SOL     OW22654   0.925   6.192   3.685  0.1517 -0.1399 -0.5532
40216SOL    HW122655   0.929   6.154   3.773  2.9517  1.8679  0.3375
40216SOL    HW222656   0.832   6.191   3.663 -0.6476 -0.8327  2.3711
40217SOL     OW22657  10.712   2.947   0.119  0.0906 -0.7499 -0.5623
40217SOL    HW122658  10.737   2.953   0.027  1.6715 -1.7724 -0.2397
40217SOL    HW222659  10.622   2.914   0.118  0.3703 -1.5246 -1.7318
40218SOL     OW22660   8.324   4.406   0.827  0.2434 -0.1103  0.0598
40218SOL    HW122661   8.411   4.440   0.850  0.8401 -0.4667 -1.5080
40218SOL    HW222662   8.305   4.341   0.895  1.5580 -0.5790  0.0086
40219SOL     OW22663  11.024   9.678   1.556 -0.3374  0.0157 -0.0278
40219SOL    HW122664  11.028   9.594   1.510 -1.5769 -0.4817  0.7309
40219SOL    HW222665  11.076   9.665   1.635  1.6925  0.8349 -1.1483
40220SOL     OW22666   0.958   8.275   3.099  0.1743  0.3397 -0.9303
40220SOL    HW122667   0.893   8.254   3.032  0.0401 -1.5952 -0.2806
40220SOL    HW222668   0.947   8.368   3.116 -1.5177  0.3294 -1.7959
40221SOL     OW22669  10.820   7.589   8.389  0.1863  0.5226  0.2731
40221SOL    HW122670  10.846   7.509   8.344  0.5171 -0.0949  1.5116
40221SOL    HW222671  10.879   7.656   8.356  0.1957  0.1643 -0.4538
40222SOL     OW22672   9.743   9.331   3.848  0.0885 -0.0917  0.2505
40222SOL    HW122673   9.778   9.258   3.796  1.2988 -0.9632  2.1564
40222SOL    HW222674   9.821   9.373   3.885 -0.5307  2.6346 -1.2930
40223SOL     OW22675   1.524   2.851   5.320 -0.5348  0.1426 -1.1361
40223SOL    HW122676   1.602   2.798   5.302 -0.1084  0.5046 -0.3894
40223SOL    HW222677   1.557   2.926   5.369 -1.3101  0.4749 -1.1186
40224SOL     OW22678   7.430  10.112   0.443 -0.4310  0.3963  0.6474
40224SOL    HW122679   7.364  10.151   0.385 -0.9139  1.8052  2.0553
40224SOL    HW222680   7.418  10.018   0.435  1.2241  0.3093 -3.4532
40225SOL     OW22681  10.189   2.151   2.662  0.1645  0.1674 -0.1554
40225SOL    HW122682  10.233   2.066   2.661 -0.7162 -0.3816  1.7805
40225SOL    HW222683  10.108   2.137   2.613 -0.3803 -0.3912  0.8642
40226SOL     OW22684   4.998   2.353   4.557  0.2669  0.2388  0.0632
40226SOL    HW122685   5.062   2.289   4.525 -0.0755 -1.3355  2.2748
40226SOL    HW222686   5.042   2.437   4.551  1.4852 -0.4484 -1.0701
40227SOL     OW22687   2.521   7.430   3.956  0.6169 -1.0733 -0.0782
40227SOL    HW122688   2.496   7.383   4.036  2.1864 -0.4030  0.8419
40227SOL    HW222689   2.576   7.501   3.986  2.6094 -1.7494 -1.8844
40228SOL     OW22690   6.169   1.230   7.503 -0.3824 -0.5197  0.1756
40228SOL    HW122691   6.225   1.282   7.445  1.3935  1.1688  3.1518
40228SOL    HW222692   6.109   1.293   7.542 -2.4088 -1.8261 -0.6645
40229SOL     OW22693   9.168   5.566   0.651  0.0384 -1.1685 -0.0762
40229SOL    HW122694   9.218   5.622   0.592  0.5600  0.2450  1.6277
40229SOL    HW222695   9.080   5.562   0.613 -0.0305  0.8602 -0.2303
40230SOL     OW22696   8.402   0.142   1.840  0.0230 -0.7392  0.0470
40230SOL    HW122697   8.485   0.103   1.813  1.1778  1.0770  0.7825
40230SOL    HW222698   8.358   0.163   1.758 -0.0869 -2.3834 -0.3541
40231SOL     OW22699   2.849   8.074   6.266 -0.3289  0.3061  0.2643
40231SOL    HW122700   2.795   8.126   6.325  0.1391  0.5509  0.4845
40231SOL    HW222701   2.920   8.133   6.241 -0.4338  0.1543 -0.4200
40232SOL     OW22702   8.239   1.669   3.877 -0.6287 -0.4391  0.7787
40232SOL    HW122703   8.177   1.609   3.835  1.6655 -1.5028 -1.3337
40232SOL    HW222704   8.314   1.614   3.900  0.4621  1.1698  1.2396
40233SOL     OW22705  10.829   6.468   4.217 -0.1501 -0.3277 -0.2943
40233SOL    HW122706  10.810   6.537   4.281 -0.6232 -0.2240 -0.5400
40233SOL    HW222707  10.747   6.419   4.210 -0.5267  0.4491 -1.7717
40234SOL     OW22708   5.173  10.471   0.721  0.5168  0.3956  0.2592
40234SOL    HW122709   5.225  10.404   0.677 -0.8961  0.3999 -1.5382
40234SOL    HW222710   5.192  10.459   0.814  1.5660 -1.4088 -0.1491
40235SOL     OW22711   4.452  10.629   8.142 -0.0735 -0.3702 -0.1471
40235SOL    HW122712   4.455  10.724   8.139 -1.7002 -0.3017 -0.9685
40235SOL    HW222713   4.420  10.603   8.056 -3.2104 -1.3971  1.1581
40236SOL     OW22714   9.592   8.247   4.325 -0.4643 -0.3972 -0.2980
40236SOL    HW122715   9.589   8.274   4.233  2.1396 -1.2159 -0.7130
40236SOL    HW222716   9.501   8.236   4.350 -1.2407 -0.7227 -2.9613
40237SOL     OW22717   9.863   4.899   3.978 -0.1807 -0.1624 -0.4050
40237SOL    HW122718   9.846   4.866   4.066  0.0539 -2.0553 -1.0097
40237SOL    HW222719   9.881   4.992   3.989 -2.8306  0.2637  1.2205
40238SOL     OW22720  10.247   2.353   0.689 -0.4602 -0.1311  0.2479
40238SOL    HW122721  10.198   2.402   0.623 -0.7354  0.1555  0.6602
40238SOL    HW222722  10.229   2.399   0.771  0.0403 -0.3631  0.4922
40239SOL     OW22723   8.011   0.096   9.606 -0.1991 -0.3305  0.4425
40239SOL    HW122724   8.025   0.189   9.624  1.8865 -0.7464  1.2778
40239SOL    HW222725   7.934   0.094   9.549 -2.2601  1.6609  2.8806
40240SOL     OW22726  10.408   1.970   9.405  0.0664  0.6744  0.6341
40240SOL    HW122727  10.317   1.941   9.396  0.4445 -0.4869  0.4408
40240SOL    HW222728  10.434   1.994   9.316  0.1258  0.4781  0.5986
40241SOL     OW22729   2.876   0.905   1.468  0.0914  0.2899  0.4251
40241SOL    HW122730   2.860   0.987   1.515  3.0440  1.0285  0.3587
40241SOL    HW222731   2.971   0.897   1.468  0.2432 -0.3775 -4.2264
40242SOL     OW22732   0.596   6.954   1.789  0.0688  0.4491 -0.3348
40242SOL    HW122733   0.530   6.967   1.721 -0.6868 -1.4185 -0.0335
40242SOL    HW222734   0.638   6.871   1.767  0.7104  0.4504  0.7656
40243SOL     OW22735   3.763   9.515   5.263  0.4394 -0.6225  0.3142
40243SOL    HW122736   3.766   9.425   5.295  0.1364 -0.2377  1.5001
40243SOL    HW222737   3.848   9.528   5.220  0.4611 -1.4885  0.0782
40244SOL     OW22738   3.853  11.068   7.368 -0.0946  0.6494  0.5689
40244SOL    HW122739   3.801  11.075   7.448 -1.1365  0.2867 -0.0451
40244SOL    HW222740   3.832  11.147   7.319  0.4960  0.8456  0.6282
40245SOL     OW22741   8.600   5.160   2.060  0.1190 -0.2914 -0.1958
40245SOL    HW122742   8.524   5.202   2.022 -0.0559  0.9901  1.4444
40245SOL    HW222743   8.675   5.211   2.028  0.2452 -1.0131 -1.1038
40246SOL     OW22744   8.925   0.573   5.946  0.3152  0.1863 -0.1343
40246SOL    HW122745   8.908   0.603   5.857 -0.7344  1.7882  0.5471
40246SOL    HW222746   8.842   0.587   5.992  0.9389 -0.2475  1.1748
40247SOL     OW22747   5.512   1.839   3.935 -0.2299 -0.0157  0.3096
40247SOL    HW122748   5.503   1.767   3.998 -1.2174 -0.6209 -0.5097
40247SOL    HW222749   5.425   1.850   3.898  0.1200  0.9996 -0.2444
40248SOL     OW22750   9.862   3.112   5.533  0.9693  0.0048  0.2557
40248SOL    HW122751   9.792   3.141   5.475  0.1238  0.6440  1.5337
40248SOL    HW222752   9.827   3.033   5.575  0.8305  0.5386  1.1804
40249SOL     OW22753   7.124   9.216   8.544 -0.7233 -0.1016  0.1946
40249SOL    HW122754   7.054   9.252   8.599  0.3136  1.1355  0.7731
40249SOL    HW222755   7.118   9.122   8.556 -1.1349  0.0852  1.7030
40250SOL     OW22756   2.992   6.128   9.205 -0.0924 -0.0956  0.5025
40250SOL    HW122757   2.996   6.044   9.159  0.8943  0.2037  0.0218
40250SOL    HW222758   3.072   6.132   9.256 -2.2001 -1.4924  4.3053
40251SOL     OW22759   6.540   2.174   3.455 -0.3287  0.4382 -0.2690
40251SOL    HW122760   6.556   2.087   3.491 -0.2464  1.1188  1.4434
40251SOL    HW222761   6.616   2.191   3.400 -0.8916 -0.9974 -1.5617
40252SOL     OW22762   0.667   7.785   4.713  0.1534 -0.0067 -0.4761
40252SOL    HW122763   0.681   7.715   4.649  1.6757 -0.5748  0.4144
40252SOL    HW222764   0.746   7.839   4.706  1.2713 -1.1195  2.1075
40253SOL     OW22765   4.416   7.094   7.039 -0.3817  0.2182  0.0676
40253SOL    HW122766   4.392   7.026   6.977  1.1480 -0.5861  0.3238
40253SOL    HW222767   4.472   7.154   6.989 -0.0829  0.1895  0.3620
40254SOL     OW22768   3.414   2.487   5.310 -0.2618  0.5160  0.0568
40254SOL    HW122769   3.377   2.405   5.343  0.7622 -0.0650 -0.1991
40254SOL    HW222770   3.409   2.479   5.215  1.3915 -0.0132 -0.0178
40255SOL     OW22771   0.124   0.643   2.332  0.6874  1.0816  0.1487
40255SOL    HW122772   0.184   0.680   2.396  1.8507  0.8221 -0.7617
40255SOL    HW222773   0.166   0.658   2.247 -0.1253  0.1461 -0.4490
40256SOL     OW22774   5.413  11.264  10.854  0.4491 -0.1056  0.1889
40256SOL    HW122775   5.355  11.282  10.780  1.6470 -1.2753 -1.0952
40256SOL    HW222776   5.425  11.349  10.897 -1.8727  0.2323  0.2894
40257SOL     OW22777   7.433   2.065   2.292  0.4516 -0.1515  0.1003
40257SOL    HW122778   7.343   2.034   2.296 -0.0988  1.2521 -0.8918
40257SOL    HW222779   7.456   2.084   2.383 -0.0148 -1.1191  0.4329
40258SOL     OW22780   1.985   3.107   6.385 -0.6937  0.2311  0.3197
40258SOL    HW122781   2.062   3.163   6.380 -1.8395  1.9932  1.6404
40258SOL    HW222782   1.952   3.105   6.295 -1.2585  2.6751  0.3979
40259SOL     OW22783   3.498   1.101   3.390 -0.3889 -0.3056 -0.2139
40259SOL    HW122784   3.564   1.043   3.427 -0.9103 -1.7042 -1.4004
40259SOL    HW222785   3.547   1.179   3.363  0.1684  0.3477  2.3542
40260SOL     OW22786   6.102  10.077   5.619 -0.4400 -0.5907 -0.1637
40260SOL    HW122787   6.008  10.084   5.632 -0.2753 -0.8214  1.2931
40260SOL    HW222788   6.114  10.000   5.563 -1.1961  0.4859 -1.8859
40261SOL     OW22789   3.690   3.963   4.904  0.3163 -0.2570 -0.0240
40261SOL    HW122790   3.711   3.936   4.994  0.4452 -0.7782 -0.2108
40261SOL    HW222791   3.652   3.885   4.864  3.0215 -1.0094 -1.3561
40262SOL     OW22792   0.675   7.904   1.387 -0.1264 -0.0931 -0.9151
40262SOL    HW122793   0.740   7.970   1.365 -0.3259  0.5338  0.2524
40262SOL    HW222794   0.616   7.902   1.312 -0.1615  1.1250 -0.9411
40263SOL     OW22795   0.396  10.267   7.264  0.7990  0.2852  1.2818
40263SOL    HW122796   0.477  10.217   7.272  0.4786 -0.5272 -0.2331
40263SOL    HW222797   0.329  10.211   7.302  0.7283  0.3902  1.3152
40264SOL     OW22798   2.348   0.426  10.617  0.7628  0.2767  0.2059
40264SOL    HW122799   2.344   0.462  10.528  0.0537 -1.4877 -0.5126
40264SOL    HW222800   2.304   0.341  10.611 -0.9255  0.8691  2.6372
40265SOL     OW22801   6.702   5.462   7.581 -0.3304  0.9438  0.0955
40265SOL    HW122802   6.643   5.532   7.552 -1.1425  0.1520 -0.2179
40265SOL    HW222803   6.747   5.498   7.657 -0.7787  1.7908 -0.0322
40266SOL     OW22804   6.273  10.960   4.553 -0.1653 -0.4676 -0.3636
40266SOL    HW122805   6.202  10.909   4.514 -1.0032  0.3415  0.0568
40266SOL    HW222806   6.343  10.957   4.488  0.0968 -2.7186 -0.0493
40267SOL     OW22807   9.079   7.139   4.260 -0.2463 -0.5477  0.6365
40267SOL    HW122808   9.115   7.135   4.349  1.8877  0.9388 -0.0922
40267SOL    HW222809   9.065   7.048   4.236 -1.5246 -0.9684  2.7136
40268SOL     OW22810   7.015   9.164   0.612  0.3334 -0.3869 -0.4389
40268SOL    HW122811   6.994   9.255   0.628  1.2735  0.0250 -1.4261
40268SOL    HW222812   7.048   9.132   0.696 -0.5133  0.0122  0.0586
40269SOL     OW22813  10.865   8.976   5.256  0.6319 -0.1920 -0.4052
40269SOL    HW122814  10.774   8.946   5.249  1.2126 -1.7085 -1.7298
40269SOL    HW222815  10.861   9.045   5.323 -1.4997 -0.1599 -0.4839
40270SOL     OW22816   7.997  10.287   0.692  0.2644 -0.2983  0.2501
40270SOL    HW122817   8.026  10.343   0.621 -0.9071  0.6871  0.5084
40270SOL    HW222818   8.067  10.292   0.757  0.7585 -0.1801 -0.2875
40271SOL     OW22819   6.384   1.890   8.039  0.2324  0.1304  0.4174
40271SOL    HW122820   6.432   1.870   8.119 -0.4882  0.6028  0.9838
40271SOL    HW222821   6.451   1.922   7.978  1.3712 -3.3162 -0.3572
40272SOL     OW22822   0.785   9.468   4.398  0.0409 -0.5194  0.3892
40272SOL    HW122823   0.787   9.475   4.302  0.5046  1.0754  0.4863
40272SOL    HW222824   0.812   9.554   4.429 -0.6522 -0.8304  1.9695
40273SOL     OW22825   3.142   4.445   5.146 -0.0765 -0.5945  0.6965
40273SOL    HW122826   3.209   4.400   5.095 -1.0532 -2.4432  0.9679
40273SOL    HW222827   3.153   4.413   5.235  0.7935  1.6597  1.4654
40274SOL     OW22828   1.296   8.959   5.503 -0.9577  0.3434 -0.0783
40274SOL    HW122829   1.235   9.029   5.526 -0.9036  0.1060  0.8296
40274SOL    HW222830   1.311   8.912   5.585 -0.6858 -0.4917 -0.5912
40275SOL     OW22831   1.750   3.618   0.701  0.1944  1.0277  0.4398
40275SOL    HW122832   1.791   3.601   0.616 -2.4483  0.9870 -0.9362
40275SOL    HW222833   1.776   3.543   0.755 -0.4640 -0.5433 -1.3050
40276SOL     OW22834   8.370   4.049   4.616  0.2693 -0.2460 -0.0713
40276SOL    HW122835   8.451   4.004   4.636 -1.0352 -2.4369  0.5626
40276SOL    HW222836   8.349   4.021   4.527 -0.0242 -0.0436 -0.0668
40277SOL     OW22837   3.594   6.192   9.775  0.5125  0.7764  0.3440
40277SOL    HW122838   3.668   6.240   9.812  0.9784  2.1382 -2.1580
40277SOL    HW222839   3.633   6.130   9.714 -0.3425  0.9112 -0.3689
40278SOL     OW22840   5.649   2.391   7.465  0.4782 -0.2768  0.1557
40278SOL    HW122841   5.691   2.459   7.519  0.3102 -0.1066  0.0743
40278SOL    HW222842   5.715   2.322   7.458  0.3786 -0.4573  0.8679
40279SOL     OW22843   8.970   9.317   5.910  0.2254  0.3822 -0.0762
40279SOL    HW122844   8.956   9.222   5.915  3.6955 -0.3303 -0.9932
40279SOL    HW222845   8.949   9.349   5.998 -2.4555 -0.9279 -0.1628
40280SOL     OW22846   7.691   1.916   9.608  0.9367  0.2034  0.0116
40280SOL    HW122847   7.629   1.845   9.623  0.1412  1.0691  0.9637
40280SOL    HW222848   7.772   1.872   9.583  0.5664 -1.0630  0.9229
40281SOL     OW22849   4.020   6.892   6.194 -0.1269 -0.0551 -0.0508
40281SOL    HW122850   4.020   6.851   6.280 -0.5019  0.3466  0.1438
40281SOL    HW222851   3.972   6.831   6.138  2.3683 -1.6326 -0.6339
40282SOL     OW22852   0.058   0.922   4.406 -0.3536 -0.0511  0.2312
40282SOL    HW122853   0.124   0.928   4.337 -0.8268 -0.3285 -0.2538
40282SOL    HW222854   0.064   1.005   4.453  0.0731  0.0801 -0.0480
40283SOL     OW22855   0.601  10.306   9.900 -0.0388 -0.8731  0.0205
40283SOL    HW122856   0.659  10.343   9.967  0.1728  0.2585 -0.7608
40283SOL    HW222857   0.518  10.351   9.914  0.6337  1.1533 -1.8955
40284SOL     OW22858  10.844   8.195   6.207 -0.3189  0.4879  0.7064
40284SOL    HW122859  10.913   8.138   6.173  1.4574  3.1695 -0.5177
40284SOL    HW222860  10.803   8.144   6.276  0.7831 -2.4327 -0.6118
40285SOL     OW22861  10.164   6.339   0.146  0.0445  0.2388  0.1226
40285SOL    HW122862  10.183   6.263   0.202  2.7889  0.0521 -0.9269
40285SOL    HW222863  10.195   6.313   0.059  0.0637  2.1629 -0.4845
40286SOL     OW22864   0.500   2.656   9.512  0.4617 -0.3413 -0.0398
40286SOL    HW122865   0.416   2.703   9.512  1.1673  0.9762 -1.1119
40286SOL    HW222866   0.485   2.582   9.571 -1.2040  0.3049  0.4236
40287SOL     OW22867   9.574   1.105   9.054  0.5098 -0.0505  0.4729
40287SOL    HW122868   9.519   1.143   8.985 -0.0146 -1.3198  0.1680
40287SOL    HW222869   9.657   1.084   9.010 -0.1459 -1.7070 -0.0240
40288SOL     OW22870  10.611   0.841   3.030 -0.4173  0.0787 -0.0550
40288SOL    HW122871  10.569   0.917   3.069  2.6114  2.0649 -0.3326
40288SOL    HW222872  10.565   0.828   2.947 -2.4387  0.1326  1.0057
40289SOL     OW22873   8.267   5.029   9.779 -0.0112 -0.1658 -0.4645
40289SOL    HW122874   8.185   5.072   9.806 -0.2878 -1.2278  0.4331
40289SOL    HW222875   8.336   5.086   9.813 -0.3389  0.8864 -1.4622
40290SOL     OW22876   6.123   8.766   8.190 -0.0860  0.0210 -0.4751
40290SOL    HW122877   6.206   8.810   8.170  0.9762 -1.3516  0.6426
40290SOL    HW222878   6.056   8.831   8.169  1.3846  2.5488  1.8791
40291SOL     OW22879   0.306   3.105   8.337 -0.0916 -0.2199  0.5645
40291SOL    HW122880   0.375   3.050   8.374  0.8647  0.5213 -0.0684
40291SOL    HW222881   0.337   3.125   8.249 -1.2105 -0.0119  0.2040
40292SOL     OW22882   6.622   5.019   2.177  0.3289  0.2424 -0.3932
40292SOL    HW122883   6.635   4.952   2.109  0.5841  1.6492 -1.7838
40292SOL    HW222884   6.562   5.082   2.136 -1.1790  0.1047  1.4641
40293SOL     OW22885   0.430   9.163   6.439 -0.4021 -0.0348 -0.4725
40293SOL    HW122886   0.403   9.248   6.404 -1.2872 -0.0734  0.0797
40293SOL    HW222887   0.386   9.099   6.384 -0.3589 -0.1226 -0.4050
40294SOL     OW22888   8.712   2.348   7.838  0.6615 -0.0499 -0.0434
40294SOL    HW122889   8.752   2.434   7.828  0.7373 -0.1643 -0.7091
40294SOL    HW222890   8.786   2.289   7.851  0.7148 -0.2612 -1.2705
40295SOL     OW22891   3.784  10.792   4.759  0.2513 -0.4364  0.1553
40295SOL    HW122892   3.757  10.707   4.724 -1.6534  0.4652 -0.6948
40295SOL    HW222893   3.798  10.775   4.853 -3.1187 -1.1157  0.6507
40296SOL     OW22894   3.306   2.302  10.247 -0.2271  0.3155 -0.2253
40296SOL    HW122895   3.385   2.272  10.290  0.0248  0.6838 -0.4301
40296SOL    HW222896   3.235   2.268  10.301  0.0789  0.4095  0.2358
40297SOL     OW22897  10.606   6.256  10.045  0.4142  0.1051 -0.2632
40297SOL    HW122898  10.536   6.321  10.040 -1.3279 -1.5758  0.4989
40297SOL    HW222899  10.602   6.224  10.136  0.4096 -1.8265 -0.8946
40298SOL     OW22900   6.315   8.612   4.469  0.4909 -0.5518  0.7482
40298SOL    HW122901   6.258   8.647   4.537  1.8061  0.5321  1.3406
40298SOL    HW222902   6.314   8.679   4.400  0.6527 -0.7655  0.5357
40299SOL     OW22903   2.162   2.107   5.996  0.2417 -0.4155 -0.1181
40299SOL    HW122904   2.082   2.099   6.048  0.4389  0.9270  0.4203
40299SOL    HW222905   2.228   2.138   6.058  1.0178 -0.8256 -0.7160
40300SOL     OW22906   3.088   9.865   8.562  0.3847  0.6826 -0.1331
40300SOL    HW122907   3.153   9.837   8.627 -0.9622  1.2056  1.5087
40300SOL    HW222908   3.003   9.849   8.603 -0.5918 -0.2226 -2.3274
40301SOL     OW22909   6.780   8.802   6.377  0.4252  0.2383 -0.6525
40301SOL    HW122910   6.721   8.872   6.350  0.4295 -0.0672 -1.4831
40301SOL    HW222911   6.722   8.729   6.400  0.4360  0.3603 -0.2374
40302SOL     OW22912   8.402   7.711   0.309  0.6529 -0.2976  0.4184
40302SOL    HW122913   8.400   7.783   0.372  1.3751 -0.4196  0.5909
40302SOL    HW222914   8.487   7.669   0.322  0.3653 -1.0073  0.1197
40303SOL     OW22915   1.907   4.224   4.859 -0.0299  0.1775  0.2471
40303SOL    HW122916   1.920   4.200   4.768  0.4763 -0.9351  0.5835
40303SOL    HW222917   1.909   4.320   4.860  3.8107  0.2887 -0.4570
40304SOL     OW22918  10.524   1.718   8.884  0.1126  0.0937 -0.1046
40304SOL    HW122919  10.504   1.637   8.932  0.8424 -0.5824 -0.9171
40304SOL    HW222920  10.603   1.752   8.927  0.0001  0.1986  0.0204
40305SOL     OW22921   0.923   8.751   9.039 -0.1127  0.3801  0.0063
40305SOL    HW122922   0.936   8.712   9.126 -0.2917  2.8510  1.2147
40305SOL    HW222923   1.010   8.751   9.000 -0.4233 -3.2003 -1.0355
40306SOL     OW22924   1.211  10.314   1.046  0.6077 -0.5673 -0.5822
40306SOL    HW122925   1.131  10.339   1.092 -0.4211 -0.1193 -2.5067
40306SOL    HW222926   1.276  10.302   1.116 -0.9789 -0.4366  0.9928
40307SOL     OW22927   3.927  10.210   4.019  0.1735 -0.1952  0.6793
40307SOL    HW122928   3.860  10.222   3.952 -1.9911 -2.0084  2.3484
40307SOL    HW222929   3.944  10.298   4.052 -0.6136  0.4263 -0.4943
40308SOL     OW22930   2.521  10.235   1.586 -0.2516 -0.1045  0.3830
40308SOL    HW122931   2.601  10.234   1.639 -0.2937 -1.1524  0.4635
40308SOL    HW222932   2.476  10.316   1.610  0.7558  0.4686  0.3728
40309SOL     OW22933   7.591   4.812   9.032  0.3166  0.3250  0.1270
40309SOL    HW122934   7.627   4.879   8.974  0.6777 -0.2568 -0.3312
40309SOL    HW222935   7.571   4.739   8.974  1.5505 -0.6248  0.8464
40310SOL     OW22936   5.916   4.778   9.626  0.1346 -0.0613 -0.5410
40310SOL    HW122937   5.950   4.752   9.712 -0.1971  1.5205  0.1137
40310SOL    HW222938   5.835   4.727   9.617  1.0396 -1.5429 -0.7356
40311SOL     OW22939   8.451   2.116   4.997  0.3468  0.0647 -0.1186
40311SOL    HW122940   8.434   2.024   4.978 -0.3309 -0.4930  2.6555
40311SOL    HW222941   8.371   2.147   5.039 -0.3898  2.6868 -3.1117
40312SOL     OW22942   2.639   2.724  11.201  0.3625  0.6779 -0.8325
40312SOL    HW122943   2.722   2.709  11.245  0.3145  1.8202 -0.3228
40312SOL    HW222944   2.597   2.794  11.251 -1.5235 -0.8009 -0.2750
40313SOL     OW22945   6.497   3.560   9.814  0.0610  0.3212  0.2236
40313SOL    HW122946   6.452   3.492   9.763  1.9815 -0.4644 -0.5276
40313SOL    HW222947   6.530   3.621   9.748  4.1737 -1.6577  0.1208
40314SOL     OW22948   9.941   2.014   1.373  0.3422 -0.0047 -0.1950
40314SOL    HW122949   9.948   2.107   1.355  2.0379 -0.2854 -1.3018
40314SOL    HW222950   9.915   1.975   1.290 -2.1108 -0.4003  0.6871
40315SOL     OW22951   7.082   7.366   3.087  0.0070 -0.2020  0.2942
40315SOL    HW122952   7.045   7.301   3.146 -0.7848  1.4502  1.7390
40315SOL    HW222953   7.176   7.364   3.106  0.3433 -2.3705 -1.2683
40316SOL     OW22954   3.356   0.461   1.163 -0.5016 -0.1537  0.1889
40316SOL    HW122955   3.394   0.383   1.203  0.1069  0.1319  0.1650
40316SOL    HW222956   3.375   0.532   1.223 -2.9255 -0.3353  1.3113
40317SOL     OW22957  10.289  10.858   9.094  0.0871 -0.0108 -0.0969
40317SOL    HW122958  10.378  10.870   9.062 -0.0359 -0.2889 -0.5480
40317SOL    HW222959  10.254  10.788   9.040 -1.0582  1.3731 -1.2024
40318SOL     OW22960   5.673   9.359   5.817 -0.1473 -0.4099 -0.3249
40318SOL    HW122961   5.637   9.399   5.895  0.0823 -1.1834  0.1847
40318SOL    HW222962   5.763   9.335   5.841  0.9878  2.0140 -1.7441
40319SOL     OW22963   1.575   3.492   4.603  0.1132  0.6866  1.0779
40319SOL    HW122964   1.628   3.559   4.561 -0.6538  1.3371  1.1200
40319SOL    HW222965   1.486   3.527   4.601 -0.5623 -0.9113 -0.1416
40320SOL     OW22966   9.083   2.637   1.240 -0.3626  0.1999 -0.3262
40320SOL    HW122967   9.054   2.587   1.163 -1.4883 -2.1632  1.4966
40320SOL    HW222968   9.172   2.665   1.218 -1.4127  1.6038 -3.3311
40321SOL     OW22969   9.997  10.283   6.771  0.3610  0.1310 -0.0657
40321SOL    HW122970  10.082  10.317   6.745  1.1360 -0.1595  1.8908
40321SOL    HW222971  10.006  10.265   6.865 -1.1592 -2.0115 -0.2610
40322SOL     OW22972   9.202   2.386   4.557 -0.0577  0.2632  0.7771
40322SOL    HW122973   9.119   2.338   4.557 -0.0757  0.2501 -0.8466
40322SOL    HW222974   9.215   2.412   4.466  1.7876  0.1449  0.9680
40323SOL     OW22975   8.165   9.380   2.809  0.4603 -0.2369 -0.5645
40323SOL    HW122976   8.073   9.370   2.833  0.1345 -0.7492 -1.9721
40323SOL    HW222977   8.210   9.309   2.855  0.1448 -0.0628  0.0236
40324SOL     OW22978   5.324   0.850   0.413 -0.2888 -0.1759  0.1241
40324SOL    HW122979   5.251   0.910   0.425 -1.0984 -1.0759 -0.1255
40324SOL    HW222980   5.308   0.809   0.328  1.6702  1.1367 -0.9699
40325SOL     OW22981   9.621   6.462   2.099 -0.2818  0.2900  0.1980
40325SOL    HW122982   9.614   6.367   2.110  0.3628  0.2342  0.1998
40325SOL    HW222983   9.714   6.480   2.116 -0.4938  0.9758  0.6302
40326SOL     OW22984   4.698   2.277   3.497  0.0147  0.7653 -0.6351
40326SOL    HW122985   4.752   2.355   3.486 -0.4307  1.1028 -0.4487
40326SOL    HW222986   4.687   2.269   3.592  3.2049 -1.6883 -0.3031
40327SOL     OW22987   3.001   1.105   2.855  0.6453 -0.0749  0.3820
40327SOL    HW122988   3.001   1.046   2.931  0.0371  0.8106  1.0978
40327SOL    HW222989   2.961   1.054   2.785  1.2461 -0.9216  0.6447
40328SOL     OW22990  11.058   7.346   4.042 -0.0051  0.8830  0.1946
40328SOL    HW122991  11.140   7.364   3.997 -0.5226 -1.1412 -1.7015
40328SOL    HW222992  10.993   7.399   3.995 -0.9649 -2.8934 -3.3078
40329SOL     OW22993   9.745   1.034   5.535  0.6771 -0.3568  0.5348
40329SOL    HW122994   9.736   0.964   5.599 -0.1373 -0.4858  0.2894
40329SOL    HW222995   9.820   1.085   5.565 -0.0387 -0.0698  1.9340
40330SOL     OW22996   0.283   9.601   8.294  0.5574  0.4736 -0.0905
40330SOL    HW122997   0.239   9.666   8.348  0.9149  0.8222 -0.2148
40330SOL    HW222998   0.375   9.628   8.292  0.5518  0.4702 -0.8666
40331SOL     OW22999   1.239   1.993   4.498  0.2639 -0.2181 -0.6120
40331SOL    HW123000   1.196   1.922   4.451 -0.4325 -1.3356  1.5726
40331SOL    HW223001   1.332   1.983   4.476 -0.0466 -0.5356 -1.8904
40332SOL     OW23002   3.800   7.681   3.472  0.1568 -0.8699 -0.0441
40332SOL    HW123003   3.818   7.632   3.392 -0.1197 -1.1173  0.0443
40332SOL    HW223004   3.811   7.773   3.446 -1.6680 -0.8308 -0.8437
40333SOL     OW23005   5.413   7.083   3.110 -0.1276  0.8485  0.4198
40333SOL    HW123006   5.378   7.166   3.079 -0.6348  2.0961  3.8858
40333SOL    HW223007   5.416   7.092   3.205  1.4205 -2.5024  0.8459
40334SOL     OW23008   2.699  10.150   4.766  0.3559 -0.4225  0.3835
40334SOL    HW123009   2.614  10.149   4.724  1.4992 -2.2842 -2.1379
40334SOL    HW223010   2.711  10.240   4.795 -1.1323  0.6414 -2.0732
40335SOL     OW23011   9.610   1.691   4.017  0.3651  0.2191  0.5838
40335SOL    HW123012   9.578   1.771   3.975 -0.7598 -0.4201  0.1843
40335SOL    HW223013   9.619   1.714   4.110 -0.0802  0.7723  0.4920
40336SOL     OW23014   5.692   1.413   4.577  0.4341  0.1356  0.1433
40336SOL    HW123015   5.781   1.398   4.546  0.4130  3.1702 -1.7647
40336SOL    HW223016   5.677   1.506   4.563 -3.3062 -0.3929 -0.3514
40337SOL     OW23017   5.010  10.673  10.031  0.6911 -0.3398  0.5252
40337SOL    HW123018   5.020  10.761   9.992 -1.2824 -0.3085  0.0031
40337SOL    HW223019   5.068  10.618   9.978  0.8172  0.3706 -0.1056
40338SOL     OW23020   7.362   2.206   1.638 -0.6631  0.1130 -0.1459
40338SOL    HW123021   7.457   2.205   1.628 -0.8931 -1.1906 -3.3785
40338SOL    HW223022   7.346   2.167   1.724  1.6987 -2.4743 -0.7688
40339SOL     OW23023   9.348   7.451   5.166  0.1341 -0.6628 -0.6786
40339SOL    HW123024   9.412   7.438   5.095 -1.6664 -1.7911 -2.2054
40339SOL    HW223025   9.266   7.416   5.130 -1.1562 -0.0463  1.5120
40340SOL     OW23026   9.822   6.639   8.608  0.3473  0.2030  0.3869
40340SOL    HW123027   9.767   6.596   8.673 -0.6416 -1.1754 -1.2743
40340SOL    HW223028   9.764   6.657   8.534  1.1988  2.6462  0.2098
40341SOL     OW23029   9.654   4.555   4.278  0.5470 -0.2935 -0.2170
40341SOL    HW123030   9.571   4.507   4.279  1.1597 -1.4547  2.0710
40341SOL    HW223031   9.698   4.526   4.198  0.3254 -2.5949  0.4426
40342SOL     OW23032  10.407   2.777   7.443  0.2619  0.0666  0.4704
40342SOL    HW123033  10.492   2.782   7.399 -0.0351  0.1818 -0.0926
40342SOL    HW223034  10.387   2.683   7.446 -0.3943  0.1318 -0.9678
40343SOL     OW23035   8.243   6.299  10.408 -0.5172 -0.0850  0.5558
40343SOL    HW123036   8.293   6.225  10.442  0.1463  1.1335  2.3664
40343SOL    HW223037   8.309   6.358  10.371 -0.9723 -0.0530 -0.2435
40344SOL     OW23038  10.134   4.930   4.427  0.1144 -0.0655 -0.4387
40344SOL    HW123039  10.229   4.945   4.429  0.3963 -1.5086  2.7398
40344SOL    HW223040  10.096   5.017   4.439  1.1898  0.2022  1.4642
40345SOL     OW23041   4.489  11.275   4.744  0.5711 -0.2150 -0.4226
40345SOL    HW123042   4.499  11.357   4.793  1.3019 -1.7145  2.1289
40345SOL    HW223043   4.398  11.250   4.756  0.7461 -0.5734  0.2031
40346SOL     OW23044   0.049   6.646   6.229 -0.1576  0.0787 -0.0466
40346SOL    HW123045   0.113   6.612   6.290 -1.3656 -0.9952  0.6748
40346SOL    HW223046   0.062   6.595   6.149  2.1713  2.2347 -1.1702
40347SOL     OW23047   4.833   3.803   3.783  0.2138 -0.1020 -0.3206
40347SOL    HW123048   4.765   3.763   3.729  1.2036 -2.6027  0.1454
40347SOL    HW223049   4.852   3.737   3.850  1.5917  1.4131  0.8507
40348SOL     OW23050   3.394  10.244  10.948 -0.4979 -0.3033 -0.1380
40348SOL    HW123051   3.400  10.339  10.962 -1.4879 -0.2751  0.2244
40348SOL    HW223052   3.396  10.207  11.036  4.0795 -0.9898 -0.3395
40349SOL     OW23053   3.370   7.844   1.242  0.2321 -0.3679 -0.1399
40349SOL    HW123054   3.280   7.823   1.266 -1.2476  1.0494 -3.7140
40349SOL    HW223055   3.413   7.759   1.231 -0.6951 -1.0680  1.3115
40350SOL     OW23056   0.571   7.321  11.230  0.1594  0.0484  0.0628
40350SOL    HW123057   0.578   7.365  11.315 -0.5645  0.7271 -0.2134
40350SOL    HW223058   0.604   7.233  11.245 -3.8505 -1.3275  2.1702
40351SOL     OW23059   5.315   6.723   8.319 -0.5013  0.0900 -0.5258
40351SOL    HW123060   5.227   6.724   8.280 -1.1146 -2.0035  0.6644
40351SOL    HW223061   5.312   6.793   8.385 -1.2990  0.0089 -0.4654
40352SOL     OW23062   0.450   4.775   6.784  0.4216 -0.7660  0.2668
40352SOL    HW123063   0.451   4.871   6.794  0.2040 -0.7625  0.2758
40352SOL    HW223064   0.373   4.747   6.834  1.1791 -1.0724  1.2923
40353SOL     OW23065   3.455   6.990   9.087 -0.2937 -0.2291  0.2932
40353SOL    HW123066   3.384   6.934   9.056 -0.3344 -1.6864  2.6910
40353SOL    HW223067   3.535   6.945   9.059 -0.3039  0.5419 -1.0055
40354SOL     OW23068   8.293   3.624   1.819 -0.0644 -0.2724  0.1476
40354SOL    HW123069   8.387   3.646   1.822 -0.4018  1.3525  2.7323
40354SOL    HW223070   8.291   3.529   1.818  1.6346 -0.3595  0.4552
40355SOL     OW23071   9.060   2.893   2.995  0.1883  0.2950  0.6733
40355SOL    HW123072   9.056   2.941   3.078 -0.2246  0.7892  0.3777
40355SOL    HW223073   9.007   2.945   2.935  3.2433  1.8614 -0.8835
40356SOL     OW23074   6.981   1.142   6.827 -0.3193  0.1042 -0.5047
40356SOL    HW123075   7.046   1.073   6.814 -0.7928 -0.3515 -0.4402
40356SOL    HW223076   7.026   1.206   6.884  0.5323  0.4299 -1.5020
40357SOL     OW23077   1.915  10.904   9.182  0.2674 -0.4618 -0.1755
40357SOL    HW123078   1.988  10.928   9.238  0.7029 -1.2845 -0.3815
40357SOL    HW223079   1.911  10.809   9.186 -1.3992 -0.3968  0.5977
40358SOL     OW23080   9.443   6.177   7.068  0.0339 -0.3639 -0.0743
40358SOL    HW123081   9.538   6.190   7.074 -0.1948  1.5017  0.1042
40358SOL    HW223082   9.407   6.266   7.062 -1.7653 -0.9952  0.7416
40359SOL     OW23083   5.671   6.385  10.697 -0.6122  0.8708  0.9801
40359SOL    HW123084   5.717   6.373  10.780  2.7592  0.8693 -0.6976
40359SOL    HW223085   5.635   6.299  10.676  0.7508  0.1991  1.2700
40360SOL     OW23086   4.254   1.560  10.335 -0.1585  0.5919  0.1839
40360SOL    HW123087   4.229   1.472  10.308 -0.6101  0.8160 -0.1361
40360SOL    HW223088   4.249   1.612  10.255 -1.1386  1.1871  0.6113
40361SOL     OW23089   7.301   1.534   6.420  0.5268  0.0150 -0.2978
40361SOL    HW123090   7.213   1.526   6.457  0.6642  0.0879  0.0520
40361SOL    HW223091   7.299   1.615   6.370  0.8167  0.7899  0.9193
40362SOL     OW23092   1.461   3.406   4.044 -0.2580  0.3518 -0.0865
40362SOL    HW123093   1.446   3.340   4.111  1.0093  1.3931  1.2918
40362SOL    HW223094   1.374   3.424   4.008 -0.7712 -1.2309  0.2592
40363SOL     OW23095   2.464   1.998   2.407 -0.4455 -0.7711  0.3349
40363SOL    HW123096   2.507   1.975   2.325 -0.4493 -0.5940  0.2828
40363SOL    HW223097   2.388   1.940   2.412 -1.1859  0.1077 -0.4257
40364SOL     OW23098   3.623   5.253   1.235  0.4684 -0.2538  0.0741
40364SOL    HW123099   3.604   5.345   1.251  2.0081  0.0075  0.6233
40364SOL    HW223100   3.658   5.251   1.146  1.8579 -0.0458  0.5927
40365SOL     OW23101   6.436   5.963  11.273  0.3706 -0.3502 -0.1235
40365SOL    HW123102   6.481   5.881  11.292  1.1657  0.2206  0.5619
40365SOL    HW223103   6.417   5.959  11.179  1.8301 -0.6395 -0.4361
40366SOL     OW23104   2.091   6.137   0.129 -0.3221 -0.0042  0.0347
40366SOL    HW123105   2.044   6.200   0.075  0.6243 -0.0394 -0.8702
40366SOL    HW223106   2.081   6.169   0.218 -2.4680 -0.3012 -0.0523
40367SOL     OW23107   2.760   7.843   8.909 -0.3477  0.1937  0.4753
40367SOL    HW123108   2.809   7.770   8.872  0.1382 -0.3092  2.0513
40367SOL    HW223109   2.815   7.875   8.980 -2.2140 -0.2905  2.2115
40368SOL     OW23110   6.862   7.836   1.562 -0.6671  0.2448  0.0708
40368SOL    HW123111   6.897   7.868   1.646 -0.6756 -0.3049  0.2865
40368SOL    HW223112   6.769   7.859   1.565 -0.7362 -0.0720  0.3552
40369SOL     OW23113  11.108  11.142   9.698  0.0195 -0.4174  0.0186
40369SOL    HW123114  11.109  11.057   9.741 -0.6240 -0.3333  0.2085
40369SOL    HW223115  11.056  11.129   9.619  0.5432 -0.3803 -0.3390
40370SOL     OW23116   6.134   3.609   9.440 -0.0713 -0.3996  0.4584
40370SOL    HW123117   6.184   3.643   9.514 -1.3716  0.5766  0.9299
40370SOL    HW223118   6.181   3.530   9.413  2.3863  1.0859  0.0842
40371SOL     OW23119   6.006   9.681   6.505  0.3763  0.8920  0.4274
40371SOL    HW123120   6.100   9.681   6.489  0.3012  1.1101 -0.0395
40371SOL    HW223121   5.983   9.588   6.514  0.0039  0.4117 -3.5017
40372SOL     OW23122   1.726   0.817   8.462  0.1686 -0.1526 -0.6915
40372SOL    HW123123   1.734   0.766   8.381 -0.2590 -0.6842 -0.4078
40372SOL    HW223124   1.719   0.751   8.531 -1.8464  0.2478 -0.4482
40373SOL     OW23125   2.575   3.464   5.987  0.1300 -0.5419 -0.7741
40373SOL    HW123126   2.563   3.426   6.074 -0.0123 -0.1903 -0.6345
40373SOL    HW223127   2.634   3.404   5.942  1.2033 -0.0994 -0.0103
40374SOL     OW23128   8.150   2.201   2.003  0.0886 -0.6918  0.0958
40374SOL    HW123129   8.115   2.251   1.929 -0.4310  0.3164  1.0047
40374SOL    HW223130   8.085   2.132   2.018 -0.5055 -0.0560  0.4867
40375SOL     OW23131   6.243   8.127   7.676 -0.1527  0.3388 -0.4104
40375SOL    HW123132   6.238   8.082   7.592 -0.0916 -1.1938  0.3618
40375SOL    HW223133   6.170   8.090   7.727 -0.1860  1.2304  0.2058
40376SOL     OW23134   9.109   4.444   1.630 -0.5601  0.0102  0.5230
40376SOL    HW123135   9.083   4.446   1.722  1.9243  0.0214  1.2814
40376SOL    HW223136   9.129   4.536   1.609  0.4483 -0.2122  0.4723
40377SOL     OW23137   3.546   6.575   9.023  0.4564  0.6233  0.4734
40377SOL    HW123138   3.464   6.539   9.056  0.5220  0.5980  0.6127
40377SOL    HW223139   3.603   6.498   9.013  0.9394  0.7778  1.7433
40378SOL     OW23140   4.665   3.728   1.111  0.1870  0.8790 -0.7776
40378SOL    HW123141   4.728   3.775   1.164  0.1117 -0.7818  0.9059
40378SOL    HW223142   4.677   3.636   1.135 -1.1350  0.2449 -2.3010
40379SOL     OW23143   0.759  10.975   8.585  0.4924  0.0665  0.7582
40379SOL    HW123144   0.733  11.014   8.501 -1.8850  0.1481  1.4630
40379SOL    HW223145   0.820  11.039   8.622  0.6265  0.6199 -0.3515
40380SOL     OW23146   4.208   6.388   5.110  0.5789 -0.1150  0.0790
40380SOL    HW123147   4.235   6.337   5.187 -1.5815 -1.3168  0.1086
40380SOL    HW223148   4.258   6.350   5.038  1.6923  0.1962  0.6520
40381SOL     OW23149   0.164   7.600   2.466  0.0660  0.2659 -0.5581
40381SOL    HW123150   0.124   7.683   2.492 -0.6280 -0.6870  1.6552
40381SOL    HW223151   0.229   7.625   2.401  0.7806  2.7436  0.9419
40382SOL     OW23152   0.607   9.133   1.420  0.8314  0.1622 -0.0479
40382SOL    HW123153   0.582   9.185   1.343 -0.5091 -0.0076  0.2534
40382SOL    HW223154   0.573   9.046   1.401 -0.2726  0.3158  1.0801
40383SOL     OW23155   6.669   5.551   8.129  0.3038 -0.1712 -0.5911
40383SOL    HW123156   6.719   5.571   8.208 -2.3755 -0.3680  1.2593
40383SOL    HW223157   6.671   5.456   8.123 -1.7838 -0.3748  0.9324
40384SOL     OW23158   5.239  10.513   1.823 -0.5828 -0.0358  0.0128
40384SOL    HW123159   5.302  10.443   1.839 -0.9362 -0.1652  0.9266
40384SOL    HW223160   5.290  10.581   1.779  0.2306 -0.1114  0.7861
40385SOL     OW23161   7.510   7.547   5.067 -0.1328 -0.0997 -0.3669
40385SOL    HW123162   7.527   7.627   5.019  2.4530 -0.3463 -0.0208
40385SOL    HW223163   7.519   7.572   5.159  2.3900 -1.0150 -0.2824
40386SOL     OW23164   3.542   6.424   6.732 -0.1508 -0.2276 -0.1308
40386SOL    HW123165   3.520   6.351   6.674 -1.1987  1.3154 -1.7934
40386SOL    HW223166   3.610   6.472   6.684  1.4068 -0.7144  1.4858
40387SOL     OW23167   7.385  10.411   7.381  0.1962  0.0013 -0.2527
40387SOL    HW123168   7.316  10.346   7.369  0.1246 -0.1538  0.9329
40387SOL    HW223169   7.372  10.444   7.470  1.6882 -0.0791  0.0145
40388SOL     OW23170   2.486   8.654   2.213  0.3491 -0.8352 -0.3029
40388SOL    HW123171   2.432   8.733   2.213  0.2827 -0.8476  1.3775
40388SOL    HW223172   2.576   8.686   2.211  0.3888 -0.5820  2.2444
40389SOL     OW23173   8.573   4.622   9.318  0.0903  0.0703 -0.0010
40389SOL    HW123174   8.647   4.562   9.323 -0.4173 -0.6098 -0.5427
40389SOL    HW223175   8.511   4.591   9.384 -0.3856 -0.3125 -0.6151
40390SOL     OW23176   0.465   8.467   1.469 -0.2198  0.3529 -0.1871
40390SOL    HW123177   0.518   8.522   1.528 -1.8039  0.4993  1.1867
40390SOL    HW223178   0.393   8.523   1.442  0.0160  0.0003 -1.6240
40391SOL     OW23179   8.251   2.815   1.435 -0.0125 -0.1453 -0.0117
40391SOL    HW123180   8.297   2.878   1.490  0.7006  1.0743 -1.9019
40391SOL    HW223181   8.320   2.767   1.389 -0.5311 -2.4379  1.4002
40392SOL     OW23182   9.414   8.432   0.380  0.2427 -0.1052  0.0622
40392SOL    HW123183   9.336   8.404   0.332  0.3244 -1.3219  0.5964
40392SOL    HW223184   9.419   8.526   0.365 -2.0894  0.2515  1.0963
40393SOL     OW23185   6.159  10.859   6.944 -0.1574  0.0090 -0.4065
40393SOL    HW123186   6.106  10.864   7.024 -0.7404  2.0309 -0.8461
40393SOL    HW223187   6.247  10.884   6.973 -0.4432  1.0901 -0.4366
40394SOL     OW23188  10.464   4.249   4.376 -0.9646  0.0658  0.6069
40394SOL    HW123189  10.443   4.296   4.457  0.5500  1.0082  0.5104
40394SOL    HW223190  10.419   4.165   4.384 -0.4984 -0.0516  2.6522
40395SOL     OW23191   3.322   9.337  10.324 -0.6407  0.1577 -0.5790
40395SOL    HW123192   3.402   9.291  10.348  0.4612  0.1129 -3.8587
40395SOL    HW223193   3.256   9.305  10.386  1.5596 -0.6952  1.4709
40396SOL     OW23194   8.912   9.024   0.826 -0.0023  0.4423  0.3159
40396SOL    HW123195   8.863   8.942   0.826 -0.6093  0.7520 -1.6383
40396SOL    HW223196   8.855   9.086   0.874 -0.2584  0.1243  0.4277
40397SOL     OW23197   8.226   7.576   1.068  0.0420 -0.2813  0.2388
40397SOL    HW123198   8.300   7.637   1.064  0.6554 -1.0121  0.2626
40397SOL    HW223199   8.226   7.545   1.159 -0.0435 -0.5797  0.1380
40398SOL     OW23200   8.541   4.604  10.957  0.3681 -0.3302 -0.2487
40398SOL    HW123201   8.613   4.541  10.955  0.5328 -0.2387  1.4596
40398SOL    HW223202   8.580   4.684  10.992 -0.2326  0.2000 -0.7564
40399SOL     OW23203   4.639  10.333   5.752  0.2180  0.5534 -0.6966
40399SOL    HW123204   4.618  10.425   5.735  2.2856  0.5627 -4.2232
40399SOL    HW223205   4.730  10.335   5.783 -1.0724 -0.1627  3.9231
40400SOL     OW23206  10.637   8.685   0.964 -0.4375 -1.3675  1.0982
40400SOL    HW123207  10.631   8.771   0.922  0.4370 -1.2483  1.2029
40400SOL    HW223208  10.546   8.654   0.968 -0.8003 -0.3005  1.3723
40401SOL     OW23209   4.417   0.452   2.336 -0.2353 -0.3053  1.0110
40401SOL    HW123210   4.393   0.486   2.250 -1.4683  1.6664  2.0663
40401SOL    HW223211   4.513   0.458   2.337 -0.1878 -0.4636 -0.2427
40402SOL     OW23212   4.897   1.100   9.530 -0.5336  0.1137  0.0399
40402SOL    HW123213   4.909   1.134   9.618 -1.1545  0.8681 -0.1545
40402SOL    HW223214   4.982   1.112   9.488 -0.0725 -0.7705  0.6959
40403SOL     OW23215   2.512   4.349   8.991 -0.6553 -0.1483  0.1628
40403SOL    HW123216   2.570   4.310   8.926 -0.4529 -0.2070  0.3799
40403SOL    HW223217   2.430   4.300   8.982  0.1052 -1.7852  1.5752
40404SOL     OW23218   2.406   0.436   2.842 -0.2965  0.3605  0.6660
40404SOL    HW123219   2.499   0.440   2.822 -0.0766  1.0014  1.7712
40404SOL    HW223220   2.400   0.453   2.935 -1.5385  0.4219  0.5975
40405SOL     OW23221   7.476   0.868   0.964  0.1964  0.2659 -0.3544
40405SOL    HW123222   7.532   0.908   0.898 -0.4686  1.9479  0.0333
40405SOL    HW223223   7.536   0.826   1.026  1.0118  1.5798 -0.2268
40406SOL     OW23224   8.397   1.553   9.273 -0.0686  0.1577 -0.0331
40406SOL    HW123225   8.345   1.634   9.279  1.4016  1.1885 -0.6016
40406SOL    HW223226   8.337   1.489   9.237 -0.9495  1.3260 -0.7200
40407SOL     OW23227   3.315   2.529   3.234  0.1260  0.1593 -0.4475
40407SOL    HW123228   3.357   2.504   3.152 -0.2345 -0.0541 -0.5655
40407SOL    HW223229   3.384   2.576   3.282  0.9828 -1.4156 -0.0248
40408SOL     OW23230   8.160   8.706   6.449 -0.4473  0.1037 -0.7195
40408SOL    HW123231   8.181   8.700   6.356  2.6425 -1.0214 -0.0926
40408SOL    HW223232   8.130   8.795   6.462  0.0455  0.5915 -2.6367
40409SOL     OW23233   2.901  10.635   2.317 -0.0516  0.4792  0.3170
40409SOL    HW123234   2.826  10.628   2.376 -0.7816  1.1238 -0.5153
40409SOL    HW223235   2.870  10.602   2.233  0.9200 -0.2352  0.2218
40410SOL     OW23236   8.188   8.835   1.044  0.0789 -0.5551  1.4068
40410SOL    HW123237   8.205   8.758   1.099 -0.7795 -0.0259  2.4584
40410SOL    HW223238   8.093   8.834   1.030  0.2681 -0.6130 -0.0011
40411SOL     OW23239  10.684   0.612  10.957 -0.1659  0.2638  0.4445
40411SOL    HW123240  10.614   0.558  10.993 -1.5951  1.3397 -0.6248
40411SOL    HW223241  10.640   0.688  10.919  1.6242  1.2347  0.1683
40412SOL     OW23242   7.570   9.642   9.045  0.1712  0.1126 -0.1757
40412SOL    HW123243   7.657   9.622   9.079  1.4979  2.5718 -1.8320
40412SOL    HW223244   7.511   9.623   9.118  2.2997  0.2713  1.6955
40413SOL     OW23245   1.374   5.339   8.247  0.1678 -0.5213  0.5794
40413SOL    HW123246   1.405   5.268   8.303 -0.1074 -0.7547  0.4383
40413SOL    HW223247   1.310   5.386   8.301 -0.6655 -1.2033  0.2085
40414SOL     OW23248   8.630  10.537   4.710  0.6189 -0.5275  0.5070
40414SOL    HW123249   8.535  10.531   4.700  0.6256 -1.0522  0.7673
40414SOL    HW223250   8.648  10.502   4.797  0.8641  1.3101  1.2446
40415SOL     OW23251  10.888   5.872   5.019  0.5445  0.0389 -0.0342
40415SOL    HW123252  10.829   5.799   5.035  0.9423  0.1558  2.2484
40415SOL    HW223253  10.969   5.849   5.064  0.7538  1.7666  0.5701
40416SOL     OW23254   1.709  11.128   0.696  0.2686  0.5892  0.2390
40416SOL    HW123255   1.702  11.051   0.753  0.2687  1.2609  1.1700
40416SOL    HW223256   1.679  11.098   0.611 -2.7402  0.3346  1.2732
40417SOL     OW23257   7.584  10.461   9.588  0.8016  0.2922  0.4237
40417SOL    HW123258   7.650  10.497   9.646  0.1748 -0.1886  1.4659
40417SOL    HW223259   7.612  10.371   9.573  1.3773  0.6373 -0.6728
40418SOL     OW23260  10.688   7.534   2.109  0.0928 -0.5079  0.3938
40418SOL    HW123261  10.702   7.628   2.109  0.1180 -0.4794  2.3209
40418SOL    HW223262  10.599   7.523   2.076 -0.2384  0.2651  1.0092
40419SOL     OW23263   5.846   6.876   1.455  0.1665 -0.7018 -0.5112
40419SOL    HW123264   5.822   6.878   1.548  1.8224 -0.4160 -0.0590
40419SOL    HW223265   5.906   6.949   1.444 -2.7264  1.6144 -2.6745
40420SOL     OW23266   9.399   2.546   1.811  0.3592 -0.7573 -0.0244
40420SOL    HW123267   9.348   2.474   1.847 -0.2472 -1.5595 -2.3098
40420SOL    HW223268   9.399   2.612   1.880  1.0706 -2.9409  2.2329
40421SOL     OW23269   6.914   5.211  10.861 -0.1372 -0.3909 -0.1703
40421SOL    HW123270   6.837   5.239  10.812 -1.1135 -1.7195  0.5210
40421SOL    HW223271   6.878   5.169  10.939  1.3346  0.2434  0.8918
40422SOL     OW23272   8.821   3.926  10.048  0.2407 -0.1284  0.0086
40422SOL    HW123273   8.813   3.977  10.128  2.0039 -2.1225  1.5784
40422SOL    HW223274   8.907   3.951  10.013 -0.3763  0.4851 -1.1566
40423SOL     OW23275  11.018   9.407   7.264  0.9948  0.6749 -0.5847
40423SOL    HW123276  10.986   9.323   7.232  0.4064  0.2103  1.1605
40423SOL    HW223277  11.076   9.438   7.194 -0.5267 -0.1009 -2.2782
40424SOL     OW23278   2.987   2.080   3.652  1.1633  0.8061  0.4846
40424SOL    HW123279   2.942   2.021   3.712  0.8141 -0.0879 -0.6136
40424SOL    HW223280   3.080   2.060   3.665  1.0715  0.3574  0.4779
40425SOL     OW23281  11.175   8.852   1.573  0.1701 -0.0616  0.3043
40425SOL    HW123282  11.199   8.811   1.489  0.5884  1.3698 -0.3086
40425SOL    HW223283  11.254   8.899   1.600 -0.1646 -0.0044  1.1938
40426SOL     OW23284   8.813  10.857   6.995  0.1512  0.4501  0.3804
40426SOL    HW123285   8.775  10.929   7.045  0.0254  1.7170 -1.4240
40426SOL    HW223286   8.740  10.823   6.943  0.6490  0.3486 -0.2617
40427SOL     OW23287   1.250   0.115   7.278 -0.2245  0.9029  0.0994
40427SOL    HW123288   1.315   0.159   7.333 -2.0621  1.9434  1.5626
40427SOL    HW223289   1.275   0.022   7.282  1.9683  1.4281 -0.5759
40428SOL     OW23290  10.861   7.426   2.259  0.5542 -0.2299 -0.3476
40428SOL    HW123291  10.783   7.456   2.212  0.4405  1.8337  1.0527
40428SOL    HW223292  10.832   7.411   2.348  1.7796  0.8652  0.2762
40429SOL     OW23293   0.809   5.528  10.234  0.7564 -0.6909  0.2285
40429SOL    HW123294   0.779   5.484  10.155 -2.0128 -0.0484  0.8110
40429SOL    HW223295   0.781   5.472  10.306 -1.7187  1.2220  0.9231
40430SOL     OW23296   3.544   6.385  10.857 -0.1107 -0.3749  0.5545
40430SOL    HW123297   3.639   6.399  10.863 -0.1293 -0.4633  1.1008
40430SOL    HW223298   3.532   6.295  10.886 -0.1035 -1.2343 -1.8470
40431SOL     OW23299  10.940   7.574   0.528 -0.0009  0.4168  0.2732
40431SOL    HW123300  10.944   7.554   0.434 -2.5057  0.8858 -0.0171
40431SOL    HW223301  11.020   7.624   0.546  0.5387  0.3062 -1.6093
40432SOL     OW23302   8.546   8.221   7.210  0.2268  0.6657 -0.0622
40432SOL    HW123303   8.548   8.299   7.154  3.0024  0.3339 -0.5858
40432SOL    HW223304   8.498   8.156   7.158  1.6237  0.7646 -1.5729
40433SOL     OW23305   1.157   0.942   2.995  0.7651 -0.5346 -0.6485
40433SOL    HW123306   1.117   0.950   2.909 -0.9917  0.7174  0.2011
40433SOL    HW223307   1.082   0.929   3.054  1.7712  0.2122  0.8498
40434SOL     OW23308   2.863  10.475   3.506  0.7091  0.6312 -0.1331
40434SOL    HW123309   2.874  10.387   3.472  0.8049  0.5873  0.0109
40434SOL    HW223310   2.860  10.531   3.428  1.8643  0.6348 -0.1920
40435SOL     OW23311   6.218   6.953   4.280 -0.2367  0.4805 -0.8485
40435SOL    HW123312   6.194   6.911   4.362  2.2539  0.7434  0.1095
40435SOL    HW223313   6.150   7.020   4.267 -1.8546 -0.9609 -0.1662
40436SOL     OW23314   7.904   1.398   2.746  0.0844  0.0018  0.0475
40436SOL    HW123315   7.910   1.363   2.834  0.4717 -0.5183 -0.1804
40436SOL    HW223316   7.817   1.371   2.715 -0.5993  1.3125  0.7296
40437SOL     OW23317   7.796   2.001   5.077  0.4529 -0.1749 -0.2795
40437SOL    HW123318   7.856   2.039   5.013  2.5031 -1.6909  0.6248
40437SOL    HW223319   7.779   2.071   5.140  1.2612  0.3000 -0.5900
40438SOL     OW23320  10.029   3.055   2.509 -0.1733  0.2286 -0.3117
40438SOL    HW123321   9.993   2.967   2.498 -2.4307  0.7332  2.0572
40438SOL    HW223322  10.124   3.042   2.509 -0.2875 -1.6144 -3.7164
40439SOL     OW23323   3.254  10.088   3.941  0.4444 -0.1981 -0.3420
40439SOL    HW123324   3.247  10.183   3.953  4.1922 -0.0254  2.0604
40439SOL    HW223325   3.200  10.052   4.011  3.3554  0.4574  2.4880
40440SOL     OW23326   8.047   1.154   8.086 -0.1489 -0.4559 -0.4375
40440SOL    HW123327   8.074   1.116   8.003  0.7253 -1.4924  0.2882
40440SOL    HW223328   7.952   1.154   8.084 -0.1313 -0.4241 -1.4482
40441SOL     OW23329   3.563   8.332   8.125 -0.0591  0.5350  0.5160
40441SOL    HW123330   3.569   8.271   8.052  2.0408  0.3547  0.7850
40441SOL    HW223331   3.569   8.419   8.085  0.7940  0.4429  0.4257
40442SOL     OW23332   8.965   3.405   7.477  0.3576 -0.2260  0.1553
40442SOL    HW123333   9.038   3.395   7.416  0.7355  0.6883  0.4407
40442SOL    HW223334   9.006   3.420   7.562 -0.1260  1.8334  0.0717
40443SOL     OW23335  10.313   5.004   7.360  0.1344  0.6727  1.0773
40443SOL    HW123336  10.395   4.954   7.355  0.4484  1.1078  1.8179
40443SOL    HW223337  10.246   4.940   7.336  0.6089  0.0947  1.2389
40444SOL     OW23338   8.078  11.068   1.581  0.3292 -0.3399  0.1397
40444SOL    HW123339   8.074  11.140   1.517 -1.5011  1.7970  2.4583
40444SOL    HW223340   8.151  11.091   1.639 -0.2882 -0.2913  0.9122
40445SOL     OW23341   7.022   5.969  11.233  0.5665  1.1051 -0.4733
40445SOL    HW123342   6.941   6.014  11.209  0.6402  2.2520  1.2937
40445SOL    HW223343   7.051   6.012  11.313  1.8635 -0.6353  0.0494
40446SOL     OW23344   8.703   2.725  11.091 -0.0328  0.3489 -0.1255
40446SOL    HW123345   8.689   2.788  11.020  0.6115  0.9771  0.2929
40446SOL    HW223346   8.779   2.759  11.139 -2.5580  2.0024  3.0769
40447SOL     OW23347   7.993   4.361  10.288  0.6043 -0.2966  0.7291
40447SOL    HW123348   7.914   4.331  10.242  0.9777 -0.6176  0.2818
40447SOL    HW223349   7.972   4.350  10.381 -0.7844  1.9278  0.7536
40448SOL     OW23350   1.894   4.092   0.745  0.1540  0.0455 -0.0705
40448SOL    HW123351   1.887   4.125   0.655 -0.9500  0.9405  0.3219
40448SOL    HW223352   1.823   4.135   0.792 -0.3596 -1.7120  0.8492
40449SOL     OW23353  10.751   8.217   8.373  0.0048  0.0869  0.1640
40449SOL    HW123354  10.785   8.241   8.459 -0.2547 -0.0768  0.3141
40449SOL    HW223355  10.824   8.172   8.330  0.1690  0.2607  0.2568
40450SOL     OW23356   9.751   6.061   7.317  0.2639  0.6180  0.0387
40450SOL    HW123357   9.813   6.056   7.245 -0.5827  1.7519 -0.7917
40450SOL    HW223358   9.692   5.987   7.304  1.4647 -0.5338  0.8958
40451SOL     OW23359  10.689   6.443   9.009 -0.3018  0.4382  0.2295
40451SOL    HW123360  10.749   6.505   8.970  0.1707 -0.0702  0.1365
40451SOL    HW223361  10.613   6.442   8.951  0.7520 -0.9699 -1.2083
40452SOL     OW23362   8.842   4.145   2.272 -0.0492 -0.3445  0.5526
40452SOL    HW123363   8.905   4.202   2.317  0.5167  0.0976 -0.7512
40452SOL    HW223364   8.871   4.146   2.181 -1.8558 -0.2888 -0.0411
40453SOL     OW23365   7.699   9.822   5.989  0.3348 -0.1619 -0.7764
40453SOL    HW123366   7.618   9.852   5.947  1.1552  1.8069 -1.0353
40453SOL    HW223367   7.769   9.856   5.933  1.4846  2.5890  2.0826
40454SOL     OW23368   2.103   0.030   7.254  0.2330  0.0943 -0.0708
40454SOL    HW123369   2.177   0.090   7.248  0.3943 -0.0945  0.0705
40454SOL    HW223370   2.141  -0.057   7.264  0.0488 -0.2929 -2.2181
40455SOL     OW23371   4.266   4.359   5.162  0.2388  0.3568 -0.2545
40455SOL    HW123372   4.287   4.385   5.072 -1.5333  1.1945 -0.4577
40455SOL    HW223373   4.303   4.270   5.170  2.4654  1.1381 -1.0120
40456SOL     OW23374   2.552  10.925  10.821  0.0124  1.1925  0.2044
40456SOL    HW123375   2.634  10.942  10.869 -1.0520 -1.6390  3.4033
40456SOL    HW223376   2.501  11.006  10.833  0.3671  1.1227  2.8218
40457SOL     OW23377   5.323   3.512   2.166  0.3012 -0.1141 -0.2518
40457SOL    HW123378   5.417   3.525   2.178  0.1926  1.2638 -0.7858
40457SOL    HW223379   5.283   3.548   2.245  0.0918  1.6053 -1.0990
40458SOL     OW23380   1.539  10.556   6.997 -0.0981 -0.0394  0.0145
40458SOL    HW123381   1.496  10.556   7.083 -0.1446  0.5568 -0.0048
40458SOL    HW223382   1.605  10.488   7.004  0.8198  0.9021  0.9921
40459SOL     OW23383   3.851   7.760   8.263 -0.1069  0.3648  0.3238
40459SOL    HW123384   3.945   7.762   8.245  0.1004  1.9029  1.3663
40459SOL    HW223385   3.818   7.841   8.224 -0.4775  1.2737  2.4212
40460SOL     OW23386   4.816   4.399   4.943  0.2258 -0.1610 -0.4838
40460SOL    HW123387   4.814   4.318   4.994  0.1554  0.2754  0.2247
40460SOL    HW223388   4.758   4.382   4.868 -1.3017 -0.1392  0.6455
40461SOL     OW23389   5.464   4.569   1.433  0.1397 -1.1639  0.2829
40461SOL    HW123390   5.532   4.574   1.500  1.2376 -4.0261 -0.4573
40461SOL    HW223391   5.486   4.639   1.372 -0.0960  0.6214  2.1446
40462SOL     OW23392   7.685   4.987  10.974  0.2574  0.5143 -0.7042
40462SOL    HW123393   7.655   5.014  11.060  0.2628  0.7658 -0.7806
40462SOL    HW223394   7.612   5.009  10.915 -0.8903 -2.1218 -0.4009
40463SOL     OW23395   3.693   4.505   9.109  0.1716  0.1286  0.5693
40463SOL    HW123396   3.644   4.569   9.162 -1.6470 -0.9329  0.2805
40463SOL    HW223397   3.749   4.460   9.172  1.8515  2.2687  0.6971
40464SOL     OW23398   5.740   2.822   6.148  0.7991  0.1853 -0.6212
40464SOL    HW123399   5.769   2.758   6.083  2.3394  1.0193 -0.8182
40464SOL    HW223400   5.803   2.894   6.139  0.2714  0.8752  0.9207
40465SOL     OW23401   6.494   5.660   7.509  0.1471 -0.2453 -0.2407
40465SOL    HW123402   6.520   5.657   7.417  1.5822  0.5152  0.1070
40465SOL    HW223403   6.412   5.611   7.513  1.4333 -2.6728 -1.4605
40466SOL     OW23404   2.760   6.806   0.361  0.2039 -0.0852 -0.0563
40466SOL    HW123405   2.746   6.884   0.308  0.6260  0.3378  0.4565
40466SOL    HW223406   2.849   6.777   0.338 -0.2773 -0.9596 -0.9388
40467SOL     OW23407   3.171   7.173   0.381  0.7522 -0.1323 -0.0225
40467SOL    HW123408   3.239   7.124   0.428  2.2683  1.9551  0.0715
40467SOL    HW223409   3.102   7.185   0.447  1.3227 -0.2336  0.6114
40468SOL     OW23410   1.998   5.913   9.395  0.3738  0.3840 -0.5060
40468SOL    HW123411   2.000   5.970   9.472  0.4553 -0.6539  0.2816
40468SOL    HW223412   1.917   5.862   9.406  1.9977 -2.1606  0.7129
40469SOL     OW23413   5.424   0.901  11.278 -0.4536  0.1495  0.4809
40469SOL    HW123414   5.388   0.831  11.225 -0.0747 -1.2151  1.9648
40469SOL    HW223415   5.348   0.937  11.325 -0.3801 -0.5894  1.1875
40470SOL     OW23416   0.060   3.446   5.410  0.3749 -0.1991  0.6096
40470SOL    HW123417   0.034   3.358   5.380  0.4017 -0.9813  2.6890
40470SOL    HW223418  -0.023   3.487   5.435  0.3697  0.3754 -0.3091
40471SOL     OW23419   6.335   9.249   9.149  0.1702 -0.4098 -0.2709
40471SOL    HW123420   6.248   9.212   9.162 -0.3142  0.8012  0.0668
40471SOL    HW223421   6.377   9.189   9.087 -1.2253 -0.5202 -1.1726
40472SOL     OW23422   3.211   1.840   2.725 -0.1849 -0.1000  0.2598
40472SOL    HW123423   3.186   1.758   2.767  1.0925 -0.6947 -0.1106
40472SOL    HW223424   3.220   1.818   2.632 -3.7474  1.3492 -0.6240
40473SOL     OW23425   5.302   6.732   2.104  0.1525  0.0955 -0.1523
40473SOL    HW123426   5.284   6.781   2.024  0.1256 -0.3484 -0.4201
40473SOL    HW223427   5.353   6.657   2.075  0.4759  0.1373  0.3001
40474SOL     OW23428   3.964   3.511   8.840  0.4483 -0.1098  0.0052
40474SOL    HW123429   3.930   3.471   8.920  1.3675  0.9869  0.9886
40474SOL    HW223430   3.996   3.437   8.789 -1.8435 -1.0079 -0.2310
40475SOL     OW23431   3.781   8.835   0.464 -0.2450 -0.1536  0.2958
40475SOL    HW123432   3.690   8.806   0.470 -0.7460  1.3961  0.6032
40475SOL    HW223433   3.821   8.803   0.545 -0.3086 -1.4315 -0.1509
40476SOL     OW23434   0.607   2.262   9.442  0.4881 -0.2415 -0.4632
40476SOL    HW123435   0.528   2.259   9.496  1.3420 -1.2668  0.8139
40476SOL    HW223436   0.678   2.244   9.504  1.6941  0.4218 -1.6204
40477SOL     OW23437   4.167   6.012   3.860  0.7026 -0.2708  0.1772
40477SOL    HW123438   4.176   6.097   3.904 -0.9638 -1.3930  2.9907
40477SOL    HW223439   4.250   6.000   3.814  1.9012  1.8894  1.5593
40478SOL     OW23440   9.849   8.704   1.474  0.0831  0.0645  0.8816
40478SOL    HW123441   9.789   8.745   1.411 -0.6430 -1.0047  0.8633
40478SOL    HW223442   9.794   8.647   1.526  1.5102 -4.1612 -1.7253
40479SOL     OW23443   4.930   1.381   1.306  0.0109 -0.3815  0.5818
40479SOL    HW123444   4.922   1.308   1.246  1.2179  1.3444 -1.8277
40479SOL    HW223445   5.024   1.397   1.314 -0.2042  2.3718 -0.9776
40480SOL     OW23446   9.550   2.415   9.121 -0.6580  0.1564  0.0165
40480SOL    HW123447   9.556   2.323   9.098 -0.2716  0.5713 -1.6526
40480SOL    HW223448   9.456   2.431   9.134 -0.8311 -0.2357 -0.7275
40481SOL     OW23449   2.293   5.133   9.385  0.1798  0.5391  0.6930
40481SOL    HW123450   2.260   5.079   9.313  0.4395  0.0295  0.9514
40481SOL    HW223451   2.217   5.146   9.441  0.2897 -0.2082  1.0256
40482SOL     OW23452   1.085  10.614   7.566 -0.1230  0.5158 -0.9998
40482SOL    HW123453   1.156  10.678   7.555 -0.2001  0.8861  0.5260
40482SOL    HW223454   1.013  10.649   7.514 -0.4711  2.1827  0.5363
40483SOL     OW23455   2.645   1.377   8.021 -0.0658  0.0963  0.6660
40483SOL    HW123456   2.689   1.424   8.092  1.7289  0.3742 -0.5453
40483SOL    HW223457   2.715   1.357   7.959 -1.2334 -1.8612 -0.1249
40484SOL     OW23458   6.123   8.364   7.606  0.6236  0.3455 -0.9913
40484SOL    HW123459   6.108   8.419   7.683 -2.7535 -0.4739 -0.8883
40484SOL    HW223460   6.187   8.299   7.635  0.8422  1.1816  0.4924
40485SOL     OW23461   1.143   2.646   8.289  0.1835 -0.2609  0.1783
40485SOL    HW123462   1.200   2.640   8.212  0.3245  1.0211  0.1536
40485SOL    HW223463   1.169   2.572   8.344 -0.9891 -2.1562 -1.6652
40486SOL     OW23464   1.464   1.535   0.053 -0.7141  0.1052  0.3604
40486SOL    HW123465   1.536   1.532  -0.009 -0.7164 -1.4824  0.3765
40486SOL    HW223466   1.385   1.525  -0.000 -0.6037 -5.2467  0.6573
40487SOL     OW23467   9.726   3.931   1.443  0.8814 -0.0467 -0.5242
40487SOL    HW123468   9.781   3.865   1.400  1.5565  1.0957 -1.4942
40487SOL    HW223469   9.725   3.906   1.535 -0.3539 -2.4001 -1.1248
40488SOL     OW23470   5.061   9.936   6.090 -0.0160  0.1448  0.4435
40488SOL    HW123471   4.969   9.952   6.070  0.5871  1.1948 -1.8243
40488SOL    HW223472   5.103   9.929   6.004  2.5416  2.9250  1.2972
40489SOL     OW23473   4.723   6.284   9.109 -0.6541 -0.4393 -0.0357
40489SOL    HW123474   4.765   6.199   9.113 -0.9894 -0.5809  0.4857
40489SOL    HW223475   4.644   6.270   9.056 -1.0444 -0.5939  0.5868
40490SOL     OW23476   6.761  10.339   1.673  0.1160  0.1724 -0.3399
40490SOL    HW123477   6.807  10.317   1.754  0.6735  2.1788 -0.0575
40490SOL    HW223478   6.827  10.334   1.605  0.8760  2.9891  0.0563
40491SOL     OW23479   8.656   8.068   3.145 -0.4096  0.6694  0.1096
40491SOL    HW123480   8.731   8.010   3.158 -0.2393  0.8873  0.1119
40491SOL    HW223481   8.666   8.136   3.211 -1.1366  0.1772  0.7394
40492SOL     OW23482  10.764   4.140   7.415 -0.8258 -0.4514 -0.4108
40492SOL    HW123483  10.828   4.158   7.345  0.9405  0.2948  1.3042
40492SOL    HW223484  10.801   4.066   7.462 -1.0420  0.1941  0.8067
40493SOL     OW23485  10.573   9.350   3.032  0.4511 -0.7144 -0.1358
40493SOL    HW123486  10.550   9.359   3.124  1.0843  1.3519 -0.1235
40493SOL    HW223487  10.552   9.259   3.010 -1.3570 -0.7596  1.5701
40494SOL     OW23488   2.285   8.424   1.197 -0.3231  0.0380 -0.4612
40494SOL    HW123489   2.254   8.370   1.124 -0.2516  1.0612 -1.2643
40494SOL    HW223490   2.282   8.514   1.164 -0.0747  0.5012  0.7230
40495SOL     OW23491   1.562   4.361   2.647 -0.1856  0.5384  0.3961
40495SOL    HW123492   1.485   4.382   2.596 -2.1459 -2.5937  1.7509
40495SOL    HW223493   1.603   4.288   2.600  0.3337  0.3479  1.1188
40496SOL     OW23494  10.282   6.131   1.876 -0.1639 -0.5069 -0.0472
40496SOL    HW123495  10.249   6.079   1.950  0.4915  0.5411  1.0204
40496SOL    HW223496  10.375   6.144   1.896 -0.4938  1.8498  0.2258
40497SOL     OW23497   0.174  10.027   9.071 -0.1045  0.1182  0.1687
40497SOL    HW123498   0.149   9.968   9.000 -0.2959  0.3195  0.0674
40497SOL    HW223499   0.238   9.977   9.122  0.0298 -0.0341 -0.1407
40498SOL     OW23500  10.021   2.666   6.140 -0.9152 -0.4827  0.1659
40498SOL    HW123501   9.999   2.601   6.206 -1.4929  0.4814  0.9385
40498SOL    HW223502  10.108   2.641   6.110 -0.4878 -0.7172  1.5578
40499SOL     OW23503  10.825   7.942   3.019 -0.0054  0.2299  0.4590
40499SOL    HW123504  10.808   8.020   3.072  1.2267  0.2863  0.8025
40499SOL    HW223505  10.884   7.972   2.950 -2.7286  0.5085 -1.9423
40500SOL     OW23506  10.615   4.735   1.876 -0.0155  0.5885 -0.1599
40500SOL    HW123507  10.611   4.659   1.934  2.0016  1.2387  0.9032
40500SOL    HW223508  10.602   4.699   1.788 -2.1364 -0.5467  0.5259
40501SOL     OW23509   2.699   0.475   5.617 -0.0382 -0.2340  0.1562
40501SOL    HW123510   2.680   0.447   5.707 -0.6318  0.1267  0.1536
40501SOL    HW223511   2.698   0.394   5.566 -5.1366 -0.1237 -0.4762
40502SOL     OW23512  11.234   2.300   8.407 -0.4528 -0.1701 -0.0688
40502SOL    HW123513  11.243   2.384   8.452 -1.4582 -0.2818  0.3566
40502SOL    HW223514  11.238   2.235   8.476 -1.6222 -0.3627 -0.1673
40503SOL     OW23515   2.671   5.866  10.487  0.6684 -0.5451 -0.3457
40503SOL    HW123516   2.586   5.911  10.487 -0.0847 -1.8705  0.8130
40503SOL    HW223517   2.682   5.837  10.396  1.8272  2.9611 -1.4900
40504SOL     OW23518   7.903  11.151  10.288 -0.5118 -0.1329  0.5788
40504SOL    HW123519   7.837  11.091  10.321  1.7609 -3.0476  0.2464
40504SOL    HW223520   7.945  11.186  10.367 -1.2523  0.3526  0.7666
40505SOL     OW23521   8.674   8.464   6.008 -0.2562  0.1163 -0.0267
40505SOL    HW123522   8.727   8.430   6.080  1.3104  1.4531 -0.4995
40505SOL    HW223523   8.635   8.386   5.968 -1.3957 -0.6513  2.3809
40506SOL     OW23524   9.021   4.739   6.816  0.4127  0.0528  0.6427
40506SOL    HW123525   9.037   4.652   6.852 -3.2254 -0.7442  0.6694
40506SOL    HW223526   9.081   4.745   6.741  0.7359 -2.4812  0.6109
40507SOL     OW23527   7.867   8.214   6.601  0.0778  0.7957 -0.0653
40507SOL    HW123528   7.818   8.156   6.543 -0.0508 -0.3545  1.1384
40507SOL    HW223529   7.929   8.259   6.544 -0.9309  0.6880 -1.2830
40508SOL     OW23530   7.938   3.000   9.758 -0.6028 -0.3154  0.4626
40508SOL    HW123531   8.016   2.955   9.726 -1.4267  0.9866 -4.1476
40508SOL    HW223532   7.971   3.084   9.792  0.1996 -1.1630  1.8921
40509SOL     OW23533   5.120   4.672   4.706  0.2588  0.4437 -0.0758
40509SOL    HW123534   5.165   4.597   4.746  0.9074  1.0443  0.3558
40509SOL    HW223535   5.051   4.695   4.768  0.8612  0.9751  0.4244
40510SOL     OW23536   3.811   1.724   6.493 -0.0894  0.1524 -0.4532
40510SOL    HW123537   3.880   1.658   6.485  0.8384  1.1950 -1.4170
40510SOL    HW223538   3.800   1.758   6.405 -1.4691  0.4052 -0.2096
40511SOL     OW23539   4.582   1.708  10.983  0.4264  0.2016  0.1974
40511SOL    HW123540   4.634   1.701  11.063  0.9614  2.8776  0.1593
40511SOL    HW223541   4.495   1.675  11.008  1.4245 -2.1305  0.8881
40512SOL     OW23542   3.706  11.270   7.211 -0.5035 -0.3553  0.7051
40512SOL    HW123543   3.668  11.320   7.284 -0.0733 -0.2372  0.8489
40512SOL    HW223544   3.632  11.219   7.177 -1.0524  0.6870  0.2854
40513SOL     OW23545   2.823   2.335   6.066  0.2141 -0.1391  1.2971
40513SOL    HW123546   2.775   2.412   6.034  1.3127  0.2587  0.5649
40513SOL    HW223547   2.761   2.292   6.125 -1.4924 -0.3053 -0.4998
40514SOL     OW23548   1.823   9.297   0.106 -0.4963 -0.0685  0.1625
40514SOL    HW123549   1.860   9.296   0.194 -0.5408 -1.4436  0.1814
40514SOL    HW223550   1.730   9.317   0.120 -0.8224 -1.7236  0.5882
40515SOL     OW23551   1.863  10.820   3.615 -0.0255  0.3396  0.1227
40515SOL    HW123552   1.768  10.819   3.601  0.1346  0.5581 -1.0757
40515SOL    HW223553   1.884  10.913   3.624  0.1536  0.3349 -0.2333
40516SOL     OW23554   1.991   6.088   8.497 -0.1760  0.3830  0.4059
40516SOL    HW123555   1.997   6.152   8.426  1.5246 -0.7697 -0.5475
40516SOL    HW223556   1.984   6.004   8.453  1.5270 -0.4168  1.5645
40517SOL     OW23557  10.949  10.276   6.334  0.0923  0.1385 -0.5855
40517SOL    HW123558  11.000  10.357   6.339 -0.5357  0.6036 -1.4458
40517SOL    HW223559  10.962  10.246   6.243 -2.0952  0.9018 -1.2078
40518SOL     OW23560   9.415   1.175  10.055  0.7011  0.6570 -0.2346
40518SOL    HW123561   9.319   1.175  10.059  0.6821 -1.4468  2.3984
40518SOL    HW223562   9.435   1.141   9.968 -1.1493 -2.8688  0.5041
40519SOL     OW23563   3.586   6.514   4.080 -0.2096 -0.1118  0.0243
40519SOL    HW123564   3.519   6.570   4.040  0.6584 -1.1794 -3.2232
40519SOL    HW223565   3.644   6.576   4.125 -0.3754  1.4249 -1.7575
40520SOL     OW23566   1.951  10.441   5.145  0.2588  0.1207 -0.0326
40520SOL    HW123567   1.931  10.364   5.091 -0.5919 -2.7472  3.8800
40520SOL    HW223568   1.893  10.509   5.113 -0.2710 -1.3981 -2.5740
40521SOL     OW23569  10.810   4.610   3.298  0.1484  0.0123  0.1225
40521SOL    HW123570  10.803   4.688   3.354  1.7390 -1.7729  3.0711
40521SOL    HW223571  10.753   4.546   3.340  1.6183 -1.4905 -0.1083
40522SOL     OW23572   5.375   9.883   7.790  0.5334 -0.4660 -0.1371
40522SOL    HW123573   5.357   9.845   7.876 -0.4642 -0.4365 -0.3165
40522SOL    HW223574   5.386   9.808   7.732  0.4311 -0.4917 -0.1249
40523SOL     OW23575   6.927   7.663  10.066 -0.3500  0.4453  0.1898
40523SOL    HW123576   6.913   7.747  10.024  2.5967  0.6988 -0.4820
40523SOL    HW223577   7.002   7.677  10.125 -0.6592 -1.3648  1.1049
40524SOL     OW23578   0.859   0.025   3.539 -0.1274 -0.0481  0.0086
40524SOL    HW123579   0.809  -0.035   3.594  1.2357 -0.0131  1.3294
40524SOL    HW223580   0.915   0.073   3.599  1.0723  0.3394 -1.3537
40525SOL     OW23581   5.280   4.050   8.852  0.2388 -0.2757  0.4092
40525SOL    HW123582   5.344   3.984   8.822  0.6032  0.3168 -0.1209
40525SOL    HW223583   5.214   4.053   8.784  0.8703  0.7955 -0.1801
40526SOL     OW23584   0.144   6.666   9.019  0.0852 -0.0784 -0.3539
40526SOL    HW123585   0.150   6.761   9.023 -3.3085  0.3620 -2.2232
40526SOL    HW223586   0.090   6.643   9.095  2.8266 -0.9272  1.4987
40527SOL     OW23587   9.343   0.039  10.267  0.2603 -0.6685  0.4618
40527SOL    HW123588   9.279   0.105  10.294 -0.0654 -1.6369  2.2049
40527SOL    HW223589   9.414   0.047  10.331  0.4896 -1.6062  0.3462
40528SOL     OW23590   1.578   5.415   1.250 -0.0379  0.5705  0.2706
40528SOL    HW123591   1.524   5.338   1.264  0.9792 -0.4392 -1.1472
40528SOL    HW223592   1.564   5.468   1.329 -1.8009 -0.3977  0.6653
40529SOL     OW23593   4.441  11.270   8.581 -0.5151  0.2766 -0.0413
40529SOL    HW123594   4.435  11.300   8.491  0.0076  0.0976 -0.1401
40529SOL    HW223595   4.362  11.218   8.595  1.6132 -4.0393 -2.0176
40530SOL     OW23596  10.214   4.599   6.274 -0.2086  0.4566 -0.2723
40530SOL    HW123597  10.152   4.662   6.237  0.6528  0.8094 -1.1599
40530SOL    HW223598  10.204   4.521   6.220 -0.6797  0.1149  0.3010
40531SOL     OW23599   5.192   2.404   0.623 -0.8039 -0.2793  0.8804
40531SOL    HW123600   5.155   2.447   0.545  1.2202 -0.1705 -0.0938
40531SOL    HW223601   5.154   2.451   0.696 -0.0712  2.0590 -0.1319
40532SOL     OW23602  10.670   6.849   2.825  0.7997  0.1209  0.2926
40532SOL    HW123603  10.743   6.789   2.841  1.3876  0.6434 -0.3743
40532SOL    HW223604  10.639   6.828   2.737  1.5428  1.3069 -0.2866
40533SOL     OW23605   5.966   1.817   3.206  0.3864  0.0092 -0.3870
40533SOL    HW123606   6.005   1.863   3.280  0.4864  2.5488 -1.9019
40533SOL    HW223607   5.900   1.759   3.245  1.7691 -0.2168  1.7753
40534SOL     OW23608   7.068   3.748   9.834 -0.0008 -0.4685  0.1714
40534SOL    HW123609   6.994   3.692   9.856  0.1744 -0.4763  0.7523
40534SOL    HW223610   7.138   3.688   9.812 -0.0332 -0.4662  0.0594
40535SOL     OW23611   3.729   3.338   7.670  0.0034 -0.6950  0.5758
40535SOL    HW123612   3.824   3.335   7.682 -0.0632 -0.0312  1.3213
40535SOL    HW223613   3.704   3.246   7.660  0.8803 -0.8021 -1.0215
40536SOL     OW23614   4.360   4.409   2.585 -0.1679 -0.6399 -0.4360
40536SOL    HW123615   4.442   4.366   2.563 -0.1755  0.6285 -3.4092
40536SOL    HW223616   4.386   4.497   2.615 -0.4086 -0.2677 -1.2953
40537SOL     OW23617  11.113   1.900   3.031 -0.0685 -0.3892  0.0225
40537SOL    HW123618  11.121   1.849   2.950  0.9411  0.5453 -0.4915
40537SOL    HW223619  11.047   1.967   3.011 -0.8137 -0.9887  0.4345
40538SOL     OW23620   6.057   2.981   1.394  1.0929 -0.2504  0.4170
40538SOL    HW123621   6.144   2.943   1.381  0.7742 -0.9710  0.3889
40538SOL    HW223622   5.999   2.927   1.341  0.7843  0.9161 -0.4705
40539SOL     OW23623   7.371   6.448  10.852 -0.0216  0.1956  0.1726
40539SOL    HW123624   7.392   6.486  10.768 -0.4810 -0.0323 -0.0534
40539SOL    HW223625   7.275   6.446  10.854 -0.1002  2.3999  1.6936
40540SOL     OW23626   9.523  10.129   4.759 -0.1746  0.8229 -0.7196
40540SOL    HW123627   9.598  10.171   4.799 -1.4871  2.1037  0.5174
40540SOL    HW223628   9.540  10.132   4.665  1.9728 -0.2868 -0.4184
40541SOL     OW23629   5.853   8.010   0.612 -0.5788  0.4595  0.4254
40541SOL    HW123630   5.912   8.006   0.537 -1.0227 -0.9618  0.1184
40541SOL    HW223631   5.863   8.098   0.647  0.9743  0.5532 -0.2213
40542SOL     OW23632   8.308   2.550   3.131 -0.3840 -0.9063 -0.5696
40542SOL    HW123633   8.398   2.522   3.114 -0.8719 -2.3940 -0.9313
40542SOL    HW223634   8.258   2.514   3.057 -1.4187 -1.0298  0.1702
40543SOL     OW23635   1.228   0.980   8.496 -0.3537 -0.5638 -0.4059
40543SOL    HW123636   1.196   0.891   8.480  0.4595 -0.9859  0.2173
40543SOL    HW223637   1.299   0.992   8.433  1.4237 -1.4410  1.2889
40544SOL     OW23638   3.646   9.558  11.255 -0.0594  0.3391 -0.2285
40544SOL    HW123639   3.636   9.486  11.317 -0.0254 -0.7578 -1.4673
40544SOL    HW223640   3.591   9.628  11.291 -2.0279 -1.1176 -0.2360
40545SOL     OW23641   6.728   5.172   3.288 -0.9072  0.4548 -0.5126
40545SOL    HW123642   6.703   5.086   3.254  0.6377 -0.4808  0.5876
40545SOL    HW223643   6.822   5.178   3.273 -0.6181  1.0660  1.2329
40546SOL     OW23644   6.992   6.664  10.617 -0.1950 -0.1118  0.1437
40546SOL    HW123645   6.962   6.577  10.590 -0.1927  0.1215 -0.6122
40546SOL    HW223646   7.073   6.679  10.568 -0.7638  0.7618 -0.5648
40547SOL     OW23647   7.555   4.200   0.420  0.3988  0.0021  0.4933
40547SOL    HW123648   7.512   4.192   0.335 -1.1202  0.2608  1.2083
40547SOL    HW223649   7.594   4.288   0.419 -0.5189  0.4161  0.4625
40548SOL     OW23650  10.198   3.420  10.827 -0.0215 -0.2303 -0.3149
40548SOL    HW123651  10.274   3.413  10.884  0.2340 -0.1854 -0.6513
40548SOL    HW223652  10.148   3.493  10.863 -0.5680 -1.0610  0.6868
40549SOL     OW23653   1.330   5.992   5.623  0.2449  0.3129  0.0155
40549SOL    HW123654   1.347   5.919   5.682  0.3147 -0.2372 -0.6777
40549SOL    HW223655   1.399   5.987   5.557  0.8985  1.6606  0.5673
40550SOL     OW23656   7.238   9.133   4.108  0.2211  0.1687  0.4831
40550SOL    HW123657   7.291   9.185   4.170  0.8615  0.3303 -0.1862
40550SOL    HW223658   7.229   9.048   4.150  3.0666 -0.6706 -0.4000
40551SOL     OW23659   5.873   4.411   9.757 -0.4386  0.2905  0.2539
40551SOL    HW123660   5.811   4.351   9.715 -0.1862 -1.0785  1.7261
40551SOL    HW223661   5.926   4.444   9.685 -3.3405  2.1983 -1.2096
40552SOL     OW23662   2.078   6.187   6.667  0.3279  0.3585  0.5679
40552SOL    HW123663   1.990   6.157   6.643 -0.6114  1.9761  1.7662
40552SOL    HW223664   2.135   6.149   6.601 -1.3099 -0.5075 -0.4168
40553SOL     OW23665   3.296   3.851   1.331 -0.4653 -0.1161 -0.8761
40553SOL    HW123666   3.328   3.917   1.392 -2.0229  1.6319 -1.8492
40553SOL    HW223667   3.349   3.773   1.349  0.8333  1.1203  0.9116
40554SOL     OW23668   1.135   8.443   9.880  0.3135  0.0267  0.0488
40554SOL    HW123669   1.075   8.373   9.854  0.1769 -0.8677  2.5628
40554SOL    HW223670   1.223   8.404   9.872  0.4365  0.5271 -1.2459
40555SOL     OW23671   4.125   0.046   2.116  0.3580  0.1999  0.3983
40555SOL    HW123672   4.179  -0.031   2.131  0.3680  0.5211  2.2542
40555SOL    HW223673   4.170   0.093   2.046  0.0272 -1.7307 -1.1786
40556SOL     OW23674  10.982   2.887   8.884 -0.4957 -0.0525 -0.7347
40556SOL    HW123675  11.077   2.896   8.893 -0.9179  4.3306  2.1946
40556SOL    HW223676  10.962   2.804   8.927  1.9368 -1.3113 -1.7819
40557SOL     OW23677   6.072   3.894   8.695 -0.0623 -0.7911 -0.2689
40557SOL    HW123678   6.089   3.855   8.609 -1.3735  1.7030 -1.7685
40557SOL    HW223679   6.133   3.849   8.754  0.5496 -2.9323 -2.3772
40558SOL     OW23680   1.728   6.518   5.719  0.0370  0.4705 -0.0681
40558SOL    HW123681   1.636   6.518   5.692 -0.7507 -0.5448  2.3084
40558SOL    HW223682   1.751   6.611   5.728 -0.6169  0.7394 -1.0048
40559SOL     OW23683   5.626   1.575   9.741 -0.2836 -0.4370 -0.3524
40559SOL    HW123684   5.639   1.481   9.755 -3.0342 -0.7240  1.0154
40559SOL    HW223685   5.673   1.617   9.812  1.1382 -0.7188 -1.0878
40560SOL     OW23686   2.912  10.459   2.542 -0.0577  0.0835 -0.0341
40560SOL    HW123687   2.961  10.516   2.484 -2.2303  1.2297 -0.8878
40560SOL    HW223688   2.892  10.514   2.618  1.3634 -0.8937  1.0935
40561SOL     OW23689   6.233   4.127  10.010  0.6725  0.7295  0.4338
40561SOL    HW123690   6.248   4.032  10.005  0.5535  0.7780 -1.8511
40561SOL    HW223691   6.153   4.135  10.063  0.4468 -0.4678  0.3139
40562SOL     OW23692   0.446   8.261   9.259  0.2018 -0.0040  0.0573
40562SOL    HW123693   0.442   8.165   9.261 -2.2747  0.0304  1.0249
40562SOL    HW223694   0.435   8.283   9.166  1.8740 -0.6219 -0.3201
40563SOL     OW23695   8.781   1.350   5.659 -0.2653 -0.0192 -0.1877
40563SOL    HW123696   8.741   1.289   5.721  1.3263 -1.0978 -0.1529
40563SOL    HW223697   8.742   1.327   5.575 -2.3239  1.3537  0.3179
40564SOL     OW23698   3.581   5.816  10.401  0.6805 -0.1960  0.2864
40564SOL    HW123699   3.498   5.800  10.446  1.5320 -0.3872  1.8646
40564SOL    HW223700   3.584   5.911  10.389  0.1632 -0.2038  0.0494
40565SOL     OW23701   1.052  10.723   8.363 -0.2653 -0.1879 -0.1321
40565SOL    HW123702   0.967  10.723   8.408  0.9417  1.8021  2.3856
40565SOL    HW223703   1.089  10.637   8.383 -0.5823 -0.0614  1.0823
40566SOL     OW23704  10.085   1.192   5.657  1.1916 -0.4966 -0.5063
40566SOL    HW123705  10.089   1.248   5.580 -0.7820  1.0334  0.4395
40566SOL    HW223706  10.059   1.106   5.623 -1.4994  0.5908 -1.4260
40567SOL     OW23707   5.931   7.225   0.395  0.1697  0.0147 -0.6209
40567SOL    HW123708   5.985   7.249   0.471  0.6767  0.5252 -1.1282
40567SOL    HW223709   5.891   7.308   0.367 -1.9999 -0.5578  0.5668
40568SOL     OW23710   2.262   1.386   6.964  0.4584  0.6334 -0.1686
40568SOL    HW123711   2.188   1.442   6.985 -0.0946  0.6820 -2.0561
40568SOL    HW223712   2.247   1.307   7.015 -0.5677  0.8984 -0.0342
40569SOL     OW23713  10.402   4.539   8.128 -0.1016  0.0067  0.3057
40569SOL    HW123714  10.440   4.535   8.215 -1.3222 -1.0333  0.8292
40569SOL    HW223715  10.362   4.626   8.123 -0.8701 -0.2886  1.1668
40570SOL     OW23716  10.239   2.023   8.077  0.2425  0.2481 -0.2486
40570SOL    HW123717  10.324   2.051   8.044 -0.0453  0.0467 -1.1675
40570SOL    HW223718  10.181   2.027   8.002 -0.5423  0.2612  0.3443
40571SOL     OW23719   9.965   8.006   0.228  0.4605  0.4676  0.2216
40571SOL    HW123720  10.013   7.924   0.238  0.5841  0.4537 -0.4712
40571SOL    HW223721   9.946   8.033   0.318  1.6923  0.4346  0.5127
40572SOL     OW23722   0.422   8.510   9.771  0.4405  0.3025  0.4837
40572SOL    HW123723   0.405   8.557   9.690 -1.1766  0.6835  1.0041
40572SOL    HW223724   0.461   8.576   9.829  1.2688  0.1194  0.1454
40573SOL     OW23725   5.865  10.884   6.435 -0.0446  0.0656 -0.4119
40573SOL    HW123726   5.939  10.832   6.464 -1.1400 -2.3408 -1.6394
40573SOL    HW223727   5.902  10.946   6.372  0.8913 -1.3071 -1.2531
40574SOL     OW23728   6.779   2.514   7.036 -0.4740  0.4268  0.4276
40574SOL    HW123729   6.837   2.446   7.071 -0.3454  0.3995  0.1651
40574SOL    HW223730   6.693   2.492   7.072 -0.1802  0.9348  1.4695
40575SOL     OW23731   4.303   2.866   3.526  0.0653  0.6793  0.0535
40575SOL    HW123732   4.294   2.788   3.580 -0.6576 -0.5370 -1.7438
40575SOL    HW223733   4.242   2.929   3.566 -1.5590 -0.6803 -0.1624
40576SOL     OW23734   3.862   5.562   6.353 -0.0081  0.2170 -0.5425
40576SOL    HW123735   3.846   5.515   6.271  1.4118  0.7864 -1.1956
40576SOL    HW223736   3.907   5.499   6.409 -1.2624 -0.2703 -0.0731
40577SOL     OW23737   3.911   7.173   9.453 -1.0396  0.9724  0.6875
40577SOL    HW123738   3.922   7.130   9.538 -1.6681  0.7500  0.6609
40577SOL    HW223739   3.996   7.215   9.436 -0.8624  0.8941  1.3533
40578SOL     OW23740   0.617   3.153   4.646 -0.2114  0.1452  0.1476
40578SOL    HW123741   0.558   3.083   4.674  0.8610 -1.2364 -0.8363
40578SOL    HW223742   0.696   3.140   4.700  0.5992 -0.4626 -1.1216
40579SOL     OW23743   7.344   9.105   9.933  0.3812 -0.3811 -0.0154
40579SOL    HW123744   7.251   9.127   9.929  0.6689  0.6814 -1.6751
40579SOL    HW223745   7.349   9.019   9.891  0.2870  0.0863 -1.0036
40580SOL     OW23746   0.513  10.818   5.742 -0.7627 -0.5382 -0.2732
40580SOL    HW123747   0.449  10.889   5.750 -1.1075 -0.9023  0.2781
40580SOL    HW223748   0.549  10.828   5.654 -0.8596  0.2727 -0.2327
40581SOL     OW23749   0.549   2.756   6.651  0.6032  0.0759  0.5251
40581SOL    HW123750   0.484   2.825   6.636  0.4836 -0.5005 -2.2414
40581SOL    HW223751   0.617   2.773   6.585  0.5522 -2.3951 -0.2744
40582SOL     OW23752   5.877   1.513   0.072  0.5009 -0.1763  0.2555
40582SOL    HW123753   5.954   1.565   0.051 -0.1037  0.7935  0.3925
40582SOL    HW223754   5.864   1.525   0.166 -0.5593  0.7248  0.0145
40583SOL     OW23755   9.862   0.831  10.177 -0.3374  0.3294  0.0185
40583SOL    HW123756   9.808   0.907  10.153  0.2788  0.9572  0.5644
40583SOL    HW223757   9.934   0.832  10.114 -0.2670  0.2630  0.0973
40584SOL     OW23758   4.057   8.637   6.113  0.6006 -0.2623 -0.2449
40584SOL    HW123759   3.981   8.591   6.147  0.5572  0.9263  1.4344
40584SOL    HW223760   4.132   8.583   6.138  0.4250 -0.4534 -0.1356
40585SOL     OW23761  10.301   9.978   5.873  0.0769  0.3165  0.6113
40585SOL    HW123762  10.235   9.930   5.821  0.4859 -0.5860  0.9011
40585SOL    HW223763  10.260  10.062   5.891 -1.5080 -0.6483  1.7762
40586SOL     OW23764   1.933   8.016  10.042  0.5530  0.4321  0.5770
40586SOL    HW123765   1.964   7.986  10.127 -1.5008 -2.8581  0.3618
40586SOL    HW223766   1.853   8.066  10.062 -1.2436 -2.2506  0.6604
40587SOL     OW23767  10.893   1.732   3.108 -0.0913 -1.3335 -0.2485
40587SOL    HW123768  10.926   1.819   3.089 -2.6499 -0.1108  0.3857
40587SOL    HW223769  10.800   1.736   3.086 -0.3694 -3.8051  0.1465
40588SOL     OW23770   4.603   4.895   9.881  0.2006 -0.2096 -0.1214
40588SOL    HW123771   4.574   4.969   9.827  0.1619 -0.0973  0.0534
40588SOL    HW223772   4.697   4.892   9.868  0.1985 -0.1494 -0.1530
40589SOL     OW23773   5.150   9.270   8.550  0.1773 -0.3701  0.3766
40589SOL    HW123774   5.179   9.328   8.621 -2.3358 -1.7300  2.7241
40589SOL    HW223775   5.143   9.328   8.474  0.2573  1.8369  1.9315
40590SOL     OW23776  10.874   7.525   4.925 -0.0339 -0.5407  0.4178
40590SOL    HW123777  10.874   7.619   4.907 -1.6124 -0.3437  1.3018
40590SOL    HW223778  10.885   7.484   4.838  2.0228  0.4131  0.1644
40591SOL     OW23779   5.907   6.254  10.725  0.6230  0.3081  0.3507
40591SOL    HW123780   5.963   6.269  10.648 -0.1164  0.7479 -0.1138
40591SOL    HW223781   5.824   6.225  10.688  0.4369 -0.0241  1.0195
40592SOL     OW23782   9.138  11.049   8.328 -0.3847  0.4189  0.2823
40592SOL    HW123783   9.161  11.119   8.267 -0.1286  0.7295  0.7370
40592SOL    HW223784   9.216  11.036   8.382  1.9151 -4.1802 -3.4063
40593SOL     OW23785   0.179   2.856  10.678  0.2365 -0.2679 -0.2474
40593SOL    HW123786   0.165   2.766  10.648  1.7935  0.0232 -2.0517
40593SOL    HW223787   0.098   2.902  10.656 -0.5958 -1.1921  0.7436
40594SOL     OW23788   7.979   4.865   8.407  0.2307  0.4382  0.1946
40594SOL    HW123789   7.948   4.955   8.396  3.1543  1.6008  0.4946
40594SOL    HW223790   8.039   4.851   8.333 -0.7350 -1.5906 -0.2798
40595SOL     OW23791   7.233   9.911   3.492 -0.4492  0.0885 -0.3564
40595SOL    HW123792   7.287   9.987   3.513  0.7044 -0.5435 -0.9176
40595SOL    HW223793   7.143   9.943   3.499  0.0028  1.4314 -0.3120
40596SOL     OW23794   6.938   8.949  10.028 -0.2654  0.1637  0.0599
40596SOL    HW123795   6.884   8.893   9.972  1.2979 -1.9336  0.4986
40596SOL    HW223796   6.968   8.891  10.097 -1.2436  2.4175  2.5285
40597SOL     OW23797  10.282   9.508   0.718 -0.2445  0.1661  0.0690
40597SOL    HW123798  10.275   9.558   0.799  1.1071 -0.2048  0.4469
40597SOL    HW223799  10.192   9.495   0.689 -0.8695 -1.0755  2.3765
40598SOL     OW23800   4.899   4.927   9.120  0.2355 -0.3943 -0.3961
40598SOL    HW123801   4.960   4.985   9.074 -0.5575  0.3818 -0.4875
40598SOL    HW223802   4.899   4.846   9.068  1.5414 -0.5952 -0.1258
40599SOL     OW23803   6.632   8.741   7.376  0.4148  0.5398  0.7023
40599SOL    HW123804   6.640   8.830   7.412  1.5151 -0.0441  1.9954
40599SOL    HW223805   6.721   8.706   7.380  0.2247 -0.1841 -1.0069
40600SOL     OW23806   5.599   2.789   0.859 -0.0175 -0.1191  0.6526
40600SOL    HW123807   5.694   2.775   0.850  0.0341  0.0311  0.9770
40600SOL    HW223808   5.560   2.712   0.816  0.1964  1.2136 -2.1383
40601SOL     OW23809   5.651   7.621   6.279 -0.0914  0.3459  0.1343
40601SOL    HW123810   5.582   7.640   6.343  0.5100  0.2541  0.8109
40601SOL    HW223811   5.687   7.707   6.257 -0.1795  0.3605  0.0425
40602SOL     OW23812   0.021   9.527   5.199 -0.7749 -0.3778  0.1218
40602SOL    HW123813  -0.068   9.504   5.174 -0.6868 -0.3408 -0.2404
40602SOL    HW223814   0.074   9.503   5.123 -0.4398 -0.6464  0.4395
40603SOL     OW23815   9.758   7.361   4.581 -0.0276 -0.0048  0.4683
40603SOL    HW123816   9.664   7.357   4.562  0.1831  1.9456 -1.4519
40603SOL    HW223817   9.766   7.426   4.651 -0.0553  0.5262 -0.0158
40604SOL     OW23818   4.844   3.214   0.799 -0.1709  0.2546 -0.2846
40604SOL    HW123819   4.796   3.285   0.841 -1.8199 -0.2664 -1.1949
40604SOL    HW223820   4.900   3.258   0.734  1.0471  0.9089  1.1498
40605SOL     OW23821   3.838   9.449   9.040 -0.5051  0.8080 -0.5832
40605SOL    HW123822   3.873   9.452   8.952  0.2934  3.0633 -0.2636
40605SOL    HW223823   3.816   9.540   9.060 -0.1979  0.4418  1.7185
40606SOL     OW23824   3.453   5.226   0.353 -0.3394  0.2689 -0.1996
40606SOL    HW123825   3.375   5.267   0.391 -1.3292 -0.8513 -0.9386
40606SOL    HW223826   3.506   5.300   0.324 -1.6697  1.0675 -0.7137
40607SOL     OW23827   5.916   3.637   5.204 -0.2357  0.5920 -0.4859
40607SOL    HW123828   5.984   3.575   5.231 -0.1172  0.4445 -1.1047
40607SOL    HW223829   5.854   3.638   5.277  0.4298  0.7292  0.0826
40608SOL     OW23830   5.941   6.259   0.306  0.7511 -0.1946  0.0969
40608SOL    HW123831   6.000   6.198   0.261  0.4390  0.0292 -0.6367
40608SOL    HW223832   5.947   6.235   0.398  1.8995 -0.2526  0.0248
40609SOL     OW23833   6.949  10.995   2.310  0.7089 -0.0777  0.1238
40609SOL    HW123834   6.944  11.002   2.405  0.8875 -0.5403  0.1685
40609SOL    HW223835   6.915  10.908   2.290  0.1453  0.2255 -0.2814
40610SOL     OW23836   0.863   6.592   6.529  0.2916 -0.3381  0.4328
40610SOL    HW123837   0.950   6.593   6.569  1.2588  2.4349 -1.4607
40610SOL    HW223838   0.867   6.517   6.468  1.2079 -0.4895  0.6526
40611SOL     OW23839   8.001   3.304   6.320  0.0091  0.6528  0.0579
40611SOL    HW123840   7.933   3.248   6.358 -0.3342 -0.1009 -1.5851
40611SOL    HW223841   8.077   3.247   6.313  0.5743  1.2454  1.0507
40612SOL     OW23842   0.928   3.775  11.083  0.1884 -0.5945  0.3674
40612SOL    HW123843   0.996   3.726  11.038  1.1935  1.9127 -1.0714
40612SOL    HW223844   0.853   3.772  11.023  0.5271  0.2588 -0.1149
40613SOL     OW23845   9.201   8.415   6.171 -0.2555  0.2220  0.0076
40613SOL    HW123846   9.141   8.352   6.130  0.8620 -1.7270  1.2168
40613SOL    HW223847   9.257   8.444   6.099 -0.3730 -0.6768 -0.4626
40614SOL     OW23848   0.173   6.145   6.106  0.2620  0.3164 -0.3955
40614SOL    HW123849   0.188   6.203   6.032 -0.0163  1.6925  0.5751
40614SOL    HW223850   0.106   6.189   6.158 -0.9962 -1.5751 -0.3178
40615SOL     OW23851   7.192   7.518   2.555 -0.6300 -0.4032  0.0836
40615SOL    HW123852   7.231   7.483   2.474  1.2143  0.2395  0.6488
40615SOL    HW223853   7.183   7.442   2.612 -0.9353 -0.6912 -0.3448
40616SOL     OW23854   5.795   6.528   1.990 -0.1946 -0.3223 -0.1291
40616SOL    HW123855   5.847   6.604   1.964 -2.0996  1.7350  1.6689
40616SOL    HW223856   5.745   6.505   1.912 -0.5846  1.1464 -0.3337
40617SOL     OW23857   3.130  10.605   1.472 -0.4761  0.1189 -0.3846
40617SOL    HW123858   3.154  10.683   1.521 -1.1279 -0.2005  0.4898
40617SOL    HW223859   3.049  10.629   1.427  0.5170  0.6582 -1.9665
40618SOL     OW23860  10.453   5.350   2.728  0.4356 -0.5064  1.0792
40618SOL    HW123861  10.373   5.401   2.736  0.3468 -0.1265 -1.4652
40618SOL    HW223862  10.460   5.329   2.635  4.5128  1.6385  0.6229
40619SOL     OW23863   2.044   7.543   9.255 -0.6198  0.1436 -0.3116
40619SOL    HW123864   2.123   7.566   9.205 -0.7627  2.4713  0.3988
40619SOL    HW223865   2.074   7.481   9.321  0.9484  1.9225  0.7385
40620SOL     OW23866   0.392   9.090   6.722  0.4259  0.2064 -0.2953
40620SOL    HW123867   0.363   9.166   6.771 -1.2746 -0.4705 -0.1687
40620SOL    HW223868   0.366   9.108   6.631 -3.2725 -1.5584  0.1995
40621SOL     OW23869   9.576   7.676   8.310 -0.0408  0.6097 -0.1857
40621SOL    HW123870   9.597   7.707   8.398 -0.1524 -0.4016  0.2108
40621SOL    HW223871   9.571   7.756   8.257  1.6702  1.1358  0.3701
40622SOL     OW23872   4.755  10.620   2.572 -0.3279 -0.1798  0.1377
40622SOL    HW123873   4.698  10.685   2.614 -1.1024 -0.5915 -0.2520
40622SOL    HW223874   4.806  10.582   2.644 -0.3339  0.4055  0.4521
40623SOL     OW23875   1.233   5.140  10.591  0.0888  0.0332 -0.2395
40623SOL    HW123876   1.142   5.113  10.606  0.0173 -1.1839 -2.5054
40623SOL    HW223877   1.272   5.068  10.542  2.6225  0.0897  1.5167
40624SOL     OW23878   2.941   8.954   1.939  0.2113  0.0133  0.2629
40624SOL    HW123879   3.011   8.915   1.992 -0.7854  0.1244  1.7232
40624SOL    HW223880   2.919   9.035   1.985  0.4913  1.0167 -1.3120
40625SOL     OW23881   8.850  10.775   4.096  0.3344  0.1760  0.2936
40625SOL    HW123882   8.793  10.783   4.172  1.0937  0.0577  0.8843
40625SOL    HW223883   8.865  10.866   4.068  1.1163  0.2979  1.0896
40626SOL     OW23884   5.205   2.407   9.486  0.5529  0.2232  0.5541
40626SOL    HW123885   5.159   2.396   9.402  2.2175  0.0090 -0.3779
40626SOL    HW223886   5.216   2.502   9.495 -0.3555  0.2997  0.9638
40627SOL     OW23887   3.948   2.378   9.100 -0.1079 -0.6363  0.0228
40627SOL    HW123888   4.031   2.420   9.123 -1.1259  1.3199  0.3814
40627SOL    HW223889   3.966   2.285   9.104  1.5858 -0.3056  2.0219
40628SOL     OW23890   8.652   1.907   7.708 -0.0920 -0.4626  0.2083
40628SOL    HW123891   8.562   1.897   7.678 -0.4398 -0.4004  1.1947
40628SOL    HW223892   8.697   1.828   7.677 -1.1231 -1.7863  1.9288
40629SOL     OW23893   4.316   5.950   5.590  0.2446  0.4178  0.2924
40629SOL    HW123894   4.386   5.999   5.634  0.7899  0.7083 -0.8342
40629SOL    HW223895   4.361   5.903   5.520 -0.2460 -1.8589  1.4263
40630SOL     OW23896   0.773   5.828  10.292  0.0024 -0.1475 -0.6690
40630SOL    HW123897   0.728   5.814  10.209 -0.7138 -2.1509  0.0080
40630SOL    HW223898   0.704   5.858  10.352  0.2351 -0.0433 -0.4509
40631SOL     OW23899   3.566   5.309  10.523  0.4367  0.5202  0.0041
40631SOL    HW123900   3.541   5.232  10.471  3.1046  0.2924 -1.1132
40631SOL    HW223901   3.483   5.341  10.560 -0.6696 -3.8847  2.0290
40632SOL     OW23902   0.859   9.150   9.935  0.0474 -0.7841 -0.5674
40632SOL    HW123903   0.790   9.173   9.873 -1.9524 -0.4847  1.6542
40632SOL    HW223904   0.864   9.224   9.995  2.3192 -0.8259 -0.6247
40633SOL     OW23905   4.101   4.530  10.956  0.2520 -0.4066  0.0149
40633SOL    HW123906   4.041   4.586  10.906  1.0570  4.3154  3.6787
40633SOL    HW223907   4.054   4.512  11.037  2.4139  0.5107  1.5596
40634SOL     OW23908   9.567   1.952   0.365  0.0909 -0.0089  0.6404
40634SOL    HW123909   9.598   1.891   0.432  0.0659 -0.0916  0.5761
40634SOL    HW223910   9.622   1.934   0.289 -0.6216 -0.6847  0.2780
40635SOL     OW23911   3.418   2.727   2.096  0.1901  0.2781 -0.1743
40635SOL    HW123912   3.477   2.694   2.164 -1.1384  0.0628  0.9181
40635SOL    HW223913   3.402   2.652   2.039  0.7830  0.2812 -0.3511
40636SOL     OW23914  10.258   8.038   2.227 -0.6225 -0.0538 -0.0792
40636SOL    HW123915  10.249   8.043   2.322 -2.7119 -0.0658 -0.2314
40636SOL    HW223916  10.284   8.127   2.200  1.3866 -0.3957  0.5782
40637SOL     OW23917   2.756   1.571   9.731  0.5958  0.0227 -0.1165
40637SOL    HW123918   2.828   1.621   9.692  0.5578 -0.6934 -1.1490
40637SOL    HW223919   2.696   1.638   9.763  1.3954  0.6341  0.1565
40638SOL     OW23920   6.169   5.328   6.522  0.0143  0.0768 -0.2057
40638SOL    HW123921   6.129   5.402   6.476 -1.3639 -1.9340 -2.4966
40638SOL    HW223922   6.153   5.347   6.614 -2.8102  1.3545 -0.8224
40639SOL     OW23923   8.330   1.995   9.378 -0.0467 -0.1752  0.0022
40639SOL    HW123924   8.417   1.964   9.405 -0.8946 -1.4027  1.5069
40639SOL    HW223925   8.320   2.079   9.424  0.4148  0.0650 -0.3301
40640SOL     OW23926  10.364   3.842   1.112 -0.0710  0.1630 -0.4247
40640SOL    HW123927  10.431   3.889   1.062 -1.5045  1.0805 -1.5566
40640SOL    HW223928  10.289   3.901   1.114 -0.3273 -0.1141  2.2960
40641SOL     OW23929   9.329   2.379   6.760  0.1852 -0.6788 -1.0592
40641SOL    HW123930   9.292   2.458   6.720 -1.4354 -1.5559 -1.3989
40641SOL    HW223931   9.349   2.322   6.686  0.3565 -1.0026 -0.7636
40642SOL     OW23932   6.944   7.001   3.918  0.0764 -0.3629  0.2071
40642SOL    HW123933   6.965   6.923   3.867  1.5386  0.8239 -1.1113
40642SOL    HW223934   6.854   7.022   3.891  1.2588  1.0666 -3.2193
40643SOL     OW23935   8.423   3.354   0.699 -0.1004  0.0918  0.0222
40643SOL    HW123936   8.474   3.415   0.645  0.9982 -0.0684  0.8415
40643SOL    HW223937   8.335   3.359   0.663  0.1300  1.5801 -0.4302
40644SOL     OW23938   0.541   7.187  10.567 -0.4089 -0.1095  0.0778
40644SOL    HW123939   0.472   7.209  10.504  0.6372  1.9751 -0.4023
40644SOL    HW223940   0.546   7.263  10.625  2.3787  0.4309 -0.7297
40645SOL     OW23941   7.741   1.390   1.597 -0.0069 -0.0395 -0.1820
40645SOL    HW123942   7.686   1.344   1.534  1.1360  0.2600 -1.4384
40645SOL    HW223943   7.709   1.480   1.597 -0.9453 -0.3480  0.7866
40646SOL     OW23944   6.822   2.542   4.994 -0.1826  0.3005  0.2971
40646SOL    HW123945   6.842   2.617   5.050  0.2815 -0.6524  1.4366
40646SOL    HW223946   6.904   2.493   4.990 -0.8084 -0.7882  0.5667
40647SOL     OW23947   2.371   0.214   8.397  0.1889 -0.8343 -0.1417
40647SOL    HW123948   2.357   0.243   8.306 -1.8364 -0.1724  0.3318
40647SOL    HW223949   2.464   0.228   8.412  0.6911 -1.4253 -2.2644
40648SOL     OW23950   8.764   4.386   3.651 -0.1827  0.2200 -0.3495
40648SOL    HW123951   8.805   4.448   3.590  0.2342  0.7016  0.4032
40648SOL    HW223952   8.692   4.435   3.690  1.3453  0.9644  1.7231
40649SOL     OW23953   5.386   6.926   4.108 -0.4135  0.5635  0.1065
40649SOL    HW123954   5.372   6.905   4.015 -0.3312  1.3550 -0.1005
40649SOL    HW223955   5.472   6.891   4.128 -0.4174  0.4129 -0.1324
40650SOL     OW23956   1.793  10.539   6.264  0.2603  0.1146 -0.1605
40650SOL    HW123957   1.762  10.619   6.308  2.5838  0.9066  0.1849
40650SOL    HW223958   1.818  10.481   6.336  2.5393  0.7750 -0.3518
40651SOL     OW23959   1.450   0.269   7.401  0.3127 -0.8299  0.0410
40651SOL    HW123960   1.504   0.316   7.337  1.4747 -0.7721  1.0161
40651SOL    HW223961   1.504   0.194   7.426 -0.4545 -1.2752  0.3848
40652SOL     OW23962  10.124   1.864   9.042  0.3548  1.1162 -0.5036
40652SOL    HW123963  10.117   1.884   8.948 -0.5910  1.1257 -0.4454
40652SOL    HW223964  10.089   1.776   9.050  1.3046  0.7557 -0.2775
40653SOL     OW23965   0.218   1.961   7.190 -0.5510 -0.6823  0.0635
40653SOL    HW123966   0.251   2.016   7.120 -0.9750  0.5957  0.8349
40653SOL    HW223967   0.144   2.010   7.227 -0.4413 -1.3939  1.2939
40654SOL     OW23968   8.164  10.487   3.542  0.3560  0.2262 -0.0384
40654SOL    HW123969   8.213  10.468   3.462  1.3900 -1.3155  0.9237
40654SOL    HW223970   8.106  10.412   3.553  2.1135 -0.9061  2.0512
40655SOL     OW23971   2.534   7.523   5.466 -0.0063  0.2165 -0.5138
40655SOL    HW123972   2.550   7.468   5.543  1.7043 -1.4358 -1.9498
40655SOL    HW223973   2.621   7.553   5.439 -0.7758  2.5765 -0.5870
40656SOL     OW23974   4.254   8.011   7.794  0.3776 -0.3911 -0.0991
40656SOL    HW123975   4.290   7.945   7.853  1.7204 -1.3098 -1.8476
40656SOL    HW223976   4.162   8.016   7.818  0.6317 -1.5399  1.3066
40657SOL     OW23977  10.050   9.686   8.960  0.1603 -0.4966  0.4724
40657SOL    HW123978  10.107   9.755   8.996 -0.6078 -1.0715  2.9685
40657SOL    HW223979  10.007   9.648   9.036 -1.2666 -2.1562 -1.0680
40658SOL     OW23980   7.426   3.699   3.180 -0.0115 -0.0467  0.0239
40658SOL    HW123981   7.425   3.771   3.243 -1.2972  2.0307 -2.1961
40658SOL    HW223982   7.425   3.620   3.234  1.4160  1.5328  2.5876
40659SOL     OW23983   2.299   5.339   7.966 -0.0024  0.1852 -0.0978
40659SOL    HW123984   2.329   5.260   7.921  1.9479 -0.7069  2.5396
40659SOL    HW223985   2.356   5.408   7.931  0.0799 -0.0667 -0.4755
40660SOL     OW23986   4.093   0.672  10.903  0.2570 -0.5517 -0.5547
40660SOL    HW123987   3.999   0.679  10.885  0.0851 -0.8278  0.1951
40660SOL    HW223988   4.135   0.714  10.828 -0.4556 -0.6786 -1.0339
40661SOL     OW23989  10.657   4.219   2.384  0.3065  0.4988 -0.1200
40661SOL    HW123990  10.597   4.220   2.458  2.3608 -1.7060  1.7390
40661SOL    HW223991  10.650   4.307   2.346 -0.1014  2.0980  3.2897
40662SOL     OW23992   8.939   5.723   3.955  0.3148 -0.1608 -0.2206
40662SOL    HW123993   8.968   5.683   3.873 -0.4748 -2.7852  0.6682
40662SOL    HW223994   8.861   5.773   3.930 -0.9020 -2.2584 -0.9105
40663SOL     OW23995   8.250   5.822   9.296  0.0429  0.1966 -0.0371
40663SOL    HW123996   8.288   5.875   9.366  0.1737  0.6320 -0.4371
40663SOL    HW223997   8.320   5.813   9.231 -0.4634  0.8451 -0.6874
40664SOL     OW23998   8.861   7.532  10.510 -0.0859  0.3041  0.2505
40664SOL    HW123999   8.915   7.575  10.444 -0.0987  1.4724  0.9725
40664SOL    HW224000   8.904   7.447  10.524  1.0870  0.8685  0.2003
40665SOL     OW24001   4.651   5.007   6.577 -0.1224 -0.3570 -0.5026
40665SOL    HW124002   4.713   4.995   6.506  0.2519 -1.5216 -0.0010
40665SOL    HW224003   4.691   5.074   6.633 -0.0886  0.0507 -1.0138
40666SOL     OW24004  10.293   2.358   8.780 -0.5132  0.4706 -0.1951
40666SOL    HW124005  10.212   2.364   8.831 -2.1240  1.0257 -2.5907
40666SOL    HW224006  10.311   2.264   8.773  0.2531  0.4076  2.0185
40667SOL     OW24007   7.832   9.210   3.275  0.5252  0.1354 -0.1308
40667SOL    HW124008   7.850   9.116   3.265 -0.0630  0.0797 -0.7187
40667SOL    HW224009   7.736   9.216   3.274  0.4592  0.4907  2.1940
40668SOL     OW24010   7.828   0.500  10.182  0.2186  0.0271 -0.1190
40668SOL    HW124011   7.893   0.564  10.153  1.9433 -1.8430 -0.6337
40668SOL    HW224012   7.831   0.430  10.117 -2.0824 -0.3260  0.0514
40669SOL     OW24013   7.750   2.479   9.145  0.5848 -0.4383 -0.3790
40669SOL    HW124014   7.724   2.469   9.236  1.3757  2.0028  0.1874
40669SOL    HW224015   7.682   2.434   9.095 -0.3098 -1.0930  1.3589
40670SOL     OW24016   4.668   2.945   2.368 -0.3822  0.1225  0.2147
40670SOL    HW124017   4.736   2.965   2.432  1.9429 -0.9904 -1.7402
40670SOL    HW224018   4.669   2.849   2.361 -0.8669  0.1973 -1.1503
40671SOL     OW24019   9.031   9.496  10.903  0.2107  0.3377 -0.1905
40671SOL    HW124020   8.961   9.465  10.846  0.2220  1.7199 -0.9935
40671SOL    HW224021   9.111   9.487  10.851  0.0753  2.7724 -0.9592
40672SOL     OW24022   5.873   7.644   9.503  0.3962 -0.0393 -0.2329
40672SOL    HW124023   5.890   7.618   9.593 -1.6265 -0.7525  0.0051
40672SOL    HW224024   5.878   7.739   9.504 -0.6099  0.0269  0.9035
40673SOL     OW24025   0.910   8.707   2.903  0.2993 -0.7153 -0.7466
40673SOL    HW124026   0.867   8.629   2.868 -0.2860 -0.2777 -1.0170
40673SOL    HW224027   0.949   8.677   2.985  0.0275 -1.2775 -0.8117
40674SOL     OW24028   5.399   5.141   5.545 -0.2225  0.4723  1.1487
40674SOL    HW124029   5.475   5.086   5.526  0.5535  0.9447  2.7058
40674SOL    HW224030   5.328   5.103   5.493  0.9900 -0.1491 -0.1241
40675SOL     OW24031  11.078   0.197   0.774 -0.2594  0.4095 -0.3726
40675SOL    HW124032  11.117   0.122   0.817  0.0690 -0.5054 -2.1542
40675SOL    HW224033  10.995   0.212   0.821 -0.2018 -0.8885  0.1765
40676SOL     OW24034   0.879   0.997   9.141 -0.5000 -0.0687 -0.0620
40676SOL    HW124035   0.820   1.045   9.199 -0.2840  0.5255 -0.3287
40676SOL    HW224036   0.964   1.001   9.185 -0.1723  1.0157 -0.7571
40677SOL     OW24037   3.132   8.434   3.324  0.4166 -0.5658 -0.5750
40677SOL    HW124038   3.218   8.474   3.318 -0.4138  1.6222  1.1418
40677SOL    HW224039   3.115   8.402   3.235  2.8296 -0.8016 -1.0189
40678SOL     OW24040   1.050   1.298   2.043 -0.2781 -0.1489 -0.7487
40678SOL    HW124041   1.033   1.204   2.040 -4.5116  0.4261 -3.0160
40678SOL    HW224042   0.988   1.332   2.108  0.9061  1.1507 -0.2449
40679SOL     OW24043   8.341   1.592   5.022 -0.2746 -0.1378  0.3943
40679SOL    HW124044   8.401   1.537   4.972  0.2981  1.7126 -1.0539
40679SOL    HW224045   8.380   1.596   5.110  1.6529  0.8339 -0.4459
40680SOL     OW24046   6.505   2.858  10.830 -0.4276  0.6607 -0.1173
40680SOL    HW124047   6.458   2.870  10.913  0.1752  0.5366  0.2456
40680SOL    HW224048   6.457   2.913  10.767 -0.4102  1.3993  0.4974
40681SOL     OW24049   4.231   3.548   7.346  0.6540  0.4759  0.1909
40681SOL    HW124050   4.286   3.542   7.268 -0.2556  3.3040 -0.8143
40681SOL    HW224051   4.270   3.619   7.397 -1.5148  2.0859 -0.2146
40682SOL     OW24052   2.348   9.856   9.911  0.7291  0.3001 -0.0279
40682SOL    HW124053   2.259   9.849   9.946  0.8160  1.0209  0.3627
40682SOL    HW224054   2.370   9.949   9.921  1.9002 -0.0476  0.8115
40683SOL     OW24055   2.297   1.000   7.080 -0.1350 -0.0386  0.5457
40683SOL    HW124056   2.219   0.962   7.038  0.1793  0.5203 -0.5598
40683SOL    HW224057   2.366   0.935   7.065  0.2888  0.7261 -0.9413
40684SOL     OW24058   6.430   1.730   7.093  1.1776  0.5988 -0.1372
40684SOL    HW124059   6.420   1.703   7.001 -1.6130 -0.5137  0.3900
40684SOL    HW224060   6.446   1.824   7.088  2.7532  0.3072 -1.7760
40685SOL     OW24061   3.265   9.277   0.876  0.3201  0.2612 -0.0517
40685SOL    HW124062   3.232   9.197   0.834  0.6655 -0.7126  1.4743
40685SOL    HW224063   3.360   9.268   0.872  0.3579  0.6267  0.0611
40686SOL     OW24064  11.246   4.459   1.249  0.3693  0.1789 -0.1491
40686SOL    HW124065  11.253   4.434   1.341  2.4098 -1.6577 -0.7189
40686SOL    HW224066  11.206   4.384   1.206 -1.7417  1.5051 -0.6530
40687SOL     OW24067   2.155   8.368   7.318 -0.4989  0.0903 -0.2087
40687SOL    HW124068   2.074   8.381   7.269  0.7641  0.3009 -2.4093
40687SOL    HW224069   2.167   8.273   7.320 -1.1420  0.0165  0.7856
40688SOL     OW24070  10.044  10.459   7.668  0.1160 -0.8508 -0.1299
40688SOL    HW124071  10.031  10.552   7.649  0.0534 -0.6892  0.6801
40688SOL    HW224072  10.068  10.456   7.760  2.3217 -1.4297 -0.6494
40689SOL     OW24073   3.224   2.134   9.238  0.1293 -0.7249 -0.1039
40689SOL    HW124074   3.138   2.173   9.252  0.6769  1.5319 -2.2306
40689SOL    HW224075   3.278   2.168   9.309 -0.4631 -1.2749  0.6175
40690SOL     OW24076   4.860   8.480   2.005  0.6838  0.2738 -0.2992
40690SOL    HW124077   4.876   8.460   1.913  1.3139 -1.1389  0.0851
40690SOL    HW224078   4.810   8.406   2.038  0.5613  0.7058  0.5293
40691SOL     OW24079   1.440   2.682   1.264  0.5404  0.7025  0.7981
40691SOL    HW124080   1.427   2.750   1.198  0.5147 -0.7660 -0.8076
40691SOL    HW224081   1.384   2.708   1.337 -2.6090  0.4379 -1.3151
40692SOL     OW24082   3.697   6.255   6.431  0.4219  0.5586 -0.1943
40692SOL    HW124083   3.694   6.314   6.356  0.0263  1.0151  0.1791
40692SOL    HW224084   3.771   6.285   6.483  1.5572 -0.6071 -1.0873
40693SOL     OW24085   5.464   7.783   0.055 -0.2436 -0.3208 -0.3531
40693SOL    HW124086   5.527   7.802   0.125 -0.4293 -1.4226  0.1344
40693SOL    HW224087   5.516   7.782  -0.025  0.1214  0.0893 -0.1261
40694SOL     OW24088   2.735   0.742   8.330 -0.7943  0.5620 -0.5869
40694SOL    HW124089   2.703   0.680   8.265 -1.9689 -0.8832  1.2696
40694SOL    HW224090   2.658   0.790   8.358 -0.2393  1.4378 -0.5104
40695SOL     OW24091  10.814   3.034   9.051 -0.6216  0.3711 -0.5182
40695SOL    HW124092  10.730   3.035   9.005 -0.0823 -0.4094 -1.5734
40695SOL    HW224093  10.876   2.999   8.987  0.8487  2.4650 -0.3342
40696SOL     OW24094   8.706   1.965   1.996 -0.7268  0.1003 -0.3976
40696SOL    HW124095   8.637   1.945   1.933  0.9608 -1.8490 -1.7657
40696SOL    HW224096   8.783   1.917   1.964  1.1235  1.6742  1.3759
40697SOL     OW24097   1.025   2.657   5.424  0.7392 -0.3819  0.3355
40697SOL    HW124098   0.936   2.623   5.416  1.0567 -1.3985  0.9912
40697SOL    HW224099   1.057   2.664   5.334  0.3142 -0.8473  0.1470
40698SOL     OW24100  10.164   6.223  10.518 -0.5408  0.3259 -0.2318
40698SOL    HW124101  10.114   6.163  10.573 -0.5789 -0.9750 -1.6340
40698SOL    HW224102  10.105   6.245  10.446  0.6146 -0.6465 -1.5121
40699SOL     OW24103   6.466   2.206   6.806  0.8988 -0.0888  0.0317
40699SOL    HW124104   6.534   2.206   6.872  1.4016  0.4530 -0.4770
40699SOL    HW224105   6.502   2.153   6.734  0.2985 -0.8040  0.2393
40700SOL     OW24106   8.374   5.347   5.631  0.0489  0.2797 -0.0959
40700SOL    HW124107   8.456   5.307   5.603 -0.2919 -0.0466 -0.6512
40700SOL    HW224108   8.395   5.440   5.645  0.9976 -0.1788  1.8336
40701SOL     OW24109   9.738   2.174   0.209  0.2774  0.1366 -0.1147
40701SOL    HW124110   9.746   2.261   0.170 -1.6503 -0.0926 -1.1649
40701SOL    HW224111   9.782   2.181   0.293  0.2962  2.0993 -0.2428
40702SOL     OW24112   5.438   9.887   8.619 -0.1425 -0.0440 -0.1324
40702SOL    HW124113   5.470   9.952   8.681 -2.1151  0.0776  0.8295
40702SOL    HW224114   5.456   9.925   8.533 -1.0493  1.6808  0.4123
40703SOL     OW24115   2.389   5.302   5.771 -0.1320  0.5160  0.1795
40703SOL    HW124116   2.346   5.325   5.854 -1.3605  1.6198 -0.7148
40703SOL    HW224117   2.368   5.375   5.713  2.1616  0.6047 -0.6203
40704SOL     OW24118   4.225   2.912  10.020 -0.3107 -0.1521 -0.2288
40704SOL    HW124119   4.137   2.915   9.982 -0.1105  0.6801 -0.6505
40704SOL    HW224120   4.267   2.993   9.990 -0.0149  0.3655  1.4949
40705SOL     OW24121   9.868  10.511   6.440  0.0078  0.2227  0.2785
40705SOL    HW124122   9.914  10.428   6.427  1.8423  1.0743  0.9091
40705SOL    HW224123   9.904  10.569   6.373 -1.5606  0.4314 -0.4219
40706SOL     OW24124   4.088   0.502   6.298  0.0768  0.6811 -0.3533
40706SOL    HW124125   4.024   0.477   6.232 -0.3732  0.4320  0.1662
40706SOL    HW224126   4.107   0.594   6.279 -0.1412  0.6465 -0.7499
40707SOL     OW24127   2.272   0.699   6.770  0.2086 -0.1450 -0.3872
40707SOL    HW124128   2.360   0.692   6.734  0.3332  1.2998 -0.4324
40707SOL    HW224129   2.214   0.696   6.694  0.4224  1.9708 -0.6990
40708SOL     OW24130   2.000   4.156   4.565  0.5135  0.1684 -0.0223
40708SOL    HW124131   2.089   4.154   4.600  0.4921 -0.2437  0.0049
40708SOL    HW224132   1.996   4.082   4.505  0.1360  0.0900  0.0995
40709SOL     OW24133  10.907   7.073   3.988 -0.4154 -0.2953 -0.1533
40709SOL    HW124134  10.959   7.153   4.003 -1.3825 -0.0916  2.6938
40709SOL    HW224135  10.839   7.100   3.926 -1.3813  1.4557  1.5782
40710SOL     OW24136   0.790   2.273   0.024 -0.0302  0.0456  0.0822
40710SOL    HW124137   0.838   2.352   0.052  0.5095 -0.2822  0.1005
40710SOL    HW224138   0.792   2.217   0.101 -2.4154  0.9111  0.8624
40711SOL     OW24139   9.341   3.634  10.970  0.1410 -0.4371 -0.5176
40711SOL    HW124140   9.258   3.621  10.924 -0.1154 -1.8188  0.2960
40711SOL    HW224141   9.394   3.558  10.945  0.0026 -1.2090  1.4091
40712SOL     OW24142   2.347   5.627   0.192 -0.3426 -0.2648 -0.3292
40712SOL    HW124143   2.272   5.574   0.218 -0.4547  0.3673  0.6714
40712SOL    HW224144   2.359   5.689   0.264  2.8814 -2.1471  0.9766
40713SOL     OW24145   2.088   2.893   6.533  0.1701 -0.2087 -0.4431
40713SOL    HW124146   2.084   2.981   6.497  3.2652  0.0918 -0.3467
40713SOL    HW224147   2.018   2.845   6.489 -0.0107  1.6571 -2.3384
40714SOL     OW24148   5.941   2.280  10.480 -0.1959  0.2075 -0.4855
40714SOL    HW124149   6.013   2.335  10.509  0.5182  0.0160 -1.8022
40714SOL    HW224150   5.916   2.317  10.395  0.0453 -1.2510 -1.2180
40715SOL     OW24151   2.431   9.187   4.183 -0.0496 -0.3799  0.1366
40715SOL    HW124152   2.411   9.227   4.098 -2.9582 -2.0141 -0.0770
40715SOL    HW224153   2.526   9.197   4.192  0.3063  0.3361 -3.0293
40716SOL     OW24154  10.337  10.870   5.667 -0.5541 -0.2901 -0.8916
40716SOL    HW124155  10.394  10.839   5.738 -0.6107 -0.2202 -0.8153
40716SOL    HW224156  10.313  10.959   5.694 -1.8343 -0.8148 -0.2420
40717SOL     OW24157   1.787   9.049   5.912 -0.5130  0.2979  0.1687
40717SOL    HW124158   1.734   9.129   5.904  2.6487  2.5038 -0.4989
40717SOL    HW224159   1.731   8.988   5.959 -2.9860  3.0239  1.0668
40718SOL     OW24160   3.505   8.837   4.121  0.7135  0.2649 -0.1820
40718SOL    HW124161   3.544   8.917   4.087  1.6789  0.1902  0.6861
40718SOL    HW224162   3.518   8.772   4.052 -1.1778  1.1075 -1.4186
40719SOL     OW24163   0.611   2.844  10.072  0.3059 -0.5648  0.2121
40719SOL    HW124164   0.695   2.889  10.058 -0.3466  1.2357  1.5772
40719SOL    HW224165   0.578   2.827   9.984  1.0071  0.9138 -0.3792
40720SOL     OW24166   5.444   9.483   9.931 -0.5593 -1.0303 -0.0913
40720SOL    HW124167   5.535   9.480   9.902 -0.5060 -1.0961  0.0792
40720SOL    HW224168   5.401   9.413   9.882 -0.2451 -1.8253  0.7350
40721SOL     OW24169   8.239   0.333  11.176  0.1472 -0.3522  0.3427
40721SOL    HW124170   8.251   0.341  11.082  1.1985  1.2374  0.5726
40721SOL    HW224171   8.224   0.239  11.191 -1.3709 -0.4591 -1.5167
40722SOL     OW24172   9.834   3.718   6.979  0.1194 -0.8067 -0.5257
40722SOL    HW124173   9.761   3.719   7.041  0.6683  1.9891  0.2322
40722SOL    HW224174   9.910   3.694   7.032  0.3470  0.1209 -0.4136
40723SOL     OW24175   1.176   1.946   6.291  0.0550  0.7055  0.1150
40723SOL    HW124176   1.207   1.952   6.201 -1.5965  0.3212 -0.5293
40723SOL    HW224177   1.208   1.861   6.322  3.8322  2.3476  1.2781
40724SOL     OW24178   7.623   7.502   1.372 -0.2208  0.2419  0.2058
40724SOL    HW124179   7.584   7.426   1.330 -2.0126  1.1916  0.0646
40724SOL    HW224180   7.687   7.466   1.433 -0.6163 -1.3402 -0.2759
40725SOL     OW24181   4.088   6.639   7.527 -0.0031 -0.1814  0.2653
40725SOL    HW124182   4.083   6.608   7.437 -1.9835  1.3108 -0.2256
40725SOL    HW224183   4.137   6.721   7.522  0.2568 -0.3112  0.6229
40726SOL     OW24184   5.944  11.231   1.923 -0.5372  0.4799  0.4526
40726SOL    HW124185   6.012  11.277   1.875 -0.7078 -1.0231 -1.3213
40726SOL    HW224186   5.991  11.165   1.974 -0.5614  0.3715  0.3345
40727SOL     OW24187   2.416   7.757   5.146 -0.2324  0.7242 -0.0209
40727SOL    HW124188   2.454   7.670   5.153  1.8260  1.3623 -1.8950
40727SOL    HW224189   2.362   7.753   5.067  2.0363  1.7317 -1.7664
40728SOL     OW24190   4.283   8.624  10.131  0.0081  0.3865  0.4325
40728SOL    HW124191   4.270   8.680  10.055 -0.2512 -1.3620 -0.8758
40728SOL    HW224192   4.304   8.684  10.202 -0.5699  2.1436 -0.8175
40729SOL     OW24193   5.025   2.647   0.732  0.6707 -0.1860  0.6185
40729SOL    HW124194   5.041   2.732   0.689  0.2256  0.1210  1.0425
40729SOL    HW224195   4.956   2.666   0.796 -0.7176 -1.2348 -0.5012
40730SOL     OW24196   6.595   4.295   3.964  0.2100 -0.3682 -0.3107
40730SOL    HW124197   6.539   4.357   4.011 -0.2774 -2.7132  2.4915
40730SOL    HW224198   6.684   4.317   3.993  0.3024  0.4366 -1.1574
40731SOL     OW24199   6.058   2.008   1.101 -0.0050  0.4656  0.4695
40731SOL    HW124200   6.005   1.935   1.133  0.9059 -0.8305 -0.8557
40731SOL    HW224201   6.141   2.000   1.149 -0.6832  2.0897  2.0496
40732SOL     OW24202   4.328   5.082  10.282 -0.5471 -0.1822 -0.6531
40732SOL    HW124203   4.397   5.117  10.338 -0.5741 -0.3517 -0.5142
40732SOL    HW224204   4.362   4.999  10.250 -1.3271 -1.0604  0.7013
40733SOL     OW24205   3.129   5.307   1.205 -0.9745  0.0112 -0.0228
40733SOL    HW124206   3.117   5.371   1.135  0.0748 -0.3364 -0.5449
40733SOL    HW224207   3.041   5.289   1.237 -1.6318 -0.7600 -2.1059
40734SOL     OW24208   3.000   5.842  11.140  0.3045  0.7824 -0.4095
40734SOL    HW124209   2.991   5.811  11.050  0.4321 -0.9950  0.1572
40734SOL    HW224210   2.986   5.764  11.194 -2.6207  2.2881  1.2587
40735SOL     OW24211   6.786   9.378   7.254  0.3539 -0.0945 -0.2882
40735SOL    HW124212   6.721   9.448   7.245 -1.3765 -1.4946  0.6470
40735SOL    HW224213   6.870   9.423   7.247 -0.6690  2.0492  0.1153
40736SOL     OW24214   6.737   7.430   5.072 -0.5928 -0.0355  0.2499
40736SOL    HW124215   6.792   7.407   5.146  0.4565 -2.0774 -1.0764
40736SOL    HW224216   6.669   7.364   5.070 -0.4254 -0.2030 -0.7700
40737SOL     OW24217   2.218   9.029   5.590  0.6509  0.1494 -0.3673
40737SOL    HW124218   2.195   8.949   5.638 -2.2536  1.0409 -0.0459
40737SOL    HW224219   2.234   9.094   5.658  0.3910  0.4559 -0.5958
40738SOL     OW24220   5.931  11.010   5.378 -1.1639 -0.5673  0.7497
40738SOL    HW124221   5.931  10.919   5.406  2.8817 -0.3009  2.1418
40738SOL    HW224222   5.956  11.007   5.286 -0.3197 -0.8467  0.9846
40739SOL     OW24223   3.188   0.500   0.076  0.3671 -0.5052 -0.1229
40739SOL    HW124224   3.161   0.576   0.127  1.5197 -0.0287 -0.1931
40739SOL    HW224225   3.243   0.449   0.136 -2.9049 -3.0219  1.0298
40740SOL     OW24226   0.263   9.674   5.242  0.6266 -0.2404  0.1537
40740SOL    HW124227   0.305   9.637   5.164  0.0933 -2.5815  0.8889
40740SOL    HW224228   0.170   9.660   5.229  0.2824  1.8672  0.0358
40741SOL     OW24229   4.430   7.506  10.323  0.1623  0.3201 -0.0472
40741SOL    HW124230   4.371   7.433  10.341  0.0685  0.7646  1.5442
40741SOL    HW224231   4.507   7.489  10.377 -0.0052  1.5562  0.6094
40742SOL     OW24232   9.271   1.688   5.638  0.3232 -0.2973  0.0599
40742SOL    HW124233   9.353   1.661   5.680 -0.0654 -1.2228  0.2417
40742SOL    HW224234   9.299   1.731   5.557  1.0672  1.2345  1.0859
40743SOL     OW24235   5.555   5.970   2.653  0.8289 -0.1539  0.2924
40743SOL    HW124236   5.644   5.941   2.634  0.6406 -1.1857  0.8769
40743SOL    HW224237   5.514   5.979   2.567  1.4847  0.3121  0.0186
40744SOL     OW24238   8.004   1.023   1.728  1.3156  0.4531 -0.3318
40744SOL    HW124239   7.927   0.978   1.762  1.5970  0.2103 -0.0092
40744SOL    HW224240   7.995   1.019   1.633  1.9902 -1.4689 -0.3554
40745SOL     OW24241   7.589   3.563   9.962  0.4017  0.1745 -0.3715
40745SOL    HW124242   7.627   3.519   9.886  5.0637  1.5232  0.8617
40745SOL    HW224243   7.600   3.500  10.034 -0.7174  0.2423 -0.1234
40746SOL     OW24244   9.198   2.613   9.941 -0.1256  0.7109  0.0508
40746SOL    HW124245   9.119   2.641   9.988 -0.5233  0.5424 -0.5117
40746SOL    HW224246   9.166   2.554   9.874  0.3913  1.2681 -0.6958
40747SOL     OW24247   6.135   0.128   6.190 -0.9379  0.6016 -0.0727
40747SOL    HW124248   6.128   0.211   6.238  0.6011  0.6271  0.1573
40747SOL    HW224249   6.050   0.086   6.203 -0.9878  1.1517  1.6761
40748SOL     OW24250   8.654  10.399  10.833  0.2153 -0.4569 -0.4119
40748SOL    HW124251   8.583  10.414  10.770 -0.0226 -1.2373 -0.3386
40748SOL    HW224252   8.694  10.485  10.845 -0.2746 -0.1427 -0.9887
40749SOL     OW24253   4.269   8.305   7.036  0.1249  0.0596  0.7036
40749SOL    HW124254   4.213   8.308   6.958 -0.5748  0.4605  1.2116
40749SOL    HW224255   4.314   8.390   7.036 -1.8414  1.1790  2.1345
40750SOL     OW24256   5.735  11.152   3.168  0.6172  0.3113  0.4824
40750SOL    HW124257   5.761  11.237   3.133  1.0126 -0.2592 -0.6403
40750SOL    HW224258   5.692  11.108   3.095  0.2440 -0.3878  1.1105
40751SOL     OW24259   1.936   7.541   7.045  0.1639  0.3683 -0.2565
40751SOL    HW124260   2.015   7.490   7.027 -0.1266  0.7147 -2.8087
40751SOL    HW224261   1.886   7.539   6.964 -2.5315  0.1135  1.2892
40752SOL     OW24262   1.463   0.909  10.455  1.0974 -0.2908  0.1252
40752SOL    HW124263   1.558   0.907  10.463  1.0174  0.2830  1.4643
40752SOL    HW224264   1.435   0.972  10.521 -0.1896 -0.1519 -0.5273
40753SOL     OW24265   2.511   6.761   8.707  0.5643 -0.1413 -0.3615
40753SOL    HW124266   2.483   6.685   8.657  1.6030 -1.8091  1.4725
40753SOL    HW224267   2.540   6.726   8.791 -1.6077  2.5842  1.7002
40754SOL     OW24268   5.130   2.696   1.715 -0.1036  0.2044  0.0345
40754SOL    HW124269   5.215   2.715   1.676 -0.5572  0.6760 -0.7267
40754SOL    HW224270   5.099   2.618   1.669 -0.4822  0.5574 -0.3146
40755SOL     OW24271   0.839   5.610   0.000 -0.2048 -0.6116 -0.2466
40755SOL    HW124272   0.881   5.624  -0.085  1.1943 -1.6155  0.2447
40755SOL    HW224273   0.769   5.676   0.004  1.3765  1.2094 -1.0607
40756SOL     OW24274   3.407   9.209   2.899  0.8634 -0.4139 -0.2874
40756SOL    HW124275   3.342   9.188   2.832 -0.2664  0.6789  0.4231
40756SOL    HW224276   3.456   9.283   2.862  0.8066 -0.3574 -0.2484
40757SOL     OW24277   6.676   3.288   4.643 -0.0277  0.6045  0.5192
40757SOL    HW124278   6.725   3.210   4.666 -0.6481 -0.1577 -0.6314
40757SOL    HW224279   6.681   3.344   4.720  2.4009  0.4482  0.5279
40758SOL     OW24280   5.543   7.156   8.326 -0.4580 -0.4459 -0.7871
40758SOL    HW124281   5.617   7.132   8.381 -1.9637  0.2773  1.7413
40758SOL    HW224282   5.563   7.118   8.241  1.2044 -3.2429  0.6919
40759SOL     OW24283   1.066   7.854   6.192 -0.3296 -0.0646  0.1032
40759SOL    HW124284   1.143   7.843   6.136 -1.1225  1.3483 -1.3663
40759SOL    HW224285   1.046   7.766   6.223  0.3349 -0.8812 -1.6349
40760SOL     OW24286   2.749   7.575  11.000 -0.2618 -0.2906 -0.4257
40760SOL    HW124287   2.672   7.616  10.960 -0.1770 -1.0014 -1.3599
40760SOL    HW224288   2.716   7.533  11.079 -0.8498 -0.6234 -0.8420
40761SOL     OW24289   5.600   8.569   7.555  0.3181  0.2728 -0.1300
40761SOL    HW124290   5.681   8.585   7.506 -0.3260  0.6466 -1.0957
40761SOL    HW224291   5.578   8.653   7.594 -1.3439  1.0884 -2.5837
40762SOL     OW24292   8.570   9.904   1.708 -0.2766 -0.4885 -0.9641
40762SOL    HW124293   8.626   9.978   1.732  0.7445 -1.6778  0.5539
40762SOL    HW224294   8.552   9.916   1.615  1.5362  0.5921 -1.2193
40763SOL     OW24295   5.712  11.126   7.792 -0.7822  0.4914  0.1272
40763SOL    HW124296   5.750  11.126   7.704 -0.0852  1.5531  0.4048
40763SOL    HW224297   5.707  11.033   7.816 -3.7263 -0.0779 -2.1378
40764SOL     OW24298   8.723   2.148   0.980  0.1398  0.7613 -0.0515
40764SOL    HW124299   8.645   2.094   0.988  0.5003  0.2713  0.1764
40764SOL    HW224300   8.774   2.129   1.059  0.3099  1.3685 -0.0087
40765SOL     OW24301   9.583   5.349   1.346  0.3331  0.1422 -0.9438
40765SOL    HW124302   9.612   5.316   1.261  0.3264 -0.9234 -0.5468
40765SOL    HW224303   9.622   5.436   1.352  2.0026 -0.5406 -1.2059
40766SOL     OW24304   0.471   8.758   3.086 -0.1476  0.1057 -0.2281
40766SOL    HW124305   0.490   8.797   3.171  0.3983  2.8080 -1.5051
40766SOL    HW224306   0.422   8.825   3.039 -2.4834 -2.1771 -1.3025
40767SOL     OW24307   4.009  10.080   0.901  0.1578 -0.8069  0.3834
40767SOL    HW124308   4.004  10.175   0.903 -1.8714 -0.8290 -0.8111
40767SOL    HW224309   4.055  10.059   0.820 -0.8416 -0.8265 -0.1977
40768SOL     OW24310   1.958   1.435   9.371 -0.2906  0.6119 -0.2564
40768SOL    HW124311   1.927   1.369   9.309 -1.2938  2.0611 -1.3676
40768SOL    HW224312   2.053   1.432   9.365 -0.1763 -2.0417  1.1884
40769SOL     OW24313   3.977   2.561   5.598 -0.7177  0.3549  0.0963
40769SOL    HW124314   4.022   2.538   5.517  0.0379  1.9389  0.0365
40769SOL    HW224315   3.894   2.600   5.570 -0.3143  1.2054  0.0490
40770SOL     OW24316   7.943   2.363   7.187  0.1459 -0.5494 -0.1489
40770SOL    HW124317   7.950   2.326   7.099 -1.7070 -3.4450  0.7780
40770SOL    HW224318   8.032   2.361   7.221  0.4597 -2.0865 -0.9841
40771SOL     OW24319   6.704   2.223   8.468 -0.0514 -0.5452 -0.0714
40771SOL    HW124320   6.715   2.151   8.406  1.3327 -0.6023  0.1937
40771SOL    HW224321   6.610   2.236   8.474 -0.2287 -0.7000 -1.9906
40772SOL     OW24322   0.577   2.804   8.655 -0.7525  0.2587 -0.8321
40772SOL    HW124323   0.625   2.823   8.736  1.5422  1.6627 -2.4079
40772SOL    HW224324   0.572   2.709   8.652  1.0302  0.0921 -0.0480
40773SOL     OW24325   3.496   4.937   6.353  0.5187 -0.4624 -0.3593
40773SOL    HW124326   3.532   4.982   6.276  0.3640  0.8226  0.2862
40773SOL    HW224327   3.441   5.003   6.395 -0.8853 -1.7176 -0.1489
40774SOL     OW24328   0.448   9.423  10.915  0.0288 -0.3070  0.8235
40774SOL    HW124329   0.479   9.343  10.957 -0.0139 -0.2295  0.9982
40774SOL    HW224330   0.519   9.486  10.926  1.9185 -1.4873 -2.8783
40775SOL     OW24331   1.749  11.284   8.793  0.6542  0.1888  0.0315
40775SOL    HW124332   1.808  11.354   8.820  0.2568  0.6802 -0.3668
40775SOL    HW224333   1.694  11.323   8.725 -0.7585  0.0290  1.0321
40776SOL     OW24334   2.085   8.133   9.858 -0.0063 -0.0407 -0.0400
40776SOL    HW124335   2.091   8.222   9.892  0.6841 -0.3782  0.7653
40776SOL    HW224336   2.027   8.088   9.920  0.7355 -0.4962  0.3241
40777SOL     OW24337   5.836   1.740   5.271  0.2685  0.3346 -0.1371
40777SOL    HW124338   5.883   1.673   5.221 -0.9007 -0.2350 -0.5145
40777SOL    HW224339   5.823   1.812   5.209  2.0305  1.1892  0.4323
40778SOL     OW24340   2.460   3.138   5.455  0.1267  0.4323 -0.1824
40778SOL    HW124341   2.445   3.062   5.511 -0.7407 -0.4075 -1.4653
40778SOL    HW224342   2.548   3.167   5.476 -0.2034  0.2109  1.6378
40779SOL     OW24343   1.395   4.411  10.805 -1.1663 -0.2218  0.2786
40779SOL    HW124344   1.357   4.330  10.838  2.2554 -2.0143  0.3056
40779SOL    HW224345   1.435   4.451  10.882 -1.2412  0.5454 -0.0747
40780SOL     OW24346   4.038   8.535   5.364  0.5843  0.1156  0.1647
40780SOL    HW124347   4.034   8.557   5.271  1.6955  1.9921  0.5023
40780SOL    HW224348   4.122   8.489   5.374  0.3548 -0.2981  0.2060
40781SOL     OW24349   4.889   9.463   4.130  0.2624  0.4033  0.0625
40781SOL    HW124350   4.878   9.370   4.107 -0.8945  0.4909  0.2234
40781SOL    HW224351   4.882   9.509   4.046 -1.3241  0.5063  0.2274
40782SOL     OW24352   0.844   6.674   0.734  0.0205 -0.2339  0.3952
40782SOL    HW124353   0.770   6.627   0.696 -0.2157 -0.0215  0.5872
40782SOL    HW224354   0.857   6.632   0.819  0.2469 -0.3985  0.2807
40783SOL     OW24355   1.270   4.621  10.421  0.7475  0.4740  0.3314
40783SOL    HW124356   1.201   4.590  10.363 -0.9675  1.8866  1.5143
40783SOL    HW224357   1.303   4.542  10.463 -0.1649 -0.2299 -0.2370
40784SOL     OW24358   1.334   0.536   6.530  0.2235  0.2719  0.8532
40784SOL    HW124359   1.294   0.600   6.472  1.9107  1.0371  0.4568
40784SOL    HW224360   1.371   0.588   6.602  1.9962 -0.1439  0.3078
40785SOL     OW24361   2.023   3.422  11.200  0.2307  0.3600 -0.2623
40785SOL    HW124362   2.018   3.377  11.116  0.8264  1.4674 -0.9041
40785SOL    HW224363   1.937   3.462  11.211 -0.9825 -2.3464  1.1836
40786SOL     OW24364   3.490   8.661   3.017  0.2629  0.6054 -0.1599
40786SOL    HW124365   3.533   8.643   2.934  0.1767 -1.8828  0.2617
40786SOL    HW224366   3.561   8.689   3.075  0.6949  0.2027 -0.4860
40787SOL     OW24367   5.419   2.901  10.012  0.0347 -0.0964 -0.5329
40787SOL    HW124368   5.469   2.834  10.059 -1.0670  0.0942  0.9785
40787SOL    HW224369   5.327   2.876  10.026 -0.6663  3.4876  3.0670
40788SOL     OW24370   8.772   1.113   8.610 -0.4608  0.4940 -0.3067
40788SOL    HW124371   8.816   1.057   8.674  3.6908  0.5999 -2.6979
40788SOL    HW224372   8.809   1.200   8.625  0.2312  0.6197 -2.3671
40789SOL     OW24373   9.916   3.021   7.373 -0.3615  0.2756 -0.0570
40789SOL    HW124374  10.010   3.019   7.388  0.3712  0.3704 -3.7600
40789SOL    HW224375   9.891   2.929   7.363 -1.0052  0.1483  2.1485
40790SOL     OW24376   7.616   1.888   3.916  0.5470  0.3480 -0.1664
40790SOL    HW124377   7.590   1.867   4.006  3.0585 -2.6437  0.0549
40790SOL    HW224378   7.696   1.939   3.925 -0.6778  2.4736 -0.7887
40791SOL     OW24379   5.534   5.847   1.332  0.0696 -0.1467 -0.2929
40791SOL    HW124380   5.596   5.774   1.326  1.1943  0.7784 -0.4622
40791SOL    HW224381   5.498   5.842   1.420  0.9127 -0.3139  0.0520
40792SOL     OW24382   2.774   6.669   7.173 -0.1409 -0.0961 -0.5681
40792SOL    HW124383   2.721   6.713   7.240 -0.4997 -0.7349 -0.4229
40792SOL    HW224384   2.736   6.697   7.090  1.1869  1.8310 -0.5880
40793SOL     OW24385   6.782   9.650   2.152  0.2466  0.9965  0.4323
40793SOL    HW124386   6.832   9.731   2.161 -1.6829  2.2235  0.6575
40793SOL    HW224387   6.814   9.611   2.071  0.6919  2.3785 -0.0895
40794SOL     OW24388  10.005   0.410   8.017 -0.7279  0.2992  0.2168
40794SOL    HW124389   9.951   0.356   8.075  0.0907 -0.5985  0.1721
40794SOL    HW224390  10.094   0.397   8.050 -0.5914  2.3212  0.7437
40795SOL     OW24391   8.902   1.338   3.417  0.4982  0.1022  0.2691
40795SOL    HW124392   8.900   1.246   3.391 -1.2786 -0.1148  1.0370
40795SOL    HW224393   8.954   1.339   3.497 -3.9958 -1.3048  3.5940
40796SOL     OW24394   6.751   7.496   0.052  0.4910 -0.3081 -0.1056
40796SOL    HW124395   6.787   7.451   0.128 -0.6024  0.3260  0.8251
40796SOL    HW224396   6.692   7.432   0.011  0.4065 -0.3660  0.1041
40797SOL     OW24397   8.850   9.858  11.164  0.5349  0.1174 -0.0489
40797SOL    HW124398   8.779   9.796  11.147 -0.0726  0.7570  0.0530
40797SOL    HW224399   8.898   9.864  11.082  1.1758 -1.1837  0.2118
40798SOL     OW24400   0.914   3.064   8.571  0.2931  0.3877  0.8857
40798SOL    HW124401   0.945   2.976   8.550  0.5754 -0.2170  3.5188
40798SOL    HW224402   0.936   3.117   8.494  3.4395 -1.0601  0.6517
40799SOL     OW24403  10.468  11.045   2.555 -0.3916  0.7837 -0.1562
40799SOL    HW124404  10.446  11.133   2.526 -1.3779  0.7224  0.3454
40799SOL    HW224405  10.555  11.052   2.593  0.3944  1.1190 -1.9547
40800SOL     OW24406   1.521   4.625   8.517  0.0785  0.7905  0.3272
40800SOL    HW124407   1.436   4.629   8.561  0.5429  1.1228  1.2083
40800SOL    HW224408   1.576   4.688   8.563  0.0309  2.6553 -1.9882
40801SOL     OW24409   8.237  10.268   9.500  0.1489  0.0699 -0.3989
40801SOL    HW124410   8.181  10.332   9.542 -0.4438 -0.4092 -0.4337
40801SOL    HW224411   8.326  10.296   9.519 -0.1080  0.6433 -0.0374
40802SOL     OW24412   5.227   8.367   4.151 -0.6553 -0.5758 -0.2179
40802SOL    HW124413   5.164   8.357   4.080 -1.1414  0.7817 -0.0112
40802SOL    HW224414   5.276   8.447   4.129 -0.2931 -0.5679  0.5699
40803SOL     OW24415   4.489   4.148   8.511 -0.2901 -0.2207 -0.3649
40803SOL    HW124416   4.578   4.114   8.519  0.7881  2.3377 -0.4368
40803SOL    HW224417   4.444   4.118   8.590  1.1053 -0.3012  0.4218
40804SOL     OW24418   3.993   4.300   3.803 -0.3038  0.6462 -0.0676
40804SOL    HW124419   4.004   4.271   3.894 -0.5709 -0.6266 -0.4202
40804SOL    HW224420   4.020   4.225   3.751 -0.1254  1.3772 -1.0499
40805SOL     OW24421   8.887   5.965   7.515  0.1130  0.8658 -0.1977
40805SOL    HW124422   8.979   5.952   7.540 -0.7038  1.2648  3.5434
40805SOL    HW224423   8.878   6.060   7.508  0.3679  0.7682 -2.6453
40806SOL     OW24424   2.053   3.262   1.710 -0.6342  0.0247  0.5620
40806SOL    HW124425   1.964   3.251   1.741 -1.0976  0.9877 -0.3708
40806SOL    HW224426   2.046   3.323   1.636  0.5135 -1.6502 -1.0033
40807SOL     OW24427   5.236   7.419   1.370 -0.1123  0.0607  0.9359
40807SOL    HW124428   5.221   7.357   1.442 -1.8707 -0.5992  0.0353
40807SOL    HW224429   5.311   7.383   1.323 -1.8417 -2.1664 -0.3072
40808SOL     OW24430  11.199   7.641   9.665 -0.1483  0.6270  0.3324
40808SOL    HW124431  11.203   7.736   9.664  0.3227  0.6084  0.3784
40808SOL    HW224432  11.134   7.621   9.733 -1.2124  0.9348 -0.5690
40809SOL     OW24433   8.844   9.331   0.287 -0.0113  0.5170  0.5983
40809SOL    HW124434   8.818   9.291   0.204 -1.0993  0.7443  0.8157
40809SOL    HW224435   8.820   9.267   0.353 -1.0927  1.1947  0.8899
40810SOL     OW24436   6.023   8.570   2.403 -0.7921  0.5955 -0.5809
40810SOL    HW124437   5.993   8.582   2.313 -1.5521  2.3121 -0.1219
40810SOL    HW224438   6.108   8.614   2.406  0.5499 -1.7725 -1.1106
40811SOL     OW24439   1.445   8.980   2.049  0.0548  0.4987 -1.2587
40811SOL    HW124440   1.375   9.023   2.097 -0.7676 -0.3476 -1.6476
40811SOL    HW224441   1.475   8.910   2.107  1.6992  1.8150 -0.4384
40812SOL     OW24442   0.465   1.986   5.839 -0.0561 -0.0019  0.2002
40812SOL    HW124443   0.473   2.076   5.868  1.3729  0.7287 -2.1758
40812SOL    HW224444   0.549   1.945   5.861 -0.0936 -0.2866 -0.1638
40813SOL     OW24445  10.995   2.606   4.388 -0.1456  0.0883  0.6727
40813SOL    HW124446  10.972   2.588   4.479  0.4153 -3.3333  0.2530
40813SOL    HW224447  10.911   2.626   4.346 -1.0043 -1.9667  1.2601
40814SOL     OW24448   6.777   0.609   8.341 -0.1756  0.0310  0.0283
40814SOL    HW124449   6.755   0.571   8.426 -0.2757 -0.6979 -0.3196
40814SOL    HW224450   6.697   0.652   8.312 -0.4739 -0.6716 -0.2015
40815SOL     OW24451   9.886   0.618   4.777  0.5499 -0.0007  0.2836
40815SOL    HW124452   9.921   0.532   4.754 -0.2220  0.1129 -1.4531
40815SOL    HW224453   9.944   0.680   4.732 -1.0927  0.2225 -1.6591
40816SOL     OW24454   5.124   2.200   8.279  0.8711  0.3830  0.2216
40816SOL    HW124455   5.036   2.199   8.240  1.1931  2.1043 -0.6888
40816SOL    HW224456   5.108   2.207   8.373  0.0545 -0.7926  0.1983
40817SOL     OW24457   0.295   1.438   7.462  0.4563 -0.5436  0.3263
40817SOL    HW124458   0.259   1.375   7.523  0.7266 -2.7017 -1.6184
40817SOL    HW224459   0.244   1.518   7.478 -2.7089 -2.3583  0.2163
40818SOL     OW24460   1.500   3.276   5.284 -0.0301 -0.2202 -0.5178
40818SOL    HW124461   1.588   3.304   5.257 -0.1866  0.4364 -0.3789
40818SOL    HW224462   1.512   3.190   5.323  0.5965 -0.0059 -0.2324
40819SOL     OW24463   4.374   3.253   1.795  0.0217 -0.1757  0.1839
40819SOL    HW124464   4.377   3.165   1.832  2.3875 -0.2374 -0.0174
40819SOL    HW224465   4.281   3.276   1.794 -0.4247 -1.6092  2.7128
40820SOL     OW24466   7.540  11.051   9.283  0.0448  0.2083  0.5411
40820SOL    HW124467   7.614  10.991   9.290 -0.0583 -0.1122 -0.7672
40820SOL    HW224468   7.575  11.129   9.239 -0.0422  0.7097  1.3489
40821SOL     OW24469   3.808   6.354   9.456  0.9886  0.1092  0.0183
40821SOL    HW124470   3.727   6.303   9.453  1.3858 -0.5247 -0.3169
40821SOL    HW224471   3.782   6.439   9.492 -0.4235  1.0484 -2.9078
40822SOL     OW24472   1.767   1.006   6.083 -0.4654  0.5903 -0.1637
40822SOL    HW124473   1.782   1.006   5.988 -3.0752  2.6916 -0.6897
40822SOL    HW224474   1.855   1.000   6.120  0.6694 -0.0946 -2.6805
40823SOL     OW24475   7.773   0.714   7.367 -0.2360 -0.2938 -0.2976
40823SOL    HW124476   7.731   0.649   7.423 -0.5063 -0.1017 -0.2707
40823SOL    HW224477   7.701   0.753   7.318  0.0656 -0.8657 -1.2160
40824SOL     OW24478   0.941   9.179  11.146 -0.5020  0.3126  0.4846
40824SOL    HW124479   1.026   9.217  11.165  0.2020  0.2482 -2.1370
40824SOL    HW224480   0.896   9.246  11.093 -0.6949 -0.9795 -1.0559
40825SOL     OW24481   9.731   3.141   3.540 -0.0659 -0.6272  0.3169
40825SOL    HW124482   9.767   3.224   3.572  1.0565 -0.8470 -0.3044
40825SOL    HW224483   9.685   3.165   3.459  0.6367 -0.6522 -0.1038
40826SOL     OW24484   7.066   8.088   2.316 -0.2070 -0.1468  0.8474
40826SOL    HW124485   7.095   8.002   2.286  0.7454  0.7872 -1.0961
40826SOL    HW224486   7.000   8.069   2.383 -1.2737 -2.4062 -0.7059
40827SOL     OW24487   1.322   3.622   9.310  0.3097 -0.3784 -0.7913
40827SOL    HW124488   1.292   3.628   9.219  2.3806 -0.5895 -1.5370
40827SOL    HW224489   1.402   3.570   9.305  2.3618  2.4081  0.6844
40828SOL     OW24490   1.975   8.723   6.618 -0.1598  0.1160 -0.6613
40828SOL    HW124491   2.049   8.764   6.573 -0.1847  1.5261  0.4998
40828SOL    HW224492   1.931   8.796   6.662 -0.4811 -1.1091  1.1350
40829SOL     OW24493   6.598   1.778   6.770  0.2449  0.6927  0.0426
40829SOL    HW124494   6.527   1.840   6.786 -0.0291  0.3165  0.3069
40829SOL    HW224495   6.669   1.831   6.735 -0.6864  0.8520 -1.6777
40830SOL     OW24496   2.765   9.045   2.587 -0.1505  0.4882 -0.2261
40830SOL    HW124497   2.698   9.003   2.532  0.8699  0.1385 -1.2350
40830SOL    HW224498   2.824   8.973   2.611 -0.2696  0.7437  0.8787
40831SOL     OW24499   4.553   1.080   8.480 -0.0234  0.5238 -0.5867
40831SOL    HW124500   4.506   1.014   8.428  0.9587 -0.4868 -0.2094
40831SOL    HW224501   4.496   1.157   8.476 -1.4902 -0.5161 -0.5272
40832SOL     OW24502  10.387   2.259   6.094 -0.4827  0.9191 -0.0863
40832SOL    HW124503  10.335   2.253   6.174 -1.6252 -0.0722 -0.8578
40832SOL    HW224504  10.372   2.176   6.049 -0.5792  1.7831 -1.7459
40833SOL     OW24505   5.083   2.410   6.790 -0.4945  0.2001  0.1496
40833SOL    HW124506   4.993   2.443   6.789 -0.2684  0.8280 -0.1900
40833SOL    HW224507   5.120   2.441   6.708 -0.2825 -0.9748 -0.2092
40834SOL     OW24508   4.300  10.418   2.118 -0.1928 -0.0673 -0.5255
40834SOL    HW124509   4.301  10.492   2.179 -1.6526  1.1684 -1.9085
40834SOL    HW224510   4.233  10.359   2.153 -1.2270  0.7722 -1.0559
40835SOL     OW24511   1.152   4.855   1.450 -1.1817  0.0569  0.5274
40835SOL    HW124512   1.156   4.931   1.392 -2.9078 -0.9823 -1.0751
40835SOL    HW224513   1.099   4.885   1.524 -1.9853  0.4067 -0.1639
40836SOL     OW24514   7.811   9.686   1.361 -0.6468  0.0384  0.4057
40836SOL    HW124515   7.810   9.643   1.446  0.0404 -0.6442  0.0872
40836SOL    HW224516   7.810   9.779   1.381  0.5348 -0.0958  1.2044
40837SOL     OW24517   0.466   7.168   5.432 -0.3581  0.0100 -0.5655
40837SOL    HW124518   0.547   7.153   5.383 -1.3836  0.1550 -2.3854
40837SOL    HW224519   0.462   7.264   5.442  0.0422 -0.0423  0.1870
40838SOL     OW24520   9.973   1.754   3.633  0.1718  0.5309 -0.0490
40838SOL    HW124521  10.016   1.758   3.719  0.5573 -0.8612 -0.1475
40838SOL    HW224522  10.043   1.767   3.570  0.0827  0.4330 -0.1703
40839SOL     OW24523   8.047   5.774   7.041  0.5579 -0.4512 -0.2122
40839SOL    HW124524   8.056   5.826   6.961 -1.8834  2.0100  0.9720
40839SOL    HW224525   8.136   5.768   7.076  1.5344 -0.8231 -2.5885
40840SOL     OW24526   2.065   9.678   5.928 -0.7022 -0.5118 -0.4072
40840SOL    HW124527   2.038   9.730   5.853 -2.7290  0.5480  0.9617
40840SOL    HW224528   2.033   9.589   5.909 -4.0663  0.3566  0.4171
40841SOL     OW24529   9.349   5.470   6.910 -0.1549  0.0475 -0.1007
40841SOL    HW124530   9.343   5.418   6.830 -0.8018  0.6409 -0.4494
40841SOL    HW224531   9.271   5.525   6.909  0.1717  0.5439  0.5981
40842SOL     OW24532  10.962   5.139   1.785 -0.4240  0.7104  0.3606
40842SOL    HW124533  10.901   5.070   1.812  1.3941 -2.2637 -2.3450
40842SOL    HW224534  11.048   5.108   1.813  0.2420  3.4768  1.7152
40843SOL     OW24535   3.498   9.928   9.735  0.0626 -0.4595  0.6116
40843SOL    HW124536   3.565   9.863   9.755  0.1323 -0.6052 -0.0734
40843SOL    HW224537   3.543   9.993   9.680 -0.4813 -0.8405 -0.3152
40844SOL     OW24538   3.021   2.403   4.174 -1.0942 -0.0524  0.2504
40844SOL    HW124539   3.006   2.310   4.158 -0.0155  0.0218 -1.4979
40844SOL    HW224540   3.104   2.422   4.129 -2.6810  2.3527 -1.9873
40845SOL     OW24541   0.620   8.034   0.994 -0.3673 -0.5878 -0.1004
40845SOL    HW124542   0.571   7.953   0.989 -1.8810  0.2662  0.2621
40845SOL    HW224543   0.564   8.094   1.043 -0.6396  1.5875 -2.7863
40846SOL     OW24544   6.254   9.447   5.817  0.5829 -0.3637  0.1820
40846SOL    HW124545   6.300   9.408   5.891  2.7061  2.0959  0.2953
40846SOL    HW224546   6.305   9.422   5.740  0.3985 -0.0583 -0.0452
40847SOL     OW24547   5.587   4.365   4.992  0.2568 -0.1349  0.7976
40847SOL    HW124548   5.505   4.353   4.944  0.3850 -1.7380  0.9253
40847SOL    HW224549   5.560   4.404   5.075 -0.3468 -0.3580  0.7112
40848SOL     OW24550   0.735   5.352  10.055  0.2946 -0.7138  0.3809
40848SOL    HW124551   0.643   5.329  10.064  0.4331 -1.1465  0.7565
40848SOL    HW224552   0.778   5.270  10.031  0.1729  0.0605 -2.9438
40849SOL     OW24553   7.987   9.943   9.340 -0.4047 -0.1693 -0.2832
40849SOL    HW124554   7.910   9.937   9.396 -0.9723  2.5951 -0.6564
40849SOL    HW224555   7.961  10.001   9.269  1.3678 -0.9300 -1.6266
40850SOL     OW24556   5.090  10.515   8.867  0.5681 -0.2509  0.6267
40850SOL    HW124557   5.178  10.505   8.904  1.4549  2.4938 -0.5274
40850SOL    HW224558   5.103  10.516   8.772 -0.5110  1.4203  0.4524
40851SOL     OW24559   0.825   8.469   0.230  0.1332 -0.4362 -0.2214
40851SOL    HW124560   0.752   8.486   0.170  1.5126  1.4106 -1.4853
40851SOL    HW224561   0.851   8.555   0.261  0.0722 -1.2733  2.4243
40852SOL     OW24562  10.058   4.373   9.700  0.0513 -0.3551 -0.2158
40852SOL    HW124563   9.989   4.428   9.738 -1.2628  0.3915 -3.3893
40852SOL    HW224564  10.011   4.299   9.662  1.4547 -1.7794  0.6996
40853SOL     OW24565   1.414   0.457   4.057  0.3077 -0.0709 -0.1383
40853SOL    HW124566   1.457   0.377   4.088  0.1532 -0.1393 -0.0979
40853SOL    HW224567   1.349   0.426   3.993 -0.6543 -0.1145  0.8138
40854SOL     OW24568   6.894   0.666   5.915  0.3044  0.1357 -0.9776
40854SOL    HW124569   6.804   0.674   5.882  0.1226  1.1296 -0.2731
40854SOL    HW224570   6.902   0.574   5.939 -1.3892  0.5005  1.3079
40855SOL     OW24571   6.401   3.072   8.605  0.4535  0.1208  0.9400
40855SOL    HW124572   6.361   3.051   8.520 -0.6044 -0.6159  1.5960
40855SOL    HW224573   6.328   3.098   8.661  0.9846 -0.4435  1.9336
40856SOL     OW24574   9.479   8.272   5.545  0.2818  0.2932 -0.6675
40856SOL    HW124575   9.519   8.339   5.600  1.2075  1.9170 -3.1353
40856SOL    HW224576   9.386   8.274   5.567  0.7200  0.2325  1.3836
40857SOL     OW24577   3.355   4.178   6.526 -0.0083 -0.5279 -0.2673
40857SOL    HW124578   3.367   4.105   6.465 -0.2642 -1.5767  0.8882
40857SOL    HW224579   3.428   4.237   6.507  0.6663 -1.4719 -0.7078
40858SOL     OW24580   3.515   4.845   4.705  0.3325 -0.1891 -0.3490
40858SOL    HW124581   3.551   4.916   4.758  1.9372 -2.1903  1.4632
40858SOL    HW224582   3.582   4.827   4.640  0.7254 -1.1091  0.2867
40859SOL     OW24583  10.638   5.556  10.197 -0.0060  0.2711  0.0209
40859SOL    HW124584  10.549   5.536  10.228 -0.0459 -0.9398 -0.8361
40859SOL    HW224585  10.625   5.622  10.129 -0.3089 -0.3551 -0.5342
40860SOL     OW24586   7.308   0.053   0.578  0.1707 -0.1932  0.1372
40860SOL    HW124587   7.398   0.077   0.601 -0.6784  2.3736  1.0760
40860SOL    HW224588   7.277   0.003   0.653  0.0958  0.9078  0.8485
40861SOL     OW24589   6.394   5.652   9.652  0.0744  0.6143  0.5282
40861SOL    HW124590   6.380   5.676   9.744  0.4210 -0.2966  0.8227
40861SOL    HW224591   6.333   5.581   9.635  2.4007 -1.7116  1.1287
40862SOL     OW24592   6.595   5.911   8.812  0.0064  0.1259  0.4153
40862SOL    HW124593   6.647   5.949   8.882 -1.8699  0.5033  1.6795
40862SOL    HW224594   6.579   5.983   8.752  2.5950 -0.4480 -1.1453
40863SOL     OW24595   8.006   2.276   5.216 -0.3061  0.2189  0.3445
40863SOL    HW124596   7.937   2.272   5.150 -0.9595 -1.0427  1.0795
40863SOL    HW224597   8.032   2.369   5.217 -2.9308  1.0148  1.0136
40864SOL     OW24598   7.582  10.018   5.844  0.2291 -0.3081  0.0072
40864SOL    HW124599   7.550  10.056   5.926  1.0142 -0.6097  0.4589
40864SOL    HW224600   7.671  10.052   5.834  0.6235 -1.3184 -0.0391
40865SOL     OW24601   7.052   0.967   9.567 -0.3840  0.2646 -0.2719
40865SOL    HW124602   7.006   1.016   9.635  1.1189  2.0640 -0.5017
40865SOL    HW224603   7.023   1.007   9.485  2.6640  2.5739 -0.3778
40866SOL     OW24604   6.278   6.059   8.281  0.2990 -0.4101 -0.3454
40866SOL    HW124605   6.219   6.074   8.206  0.2587  2.1451  0.0817
40866SOL    HW224606   6.223   6.014   8.345 -0.2517 -0.8788 -1.1235
40867SOL     OW24607   8.832  10.201   3.448  0.1439  0.1289 -0.4720
40867SOL    HW124608   8.788  10.171   3.528  1.3714  1.3803  0.7146
40867SOL    HW224609   8.770  10.264   3.409 -0.6088 -0.7435 -0.7410
40868SOL     OW24610   2.757   1.393   3.834  0.1679 -0.5224 -0.3890
40868SOL    HW124611   2.710   1.416   3.915  1.1501  1.1340 -0.2472
40868SOL    HW224612   2.692   1.345   3.782 -0.8158 -0.6723  0.9190
40869SOL     OW24613   0.352   9.163   3.793 -0.8960 -0.3208 -0.1761
40869SOL    HW124614   0.308   9.198   3.870 -1.6329 -0.0953 -0.6942
40869SOL    HW224615   0.395   9.239   3.752 -1.9277 -0.1250 -0.9228
40870SOL     OW24616   4.149   7.501   7.977  0.3345 -0.1380 -0.2005
40870SOL    HW124617   4.193   7.586   7.974  0.2309 -0.0197  1.0192
40870SOL    HW224618   4.062   7.517   7.939  1.3278 -0.4086 -2.7744
40871SOL     OW24619   8.645   9.759   4.570  0.0178 -0.5485 -0.1613
40871SOL    HW124620   8.591   9.768   4.648  1.5145 -1.1815  1.0042
40871SOL    HW224621   8.627   9.670   4.538 -0.5684 -0.3013 -0.5377
40872SOL     OW24622   3.860   9.629   0.152  0.0043 -0.5872  0.8791
40872SOL    HW124623   3.905   9.544   0.150  1.8463  0.3450 -0.3216
40872SOL    HW224624   3.799   9.626   0.079 -0.2711 -1.0465  1.1256
40873SOL     OW24625   2.049   0.260  10.854 -0.3005  0.1027  0.2870
40873SOL    HW124626   1.954   0.264  10.846 -0.5721  1.1926  2.9669
40873SOL    HW224627   2.079   0.349  10.834  0.2289 -0.3132 -0.8684
40874SOL     OW24628   9.855   4.783   2.548  0.6409  0.5819 -0.2093
40874SOL    HW124629   9.844   4.722   2.620 -0.7255 -1.6896 -2.1832
40874SOL    HW224630   9.781   4.766   2.490  2.1224  1.6410 -2.5805
40875SOL     OW24631   9.625   6.771   5.070 -0.0874 -0.2449  1.0231
40875SOL    HW124632   9.680   6.785   4.993 -1.0938 -0.9681  0.1204
40875SOL    HW224633   9.542   6.813   5.048 -0.3975 -0.4819  1.7026
40876SOL     OW24634   0.553  11.174   2.398  0.3953  0.1976  0.0901
40876SOL    HW124635   0.497  11.099   2.375 -0.0078  0.0148  1.5598
40876SOL    HW224636   0.494  11.249   2.396  0.4596  0.2475  0.0812
40877SOL     OW24637  10.523   1.621   8.625  0.0814 -0.6689  0.0253
40877SOL    HW124638  10.612   1.588   8.607  0.5208  0.6783 -0.3544
40877SOL    HW224639  10.536   1.688   8.691 -0.7411 -0.8438  0.3721
40878SOL     OW24640   5.188   4.015   9.699 -0.8617 -0.2948 -0.3764
40878SOL    HW124641   5.092   4.006   9.702 -1.0909  1.6787 -0.0240
40878SOL    HW224642   5.206   4.049   9.611 -0.6862  0.8053  0.0592
40879SOL     OW24643   3.711   8.630   8.506  0.1351 -0.0978 -0.1655
40879SOL    HW124644   3.752   8.595   8.586  1.1160 -0.1110 -0.6630
40879SOL    HW224645   3.688   8.720   8.529 -0.9513 -0.5520  0.6069
40880SOL     OW24646   0.291   0.080   6.390  0.1042  0.6129  0.1681
40880SOL    HW124647   0.276   0.076   6.485  2.1017 -1.2472  0.4732
40880SOL    HW224648   0.375   0.038   6.377 -1.4320 -1.9621 -2.7490
40881SOL     OW24649   1.318  11.032  10.970  0.5921  0.2238  0.0260
40881SOL    HW124650   1.239  11.086  10.962 -0.2423 -0.8629  0.5603
40881SOL    HW224651   1.365  11.069  11.045  0.5540  0.8238 -0.2414
40882SOL     OW24652   2.145   0.883   3.788 -0.4224  0.2998  0.3705
40882SOL    HW124653   2.126   0.958   3.732  0.4266  0.7231  0.6343
40882SOL    HW224654   2.075   0.820   3.769 -0.1877  0.4609 -1.1052
40883SOL     OW24655   7.439   1.085   1.941  0.6082  0.3481  0.9407
40883SOL    HW124656   7.397   1.068   1.856 -3.9543 -0.9295  3.1045
40883SOL    HW224657   7.465   0.998   1.972  1.9680  0.7743  1.0424
40884SOL     OW24658  10.769   7.297  10.421  0.0948  0.3975  0.1034
40884SOL    HW124659  10.845   7.305  10.478  0.3618 -0.3681 -0.1352
40884SOL    HW224660  10.731   7.212  10.443  0.2432  0.0561 -0.8832
40885SOL     OW24661   5.327  10.534   5.902 -0.5746  0.0857  0.1114
40885SOL    HW124662   5.344  10.470   5.971 -0.9392  0.0308  0.1545
40885SOL    HW224663   5.283  10.485   5.834 -1.0021  0.3194  0.2131
40886SOL     OW24664   5.840   7.620   2.326  0.2885 -0.1200  0.4434
40886SOL    HW124665   5.813   7.695   2.274  1.4363 -0.5376 -0.8105
40886SOL    HW224666   5.778   7.551   2.304  0.9838 -0.4015 -0.6705
40887SOL     OW24667   3.746   7.314   9.643 -0.0264  0.7931 -0.3856
40887SOL    HW124668   3.822   7.287   9.695  0.1702 -0.0573 -1.0970
40887SOL    HW224669   3.671   7.280   9.690  0.2529 -1.9614 -1.7446
40888SOL     OW24670   0.391   4.653  10.778 -0.0488  0.4741 -0.4221
40888SOL    HW124671   0.361   4.562  10.780 -0.4425  0.5891  1.4131
40888SOL    HW224672   0.414   4.672  10.869  4.7116  0.7348 -1.4144
40889SOL     OW24673   2.784   1.044   6.077  0.0704 -0.2413 -0.7429
40889SOL    HW124674   2.813   0.959   6.112 -1.9629 -0.3889  0.7881
40889SOL    HW224675   2.772   1.029   5.983  0.4997 -1.4289 -0.6192
40890SOL     OW24676   5.591  11.212   5.586  0.4481 -0.4584  0.1436
40890SOL    HW124677   5.641  11.137   5.619 -0.0504 -0.5344  0.7528
40890SOL    HW224678   5.500  11.182   5.586  0.4371 -0.4881 -1.4085
40891SOL     OW24679   8.664   2.171   7.319 -0.4592  0.2982  0.5155
40891SOL    HW124680   8.736   2.232   7.304  0.1492 -0.4830  0.1867
40891SOL    HW224681   8.653   2.170   7.415  1.3422 -1.0708  0.7758
40892SOL     OW24682   6.524   1.202   5.095 -0.0113  0.4336 -0.3417
40892SOL    HW124683   6.560   1.150   5.166  0.3900  0.2640 -0.6671
40892SOL    HW224684   6.552   1.291   5.114 -0.8752  0.5744  0.3295
40893SOL     OW24685   6.809  10.196   5.585 -0.7287 -0.7493  0.6254
40893SOL    HW124686   6.832  10.289   5.586 -2.1216 -0.3628  2.4638
40893SOL    HW224687   6.758  10.185   5.505  2.0587 -0.7181 -1.3046
40894SOL     OW24688   3.623   5.643   9.709  0.3423  0.2691  0.5161
40894SOL    HW124689   3.566   5.654   9.785  0.7691 -0.6245  0.9872
40894SOL    HW224690   3.564   5.616   9.638  0.0366  0.4519  0.6992
40895SOL     OW24691   8.885  11.050   0.292 -0.4407 -0.5259 -0.4111
40895SOL    HW124692   8.886  10.954   0.289 -0.9014 -0.5185 -1.0860
40895SOL    HW224693   8.874  11.071   0.385 -0.7849 -1.1342 -0.3092
40896SOL     OW24694   7.136   7.793  10.813  0.3366 -0.8953 -0.0222
40896SOL    HW124695   7.063   7.742  10.850  1.0176 -2.4481 -0.7326
40896SOL    HW224696   7.124   7.881  10.849 -2.2752 -0.9091 -0.6424
40897SOL     OW24697   8.715   9.730   7.161  0.3899  0.3782 -0.4521
40897SOL    HW124698   8.717   9.640   7.128 -2.0416  1.0085 -2.7511
40897SOL    HW224699   8.722   9.784   7.082 -2.7878  2.0572  0.2569
40898SOL     OW24700   4.710   9.812   9.214  0.3523  0.3045  0.1436
40898SOL    HW124701   4.782   9.768   9.169  0.8955  0.8671  0.4548
40898SOL    HW224702   4.739   9.903   9.223 -1.2519  1.0827 -1.6386
40899SOL     OW24703   8.329   6.569   2.098  1.2391  0.8867 -0.3788
40899SOL    HW124704   8.300   6.633   2.163  0.0731 -0.3491  0.3732
40899SOL    HW224705   8.329   6.486   2.144 -0.8720 -0.2515 -2.2160
40900SOL     OW24706   5.077   0.364  10.047 -0.6075 -0.2422 -0.4800
40900SOL    HW124707   5.039   0.444  10.011 -0.7102  0.0045  0.1662
40900SOL    HW224708   5.047   0.294   9.988  0.4794  0.3317 -1.7578
40901SOL     OW24709   9.785   5.669   2.524  0.0633  0.1457  0.2193
40901SOL    HW124710   9.806   5.617   2.601  2.4246 -0.1518 -0.5410
40901SOL    HW224711   9.865   5.718   2.505 -1.2597  2.1328 -0.5901
40902SOL     OW24712   9.600   8.305   0.213  0.5345 -0.4398  0.1188
40902SOL    HW124713   9.688   8.266   0.214  0.2748 -1.0559 -0.7246
40902SOL    HW224714   9.615   8.398   0.230  1.5676 -0.1346 -2.1264
40903SOL     OW24715   3.996   5.152   6.572 -0.2597 -0.2516  0.6708
40903SOL    HW124716   4.072   5.146   6.630 -0.6296 -1.2319  1.0857
40903SOL    HW224717   3.929   5.099   6.616 -0.8595 -0.2147 -0.1805
40904SOL     OW24718   6.369   4.913   2.297  0.2548  0.4044 -0.7166
40904SOL    HW124719   6.463   4.895   2.302  0.2665  0.6824  0.5657
40904SOL    HW224720   6.359   4.971   2.221  0.9469 -0.5687 -1.5708
40905SOL     OW24721   6.049   7.822   4.204 -0.4875  0.8009 -0.3034
40905SOL    HW124722   6.044   7.737   4.247  0.3336  0.1236 -1.4928
40905SOL    HW224723   5.995   7.880   4.258 -1.5676 -0.6076  0.1734
40906SOL     OW24724  11.176   4.101   4.728 -0.5926 -0.0497 -0.6190
40906SOL    HW124725  11.099   4.156   4.740 -0.7047 -0.6507  1.7856
40906SOL    HW224726  11.151   4.040   4.658 -2.3563 -0.3292  0.2164
40907SOL     OW24727   8.359   8.739  11.071  1.2185 -0.7551 -0.4661
40907SOL    HW124728   8.383   8.654  11.035  0.6998 -1.2673  0.3673
40907SOL    HW224729   8.311   8.782  11.000 -1.5353 -2.5425  0.1702
40908SOL     OW24730   4.774   1.270   6.981  0.2773  0.0252 -0.0692
40908SOL    HW124731   4.829   1.290   7.057  2.0004 -0.0961 -1.2356
40908SOL    HW224732   4.808   1.186   6.949 -1.1960 -0.5021 -0.3231
40909SOL     OW24733  11.142   8.634   8.741 -0.4079  0.6425 -0.0817
40909SOL    HW124734  11.117   8.542   8.744  0.0751  0.5145  0.1764
40909SOL    HW224735  11.066   8.679   8.703 -0.1026 -0.0454 -1.5726
40910SOL     OW24736   8.831   0.332   5.263  0.6549  0.4975 -0.0529
40910SOL    HW124737   8.808   0.391   5.190  0.7444 -0.1370 -0.6044
40910SOL    HW224738   8.926   0.322   5.256  0.4658 -0.8882 -0.8882
40911SOL     OW24739   4.894  11.219   4.239  0.4627 -0.1059  0.7730
40911SOL    HW124740   4.812  11.183   4.205 -0.5630  0.7262  2.2625
40911SOL    HW224741   4.955  11.145   4.237 -0.4032 -0.8228 -0.0777
40912SOL     OW24742   8.373   1.587   7.447  0.0884 -0.1108 -0.3453
40912SOL    HW124743   8.465   1.585   7.419  0.0662 -0.4411 -0.3916
40912SOL    HW224744   8.338   1.502   7.421 -0.5193  0.4140 -1.3080
40913SOL     OW24745   2.090   6.789   2.332  0.7436 -0.1628  0.0896
40913SOL    HW124746   2.089   6.881   2.305 -1.7389 -0.5175 -1.3501
40913SOL    HW224747   2.055   6.790   2.421  0.2406  0.2768 -0.1040
40914SOL     OW24748   5.429  10.835  10.566 -0.1876  0.8029 -0.0999
40914SOL    HW124749   5.390  10.835  10.479 -1.8474  1.3192  0.6085
40914SOL    HW224750   5.479  10.753  10.569 -0.1888  0.7202 -1.4779
40915SOL     OW24751   2.336   9.208   8.686 -0.4202 -0.0516  0.1951
40915SOL    HW124752   2.392   9.145   8.731 -0.5059 -2.4104 -2.7233
40915SOL    HW224753   2.252   9.203   8.733  0.5309  0.4786  2.0543
40916SOL     OW24754   1.018   3.432   7.957  0.2841  0.0356  0.7102
40916SOL    HW124755   1.047   3.342   7.941  1.0572  0.0799  1.8019
40916SOL    HW224756   1.099   3.484   7.954 -0.0312  0.5506  1.0767
40917SOL     OW24757   0.275   7.693  10.613 -0.0385 -0.3999 -0.0858
40917SOL    HW124758   0.294   7.739  10.694  2.5927 -0.7896 -0.4036
40917SOL    HW224759   0.231   7.612  10.641 -0.9888  0.3762  0.7503
40918SOL     OW24760  10.424   0.230   9.014  0.7133  0.7455  0.2082
40918SOL    HW124761  10.353   0.166   9.010  0.3570  1.1368  0.1745
40918SOL    HW224762  10.392   0.305   8.964  0.6885  1.3574  1.1098
40919SOL     OW24763  10.650   0.951   1.472 -0.3832 -0.5685  0.8154
40919SOL    HW124764  10.723   0.959   1.533 -0.0295 -0.1045  0.3405
40919SOL    HW224765  10.592   1.024   1.495  1.4845  1.9135 -1.6882
40920SOL     OW24766   3.021   0.490  10.779  0.3626  0.3209 -0.0565
40920SOL    HW124767   3.015   0.559  10.713 -0.1485  1.8272  1.4853
40920SOL    HW224768   2.936   0.492  10.823  0.7219 -0.5729  0.7036
40921SOL     OW24769   9.328   0.231   4.375 -0.1641 -0.0559  0.0891
40921SOL    HW124770   9.255   0.282   4.340  0.1930  0.1070 -0.4299
40921SOL    HW224771   9.397   0.239   4.309  1.0612  1.4362  1.4811
40922SOL     OW24772   7.719   0.376   8.619  0.0639  0.1511  0.3606
40922SOL    HW124773   7.711   0.355   8.712 -0.5779  1.0670  0.5279
40922SOL    HW224774   7.632   0.360   8.583 -0.8602  3.5501  0.7539
40923SOL     OW24775   6.178   8.872   7.321  0.8433 -0.7690 -0.6854
40923SOL    HW124776   6.200   8.875   7.414  1.8651 -1.5347 -0.8925
40923SOL    HW224777   6.252   8.912   7.277  0.1427  0.0372 -1.1477
40924SOL     OW24778  10.266   7.512   7.212  0.3476  0.4675  0.0153
40924SOL    HW124779  10.217   7.589   7.239 -0.3999  0.2988 -0.8268
40924SOL    HW224780  10.356   7.544   7.199  0.4245  0.8301  1.2958
40925SOL     OW24781   2.192  10.352   3.318 -0.1567  0.1315  0.2525
40925SOL    HW124782   2.260  10.403   3.273  0.7878 -0.1428  1.3355
40925SOL    HW224783   2.189  10.388   3.406 -1.7813  0.4600  0.0931
40926SOL     OW24784   4.006   0.201   1.307  0.4407 -0.3406 -0.5817
40926SOL    HW124785   4.083   0.258   1.299  0.5430 -0.6353 -2.0727
40926SOL    HW224786   4.033   0.132   1.368  1.6133 -0.8097 -1.5942
40927SOL     OW24787   1.235   6.900   3.869 -0.2379  0.5271 -0.1134
40927SOL    HW124788   1.329   6.911   3.856 -0.3995  2.2062 -0.1262
40927SOL    HW224789   1.196   6.976   3.826 -1.6590 -0.4898 -0.7012
40928SOL     OW24790   5.626   8.815   4.333  0.3094 -0.1087  0.1393
40928SOL    HW124791   5.677   8.893   4.358 -0.8765  0.9727 -0.6941
40928SOL    HW224792   5.572   8.796   4.410 -1.0256  1.2871 -0.4082
40929SOL     OW24793   0.323  11.007   2.288  0.3690  0.1205  0.4125
40929SOL    HW124794   0.340  11.078   2.226  0.8257  0.0139  0.4092
40929SOL    HW224795   0.234  10.978   2.267 -0.0247  1.0312  0.7601
40930SOL     OW24796   8.541   2.331   8.427 -0.0017 -0.3943 -0.7494
40930SOL    HW124797   8.583   2.378   8.355  2.4997 -2.0084 -0.4970
40930SOL    HW224798   8.480   2.393   8.465  1.6287  1.9154 -1.6862
40931SOL     OW24799   3.772   2.405   4.169 -0.6888 -0.6552  0.1084
40931SOL    HW124800   3.850   2.368   4.210 -1.6433  0.0133  2.7059
40931SOL    HW224801   3.707   2.334   4.173 -0.5745 -0.8525 -1.0614
40932SOL     OW24802   5.055   7.201   2.157  0.8254  0.0984  0.2700
40932SOL    HW124803   5.036   7.130   2.095  0.7519  0.8472 -0.5917
40932SOL    HW224804   5.072   7.277   2.101 -1.0017  1.2541  1.1709
40933SOL     OW24805   9.484   6.535   5.989 -0.3731 -0.0990 -0.5794
40933SOL    HW124806   9.430   6.545   6.067 -1.5214  0.6211 -1.4296
40933SOL    HW224807   9.569   6.570   6.013 -1.4680  2.7240 -0.4371
40934SOL     OW24808  10.248   1.692   9.973 -0.1321  0.6012 -0.6252
40934SOL    HW124809  10.161   1.697   9.933 -0.2846 -1.1476 -0.5990
40934SOL    HW224810  10.298   1.761   9.931 -1.5167  1.6367 -0.6639
40935SOL     OW24811   8.140   1.182   7.175  0.3603  0.5596  0.2459
40935SOL    HW124812   8.065   1.178   7.116  1.2431 -1.3600 -0.8507
40935SOL    HW224813   8.130   1.105   7.231  1.3486  0.4253  0.2591
40936SOL     OW24814  10.627   8.638   1.908  0.5480  0.0368  0.7131
40936SOL    HW124815  10.698   8.641   1.844 -0.6104  0.9272 -0.6022
40936SOL    HW224816  10.641   8.714   1.964  0.1859  0.7151 -0.0873
40937SOL     OW24817   0.578   3.134   5.707 -0.8253 -0.0236 -0.2397
40937SOL    HW124818   0.593   3.202   5.642 -0.4587  0.0875 -0.0400
40937SOL    HW224819   0.509   3.171   5.764 -1.0866 -0.0880 -0.5136
40938SOL     OW24820  10.111   8.432   3.056  0.8631  0.1745  0.5070
40938SOL    HW124821  10.035   8.457   3.003  1.6227 -0.8756 -1.1522
40938SOL    HW224822  10.074   8.383   3.129 -0.0733 -0.1827 -0.1895
40939SOL     OW24823   0.260   2.008   8.524 -0.5280  0.4891  0.6992
40939SOL    HW124824   0.206   1.954   8.465 -2.5757  2.0908  1.0016
40939SOL    HW224825   0.288   1.948   8.593  0.5566 -1.0456 -0.9610
40940SOL     OW24826   5.817   9.665  11.054 -0.0486 -0.1222  0.0210
40940SOL    HW124827   5.899   9.647  11.099 -1.1157 -0.7806  1.8060
40940SOL    HW224828   5.820   9.610  10.976  1.4597  0.3430 -0.2779
40941SOL     OW24829   5.891   4.608   4.166 -0.2260 -0.2264 -0.0119
40941SOL    HW124830   5.865   4.643   4.251  0.2150  0.0214  0.0243
40941SOL    HW224831   5.927   4.522   4.185 -2.2202 -1.1640 -0.2073
40942SOL     OW24832   1.736   6.692   5.045 -0.1161  0.1286 -0.0133
40942SOL    HW124833   1.757   6.785   5.047  0.8070 -0.0351  2.7720
40942SOL    HW224834   1.820   6.649   5.029 -0.4993 -0.2684 -1.0508
40943SOL     OW24835   8.344   8.652   1.834 -0.3010  0.2485 -0.3505
40943SOL    HW124836   8.260   8.685   1.865 -0.5016 -0.2985 -0.2903
40943SOL    HW224837   8.382   8.609   1.911 -0.1298  0.1797 -0.4727
40944SOL     OW24838   3.210  11.279   1.306 -0.0370  0.6466  0.6436
40944SOL    HW124839   3.260  11.198   1.296 -0.8366  0.3851 -2.1060
40944SOL    HW224840   3.129  11.252   1.348  0.3226  0.3232  1.1482
40945SOL     OW24841  11.116   8.854   1.866 -0.3666 -0.5098 -0.0859
40945SOL    HW124842  11.048   8.915   1.898  0.4333  1.2298 -1.5019
40945SOL    HW224843  11.094   8.841   1.774  0.7628 -0.5673 -0.3555
40946SOL     OW24844   8.686   2.804   3.108  0.6927  0.8826 -0.2523
40946SOL    HW124845   8.728   2.889   3.107  0.8757  0.7922 -0.8067
40946SOL    HW224846   8.598   2.820   3.142  1.6043  0.8457  2.3461
40947SOL     OW24847   6.035  10.001   0.810 -0.2565 -0.1590  0.1874
40947SOL    HW124848   5.985  10.071   0.853  0.6062 -0.2311  1.3339
40947SOL    HW224849   5.970   9.932   0.796 -0.5876 -0.0883  1.2752
40948SOL     OW24850   4.830   1.009   8.190 -0.1292  0.2110  0.5583
40948SOL    HW124851   4.815   1.074   8.122  0.1717  1.3277  1.5399
40948SOL    HW224852   4.742   0.987   8.222 -0.1922  0.5342  0.6029
40949SOL     OW24853   5.913   8.867   5.970 -0.3020  0.4813 -0.6557
40949SOL    HW124854   5.878   8.937   5.915  0.9430  0.6757 -1.2379
40949SOL    HW224855   5.940   8.799   5.908  1.8580  1.0318 -0.4038
40950SOL     OW24856   3.494   4.579   3.833 -0.5375  0.2288  0.3762
40950SOL    HW124857   3.454   4.523   3.766  1.1439  0.3467 -0.7889
40950SOL    HW224858   3.434   4.574   3.907 -1.2163 -1.8963 -0.2396
40951SOL     OW24859   6.734   6.228   3.367 -0.3180 -0.2993 -0.0121
40951SOL    HW124860   6.700   6.233   3.457  1.3581 -0.9295  0.6893
40951SOL    HW224861   6.766   6.138   3.359  4.4182  1.0640  0.6644
40952SOL     OW24862   8.488   7.811   5.496  0.1149 -0.9670 -0.0581
40952SOL    HW124863   8.403   7.824   5.453 -0.0865  1.8070  0.9734
40952SOL    HW224864   8.471   7.745   5.563 -1.4199 -0.0814  0.4868
40953SOL     OW24865   1.965   0.621  10.198  0.1086  0.2244 -0.3464
40953SOL    HW124866   1.901   0.692  10.206  2.7309  2.6784  0.3429
40953SOL    HW224867   1.998   0.608  10.287  2.5067  1.0101 -1.0484
40954SOL     OW24868  10.534   4.612   3.084  1.0433  0.3548  0.2634
40954SOL    HW124869  10.533   4.617   3.180  0.2401  2.2965  0.1952
40954SOL    HW224870  10.464   4.671   3.056  2.4219  1.2386 -1.5537
40955SOL     OW24871  10.037   8.051   3.001  0.6162 -0.3955 -0.1187
40955SOL    HW124872   9.943   8.067   3.009  1.1293  3.8895 -0.0533
40955SOL    HW224873  10.069   8.042   3.091  0.4137 -0.6731 -0.0757
40956SOL     OW24874   7.638   3.959   6.193 -0.1568 -0.3726  0.1889
40956SOL    HW124875   7.716   3.995   6.234  0.1722  1.8487 -2.1387
40956SOL    HW224876   7.607   4.028   6.134 -3.8633 -1.1548  0.9259
40957SOL     OW24877   9.039   5.803   9.702 -0.1463 -0.1084 -0.7353
40957SOL    HW124878   8.949   5.821   9.671 -0.8349 -0.9419  0.6999
40957SOL    HW224879   9.085   5.886   9.690 -1.5607  0.8212 -0.0088
40958SOL     OW24880   1.293  10.561  10.337  0.0241 -0.8579 -0.4681
40958SOL    HW124881   1.288  10.573  10.242  0.4402 -1.2573 -0.5445
40958SOL    HW224882   1.387  10.558  10.356 -0.0254  0.8624  0.1753
40959SOL     OW24883   9.251   9.263   9.746  0.2435  0.0750  0.4278
40959SOL    HW124884   9.212   9.306   9.670  2.7305  0.3444 -0.7775
40959SOL    HW224885   9.218   9.313   9.821 -2.0263 -0.0284 -0.4321
40960SOL     OW24886   6.118   2.050   7.248  0.4973 -0.2977 -0.9458
40960SOL    HW124887   6.204   2.085   7.228 -0.3824  2.9386  0.3622
40960SOL    HW224888   6.125   2.018   7.338  0.0646  1.0531 -0.4192
40961SOL     OW24889   0.041   9.373   7.142  0.0645  0.3390 -0.8671
40961SOL    HW124890   0.006   9.460   7.159 -0.0455 -0.1025  1.5866
40961SOL    HW224891   0.113   9.364   7.203  1.1571 -0.7091 -2.2420
40962SOL     OW24892   9.469   4.494   3.210 -0.5397  0.3324  0.4028
40962SOL    HW124893   9.542   4.469   3.153 -2.1273 -1.4468 -0.9807
40962SOL    HW224894   9.441   4.412   3.250 -2.2669  0.8312  0.2799
40963SOL     OW24895   2.799   5.211   5.521 -0.0038 -0.1991 -0.1955
40963SOL    HW124896   2.810   5.214   5.616  1.5972 -1.2781 -0.3107
40963SOL    HW224897   2.719   5.160   5.508 -2.1701  2.6765  0.5647
40964SOL     OW24898   0.333   4.965   0.134 -0.0034 -0.0628  0.2275
40964SOL    HW124899   0.423   4.984   0.160 -0.5468  0.9171  1.4983
40964SOL    HW224900   0.341   4.929   0.046  1.4692  2.2245 -0.6704
40965SOL     OW24901   1.037   1.113   4.054 -0.1471 -0.3119 -0.1155
40965SOL    HW124902   0.966   1.176   4.069  1.4960  1.8341 -0.7920
40965SOL    HW224903   1.027   1.087   3.962  1.1284  1.6986 -0.8890
40966SOL     OW24904   6.651   9.957   8.095  0.5787  0.1245 -0.8945
40966SOL    HW124905   6.693  10.015   8.032  2.6251 -0.4140 -0.0917
40966SOL    HW224906   6.711   9.953   8.168 -1.2513 -0.1058  0.6865
40967SOL     OW24907   0.646   9.328   4.085 -0.2915  0.0460 -0.5350
40967SOL    HW124908   0.702   9.400   4.114  0.8611 -0.5524 -1.1725
40967SOL    HW224909   0.586   9.368   4.021  0.7733  0.3400 -1.3869
40968SOL     OW24910   3.734   2.876   6.723 -0.2978  0.3685 -0.1866
40968SOL    HW124911   3.818   2.845   6.756 -1.5659  0.6328  3.9443
40968SOL    HW224912   3.726   2.965   6.757 -1.0023  1.5634 -3.2073
40969SOL     OW24913   7.270   5.862   1.550  0.1568 -0.7304 -0.0143
40969SOL    HW124914   7.302   5.952   1.560 -2.7915  0.2992  1.3246
40969SOL    HW224915   7.293   5.838   1.461 -1.2012  2.3633 -1.3249
40970SOL     OW24916   3.872   8.881   8.354 -0.6008 -0.0299  0.4185
40970SOL    HW124917   3.870   8.928   8.437 -1.8682 -0.4146  0.6284
40970SOL    HW224918   3.784   8.895   8.317 -0.4550 -0.8692 -0.2757
40971SOL     OW24919   5.090   1.404   7.762 -0.1221  0.7480  0.3363
40971SOL    HW124920   5.170   1.414   7.814 -0.0730  0.1862  0.3688
40971SOL    HW224921   5.044   1.487   7.774  1.3890  1.8906 -1.2768
40972SOL     OW24922   9.960   4.451   9.974 -0.2870 -0.4243 -0.0449
40972SOL    HW124923   9.917   4.370  10.000  0.7525 -1.1646 -0.5582
40972SOL    HW224924   9.917   4.477   9.892  0.7041 -1.5685 -0.9626
40973SOL     OW24925   2.526   3.837   2.491 -0.1420 -1.0474  0.0905
40973SOL    HW124926   2.517   3.843   2.396  0.4287 -0.5707  0.0582
40973SOL    HW224927   2.499   3.747   2.512  1.3480 -1.7333 -0.7290
40974SOL     OW24928  10.803   8.739   9.386 -0.0956  0.1248  0.3799
40974SOL    HW124929  10.805   8.667   9.323  1.8592 -2.9133  3.5434
40974SOL    HW224930  10.894   8.748   9.415 -0.7620  1.9785  2.0832
40975SOL     OW24931   3.562   7.840   6.052  0.1085  0.6263  0.5945
40975SOL    HW124932   3.509   7.852   6.131  0.8189  1.2218  0.9959
40975SOL    HW224933   3.644   7.885   6.071  0.6857 -0.1014 -0.0963
40976SOL     OW24934  10.568   6.645   9.776  0.4193  0.4873  0.0094
40976SOL    HW124935  10.514   6.692   9.712 -0.3666  1.4329  1.3043
40976SOL    HW224936  10.641   6.610   9.726 -0.5928  0.5221 -1.5287
40977SOL     OW24937   6.530   3.838   2.106 -0.7379  0.0871 -0.2122
40977SOL    HW124938   6.583   3.890   2.046  0.7144  0.6166  1.4498
40977SOL    HW224939   6.529   3.750   2.067 -0.1127  0.4780 -1.1557
40978SOL     OW24940   0.414   4.090   9.966 -0.4604  0.1326 -0.1651
40978SOL    HW124941   0.368   4.146   9.904  0.2947 -0.3813 -1.2124
40978SOL    HW224942   0.503   4.083   9.931  0.2052  0.4274  1.3646
40979SOL     OW24943   8.539   5.660   7.984 -0.3129  0.3629 -0.7951
40979SOL    HW124944   8.621   5.625   8.018 -0.9869  0.3369  0.8951
40979SOL    HW224945   8.483   5.671   8.061 -2.3621 -0.8491 -2.0142
40980SOL     OW24946   5.186  11.107   0.970 -0.5523 -0.0879  0.1035
40980SOL    HW124947   5.248  11.098   1.043 -1.2368  1.9846  1.0230
40980SOL    HW224948   5.241  11.109   0.892  0.3944 -0.1101  0.7493
40981SOL     OW24949   9.697  10.820   4.704 -0.4937  0.1605 -0.0432
40981SOL    HW124950   9.603  10.808   4.690 -0.5904  1.5516 -0.6866
40981SOL    HW224951   9.738  10.784   4.626 -0.4385 -0.8308  0.4192
40982SOL     OW24952   5.276   0.413   3.725 -0.5998 -0.6644  0.0342
40982SOL    HW124953   5.326   0.400   3.644 -1.3583 -1.2701 -0.3550
40982SOL    HW224954   5.282   0.507   3.742 -1.0003 -0.4184 -1.1128
40983SOL     OW24955   5.501   3.238   5.808  0.0453  0.7422  0.2067
40983SOL    HW124956   5.547   3.245   5.892 -0.0768  2.1831  0.1767
40983SOL    HW224957   5.487   3.329   5.780 -1.2095  0.3153 -0.6670
40984SOL     OW24958   0.749   1.339   5.147  0.5016 -0.4298 -0.0041
40984SOL    HW124959   0.799   1.372   5.222  0.1921 -0.1840  0.0912
40984SOL    HW224960   0.687   1.408   5.125  0.2337 -0.7113 -0.1568
40985SOL     OW24961   7.765   4.974   6.027  0.4372 -0.8083  0.2147
40985SOL    HW124962   7.813   5.014   5.954 -1.2686  1.2793  0.1176
40985SOL    HW224963   7.680   5.018   6.026 -0.0933 -1.6138  2.6992
40986SOL     OW24964   0.630   2.491  10.080 -0.0446 -0.4011 -0.1631
40986SOL    HW124965   0.648   2.414  10.134  1.9566 -1.9496 -2.7853
40986SOL    HW224966   0.545   2.474  10.040 -0.4158 -0.3682  0.5833
40987SOL     OW24967   6.113   1.641  10.033  0.1809 -0.2741 -0.8250
40987SOL    HW124968   6.084   1.550  10.037  0.0863 -0.4283 -3.3726
40987SOL    HW224969   6.206   1.637  10.057 -0.5305 -0.5123  2.2459
40988SOL     OW24970  10.787   9.134   2.840  0.2487  0.5091  0.3202
40988SOL    HW124971  10.858   9.072   2.857  0.2624  0.6586  0.8385
40988SOL    HW224972  10.707   9.083   2.852  0.2079  1.0334  2.7745
40989SOL     OW24973   2.719   8.197   5.806  0.4074  0.2731  0.1147
40989SOL    HW124974   2.694   8.265   5.743  0.6686 -0.5564 -0.8989
40989SOL    HW224975   2.814   8.188   5.796  0.3445 -0.3937  0.0934
40990SOL     OW24976   7.407   4.359   4.950 -0.5169 -0.7178  0.1391
40990SOL    HW124977   7.371   4.320   4.869  2.2758 -2.6448 -0.3205
40990SOL    HW224978   7.450   4.439   4.921 -0.7002 -0.6895 -0.0581
40991SOL     OW24979   2.974   9.490   3.094 -0.3147 -0.0877 -0.1312
40991SOL    HW124980   2.914   9.475   3.021 -0.4062  1.5757 -0.4308
40991SOL    HW224981   3.042   9.548   3.058  2.1023 -2.6802 -0.1141
40992SOL     OW24982   4.747   5.364   1.282 -0.1761 -0.2245  0.5599
40992SOL    HW124983   4.766   5.418   1.205 -1.8974  2.2413  1.7269
40992SOL    HW224984   4.819   5.381   1.342  0.2390 -0.7332  0.2176
40993SOL     OW24985   5.555   0.747   0.172  0.1970  0.3958 -0.0759
40993SOL    HW124986   5.516   0.773   0.255 -0.3964  0.3134 -0.3243
40993SOL    HW224987   5.483   0.749   0.109 -0.3001 -3.2299  0.1660
40994SOL     OW24988   4.977   8.700   5.095  0.9094 -0.0660 -0.2129
40994SOL    HW124989   5.068   8.671   5.095  0.9443  0.0203 -1.1096
40994SOL    HW224990   4.963   8.736   5.007  0.1643  0.4046  0.0882
40995SOL     OW24991   9.409   6.954   4.887 -0.6076 -0.2902 -0.1028
40995SOL    HW124992   9.393   6.937   4.980  2.9417 -0.8043  0.5550
40995SOL    HW224993   9.364   6.883   4.842 -1.6982 -0.5145  1.2758
40996SOL     OW24994   9.012   6.466  10.238  0.0039 -0.2880  0.0303
40996SOL    HW124995   9.090   6.504  10.279  0.6607 -2.6607  1.2122
40996SOL    HW224996   9.047   6.420  10.161  0.0869 -2.5582  1.3445
40997SOL     OW24997   8.929   9.244   2.986 -0.1527  0.1975 -0.2562
40997SOL    HW124998   8.950   9.265   2.895 -2.1262 -1.3808 -1.1325
40997SOL    HW224999   8.872   9.314   3.014  2.3913  2.0538  0.6763
40998SOL     OW25000   0.574   1.072   6.391  0.0962  0.3096 -0.7138
40998SOL    HW125001   0.489   1.034   6.413  0.3215  0.1148 -0.1608
40998SOL    HW225002   0.609   1.102   6.475  0.0227  1.5530 -1.1005
40999SOL     OW25003   1.610  11.165   3.370 -0.0479 -0.2952 -0.4599
40999SOL    HW125004   1.627  11.248   3.327 -1.1188  0.4800  0.5632
40999SOL    HW225005   1.523  11.174   3.409  0.4835 -1.2654  1.0806
41000SOL     OW25006   4.037   0.848   7.410 -0.2190  0.8453  0.1891
41000SOL    HW125007   4.047   0.784   7.481  0.9027  0.9472  0.1371
41000SOL    HW225008   3.966   0.813   7.356 -0.2430  0.1264  0.6697
41001SOL     OW25009   5.325   0.629   4.793  0.0844  0.0914 -0.6891
41001SOL    HW125010   5.394   0.563   4.801 -0.8463 -0.7582  0.8257
41001SOL    HW225011   5.243   0.579   4.802 -0.6894  1.2470 -1.0784
41002SOL     OW25012   3.773   7.003  11.081 -0.2722  0.5771  0.5029
41002SOL    HW125013   3.686   6.967  11.096 -1.2621  2.3375 -0.5708
41002SOL    HW225014   3.763   7.097  11.098  1.1635  0.9646 -0.5558
41003SOL     OW25015   7.766  11.133  10.817 -0.4027  0.3116  0.1911
41003SOL    HW125016   7.685  11.183  10.825 -0.1090  1.2767 -2.0909
41003SOL    HW225017   7.835  11.196  10.837 -0.1195 -0.0135  0.2603
41004SOL     OW25018   2.885   0.469   9.240 -0.0591  0.6312 -0.1099
41004SOL    HW125019   2.899   0.444   9.149 -2.4880  2.5275 -1.1420
41004SOL    HW225020   2.944   0.543   9.255 -0.9466  1.4881 -0.7734
41005SOL     OW25021   1.057   3.035   4.680 -0.7372  0.3296  0.5216
41005SOL    HW125022   1.080   2.943   4.672 -1.1998  0.0875  1.7833
41005SOL    HW225023   1.059   3.068   4.590  0.4546 -0.6480  0.1660
41006SOL     OW25024   4.389   3.482   0.829 -0.0909  0.2340 -0.1259
41006SOL    HW125025   4.438   3.563   0.821  1.3116 -0.7653 -2.7399
41006SOL    HW225026   4.302   3.503   0.796  0.0148  0.8656 -0.0108
41007SOL     OW25027   6.021   8.411   8.331 -0.2430  0.3061  0.1972
41007SOL    HW125028   6.043   8.351   8.402  2.2054 -0.4798 -1.1181
41007SOL    HW225029   6.029   8.498   8.370  1.5975 -0.0912  0.8036
41008SOL     OW25030   5.796  11.202   3.909 -0.3441 -0.1843 -0.8121
41008SOL    HW125031   5.789  11.223   4.002  3.5660 -0.4605 -0.2915
41008SOL    HW225032   5.746  11.121   3.899 -0.6884 -0.2456  1.0954
41009SOL     OW25033   8.031   5.041   7.043  0.2781 -0.3352  0.6219
41009SOL    HW125034   7.965   5.009   7.104  0.0235  1.0549  1.1140
41009SOL    HW225035   8.096   4.971   7.038 -0.7139 -1.3028  0.9087
41010SOL     OW25036   4.224   5.491   4.461  0.5202  0.3645 -0.0907
41010SOL    HW125037   4.175   5.529   4.388 -0.2505 -0.8830 -0.2481
41010SOL    HW225038   4.206   5.397   4.456  2.0253  0.0070  0.5389
41011SOL     OW25039  10.106  11.163   2.464  0.5262  0.0991 -0.0586
41011SOL    HW125040  10.112  11.249   2.421  0.6961 -0.6289 -1.5255
41011SOL    HW225041  10.073  11.183   2.552 -1.9388  1.4632 -1.1739
41012SOL     OW25042   5.891   7.131   9.055  0.0500  0.1300  0.9453
41012SOL    HW125043   5.955   7.142   8.984  0.5147 -1.0254  1.1643
41012SOL    HW225044   5.942   7.092   9.127 -0.3616  1.4690  2.0014
41013SOL     OW25045   5.967   9.403   6.611  0.1206 -0.8120  0.1953
41013SOL    HW125046   5.957   9.329   6.552 -0.6523  1.0975 -2.2461
41013SOL    HW225047   5.879   9.417   6.647 -0.3601  0.4226 -1.3625
41014SOL     OW25048   0.701   9.452   1.532 -0.0580 -0.3274 -0.1373
41014SOL    HW125049   0.786   9.451   1.576 -0.9385 -0.5217  1.6371
41014SOL    HW225050   0.696   9.368   1.486  0.4737 -0.5671  0.2358
41015SOL     OW25051   6.630   1.940   5.863  0.4104 -0.2075  0.1219
41015SOL    HW125052   6.563   1.973   5.923  0.4342 -2.4114  1.4673
41015SOL    HW225053   6.597   1.960   5.776 -1.1744  0.2535  0.7978
41016SOL     OW25054   1.573   5.868   1.225  0.4899 -0.1842 -0.2391
41016SOL    HW125055   1.656   5.868   1.272  0.7304 -1.2093 -0.6290
41016SOL    HW225056   1.598   5.857   1.133 -0.1167 -2.6560 -0.1788
41017SOL     OW25057   8.481   2.342   1.077  0.2370  0.3950  0.8699
41017SOL    HW125058   8.533   2.325   0.998  0.3457 -1.0562  1.2147
41017SOL    HW225059   8.395   2.304   1.057  0.0310  0.7105  1.1564
41018SOL     OW25060   7.850   0.717   6.781  0.7657  0.3230 -0.2631
41018SOL    HW125061   7.831   0.687   6.870 -0.5685  1.1350 -0.2539
41018SOL    HW225062   7.902   0.797   6.793  2.7319 -0.8755 -0.2763
41019SOL     OW25063   6.855   7.493   4.569  0.3492 -0.2966  0.0030
41019SOL    HW125064   6.792   7.421   4.571 -1.0168  0.8667  1.0301
41019SOL    HW225065   6.810   7.565   4.612  1.4990  1.3425 -1.4155
41020SOL     OW25066  10.305   6.028   9.697  0.1823 -0.0599 -0.7330
41020SOL    HW125067  10.340   5.941   9.681 -0.0995 -0.5093  0.9078
41020SOL    HW225068  10.372   6.071   9.750 -1.4861 -0.8220  2.1925
41021SOL     OW25069   9.100   6.581   5.757 -0.5011  0.2116 -0.7911
41021SOL    HW125070   9.068   6.636   5.828  0.8888  2.4227 -1.7579
41021SOL    HW225071   9.021   6.541   5.721 -1.3049 -0.4462  1.5229
41022SOL     OW25072   8.541   0.575   2.901 -0.6179 -0.4221  0.2255
41022SOL    HW125073   8.472   0.573   2.967 -0.6422 -0.2601  0.2065
41022SOL    HW225074   8.592   0.496   2.917 -0.3798 -0.1782  0.7028
41023SOL     OW25075   7.733   5.654   0.545  0.5807  0.9133  0.0973
41023SOL    HW125076   7.697   5.731   0.502  0.0745  1.2556  1.1108
41023SOL    HW225077   7.673   5.635   0.617 -0.4548 -1.6306 -1.2904
41024SOL     OW25078   7.695  10.120   1.159  0.0234  0.0232 -0.7589
41024SOL    HW125079   7.702  10.175   1.081  2.3302  1.3311  0.2509
41024SOL    HW225080   7.761  10.156   1.219  0.4801 -2.8258  0.6126
41025SOL     OW25081   2.700  10.357   1.268 -0.3559 -0.7021  0.2645
41025SOL    HW125082   2.660  10.276   1.301  1.1923 -0.7274  2.2226
41025SOL    HW225083   2.628  10.403   1.224 -1.9780 -1.7903  1.6712
41026SOL     OW25084   5.265   7.293   0.755  0.1170 -0.4751  1.0048
41026SOL    HW125085   5.230   7.332   0.835  2.5898  0.2578  1.8262
41026SOL    HW225086   5.207   7.220   0.735 -2.3946  1.2402  1.6492
41027SOL     OW25087   1.355   3.026  10.905 -0.5052  0.6372  0.2411
41027SOL    HW125088   1.356   3.105  10.852 -0.9203 -0.1683 -1.0013
41027SOL    HW225089   1.434   2.979  10.880 -0.8938  0.0744  0.0621
41028SOL     OW25090   6.689  10.405   2.169  0.1229  0.2144  0.2061
41028SOL    HW125091   6.656  10.413   2.079 -0.1213  0.9961  0.3514
41028SOL    HW225092   6.616  10.433   2.224  0.9236  1.8266  0.5403
41029SOL     OW25093   4.632   9.439   9.430 -0.4280  0.8632 -0.3990
41029SOL    HW125094   4.603   9.514   9.378 -2.8967 -0.6177 -1.3581
41029SOL    HW225095   4.610   9.363   9.376  0.7366 -0.6203  1.1045
41030SOL     OW25096   5.630   7.020   1.335 -0.2577 -0.2730 -0.1576
41030SOL    HW125097   5.572   6.963   1.284 -1.9862 -0.6949  2.0839
41030SOL    HW225098   5.690   6.960   1.379 -1.0986 -0.2845  1.0239
41031SOL     OW25099   1.838   0.974   4.988 -0.1295 -0.3085 -0.0386
41031SOL    HW125100   1.889   0.954   5.067  0.8889  0.1447 -0.5630
41031SOL    HW225101   1.864   0.907   4.925 -1.9728 -1.5168  0.4074
41032SOL     OW25102   7.502   1.484   6.126  0.7887 -1.0071 -0.5437
41032SOL    HW125103   7.594   1.505   6.147  1.1376 -1.6007 -1.4208
41032SOL    HW225104   7.497   1.496   6.031  0.4592 -2.8217 -0.7822
41033SOL     OW25105   7.068   1.489   3.449  0.3273  0.0448  0.6862
41033SOL    HW125106   7.149   1.534   3.427  0.2482  0.6192  1.5320
41033SOL    HW225107   7.052   1.510   3.541  0.1821 -1.5621  1.0630
41034SOL     OW25108   0.873   1.084   6.311 -0.2387 -0.5496 -0.0318
41034SOL    HW125109   0.929   1.039   6.247  1.4270  0.1304  0.8809
41034SOL    HW225110   0.890   1.037   6.393 -3.9327 -2.7881 -0.3427
41035SOL     OW25111   3.621   7.578   1.850  0.4080 -0.1989 -0.0630
41035SOL    HW125112   3.666   7.501   1.885 -0.0992  0.3572  1.8842
41035SOL    HW225113   3.688   7.646   1.847 -0.1467  0.5659  2.6274
41036SOL     OW25114   1.629   3.664   6.838  0.2712  0.3874 -0.7681
41036SOL    HW125115   1.682   3.585   6.845 -0.9351 -0.3264  1.1522
41036SOL    HW225116   1.688   3.735   6.864  0.7640 -0.1610 -0.3791
41037SOL     OW25117   2.418   3.880   6.316  0.0130  0.1737 -0.1839
41037SOL    HW125118   2.418   3.975   6.329 -0.2348  0.2317 -0.5794
41037SOL    HW225119   2.496   3.862   6.264 -0.5732  0.3189 -1.1432
41038SOL     OW25120   0.069  10.217   2.883 -0.5456  0.0301  0.0072
41038SOL    HW125121   0.153  10.185   2.849  0.0097 -0.9329  2.0669
41038SOL    HW225122   0.004  10.180   2.824  0.4520  0.9820 -1.7719
41039SOL     OW25123   9.438   8.116   3.304 -0.6781 -0.0650  0.2993
41039SOL    HW125124   9.518   8.137   3.352  0.0162  0.1244 -0.9065
41039SOL    HW225125   9.369   8.163   3.351 -0.4738 -1.8710  2.6242
41040SOL     OW25126   0.888   1.529   6.984  0.4653 -0.1687 -0.2554
41040SOL    HW125127   0.841   1.511   7.065  1.1169  2.0393  0.6998
41040SOL    HW225128   0.822   1.518   6.915 -0.4802 -0.6532  0.7038
41041SOL     OW25129   6.305   4.824  10.015  0.1240 -0.1737  0.1724
41041SOL    HW125130   6.291   4.859  10.103 -0.3653  0.8733 -0.2965
41041SOL    HW225131   6.394   4.792  10.016  0.0495 -0.3893  1.1220
41042SOL     OW25132   6.185   6.719   8.671 -0.3386 -1.3399  0.3521
41042SOL    HW125133   6.181   6.627   8.644 -0.2468 -0.7564 -1.8184
41042SOL    HW225134   6.258   6.756   8.622 -2.2489  0.5869 -1.2713
41043SOL     OW25135  10.873   9.882   3.335 -0.1389  0.5457  0.1400
41043SOL    HW125136  10.819   9.912   3.408 -0.1859  2.7630 -0.7102
41043SOL    HW225137  10.817   9.892   3.258  1.2395  2.4974 -0.7082
41044SOL     OW25138   0.824   9.967  11.248 -0.6546  0.2060  0.3409
41044SOL    HW125139   0.881   9.940  11.176 -0.1972  0.4867  0.5882
41044SOL    HW225140   0.819   9.891  11.305  0.7533  0.6478  1.1153
41045SOL     OW25141  11.142   7.613   1.154  0.0096 -0.3874  0.1438
41045SOL    HW125142  11.071   7.669   1.185  0.1380 -0.3587  0.3827
41045SOL    HW225143  11.128   7.529   1.198  0.8091 -0.0245  1.1066
41046SOL     OW25144   3.889   9.908   3.615  0.0227 -0.6427  0.0638
41046SOL    HW125145   3.864   9.950   3.533  1.8912 -0.5176 -0.4787
41046SOL    HW225146   3.968   9.954   3.643 -0.6072 -0.6428  1.9844
41047SOL     OW25147   7.491   6.058   0.999 -0.0293  0.0470 -0.1362
41047SOL    HW125148   7.555   6.106   0.947  0.0904 -2.3507 -2.4150
41047SOL    HW225149   7.415   6.116   1.002  1.7683  2.5117  1.7523
41048SOL     OW25150   1.364   7.835   9.040  0.1287 -0.0247  0.4139
41048SOL    HW125151   1.443   7.849   8.987 -0.2342 -0.0390 -0.1359
41048SOL    HW225152   1.381   7.752   9.085 -0.8144 -1.6913 -2.0608
41049SOL     OW25153   2.109   3.635   0.674 -0.5356 -0.1035 -0.3869
41049SOL    HW125154   2.172   3.641   0.602 -0.8546  1.0878 -0.5934
41049SOL    HW225155   2.047   3.707   0.658 -0.9232 -0.1496  0.7786
41050SOL     OW25156   7.822   0.240  10.502  0.3505 -0.0571  0.8275
41050SOL    HW125157   7.745   0.292  10.476  0.7393 -0.0043 -0.2771
41050SOL    HW225158   7.846   0.275  10.588  0.2234  1.1730  0.3800
41051SOL     OW25159   7.765  10.542  11.171  0.5414 -0.2209  0.2948
41051SOL    HW125160   7.832  10.515  11.108 -0.1952 -0.1107 -0.5542
41051SOL    HW225161   7.690  10.567  11.117 -0.0623  0.0034  1.2161
41052SOL     OW25162   1.149   0.311   8.549 -0.2426  0.5413  0.0296
41052SOL    HW125163   1.186   0.245   8.607 -1.7021 -0.3340  0.0293
41052SOL    HW225164   1.204   0.388   8.562  3.0253 -1.2889 -1.7484
41053SOL     OW25165  10.803   6.714  10.789  0.0540  0.3156  0.5938
41053SOL    HW125166  10.757   6.715  10.704 -1.0608 -0.5314  1.1513
41053SOL    HW225167  10.822   6.621  10.804  0.8465  0.5310  0.9679
41054SOL     OW25168   2.237   8.038   7.370 -0.0433 -0.5071 -0.3180
41054SOL    HW125169   2.264   7.983   7.296 -1.1371  0.9463 -1.8766
41054SOL    HW225170   2.316   8.050   7.422  0.7056 -1.7598 -1.1171
41055SOL     OW25171   4.475   7.143   0.668 -0.0217  0.4476  0.0586
41055SOL    HW125172   4.567   7.123   0.650 -0.0244  2.1160 -2.1818
41055SOL    HW225173   4.471   7.155   0.763  1.8634 -0.5290  0.2961
41056SOL     OW25174   2.504   8.988  10.073  0.2399 -0.2913 -0.0012
41056SOL    HW125175   2.559   8.918  10.038 -0.5721 -0.9348 -0.0306
41056SOL    HW225176   2.530   9.066  10.024  1.4665 -0.4692  0.3406
41057SOL     OW25177   2.886   5.239   4.267  0.6951  0.0193  0.0085
41057SOL    HW125178   2.896   5.147   4.291  1.5223  0.1069  0.0449
41057SOL    HW225179   2.937   5.249   4.186  2.6368  0.9327  1.2463
41058SOL     OW25180   1.539   0.442   9.267 -0.0838  0.2692 -0.5815
41058SOL    HW125181   1.483   0.518   9.257  0.5799  1.0014  0.8452
41058SOL    HW225182   1.480   0.372   9.293 -0.5231  0.6640 -0.5062
41059SOL     OW25183   5.402   2.140  10.052 -0.0803 -0.3075 -0.3033
41059SOL    HW125184   5.456   2.112   9.978 -1.0772 -2.8610 -0.1737
41059SOL    HW225185   5.463   2.150  10.125  0.4779 -1.3248 -0.6120
41060SOL     OW25186   4.689   3.830   4.302  0.0505 -0.0925  0.1355
41060SOL    HW125187   4.680   3.754   4.359  1.9844 -0.0419  0.5970
41060SOL    HW225188   4.627   3.815   4.231 -0.6248 -1.3874  0.9584
41061SOL     OW25189   9.959   7.577   7.367 -0.5842 -0.0922  0.1378
41061SOL    HW125190   9.974   7.590   7.273 -1.1928 -1.3054 -0.1411
41061SOL    HW225191   9.869   7.545   7.372  0.5897 -3.7551  0.7534
41062SOL     OW25192  10.827  10.295   1.394 -0.0539 -0.2858 -0.2083
41062SOL    HW125193  10.833  10.307   1.299  2.9206  0.5432 -0.0131
41062SOL    HW225194  10.803  10.382   1.428  0.5104 -0.1729 -0.0976
41063SOL     OW25195   6.504  10.297  11.233 -0.5885 -0.3723 -0.0025
41063SOL    HW125196   6.511  10.379  11.184  0.3715 -1.1543 -1.2282
41063SOL    HW225197   6.566  10.306  11.305  0.0765 -0.3194 -0.5796
41064SOL     OW25198  10.068  10.580  10.775 -0.2497 -0.4771  0.6564
41064SOL    HW125199  10.118  10.662  10.781 -2.5953  1.1380 -0.3202
41064SOL    HW225200  10.131  10.512  10.797  2.2041  1.4563  0.1045
41065SOL     OW25201   9.446   0.549  10.475  0.3847 -0.6138  0.1133
41065SOL    HW125202   9.539   0.548  10.497  1.0645  1.4506 -2.1317
41065SOL    HW225203   9.440   0.611  10.402 -2.7551 -0.7580  0.1166
41066SOL     OW25204   7.812   5.678   5.261  0.0934 -0.6143  0.0053
41066SOL    HW125205   7.722   5.671   5.230 -0.4425 -0.7458  1.5290
41066SOL    HW225206   7.860   5.611   5.211 -0.3001  0.4529 -1.9013
41067SOL     OW25207   7.436   7.580   8.461 -0.1833 -0.6678  0.1364
41067SOL    HW125208   7.526   7.548   8.457 -0.0065 -0.0422 -1.8114
41067SOL    HW225209   7.399   7.559   8.376 -1.7726 -0.5532  0.7673
41068SOL     OW25210   2.163  11.018   3.536  0.0425  0.0539  0.3954
41068SOL    HW125211   2.195  10.942   3.583  1.5583  1.5321  1.9060
41068SOL    HW225212   2.106  11.063   3.598 -2.5184 -0.8118 -1.1582
41069SOL     OW25213   6.344   1.264   6.216 -0.4171 -0.1212 -0.0400
41069SOL    HW125214   6.385   1.214   6.287 -0.8281 -0.7321 -0.2307
41069SOL    HW225215   6.370   1.355   6.233  0.1073 -0.3593  0.4636
41070SOL     OW25216   0.241   6.005   8.473 -0.2877  0.7787 -0.1886
41070SOL    HW125217   0.205   5.932   8.423  0.4726  0.0369  0.3131
41070SOL    HW225218   0.195   6.082   8.440 -1.3571  0.0381 -0.4933
41071SOL     OW25219   0.219   4.824   1.754  0.2264 -0.3015  0.4009
41071SOL    HW125220   0.224   4.908   1.799 -0.7615 -0.0553  0.0934
41071SOL    HW225221   0.241   4.759   1.821 -0.6668  0.0963  1.1070
41072SOL     OW25222   2.465   0.493   6.127  0.5268  0.2234 -0.0254
41072SOL    HW125223   2.536   0.553   6.149 -1.0682  2.4153 -0.5331
41072SOL    HW225224   2.385   0.541   6.148 -0.8476 -1.6156 -0.7663
41073SOL     OW25225   1.914   5.581   8.304 -0.0919 -0.0442 -0.4770
41073SOL    HW125226   1.910   5.529   8.224 -0.5743 -1.4966  0.4554
41073SOL    HW225227   1.974   5.533   8.361  2.1675  2.2121 -0.7728
41074SOL     OW25228   6.524   6.155   3.565 -0.1375 -0.2050  0.7115
41074SOL    HW125229   6.491   6.105   3.491  1.8171  0.5641 -0.7791
41074SOL    HW225230   6.465   6.134   3.637 -2.5111 -0.4804 -1.2091
41075SOL     OW25231   4.962   1.506   9.638  0.3272  0.6617 -0.2248
41075SOL    HW125232   4.886   1.484   9.584 -1.1193  2.3204  1.0216
41075SOL    HW225233   5.004   1.579   9.592 -0.5345  1.6466  0.4982
41076SOL     OW25234   5.407   7.440   3.857 -0.2816  0.2781  0.0346
41076SOL    HW125235   5.383   7.349   3.876  0.5643 -0.3531 -1.7263
41076SOL    HW225236   5.503   7.441   3.863 -0.1800  0.6940 -1.3121
41077SOL     OW25237   2.138   9.720   6.953 -0.1763 -0.3256  0.0825
41077SOL    HW125238   2.083   9.642   6.961  0.9226 -1.3466 -1.7408
41077SOL    HW225239   2.165   9.721   6.861 -0.8087  2.6714 -0.1908
41078SOL     OW25240   1.135   9.323   5.816 -0.0388 -0.1526  0.0578
41078SOL    HW125241   1.042   9.326   5.795  0.0719  1.5292 -0.3496
41078SOL    HW225242   1.160   9.231   5.805 -1.6609 -0.6346  0.2712
41079SOL     OW25243   6.897   2.694   5.531 -0.0095 -0.2520 -0.2914
41079SOL    HW125244   6.820   2.640   5.516  0.0703 -0.5216  0.2256
41079SOL    HW225245   6.950   2.643   5.593  0.7458 -0.2235 -0.9086
41080SOL     OW25246  10.031   0.680   5.865  0.4803  0.4153  0.0691
41080SOL    HW125247   9.998   0.617   5.929 -3.0587  2.2049  0.2292
41080SOL    HW225248  10.038   0.631   5.783  2.2546 -1.1852  1.0957
41081SOL     OW25249   6.805   3.716   0.874  0.6369 -0.5514  0.1183
41081SOL    HW125250   6.855   3.793   0.847 -0.5710  0.4987  0.7548
41081SOL    HW225251   6.732   3.712   0.812 -1.0668  0.7296  1.9093
41082SOL     OW25252   0.176   5.758  11.203  0.5765 -0.4015  0.1370
41082SOL    HW125253   0.195   5.667  11.224  0.6709 -0.1203  1.3557
41082SOL    HW225254   0.094   5.777  11.249  1.6596  0.7182  1.7356
41083SOL     OW25255  10.988  10.173   8.079 -0.5972 -0.0738 -0.1587
41083SOL    HW125256  11.022  10.227   8.009 -0.2675  0.1949  0.2066
41083SOL    HW225257  10.923  10.228   8.123 -0.7519 -0.2147 -0.2080
41084SOL     OW25258  10.699  11.217   3.771  0.4401 -0.4503 -0.0468
41084SOL    HW125259  10.636  11.267   3.721 -0.1450  0.6452  1.7046
41084SOL    HW225260  10.714  11.269   3.850  1.3963 -2.0411  0.8729
41085SOL     OW25261   2.513  10.303   6.672 -0.0649 -0.3015  0.3848
41085SOL    HW125262   2.489  10.394   6.654  1.4959 -0.2136 -1.6453
41085SOL    HW225263   2.438  10.251   6.643  0.0117  0.2366 -0.8520
41086SOL     OW25264   7.886   6.235   6.739 -0.1291 -0.5551  0.2574
41086SOL    HW125265   7.919   6.323   6.718  1.9986 -0.9960  1.4995
41086SOL    HW225266   7.834   6.211   6.662 -0.2941  1.5273 -0.3700
41087SOL     OW25267   4.659   2.921   5.002 -0.5276 -0.3003 -0.1003
41087SOL    HW125268   4.565   2.921   5.017 -0.3233  1.3103  1.5683
41087SOL    HW225269   4.698   2.917   5.089  0.9001  0.8422 -0.6372
41088SOL     OW25270   5.188   9.800   6.902 -0.5290 -0.1510  0.0159
41088SOL    HW125271   5.093   9.785   6.901 -0.7171  0.9502  0.2341
41088SOL    HW225272   5.212   9.810   6.810 -0.5313 -0.9224 -0.0765
41089SOL     OW25273   4.310  10.815   9.402 -0.4465 -0.5981 -0.7452
41089SOL    HW125274   4.286  10.907   9.398 -0.0003 -0.4705 -0.5097
41089SOL    HW225275   4.357  10.798   9.320  1.3301 -0.0767  0.1143
41090SOL     OW25276  10.584   0.064   3.559  0.7737  0.6817  0.3375
41090SOL    HW125277  10.651   0.101   3.502  1.7352 -1.8984 -0.3386
41090SOL    HW225278  10.507   0.055   3.503  1.4895 -1.1279 -0.4628
41091SOL     OW25279   7.583   4.950   2.319 -0.1254  0.1069 -0.0007
41091SOL    HW125280   7.630   4.872   2.349 -3.1127 -2.6965 -1.9257
41091SOL    HW225281   7.538   4.983   2.396 -0.2923 -1.2373  0.4925
41092SOL     OW25282   1.987   9.027   6.077 -0.2554  0.1036  0.6665
41092SOL    HW125283   1.966   9.094   6.142  2.2139  1.5742  0.0894
41092SOL    HW225284   1.907   9.018   6.025 -0.4629  3.3122  0.2253
41093SOL     OW25285   7.190   7.019   4.573  0.4184 -0.2335  0.4798
41093SOL    HW125286   7.257   6.978   4.628  2.0942  1.2548 -0.3307
41093SOL    HW225287   7.191   7.111   4.599 -1.3384 -0.1610  0.4141
41094SOL     OW25288   1.982  10.112   8.622 -0.9913 -0.2472  0.2271
41094SOL    HW125289   2.038  10.083   8.549 -1.5222  0.4197 -0.4555
41094SOL    HW225290   2.013  10.201   8.642 -1.8473  0.1591 -0.2099
41095SOL     OW25291  10.039   7.131   6.803  0.2451 -0.5741  0.1888
41095SOL    HW125292  10.014   7.182   6.880  1.7549 -1.4991  1.3679
41095SOL    HW225293  10.100   7.188   6.756 -0.2401 -0.2252 -0.0246
41096SOL     OW25294   2.568   6.468   6.434  0.5768  0.3985 -0.4346
41096SOL    HW125295   2.519   6.422   6.366  1.0052 -0.3639 -0.2384
41096SOL    HW225296   2.660   6.453   6.413  0.7266  0.9797 -0.2338
41097SOL     OW25297   6.895   8.774   4.769 -0.6840 -0.2772  0.3420
41097SOL    HW125298   6.833   8.717   4.724  0.0793 -1.3838  0.6271
41097SOL    HW225299   6.867   8.863   4.747 -3.8571 -0.6004  2.4452
41098SOL     OW25300   8.158   3.010   6.802 -0.6272  0.1156 -0.2313
41098SOL    HW125301   8.121   2.925   6.778 -2.4143  0.4519  1.0886
41098SOL    HW225302   8.173   3.003   6.897  0.3269  0.8964 -0.3100
41099SOL     OW25303   7.893  10.088   2.164  0.1402 -0.0074  0.6207
41099SOL    HW125304   7.901  10.043   2.248 -1.1682 -0.5065  0.4966
41099SOL    HW225305   7.963  10.153   2.165 -0.4420  0.6390  2.5046
41100SOL     OW25306   1.377   6.643   9.134  0.0182 -0.4400 -0.1828
41100SOL    HW125307   1.378   6.688   9.049  0.5931  1.0792  0.5953
41100SOL    HW225308   1.448   6.579   9.128  0.3081 -0.0803 -0.7129
41101SOL     OW25309   1.687   2.049   8.055 -0.4739  1.0426 -0.2099
41101SOL    HW125310   1.668   1.958   8.034 -0.1289  1.2237 -1.3928
41101SOL    HW225311   1.718   2.047   8.146 -1.6822  0.1689  0.1996
41102SOL     OW25312   4.657   5.029   1.393 -0.4868  0.5252  0.2264
41102SOL    HW125313   4.725   5.075   1.442 -0.6474  1.5915 -0.5332
41102SOL    HW225314   4.695   5.014   1.307 -0.7798  0.0366  0.1758
41103SOL     OW25315   9.863   5.466   2.270  0.4076 -0.2452  0.4042
41103SOL    HW125316   9.805   5.481   2.195  1.7053  2.9559 -0.0873
41103SOL    HW225317   9.941   5.427   2.231  1.4061  2.1571 -0.1376
41104SOL     OW25318  11.043   7.213   0.127 -0.0681 -0.1760  0.2648
41104SOL    HW125319  11.125   7.261   0.116  0.4046 -1.1472 -0.5074
41104SOL    HW225320  11.045   7.145   0.060 -1.5940 -0.0976  0.1091
41105SOL     OW25321   1.582   8.162   1.961  0.1570  0.6160  0.3059
41105SOL    HW125322   1.553   8.254   1.959  1.1899  0.9465 -0.4085
41105SOL    HW225323   1.509   8.115   2.001 -0.3728  1.7569  0.7378
41106SOL     OW25324   8.165   7.946   1.972 -0.0644 -0.5217 -0.0255
41106SOL    HW125325   8.130   7.887   1.905 -0.3598 -0.9323  0.4851
41106SOL    HW225326   8.098   8.014   1.981 -0.7549 -1.2902  0.9286
41107SOL     OW25327   3.462  11.090   2.636 -0.2827 -0.6578 -0.5923
41107SOL    HW125328   3.512  11.163   2.600 -0.3165 -1.0772 -1.5176
41107SOL    HW225329   3.372  11.122   2.642 -0.2716 -0.5730 -0.8611
41108SOL     OW25330   9.554   6.985   5.739 -0.0196  0.7202  0.0825
41108SOL    HW125331   9.557   6.896   5.703 -0.3016  0.6701  0.1853
41108SOL    HW225332   9.603   6.979   5.821  1.3350  1.0142 -0.6616
41109SOL     OW25333  11.245   3.173   3.527 -0.4075  0.4502  0.4207
41109SOL    HW125334  11.188   3.097   3.517  0.4135 -0.1540  0.1705
41109SOL    HW225335  11.318   3.141   3.581  0.6099  0.6814 -0.7654
41110SOL     OW25336   8.669   2.975   3.353 -0.1480  0.5404  0.0526
41110SOL    HW125337   8.702   3.049   3.404  1.9501 -0.0513 -0.3242
41110SOL    HW225338   8.692   2.996   3.262  0.2221 -0.4241 -0.0917
41111SOL     OW25339   8.714  10.122  10.689  0.4355  0.5470  0.2992
41111SOL    HW125340   8.684  10.210  10.712 -1.8325 -0.1553  0.2941
41111SOL    HW225341   8.669  10.065  10.751 -0.1539 -0.8068 -1.3164
41112SOL     OW25342   2.078   3.399   9.567 -0.0282 -0.2377 -0.1128
41112SOL    HW125343   1.991   3.440   9.571  0.1820  0.2603 -0.6233
41112SOL    HW225344   2.062   3.314   9.527 -0.2420 -0.0195 -0.5016
41113SOL     OW25345   8.520   3.591   6.674 -0.1640 -0.0707 -0.7862
41113SOL    HW125346   8.575   3.661   6.638  0.0938  0.2746  0.2302
41113SOL    HW225347   8.472   3.557   6.599  2.0524 -0.9609 -1.8842
41114SOL     OW25348   7.442   8.109   2.942  0.4643  0.2386 -0.2305
41114SOL    HW125349   7.454   8.025   2.986  0.4165  1.8411  3.1643
41114SOL    HW225350   7.531   8.136   2.918  0.6102 -0.2492 -0.2420
41115SOL     OW25351   2.691   1.808   2.509  0.4429 -0.3987  0.4176
41115SOL    HW125352   2.618   1.793   2.450 -1.2326 -0.9650  2.5068
41115SOL    HW225353   2.668   1.761   2.589  0.0290  4.3181  3.4985
41116SOL     OW25354  10.824   4.544   6.695 -0.6414  0.5921  0.0842
41116SOL    HW125355  10.781   4.577   6.773 -0.9598  1.1003 -0.2986
41116SOL    HW225356  10.841   4.623   6.642  0.4971  0.3741  0.1049
41117SOL     OW25357   8.991   8.350   7.464 -0.3324 -0.0070  0.5751
41117SOL    HW125358   9.073   8.395   7.442 -1.0159  1.0250  0.0513
41117SOL    HW225359   8.991   8.345   7.559  0.9254 -1.1688  0.5386
41118SOL     OW25360   8.692   4.715   6.676 -0.1114 -0.7124  0.2163
41118SOL    HW125361   8.749   4.698   6.601  1.0973  0.1521  0.8957
41118SOL    HW225362   8.744   4.686   6.752 -0.6171  0.0088  0.8448
41119SOL     OW25363   8.298   9.667   1.643  0.1705 -0.2266  0.0870
41119SOL    HW125364   8.243   9.743   1.628 -1.3046 -1.5660 -1.7339
41119SOL    HW225365   8.339   9.683   1.728  0.6275  2.9679 -0.6116
41120SOL     OW25366   2.680   6.344   7.846  0.4745  0.4973 -0.5034
41120SOL    HW125367   2.609   6.299   7.893 -1.6411  3.4570 -0.5761
41120SOL    HW225368   2.676   6.309   7.757  0.5761 -0.8984  0.0141
41121SOL     OW25369   0.769  10.219   7.877  0.1042 -0.5532 -0.0846
41121SOL    HW125370   0.790  10.231   7.785  1.5503 -1.4348  0.0903
41121SOL    HW225371   0.690  10.165   7.877  0.0754 -0.5164 -0.8124
41122SOL     OW25372   3.818   1.767   3.749  0.0392  0.3426  0.1221
41122SOL    HW125373   3.893   1.784   3.693 -0.0851  1.7514  0.3402
41122SOL    HW225374   3.746   1.752   3.689  0.3410 -0.3135 -0.0853
41123SOL     OW25375   9.678   6.195   0.023  0.1303 -0.2840  0.5745
41123SOL    HW125376   9.633   6.209  -0.060  1.1811  1.3376  0.2240
41123SOL    HW225377   9.682   6.282   0.063  0.1016 -0.9528  2.0853
41124SOL     OW25378   9.953   9.079  10.080 -0.4603  0.1716 -0.0877
41124SOL    HW125379   9.923   9.162  10.116 -1.5212 -0.1736 -0.1545
41124SOL    HW225380  10.016   9.047  10.145 -0.5806  0.6846  0.2939
41125SOL     OW25381   7.153   4.778   6.287  0.0647  0.3754  0.5374
41125SOL    HW125382   7.116   4.714   6.227  0.8437  0.4607 -0.0505
41125SOL    HW225383   7.078   4.814   6.333 -0.4403 -0.4979  0.4183
41126SOL     OW25384   1.205   0.793   0.790  0.3517 -0.0472 -0.1917
41126SOL    HW125385   1.139   0.724   0.782 -1.1237  0.9232  2.5276
41126SOL    HW225386   1.287   0.745   0.802 -0.6154 -1.3863  1.5582
41127SOL     OW25387   8.072   1.765   8.909  0.2601 -0.3175 -0.2153
41127SOL    HW125388   8.149   1.737   8.859 -0.9033  1.8493 -3.6458
41127SOL    HW225389   8.011   1.691   8.902  1.0388 -1.0060  0.1688
41128SOL     OW25390  10.460   9.556   7.132  0.5100 -0.1403  0.2635
41128SOL    HW125391  10.379   9.596   7.164  0.7456 -1.0868  2.2546
41128SOL    HW225392  10.449   9.463   7.152  1.2403 -0.6070 -1.3827
41129SOL     OW25393   3.507   5.328  10.214  0.0469  0.2280  0.1290
41129SOL    HW125394   3.504   5.407  10.268 -0.0889 -0.3287  0.9596
41129SOL    HW225395   3.565   5.269  10.261  2.0824  0.6746 -1.6937
41130SOL     OW25396   8.615   9.581   2.091  0.6085  0.3853  0.2495
41130SOL    HW125397   8.533   9.624   2.068  0.7699 -0.5503 -2.3849
41130SOL    HW225398   8.681   9.650   2.082  0.1459  1.3063  2.9841
41131SOL     OW25399   8.658   7.465   3.090 -1.4249  0.3283  0.1283
41131SOL    HW125400   8.595   7.396   3.070  0.1744 -2.1012  2.6991
41131SOL    HW225401   8.619   7.512   3.164  0.3067 -2.4092  3.0487
41132SOL     OW25402   9.648   6.055   8.895  1.0044 -0.3747 -0.4192
41132SOL    HW125403   9.679   6.123   8.835  2.5096 -1.1722 -0.6066
41132SOL    HW225404   9.705   6.063   8.971 -2.0096  1.8347  1.8716
41133SOL     OW25405   2.820   3.699   7.096  0.1192 -0.3895 -0.2324
41133SOL    HW125406   2.788   3.624   7.046  0.8024 -0.4584 -0.5853
41133SOL    HW225407   2.903   3.668   7.133 -1.2579 -1.0415  2.6027
41134SOL     OW25408   1.536  10.623   1.498 -0.2855  0.1123  0.2550
41134SOL    HW125409   1.525  10.697   1.558  1.1798  1.3822 -0.9522
41134SOL    HW225410   1.618  10.641   1.453  0.1031 -2.2677 -0.1227
41135SOL     OW25411   8.618   4.329   0.558 -0.3110  0.5487 -0.0925
41135SOL    HW125412   8.674   4.269   0.607 -0.0776  1.2461  0.5115
41135SOL    HW225413   8.670   4.410   0.552 -0.0385  0.2793 -2.0888
41136SOL     OW25414   5.903  10.697   2.265 -0.2330  0.0526 -0.8272
41136SOL    HW125415   5.923  10.617   2.215  0.0329  0.9503 -2.2136
41136SOL    HW225416   5.980  10.711   2.320 -0.2555 -0.6018 -0.6151
41137SOL     OW25417   3.946   3.567   0.228 -0.2556 -0.2181 -0.2556
41137SOL    HW125418   3.967   3.505   0.297 -0.7638  0.0062  0.1079
41137SOL    HW225419   3.906   3.513   0.159 -0.0203 -0.3985 -0.2517
41138SOL     OW25420   1.470  10.108   8.605 -0.5727 -0.0281 -0.0791
41138SOL    HW125421   1.464  10.177   8.540 -1.5147  2.3979  2.3633
41138SOL    HW225422   1.384  10.109   8.649  0.5982 -0.1304  2.4161
41139SOL     OW25423   6.721   8.169   1.440 -0.2747  0.0431 -0.1536
41139SOL    HW125424   6.631   8.148   1.415 -0.4026 -1.8843  1.6411
41139SOL    HW225425   6.756   8.087   1.476  1.9148  0.9806  0.0400
41140SOL     OW25426   0.650   8.166   4.404  0.3642 -0.4836  0.1947
41140SOL    HW125427   0.658   8.261   4.391 -0.2670 -0.4927 -0.3575
41140SOL    HW225428   0.574   8.142   4.351  0.3112 -1.2464  0.6068
41141SOL     OW25429   5.281   3.646   2.710 -0.1702 -0.1782  0.3619
41141SOL    HW125430   5.317   3.724   2.752 -0.2304  0.1198 -0.1330
41141SOL    HW225431   5.198   3.631   2.756 -0.0189 -0.1301  0.6570
41142SOL     OW25432   6.659   1.930   9.579 -0.3897 -0.0830  0.0203
41142SOL    HW125433   6.615   1.919   9.495  0.2112 -0.0302 -0.3023
41142SOL    HW225434   6.588   1.946   9.641 -0.8962 -0.8213 -0.3499
41143SOL     OW25435   9.833   1.314   4.880 -0.3109 -0.3259 -0.1169
41143SOL    HW125436   9.907   1.333   4.822 -0.1316  2.5436  0.8599
41143SOL    HW225437   9.873   1.300   4.966 -0.7907 -0.1927  0.1331
41144SOL     OW25438   5.970   1.433   3.588 -0.3990  0.1143  0.4192
41144SOL    HW125439   6.003   1.485   3.516 -0.1230  0.9099  1.1094
41144SOL    HW225440   6.041   1.372   3.609  1.3124  2.6695  2.7559
41145SOL     OW25441   1.679   6.319   7.635 -0.3409  0.3881 -0.0857
41145SOL    HW125442   1.634   6.271   7.566  0.4047  0.5534 -0.7014
41145SOL    HW225443   1.618   6.388   7.661 -1.1447 -0.4479  0.3274
41146SOL     OW25444  11.224   5.429   2.151 -0.4943 -0.4709 -0.8143
41146SOL    HW125445  11.128   5.430   2.143 -0.6133 -0.8037  0.3606
41146SOL    HW225446  11.240   5.429   2.245  0.6165 -2.2746 -0.9428
41147SOL     OW25447   7.819   8.220   8.171  0.5752  0.5318  0.7833
41147SOL    HW125448   7.814   8.202   8.265  2.1356 -0.0136  0.7895
41147SOL    HW225449   7.852   8.310   8.166 -1.9147  1.5371  0.7184
41148SOL     OW25450   7.462   3.080   3.410  0.1815  0.6291 -0.1621
41148SOL    HW125451   7.501   3.115   3.490 -0.5050  0.9594  0.0328
41148SOL    HW225452   7.395   3.144   3.386  0.5380  0.6584 -1.1364
41149SOL     OW25453  10.521   4.918  10.404 -0.5335  0.1060  0.0238
41149SOL    HW125454  10.596   4.917  10.345 -0.1237 -1.1424  0.5369
41149SOL    HW225455  10.449   4.880  10.353 -0.8582  1.3682 -0.4918
41150SOL     OW25456   2.259   0.623   7.123  0.9627 -0.3075  0.5815
41150SOL    HW125457   2.198   0.671   7.178  0.2297 -1.3961  0.7515
41150SOL    HW225458   2.294   0.689   7.063  1.3194  0.7788  1.9198
41151SOL     OW25459  11.281   0.998   6.358  0.3657  0.6159 -0.1034
41151SOL    HW125460  11.311   1.070   6.414  0.4022 -0.6897  1.6223
41151SOL    HW225461  11.193   1.025   6.330 -0.1429  0.8056  1.5694
41152SOL     OW25462   3.816   0.667   5.103 -0.0608  0.0886 -0.3823
41152SOL    HW125463   3.783   0.728   5.037  0.3754  2.7480  1.6753
41152SOL    HW225464   3.768   0.691   5.182  0.6984 -1.7937  0.6975
41153SOL     OW25465  10.950   4.867   1.515  0.2799  0.3673 -0.6282
41153SOL    HW125466  10.870   4.867   1.463  1.6367  2.1588 -2.9139
41153SOL    HW225467  11.020   4.873   1.450  2.1965  0.5412  1.3574
41154SOL     OW25468   0.671  10.035   3.822 -0.1780  0.0043  0.1624
41154SOL    HW125469   0.577  10.049   3.814 -0.0718  0.5494 -0.2103
41154SOL    HW225470   0.709  10.089   3.752  0.3689 -0.7107 -0.1116
41155SOL     OW25471   4.809   3.234   2.310  0.4181 -0.1471  0.1305
41155SOL    HW125472   4.725   3.274   2.288  1.9484  3.1747 -0.3268
41155SOL    HW225473   4.793   3.189   2.392 -1.6981  0.9052  0.3801
41156SOL     OW25474   6.171   2.477   3.459 -0.0264 -0.0354 -0.2671
41156SOL    HW125475   6.104   2.480   3.390  0.7988 -2.3709 -1.2670
41156SOL    HW225476   6.191   2.569   3.477 -0.8355  0.6597 -2.5647
41157SOL     OW25477   2.812   1.753   5.725 -0.5007  0.0297 -0.1054
41157SOL    HW125478   2.742   1.727   5.785  0.2647 -0.8354  0.4369
41157SOL    HW225479   2.874   1.802   5.779  0.7298 -1.6590  0.1168
41158SOL     OW25480   9.747   3.509   2.100 -0.0722  0.6279  0.1249
41158SOL    HW125481   9.829   3.497   2.051 -1.7056 -0.9310 -2.4476
41158SOL    HW225482   9.685   3.450   2.057 -1.7953 -0.6874  3.9684
41159SOL     OW25483   3.827   9.859   6.310 -0.4293 -0.2207 -0.2383
41159SOL    HW125484   3.780   9.871   6.392 -0.9564 -0.0787 -0.5591
41159SOL    HW225485   3.783   9.787   6.266 -0.9501  0.5218 -0.9606
41160SOL     OW25486   0.401   5.070   1.603  0.0885 -0.0435  0.2955
41160SOL    HW125487   0.370   5.082   1.693 -1.5255  1.2184 -0.3748
41160SOL    HW225488   0.366   4.984   1.577 -0.6776  0.2227  0.4181
41161SOL     OW25489   9.755   2.718   3.350 -0.1740  0.0112  0.7591
41161SOL    HW125490   9.666   2.738   3.321  0.0442 -0.9911 -0.7552
41161SOL    HW225491   9.791   2.802   3.377 -1.1646  0.6496  0.1756
41162SOL     OW25492   9.224   1.092   1.287  0.0379  0.2066 -0.3475
41162SOL    HW125493   9.160   1.143   1.338  2.9000  0.6610  3.1631
41162SOL    HW225494   9.188   1.004   1.285 -0.7010  0.4145  1.6571
41163SOL     OW25495   4.575   5.597   1.528  0.7640 -0.4194 -0.5063
41163SOL    HW125496   4.561   5.637   1.614 -0.3512 -0.0527 -0.8350
41163SOL    HW225497   4.625   5.518   1.546 -0.9963 -1.3259  0.7341
41164SOL     OW25498   7.408   3.335   0.876  0.1987 -0.7578 -0.6630
41164SOL    HW125499   7.442   3.422   0.854 -1.4766 -0.0818 -0.6839
41164SOL    HW225500   7.423   3.327   0.971 -1.1556  0.2979 -0.3207
41165SOL     OW25501   3.224   8.675   9.489  0.2173 -0.0339  0.5331
41165SOL    HW125502   3.230   8.704   9.580  1.5629 -0.0236  0.4501
41165SOL    HW225503   3.173   8.744   9.445  0.7001  0.6270  1.0016
41166SOL     OW25504   9.911  10.589   5.607  0.8518 -0.3606  0.5010
41166SOL    HW125505   9.857  10.511   5.592 -0.3236  0.6766 -1.0946
41166SOL    HW225506   9.967  10.594   5.530 -1.8566  2.4322 -1.5235
41167SOL     OW25507  11.075   6.877   0.615  0.3247  0.1034  0.3225
41167SOL    HW125508  11.046   6.968   0.616  0.8460  0.2738  0.9108
41167SOL    HW225509  11.058   6.847   0.526  1.2813  1.1559 -0.2380
41168SOL     OW25510   8.535   1.230   0.168 -0.3034  0.3382 -0.2851
41168SOL    HW125511   8.556   1.157   0.110  3.0094 -0.2392  1.4070
41168SOL    HW225512   8.510   1.188   0.250 -1.7153  1.1595 -0.2689
41169SOL     OW25513   0.774   9.843   7.170 -0.3227  0.0177  0.1785
41169SOL    HW125514   0.714   9.770   7.189  0.7922 -0.9805 -0.0113
41169SOL    HW225515   0.840   9.837   7.239 -0.8794  1.6429  0.8979
41170SOL     OW25516   2.813   1.035   0.986 -0.5018  0.3506 -0.0121
41170SOL    HW125517   2.826   0.943   0.964 -1.1525  0.1279  0.5021
41170SOL    HW225518   2.892   1.059   1.035 -0.8621 -0.2841  0.9047
41171SOL     OW25519   9.776   2.835   0.620 -0.1135  0.4249 -0.5539
41171SOL    HW125520   9.736   2.857   0.704  0.9305  1.5706 -0.3172
41171SOL    HW225521   9.868   2.818   0.641 -0.3364 -1.7844 -1.1277
41172SOL     OW25522   3.273   8.608   5.174  0.4976  0.1013  0.6403
41172SOL    HW125523   3.360   8.625   5.137 -0.3568 -0.3429 -1.7445
41172SOL    HW225524   3.289   8.545   5.244  1.9964 -1.1000 -0.6914
41173SOL     OW25525   1.972   4.784  11.006 -0.3081 -0.0261  0.2067
41173SOL    HW125526   1.910   4.743  11.066 -0.2480  1.4585  1.3383
41173SOL    HW225527   1.932   4.869  10.985  0.7006  0.3729 -0.1322
41174SOL     OW25528   4.184   0.578   3.821  0.5286  0.2223  0.0825
41174SOL    HW125529   4.192   0.640   3.893  0.4392 -0.9907  1.1776
41174SOL    HW225530   4.101   0.600   3.779 -0.7202 -0.6645  1.9696
41175SOL     OW25531   8.479   1.314   5.080  0.2900 -0.1741  0.0580
41175SOL    HW125532   8.404   1.256   5.068  2.2040 -2.6330 -0.8807
41175SOL    HW225533   8.552   1.256   5.099  2.0983  2.0737  0.4486
41176SOL     OW25534   7.096   3.739   3.184  0.7916 -0.3268  0.7075
41176SOL    HW125535   7.083   3.795   3.261  1.0658 -0.3964  0.8049
41176SOL    HW225536   7.009   3.734   3.144  0.5002 -0.8124  1.3676
41177SOL     OW25537   6.903   7.115   9.309  0.1956 -0.6468 -0.0112
41177SOL    HW125538   6.930   7.079   9.225  0.1174  0.1474 -0.3862
41177SOL    HW225539   6.956   7.069   9.374  1.7007  0.1341 -0.6415
41178SOL     OW25540   0.997   5.880   1.092 -0.7845  0.2099  0.1649
41178SOL    HW125541   0.924   5.918   1.042 -0.7134 -0.0052 -0.1046
41178SOL    HW225542   1.069   5.942   1.079 -0.5115 -0.2727 -0.7067
41179SOL     OW25543   9.731   1.210  11.195 -0.0761  0.1836 -0.6969
41179SOL    HW125544   9.719   1.256  11.112 -1.2343  1.4579  0.1265
41179SOL    HW225545   9.734   1.279  11.261 -3.5456 -0.8694  0.7898
41180SOL     OW25546   6.782   0.247   6.750 -0.1087 -0.0472 -0.0390
41180SOL    HW125547   6.722   0.296   6.693  1.2480  1.8403  0.0412
41180SOL    HW225548   6.840   0.201   6.689 -1.7396 -2.1144 -0.1175
41181SOL     OW25549   8.844   1.006   5.660  0.4850  0.5051 -0.1149
41181SOL    HW125550   8.778   1.069   5.690 -0.4273 -0.8189  0.7438
41181SOL    HW225551   8.927   1.050   5.676 -0.1176  1.3292  0.8932
41182SOL     OW25552   2.374   2.403   4.777  0.1946  0.3349  0.6159
41182SOL    HW125553   2.317   2.474   4.746  1.1893  1.4026  1.1581
41182SOL    HW225554   2.323   2.358   4.844  0.2041  1.6575  1.5329
41183SOL     OW25555   3.232  10.635   4.322  0.1545  0.3112  0.0565
41183SOL    HW125556   3.325  10.616   4.308  0.2233 -0.3803  1.3117
41183SOL    HW225557   3.230  10.685   4.404 -0.3590  2.8270 -1.3651
41184SOL     OW25558   1.894   1.507   7.762 -0.4069  0.2425  0.0294
41184SOL    HW125559   1.972   1.560   7.744 -1.7622  1.3500 -3.2490
41184SOL    HW225560   1.820   1.566   7.747 -1.9393 -1.5127  0.3032
41185SOL     OW25561  10.228   4.847  10.758  0.6050 -0.0204 -0.1308
41185SOL    HW125562  10.323   4.839  10.765  0.5592 -1.5694 -0.9449
41185SOL    HW225563  10.195   4.761  10.782 -0.6168  0.5225  0.2254
41186SOL     OW25564   4.877   8.908  10.641  0.1961  0.5702 -0.1051
41186SOL    HW125565   4.800   8.873  10.686 -0.6031  1.2110 -0.9348
41186SOL    HW225566   4.841   8.963  10.571  1.4142  1.1272 -0.3158
41187SOL     OW25567   3.787   3.594  11.148 -0.4661  0.9206 -0.2478
41187SOL    HW125568   3.752   3.664  11.203  0.6574  1.1974  0.1287
41187SOL    HW225569   3.876   3.621  11.127 -0.7068  0.5784 -1.8144
41188SOL     OW25570   9.910   9.435   6.590 -0.5177  0.7936  0.1149
41188SOL    HW125571   9.892   9.349   6.627  1.4532 -0.2436 -1.1471
41188SOL    HW225572   9.826   9.480   6.591 -1.4859 -0.9322  1.3087
41189SOL     OW25573   3.764   0.314   1.540 -0.3686  0.7034  0.5190
41189SOL    HW125574   3.713   0.236   1.518  0.6639 -0.1695  1.1451
41189SOL    HW225575   3.843   0.280   1.581  0.1805  2.0841  0.6411
41190SOL     OW25576   7.094  10.974   6.277  0.1492 -0.7923 -0.1799
41190SOL    HW125577   7.187  10.997   6.273 -0.6456  3.0203 -3.7508
41190SOL    HW225578   7.057  11.036   6.340 -0.1924 -1.4665  0.2948
41191SOL     OW25579   1.315   3.656   5.433  0.2895  0.3891 -0.1785
41191SOL    HW125580   1.329   3.723   5.501  0.8932 -0.8261  0.9412
41191SOL    HW225581   1.396   3.658   5.381  0.0669  0.9153 -0.5164
41192SOL     OW25582   9.787   8.834   8.218  0.5550 -0.6855  0.5432
41192SOL    HW125583   9.858   8.844   8.154  1.9011  0.8273  2.1840
41192SOL    HW225584   9.822   8.871   8.299 -2.2940  0.6272  1.2963
41193SOL     OW25585   4.060   2.311   1.134  0.0254  0.0801  1.0336
41193SOL    HW125586   3.989   2.309   1.199  0.4335 -0.7416  1.4668
41193SOL    HW225587   4.083   2.220   1.120 -1.7209  0.0103 -2.1649
41194SOL     OW25588   8.817   6.376   9.779  0.2134 -0.2795 -0.4872
41194SOL    HW125589   8.834   6.444   9.843 -0.4474 -0.1754 -0.4168
41194SOL    HW225590   8.723   6.358   9.787 -0.0607  0.3407 -2.0141
41195SOL     OW25591   7.517   0.831   6.823  0.1978  0.2261  0.0562
41195SOL    HW125592   7.599   0.860   6.864 -0.6450  2.2293  0.4224
41195SOL    HW225593   7.537   0.826   6.730  1.1380 -0.8206  0.2923
41196SOL     OW25594   8.278   6.407   4.126 -0.2014  0.0223  0.7418
41196SOL    HW125595   8.281   6.489   4.077  2.5095 -1.1484 -1.3078
41196SOL    HW225596   8.354   6.411   4.185 -1.1553 -0.2667  2.0529
41197SOL     OW25597   8.301   7.287   0.936 -0.5350 -0.0192 -0.2985
41197SOL    HW125598   8.312   7.262   1.028 -0.7338 -0.3177 -0.3519
41197SOL    HW225599   8.365   7.356   0.922  1.6121 -1.9778 -0.7351
41198SOL     OW25600   7.917   1.765   9.589  0.5076  0.1142  0.3008
41198SOL    HW125601   8.001   1.725   9.569 -0.2056 -0.8689 -0.9070
41198SOL    HW225602   7.905   1.750   9.683  2.1732  1.3156  0.7440
41199SOL     OW25603   2.036  10.981   6.798  0.2853  0.0980 -0.0781
41199SOL    HW125604   1.956  11.028   6.819  0.2104 -0.6248  1.4446
41199SOL    HW225605   2.057  11.006   6.708  0.1111  2.7776  0.5590
41200SOL     OW25606   6.589   5.599   0.995 -0.6162  0.0012  0.4542
41200SOL    HW125607   6.625   5.529   0.940 -1.7301  0.5389 -1.0105
41200SOL    HW225608   6.614   5.680   0.951 -0.5201  0.4951  1.3902
41201SOL     OW25609   6.279  10.421   9.276  0.2261 -0.4830 -0.5290
41201SOL    HW125610   6.270  10.442   9.182 -0.2324 -0.8905 -0.5815
41201SOL    HW225611   6.196  10.452   9.314  0.3473 -0.4640 -0.2830
41202SOL     OW25612   3.087   9.752   6.315  0.1649 -0.1484 -0.3201
41202SOL    HW125613   3.094   9.696   6.393 -0.6135 -1.8679 -1.4258
41202SOL    HW225614   2.997   9.784   6.317  0.3630  0.4077 -0.1382
41203SOL     OW25615   9.397   0.183   0.805 -0.3072 -0.9927 -0.0435
41203SOL    HW125616   9.302   0.191   0.815 -0.0773  0.0381  1.9916
41203SOL    HW225617   9.424   0.263   0.760  0.0809  1.7293  4.4397
41204SOL     OW25618  11.284  10.002   1.305  0.1827 -0.2624  0.3166
41204SOL    HW125619  11.348  10.032   1.240 -0.4278 -0.8461 -0.5834
41204SOL    HW225620  11.216  10.070   1.305  1.3320  0.9832  2.1585
41205SOL     OW25621   0.540   3.535   7.123  0.4581 -0.0496 -0.2423
41205SOL    HW125622   0.498   3.461   7.165  0.1906 -0.0843 -0.5692
41205SOL    HW225623   0.632   3.508   7.112  0.2510 -0.5265 -0.8179
41206SOL     OW25624   9.474   0.378   6.768  0.2493  0.0874 -0.2615
41206SOL    HW125625   9.555   0.407   6.810 -0.0968  1.9577 -0.7651
41206SOL    HW225626   9.435   0.317   6.831  1.5701 -0.1099  0.4061
41207SOL     OW25627   1.168  10.984   9.562 -0.0702 -0.6432  0.0786
41207SOL    HW125628   1.253  11.012   9.595 -0.3364 -0.5682  0.7248
41207SOL    HW225629   1.117  11.065   9.554 -0.5634 -0.8227  1.1369
41208SOL     OW25630   3.245   9.726   9.521  0.3074 -0.3145  0.4985
41208SOL    HW125631   3.268   9.815   9.496 -0.3094 -0.8312 -2.1854
41208SOL    HW225632   3.241   9.728   9.617 -2.4387  3.2323  0.5036
41209SOL     OW25633   5.765   8.813   8.776  0.0655 -0.6817 -0.3029
41209SOL    HW125634   5.785   8.894   8.730 -0.3123 -0.4456 -0.0547
41209SOL    HW225635   5.754   8.748   8.707  0.9197 -0.6496 -0.4809
41210SOL     OW25636   4.831   0.075   1.674 -0.1212 -0.2344  0.3192
41210SOL    HW125637   4.774   0.148   1.650  1.0114  0.1688 -1.2313
41210SOL    HW225638   4.832   0.018   1.597 -0.7449 -1.7804  1.3870
41211SOL     OW25639   2.860   0.921   5.387 -0.6932  0.4059 -0.2366
41211SOL    HW125640   2.914   1.000   5.383  2.1639 -1.3088  1.0090
41211SOL    HW225641   2.880   0.875   5.305  0.5001 -0.6223  0.5897
41212SOL     OW25642   4.170   7.110   8.847 -0.3656  0.3055  0.0481
41212SOL    HW125643   4.208   7.132   8.932  1.5984 -0.0064 -0.6806
41212SOL    HW225644   4.205   7.023   8.827 -1.9086 -0.2184 -0.4830
41213SOL     OW25645   6.977  10.141   9.671 -0.5846  0.6445  0.0940
41213SOL    HW125646   6.976  10.209   9.738 -0.7481  0.5842  0.1513
41213SOL    HW225647   7.057  10.092   9.689 -0.6099  0.6499  0.2228
41214SOL     OW25648   5.483   3.490  11.122 -0.4539  0.1559  0.5962
41214SOL    HW125649   5.428   3.568  11.123  0.2674  0.6976 -0.5724
41214SOL    HW225650   5.440   3.431  11.061  0.1412  0.5141 -0.1909
41215SOL     OW25651   0.326  10.285   0.873  0.4559  0.1355  0.6491
41215SOL    HW125652   0.380  10.295   0.952 -1.0051  0.5450  1.6276
41215SOL    HW225653   0.246  10.334   0.892 -0.5060 -0.8956 -0.5557
41216SOL     OW25654   6.202   8.023   0.474  0.7266  0.5772  0.7549
41216SOL    HW125655   6.236   8.099   0.427  1.0152 -0.4554 -0.8273
41216SOL    HW225656   6.275   7.994   0.529  0.8877  0.9803  0.7523
41217SOL     OW25657   9.977   7.166   1.605 -0.0767 -0.1931 -0.0145
41217SOL    HW125658  10.063   7.144   1.570 -0.2630  1.6577 -1.7992
41217SOL    HW225659   9.918   7.165   1.529 -0.5411  3.7764  0.0609
41218SOL     OW25660   9.500  10.538  10.695 -0.3401  0.1324 -0.3635
41218SOL    HW125661   9.528  10.455  10.734 -0.1400 -0.1357 -1.0613
41218SOL    HW225662   9.578  10.592  10.695  0.1365 -0.5184 -2.0580
41219SOL     OW25663   6.407   6.927  10.003  0.1379  0.8957  0.6613
41219SOL    HW125664   6.345   6.906   9.933  0.8289  3.6590 -0.9304
41219SOL    HW225665   6.490   6.890   9.972  0.6228  2.8154 -0.4779
41220SOL     OW25666   0.778   3.825  10.358 -0.5711  0.8099 -0.0245
41220SOL    HW125667   0.712   3.893  10.349 -1.5510 -0.0237  0.6635
41220SOL    HW225668   0.753   3.777  10.437 -1.0264 -1.5342 -1.4717
41221SOL     OW25669   8.598   7.045   5.721  0.4302  0.0797 -0.6820
41221SOL    HW125670   8.542   6.996   5.661  0.7213  0.8788 -1.6202
41221SOL    HW225671   8.675   6.990   5.732  0.1725 -0.2837 -0.6534
41222SOL     OW25672   5.936   2.284   0.462 -0.5038  0.1695  0.1687
41222SOL    HW125673   5.896   2.197   0.471 -0.8377  0.4581  1.9221
41222SOL    HW225674   5.871   2.336   0.416 -0.7653 -0.2365  0.0758
41223SOL     OW25675   1.143   8.739   7.241  0.1037  0.1488  0.2361
41223SOL    HW125676   1.121   8.812   7.182  0.8512  0.2525  0.0765
41223SOL    HW225677   1.061   8.721   7.288 -0.1648  0.8994  0.0716
41224SOL     OW25678   3.183   8.248   8.535 -0.6934  0.0057  0.9832
41224SOL    HW125679   3.217   8.274   8.449 -0.4991 -3.7171 -0.2290
41224SOL    HW225680   3.130   8.323   8.563 -0.1269  1.6746 -1.9822
41225SOL     OW25681   4.655   8.059   1.749  0.4117  0.6642 -0.3986
41225SOL    HW125682   4.642   7.978   1.798 -1.1303 -0.3282 -2.3166
41225SOL    HW225683   4.723   8.037   1.685  0.7599  1.2312 -0.2312
41226SOL     OW25684   1.074  10.259   5.366 -0.5465 -0.7761 -0.1224
41226SOL    HW125685   1.084  10.218   5.452 -0.0168 -3.5816 -1.4364
41226SOL    HW225686   0.981  10.248   5.346 -0.6867 -0.0466  0.0839
41227SOL     OW25687   9.401   3.274   9.514 -0.4306 -0.1495 -0.0649
41227SOL    HW125688   9.475   3.326   9.547 -0.8343 -0.5585  1.5745
41227SOL    HW225689   9.425   3.252   9.424  2.6435 -2.3572  1.1321
41228SOL     OW25690   8.552   6.104   7.489 -0.1815  0.1654 -0.6203
41228SOL    HW125691   8.498   6.182   7.499  2.2718  1.8536  0.2230
41228SOL    HW225692   8.596   6.095   7.573  2.4981  0.1882 -1.9420
41229SOL     OW25693   9.099   0.454   0.939 -0.1596  0.4056  0.4767
41229SOL    HW125694   9.176   0.413   0.900  1.0048 -0.0614  3.0620
41229SOL    HW225695   9.037   0.462   0.867  1.9199 -0.1240 -1.4808
41230SOL     OW25696   0.227   6.942   2.493  0.1065 -0.2745  0.6024
41230SOL    HW125697   0.301   7.002   2.496 -0.9938  1.1455  0.7466
41230SOL    HW225698   0.253   6.874   2.431  0.3426  1.8848 -1.8516
41231SOL     OW25699   6.580   6.231   8.382  0.1758 -0.0633  0.2162
41231SOL    HW125700   6.616   6.304   8.432  0.0825 -0.0025  0.1947
41231SOL    HW225701   6.487   6.251   8.374  0.1291 -0.2405  0.3062
41232SOL     OW25702   0.862   8.733   0.221  0.4087 -0.0877  0.4428
41232SOL    HW125703   0.867   8.757   0.129  0.1678  0.1227  0.4804
41232SOL    HW225704   0.846   8.816   0.266  0.9296 -0.1296  0.7147
41233SOL     OW25705   0.238   2.264   5.730 -0.0592  0.5902  0.2184
41233SOL    HW125706   0.222   2.353   5.761  2.1417  0.6880  1.2562
41233SOL    HW225707   0.235   2.210   5.809  1.1055  0.1391 -0.0261
41234SOL     OW25708   3.096   8.232   9.387 -0.4435  0.0347  0.0647
41234SOL    HW125709   3.077   8.272   9.472 -0.3126 -0.3010  0.2507
41234SOL    HW225710   3.148   8.298   9.341  1.6353 -0.7402  1.1783
41235SOL     OW25711   9.548   2.144   6.929  0.0969  0.5545 -0.5404
41235SOL    HW125712   9.525   2.228   6.969 -1.4415  1.6835 -3.5144
41235SOL    HW225713   9.630   2.162   6.882  0.6638 -0.0983  0.1844
41236SOL     OW25714  10.208   9.399  10.671 -0.2495  0.4986 -0.0035
41236SOL    HW125715  10.245   9.395  10.759 -0.4578  1.1428  0.1176
41236SOL    HW225716  10.114   9.384  10.684 -0.2397  0.2958 -0.1540
41237SOL     OW25717   8.783   9.431  10.298  0.2090  0.5565 -0.6646
41237SOL    HW125718   8.705   9.454  10.348 -0.1775  0.7195 -1.3297
41237SOL    HW225719   8.771   9.474  10.213  0.6654 -0.0255 -1.0351
41238SOL     OW25720   7.631   8.218  10.514 -0.0331 -0.1032  0.5362
41238SOL    HW125721   7.584   8.135  10.504 -0.1478 -0.1245  1.2377
41238SOL    HW225722   7.596   8.274  10.445  0.0417 -0.6378  0.0591
41239SOL     OW25723   0.713   1.912   0.528  0.4891  0.8237 -0.5648
41239SOL    HW125724   0.738   1.885   0.616  1.6714  1.2613 -0.7415
41239SOL    HW225725   0.718   2.007   0.530  0.1803  0.8490 -1.0032
41240SOL     OW25726  10.078   2.909   9.294 -0.4982 -0.2429 -0.4705
41240SOL    HW125727  10.143   2.867   9.238  0.3336  3.4655 -2.7013
41240SOL    HW225728   9.996   2.864   9.273  0.8507 -3.5071  0.6867
41241SOL     OW25729   9.886   5.410   8.348  0.6181  0.4083 -0.1820
41241SOL    HW125730   9.873   5.488   8.293 -1.6468 -0.1391 -0.5079
41241SOL    HW225731   9.821   5.418   8.417  1.1866 -0.6105  0.4918
41242SOL     OW25732   8.617  10.960   2.734  0.2744  0.4296  0.4056
41242SOL    HW125733   8.645  10.911   2.656  1.7379 -0.0586  1.1927
41242SOL    HW225734   8.536  10.917   2.762 -0.7294  1.1332 -1.2872
41243SOL     OW25735   7.847   2.673   2.266 -0.0432 -0.0178 -0.7400
41243SOL    HW125736   7.873   2.725   2.342 -1.0670 -0.9864  0.3230
41243SOL    HW225737   7.831   2.737   2.197 -0.4179  1.0172  0.2766
41244SOL     OW25738   0.022   7.529  10.735 -0.3478  0.0426  0.0030
41244SOL    HW125739   0.032   7.434  10.744  0.8268  0.2601  1.3075
41244SOL    HW225740  -0.028   7.555  10.813 -2.3751  0.2989 -1.3063
41245SOL     OW25741   3.942   9.947   2.340  0.4562  0.9564 -0.1176
41245SOL    HW125742   3.934   9.954   2.245  0.5315  1.2504 -0.1030
41245SOL    HW225743   4.017   9.889   2.353  0.2062  0.5970 -0.2363
41246SOL     OW25744  10.807   7.122   3.386  0.2939  0.3034  0.2830
41246SOL    HW125745  10.722   7.157   3.414  0.4856 -0.1025  1.4060
41246SOL    HW225746  10.785   7.050   3.327 -0.1512  0.1122  0.6763
41247SOL     OW25747  10.111   1.644   7.778 -0.3412 -0.5794  0.1792
41247SOL    HW125748  10.199   1.651   7.815 -0.5414 -0.4860  0.6452
41247SOL    HW225749  10.125   1.614   7.688  0.2178  0.2811 -0.0339
41248SOL     OW25750   7.396   8.205  11.190 -0.2289 -0.0569  0.2088
41248SOL    HW125751   7.330   8.173  11.128 -1.3090  2.4610 -0.0635
41248SOL    HW225752   7.386   8.150  11.267 -1.5454 -0.7658 -0.4463
41249SOL     OW25753   2.548   7.489   2.774  0.4714 -0.1460  0.2899
41249SOL    HW125754   2.538   7.412   2.830  0.1371  0.9835  1.8481
41249SOL    HW225755   2.461   7.529   2.772  0.8209  0.6284  0.1673
41250SOL     OW25756   1.541   3.884   7.179 -0.5176 -0.1003 -0.5000
41250SOL    HW125757   1.569   3.951   7.117 -1.1095 -0.7575 -1.5070
41250SOL    HW225758   1.482   3.930   7.239  0.5693  0.6854 -0.0045
41251SOL     OW25759   0.329   6.660   3.450 -0.2282 -0.3023  0.3265
41251SOL    HW125760   0.358   6.571   3.471 -0.6269 -0.4944  0.0655
41251SOL    HW225761   0.359   6.713   3.524 -1.2918 -0.9110  1.2176
41252SOL     OW25762  10.395   7.906   7.069 -0.2295 -0.2461  0.1533
41252SOL    HW125763  10.443   7.950   6.998 -2.6698  1.1286 -0.7509
41252SOL    HW225764  10.418   7.956   7.147  1.0877 -0.6662  0.0648
41253SOL     OW25765   7.782   1.948   1.474  0.4829  0.2852 -0.1354
41253SOL    HW125766   7.743   1.863   1.458  1.2114 -0.0750 -0.0575
41253SOL    HW225767   7.716   1.996   1.524  0.0790 -0.2395 -0.1578
41254SOL     OW25768   6.639   1.236   1.603  0.4619 -0.3651 -0.3935
41254SOL    HW125769   6.548   1.205   1.602  0.3629 -0.4545  2.2910
41254SOL    HW225770   6.688   1.167   1.560 -0.6746 -0.5201 -1.5056
41255SOL     OW25771   0.564   9.030   7.070 -0.4533  0.1991 -0.6557
41255SOL    HW125772   0.527   8.993   6.990 -0.8088  0.9466 -0.8437
41255SOL    HW225773   0.505   9.001   7.139  1.0111 -2.2615 -0.3087
41256SOL     OW25774   0.849   8.688   1.995 -0.0692  0.8095 -0.1454
41256SOL    HW125775   0.844   8.752   1.923 -0.8860  1.2689  0.3081
41256SOL    HW225776   0.889   8.736   2.067  1.1624  0.2196 -0.4072
41257SOL     OW25777   8.220   5.173   0.427 -0.1452  0.5009 -0.8448
41257SOL    HW125778   8.238   5.080   0.432  1.3666  0.8167  0.2452
41257SOL    HW225779   8.195   5.188   0.336 -2.0629 -1.2042 -0.6680
41258SOL     OW25780   7.127   3.399   0.812 -0.0596 -0.7109 -0.3509
41258SOL    HW125781   7.215   3.372   0.837  0.4902  0.3895 -1.0419
41258SOL    HW225782   7.087   3.428   0.895  1.4355  2.0356 -0.4490
41259SOL     OW25783   6.172   5.575   1.234 -0.7652 -0.4896 -0.7177
41259SOL    HW125784   6.263   5.583   1.206 -0.8768 -2.7043 -1.9342
41259SOL    HW225785   6.121   5.593   1.155 -1.4201  0.6763 -0.0607
41260SOL     OW25786   7.865   6.289   1.621  0.4177  0.8800  0.2956
41260SOL    HW125787   7.869   6.378   1.587 -0.2709  0.5210 -0.7875
41260SOL    HW225788   7.813   6.241   1.556  1.5094 -0.5157  0.4102
41261SOL     OW25789   9.332  11.024   4.119 -0.1859  0.3443  0.6541
41261SOL    HW125790   9.256  10.970   4.140 -0.6108  0.7084  0.0937
41261SOL    HW225791   9.327  11.036   4.024  1.1363 -0.4561  0.4613
41262SOL     OW25792  10.202   2.151   8.451  0.2147 -0.7813  0.1104
41262SOL    HW125793  10.228   2.061   8.467 -0.6264 -1.4021 -1.7850
41262SOL    HW225794  10.108   2.152   8.466  0.6848  0.9810  4.9124
41263SOL     OW25795   7.428   7.837   9.862 -0.0143 -0.0930 -0.3342
41263SOL    HW125796   7.456   7.903   9.799 -0.9789 -0.9734 -1.7538
41263SOL    HW225797   7.334   7.853   9.874 -0.0439 -0.5571  0.1052
41264SOL     OW25798   7.354   9.077   1.224  0.5622 -0.0077 -0.0737
41264SOL    HW125799   7.270   9.121   1.240 -0.1157 -1.5311  0.7165
41264SOL    HW225800   7.403   9.089   1.305 -0.6865 -2.9116  1.2527
41265SOL     OW25801   1.587   3.957   5.913 -0.4847 -0.2525 -0.2728
41265SOL    HW125802   1.530   3.901   5.966 -1.1549  2.1784  1.7715
41265SOL    HW225803   1.529   3.994   5.847 -0.0523 -1.8279 -1.5918
41266SOL     OW25804   9.868   4.153   9.144 -0.4154  0.5447  0.1663
41266SOL    HW125805   9.938   4.169   9.081 -0.8650  1.9152 -0.0420
41266SOL    HW225806   9.823   4.075   9.111 -0.4743  1.0803 -1.0937
41267SOL     OW25807  11.235   6.536   4.217 -0.4093  0.2828 -0.2617
41267SOL    HW125808  11.299   6.591   4.172  0.1698 -0.0464  0.1436
41267SOL    HW225809  11.182   6.597   4.268  1.5722  0.3729  1.8804
41268SOL     OW25810  10.593   8.983  10.428 -0.4155  0.5309  0.2113
41268SOL    HW125811  10.619   8.908  10.481 -1.5708  0.6392  0.9723
41268SOL    HW225812  10.594   8.951  10.338 -1.3078 -0.5398  0.5589
41269SOL     OW25813   4.454   4.579   5.753  0.4859  0.1278  0.1383
41269SOL    HW125814   4.518   4.591   5.682  1.1128  1.2433  0.8636
41269SOL    HW225815   4.369   4.578   5.708  0.8929  0.5582 -0.6649
41270SOL     OW25816   1.945   9.601   9.149 -0.0070  0.7159  0.1612
41270SOL    HW125817   1.909   9.642   9.227 -1.1021  3.3404 -1.5816
41270SOL    HW225818   1.882   9.622   9.080 -0.8052 -4.2278 -0.9797
41271SOL     OW25819  11.089   9.804   0.988 -0.2303  0.0247  0.0543
41271SOL    HW125820  10.997   9.794   1.013 -0.9376  2.5794 -1.1700
41271SOL    HW225821  11.108   9.896   1.001  1.9802 -0.3062 -0.3991
41272SOL     OW25822   5.401   7.115  10.430 -0.9947 -0.1237 -0.7118
41272SOL    HW125823   5.399   7.066  10.348 -3.1494 -1.3036 -0.0259
41272SOL    HW225824   5.458   7.063  10.487  1.7506  1.4647 -1.7926
41273SOL     OW25825   2.443   5.019   3.391 -0.0238  0.2057  0.5583
41273SOL    HW125826   2.537   5.034   3.380 -0.3334  2.0205 -0.0752
41273SOL    HW225827   2.422   4.951   3.328  0.2566  2.4831 -2.2253
41274SOL     OW25828  11.196   3.293   4.263 -0.9013  0.0376 -0.0520
41274SOL    HW125829  11.225   3.273   4.352 -1.6853 -0.0102  0.1947
41274SOL    HW225830  11.207   3.212   4.214 -2.9952 -0.7379  0.6639
41275SOL     OW25831   2.349   1.401   2.971  0.3675 -0.1823  0.2356
41275SOL    HW125832   2.332   1.400   3.065  0.3969 -0.7480  0.2340
41275SOL    HW225833   2.385   1.489   2.954  1.4546 -0.4734  0.9412
41276SOL     OW25834   7.254   9.696   5.376  0.2835 -0.5454  0.1770
41276SOL    HW125835   7.187   9.680   5.309 -2.0053 -0.0838  2.2108
41276SOL    HW225836   7.322   9.745   5.331 -1.0376 -0.4857 -1.8599
41277SOL     OW25837   3.415   2.368   0.077 -0.0311  0.1280  0.1542
41277SOL    HW125838   3.393   2.427   0.149 -0.0325 -1.9339  1.9694
41277SOL    HW225839   3.509   2.354   0.085 -0.3954 -2.1620  1.5633
41278SOL     OW25840   9.299  10.307   1.108  0.1977  0.6244  0.2620
41278SOL    HW125841   9.227  10.317   1.046 -0.3625 -0.3117  0.7511
41278SOL    HW225842   9.309  10.395   1.147  0.7611  1.2972 -1.3420
41279SOL     OW25843   4.591   1.851   4.870 -0.4326 -0.3541 -0.1242
41279SOL    HW125844   4.511   1.835   4.921 -0.6461  0.9075 -0.0446
41279SOL    HW225845   4.656   1.876   4.936  0.2682 -2.0953 -0.0988
41280SOL     OW25846   4.101   3.112  10.944  0.0632 -0.2989  0.2888
41280SOL    HW125847   4.093   3.204  10.920  0.3306 -0.4027 -0.2094
41280SOL    HW225848   4.190   3.088  10.918 -0.5613 -1.1587 -1.2218
41281SOL     OW25849   2.892   5.254   0.945  0.5414 -0.0731 -0.1220
41281SOL    HW125850   2.923   5.324   1.002  0.2600 -1.6079  2.0177
41281SOL    HW225851   2.803   5.279   0.921 -0.2655 -0.5302  2.1775
41282SOL     OW25852   0.513  10.046  10.456  0.0655  0.0729  0.2893
41282SOL    HW125853   0.601  10.073  10.483  1.0768 -1.1070 -1.5568
41282SOL    HW225854   0.514  10.055  10.360 -1.7851 -0.1021  0.2149
41283SOL     OW25855  10.658   8.025   3.668  0.4559  0.2896  0.3817
41283SOL    HW125856  10.582   8.068   3.707  1.2285 -0.1014  2.4732
41283SOL    HW225857  10.625   7.941   3.637 -0.5395  1.2974 -1.5090
41284SOL     OW25858   5.988   9.518  10.847 -0.0396 -0.4573 -0.1086
41284SOL    HW125859   6.025   9.572  10.777 -0.7297 -0.4160 -0.4596
41284SOL    HW225860   5.960   9.438  10.802 -1.0630 -0.1741 -0.0107
41285SOL     OW25861   1.406   6.943   1.905 -0.1554  0.1183  0.4526
41285SOL    HW125862   1.496   6.910   1.907  0.1587  0.8630 -0.5948
41285SOL    HW225863   1.365   6.897   1.831  1.0567  3.7937 -2.8168
41286SOL     OW25864   9.442   1.664  10.417 -0.1343  0.6578 -0.2574
41286SOL    HW125865   9.453   1.748  10.461 -1.0213  0.8707 -0.4397
41286SOL    HW225866   9.392   1.611  10.479  0.7953  0.1024  0.0434
41287SOL     OW25867   1.992   0.566   0.037  0.5419  0.1261 -0.0705
41287SOL    HW125868   2.020   0.624  -0.034  2.2132 -1.4789 -0.8035
41287SOL    HW225869   1.998   0.478  -0.000  0.7197 -0.7186  1.8320
41288SOL     OW25870   0.257   6.407   2.606  0.0409 -0.0794 -0.0811
41288SOL    HW125871   0.319   6.471   2.640  1.2370 -1.0825 -0.3056
41288SOL    HW225872   0.272   6.406   2.511  0.6499 -1.2728  0.0008
41289SOL     OW25873   7.170   8.668  11.067  0.2610  0.1927  0.4116
41289SOL    HW125874   7.193   8.620  11.147  1.7006  0.6584  0.3054
41289SOL    HW225875   7.182   8.760  11.091 -1.2649  0.4552  0.2415
41290SOL     OW25876   7.392   0.589   6.540  0.2837  0.1351  0.2531
41290SOL    HW125877   7.423   0.670   6.499  0.1885 -0.6886 -1.5521
41290SOL    HW225878   7.308   0.613   6.578  1.4652  1.5332  2.1734
41291SOL     OW25879   8.075   2.630  10.954 -0.0647 -0.1235  0.1444
41291SOL    HW125880   8.136   2.595  10.890 -1.2241  1.3305 -1.8495
41291SOL    HW225881   8.094   2.724  10.958 -0.7418 -0.0066  1.1100
41292SOL     OW25882   0.373   9.590   7.998  0.8510 -0.0638 -0.3083
41292SOL    HW125883   0.467   9.578   7.985  0.6446 -1.9504 -0.3591
41292SOL    HW225884   0.362   9.684   8.011  2.8034  0.1394  0.1610
41293SOL     OW25885   3.115   6.448   3.662 -0.1469 -0.6167 -0.0900
41293SOL    HW125886   3.201   6.433   3.623 -0.2182 -0.0782 -0.4728
41293SOL    HW225887   3.103   6.376   3.724  2.0423  0.9955  2.4627
41294SOL     OW25888  10.130   2.923   2.143  0.2282  0.1687  0.2226
41294SOL    HW125889  10.085   2.867   2.080  0.1631  1.5764 -1.0244
41294SOL    HW225890  10.182   2.862   2.196  0.3050 -1.0547 -1.1999
41295SOL     OW25891   1.272   8.870   6.646 -0.4612 -0.4187  0.1181
41295SOL    HW125892   1.212   8.888   6.574 -1.7372 -1.5913  0.8373
41295SOL    HW225893   1.261   8.943   6.706  0.4039  0.4242 -0.7142
41296SOL     OW25894   9.020   2.570   9.219 -0.0730  0.2229 -0.1578
41296SOL    HW125895   9.007   2.593   9.127  0.1798  2.3568  0.2932
41296SOL    HW225896   9.000   2.650   9.267  1.3736 -0.3619  1.5342
41297SOL     OW25897   3.372   1.066   1.440 -0.5634  0.1717  0.2057
41297SOL    HW125898   3.291   1.016   1.442 -0.0112 -0.7474  2.2251
41297SOL    HW225899   3.352   1.146   1.490 -0.3716  0.1701  0.2866
41298SOL     OW25900   2.829   4.949   4.462 -0.7118  0.6902  0.1648
41298SOL    HW125901   2.811   4.887   4.533  0.1868  1.2118  0.8640
41298SOL    HW225902   2.876   5.021   4.504 -0.2882  1.0744 -0.9330
41299SOL     OW25903   4.195   2.672   7.055 -0.8174  0.2489  0.1370
41299SOL    HW125904   4.201   2.696   7.148 -0.5630  0.6450  0.0195
41299SOL    HW225905   4.263   2.606   7.044 -1.5359 -0.5706  0.4659
41300SOL     OW25906   1.274   2.629   6.566 -0.0357 -0.7697  0.1710
41300SOL    HW125907   1.209   2.588   6.509  1.5841 -0.8658 -1.6860
41300SOL    HW225908   1.246   2.606   6.654 -3.2816  0.3293 -0.4494
41301SOL     OW25909  10.927   7.494   5.447  0.7986  0.1649 -0.6085
41301SOL    HW125910  10.965   7.582   5.447  0.1526  0.4935  1.3031
41301SOL    HW225911  10.959   7.454   5.366  0.1321  2.5504 -2.1257
41302SOL     OW25912  11.094   2.257   6.457 -0.0104 -0.0325  0.1528
41302SOL    HW125913  11.182   2.228   6.484  0.6926  0.0829 -1.8273
41302SOL    HW225914  11.104   2.351   6.443 -0.4616 -0.0147 -0.0443
41303SOL     OW25915   4.478   0.860   0.448 -0.0952  0.3951 -0.1953
41303SOL    HW125916   4.421   0.846   0.523 -0.3056  0.0985 -0.4094
41303SOL    HW225917   4.482   0.775   0.404  0.7137  0.3456 -0.0464
41304SOL     OW25918   1.257  10.325   8.760  0.1686  0.4561 -0.5995
41304SOL    HW125919   1.281  10.386   8.691  1.4307 -0.9491 -1.4580
41304SOL    HW225920   1.189  10.270   8.721  1.9133 -1.3062 -1.3421
41305SOL     OW25921   8.983   6.130   2.956  0.2224 -0.2125 -0.1355
41305SOL    HW125922   9.008   6.199   3.017 -0.8383  1.7085 -1.7531
41305SOL    HW225923   8.975   6.174   2.872 -1.4097 -2.1270 -1.0644
41306SOL     OW25924   5.111   6.515   9.476  0.8078  0.1338  0.1489
41306SOL    HW125925   5.114   6.430   9.431  0.8865  0.5793 -0.7067
41306SOL    HW225926   5.107   6.579   9.405 -0.2149  0.8106  0.8030
41307SOL     OW25927   6.696   6.396   9.430 -0.0006 -0.1535  0.0464
41307SOL    HW125928   6.717   6.309   9.463  2.9198  0.2854 -0.3694
41307SOL    HW225929   6.710   6.390   9.335  0.0268  0.6779 -0.0132
41308SOL     OW25930   9.074   7.170   0.033  0.9479 -0.3657  0.3769
41308SOL    HW125931   9.116   7.116   0.101  1.4125 -0.3258  0.1271
41308SOL    HW225932   9.144   7.189  -0.029  0.8738  0.7813  0.6146
41309SOL     OW25933  10.917   7.769  10.459  0.5742  0.1341  0.0531
41309SOL    HW125934  10.982   7.722  10.407 -0.4565  0.0653 -1.2389
41309SOL    HW225935  10.833   7.736  10.427 -0.1094  0.6683  1.2456
41310SOL     OW25936   9.918   1.504   8.719  0.1377 -0.4298 -0.1782
41310SOL    HW125937   9.989   1.504   8.655 -1.5490 -0.8002 -2.1778
41310SOL    HW225938   9.876   1.589   8.709 -1.6406 -1.3678 -1.4515
41311SOL     OW25939   1.730   4.608   8.796 -0.0192 -0.3189 -0.1359
41311SOL    HW125940   1.721   4.536   8.734  2.8485 -0.2135 -0.8145
41311SOL    HW225941   1.789   4.574   8.864 -0.6347  0.5866  0.8961
41312SOL     OW25942   0.198   8.411   4.752 -0.3675  0.6828  0.3070
41312SOL    HW125943   0.203   8.505   4.765 -0.1569  0.6497  0.4647
41312SOL    HW225944   0.286   8.379   4.771  0.5529  0.8457 -2.9609
41313SOL     OW25945   1.243   1.495   6.329 -0.3378  0.4568  0.7228
41313SOL    HW125946   1.149   1.497   6.308 -0.5829  0.4385  1.7762
41313SOL    HW225947   1.285   1.474   6.245 -1.4331 -1.7469  0.6491
41314SOL     OW25948   0.944   4.397   5.342  0.4819 -0.2181  0.4119
41314SOL    HW125949   0.864   4.413   5.292  0.6275 -0.7326  0.0048
41314SOL    HW225950   0.963   4.481   5.384 -0.1057 -0.0130  0.2721
41315SOL     OW25951   2.113   0.300   8.487  0.3119 -0.5062 -0.1481
41315SOL    HW125952   2.077   0.238   8.423  0.2997 -0.4620 -0.1839
41315SOL    HW225953   2.208   0.293   8.475  0.3027  1.3514 -1.9442
41316SOL     OW25954   9.967   6.151   6.744 -0.0987  0.1813 -0.0844
41316SOL    HW125955   9.950   6.242   6.719  0.1895  0.6489  1.3165
41316SOL    HW225956   9.952   6.149   6.839  0.1483 -1.1763 -0.0500
41317SOL     OW25957   3.507   0.243   1.993  0.3741  0.7447  0.1733
41317SOL    HW125958   3.575   0.214   1.932 -1.4528 -0.9342 -1.2264
41317SOL    HW225959   3.462   0.162   2.018 -0.3048  1.6573  2.0929
41318SOL     OW25960   9.830   9.559   2.395 -0.2592 -0.2802 -0.0258
41318SOL    HW125961   9.804   9.637   2.444  2.0314 -0.4534  1.6114
41318SOL    HW225962   9.765   9.493   2.418 -0.9915  0.5265  0.2726
41319SOL     OW25963   7.236   1.282   5.866 -0.2501  0.2462  0.0086
41319SOL    HW125964   7.190   1.234   5.797  3.4627  1.4672 -3.7564
41319SOL    HW225965   7.275   1.214   5.921 -0.2879 -0.9501 -1.3938
41320SOL     OW25966   6.028   5.579   3.035 -1.0354  0.7315  0.4304
41320SOL    HW125967   6.019   5.593   3.130  1.6516 -1.4253  1.1427
41320SOL    HW225968   6.069   5.493   3.027  0.2302  1.4751 -2.6307
41321SOL     OW25969  11.204   1.599   8.559  0.6741  0.0333  0.6636
41321SOL    HW125970  11.143   1.550   8.613 -0.8941 -0.0596 -1.0889
41321SOL    HW225971  11.166   1.687   8.553  0.5012 -0.1094 -0.6950
41322SOL     OW25972   8.433   6.221   2.452 -0.1372  0.7011 -0.1112
41322SOL    HW125973   8.385   6.169   2.517  0.0700 -0.5588 -0.9468
41322SOL    HW225974   8.370   6.236   2.382  0.3048  0.1621 -0.6222
41323SOL     OW25975   7.116   3.358   5.036 -0.4338 -0.3062 -0.0459
41323SOL    HW125976   7.053   3.341   5.106 -0.3821 -0.8026 -0.1117
41323SOL    HW225977   7.133   3.452   5.040  0.0725 -0.4344  1.0393
41324SOL     OW25978   5.238   3.792   8.314 -0.7595  0.3366 -0.3022
41324SOL    HW125979   5.176   3.837   8.372 -0.6212 -2.3449  2.1387
41324SOL    HW225980   5.194   3.711   8.290  0.7546 -0.4071 -0.7028
41325SOL     OW25981   6.797   4.523   1.135  0.1607  0.4693 -0.0592
41325SOL    HW125982   6.783   4.437   1.095  4.2415  0.4124 -1.8353
41325SOL    HW225983   6.754   4.584   1.075 -2.1580 -0.1748  0.8402
41326SOL     OW25984  10.154  10.577   8.964 -0.4611  0.1617  0.5061
41326SOL    HW125985  10.186  10.525   9.038 -3.7942 -0.1924  1.8875
41326SOL    HW225986  10.161  10.518   8.888  1.1807 -0.1620  0.8733
41327SOL     OW25987  10.096   0.442   1.525  0.5862 -0.9708  0.5590
41327SOL    HW125988  10.029   0.438   1.593 -0.4314  0.1226 -0.3148
41327SOL    HW225989  10.127   0.352   1.516  0.0490 -1.2951  1.7797
41328SOL     OW25990   7.134   0.453   6.274  0.0235  0.2974 -0.9206
41328SOL    HW125991   7.174   0.382   6.325 -0.5627  0.7965  0.2895
41328SOL    HW225992   7.110   0.518   6.340  0.8475  1.7802 -2.0407
41329SOL     OW25993  11.142   9.007   5.372  0.3353 -0.2991 -0.2470
41329SOL    HW125994  11.216   9.029   5.315  0.8649 -0.1790  0.4705
41329SOL    HW225995  11.106   8.927   5.334  1.6513 -1.1022  0.1394
41330SOL     OW25996   0.677   3.011   7.200 -0.1938  0.0805  0.8448
41330SOL    HW125997   0.604   3.070   7.180  0.3961  0.5540 -0.0056
41330SOL    HW225998   0.741   3.028   7.130  0.0321 -1.5154  0.6334
41331SOL     OW25999   0.423   2.249   4.252  0.9080 -0.4144  0.2277
41331SOL    HW126000   0.512   2.278   4.274  2.4863 -3.0132 -2.1335
41331SOL    HW226001   0.390   2.211   4.333  2.6544 -0.9730  0.7150
41332SOL     OW26002  10.082  10.555   7.334  0.7717  0.1183 -0.1721
41332SOL    HW126003  10.155  10.494   7.327  1.4633  1.1212 -2.8367
41332SOL    HW226004  10.009  10.511   7.291  0.0413 -0.4393  1.5410
41333SOL     OW26005   8.215   1.289   7.446 -0.0982  0.4113 -0.3865
41333SOL    HW126006   8.172   1.365   7.407 -1.5171  1.0505  2.1675
41333SOL    HW226007   8.168   1.214   7.409 -2.2264  1.0351  0.9023
41334SOL     OW26008   6.515  10.165   7.567 -0.1372 -0.2591  0.4995
41334SOL    HW126009   6.550  10.144   7.480 -1.3158 -1.2090  0.2251
41334SOL    HW226010   6.558  10.104   7.626  0.7942  0.5023  0.6246
41335SOL     OW26011   5.593   8.630   2.757 -0.8148 -0.3194  0.1365
41335SOL    HW126012   5.615   8.716   2.722 -1.6410 -0.7438 -1.4864
41335SOL    HW226013   5.669   8.606   2.811 -0.2798  1.1032  0.0599
41336SOL     OW26014   1.034   7.527   6.202 -0.2270  0.2884 -0.8342
41336SOL    HW126015   1.060   7.498   6.290 -0.3516 -0.7841 -1.1299
41336SOL    HW226016   0.938   7.524   6.204 -0.2210 -0.5234 -1.2401
41337SOL     OW26017   3.775   8.384   4.006  0.5567 -0.3862  0.7218
41337SOL    HW126018   3.748   8.327   3.934  0.2719  0.5213  0.0935
41337SOL    HW226019   3.861   8.417   3.981 -0.2090  1.1776  0.0043
41338SOL     OW26020   2.274   3.232   2.311  0.0458 -0.4738 -0.4790
41338SOL    HW126021   2.334   3.192   2.248  1.0777  0.4294 -0.1008
41338SOL    HW226022   2.285   3.326   2.299 -2.8050 -0.1849 -1.8015
41339SOL     OW26023   8.018   3.088   0.542  0.6120  0.1779 -0.0364
41339SOL    HW126024   8.086   3.070   0.477  1.5667  2.0726  0.3739
41339SOL    HW226025   8.052   3.052   0.624  1.6822  2.0233  0.3941
41340SOL     OW26026   6.244   0.929   4.346  0.4148 -0.2489  0.0073
41340SOL    HW126027   6.289   1.009   4.373  1.4753 -0.5245 -0.8628
41340SOL    HW226028   6.286   0.904   4.264 -0.1520 -1.5049  0.0693
41341SOL     OW26029   7.069   3.455   6.982 -0.3733 -0.1073  0.2423
41341SOL    HW126030   7.043   3.371   6.944  2.4130 -0.0897 -2.0952
41341SOL    HW226031   7.130   3.432   7.052  1.2881 -0.1238 -1.1435
41342SOL     OW26032   6.343   6.107   3.778 -0.7412 -0.5519  0.4114
41342SOL    HW126033   6.320   6.124   3.869  2.5242  0.6214  1.1782
41342SOL    HW226034   6.372   6.016   3.777  0.9593 -0.0562  1.0471
41343SOL     OW26035   7.984   7.340   4.993  0.2274  0.5561 -0.2412
41343SOL    HW126036   7.920   7.378   4.932  0.8641  1.0860 -0.5925
41343SOL    HW226037   8.004   7.411   5.053  0.5828  0.4305 -0.2097
41344SOL     OW26038   2.976   6.491   9.838  0.2503  0.4329  0.0668
41344SOL    HW126039   3.057   6.440   9.847  0.7651  0.8384 -1.9313
41344SOL    HW226040   2.994   6.572   9.887  1.3908  0.8715 -1.0278
41345SOL     OW26041   1.408   4.100  11.216 -0.5573 -0.1632  0.1186
41345SOL    HW126042   1.383   4.056  11.298 -1.1947 -1.2813 -0.6326
41345SOL    HW226043   1.369   4.045  11.147  2.9864 -1.3739 -1.1520
41346SOL     OW26044   1.492   4.488   9.779 -0.9108 -0.4202  0.1702
41346SOL    HW126045   1.516   4.408   9.732  1.6378  2.2388 -3.6095
41346SOL    HW226046   1.575   4.530   9.800 -2.0841  0.3237  4.2424
41347SOL     OW26047   9.032   1.565   7.421  0.2691 -0.0276  0.2931
41347SOL    HW126048   8.992   1.580   7.335 -2.3547  0.0023  1.4309
41347SOL    HW226049   9.119   1.604   7.414 -0.3926  1.2156 -1.8945
41348SOL     OW26050   0.451   3.784   9.855  0.0760  0.2962 -0.3092
41348SOL    HW126051   0.393   3.842   9.903  0.8860  2.4227 -1.7345
41348SOL    HW226052   0.420   3.790   9.764  2.5095  1.5742 -1.1238
41349SOL     OW26053  10.647   0.682   9.688  0.6640 -0.3147 -0.2705
41349SOL    HW126054  10.721   0.624   9.672  1.0100 -0.0324  0.2819
41349SOL    HW226055  10.641   0.689   9.783 -0.4535 -0.8103 -0.2846
41350SOL     OW26056  10.554   1.216   5.048  0.5818  0.0437  0.0017
41350SOL    HW126057  10.618   1.248   4.984  0.4048 -1.1392 -0.8108
41350SOL    HW226058  10.572   1.122   5.055  0.5900  0.1428  1.7113
41351SOL     OW26059   0.285   6.602   5.539 -0.1428  0.4721  0.1189
41351SOL    HW126060   0.266   6.574   5.449 -2.1083 -0.4514  0.7514
41351SOL    HW226061   0.301   6.520   5.586 -0.4424  0.8380  0.8715
41352SOL     OW26062   4.579   5.415   0.918  0.3814 -0.5253 -0.1339
41352SOL    HW126063   4.661   5.411   0.966 -0.8455  0.4430  2.2188
41352SOL    HW226064   4.530   5.487   0.959 -0.9190  0.1784 -2.6745
41353SOL     OW26065   9.976   0.750  11.106 -0.0644 -0.5020  0.5516
41353SOL    HW126066   9.926   0.787  11.179 -0.1893 -0.0534  0.2436
41353SOL    HW226067  10.063   0.788  11.115  0.7531 -2.5751  2.0740
41354SOL     OW26068   1.707   6.737   1.705  0.3945 -0.2863  0.2186
41354SOL    HW126069   1.767   6.776   1.641 -0.1797 -1.5844 -1.1834
41354SOL    HW226070   1.642   6.806   1.721  0.8015  0.2238 -0.2585
41355SOL     OW26071   0.480   4.328   7.046 -0.2252  0.2426  0.0994
41355SOL    HW126072   0.415   4.298   6.982  1.1796 -2.2123 -0.3410
41355SOL    HW226073   0.520   4.405   7.005 -0.0818 -0.6552 -1.5542
41356SOL     OW26074   1.560   0.761   3.602  0.3841 -0.1265 -0.3263
41356SOL    HW126075   1.610   0.732   3.526 -0.0116 -0.1390 -0.5850
41356SOL    HW226076   1.574   0.855   3.606  0.2368 -0.0963 -0.5375
41357SOL     OW26077   9.036   6.892   4.967 -0.0620  0.0292 -0.2474
41357SOL    HW126078   9.120   6.846   4.964 -1.2881 -2.3775 -0.3512
41357SOL    HW226079   9.059   6.983   4.983  2.5165 -0.7178  0.8732
41358SOL     OW26080   5.240   5.800   2.359  0.0005 -0.6994 -0.2978
41358SOL    HW126081   5.271   5.781   2.449  0.8091 -0.3841 -0.4975
41358SOL    HW226082   5.160   5.749   2.351 -1.0769  0.6507  1.2156
41359SOL     OW26083   1.473   1.166   2.754 -0.0683  0.3557 -0.4136
41359SOL    HW126084   1.559   1.162   2.713  0.5490 -2.0246  0.9309
41359SOL    HW226085   1.434   1.080   2.736 -2.5221  1.6272 -1.6398
41360SOL     OW26086   5.617   9.126   1.789  0.5249  0.2498  0.7956
41360SOL    HW126087   5.598   9.220   1.787  0.7982  0.3060  0.6637
41360SOL    HW226088   5.712   9.121   1.772  0.4679 -0.0607  0.5511
41361SOL     OW26089   1.161   3.900   6.016  0.8539  0.0974 -0.5926
41361SOL    HW126090   1.252   3.928   6.020  0.6097  0.8539  0.2769
41361SOL    HW226091   1.163   3.816   5.971  2.2557 -1.0380  1.4392
41362SOL     OW26092   9.626  11.252   9.206  0.3367  0.2726 -0.8658
41362SOL    HW126093   9.678  11.328   9.180 -0.3401  0.8175 -0.6549
41362SOL    HW226094   9.681  11.176   9.185  0.5738  0.7662 -2.0955
41363SOL     OW26095   7.233   8.336   9.697 -0.0537 -0.5253  0.8601
41363SOL    HW126096   7.229   8.290   9.613 -1.2719  3.0016 -1.2607
41363SOL    HW226097   7.318   8.312   9.734  0.2166 -2.7573 -1.0111
41364SOL     OW26098   3.142   8.039   2.162  0.1765 -0.3037 -0.1123
41364SOL    HW126099   3.143   8.118   2.217 -0.8862  2.2220 -3.3590
41364SOL    HW226100   3.218   8.050   2.104 -0.6523 -1.0352 -1.3836
41365SOL     OW26101   9.916   4.227   7.802 -0.1181 -0.2250 -0.0897
41365SOL    HW126102   9.928   4.134   7.782 -1.6779 -0.2198 -1.2027
41365SOL    HW226103   9.901   4.268   7.717 -0.0321  0.9494  0.4489
41366SOL     OW26104   7.372   9.085   2.263  0.2684 -0.4793  0.2547
41366SOL    HW126105   7.430   9.029   2.315 -1.5117  0.1332  3.1261
41366SOL    HW226106   7.394   9.065   2.172  3.6212 -1.6092  1.1620
41367SOL     OW26107  11.056  10.625   4.748 -0.0281  0.8891 -0.2589
41367SOL    HW126108  10.965  10.643   4.727 -0.6621 -1.2375  0.4471
41367SOL    HW226109  11.057  10.535   4.779  2.2905  0.9228 -0.0156
41368SOL     OW26110   7.802   8.556   3.880 -0.1722 -0.0811 -0.1976
41368SOL    HW126111   7.837   8.482   3.831  0.1464 -0.1277  0.0967
41368SOL    HW226112   7.721   8.523   3.919 -0.0067 -0.2861 -0.0294
41369SOL     OW26113   5.458  10.190   5.034 -0.5658  0.5339 -0.4019
41369SOL    HW126114   5.415  10.227   4.957  0.6631 -0.6292 -1.6948
41369SOL    HW226115   5.551  10.194   5.014 -0.2992 -1.3022  0.3127
41370SOL     OW26116   8.886   1.058   2.712 -0.0008 -0.5404  0.2074
41370SOL    HW126117   8.950   1.082   2.646 -1.3896 -1.7552 -1.6753
41370SOL    HW226118   8.927   0.988   2.762 -0.9140 -3.8473 -3.2032
41371SOL     OW26119   5.840   0.810   8.659 -0.3453  0.0486 -0.2626
41371SOL    HW126120   5.762   0.755   8.652 -0.7137  0.6692 -1.2889
41371SOL    HW226121   5.825   0.881   8.597  0.3079  1.0929  0.7387
41372SOL     OW26122   1.898   0.135   3.300  0.4518 -0.2250  0.4620
41372SOL    HW126123   1.868   0.161   3.212 -0.2339 -0.6622  0.5587
41372SOL    HW226124   1.886   0.214   3.353 -0.5713 -0.3895  0.4994
41373SOL     OW26125  11.115   8.944   7.530  0.0676  0.3546 -0.0877
41373SOL    HW126126  11.031   8.966   7.491 -0.9355  2.6209  2.9441
41373SOL    HW226127  11.109   8.851   7.550 -1.4182  0.3226 -0.5691
41374SOL     OW26128   3.225   2.129   1.582 -0.7397 -0.0756  0.1590
41374SOL    HW126129   3.189   2.215   1.603  0.0579  0.3612 -0.2366
41374SOL    HW226130   3.148   2.071   1.580 -1.0654  0.2072  2.3794
41375SOL     OW26131   0.406   6.640   7.780  0.3763 -0.1937  0.8659
41375SOL    HW126132   0.363   6.633   7.694 -0.2946 -0.6700  1.2276
41375SOL    HW226133   0.413   6.549   7.810  1.4119 -0.0929  0.9316
41376SOL     OW26134   2.200   4.366   2.389 -0.4804  0.2071 -0.5177
41376SOL    HW126135   2.216   4.311   2.312  3.8702  4.8583 -3.5784
41376SOL    HW226136   2.115   4.406   2.374 -1.1168 -1.3169 -1.1452
41377SOL     OW26137   9.607   5.006   8.832  0.2952 -0.1402  1.2585
41377SOL    HW126138   9.578   5.012   8.741 -0.6086  0.2151  1.5571
41377SOL    HW226139   9.655   4.924   8.837 -1.7712 -1.4321  1.0076
41378SOL     OW26140  10.406   7.249   5.807 -0.1697 -0.1138 -0.5619
41378SOL    HW126141  10.397   7.297   5.724  0.0988  0.2244 -0.3996
41378SOL    HW226142  10.357   7.168   5.793 -0.2901  0.0265 -0.9843
41379SOL     OW26143   4.095   4.466   8.911  0.6907 -1.1064  0.2828
41379SOL    HW126144   4.020   4.409   8.896 -0.1708  0.0615 -0.0055
41379SOL    HW226145   4.171   4.409   8.905 -0.2035 -2.4290  1.1579
41380SOL     OW26146   8.684   8.510   8.198  0.4274 -0.2555 -1.1401
41380SOL    HW126147   8.739   8.587   8.185  0.3729 -0.2436 -1.3058
41380SOL    HW226148   8.611   8.522   8.136 -0.3077  0.2448 -0.2072
41381SOL     OW26149   7.581   3.593   7.769 -0.2977  0.0238  0.5515
41381SOL    HW126150   7.532   3.637   7.839 -0.5769 -1.4492  1.3112
41381SOL    HW226151   7.620   3.665   7.719  1.6283  1.1580  3.4027
41382SOL     OW26152   9.351   8.309  10.620 -0.2265 -0.1132  0.1176
41382SOL    HW126153   9.314   8.388  10.659 -0.7488 -0.0572 -0.4671
41382SOL    HW226154   9.445   8.326  10.616 -0.4204  0.8391 -0.7838
41383SOL     OW26155   6.982   9.922   3.173  0.1231 -0.5309  0.0261
41383SOL    HW126156   7.003   9.829   3.179  0.2869 -0.5307 -0.4792
41383SOL    HW226157   6.916   9.928   3.103  1.7840 -0.0275 -1.5858
41384SOL     OW26158   8.929   2.220   9.440  0.2658  0.3758  0.1957
41384SOL    HW126159   8.916   2.214   9.345  0.7076 -0.7566  0.1888
41384SOL    HW226160   9.023   2.235   9.450  0.0330  1.7501  0.4296
41385SOL     OW26161   8.558   7.152   3.423 -0.7890 -0.6745 -0.2835
41385SOL    HW126162   8.475   7.107   3.436 -0.5905 -1.7389 -2.3661
41385SOL    HW226163   8.582   7.134   3.333  1.2339  0.4409 -0.0373
41386SOL     OW26164   9.407  10.035   7.291 -0.6145 -0.2985  0.3544
41386SOL    HW126165   9.347  10.042   7.216 -0.4297 -1.8398  0.0389
41386SOL    HW226166   9.462  10.113   7.284 -0.6862 -0.3454 -1.0572
41387SOL     OW26167   7.490   8.095   6.263  0.0062 -0.1844  0.2483
41387SOL    HW126168   7.535   8.180   6.257 -0.8517  0.2306 -0.6354
41387SOL    HW226169   7.529   8.053   6.339 -0.7797  1.7516  1.8048
41388SOL     OW26170   1.689   6.270   4.516 -0.0728 -0.4269  0.1272
41388SOL    HW126171   1.695   6.298   4.607  0.7642  0.2543 -0.1182
41388SOL    HW226172   1.613   6.316   4.481  1.1779  1.4839 -0.2201
41389SOL     OW26173   7.017   5.954   3.717  0.7420  0.2170 -0.0534
41389SOL    HW126174   7.070   5.881   3.751 -1.0529 -0.3271  1.7935
41389SOL    HW226175   6.944   5.912   3.672 -1.7833  0.5718  3.2574
41390SOL     OW26176   2.863   4.522   9.543 -0.0979 -0.1479 -0.1817
41390SOL    HW126177   2.869   4.496   9.451 -2.6282  0.8956 -0.7625
41390SOL    HW226178   2.789   4.584   9.544  0.7438  0.9268  2.3361
41391SOL     OW26179   3.976   8.402   1.454  0.0883 -0.0655  0.0530
41391SOL    HW126180   3.977   8.494   1.427 -1.3683 -0.4839 -1.5897
41391SOL    HW226181   4.068   8.382   1.473  0.7765  1.1260 -1.7549
41392SOL     OW26182   0.897   3.283   0.186 -0.1612  0.5960  0.5678
41392SOL    HW126183   0.938   3.364   0.157  0.9903  0.4591  1.7298
41392SOL    HW226184   0.811   3.310   0.218  0.3490  1.4118  1.2702
41393SOL     OW26185  10.811   1.825   4.832 -0.8340  0.0055  0.3952
41393SOL    HW126186  10.774   1.796   4.748 -0.5761  0.5103  0.0996
41393SOL    HW226187  10.737   1.826   4.892 -1.0998  0.0096  0.0706
41394SOL     OW26188   0.869   1.187   2.510  1.1059 -0.3521 -0.0189
41394SOL    HW126189   0.857   1.123   2.439 -0.8244 -1.3729  1.1257
41394SOL    HW226190   0.870   1.133   2.590 -0.4647  1.0108  0.9769
41395SOL     OW26191   1.332   0.175   2.268  0.5898 -0.4212  0.0445
41395SOL    HW126192   1.296   0.102   2.319 -0.9156 -0.3868 -0.9013
41395SOL    HW226193   1.408   0.204   2.319 -0.6542 -0.5652  2.1131
41396SOL     OW26194   0.050  10.024  10.968 -0.2183 -0.4565  0.0408
41396SOL    HW126195  -0.019  10.087  10.947 -0.7590 -0.9041  0.4455
41396SOL    HW226196   0.118  10.077  11.010  0.3733  0.2488 -1.7325
41397SOL     OW26197   4.638   3.191   0.558 -0.5420  1.0150  0.4097
41397SOL    HW126198   4.611   3.276   0.593  0.3390  0.5193  2.3839
41397SOL    HW226199   4.595   3.127   0.615 -0.8332  0.1123 -0.7808
41398SOL     OW26200   9.836   7.716   5.106 -0.0904 -0.6656  0.3393
41398SOL    HW126201   9.881   7.637   5.136 -0.8149 -0.6990  1.3885
41398SOL    HW226202   9.765   7.728   5.168 -1.0184 -0.1208 -0.7867
41399SOL     OW26203   0.569   0.485   2.977 -0.0059 -0.6893 -0.0813
41399SOL    HW126204   0.557   0.475   3.072 -2.3055 -2.6497 -0.4951
41399SOL    HW226205   0.591   0.397   2.946 -2.6741 -0.8553 -1.7309
41400SOL     OW26206   5.259  10.401   7.418 -0.2871  0.3082 -0.3755
41400SOL    HW126207   5.221  10.341   7.482  0.8299  2.4768  2.5444
41400SOL    HW226208   5.314  10.460   7.470  0.5055  2.4212 -3.3425
41401SOL     OW26209   0.867   2.771   1.312 -0.0420 -0.3583  0.9287
41401SOL    HW126210   0.912   2.854   1.296  0.1992 -0.7807 -0.7345
41401SOL    HW226211   0.774   2.792   1.304  0.0600 -0.5371 -1.2053
41402SOL     OW26212   3.809   2.645   4.840  0.2012  0.2053  0.0428
41402SOL    HW126213   3.775   2.732   4.822  1.4285  1.1116  1.8263
41402SOL    HW226214   3.756   2.613   4.913  0.0935 -0.3423 -0.2676
41403SOL     OW26215   8.111   6.859   0.585  0.3220 -0.0506 -0.4206
41403SOL    HW126216   8.197   6.899   0.576  1.3248 -1.4050  2.0421
41403SOL    HW226217   8.094   6.818   0.500  1.3845  1.4918 -1.4181
41404SOL     OW26218   9.008   6.802   7.238 -0.5589  0.4394 -0.2404
41404SOL    HW126219   8.935   6.775   7.183  0.2303 -0.1187 -1.0534
41404SOL    HW226220   9.036   6.721   7.281 -1.5225  0.9747  1.4452
41405SOL     OW26221   8.458   8.842   6.352  1.2677  0.1465  0.5625
41405SOL    HW126222   8.367   8.839   6.323  0.9385  3.0613  1.0104
41405SOL    HW226223   8.503   8.779   6.295 -1.0555 -1.7386  0.6552
41406SOL     OW26224   0.329  11.146   8.893  0.5786 -0.5718  0.2447
41406SOL    HW126225   0.269  11.073   8.906  2.1604 -1.7701  1.1617
41406SOL    HW226226   0.346  11.179   8.982 -0.4348  1.2188 -0.1802
41407SOL     OW26227   5.693   3.387   8.132  0.6214  0.5720 -0.0642
41407SOL    HW126228   5.763   3.446   8.160  1.1358 -0.0542 -0.0301
41407SOL    HW226229   5.620   3.407   8.191  0.9074  0.9338  0.1721
41408SOL     OW26230   5.229   4.641   1.131 -0.2703  0.1123 -0.2530
41408SOL    HW126231   5.204   4.732   1.148  2.4903  0.7795  0.5896
41408SOL    HW226232   5.324   4.638   1.142 -0.0416 -2.5535 -1.8438
41409SOL     OW26233   9.684   2.265   8.412  0.6483 -0.1298  0.5161
41409SOL    HW126234   9.637   2.217   8.480  0.0492 -0.2173  0.0487
41409SOL    HW226235   9.637   2.244   8.331 -0.0593  1.7818  0.3907
41410SOL     OW26236   4.860   5.107   9.319 -0.0669  0.3580  0.0487
41410SOL    HW126237   4.868   5.030   9.262 -0.5129  0.3502 -0.0068
41410SOL    HW226238   4.806   5.168   9.269 -0.0554  0.5436  0.2614
41411SOL     OW26239   6.664   9.055  11.131 -0.0099 -1.0631 -0.2229
41411SOL    HW126240   6.573   9.081  11.121  0.1568 -0.5564 -0.4634
41411SOL    HW226241   6.661   8.979  11.189 -0.6184 -1.3169 -0.5771
41412SOL     OW26242   0.149  10.948  11.224  0.3196  0.2914 -0.5942
41412SOL    HW126243   0.219  11.008  11.198  2.5103 -0.1393  3.4274
41412SOL    HW226244   0.128  10.974  11.314 -3.3534 -0.9272 -0.9504
41413SOL     OW26245   9.104   6.239   9.239 -0.3764  0.3214  0.2934
41413SOL    HW126246   9.195   6.213   9.225  0.9492  3.9817  1.0772
41413SOL    HW226247   9.092   6.235   9.334  0.5910  4.0607  0.7264
41414SOL     OW26248   7.988   5.895  10.090  0.4032  0.2234 -0.0723
41414SOL    HW126249   7.995   5.991  10.082 -0.1113  0.1655 -1.6639
41414SOL    HW226250   8.028   5.862  10.010  2.9173 -1.0660  1.5819
41415SOL     OW26251   3.656   9.729   3.884 -0.0070  0.0424 -0.1027
41415SOL    HW126252   3.686   9.675   3.811 -2.0031 -1.2806 -0.0293
41415SOL    HW226253   3.569   9.759   3.856 -0.2755  0.5382  1.2137
41416SOL     OW26254   0.642   2.755   1.127 -0.5287  0.3645  0.1518
41416SOL    HW126255   0.555   2.716   1.117 -1.1877  1.8202  0.0244
41416SOL    HW226256   0.686   2.736   1.045 -0.7106 -0.3786  0.2152
41417SOL     OW26257   2.931  10.025   3.775  0.4025  0.0022 -0.0321
41417SOL    HW126258   2.933  10.066   3.862  0.7612  0.4888 -0.2626
41417SOL    HW226259   2.953  10.096   3.715  0.2808 -0.3603 -0.5123
41418SOL     OW26260  10.364   9.773   3.699 -0.7230  0.3920 -0.1353
41418SOL    HW126261  10.293   9.741   3.754 -0.4900 -0.3046 -0.2260
41418SOL    HW226262  10.324   9.790   3.614 -0.4955 -1.5030 -0.6518
41419SOL     OW26263   6.336   5.690   2.946 -0.3240  0.5688 -0.3893
41419SOL    HW126264   6.329   5.594   2.945 -0.0972  0.5445 -1.8249
41419SOL    HW226265   6.251   5.721   2.916 -0.3171  0.8185 -0.1574
41420SOL     OW26266   1.885   5.560   4.502 -0.1605  0.5739 -0.2168
41420SOL    HW126267   1.865   5.606   4.420 -1.9421 -0.1973 -0.2494
41420SOL    HW226268   1.801   5.526   4.532  0.7056 -0.4482  1.1693
41421SOL     OW26269   3.656   4.122   6.855  0.0696 -0.3009 -0.1342
41421SOL    HW126270   3.627   4.061   6.787 -1.7177  0.7987 -0.4061
41421SOL    HW226271   3.600   4.199   6.845  1.7138  1.0837  0.7254
41422SOL     OW26272   2.624   9.713   6.059  0.8037  0.6349 -0.5532
41422SOL    HW126273   2.611   9.622   6.032  1.7952  0.7410 -1.4219
41422SOL    HW226274   2.716   9.718   6.085  1.9769  2.2959 -4.3971
41423SOL     OW26275   8.130   4.128   6.133  0.2404  0.2404 -0.3070
41423SOL    HW126276   8.049   4.123   6.082  0.7065 -0.7476 -0.9828
41423SOL    HW226277   8.148   4.037   6.158  2.2158  0.1101 -1.9325
41424SOL     OW26278   5.543   4.218   3.571 -0.4845  0.1501 -0.1975
41424SOL    HW126279   5.629   4.209   3.612 -0.9975  2.4624  1.6178
41424SOL    HW226280   5.487   4.157   3.618 -0.4646  0.8059  0.6947
41425SOL     OW26281   1.609  10.944   6.769  0.1751 -0.5183 -0.3201
41425SOL    HW126282   1.677  11.008   6.786 -0.3326 -0.1003  0.1897
41425SOL    HW226283   1.629  10.909   6.682  1.2601 -0.6978 -0.0090
41426SOL     OW26284   1.403   7.435   4.215  0.0353  0.2308 -0.0414
41426SOL    HW126285   1.385   7.400   4.128  0.2330 -0.7639  0.3091
41426SOL    HW226286   1.498   7.432   4.223  0.1026  1.3495 -0.1957
41427SOL     OW26287   8.612   0.079   1.395 -0.4930  0.7914  0.3687
41427SOL    HW126288   8.664   0.113   1.468 -0.1096  0.3311  0.3147
41427SOL    HW226289   8.677   0.052   1.330 -0.7329 -1.0933  0.8621
41428SOL     OW26290   4.108   2.126   9.597 -0.2283  0.5108 -0.1773
41428SOL    HW126291   4.168   2.078   9.654  0.1894  1.7504  0.4643
41428SOL    HW226292   4.069   2.059   9.541 -0.2101 -0.6688  1.1646
41429SOL     OW26293  11.180   0.305   3.707 -0.5959 -0.2508  0.1027
41429SOL    HW126294  11.135   0.389   3.704  0.4519  0.4207  1.8213
41429SOL    HW226295  11.183   0.283   3.800 -0.3415 -1.9211 -0.2724
41430SOL     OW26296  10.868   4.769   8.431 -0.2849 -0.7672  0.3491
41430SOL    HW126297  10.844   4.683   8.464 -0.1349  0.2619  3.4897
41430SOL    HW226298  10.963   4.772   8.440 -0.4044  0.1382  1.4628
41431SOL     OW26299   9.735   0.424   1.159 -0.0630  0.1500  0.3302
41431SOL    HW126300   9.737   0.472   1.076 -0.1755 -0.8129 -0.2411
41431SOL    HW226301   9.668   0.356   1.146 -0.0866 -0.0069  1.2145
41432SOL     OW26302   4.063   0.013   5.200  0.4105  0.4613 -0.0560
41432SOL    HW126303   3.972   0.039   5.182  0.3656 -1.0808 -2.4903
41432SOL    HW226304   4.061  -0.023   5.288 -1.3226  0.5601 -0.0241
41433SOL     OW26305  11.117   9.065   8.320 -0.3915  0.2237  0.7438
41433SOL    HW126306  11.204   9.026   8.328  0.3390  1.5273 -0.5699
41433SOL    HW226307  11.133   9.159   8.311 -1.8309  0.3502 -0.9928
41434SOL     OW26308   5.615   1.205   3.297  0.2831  0.0996 -0.5565
41434SOL    HW126309   5.665   1.258   3.358 -0.2517  1.5520 -1.3420
41434SOL    HW226310   5.677   1.137   3.269  0.6187 -0.4410  1.3380
41435SOL     OW26311   5.513   7.206   9.346  0.0941  0.6488 -0.0832
41435SOL    HW126312   5.515   7.150   9.269 -0.9260  0.2420  0.1696
41435SOL    HW226313   5.582   7.271   9.331  0.1798  0.3245 -1.1360
41436SOL     OW26314   0.844   2.345   3.678  0.2001 -0.1677 -0.3093
41436SOL    HW126315   0.810   2.429   3.647  0.5851  0.4234  0.7977
41436SOL    HW226316   0.788   2.280   3.636 -2.3244  0.7388  1.3528
41437SOL     OW26317   2.221   3.789   0.056  0.3789 -0.2524 -0.5091
41437SOL    HW126318   2.189   3.862   0.110 -0.3859 -1.0621  0.1586
41437SOL    HW226319   2.148   3.727   0.053 -0.0245  0.2337 -3.4206
41438SOL     OW26320   1.904   5.208   8.767  0.2007  0.5333 -0.1459
41438SOL    HW126321   1.994   5.222   8.796 -0.0460 -0.1531  0.9666
41438SOL    HW226322   1.850   5.234   8.841 -0.4747 -0.4725 -0.2706
41439SOL     OW26323   1.623   5.099   8.562  0.2809 -0.2315 -0.2551
41439SOL    HW126324   1.612   5.099   8.467 -0.1858 -2.3233 -0.2415
41439SOL    HW226325   1.656   5.012   8.583 -0.5930 -0.1715  1.6096
41440SOL     OW26326   3.783   9.752  10.868  0.6633 -0.1874 -0.0137
41440SOL    HW126327   3.799   9.840  10.832  1.4923  0.2014  1.2298
41440SOL    HW226328   3.847   9.743  10.939 -2.2486 -0.0017  2.8732
41441SOL     OW26329   8.584  10.452   8.437  0.4533  0.8462 -0.5053
41441SOL    HW126330   8.556  10.494   8.518  2.2040 -0.1979  0.7138
41441SOL    HW226331   8.678  10.469   8.433  1.0143 -1.8974 -0.5606
41442SOL     OW26332   0.403   0.415   1.138  0.2337  0.7617 -0.3055
41442SOL    HW126333   0.451   0.355   1.080 -0.4989  0.5329 -0.6835
41442SOL    HW226334   0.312   0.408   1.110 -0.0821  0.9216  0.6371
41443SOL     OW26335   8.417   6.799   6.976  0.5656  0.1535 -0.6678
41443SOL    HW126336   8.485   6.808   7.043 -2.6540 -1.3769  3.2357
41443SOL    HW226337   8.404   6.705   6.968 -0.4566  0.3870 -2.0786
41444SOL     OW26338  10.301   1.971   5.926 -0.0371  0.2935  0.4237
41444SOL    HW126339  10.218   1.979   5.880 -0.6658 -0.4160  1.4078
41444SOL    HW226340  10.362   1.938   5.860 -0.8659 -0.4773  0.0325
41445SOL     OW26341   8.194   6.220   6.531 -0.0627  0.0244 -0.0285
41445SOL    HW126342   8.172   6.200   6.440  2.2968  1.2072 -0.9528
41445SOL    HW226343   8.176   6.314   6.540  2.2153  0.5650 -0.2147
41446SOL     OW26344   0.338   2.420   2.031  0.2643 -0.3692 -0.0930
41446SOL    HW126345   0.380   2.401   1.947  1.7241 -2.4225  0.9998
41446SOL    HW226346   0.395   2.484   2.072 -0.1847  0.2690 -0.4550
41447SOL     OW26347  10.771   7.257   3.806 -0.5035  0.0675 -0.4701
41447SOL    HW126348  10.714   7.251   3.883 -3.6800  2.7023 -2.3604
41447SOL    HW226349  10.785   7.351   3.793 -0.8311 -0.2069 -3.5505
41448SOL     OW26350   5.119  10.551   5.405  0.8227  0.0511  0.0629
41448SOL    HW126351   5.118  10.464   5.365  1.9911  1.2746 -2.9023
41448SOL    HW226352   5.199  10.592   5.372 -0.9624  3.1825 -0.8630
41449SOL     OW26353   3.031  10.794   7.349 -0.5697 -0.1066  0.4867
41449SOL    HW126354   2.942  10.773   7.377 -0.6136  1.8335  2.0139
41449SOL    HW226355   3.025  10.883   7.315  0.9066  0.3461  1.3366
41450SOL     OW26356   2.958   4.088   8.803 -0.4227  0.1055 -0.3906
41450SOL    HW126357   2.911   4.170   8.820  0.3253  0.1077  2.0140
41450SOL    HW226358   2.900   4.020   8.837  0.4219 -0.0407  0.8223
41451SOL     OW26359   0.107   5.242   6.677  0.6215  0.0449 -0.2746
41451SOL    HW126360   0.122   5.221   6.769  0.1165 -0.6962 -0.3503
41451SOL    HW226361   0.195   5.259   6.642  0.6448  3.2021  0.9669
41452SOL     OW26362   0.288   4.936   8.602 -0.2333  0.1334 -0.3694
41452SOL    HW126363   0.203   4.947   8.560  0.5302  1.3994 -1.6921
41452SOL    HW226364   0.342   4.891   8.538  0.9127  1.9567 -0.7613
41453SOL     OW26365  10.250   7.151   6.497 -0.2344 -0.2293 -0.0248
41453SOL    HW126366  10.295   7.173   6.579  1.2824 -1.3003 -0.5124
41453SOL    HW226367  10.321   7.131   6.436 -1.3517 -1.9841 -0.8411
41454SOL     OW26368   0.023   5.471   9.544  0.1642 -0.0618 -0.3443
41454SOL    HW126369   0.075   5.551   9.554  0.3524 -0.1770 -0.4036
41454SOL    HW226370  -0.025   5.463   9.627 -0.3754  0.4855 -0.6019
41455SOL     OW26371   5.165   2.292  10.119  0.1287 -0.7170 -0.1129
41455SOL    HW126372   5.240   2.279  10.060  0.7884 -0.2197  0.5930
41455SOL    HW226373   5.126   2.374  10.089  2.0451  0.9838  1.7202
41456SOL     OW26374   4.691   2.920   6.254 -0.1071  0.1225  0.9439
41456SOL    HW126375   4.646   3.003   6.239 -0.2126  0.4212  2.7336
41456SOL    HW226376   4.687   2.875   6.170  0.8266  2.3355 -0.3904
41457SOL     OW26377   6.930   8.021   0.255 -0.2577  0.4836 -0.6105
41457SOL    HW126378   6.982   8.070   0.319  0.3791 -1.2520  0.2775
41457SOL    HW226379   6.970   8.042   0.171  1.3868 -0.1262 -0.0353
41458SOL     OW26380   0.340   0.597   9.053 -0.4654 -0.4466  0.1045
41458SOL    HW126381   0.367   0.689   9.062  0.0921 -0.7369  1.5875
41458SOL    HW226382   0.403   0.561   8.990  0.6761 -0.3110  1.1169
41459SOL     OW26383   2.628   0.554   0.857  0.2159  0.3683 -0.1505
41459SOL    HW126384   2.618   0.494   0.783 -0.2284 -0.5725  0.6563
41459SOL    HW226385   2.618   0.499   0.934 -1.7930  1.7103  0.6287
41460SOL     OW26386   4.466   1.611   0.075  0.2051  0.2673 -1.0142
41460SOL    HW126387   4.531   1.599   0.144 -3.5120 -1.2358  2.6018
41460SOL    HW226388   4.460   1.706   0.063  0.6834  0.5955  1.0744
41461SOL     OW26389   5.404   9.813   7.127  0.3485 -0.1321  0.3392
41461SOL    HW126390   5.408   9.872   7.202 -1.4823 -0.7998  1.0186
41461SOL    HW226391   5.316   9.776   7.130  1.5025 -3.2286  0.2352
41462SOL     OW26392   2.352   0.701   2.685  0.0045 -0.2485 -0.3220
41462SOL    HW126393   2.353   0.678   2.593 -0.5791  0.4477 -0.5172
41462SOL    HW226394   2.366   0.619   2.731 -0.3921 -0.7169 -1.0215
41463SOL     OW26395   8.948   1.224   5.312 -0.1499 -0.3376  0.2123
41463SOL    HW126396   9.009   1.156   5.340  0.1241 -0.5874 -0.9426
41463SOL    HW226397   8.980   1.304   5.354 -0.6071 -0.9386  1.7706
41464SOL     OW26398   7.266   8.551   9.951  0.7479  0.4736  0.2593
41464SOL    HW126399   7.245   8.519  10.038 -0.0762  1.9171  0.6304
41464SOL    HW226400   7.183   8.586   9.918  0.7670 -1.0406 -1.5694
41465SOL     OW26401   0.133   5.754   2.995  0.2055  0.0554 -0.1462
41465SOL    HW126402   0.189   5.819   3.037  0.4253 -0.0057 -0.3459
41465SOL    HW226403   0.044   5.778   3.023  0.5127 -1.5676  2.5559
41466SOL     OW26404  10.643   7.679   1.646 -0.2720 -0.7247 -0.4335
41466SOL    HW126405  10.550   7.680   1.669 -0.0056 -0.2084  0.7039
41466SOL    HW226406  10.684   7.740   1.708  0.7783 -0.6993 -1.1244
41467SOL     OW26407   2.985  10.249  10.935  0.2590  0.0270 -0.5702
41467SOL    HW126408   2.967  10.343  10.926  0.3415  0.1428  0.3372
41467SOL    HW226409   2.999  10.218  10.846  0.0279  0.8398 -0.8966
41468SOL     OW26410   4.773   0.401   0.812  1.1662  0.1905  0.3383
41468SOL    HW126411   4.708   0.449   0.760  0.1922 -1.1529  0.2631
41468SOL    HW226412   4.773   0.445   0.897  0.0823  0.1588  0.3642
41469SOL     OW26413   8.940   2.497   8.180 -1.0262 -0.4370  0.3898
41469SOL    HW126414   8.919   2.478   8.272 -0.9431 -3.5165 -0.1197
41469SOL    HW226415   9.035   2.496   8.176 -1.0376 -1.6565  0.0729
41470SOL     OW26416   3.670   9.567   4.937  0.1226 -1.1866 -0.0717
41470SOL    HW126417   3.655   9.512   5.014 -1.6436  0.8490  1.1540
41470SOL    HW226418   3.682   9.655   4.973  0.9858 -0.4345 -2.0516
41471SOL     OW26419   7.097   2.903   1.747 -0.3552 -0.5247  0.1742
41471SOL    HW126420   7.157   2.866   1.812 -1.0994 -3.4645 -0.7021
41471SOL    HW226421   7.067   2.828   1.696 -1.8966  1.3443 -1.8449
41472SOL     OW26422  10.399   0.175   3.395  0.2972  0.0413 -0.3314
41472SOL    HW126423  10.366   0.138   3.313  0.0613 -1.2379  0.3224
41472SOL    HW226424  10.379   0.269   3.388  0.2065 -0.0524 -1.6928
41473SOL     OW26425  10.317   7.955   9.179 -0.0186 -0.4625  0.1580
41473SOL    HW126426  10.287   7.885   9.121  0.6545 -0.8452  0.2614
41473SOL    HW226427  10.247   8.020   9.176 -1.0868 -1.5419  0.7687
41474SOL     OW26428   5.321   7.472   8.362 -0.7072 -0.0754 -0.6489
41474SOL    HW126429   5.329   7.391   8.412  1.1931 -0.5103 -1.5554
41474SOL    HW226430   5.376   7.535   8.408 -0.6754  0.1421 -0.9767
41475SOL     OW26431  10.885   1.250  11.137  0.0620 -0.3022 -0.4024
41475SOL    HW126432  10.915   1.266  11.226 -1.3020 -0.2499  0.0622
41475SOL    HW226433  10.874   1.155  11.132  3.1769 -0.7261 -1.5514
41476SOL     OW26434   4.627   3.979   5.259  0.7294  0.1745  0.2224
41476SOL    HW126435   4.653   3.888   5.247  1.3504  0.0050  2.4171
41476SOL    HW226436   4.708   4.023   5.287  0.0751  1.0407  0.7905
41477SOL     OW26437   1.457   8.445   5.286  0.1241 -0.0683  0.4700
41477SOL    HW126438   1.367   8.427   5.260  0.1710  0.0911  0.1922
41477SOL    HW226439   1.511   8.388   5.231  0.2396  0.4940 -0.0155
41478SOL     OW26440   2.026   6.880   5.910 -0.4252 -0.1892  0.1107
41478SOL    HW126441   2.089   6.950   5.926 -0.3063  0.1723 -1.7459
41478SOL    HW226442   2.078   6.811   5.868 -0.9110 -0.6067  0.1944
41479SOL     OW26443  10.141   7.988   9.597 -0.0888 -1.0119 -0.6809
41479SOL    HW126444  10.204   7.919   9.577  0.3785 -0.8103  0.0416
41479SOL    HW226445  10.194   8.058   9.635 -0.6383 -0.4990 -0.8386
41480SOL     OW26446   1.283   1.058   5.560  0.5125  0.0086  0.6985
41480SOL    HW126447   1.211   0.995   5.554 -0.0453  0.3773  2.8437
41480SOL    HW226448   1.327   1.051   5.475 -1.4989 -0.8649 -0.3694
41481SOL     OW26449   8.799  10.828   8.072 -0.3253  0.4423 -0.3606
41481SOL    HW126450   8.778  10.919   8.092 -3.3430 -0.7508  2.9594
41481SOL    HW226451   8.771  10.817   7.981 -0.2658  2.7243 -0.7091
41482SOL     OW26452   3.152   3.400   0.051  0.3645 -0.0452  0.5911
41482SOL    HW126453   3.155   3.337  -0.021 -1.2929  0.4129  0.0946
41482SOL    HW226454   3.174   3.347   0.128  2.6444 -0.4449 -0.2374
41483SOL     OW26455   9.812   7.200   7.238 -0.5571 -0.6749  0.6412
41483SOL    HW126456   9.793   7.148   7.160 -0.7461 -0.1050  0.3021
41483SOL    HW226457   9.908   7.198   7.244 -0.5109 -0.3324  0.1190
41484SOL     OW26458   5.140   7.113   6.120  0.1394 -0.4372  0.3768
41484SOL    HW126459   5.175   7.083   6.036  0.9033 -0.2062  0.6060
41484SOL    HW226460   5.210   7.167   6.158 -0.3736 -0.1601  0.9539
41485SOL     OW26461  10.289   5.648   6.528 -0.2117  0.1158 -0.1145
41485SOL    HW126462  10.224   5.590   6.488 -0.9169 -0.4780  1.7821
41485SOL    HW226463  10.360   5.589   6.555 -1.8806 -0.3815  3.7970
41486SOL     OW26464  11.139   6.789   7.664  0.7404  0.9969  0.2572
41486SOL    HW126465  11.174   6.847   7.597  0.8365 -1.4635 -2.0323
41486SOL    HW226466  11.216   6.753   7.707  0.7758  0.8381  0.0630
41487SOL     OW26467   6.062   5.000   9.178 -0.3948 -0.5619  0.5757
41487SOL    HW126468   6.009   4.939   9.231  0.5019 -1.4314  0.5020
41487SOL    HW226469   6.083   4.950   9.099 -2.2810  0.9497 -0.9840
41488SOL     OW26470   3.536   4.292   5.553  0.0672 -0.3118 -0.6425
41488SOL    HW126471   3.505   4.251   5.473 -1.5852 -2.2821  0.8964
41488SOL    HW226472   3.471   4.268   5.619  1.8625  0.3987  1.5105
41489SOL     OW26473   9.931   4.118   4.124  0.0420 -0.1746 -0.7240
41489SOL    HW126474   9.957   4.121   4.216  0.8100  1.2492 -0.9487
41489SOL    HW226475   9.839   4.095   4.125 -0.0684  0.2670  0.4320
41490SOL     OW26476   2.755   8.847   2.190 -0.4850  0.4365 -0.2925
41490SOL    HW126477   2.680   8.878   2.138  0.1462 -0.2844 -1.6934
41490SOL    HW226478   2.805   8.927   2.210 -1.6540  0.9395  0.7544
41491SOL     OW26479   6.610   1.153   7.492 -0.0917 -0.5967  0.1337
41491SOL    HW126480   6.556   1.195   7.425  0.3323 -1.8191 -1.0403
41491SOL    HW226481   6.583   1.061   7.490  1.8468 -1.2147 -0.3649
41492SOL     OW26482   6.507   8.320   1.116  0.2577 -0.2095  0.0225
41492SOL    HW126483   6.485   8.269   1.194  1.4363  1.4700  1.5170
41492SOL    HW226484   6.575   8.380   1.144  0.8772  0.3318 -2.3782
41493SOL     OW26485   0.025   9.684   9.427  0.0421  0.0478  0.2613
41493SOL    HW126486   0.089   9.630   9.381  0.0278  0.5237 -0.3271
41493SOL    HW226487   0.073   9.764   9.450  0.1997 -0.3993  1.5572
41494SOL     OW26488   6.339   3.218   5.629  0.1241  0.0691  0.3370
41494SOL    HW126489   6.346   3.211   5.724  0.0113 -0.4641  0.3079
41494SOL    HW226490   6.380   3.302   5.608 -0.8927  0.7462  0.9756
41495SOL     OW26491   6.601   7.877   3.525 -0.2076  0.6137  0.0833
41495SOL    HW126492   6.626   7.813   3.459  3.9153  1.2849  0.7575
41495SOL    HW226493   6.557   7.825   3.593  0.9533 -1.1180 -0.4303
41496SOL     OW26494   7.967   0.576   1.693 -0.3470 -0.3356 -0.1994
41496SOL    HW126495   7.998   0.565   1.783  1.8720 -0.3790 -0.9285
41496SOL    HW226496   7.901   0.646   1.699 -0.3433 -0.4274  1.4521
41497SOL     OW26497  10.679   7.597   5.524  0.1747 -0.4132  0.2067
41497SOL    HW126498  10.650   7.562   5.608  0.4427  1.5528  1.1491
41497SOL    HW226499  10.761   7.551   5.507 -0.7515 -2.1324  0.0958
41498SOL     OW26500   6.447   5.272   7.635 -0.2175  0.0376 -0.3612
41498SOL    HW126501   6.409   5.360   7.642  0.0681  0.0813  1.1928
41498SOL    HW226502   6.486   5.270   7.548 -1.0044  1.1284 -0.7664
41499SOL     OW26503   7.348  11.038   1.893  0.1517 -0.1685 -0.6429
41499SOL    HW126504   7.350  11.081   1.807 -0.5523 -1.8966 -1.5717
41499SOL    HW226505   7.404  10.961   1.883  1.1730  0.3214  0.9035
41500SOL     OW26506   4.090  10.658   7.351 -0.4315 -0.2862 -0.2399
41500SOL    HW126507   4.048  10.628   7.270  1.3493  0.0776 -1.3755
41500SOL    HW226508   4.036  10.730   7.381 -0.1942  0.7642 -2.1492
41501SOL     OW26509   9.819   2.165   0.484  0.0767 -0.3145  0.0842
41501SOL    HW126510   9.765   2.087   0.484 -0.5886  0.1367 -0.4441
41501SOL    HW226511   9.909   2.132   0.485 -0.0694 -1.2096 -3.4682
41502SOL     OW26512   6.728   3.412   6.547  0.3451  0.0164  0.9052
41502SOL    HW126513   6.641   3.413   6.509  0.2705  1.7435  1.0475
41502SOL    HW226514   6.784   3.377   6.478 -0.2100  0.4875  0.1961
41503SOL     OW26515   8.671   8.957   9.675 -0.3172  0.0779  0.2410
41503SOL    HW126516   8.588   8.951   9.723  0.1973 -2.9713  0.9287
41503SOL    HW226517   8.649   9.005   9.595 -2.4542  0.3972  0.9593
41504SOL     OW26518   0.033   2.156   2.180  0.1925  0.3380  0.3062
41504SOL    HW126519   0.017   2.081   2.122 -0.0750  0.8850 -0.3342
41504SOL    HW226520  -0.050   2.171   2.224  0.8356 -1.1734  2.1820
41505SOL     OW26521   9.318   1.749   6.659  0.1125  0.2457  0.9427
41505SOL    HW126522   9.286   1.689   6.591  2.6681  0.4982 -0.5808
41505SOL    HW226523   9.266   1.828   6.648  0.2593  0.1610 -0.5354
41506SOL     OW26524   9.304   6.126   4.763 -0.6979 -0.1080 -0.3209
41506SOL    HW126525   9.230   6.080   4.803  0.1613  0.5569  2.2424
41506SOL    HW226526   9.288   6.219   4.781 -0.4455  0.2928 -1.9593
41507SOL     OW26527   5.471   6.263   3.392  0.2000 -0.3424  0.0441
41507SOL    HW126528   5.443   6.334   3.450 -1.5663 -0.2367 -0.8612
41507SOL    HW226529   5.514   6.307   3.319  0.1348 -0.2891  0.0375
41508SOL     OW26530   8.547   9.707   8.956  0.2247  0.8249 -0.1959
41508SOL    HW126531   8.580   9.691   9.044  1.6638  4.4537  0.1219
41508SOL    HW226532   8.451   9.708   8.966  0.0587 -3.4691  0.2058
41509SOL     OW26533   1.285   0.524   2.214 -0.1746 -0.1581 -0.5016
41509SOL    HW126534   1.377   0.519   2.187  0.4485  0.4831  1.3464
41509SOL    HW226535   1.256   0.432   2.217  0.3789 -0.3611 -1.1182
41510SOL     OW26536   0.846   0.306   5.803  0.2618  0.0979  0.5607
41510SOL    HW126537   0.835   0.218   5.767  1.1393 -0.2461  1.0936
41510SOL    HW226538   0.805   0.303   5.889  0.1720  0.2517  0.5240
41511SOL     OW26539   0.460   7.228   4.080 -0.3362  0.3525 -0.8664
41511SOL    HW126540   0.401   7.204   4.152 -1.6619  0.7612 -1.7608
41511SOL    HW226541   0.438   7.320   4.063  1.7975  1.0524 -0.1217
41512SOL     OW26542   8.471   4.478  10.714  0.2801  0.8659  0.5094
41512SOL    HW126543   8.381   4.501  10.689  0.0826  1.0916  1.3765
41512SOL    HW226544   8.484   4.522  10.798  1.4433  1.3930  0.0701
41513SOL     OW26545   7.718   1.971   8.787  0.0246  0.4906 -0.1570
41513SOL    HW126546   7.724   2.044   8.726  0.8013 -0.4587 -1.2631
41513SOL    HW226547   7.791   1.914   8.763  0.2257 -0.0070  1.5479
41514SOL     OW26548   2.299   9.758   7.467 -0.0871  0.3227 -0.2418
41514SOL    HW126549   2.297   9.805   7.383 -1.9064 -0.2405 -0.5593
41514SOL    HW226550   2.255   9.675   7.449  0.6480 -0.3625  0.9773
41515SOL     OW26551   1.009   4.774   2.131 -0.2990  0.6809  0.5098
41515SOL    HW126552   0.984   4.854   2.084  0.2947  0.8719  0.5122
41515SOL    HW226553   0.962   4.779   2.214 -2.5402 -0.3767 -0.6229
41516SOL     OW26554  10.829   9.652   6.078  0.0361 -0.5687  0.6463
41516SOL    HW126555  10.856   9.637   5.987  0.9298  3.1624  0.1369
41516SOL    HW226556  10.748   9.602   6.088  0.5900 -2.1064 -1.7614
41517SOL     OW26557   2.740   4.445   8.813 -0.3936 -0.1657  0.4164
41517SOL    HW126558   2.755   4.409   8.725 -1.4069 -2.9179  1.2847
41517SOL    HW226559   2.652   4.483   8.808 -1.0847 -1.6959  0.6229
41518SOL     OW26560   2.823   4.203  10.425  0.1011  0.1880  0.1141
41518SOL    HW126561   2.745   4.184  10.374 -0.6446 -0.9464  1.6168
41518SOL    HW226562   2.827   4.135  10.491  1.6964  0.9234  0.8496
41519SOL     OW26563   2.282   9.662   8.659 -0.0795 -0.2481  0.7883
41519SOL    HW126564   2.223   9.672   8.734 -1.4001 -0.9561 -0.1129
41519SOL    HW226565   2.254   9.582   8.616  0.2352  0.4462 -0.8074
41520SOL     OW26566   9.287  10.003   3.391 -0.4024 -0.0175  0.0594
41520SOL    HW126567   9.357   9.945   3.420  0.2023  1.2244  1.2293
41520SOL    HW226568   9.278  10.067   3.462 -1.7395  0.6958 -0.7134
41521SOL     OW26569   1.233   0.291   9.261 -0.1544 -0.0920  0.8862
41521SOL    HW126570   1.248   0.307   9.167 -1.1888  0.0079  0.7178
41521SOL    HW226571   1.301   0.229   9.286  0.9499  0.8645  0.3799
41522SOL     OW26572   0.149   5.048   0.712  0.3032  0.3468 -0.3758
41522SOL    HW126573   0.221   5.063   0.651  0.4728  0.3692 -0.1720
41522SOL    HW226574   0.070   5.059   0.659  0.4391 -2.1286 -1.1923
41523SOL     OW26575   2.292  10.668   4.572  0.2511 -0.7743  0.1798
41523SOL    HW126576   2.357  10.720   4.524 -0.2325 -0.0549  0.2818
41523SOL    HW226577   2.260  10.728   4.640  1.5534 -2.0467  1.9811
41524SOL     OW26578   7.048   5.703  10.155  0.6002 -0.2247 -0.2237
41524SOL    HW126579   7.105   5.711  10.231  2.1038 -0.8985 -1.2104
41524SOL    HW226580   7.092   5.639  10.099  0.1439  1.0518 -2.1509
41525SOL     OW26581   7.043   9.086   8.966  0.4191  0.2555  0.0513
41525SOL    HW126582   7.030   8.991   8.968  1.8023  0.0472  1.5004
41525SOL    HW226583   6.978   9.118   8.904  0.7885 -1.7773 -1.5275
41526SOL     OW26584  11.263   3.724   8.260 -0.0619 -0.0830  0.3377
41526SOL    HW126585  11.335   3.763   8.309  0.0192  0.4674 -0.2125
41526SOL    HW226586  11.202   3.694   8.328  0.7019 -0.6121  0.8066
41527SOL     OW26587  10.547   6.162   7.858 -0.0932  0.0809  0.8125
41527SOL    HW126588  10.633   6.200   7.877  0.0302 -0.3898  1.1961
41527SOL    HW226589  10.565   6.075   7.825 -0.4837 -1.6018  4.5010
41528SOL     OW26590   6.337   0.095   8.763 -0.3423 -0.0390 -0.1012
41528SOL    HW126591   6.400   0.023   8.758  0.0157  0.3400 -1.4714
41528SOL    HW226592   6.284   0.087   8.684  0.2121  1.6257 -0.6864
41529SOL     OW26593   7.262   0.946   7.148 -0.0172  0.3279  0.1619
41529SOL    HW126594   7.304   0.860   7.148 -2.2900 -0.8802  2.0367
41529SOL    HW226595   7.269   0.976   7.057  1.0077 -1.7475 -0.4927
41530SOL     OW26596   5.059   8.854   3.557  0.4347  0.3877 -0.3473
41530SOL    HW126597   5.048   8.840   3.463 -0.3806  0.7543 -0.3133
41530SOL    HW226598   4.991   8.800   3.598 -0.2196  1.4135 -0.0458
41531SOL     OW26599   8.008   7.459   7.764  0.2701 -0.6171  0.4303
41531SOL    HW126600   7.934   7.476   7.822 -1.1904 -2.7684 -0.6989
41531SOL    HW226601   8.009   7.533   7.703  1.2499  1.1907  2.4938
41532SOL     OW26602   0.934   2.358   8.808  0.2010  0.2708 -0.0729
41532SOL    HW126603   0.959   2.333   8.898 -1.2352  0.9364  0.5427
41532SOL    HW226604   0.985   2.299   8.752 -0.3676 -1.5509  1.2369
41533SOL     OW26605   7.729   8.536   8.945 -0.1899  0.1005 -0.2752
41533SOL    HW126606   7.709   8.454   8.992  0.1213 -0.0585 -0.4146
41533SOL    HW226607   7.678   8.531   8.865  2.0280 -1.3578 -1.7278
41534SOL     OW26608   2.796   9.534   1.941 -0.4863  0.4447 -0.6847
41534SOL    HW126609   2.738   9.601   1.979  0.4987  1.6969 -1.3047
41534SOL    HW226610   2.785   9.544   1.847 -0.2402 -0.2009 -0.7809
41535SOL     OW26611   6.773   5.989   2.770 -0.3656  0.0129 -0.0554
41535SOL    HW126612   6.772   5.896   2.746  2.6289  0.7543 -4.1575
41535SOL    HW226613   6.862   6.005   2.801 -0.2209  1.7548 -1.1843
41536SOL     OW26614   1.331   4.541   3.146  0.6188  0.8599  0.6330
41536SOL    HW126615   1.373   4.537   3.232  0.8836  3.4853  0.7070
41536SOL    HW226616   1.349   4.455   3.107  2.8779  0.5650  2.1235
41537SOL     OW26617   2.095   3.365   2.873 -0.1480  0.3237  0.1657
41537SOL    HW126618   2.065   3.400   2.957 -1.6356 -0.1030 -0.1580
41537SOL    HW226619   2.022   3.311   2.842  0.8100 -0.4111 -0.8882
41538SOL     OW26620   6.347   7.414   2.933 -0.2051 -0.0263 -0.0958
41538SOL    HW126621   6.259   7.400   2.899 -1.3775  0.4337  2.5026
41538SOL    HW226622   6.377   7.327   2.960 -0.1612 -0.0840 -0.3337
41539SOL     OW26623  10.774   4.529   9.299 -0.6681 -0.2554 -0.3591
41539SOL    HW126624  10.855   4.538   9.249 -0.9970 -0.4392 -0.9356
41539SOL    HW226625  10.721   4.467   9.248 -1.0135 -0.4460  0.2141
41540SOL     OW26626   9.528   1.511   0.987 -0.3026 -0.3951  0.0338
41540SOL    HW126627   9.526   1.418   0.964 -0.8478 -0.2070 -0.7297
41540SOL    HW226628   9.474   1.518   1.065 -1.1575 -0.5740 -0.5261
41541SOL     OW26629   1.173   5.116   4.972  0.1051 -0.1791  0.1680
41541SOL    HW126630   1.114   5.071   5.033 -0.0553  1.4755  1.2757
41541SOL    HW226631   1.147   5.207   4.975  2.6381  0.6159  0.6348
41542SOL     OW26632   3.872   2.337   8.173 -0.1953 -0.2253 -0.6573
41542SOL    HW126633   3.801   2.287   8.133 -0.8091  1.0031 -1.1351
41542SOL    HW226634   3.849   2.428   8.158  0.9657  0.2132  0.1008
41543SOL     OW26635   6.430   6.283   5.668 -0.1497  0.1749 -0.3297
41543SOL    HW126636   6.431   6.374   5.642 -1.1970  0.4239  0.4420
41543SOL    HW226637   6.451   6.285   5.762  0.8760 -0.4748 -0.5205
41544SOL     OW26638   6.181   7.767   9.513 -0.2479  0.3938 -0.5012
41544SOL    HW126639   6.243   7.700   9.484 -0.2295 -0.3998  1.2701
41544SOL    HW226640   6.209   7.790   9.601 -2.1217  0.4157  0.1431
41545SOL     OW26641   6.124   1.277   2.002  0.2983  0.2580  0.5155
41545SOL    HW126642   6.125   1.220   2.079  0.2789  0.4227  0.6381
41545SOL    HW226643   6.195   1.245   1.947  0.2784  0.1065  0.5772
41546SOL     OW26644   1.590   3.945   3.732 -0.2792 -0.3281 -0.1084
41546SOL    HW126645   1.517   3.889   3.757  0.9531 -1.8956  0.1527
41546SOL    HW226646   1.638   3.960   3.813 -0.0141  0.2497 -0.3646
41547SOL     OW26647   5.103   8.977   9.224  0.3435  0.3814 -0.2587
41547SOL    HW126648   5.015   8.990   9.259 -0.5895 -0.6404 -2.0464
41547SOL    HW226649   5.126   8.888   9.248  1.5947  1.1087  1.4993
41548SOL     OW26650  10.891   5.391   7.488  0.1533 -0.4037  0.2183
41548SOL    HW126651  10.978   5.404   7.451 -0.2793 -0.5874 -0.9108
41548SOL    HW226652  10.832   5.394   7.412 -1.0130  1.3275  1.1278
41549SOL     OW26653   0.299  10.578   2.272 -0.3835  0.0232 -0.6086
41549SOL    HW126654   0.292  10.483   2.270 -0.4856 -0.0359  0.9632
41549SOL    HW226655   0.249  10.608   2.196 -0.6000 -1.1619 -0.9509
41550SOL     OW26656   9.480   1.407   3.037  0.1133 -0.1422  0.0581
41550SOL    HW126657   9.519   1.326   3.070 -0.8542  0.1245  1.9880
41550SOL    HW226658   9.407   1.378   2.982  0.0053 -0.5711  0.4247
41551SOL     OW26659   9.104  10.741   0.116  0.0692 -0.1823 -0.0845
41551SOL    HW126660   9.148  10.752   0.032  0.3028 -3.4903 -0.5303
41551SOL    HW226661   9.172  10.707   0.175 -0.2902  1.2806  1.2569
41552SOL     OW26662   5.972   5.547   9.383 -0.1853 -0.5407  0.1232
41552SOL    HW126663   6.034   5.482   9.350  0.8524  0.1304  0.7135
41552SOL    HW226664   5.967   5.612   9.313  1.0287  0.2243  0.7219
41553SOL     OW26665   8.705   2.321   8.156  0.2158 -0.9577 -0.1580
41553SOL    HW126666   8.742   2.409   8.153  0.4303 -1.0521 -3.0822
41553SOL    HW226667   8.778   2.264   8.178  0.8655 -0.7169 -1.6386
41554SOL     OW26668   7.956   1.213   6.146 -0.2375 -0.2636  0.4431
41554SOL    HW126669   7.884   1.161   6.183  0.1805 -1.9629 -0.9875
41554SOL    HW226670   7.998   1.155   6.083  2.3672  0.7022  1.1456
41555SOL     OW26671   0.169   5.537   3.584 -0.2475 -0.4435 -0.2491
41555SOL    HW126672   0.225   5.470   3.545 -0.7452 -0.2648 -1.3112
41555SOL    HW226673   0.229   5.594   3.632  0.7739  0.7317 -2.7365
41556SOL     OW26674   4.052   2.708  10.442  1.1689 -0.2687  0.1365
41556SOL    HW126675   4.026   2.726  10.352 -1.1411 -0.6675  0.6785
41556SOL    HW226676   4.143   2.738  10.446  0.7862  1.3951 -1.8417
41557SOL     OW26677   5.012  11.206   3.924 -0.7309  0.3144  0.8336
41557SOL    HW126678   5.026  11.116   3.894  0.2694  0.3060  1.2987
41557SOL    HW226679   4.919  11.210   3.945 -1.5391  0.2844 -2.1640
41558SOL     OW26680   9.370   2.005   8.062  0.5555  0.5397 -1.2430
41558SOL    HW126681   9.380   1.925   8.010 -2.5056 -1.0915  0.3517
41558SOL    HW226682   9.364   1.974   8.153 -0.1187  2.6429 -0.4960
41559SOL     OW26683   8.940   2.100   0.498  0.4202 -0.2784 -0.2492
41559SOL    HW126684   8.876   2.059   0.557 -1.9951  1.1197 -1.7171
41559SOL    HW226685   8.892   2.113   0.416  2.2671  1.8831 -1.0887
41560SOL     OW26686   0.831   9.960   5.715  0.2100  0.3289  0.3607
41560SOL    HW126687   0.832   9.865   5.712  0.5662  0.3433 -1.5547
41560SOL    HW226688   0.923   9.985   5.716  0.1238  0.6752  1.6278
41561SOL     OW26689  11.204   8.500  10.073  0.5820 -0.6475 -0.2136
41561SOL    HW126690  11.113   8.529  10.080  0.0816 -1.9327 -1.0207
41561SOL    HW226691  11.199   8.405  10.082  1.8716 -0.7165 -0.1274
41562SOL     OW26692   7.613   3.962   2.162 -0.3124 -0.1217  0.6581
41562SOL    HW126693   7.529   3.984   2.121  0.0925  1.4497  0.5968
41562SOL    HW226694   7.589   3.908   2.238 -1.4362  0.7119  0.9332
41563SOL     OW26695   7.301   2.468   7.407  0.1379  0.0903  0.0921
41563SOL    HW126696   7.291   2.423   7.491  0.4063  1.7360  1.0587
41563SOL    HW226697   7.367   2.417   7.361 -1.4612 -2.0359 -0.0225
41564SOL     OW26698   2.606   7.471  10.499  0.0428 -0.1474 -0.2310
41564SOL    HW126699   2.693   7.484  10.536  0.9866  0.2310 -2.4138
41564SOL    HW226700   2.600   7.377  10.485  0.5165 -0.0780 -0.9581
41565SOL     OW26701   4.571   6.881   3.174 -0.1256 -0.1915  0.1564
41565SOL    HW126702   4.610   6.877   3.262 -2.3118 -0.4192  1.1717
41565SOL    HW226703   4.546   6.973   3.164  0.2315 -0.1429 -0.2798
41566SOL     OW26704   9.653   6.682   5.319  0.6630 -0.2376 -0.6348
41566SOL    HW126705   9.577   6.624   5.311  1.5660 -1.5834  0.0609
41566SOL    HW226706   9.669   6.713   5.230  0.3647 -1.3620 -1.0998
41567SOL     OW26707   5.860   6.329   9.162  0.1628  0.3619 -0.0655
41567SOL    HW126708   5.793   6.373   9.110  1.2021 -0.6706 -2.4388
41567SOL    HW226709   5.821   6.244   9.182  1.0766 -0.7619 -2.5535
41568SOL     OW26710   0.446   7.834   4.111 -0.3808  1.0532  0.4071
41568SOL    HW126711   0.381   7.776   4.152 -0.3437  1.1341  0.5769
41568SOL    HW226712   0.530   7.803   4.144 -0.0192 -1.0030 -2.0440
41569SOL     OW26713   7.856   6.839   5.862 -0.5841  0.9055 -0.3924
41569SOL    HW126714   7.926   6.794   5.909 -1.2003  0.3435  0.0116
41569SOL    HW226715   7.823   6.773   5.800  0.8075  1.8975 -2.3133
41570SOL     OW26716   4.680   2.350   5.144  0.6439 -0.3091  0.1277
41570SOL    HW126717   4.661   2.371   5.236  0.1897 -1.0338  0.2033
41570SOL    HW226718   4.700   2.435   5.104  0.9897 -0.0023  0.9260
41571SOL     OW26719   6.416   9.427   8.873 -0.1222  0.2200 -0.5319
41571SOL    HW126720   6.399   9.462   8.785  0.1494  1.9511  0.0719
41571SOL    HW226721   6.363   9.482   8.931  2.2132  1.2978  0.7004
41572SOL     OW26722  10.303   5.589   7.445  0.3137 -0.1942  0.7938
41572SOL    HW126723  10.350   5.651   7.390  0.5572 -1.7544 -0.8634
41572SOL    HW226724  10.328   5.503   7.410 -1.8391 -1.1518  1.4438
41573SOL     OW26725  10.302   4.837   0.082 -0.1818  0.2724  0.3296
41573SOL    HW126726  10.297   4.770   0.149  1.1342 -1.0777 -0.8501
41573SOL    HW226727  10.258   4.798   0.006  1.2692  0.3745 -0.6107
41574SOL     OW26728  11.284  10.581   0.911  0.1085  0.3404 -0.1855
41574SOL    HW126729  11.327  10.542   0.835  0.3834 -1.1669  0.7031
41574SOL    HW226730  11.342  10.561   0.984 -1.5566 -0.8356  0.8897
41575SOL     OW26731  10.684   9.377   9.272  0.1583  0.6058  0.3457
41575SOL    HW126732  10.718   9.324   9.343  0.5638 -0.0909 -0.3452
41575SOL    HW226733  10.625   9.318   9.224  2.1416  0.0583 -1.6235
41576SOL     OW26734   5.899   1.842   4.380 -0.3118  0.1237 -0.3492
41576SOL    HW126735   5.877   1.901   4.452  1.9514  2.5585 -1.4668
41576SOL    HW226736   5.993   1.825   4.391 -0.0400  0.0884 -2.3189
41577SOL     OW26737   0.890   5.373   7.715 -0.0687  0.0854 -0.4425
41577SOL    HW126738   0.965   5.392   7.772  0.9390 -0.5571 -1.5073
41577SOL    HW226739   0.927   5.323   7.643 -1.1123  1.6833 -2.1740
41578SOL     OW26740   1.669  10.304   4.111  0.0544 -0.3170 -0.4425
41578SOL    HW126741   1.755  10.346   4.108  0.3705 -0.9906 -1.2232
41578SOL    HW226742   1.669  10.244   4.036 -0.9120 -0.6799 -0.1663
41579SOL     OW26743   3.141   7.100   3.151 -1.1459 -0.0911  0.1265
41579SOL    HW126744   3.223   7.140   3.121 -1.9644  0.9472 -0.8144
41579SOL    HW226745   3.090   7.086   3.071 -1.2632 -2.2681  0.5038
41580SOL     OW26746   2.978   8.667  10.090  0.1869  0.3156  0.0460
41580SOL    HW126747   2.976   8.610  10.013  0.4334  1.8755 -1.1910
41580SOL    HW226748   3.068   8.662  10.121  0.5844  1.0432 -0.9127
41581SOL     OW26749   9.602   0.752   2.626 -0.3692  0.4386  0.3555
41581SOL    HW126750   9.631   0.693   2.695 -1.8199  1.5924  2.0513
41581SOL    HW226751   9.659   0.733   2.552  0.1956 -1.9974  1.3171
41582SOL     OW26752   8.543   3.810   4.727  0.4244  0.3884  0.4330
41582SOL    HW126753   8.487   3.758   4.670 -0.4516 -0.3798  1.9481
41582SOL    HW226754   8.629   3.806   4.685 -0.4285  0.9036 -1.4900
41583SOL     OW26755   2.868   0.737   4.780  0.2067 -0.1868 -0.5111
41583SOL    HW126756   2.780   0.702   4.783 -0.8530  2.2721 -0.4358
41583SOL    HW226757   2.858   0.824   4.741  2.0120  1.6714  2.7283
41584SOL     OW26758   0.248   1.416   2.061  0.0924  0.3465  0.4236
41584SOL    HW126759   0.304   1.344   2.032 -0.1974 -0.2992  1.4132
41584SOL    HW226760   0.169   1.408   2.008 -0.0907 -0.3106  0.7792
41585SOL     OW26761   4.855   0.295  10.222 -0.4724 -0.7917 -1.0277
41585SOL    HW126762   4.870   0.200  10.228  0.1276 -0.8627 -2.9255
41585SOL    HW226763   4.911   0.323  10.150 -2.0996  0.6827 -1.7914
41586SOL     OW26764   5.915   5.887   1.893 -0.2847  0.6075  0.1137
41586SOL    HW126765   5.972   5.888   1.816  0.3249 -0.5745  0.5301
41586SOL    HW226766   5.858   5.963   1.881  0.3725  0.9444 -1.0665
41587SOL     OW26767   5.429   9.670   3.772  0.2549  0.0560 -0.1864
41587SOL    HW126768   5.432   9.738   3.840  2.6037 -1.7239  1.6748
41587SOL    HW226769   5.396   9.592   3.817  0.9014 -0.9134 -1.3466
41588SOL     OW26770   0.976   9.621   2.184 -0.7079 -0.3556  0.5972
41588SOL    HW126771   1.070   9.633   2.172 -0.8989  0.0451 -0.5963
41588SOL    HW226772   0.953   9.682   2.255 -0.2852  0.5186  0.0012
41589SOL     OW26773   3.501   5.404   6.429 -0.4112  0.2490  0.9535
41589SOL    HW126774   3.571   5.442   6.375 -0.5349  1.8305  1.8737
41589SOL    HW226775   3.545   5.377   6.510 -0.9824  2.0831  1.9108
41590SOL     OW26776   0.904   4.124   5.895  0.2228 -0.1893  0.0306
41590SOL    HW126777   0.976   4.145   5.954  1.9244 -0.7288 -1.7483
41590SOL    HW226778   0.871   4.209   5.866  0.4019  0.0552  0.5292
41591SOL     OW26779  11.072   9.159   6.498  0.2902  0.3207 -0.7726
41591SOL    HW126780  10.990   9.157   6.547  0.5841 -1.9684 -0.2422
41591SOL    HW226781  11.139   9.132   6.561  1.2140  0.6894 -1.5679
41592SOL     OW26782   2.013   0.398   2.088  0.0412  0.4940  0.0453
41592SOL    HW126783   1.998   0.353   2.004 -2.3430  2.0732 -0.4759
41592SOL    HW226784   2.034   0.488   2.064 -1.2749  1.1204  1.1088
41593SOL     OW26785   0.706   0.016   4.784 -0.6529  0.0081 -0.6339
41593SOL    HW126786   0.799   0.011   4.803 -0.9370  1.0703  1.3865
41593SOL    HW226787   0.700   0.069   4.705  0.4350  1.3807  0.1469
41594SOL     OW26788   1.780  10.474   6.831 -0.7801 -0.3461  0.8816
41594SOL    HW126789   1.740  10.389   6.810  0.2473 -1.0071  1.4789
41594SOL    HW226790   1.733  10.537   6.776 -1.6349 -1.2851  0.5001
41595SOL     OW26791   7.453   3.926   6.485  0.4940  0.4310 -0.1613
41595SOL    HW126792   7.481   3.886   6.403  0.1106  0.9782 -0.5663
41595SOL    HW226793   7.362   3.952   6.470  0.1984 -0.0744  0.6704
41596SOL     OW26794   3.367   4.896   6.907  0.6981 -0.0632  0.1609
41596SOL    HW126795   3.299   4.884   6.973 -0.8894 -1.1369 -1.5669
41596SOL    HW226796   3.378   4.991   6.900  2.0488  0.0888  2.9815
41597SOL     OW26797   8.999   2.541   8.921  0.6805  0.4847 -0.3398
41597SOL    HW126798   9.046   2.612   8.878  1.9920 -0.4685 -0.5559
41597SOL    HW226799   9.066   2.474   8.937 -0.7351 -1.2971 -1.4471
41598SOL     OW26800   0.573   3.053   4.985 -0.8014  0.0502 -0.0610
41598SOL    HW126801   0.535   3.113   4.921 -3.1684  1.0726  2.1108
41598SOL    HW226802   0.665   3.045   4.959 -2.1336 -2.3539 -5.5671
41599SOL     OW26803   5.372   9.250   9.592 -0.1099  0.7950 -0.5788
41599SOL    HW126804   5.329   9.335   9.596  1.4756  1.6181 -0.3325
41599SOL    HW226805   5.398   9.232   9.683 -1.0418 -0.2924 -0.5104
41600SOL     OW26806   1.966   5.996   1.381  0.0968  0.2504  0.2936
41600SOL    HW126807   2.009   6.045   1.311 -2.0977  2.5153  0.4041
41600SOL    HW226808   1.915   5.929   1.335  0.1185  0.5279 -0.1402
41601SOL     OW26809   8.218   2.237  10.756 -0.7390 -0.8948  0.3259
41601SOL    HW126810   8.271   2.198  10.825 -0.4755  0.3411  0.8428
41601SOL    HW226811   8.276   2.240  10.680  1.0004  2.8304  1.5395
41602SOL     OW26812   4.724   6.564   7.855 -0.3018 -0.1354 -0.1547
41602SOL    HW126813   4.735   6.529   7.767 -0.8062 -0.4779 -0.0896
41602SOL    HW226814   4.716   6.486   7.911 -1.7846  0.0527 -0.0532
41603SOL     OW26815   6.461  11.265   6.880  0.1424  0.4113 -0.4614
41603SOL    HW126816   6.378  11.239   6.839 -0.5938  1.3607  0.3528
41603SOL    HW226817   6.515  11.296   6.807 -0.6497  0.8210 -0.8913
41604SOL     OW26818   4.152  10.980   9.944  0.0464 -0.9330  0.2733
41604SOL    HW126819   4.106  11.035  10.008  0.6924  0.4029 -0.3651
41604SOL    HW226820   4.242  10.976   9.976  1.0625  1.9144 -1.7431
41605SOL     OW26821   7.335   9.347   6.244  0.3144  0.3596 -0.2277
41605SOL    HW126822   7.345   9.287   6.318  1.5587 -1.1425 -1.5409
41605SOL    HW226823   7.246   9.331   6.212  0.0616  0.4258  0.4300
41606SOL     OW26824   5.440   5.135   8.656 -0.6026  0.4554  0.6967
41606SOL    HW126825   5.379   5.082   8.604 -2.5615  1.1263  2.1778
41606SOL    HW226826   5.408   5.224   8.647 -0.6929  0.6568  2.5731
41607SOL     OW26827   3.416   2.520   4.113 -0.4555 -0.3743 -0.1938
41607SOL    HW126828   3.422   2.507   4.208 -1.7162  1.0872  0.1357
41607SOL    HW226829   3.384   2.610   4.103  1.5025  0.2025 -2.0669
41608SOL     OW26830   1.088   0.858   2.690 -0.1396 -0.1850 -0.4021
41608SOL    HW126831   1.130   0.906   2.619 -1.0504  0.8967 -0.2355
41608SOL    HW226832   1.024   0.919   2.726  1.1258 -0.2091  2.1768
41609SOL     OW26833   2.335   2.770   4.488 -0.2739 -0.8162 -0.5566
41609SOL    HW126834   2.427   2.744   4.494  0.3467  0.1155 -4.1025
41609SOL    HW226835   2.328   2.845   4.548  1.7248  0.1103 -1.3749
41610SOL     OW26836   1.003  10.022   7.762 -0.0783 -0.6838  0.0948
41610SOL    HW126837   1.088  10.040   7.803 -0.6904  0.5700  0.8783
41610SOL    HW226838   0.949  10.097   7.785 -2.3205 -2.7385  2.1230
41611SOL     OW26839  10.162   3.420   1.553  0.4860 -0.2833 -0.1877
41611SOL    HW126840  10.149   3.350   1.489 -0.6637 -1.1866  0.9742
41611SOL    HW226841  10.255   3.443   1.545  1.2592 -2.9190  0.3606
41612SOL     OW26842   9.590  11.262   0.382 -0.1065 -0.0466  0.3492
41612SOL    HW126843   9.629  11.343   0.350 -2.4266  1.5062  1.1379
41612SOL    HW226844   9.619  11.194   0.321 -0.7229  1.9736 -2.3632
41613SOL     OW26845   7.430   7.329   3.949  0.2524 -0.0549  0.6765
41613SOL    HW126846   7.470   7.249   3.917 -0.0308  1.0470 -2.7849
41613SOL    HW226847   7.352   7.341   3.896  0.8460  3.0166  0.2693
41614SOL     OW26848  11.272  10.466   2.942  0.3479  0.2007  0.5258
41614SOL    HW126849  11.196  10.471   2.884 -0.6536 -1.4638  1.5925
41614SOL    HW226850  11.314  10.383   2.919  1.2643  0.6220  0.6407
41615SOL     OW26851   7.503   4.631   4.190  0.1352 -0.3528  0.0249
41615SOL    HW126852   7.575   4.577   4.156  0.3312 -0.8515  1.1723
41615SOL    HW226853   7.475   4.684   4.116  1.5908 -0.2611 -0.4894
41616SOL     OW26854   1.087   4.452   0.548  0.5534  0.0067  0.4801
41616SOL    HW126855   1.136   4.399   0.486  1.1124  0.7518  0.2736
41616SOL    HW226856   1.008   4.401   0.566 -1.6665  1.3907 -3.8472
41617SOL     OW26857   1.785   6.679   6.083 -0.3394  0.3867  0.3147
41617SOL    HW126858   1.745   6.733   6.014 -0.9682  0.6294  0.8531
41617SOL    HW226859   1.733   6.599   6.084 -1.5264  1.1374  1.7345
41618SOL     OW26860   9.219   6.618   4.190  0.4974 -0.3548  0.2409
41618SOL    HW126861   9.289   6.594   4.251  0.3916 -0.6803  0.2364
41618SOL    HW226862   9.178   6.535   4.168 -0.9517 -0.0196  1.5206
41619SOL     OW26863   0.003   0.008   3.580 -0.6270 -0.5887 -0.7430
41619SOL    HW126864  -0.042  -0.077   3.586  0.2047 -1.0831 -1.3513
41619SOL    HW226865  -0.014   0.049   3.665  1.6864 -2.7802  0.9658
41620SOL     OW26866   4.998   5.645   2.452 -0.0370 -0.5070  0.7671
41620SOL    HW126867   4.945   5.678   2.379 -2.7267 -1.4908  2.1356
41620SOL    HW226868   4.976   5.703   2.525  2.8869  0.6829  0.8187
41621SOL     OW26869   3.988   0.654   5.346  0.3236  0.5129  0.1988
41621SOL    HW126870   3.992   0.691   5.258 -0.7420 -2.3044 -1.1313
41621SOL    HW226871   3.894   0.648   5.366  0.5462  1.0076  1.5009
41622SOL     OW26872   1.617   0.466   7.741  1.0639 -0.2862  0.2831
41622SOL    HW126873   1.631   0.537   7.678  0.4585 -0.6138 -0.2324
41622SOL    HW226874   1.658   0.389   7.700  0.2716 -0.6036  0.0634
41623SOL     OW26875   1.174   5.386   0.148 -0.7343 -0.4134 -0.2818
41623SOL    HW126876   1.236   5.331   0.101 -1.1373 -1.6163  0.5587
41623SOL    HW226877   1.158   5.460   0.089 -1.0292 -1.7333 -1.9355
41624SOL     OW26878   1.715   2.307  10.696 -0.5891 -0.1398 -0.1457
41624SOL    HW126879   1.636   2.357  10.716  0.0548 -0.3005  3.5669
41624SOL    HW226880   1.686   2.215  10.699 -1.0854 -0.2035 -3.5516
41625SOL     OW26881   6.978   0.368   7.835 -0.6500 -0.5099 -0.0979
41625SOL    HW126882   6.922   0.388   7.760 -0.5582 -0.9614 -0.2940
41625SOL    HW226883   6.964   0.440   7.896 -0.8681 -0.2327 -0.4704
41626SOL     OW26884   7.555   7.483   0.503 -0.2231 -0.7891 -0.3287
41626SOL    HW126885   7.553   7.550   0.571  1.1390 -2.4912  1.5043
41626SOL    HW226886   7.648   7.469   0.486 -0.4524 -2.4577 -0.3846
41627SOL     OW26887   9.554   4.769   7.686  0.0263  0.4715  0.2726
41627SOL    HW126888   9.507   4.685   7.687  0.0641  0.4525  1.1558
41627SOL    HW226889   9.623   4.758   7.751  0.1453  1.1276  0.2595
41628SOL     OW26890   4.236   1.769   0.184 -0.1892 -0.6553 -0.6343
41628SOL    HW126891   4.206   1.778   0.094 -1.9618  1.9463  0.1101
41628SOL    HW226892   4.164   1.724   0.229  0.2624 -1.0530 -0.2898
41629SOL     OW26893  10.955  11.154   7.814 -0.1388  0.1148 -0.3686
41629SOL    HW126894  10.884  11.216   7.830  1.6878  1.6981  2.2903
41629SOL    HW226895  10.948  11.090   7.884  1.7877  1.0866  0.7917
41630SOL     OW26896   4.393   4.240   7.100  0.0160  0.4350 -0.0235
41630SOL    HW126897   4.298   4.247   7.091  0.0261  2.3825  0.8619
41630SOL    HW226898   4.406   4.189   7.180 -0.2375 -0.6093 -0.6213
41631SOL     OW26899   9.380   5.872   5.450  0.2201  0.2918  0.4168
41631SOL    HW126900   9.375   5.778   5.437 -0.5207 -0.0754  2.8934
41631SOL    HW226901   9.401   5.883   5.542 -1.6977  2.5571  0.6876
41632SOL     OW26902   4.453   9.135  10.186  0.0371  0.1767  0.2707
41632SOL    HW126903   4.403   9.205  10.228 -1.4107  0.1982 -1.4032
41632SOL    HW226904   4.437   9.058  10.240 -1.9977  0.1385 -0.3257
41633SOL     OW26905  10.814   2.291   6.978 -0.2490  0.1743 -0.0407
41633SOL    HW126906  10.778   2.357   6.919  0.1283  1.0575  0.6773
41633SOL    HW226907  10.906   2.316   6.988 -0.1380 -0.3784  0.3584
41634SOL     OW26908   5.074   0.789   5.074 -0.5515  0.7437 -0.8108
41634SOL    HW126909   5.168   0.770   5.064 -0.2677  1.2859  0.4813
41634SOL    HW226910   5.069   0.884   5.068 -0.8975  0.7736 -0.1549
41635SOL     OW26911  10.114  11.025   1.240 -0.0040 -0.1520 -0.3809
41635SOL    HW126912  10.158  11.062   1.317 -0.1008 -0.1689 -0.3172
41635SOL    HW226913  10.069  11.100   1.201  0.9233  0.0900 -1.0385
41636SOL     OW26914   7.242   0.764   3.923  0.6906  0.8566 -0.2900
41636SOL    HW126915   7.312   0.709   3.888  0.2416 -1.2489  1.9230
41636SOL    HW226916   7.167   0.747   3.866  1.1141  0.7848 -0.8394
41637SOL     OW26917   7.230   1.900   1.260  0.0750 -0.7797 -0.2291
41637SOL    HW126918   7.271   1.865   1.181 -2.1201 -2.1692 -0.8399
41637SOL    HW226919   7.168   1.832   1.287 -1.3877  0.9403  0.9632
41638SOL     OW26920   4.343  10.551  10.046  0.2170 -1.0248 -0.4176
41638SOL    HW126921   4.291  10.601   9.983  1.7218 -1.0605 -1.7779
41638SOL    HW226922   4.427  10.536  10.001  0.3652 -3.4669  0.5026
41639SOL     OW26923   9.105   8.541   2.319  0.0276  0.3721  0.1511
41639SOL    HW126924   9.080   8.611   2.379  0.7483 -0.5106  1.5385
41639SOL    HW226925   9.193   8.564   2.290  0.3586 -0.0748  0.7952
41640SOL     OW26926   4.025   9.537   9.492 -0.0589  0.2612 -0.1857
41640SOL    HW126927   4.065   9.488   9.420  0.5126 -1.6228  1.3140
41640SOL    HW226928   3.959   9.478   9.528 -1.3655  1.7429 -0.0421
41641SOL     OW26929   2.499   6.840  10.561  0.0952  0.1194 -0.0771
41641SOL    HW126930   2.561   6.846  10.489 -0.3877  2.1621 -0.3795
41641SOL    HW226931   2.528   6.905  10.624 -0.4324 -0.5102  0.8416
41642SOL     OW26932  10.810  10.988   5.964 -0.0343 -0.2135 -0.0993
41642SOL    HW126933  10.813  10.892   5.960  0.1239 -0.1989 -0.3894
41642SOL    HW226934  10.878  11.012   6.026  1.2283 -0.2099 -1.4303
41643SOL     OW26935   8.035   1.567  10.683 -0.0609 -0.2970  0.1494
41643SOL    HW126936   8.130   1.563  10.674 -0.1476 -1.2952 -0.4002
41643SOL    HW226937   8.006   1.476  10.675 -1.0784  0.0162  0.1563
41644SOL     OW26938   3.721   7.194   1.942  0.3033  0.0100  0.8680
41644SOL    HW126939   3.762   7.131   2.002 -0.0646  0.2744  1.4107
41644SOL    HW226940   3.627   7.183   1.957  0.0838 -1.2848 -1.0613
41645SOL     OW26941   0.592   0.247  10.503  0.1352  0.0902 -0.1693
41645SOL    HW126942   0.671   0.274  10.549  0.3162 -1.4042  0.4113
41645SOL    HW226943   0.520   0.278  10.558  0.3350 -2.6100  1.7790
41646SOL     OW26944   2.524   8.265   0.070  0.5252  0.1729 -0.3542
41646SOL    HW126945   2.619   8.277   0.076  0.5018  0.0938  0.2289
41646SOL    HW226946   2.498   8.235   0.157  0.2789 -2.0734 -1.1549
41647SOL     OW26947   6.039   6.106   8.144  0.3746 -0.7991 -0.3325
41647SOL    HW126948   5.989   6.024   8.139 -0.9995 -0.1310  1.2763
41647SOL    HW226949   6.010   6.157   8.069 -1.5255 -0.4016  0.6023
41648SOL     OW26950   1.243   3.423   8.201 -0.7681 -0.0054  0.3797
41648SOL    HW126951   1.333   3.414   8.170 -0.8325  0.8842 -0.1027
41648SOL    HW226952   1.193   3.358   8.152 -0.4908 -0.0951  0.2170
41649SOL     OW26953   7.970   0.177   6.184  0.5496  0.2022 -0.4614
41649SOL    HW126954   8.011   0.145   6.103 -0.8196 -0.6887 -0.8318
41649SOL    HW226955   8.043   0.189   6.245  1.5954  0.7260 -1.7654
41650SOL     OW26956   2.649   3.898   2.742  0.1325  0.4359 -0.2530
41650SOL    HW126957   2.594   3.878   2.666  0.5537 -1.9655 -0.0063
41650SOL    HW226958   2.706   3.821   2.751  1.2062  1.3832  1.5197
41651SOL     OW26959   4.605   3.863   5.552 -0.3380  0.2554 -0.8274
41651SOL    HW126960   4.590   3.923   5.479 -0.8327  0.3617 -0.6445
41651SOL    HW226961   4.681   3.811   5.526 -0.7464  0.0247 -1.5935
41652SOL     OW26962   7.357   6.854   1.453  0.0644  0.0929  0.5250
41652SOL    HW126963   7.366   6.836   1.547 -0.2847 -0.1360  0.5135
41652SOL    HW226964   7.286   6.797   1.424 -0.5397  0.9262  0.3318
41653SOL     OW26965   2.076   6.377  10.061  0.2337  0.3255  0.4333
41653SOL    HW126966   2.007   6.432  10.099 -0.3265 -0.1041  0.0515
41653SOL    HW226967   2.098   6.420   9.978  0.0158  0.1406  0.2811
41654SOL     OW26968   8.844   2.312   9.161  0.0681  0.1581  0.7389
41654SOL    HW126969   8.768   2.330   9.106  0.4780 -0.3002  0.0203
41654SOL    HW226970   8.898   2.391   9.153  0.7750 -0.4388 -0.6077
41655SOL     OW26971   8.076   0.768   1.286  0.7824 -0.1846  0.2881
41655SOL    HW126972   8.121   0.805   1.209  0.6048 -0.4099  0.0732
41655SOL    HW226973   8.027   0.693   1.251 -0.0784  0.2921  0.4380
41656SOL     OW26974   3.855   1.192   2.614 -0.5865  0.2755 -0.2015
41656SOL    HW126975   3.939   1.160   2.581  0.1198  1.2972  0.5463
41656SOL    HW226976   3.824   1.122   2.671  0.1320  0.2189  0.1291
41657SOL     OW26977   3.901   6.025  10.624 -0.8014 -0.0975 -0.5622
41657SOL    HW126978   3.980   6.053  10.577  0.3130 -1.4429  0.4415
41657SOL    HW226979   3.885   5.936  10.594 -2.2398  0.3093 -1.0864
41658SOL     OW26980   6.699   0.016   2.828 -0.0797  0.3387 -0.2379
41658SOL    HW126981   6.630  -0.002   2.893 -1.4846  0.2022 -1.7032
41658SOL    HW226982   6.755   0.081   2.870 -1.1487  0.5154  0.9831
41659SOL     OW26983  11.273   6.812   5.250  0.5439 -0.1789  0.6467
41659SOL    HW126984  11.237   6.735   5.295 -0.1533  0.9438  2.1258
41659SOL    HW226985  11.266   6.792   5.157  0.0000 -1.7342  0.9957
41660SOL     OW26986   3.022   7.177   0.917  0.0139  0.2551 -0.0338
41660SOL    HW126987   2.936   7.219   0.924  0.0389  0.2410  0.3759
41660SOL    HW226988   3.076   7.240   0.871 -0.1436  0.3765 -0.0520
41661SOL     OW26989   3.224   9.516   8.709 -0.1545  0.3297 -0.6768
41661SOL    HW126990   3.230   9.508   8.614 -1.5375  0.3193 -0.7855
41661SOL    HW226991   3.209   9.609   8.724 -2.6437  0.0083 -0.6958
41662SOL     OW26992   1.250   2.635   3.728 -0.1334 -0.5860 -0.0214
41662SOL    HW126993   1.281   2.561   3.780 -1.7194 -1.3367 -0.1056
41662SOL    HW226994   1.331   2.679   3.699  0.8061 -1.0781  1.7008
41663SOL     OW26995   5.198  10.163   8.851 -0.6947  0.6987 -0.1984
41663SOL    HW126996   5.112  10.138   8.885 -0.6704 -1.8761 -1.7768
41663SOL    HW226997   5.193  10.145   8.757  1.2276  1.5877 -0.5238
41664SOL     OW26998   5.801   1.917   5.085 -0.3390 -0.4137 -0.3101
41664SOL    HW126999   5.779   2.009   5.069  1.0655  0.0523  0.3417
41664SOL    HW227000   5.877   1.901   5.029 -0.6780 -1.2424 -0.5451
41665SOL     OW27001  10.638   0.944   5.078  0.0974  0.6497  0.8412
41665SOL    HW127002  10.678   0.928   4.992 -0.8730  2.8537 -0.0978
41665SOL    HW227003  10.706   0.921   5.141  2.0510  2.0059 -0.6394
41666SOL     OW27004   7.560   9.668   5.014  0.0466  0.5140  0.4342
41666SOL    HW127005   7.596   9.710   4.936  1.1284 -0.0807  0.5857
41666SOL    HW227006   7.548   9.576   4.988 -0.9040  0.5931  0.5547
41667SOL     OW27007   5.353  10.155   6.286 -0.2045 -0.6433  0.1433
41667SOL    HW127008   5.391  10.216   6.224 -0.9997  0.2058  0.4725
41667SOL    HW227009   5.355  10.201   6.370 -1.5099 -0.7517  0.2564
41668SOL     OW27010   0.754   5.611   9.099 -0.4002 -0.9420  0.0203
41668SOL    HW127011   0.685   5.601   9.165 -2.3105  0.2608 -1.6560
41668SOL    HW227012   0.768   5.706   9.094  1.4436 -1.1788  0.3628
41669SOL     OW27013   2.323   1.181   8.315  0.2815  0.0700  0.2075
41669SOL    HW127014   2.299   1.132   8.393 -6.1668 -3.3112 -3.1390
41669SOL    HW227015   2.382   1.122   8.267 -0.0956 -0.2829  0.1746
41670SOL     OW27016   7.601   8.992   0.828  0.5190 -0.0058  0.0045
41670SOL    HW127017   7.647   8.910   0.811 -1.2812 -1.1290  0.3776
41670SOL    HW227018   7.667   9.048   0.870  1.8788 -1.1086 -0.5897
41671SOL     OW27019  10.115   6.580   1.549  0.1079 -0.1512  0.7733
41671SOL    HW127020  10.042   6.565   1.489 -0.0387  0.9698  0.6535
41671SOL    HW227021  10.075   6.624   1.625  0.6029  0.1868  0.8424
41672SOL     OW27022   5.302   9.242  10.684 -0.0285 -0.0620  0.3252
41672SOL    HW127023   5.362   9.254  10.610 -1.8143 -0.9868 -1.3827
41672SOL    HW227024   5.341   9.292  10.755  2.1964  0.2168 -0.9979
41673SOL     OW27025   0.539   4.486   9.793  0.5276 -0.3968 -1.0348
41673SOL    HW127026   0.617   4.513   9.842  0.0287  0.3204 -0.6142
41673SOL    HW227027   0.569   4.413   9.738  1.1320 -1.1893  0.2877
41674SOL     OW27028   0.671   1.003   7.786  0.0181  0.3366 -0.6456
41674SOL    HW127029   0.676   1.059   7.864  2.4853 -0.1044 -0.3973
41674SOL    HW227030   0.597   0.945   7.803  0.5570  0.1780  1.4586
41675SOL     OW27031   5.649   2.198  10.171 -0.2977 -0.0429  0.3524
41675SOL    HW127032   5.699   2.217  10.250 -0.6732  0.4622  0.4805
41675SOL    HW227033   5.681   2.261  10.107  0.4436 -0.8613 -0.0936
41676SOL     OW27034   0.030   5.476   2.908 -0.1556  0.2737  0.0620
41676SOL    HW127035   0.100   5.539   2.922  0.3938 -0.3409  0.0864
41676SOL    HW227036  -0.019   5.512   2.833 -1.2542  1.9375  1.4811
41677SOL     OW27037   8.660   1.326   1.334  0.0681  0.0304 -1.0793
41677SOL    HW127038   8.679   1.388   1.405 -2.9459 -2.4744  2.2665
41677SOL    HW227039   8.734   1.265   1.336  0.5762  0.6352 -0.9126
41678SOL     OW27040  10.876  10.819   1.159 -0.3010  0.2901  0.0914
41678SOL    HW127041  10.908  10.881   1.225 -0.0981 -0.5954  0.8489
41678SOL    HW227042  10.947  10.814   1.095  0.0230  0.2401  0.4458
41679SOL     OW27043   8.671   9.013   7.677 -0.3009 -0.5576  0.5001
41679SOL    HW127044   8.654   8.923   7.702 -0.8849 -1.1360 -1.7440
41679SOL    HW227045   8.692   9.009   7.584 -1.0369  1.6815  0.1597
41680SOL     OW27046   9.475  10.727   5.921  0.0369 -0.2245  0.1089
41680SOL    HW127047   9.515  10.811   5.901 -1.3519  0.3449 -0.3394
41680SOL    HW227048   9.425  10.742   6.001  0.3282 -0.8175  0.4124
41681SOL     OW27049   8.830   4.688   2.817  0.2043  0.5395  0.0374
41681SOL    HW127050   8.899   4.749   2.791 -0.7692  1.3821 -0.5996
41681SOL    HW227051   8.798   4.651   2.735 -1.2049  1.3744  0.1872
41682SOL     OW27052   2.885   5.575   5.717  0.0592  0.0478  0.8167
41682SOL    HW127053   2.961   5.552   5.771  0.4985  0.9445  0.6016
41682SOL    HW227054   2.909   5.658   5.676 -0.6996 -0.0811  0.0765
41683SOL     OW27055   4.076   2.682   5.838 -0.0240 -0.4553 -0.0786
41683SOL    HW127056   4.062   2.643   5.752 -0.0979  0.0813 -0.3142
41683SOL    HW227057   4.068   2.777   5.823 -0.4330 -0.3765  0.5885
41684SOL     OW27058   9.690   5.472   0.065  0.4672  0.1552 -0.3105
41684SOL    HW127059   9.708   5.423   0.146 -0.9559  2.8196  1.7941
41684SOL    HW227060   9.621   5.422   0.022  0.5856 -0.8313  0.5961
41685SOL     OW27061   2.310  10.460   3.092  0.0854  0.3658 -0.2159
41685SOL    HW127062   2.304  10.374   3.051  2.5304  1.2029 -2.6116
41685SOL    HW227063   2.291  10.522   3.022  0.5042  1.8293  0.9045
41686SOL     OW27064  10.154   5.988   0.602 -0.0550 -0.2940  0.2871
41686SOL    HW127065  10.154   5.893   0.609  1.9922 -0.2469  2.4028
41686SOL    HW227066  10.085   6.008   0.539 -0.2937 -3.1700 -0.5024
41687SOL     OW27067   3.505   8.246   0.567  0.4267 -0.3845  0.6472
41687SOL    HW127068   3.488   8.332   0.530  2.8250 -0.8069 -1.8040
41687SOL    HW227069   3.601   8.242   0.577  0.4167 -2.7767  0.5273
41688SOL     OW27070  11.182   4.696   0.677  0.1644 -0.5180 -0.8926
41688SOL    HW127071  11.160   4.742   0.758 -2.2142 -0.3581 -1.5687
41688SOL    HW227072  11.161   4.605   0.694 -1.6132 -0.2893 -1.7114
41689SOL     OW27073   6.369  10.495   1.380  0.3133 -0.4441 -0.0183
41689SOL    HW127074   6.415  10.460   1.456 -0.0011  1.3447  1.0712
41689SOL    HW227075   6.438  10.533   1.325  0.4288 -0.6022  0.0189
41690SOL     OW27076   7.217   5.382   4.341  0.2309 -0.4822  0.0515
41690SOL    HW127077   7.272   5.409   4.268  1.5514  0.4071  1.3191
41690SOL    HW227078   7.278   5.348   4.407 -0.8058 -0.3613  1.1239
41691SOL     OW27079   5.444   0.142   3.270  0.1370  0.2351 -0.0990
41691SOL    HW127080   5.415   0.054   3.248 -1.6198  1.0906 -1.4554
41691SOL    HW227081   5.459   0.185   3.186  2.4046  0.8504  0.5322
41692SOL     OW27082   3.235   2.391   4.003 -0.0558  0.0694  0.3526
41692SOL    HW127083   3.250   2.306   3.961 -0.1360 -0.6410  1.7099
41692SOL    HW227084   3.312   2.404   4.058 -0.2238  0.7001  0.4400
41693SOL     OW27085   8.011   3.285   3.788 -0.1162 -0.2189  0.7907
41693SOL    HW127086   8.087   3.341   3.772 -0.3071  0.0997  0.9777
41693SOL    HW227087   8.023   3.253   3.877 -0.9848  1.1095  1.4313
41694SOL     OW27088   3.177   5.597   5.583 -0.2487 -0.4537 -0.0709
41694SOL    HW127089   3.107   5.661   5.574 -0.6211 -1.0802 -2.1670
41694SOL    HW227090   3.196   5.569   5.493  2.1359 -0.9025  0.4980
41695SOL     OW27091   8.479   9.424   0.930 -0.9096  0.3856 -0.2119
41695SOL    HW127092   8.423   9.492   0.967  0.5961  1.3477  0.3946
41695SOL    HW227093   8.535   9.470   0.867  2.3929  0.5057  2.5191
41696SOL     OW27094  10.134   4.371   3.309 -0.3700  0.9105 -0.0294
41696SOL    HW127095  10.050   4.345   3.346 -0.2764 -0.7541 -0.8839
41696SOL    HW227096  10.199   4.331   3.366 -0.2194 -0.5470 -1.1666
41697SOL     OW27097   3.132   0.281   7.367 -0.0669  0.4051 -0.3270
41697SOL    HW127098   3.178   0.207   7.327  0.5513  1.0088 -0.7704
41697SOL    HW227099   3.105   0.249   7.453 -1.4291 -0.9212 -1.1976
41698SOL     OW27100  11.122  10.715   1.054 -0.6451 -0.2127  0.0500
41698SOL    HW127101  11.173  10.644   1.015  0.5447  0.0409  1.0773
41698SOL    HW227102  11.123  10.785   0.989 -2.1043 -1.1997 -1.1139
41699SOL     OW27103   2.626  10.860   0.740 -0.5821  0.5590  0.6243
41699SOL    HW127104   2.701  10.815   0.702  0.2856  1.2485  1.4768
41699SOL    HW227105   2.634  10.845   0.834 -1.6896  0.3964  0.7102
41700SOL     OW27106  10.077   4.591   9.500 -0.1672 -0.4261  0.2167
41700SOL    HW127107  10.071   4.551   9.587  0.3121 -1.7383 -0.3255
41700SOL    HW227108  10.046   4.523   9.440  0.1150  0.2260 -0.6982
41701SOL     OW27109   3.022   8.769   1.724 -0.4452  0.4986  0.5268
41701SOL    HW127110   3.003   8.818   1.805 -2.5848  0.3967  0.1547
41701SOL    HW227111   3.084   8.701   1.751  1.0137  2.1398  1.4757
41702SOL     OW27112   9.754   8.776   2.886  0.3269 -0.7128  0.7425
41702SOL    HW127113   9.812   8.768   2.810 -0.1305  3.0258 -0.1665
41702SOL    HW227114   9.813   8.767   2.962  1.2207 -1.8224 -0.0371
41703SOL     OW27115   4.125   9.328   8.430 -0.2481  0.7083 -0.2637
41703SOL    HW127116   4.092   9.244   8.462 -0.5049  0.5414 -0.9622
41703SOL    HW227117   4.168   9.307   8.347 -1.0584  1.3866 -0.8713
41704SOL     OW27118   2.960   1.653   7.880 -0.5361  0.0733 -0.3068
41704SOL    HW127119   3.041   1.672   7.832 -0.5212 -2.6893 -1.5505
41704SOL    HW227120   2.989   1.604   7.957 -0.9671 -0.4528 -0.4719
41705SOL     OW27121   6.468   2.013   7.065 -0.4300 -0.3440  0.2377
41705SOL    HW127122   6.546   2.047   7.021 -2.1064  0.3837 -2.4217
41705SOL    HW227123   6.432   2.089   7.111  0.5967 -0.7863  1.8504
41706SOL     OW27124   7.117   7.233   3.903  0.1448  0.6192  0.3174
41706SOL    HW127125   7.065   7.306   3.936  0.3283  1.1017 -0.4218
41706SOL    HW227126   7.054   7.175   3.862 -0.0820  0.0242  1.4773
41707SOL     OW27127   6.158  11.126   1.189  0.4107 -1.1143 -0.1589
41707SOL    HW127128   6.210  11.070   1.132  3.2281  0.4661  0.6701
41707SOL    HW227129   6.178  11.096   1.278 -1.2965 -1.4018  0.1605
41708SOL     OW27130   4.973   0.256   9.839 -0.4992  0.8208 -0.2846
41708SOL    HW127131   4.911   0.185   9.823 -0.0854  0.2481  0.5985
41708SOL    HW227132   5.051   0.231   9.788 -0.4702  0.8127 -0.2360
41709SOL     OW27133   2.519  10.694   6.441 -0.1233  0.2628  0.0319
41709SOL    HW127134   2.606  10.674   6.406  0.3120  0.4882  0.9462
41709SOL    HW227135   2.531  10.776   6.489 -1.0580  0.8015 -0.6126
41710SOL     OW27136   8.694   8.984   1.045  0.3725 -0.0375 -0.2511
41710SOL    HW127137   8.649   9.046   0.988 -2.6758 -1.4663  0.3716
41710SOL    HW227138   8.716   9.035   1.123 -0.1196  0.7498 -0.6095
41711SOL     OW27139   8.892  10.933   3.564  0.1603 -0.1670 -1.0812
41711SOL    HW127140   8.954  10.863   3.540 -0.2788 -0.6830 -0.7353
41711SOL    HW227141   8.827  10.932   3.494 -0.1414 -0.4761 -0.8045
41712SOL     OW27142   1.112   1.200  10.999  0.0979 -0.1535 -0.3483
41712SOL    HW127143   1.173   1.127  10.988  1.3372  0.9855 -1.3239
41712SOL    HW227144   1.033   1.172  10.952  0.3224 -1.1046 -0.1867
41713SOL     OW27145   2.366  11.078   8.680 -0.0695 -0.2737 -0.8681
41713SOL    HW127146   2.457  11.049   8.678 -0.7974 -2.9709  0.1837
41713SOL    HW227147   2.335  11.063   8.591 -0.4539 -3.2858 -0.3567
41714SOL     OW27148   4.303  10.442   1.696  0.9070  0.5069  0.0322
41714SOL    HW127149   4.355  10.487   1.629 -0.8356  0.4642 -1.4371
41714SOL    HW227150   4.362  10.435   1.771  2.7600  1.1116 -1.2669
41715SOL     OW27151   8.597   6.289   5.804 -0.4836  0.3996  0.2345
41715SOL    HW127152   8.671   6.239   5.771 -2.3875 -1.7241 -1.1574
41715SOL    HW227153   8.576   6.351   5.735 -0.4131  0.5438  0.3415
41716SOL     OW27154   3.548   6.725  10.173  0.4386  0.3101 -0.1601
41716SOL    HW127155   3.534   6.659  10.105 -1.7700 -0.7272  1.1932
41716SOL    HW227156   3.505   6.804  10.141  2.0125  0.7968 -1.2256
41717SOL     OW27157   7.640   0.417  10.350  0.2647  0.1919  0.3875
41717SOL    HW127158   7.572   0.395  10.287 -1.7105  1.9333  1.7556
41717SOL    HW227159   7.713   0.448  10.297 -0.9479  0.6399 -1.0857
41718SOL     OW27160   7.569   0.882   4.056  0.7298 -0.4564 -0.5025
41718SOL    HW127161   7.615   0.906   3.975  1.3672 -2.1106 -0.6817
41718SOL    HW227162   7.639   0.869   4.120  0.4399 -1.5362 -0.3718
41719SOL     OW27163   1.152   1.204   6.620 -0.4807  0.7624  1.1744
41719SOL    HW127164   1.216   1.276   6.619  0.7394 -0.1749 -1.8742
41719SOL    HW227165   1.175   1.152   6.697  2.0099  0.9015  0.6260
41720SOL     OW27166   2.230   2.590   6.039  0.1859 -0.2671 -0.1125
41720SOL    HW127167   2.226   2.647   5.962 -0.1841 -1.1260 -0.7508
41720SOL    HW227168   2.162   2.525   6.024 -1.6801  1.0329  2.1899
41721SOL     OW27169   5.655   1.710   2.066  0.3809 -0.2904 -0.6940
41721SOL    HW127170   5.588   1.642   2.057  1.3350 -1.5513  1.0364
41721SOL    HW227171   5.736   1.667   2.038  0.9130  0.3178 -0.1231
41722SOL     OW27172   9.176   8.497   5.873 -0.1960 -0.3231 -0.2399
41722SOL    HW127173   9.191   8.551   5.795 -0.3882  1.9939  1.2393
41722SOL    HW227174   9.113   8.546   5.925  0.7364 -1.2423  1.8934
41723SOL     OW27175   4.760   5.391   7.927  0.3638  0.6692  0.0951
41723SOL    HW127176   4.805   5.307   7.929  2.4400  1.6952 -0.8154
41723SOL    HW227177   4.793   5.434   7.848 -2.3589  1.4694 -0.7277
41724SOL     OW27178   0.688   8.093   2.135 -0.1577  0.3791 -0.6440
41724SOL    HW127179   0.729   8.033   2.073 -0.0284 -1.1037  0.8160
41724SOL    HW227180   0.687   8.177   2.089 -0.2464 -0.6802 -2.7096
41725SOL     OW27181   6.933   3.401   8.758  0.2889  0.4652  0.0905
41725SOL    HW127182   6.973   3.468   8.702 -2.6572  0.5821 -2.1456
41725SOL    HW227183   6.900   3.449   8.834 -1.5602  1.6217 -1.3601
41726SOL     OW27184   1.275  10.606   1.163  0.8585 -0.0939  0.4497
41726SOL    HW127185   1.346  10.601   1.099 -0.1368 -1.8227 -0.5789
41726SOL    HW227186   1.307  10.557   1.239  0.3103 -2.0575 -0.5257
41727SOL     OW27187   7.434   6.901   6.510  0.2714 -0.4040  0.5752
41727SOL    HW127188   7.375   6.921   6.582 -0.8803  1.7980 -0.8733
41727SOL    HW227189   7.521   6.923   6.544 -0.1465 -0.2262  1.5629
41728SOL     OW27190   8.706   7.364   1.811  0.2495 -0.3368  0.1973
41728SOL    HW127191   8.779   7.312   1.845  0.0967 -0.8945 -0.3085
41728SOL    HW227192   8.629   7.308   1.824 -0.3713  0.8928  2.2348
41729SOL     OW27193   9.120   3.515   3.679  0.5262  0.2821  0.0235
41729SOL    HW127194   9.107   3.475   3.765  0.6198  0.6936  0.2338
41729SOL    HW227195   9.205   3.483   3.649 -0.4848 -1.6579 -0.9257
41730SOL     OW27196   6.852   3.411   3.075 -0.0217 -0.0169  0.4653
41730SOL    HW127197   6.851   3.358   3.155  0.4686 -0.2581  0.3130
41730SOL    HW227198   6.858   3.501   3.105  1.0834 -0.1526  0.6896
41731SOL     OW27199   8.805   0.805   0.491  0.1146 -0.3042 -0.5226
41731SOL    HW127200   8.727   0.824   0.542 -1.0218 -1.4847 -1.7308
41731SOL    HW227201   8.834   0.719   0.522 -1.4923 -1.7689 -2.7914
41732SOL     OW27202   5.906   3.480  11.216 -0.0524 -0.3191  0.1110
41732SOL    HW127203   5.972   3.543  11.246  0.2397  0.9721 -2.8655
41732SOL    HW227204   5.951   3.430  11.148 -1.2048 -1.6958  0.3385
41733SOL     OW27205   0.812   9.980   3.392 -0.0956  0.0492 -0.2277
41733SOL    HW127206   0.853   9.924   3.325  0.0538  0.5902 -0.5997
41733SOL    HW227207   0.818  10.069   3.356 -0.4926  0.2863  0.2717
41734SOL     OW27208   9.015  10.780   1.696  0.0770  0.2123  0.4027
41734SOL    HW127209   9.089  10.838   1.716  1.9229 -1.7531 -0.3198
41734SOL    HW227210   8.982  10.813   1.612  1.0802  0.2631  0.0096
41735SOL     OW27211   1.266   9.163   6.093  0.5406  0.0869  0.0902
41735SOL    HW127212   1.181   9.188   6.128  0.5408 -1.2845  1.1885
41735SOL    HW227213   1.301   9.243   6.054 -0.3047  1.2267  1.5547
41736SOL     OW27214   6.408   2.245   9.166  0.6901  0.2090  0.5885
41736SOL    HW127215   6.314   2.244   9.187  0.6333  1.3795  0.4764
41736SOL    HW227216   6.420   2.171   9.107 -0.3933  0.6905 -0.2817
41737SOL     OW27217   1.869   0.932   5.520  0.2371 -0.5321  0.6085
41737SOL    HW127218   1.916   0.987   5.457 -0.1105  0.4961  1.2279
41737SOL    HW227219   1.934   0.868   5.550  0.6175 -0.5372 -0.1936
41738SOL     OW27220   6.449   2.462   1.027  0.0011 -0.4328  0.1801
41738SOL    HW127221   6.418   2.440   1.115 -0.9055  0.1848  0.0392
41738SOL    HW227222   6.405   2.399   0.969 -0.5713  0.0823  0.0368
41739SOL     OW27223   3.635   0.963   0.493  0.9110 -0.3176  0.7840
41739SOL    HW127224   3.718   1.008   0.509  0.2363  1.4104 -0.2934
41739SOL    HW227225   3.571   1.013   0.543  0.2890 -0.6795  0.3533
41740SOL     OW27226   3.053  11.101   3.455 -0.3232  0.1451  0.2050
41740SOL    HW127227   3.067  11.194   3.437 -0.8668 -0.2461 -2.6878
41740SOL    HW227228   2.968  11.080   3.416 -0.1844 -1.6025  0.7170
41741SOL     OW27229   9.989   5.704   6.757  0.1243  0.3568  0.4457
41741SOL    HW127230   9.954   5.724   6.844  0.8224  2.4937  0.2906
41741SOL    HW227231   9.914   5.711   6.698  0.2744  2.4935  0.4407
41742SOL     OW27232   7.849   6.115   3.995  0.0417  0.4088  0.8677
41742SOL    HW127233   7.941   6.126   4.019  0.8178 -1.2095 -1.0410
41742SOL    HW227234   7.839   6.020   3.986 -1.7282  0.5912  0.7318
41743SOL     OW27235   9.300   3.419   0.847 -0.2128 -0.3002 -0.5051
41743SOL    HW127236   9.376   3.451   0.895  0.2014 -0.6952 -0.8774
41743SOL    HW227237   9.300   3.469   0.766  1.3392 -2.1881 -1.7920
41744SOL     OW27238   3.050   2.794   8.214  0.3255  0.0200 -0.2797
41744SOL    HW127239   3.056   2.879   8.256 -1.6872  0.9618 -1.7579
41744SOL    HW227240   2.960   2.788   8.182  1.0691 -1.5921 -2.4022
41745SOL     OW27241  10.191   2.605   9.617  0.1594  0.1097  0.2021
41745SOL    HW127242  10.196   2.583   9.710  0.6600 -0.6180  0.0132
41745SOL    HW227243  10.100   2.584   9.593 -0.9364  3.1834  1.1867
41746SOL     OW27244   2.027   2.992  10.111 -0.5701 -0.0834  0.4694
41746SOL    HW127245   2.096   2.927  10.121 -0.8552 -0.3819  0.5164
41746SOL    HW227246   1.954   2.943  10.071  0.7927  1.1650 -4.1343
41747SOL     OW27247   5.428   1.969  10.769 -0.1620 -0.0260  0.0771
41747SOL    HW127248   5.377   2.008  10.698  0.3121  1.3117  0.4464
41747SOL    HW227249   5.391   1.881  10.779 -2.1374  0.7553  0.0782
41748SOL     OW27250  10.044   2.866   9.723 -0.1555 -0.0797 -0.5037
41748SOL    HW127251  10.099   2.917   9.664  0.2563  0.6081  0.4527
41748SOL    HW227252   9.965   2.847   9.673 -0.2246  1.3303 -0.9534
41749SOL     OW27253   5.257   6.758   6.173  0.1168 -0.5746  0.4075
41749SOL    HW127254   5.306   6.732   6.251 -0.5398  1.1998  1.4536
41749SOL    HW227255   5.168   6.727   6.190  0.3343 -1.7785 -0.4835
41750SOL     OW27256   1.091   6.062   2.819 -0.2320  0.2157 -0.3884
41750SOL    HW127257   1.080   6.149   2.781  1.2400  0.7022  0.2683
41750SOL    HW227258   1.160   6.072   2.884  0.6226 -1.6347 -0.9437
41751SOL     OW27259   7.458   3.870   5.818  0.4510  0.5575 -0.4005
41751SOL    HW127260   7.515   3.902   5.887  1.9902 -2.5905  0.0071
41751SOL    HW227261   7.501   3.896   5.737  1.4827 -0.1171 -0.0924
41752SOL     OW27262   5.644   1.148   3.927  0.1405 -0.6915 -0.0005
41752SOL    HW127263   5.659   1.241   3.942  1.6459 -1.2522  2.8758
41752SOL    HW227264   5.575   1.124   3.989  0.5383 -1.6665  0.0970
41753SOL     OW27265   3.283   8.816   8.519 -0.0450 -0.5093  0.1350
41753SOL    HW127266   3.305   8.768   8.599  1.3047  1.0188  0.7451
41753SOL    HW227267   3.368   8.846   8.486 -0.7034  0.0258 -1.1326
41754SOL     OW27268   9.471   2.177   6.151 -0.7478  0.5153  0.4074
41754SOL    HW127269   9.378   2.181   6.175 -0.4604 -0.8121  1.9006
41754SOL    HW227270   9.480   2.239   6.079 -2.5459  1.5928  1.0550
41755SOL     OW27271   8.662   0.640   4.153 -0.3416 -0.1115  0.1443
41755SOL    HW127272   8.733   0.669   4.097 -0.5473 -2.0308 -1.2129
41755SOL    HW227273   8.585   0.641   4.097 -0.9914 -0.0456  1.0100
41756SOL     OW27274   6.159   0.231   5.072 -0.0933 -0.1016  0.5435
41756SOL    HW127275   6.161   0.160   5.136  0.3938 -1.5846 -1.0527
41756SOL    HW227276   6.070   0.228   5.036 -0.4555  0.9101  1.3059
41757SOL     OW27277   8.723   1.363   2.979 -0.5117  0.6237 -0.4248
41757SOL    HW127278   8.654   1.429   2.972  1.6801  2.9768 -1.2708
41757SOL    HW227279   8.704   1.317   3.061 -3.2708  0.8521 -0.8330
41758SOL     OW27280   4.024   2.256  10.826 -0.0309 -0.3430  0.0997
41758SOL    HW127281   4.063   2.336  10.862 -0.7165 -0.0775  0.2653
41758SOL    HW227282   3.937   2.282  10.797 -0.1862 -0.9842 -0.0353
41759SOL     OW27283   1.157   8.862   0.543 -0.2420 -0.3474  0.4175
41759SOL    HW127284   1.196   8.915   0.474 -1.3590 -1.1115 -0.8447
41759SOL    HW227285   1.113   8.925   0.600 -2.2748  0.1212 -1.5178
41760SOL     OW27286   3.236   4.338   5.398 -0.0341 -0.2475  0.3531
41760SOL    HW127287   3.311   4.279   5.388 -0.8755 -1.1836 -0.6709
41760SOL    HW227288   3.163   4.280   5.418 -0.9461  0.3804 -0.9937
41761SOL     OW27289   9.846   8.799   5.568  0.7619  0.0072  0.1530
41761SOL    HW127290   9.934   8.838   5.567  0.3586  0.9438 -0.4243
41761SOL    HW227291   9.859   8.710   5.538  1.4164  0.3866 -0.7430
41762SOL     OW27292   8.229   1.773   9.246  0.0621 -0.0621 -0.1900
41762SOL    HW127293   8.151   1.822   9.220  0.1069  0.1003 -0.0241
41762SOL    HW227294   8.282   1.837   9.293  0.7909  0.1108 -1.2189
41763SOL     OW27295   0.597   2.138   5.050  0.4059 -0.2231 -0.4468
41763SOL    HW127296   0.649   2.069   5.008  0.6435 -0.5838  0.4184
41763SOL    HW227297   0.548   2.092   5.118  0.2463  0.4010 -0.1351
41764SOL     OW27298  11.077   2.957   8.635  0.5501 -1.0248  0.5522
41764SOL    HW127299  11.136   3.029   8.659  0.6573 -0.8632 -0.1839
41764SOL    HW227300  11.034   2.933   8.717  1.0468 -0.6048  0.9413
41765SOL     OW27301   6.227   3.292   5.961 -0.7738 -0.4765 -0.5005
41765SOL    HW127302   6.244   3.279   6.054 -0.3978 -3.3691 -0.8672
41765SOL    HW227303   6.134   3.314   5.956 -0.6535  0.3472  0.5723
41766SOL     OW27304  10.137   7.703   9.441 -0.4464 -0.3111 -0.8510
41766SOL    HW127305  10.169   7.658   9.519 -0.9370 -1.1712 -1.1373
41766SOL    HW227306  10.209   7.761   9.416 -0.1777 -0.2345  0.0698
41767SOL     OW27307  10.623   8.367   5.663  0.2148  0.2799  0.3440
41767SOL    HW127308  10.677   8.420   5.721 -0.5693  1.2859  0.1789
41767SOL    HW227309  10.678   8.350   5.587  0.0999  1.8740 -0.1332
41768SOL     OW27310   9.543   0.022   2.866 -0.5453  0.9312  1.4112
41768SOL    HW127311   9.630  -0.015   2.848 -1.4514 -1.4360  1.4663
41768SOL    HW227312   9.546   0.110   2.830  1.0180 -0.0312 -1.1034
41769SOL     OW27313   6.361   8.453   0.895  0.0856  0.3400 -0.4674
41769SOL    HW127314   6.437   8.466   0.838 -0.6081 -0.1339 -1.5505
41769SOL    HW227315   6.395   8.411   0.973  0.6197 -2.3133 -2.0056
41770SOL     OW27316   8.383   7.656   7.796  0.2293 -0.0207  0.1537
41770SOL    HW127317   8.358   7.597   7.725  1.0226  1.3678 -1.3388
41770SOL    HW227318   8.373   7.743   7.760  0.3214  0.7553  1.8910
41771SOL     OW27319   2.990   7.237   2.228 -0.4063  0.3700 -0.3664
41771SOL    HW127320   2.981   7.143   2.245 -0.7660  0.7950  2.2003
41771SOL    HW227321   3.059   7.265   2.288  0.0121  1.6948 -1.4260
41772SOL     OW27322   6.249   0.922   7.278  0.1705  0.4014 -0.2337
41772SOL    HW127323   6.251   0.901   7.371  0.6510 -1.5219 -0.6392
41772SOL    HW227324   6.339   0.946   7.256  0.1568  0.3822 -0.3114
41773SOL     OW27325   1.295  11.090   5.348  0.5036 -0.2896 -0.0422
41773SOL    HW127326   1.219  11.145   5.330 -0.3763 -1.7878 -1.0790
41773SOL    HW227327   1.273  11.043   5.428  0.1468 -1.0254 -0.5647
41774SOL     OW27328   7.644   6.683   4.405 -0.4002 -0.0214  0.4214
41774SOL    HW127329   7.684   6.601   4.435 -1.6928 -1.1698 -0.8493
41774SOL    HW227330   7.697   6.751   4.446 -1.0404 -1.4185  3.8907
41775SOL     OW27331   5.252   7.596   9.817  0.2947 -0.3140  0.0673
41775SOL    HW127332   5.336   7.558   9.843  0.3780  0.2959  0.7311
41775SOL    HW227333   5.276   7.673   9.764  0.1568 -0.1965  0.1741
41776SOL     OW27334   7.487   0.217   1.746  0.5060  0.0745  0.3173
41776SOL    HW127335   7.572   0.252   1.717  0.4126  0.7710  0.8537
41776SOL    HW227336   7.479   0.245   1.837 -0.8624  1.1100 -0.0896
41777SOL     OW27337   2.605  10.036  10.215 -0.4617  0.0870  0.6143
41777SOL    HW127338   2.511  10.031  10.228 -0.7169  0.6708 -0.8549
41777SOL    HW227339   2.627  10.128  10.229 -0.0455 -0.0830  1.1751
41778SOL     OW27340  10.741   4.523   5.937  0.3759  0.4400 -0.1684
41778SOL    HW127341  10.655   4.523   5.980  0.6462  1.5969  0.3887
41778SOL    HW227342  10.754   4.613   5.907  1.0790  0.1081 -0.9095
41779SOL     OW27343  10.464   6.198   2.577 -0.0333 -0.2175  0.9525
41779SOL    HW127344  10.498   6.176   2.490  2.8177  0.8516  1.6718
41779SOL    HW227345  10.452   6.293   2.574 -1.2168 -0.3429  1.3453
41780SOL     OW27346   8.209   3.783   5.323  0.0631  0.3477  0.1278
41780SOL    HW127347   8.236   3.844   5.255 -1.9702 -0.3663 -1.4539
41780SOL    HW227348   8.113   3.785   5.319 -0.1143 -3.0686 -0.2147
41781SOL     OW27349   7.579   0.967   5.115 -0.2954 -0.0822  0.3650
41781SOL    HW127350   7.513   0.935   5.177 -1.1281  1.6156  0.4110
41781SOL    HW227351   7.642   1.013   5.170  0.9368 -1.6069  0.3093
41782SOL     OW27352   0.858   0.990   5.101  0.3814  0.0058 -0.2942
41782SOL    HW127353   0.913   0.937   5.159  0.2477  0.5423  0.3435
41782SOL    HW227354   0.775   0.943   5.096 -0.4179  1.0660  1.8238
41783SOL     OW27355   4.508   5.240   3.657 -0.2034  0.0211  0.2894
41783SOL    HW127356   4.548   5.183   3.592 -2.1795 -2.2267  0.8963
41783SOL    HW227357   4.463   5.307   3.606 -0.8822 -1.1136 -0.6477
41784SOL     OW27358   5.834   4.063   2.793 -0.1920 -0.3292 -0.9680
41784SOL    HW127359   5.832   4.159   2.796  2.0515 -0.2097 -1.1635
41784SOL    HW227360   5.857   4.043   2.702 -0.8358 -1.0770 -0.9738
41785SOL     OW27361  10.851   5.684   8.745 -0.4091 -0.0897 -0.1411
41785SOL    HW127362  10.853   5.650   8.656 -0.1540  0.4660 -0.3512
41785SOL    HW227363  10.904   5.622   8.795  1.3609  0.8035 -0.8237
41786SOL     OW27364   8.854   9.036   0.018 -0.2746 -0.4112  0.1974
41786SOL    HW127365   8.878   9.069  -0.069 -2.3872 -1.1310 -0.7230
41786SOL    HW227366   8.771   9.079   0.038  1.2647  1.5578  3.0038
41787SOL     OW27367   4.936   6.070   0.243  0.1217  0.3211  0.0868
41787SOL    HW127368   4.881   5.992   0.253  0.8291 -0.2723 -0.4881
41787SOL    HW227369   4.929   6.115   0.327 -0.8164 -0.0177  0.2023
41788SOL     OW27370   2.728   6.434   1.435  0.2965 -0.6713 -0.2822
41788SOL    HW127371   2.809   6.410   1.480  0.8614  0.1720 -0.8145
41788SOL    HW227372   2.659   6.407   1.494  1.0017 -0.1415  0.8260
41789SOL     OW27373   0.599   4.148   6.368 -0.0869 -0.1790 -0.2252
41789SOL    HW127374   0.536   4.205   6.412 -0.5404  0.1214 -1.2357
41789SOL    HW227375   0.683   4.166   6.411 -0.3546  0.7619 -0.0937
41790SOL     OW27376  10.367  10.225   4.915 -0.1232  0.1740 -0.2244
41790SOL    HW127377  10.451  10.181   4.904 -0.3524 -0.7797  1.4877
41790SOL    HW227378  10.306  10.155   4.939 -1.0517  1.0829  0.1467
41791SOL     OW27379  10.972   2.605   3.074 -0.1351  0.5019  0.5587
41791SOL    HW127380  11.049   2.553   3.050 -0.1142  0.7061  0.1720
41791SOL    HW227381  10.947   2.649   2.993 -1.4108 -0.5333  0.3429
41792SOL     OW27382   6.061   8.169   9.569 -0.1586  0.1932 -0.0569
41792SOL    HW127383   6.116   8.247   9.579 -1.0698  0.7180  1.2052
41792SOL    HW227384   5.974   8.203   9.551 -0.2174 -0.6058 -1.3760
41793SOL     OW27385   3.756   2.426   4.583  0.4193 -0.1937 -0.0595
41793SOL    HW127386   3.817   2.375   4.636  1.7025  0.7179 -0.5959
41793SOL    HW227387   3.811   2.492   4.541 -0.6675 -0.3974 -1.9215
41794SOL     OW27388   9.943   3.502   8.931 -0.5056 -0.8594  0.1905
41794SOL    HW127389   9.935   3.516   8.837 -0.6179  0.0203  0.3195
41794SOL    HW227390   9.946   3.407   8.941 -2.8157 -1.0903 -0.5430
41795SOL     OW27391   1.014   9.632   1.850 -0.8313  0.9069 -0.0540
41795SOL    HW127392   0.962   9.712   1.841  0.7134  1.9847  0.2238
41795SOL    HW227393   1.005   9.608   1.942  0.6641  2.1964  0.4619
41796SOL     OW27394   3.197   3.977   4.536 -0.3597 -0.1469 -0.2127
41796SOL    HW127395   3.208   4.008   4.447 -0.7537 -0.4448 -0.3647
41796SOL    HW227396   3.254   4.034   4.588 -0.8313  0.6260 -0.5232
41797SOL     OW27397   9.029   4.442   4.647 -0.1861 -0.2609  0.3537
41797SOL    HW127398   9.045   4.421   4.555 -0.1128  1.1891  0.0047
41797SOL    HW227399   9.015   4.537   4.647  0.1057 -0.1996  1.8849
41798SOL     OW27400   4.192  10.532   0.209 -0.3559  0.3816 -0.1737
41798SOL    HW127401   4.261  10.542   0.275  0.3913  0.1700 -0.8932
41798SOL    HW227402   4.213  10.599   0.143  1.3032 -1.9352 -2.1855
41799SOL     OW27403   4.707   4.510   8.091  0.2757 -0.2704  0.6236
41799SOL    HW127404   4.648   4.585   8.100 -0.5210 -1.0066  1.8332
41799SOL    HW227405   4.793   4.545   8.114  0.6977  1.2096 -2.6735
41800SOL     OW27406   9.876   1.664   0.004 -0.8304  0.1916  0.2464
41800SOL    HW127407   9.834   1.636  -0.078 -0.8888  0.2945  0.2422
41800SOL    HW227408   9.941   1.729  -0.023 -0.1201 -0.5271  0.1589
41801SOL     OW27409  10.987   1.266   1.179 -0.5341 -0.4646 -0.2531
41801SOL    HW127410  11.046   1.338   1.199 -0.8884 -0.1093 -0.4862
41801SOL    HW227411  11.044   1.196   1.147 -0.3960  0.4900 -2.2040
41802SOL     OW27412   0.043   4.530   8.523  0.1822  0.1466 -0.2511
41802SOL    HW127413   0.050   4.445   8.480  0.5555  0.6543 -1.2435
41802SOL    HW227414   0.044   4.511   8.617 -0.8232 -1.0174 -0.4505
41803SOL     OW27415   1.915  10.539   4.298 -0.5796  0.0128 -1.1030
41803SOL    HW127416   1.950  10.628   4.292 -2.1335  0.6533 -1.1817
41803SOL    HW227417   1.916  10.506   4.208  0.6634 -0.3518 -0.9805
41804SOL     OW27418   2.339  10.335  10.082  0.1986  0.5438  1.0122
41804SOL    HW127419   2.283  10.406  10.112  2.2474  2.4552  0.5412
41804SOL    HW227420   2.360  10.358   9.991  0.2019 -1.1486  0.5552
41805SOL     OW27421   9.496   1.828   0.797  0.1542  0.2644  0.0475
41805SOL    HW127422   9.429   1.890   0.826  0.9533  0.8504  0.6629
41805SOL    HW227423   9.574   1.851   0.848  0.9802 -0.0708 -1.0382
41806SOL     OW27424   7.249  11.139   4.320  0.2175 -0.4472  0.0250
41806SOL    HW127425   7.271  11.057   4.366 -0.6076 -0.9634 -0.4674
41806SOL    HW227426   7.299  11.135   4.239  0.1056 -0.5119 -0.0412
41807SOL     OW27427   4.277   1.153   9.640  0.2390  0.0366 -0.4276
41807SOL    HW127428   4.280   1.131   9.733 -2.3116  0.3732 -0.1965
41807SOL    HW227429   4.210   1.095   9.604  0.2671  0.8171 -1.7908
41808SOL     OW27430   9.101   9.594   7.805  0.6183 -0.0429 -0.1234
41808SOL    HW127431   9.071   9.649   7.732 -0.7027 -0.0103  0.4224
41808SOL    HW227432   9.162   9.532   7.764 -0.0025  0.0510 -1.2305
41809SOL     OW27433   7.646   3.163   0.163  0.1623 -0.0524  0.2124
41809SOL    HW127434   7.672   3.134   0.250  1.7897 -2.1649 -0.8641
41809SOL    HW227435   7.728   3.166   0.113 -0.9318 -1.0429 -1.7937
41810SOL     OW27436   5.571   9.140  10.154 -0.1634 -0.1704 -0.3746
41810SOL    HW127437   5.644   9.127  10.093 -0.6219  1.1329 -1.2498
41810SOL    HW227438   5.586   9.227  10.190 -1.1759  0.0293 -0.4227
41811SOL     OW27439   2.114   7.504   1.020 -0.3087  0.2098 -0.8346
41811SOL    HW127440   2.071   7.563   0.958 -0.2276 -0.5467 -1.6344
41811SOL    HW227441   2.208   7.517   1.004 -0.2412  1.0931  0.1774
41812SOL     OW27442   9.177   7.082   0.283  0.6141  0.3585 -0.8198
41812SOL    HW127443   9.232   7.016   0.326  0.4526  0.7033 -0.0588
41812SOL    HW227444   9.187   7.160   0.338 -0.8234  0.3564 -0.5202
41813SOL     OW27445   7.865   8.042   7.374 -0.5368 -0.9670 -0.0537
41813SOL    HW127446   7.929   8.097   7.329 -0.1594 -0.2617  1.2849
41813SOL    HW227447   7.834   8.097   7.446 -3.9412 -0.6001 -1.5802
41814SOL     OW27448   7.658   1.389   2.667  0.0283 -0.3944 -0.1518
41814SOL    HW127449   7.603   1.460   2.634  0.1350 -0.8096 -1.2585
41814SOL    HW227450   7.611   1.356   2.744 -0.1306  0.7231  0.2396
41815SOL     OW27451   4.483   3.463   8.411 -0.5737 -0.4359 -0.0764
41815SOL    HW127452   4.480   3.459   8.315 -0.1447 -3.3920 -0.0651
41815SOL    HW227453   4.392   3.461   8.438 -0.9123  3.4334 -0.3107
41816SOL     OW27454   3.968   6.572   3.929  1.0369  0.1689  0.3874
41816SOL    HW127455   4.028   6.631   3.882  1.4516 -1.1904 -0.8668
41816SOL    HW227456   3.882   6.589   3.888  1.0807  0.1605  0.2920
41817SOL     OW27457   6.990  10.219   1.353  0.2512  0.2971  0.1013
41817SOL    HW127458   7.015  10.261   1.271  3.1451 -1.9055 -0.3323
41817SOL    HW227459   7.052  10.253   1.417 -1.3953  1.3006  1.2250
41818SOL     OW27460   4.500   6.322   8.574  0.3135  0.4909  0.1580
41818SOL    HW127461   4.577   6.378   8.583  0.9530 -0.4541  0.8806
41818SOL    HW227462   4.534   6.239   8.542 -0.2887 -0.1606  1.1217
41819SOL     OW27463  11.044   6.509   0.208  0.2337 -0.1460  0.0235
41819SOL    HW127464  11.068   6.432   0.156  2.3035  0.4975 -0.0741
41819SOL    HW227465  10.985   6.559   0.151  0.8289 -0.4653 -0.8960
41820SOL     OW27466   1.614   0.929  10.733 -0.2634 -0.1198 -0.1167
41820SOL    HW127467   1.574   1.010  10.701 -0.1009 -0.1204 -0.3178
41820SOL    HW227468   1.683   0.910  10.670  0.2406  0.0294  0.3825
41821SOL     OW27469   2.990   9.193   6.462  1.0362  0.0846 -0.4236
41821SOL    HW127470   2.959   9.262   6.403 -0.9349  0.0430  0.4963
41821SOL    HW227471   3.077   9.222   6.488  0.4924  1.9403 -0.5121
41822SOL     OW27472   2.887  10.075   2.924 -0.2994 -0.2467 -0.0092
41822SOL    HW127473   2.922   9.988   2.905 -0.4861 -0.3598  0.1612
41822SOL    HW227474   2.930  10.102   3.005  0.7535  0.3830 -0.7550
41823SOL     OW27475   6.543   3.165   1.476 -0.2140  1.0494  0.3672
41823SOL    HW127476   6.624   3.169   1.527 -1.0407  1.6281  1.6957
41823SOL    HW227477   6.553   3.087   1.422 -0.1222 -0.8498  2.9520
41824SOL     OW27478   8.662   5.007   5.309 -0.5195 -0.1275  0.2223
41824SOL    HW127479   8.752   5.011   5.277  0.1919  0.5337  2.1424
41824SOL    HW227480   8.610   4.986   5.232  1.1955  0.1316 -1.0706
41825SOL     OW27481  10.294   0.410   2.649  0.2942  0.0736 -0.8390
41825SOL    HW127482  10.359   0.460   2.699 -0.2562 -0.7279  0.7479
41825SOL    HW227483  10.210   0.452   2.670  0.0977  0.0160 -1.4844
41826SOL     OW27484   4.667   6.801  11.121 -0.9222  0.2169 -0.1062
41826SOL    HW127485   4.745   6.815  11.067 -1.1689 -1.0800 -0.8238
41826SOL    HW227486   4.609   6.874  11.098  0.0122  1.1507  0.3763
41827SOL     OW27487   3.312   5.834   1.346 -0.0109 -0.3374  0.2947
41827SOL    HW127488   3.324   5.803   1.256  1.0270 -1.1717  0.6928
41827SOL    HW227489   3.217   5.829   1.360 -0.0155 -2.2928 -0.0627
41828SOL     OW27490   1.274   0.114  10.283 -0.3151 -0.0419 -0.1148
41828SOL    HW127491   1.262   0.123  10.189  0.1875 -5.5517 -1.0212
41828SOL    HW227492   1.364   0.084  10.294  0.2793  2.2308  2.4563
41829SOL     OW27493   6.588   7.143   0.800 -0.5310 -0.6627  0.1571
41829SOL    HW127494   6.639   7.106   0.728  0.7334  1.9681 -0.3935
41829SOL    HW227495   6.648   7.139   0.875  0.2662  1.5993 -0.2832
41830SOL     OW27496  10.346  11.003   8.506 -0.6412  0.2704 -0.6367
41830SOL    HW127497  10.437  11.031   8.507 -1.2958  2.6645 -1.3741
41830SOL    HW227498  10.320  11.003   8.598 -0.3107  1.0993 -0.5397
41831SOL     OW27499   3.468   1.064   3.795 -0.0435 -0.2309  0.6648
41831SOL    HW127500   3.429   0.986   3.755 -0.7948 -0.2908  1.4750
41831SOL    HW227501   3.457   1.133   3.730 -1.1009 -0.3664  0.6817
41832SOL     OW27502   4.732  10.790   3.685  0.5745 -0.7332  0.5343
41832SOL    HW127503   4.800  10.848   3.651  0.1389 -0.3423  0.3260
41832SOL    HW227504   4.780  10.722   3.732  1.2092 -1.4110 -1.0459
41833SOL     OW27505   5.342   6.982   6.354 -0.0817 -0.0304  0.0502
41833SOL    HW127506   5.404   7.051   6.330 -1.0355  0.4697 -1.1465
41833SOL    HW227507   5.319   6.941   6.271 -1.5511 -0.0078  0.4183
41834SOL     OW27508   1.816   6.973   6.569 -0.4816  0.1834  0.0947
41834SOL    HW127509   1.907   7.000   6.559  0.3144 -2.5178 -0.7473
41834SOL    HW227510   1.820   6.895   6.625 -2.3711  0.4403  0.6491
41835SOL     OW27511   3.101   3.951   2.777 -0.7969  0.7206 -0.0321
41835SOL    HW127512   3.054   3.888   2.723 -0.8721  0.7392  0.0117
41835SOL    HW227513   3.091   4.035   2.733 -1.3114  0.8342  0.2896
41836SOL     OW27514   7.965   0.184   4.522 -0.5943  0.3211 -0.2703
41836SOL    HW127515   7.973   0.274   4.489 -2.7597  0.5025 -0.4429
41836SOL    HW227516   7.924   0.193   4.607  1.7445 -0.3922  1.0231
41837SOL     OW27517   8.995   7.199   6.263  0.3874 -0.4172  0.0798
41837SOL    HW127518   8.981   7.224   6.354  0.1270  0.2057 -0.1229
41837SOL    HW227519   8.922   7.139   6.244 -0.8648  1.1553 -0.3409
41838SOL     OW27520   3.356   1.642  10.420 -0.2583  0.1411  0.3238
41838SOL    HW127521   3.405   1.572  10.463 -0.8068 -0.3939  0.0876
41838SOL    HW227522   3.405   1.660  10.339  0.1973  0.4328  0.6548
41839SOL     OW27523   4.366   7.593   0.009  0.2063 -1.4223  0.1128
41839SOL    HW127524   4.409   7.659  -0.046  0.9141 -3.8433 -2.4772
41839SOL    HW227525   4.404   7.606   0.095 -1.9629  3.4905  0.6808
41840SOL     OW27526  10.918   6.416   0.495 -0.1724  0.1422  0.1974
41840SOL    HW127527  10.832   6.456   0.481 -0.6163 -1.4275 -2.0366
41840SOL    HW227528  10.978   6.468   0.442  0.0351  0.4448  0.7229
41841SOL     OW27529   7.269  10.541   4.190 -0.2009  0.3895 -0.0213
41841SOL    HW127530   7.320  10.566   4.113  0.3826  2.8387  1.0345
41841SOL    HW227531   7.331  10.492   4.245 -0.3064 -0.4466 -0.6470
41842SOL     OW27532   3.793   6.569   9.998  0.1427  0.1783 -0.6168
41842SOL    HW127533   3.888   6.562   9.992  0.0870 -0.4088 -0.9057
41842SOL    HW227534   3.772   6.538  10.086  0.0472 -1.8738 -1.3063
41843SOL     OW27535   9.406   5.969   6.902 -0.2481  0.0946 -0.7791
41843SOL    HW127536   9.330   5.922   6.936  0.0008 -0.1815 -0.5971
41843SOL    HW227537   9.419   6.042   6.963 -0.9751  0.7380 -1.3714
41844SOL     OW27538  10.685   4.160   2.996 -0.2114 -0.1016  0.2265
41844SOL    HW127539  10.763   4.142   3.048 -1.6351  0.9853  2.9386
41844SOL    HW227540  10.641   4.075   2.989 -0.2075 -0.2023  1.2265
41845SOL     OW27541  10.080   0.837   1.350 -0.2516  0.5343 -0.1396
41845SOL    HW127542  10.024   0.915   1.356  0.3564  0.9620  0.0637
41845SOL    HW227543  10.131   0.851   1.270  0.5760  0.8342  0.4299
41846SOL     OW27544   9.424   9.302   5.411  0.6787 -0.8508  0.0465
41846SOL    HW127545   9.492   9.254   5.459  0.0983  1.8513  4.0696
41846SOL    HW227546   9.342   9.263   5.440  0.3507 -1.3240 -1.4499
41847SOL     OW27547   1.051   8.725   5.492 -0.2588  0.0865  0.1340
41847SOL    HW127548   1.094   8.654   5.541  0.1852  0.0489 -0.3075
41847SOL    HW227549   1.107   8.739   5.416 -2.8774 -2.4655 -2.4784
41848SOL     OW27550   8.439  10.602   0.199 -0.2412  0.5360 -0.3666
41848SOL    HW127551   8.494  10.662   0.249  1.3100 -1.1321  0.0798
41848SOL    HW227552   8.358  10.594   0.250 -0.3337  1.9455 -0.2710
41849SOL     OW27553   4.447  10.228   3.357 -0.2302  0.8520  0.7240
41849SOL    HW127554   4.430  10.137   3.333  1.3861  0.7304 -0.0404
41849SOL    HW227555   4.489  10.223   3.443 -1.3969  0.9956  1.3343
41850SOL     OW27556  10.275  10.915   9.371 -0.3301 -0.2239 -0.5507
41850SOL    HW127557  10.265  10.889   9.279 -3.3017  0.8130 -0.6435
41850SOL    HW227558  10.246  11.006   9.373 -0.1270 -0.1571  1.3906
41851SOL     OW27559   2.005   2.071   2.165  0.0371 -0.0815 -0.4018
41851SOL    HW127560   1.915   2.104   2.159 -0.5944 -1.5425  0.5306
41851SOL    HW227561   2.021   2.064   2.259  0.4458 -1.5746 -0.5644
41852SOL     OW27562   8.238   9.097   6.611  0.0817  0.3942  0.8175
41852SOL    HW127563   8.329   9.093   6.642  0.5365  0.2859 -0.4801
41852SOL    HW227564   8.193   9.150   6.677  0.8500 -0.3742  1.9988
41853SOL     OW27565   5.186   1.538   5.863  0.7288 -0.8822  0.6835
41853SOL    HW127566   5.135   1.557   5.784  0.3839 -1.2897  0.8053
41853SOL    HW227567   5.122   1.504   5.925  0.9747 -0.4300  1.1890
41854SOL     OW27568   0.594   9.295   2.766 -0.4282  0.1013 -0.0454
41854SOL    HW127569   0.527   9.246   2.718  0.4963  0.1139 -1.3956
41854SOL    HW227570   0.677   9.263   2.732  0.2228  2.1350 -0.5324
41855SOL     OW27571   6.843   2.964   2.968 -0.1837 -0.4572 -0.3521
41855SOL    HW127572   6.912   2.937   3.028  0.7678  0.5778 -0.9332
41855SOL    HW227573   6.780   2.893   2.970  0.0173 -0.6339  1.5523
41856SOL     OW27574   2.500   5.524   8.582 -0.6642 -0.3377  0.6033
41856SOL    HW127575   2.550   5.482   8.651  1.9520 -1.0603 -1.5673
41856SOL    HW227576   2.525   5.616   8.587 -2.0456  0.0094  1.8067
41857SOL     OW27577   5.717   8.941   0.132 -0.1089  0.1836  0.0408
41857SOL    HW127578   5.630   8.950   0.171  0.3485  0.2639  1.0663
41857SOL    HW227579   5.765   8.885   0.193  0.1932 -0.8942 -1.1408
41858SOL     OW27580   9.884   5.775   1.246 -0.5416 -1.0958 -0.5224
41858SOL    HW127581   9.828   5.823   1.185 -0.6144 -0.3013  0.1537
41858SOL    HW227582   9.968   5.766   1.200  0.4321  2.2079  0.3598
41859SOL     OW27583   8.120  10.305   3.916 -0.1684  0.1651 -0.4595
41859SOL    HW127584   8.175  10.364   3.864 -0.7558  1.3914  0.2744
41859SOL    HW227585   8.132  10.334   4.006 -0.8875 -0.4955 -0.1425
41860SOL     OW27586   8.783   2.017  10.883 -0.0537 -0.4412  0.5958
41860SOL    HW127587   8.743   2.060  10.806 -0.7132 -2.1173 -0.0412
41860SOL    HW227588   8.877   2.023  10.866 -0.2005 -1.8528 -1.0004
41861SOL     OW27589   4.995   3.623  10.336 -0.3440  0.1146 -0.2121
41861SOL    HW127590   5.064   3.688  10.325 -0.2285  0.1674  0.6784
41861SOL    HW227591   5.041   3.539  10.331 -0.4927  0.0957 -1.3618
41862SOL     OW27592  11.165   3.544  11.087  0.1310 -0.2903 -0.0103
41862SOL    HW127593  11.225   3.500  11.147 -0.2753 -0.0854  0.5559
41862SOL    HW227594  11.080   3.539  11.131 -0.6371 -2.0998 -1.5666
41863SOL     OW27595   8.818   2.490   5.652 -0.2188  0.1437 -0.1074
41863SOL    HW127596   8.726   2.494   5.626  0.0570 -1.5446 -1.5684
41863SOL    HW227597   8.817   2.452   5.740 -0.9428  1.1911  0.3542
41864SOL     OW27598   5.034   2.505   7.362 -0.1780  0.3616 -0.0454
41864SOL    HW127599   5.080   2.439   7.309  0.1398  1.9246 -1.8228
41864SOL    HW227600   5.102   2.542   7.419 -0.1211 -0.0999  0.1883
41865SOL     OW27601   6.007   2.472   1.321 -0.6496 -0.1022 -0.2536
41865SOL    HW127602   6.053   2.539   1.372 -0.3856 -0.0374 -0.5656
41865SOL    HW227603   5.943   2.435   1.381  0.0399 -0.4211  0.2988
41866SOL     OW27604   8.955   4.266   0.306  0.2948  0.5603 -0.1999
41866SOL    HW127605   9.014   4.260   0.231 -0.6164  2.8366 -1.1904
41866SOL    HW227606   8.906   4.183   0.305  0.9245  0.1756 -1.5769
41867SOL     OW27607   9.112   4.052   1.850  0.7303 -0.2171  0.0467
41867SOL    HW127608   9.103   4.080   1.759 -1.9644 -0.9803 -0.0034
41867SOL    HW227609   9.118   3.957   1.846 -3.5025 -0.7031  0.6853
41868SOL     OW27610   3.685   2.085   0.838  0.7083  0.4794 -0.2557
41868SOL    HW127611   3.698   2.112   0.747  4.7557  1.9862  0.5691
41868SOL    HW227612   3.749   2.015   0.852 -0.5281 -0.4298  1.2383
41869SOL     OW27613   7.915   9.983   3.195 -0.4841  0.2542 -0.0415
41869SOL    HW127614   7.932   9.928   3.272 -2.0172 -0.8943 -0.4559
41869SOL    HW227615   7.905  10.071   3.229  2.9838  0.5293  0.5461
41870SOL     OW27616   9.427   3.033   3.431  0.5185  0.8231  0.1787
41870SOL    HW127617   9.406   2.944   3.457 -1.5803  1.3961  0.6308
41870SOL    HW227618   9.459   3.075   3.511 -1.3284  1.2499  0.7390
41871SOL     OW27619   5.235   8.684   4.694  0.2057 -0.2958 -0.0532
41871SOL    HW127620   5.250   8.623   4.621 -0.4817 -0.3536 -0.1561
41871SOL    HW227621   5.289   8.760   4.673  1.3212 -0.9839  0.2371
41872SOL     OW27622   3.228  10.550   7.885 -1.0618 -0.5573 -0.5329
41872SOL    HW127623   3.136  10.524   7.888 -0.8406 -1.3044  0.3065
41872SOL    HW227624   3.247  10.561   7.792 -3.0046  3.3877 -0.6919
41873SOL     OW27625   1.676   7.367   5.698 -0.2842  0.1261 -0.3699
41873SOL    HW127626   1.615   7.338   5.630  0.3632 -2.9034  0.1863
41873SOL    HW227627   1.666   7.303   5.768  1.3792  1.3074  1.0244
41874SOL     OW27628   8.779   4.487   7.436 -0.3631 -0.2364 -0.3819
41874SOL    HW127629   8.715   4.526   7.377  0.1117 -0.8622 -1.3287
41874SOL    HW227630   8.852   4.550   7.436 -0.4993 -0.0772 -0.2006
41875SOL     OW27631   3.286   1.158   7.386  0.1380  0.2697  0.2326
41875SOL    HW127632   3.254   1.241   7.350  2.4602  1.2064  0.1497
41875SOL    HW227633   3.293   1.100   7.311 -1.9987 -0.2567  0.3617
41876SOL     OW27634   6.989   5.354  10.331  0.4222 -0.1026  0.1112
41876SOL    HW127635   7.075   5.371  10.369  0.7169  0.1725 -0.6415
41876SOL    HW227636   6.983   5.258  10.327  0.8852 -0.1255 -0.2186
41877SOL     OW27637  10.099   8.869   2.867 -0.0866  0.4030 -0.0381
41877SOL    HW127638  10.118   8.775   2.874 -0.6506  0.3845  1.5026
41877SOL    HW227639  10.053   8.877   2.783  1.9564 -0.3207 -1.3117
41878SOL     OW27640   6.600   2.307   8.769 -0.1370 -0.3185 -0.5055
41878SOL    HW127641   6.664   2.312   8.698  2.3448  2.9631  1.6491
41878SOL    HW227642   6.549   2.388   8.761 -0.7107 -0.5360  0.6791
41879SOL     OW27643   5.688   7.657  11.169 -0.2688  0.1353  0.2122
41879SOL    HW127644   5.666   7.578  11.120 -0.3261 -2.0139  3.4423
41879SOL    HW227645   5.648   7.728  11.118 -0.5184 -1.8678 -2.6407
41880SOL     OW27646   7.272   6.663   5.329  0.0897  0.3546 -0.2836
41880SOL    HW127647   7.199   6.670   5.391 -0.1234  1.4528 -0.6280
41880SOL    HW227648   7.350   6.663   5.384 -0.1448 -0.4932  0.0710
41881SOL     OW27649   2.926   7.771   3.944 -0.4060  0.1356 -0.0260
41881SOL    HW127650   2.839   7.807   3.930 -0.0591  0.6883 -0.8441
41881SOL    HW227651   2.972   7.787   3.861  0.3083 -0.6070  0.2181
41882SOL     OW27652   1.323   3.632   0.955  0.1789  0.1181 -0.9318
41882SOL    HW127653   1.351   3.690   1.026  0.6672 -0.9451 -0.2208
41882SOL    HW227654   1.370   3.550   0.971  1.0760  0.1413 -3.0552
41883SOL     OW27655   5.956   6.683   2.876 -0.2225 -0.1082  0.1334
41883SOL    HW127656   5.871   6.647   2.849  0.5179 -0.9958 -1.0727
41883SOL    HW227657   5.992   6.616   2.934 -0.9406  0.9163  1.8507
41884SOL     OW27658   0.960   3.503  10.444  0.1571 -0.2418  0.4301
41884SOL    HW127659   0.967   3.535  10.354 -1.1200 -2.0273 -0.3716
41884SOL    HW227660   1.021   3.429  10.447  3.1769  2.1189  2.2803
41885SOL     OW27661   8.067   6.002   8.252  0.0454 -0.1463 -0.0951
41885SOL    HW127662   8.063   5.918   8.205 -1.6664 -0.4703  0.5869
41885SOL    HW227663   8.033   6.066   8.189 -1.5273 -0.4598  0.4173
41886SOL     OW27664   2.501   8.920   8.459  0.1494 -0.7958 -0.0941
41886SOL    HW127665   2.535   9.008   8.478 -1.8072 -0.3407  1.6082
41886SOL    HW227666   2.498   8.877   8.544 -2.1092 -1.2864 -0.3596
41887SOL     OW27667   3.995   7.921   9.437  0.0096  0.2541 -0.8893
41887SOL    HW127668   4.043   8.003   9.430 -1.6261  1.6066  1.8583
41887SOL    HW227669   4.047   7.866   9.496 -1.8363  1.9954  2.6896
41888SOL     OW27670   0.870   6.781   9.899 -0.2781 -0.2331 -0.0747
41888SOL    HW127671   0.919   6.715   9.851 -0.1580  0.1481 -0.4894
41888SOL    HW227672   0.784   6.782   9.858 -0.4802 -0.5597  0.3348
41889SOL     OW27673   6.912   0.015   5.191 -0.9165 -0.6090  0.5025
41889SOL    HW127674   6.997   0.028   5.150  0.9054 -3.1473  3.1504
41889SOL    HW227675   6.870  -0.053   5.137 -1.2389  0.4559 -0.6462
41890SOL     OW27676   6.052   8.323   3.680  0.3485  0.0413 -0.3763
41890SOL    HW127677   6.088   8.295   3.765  0.3698 -0.3314 -0.5065
41890SOL    HW227678   6.105   8.277   3.615 -0.8165 -1.1068 -0.5630
41891SOL     OW27679   1.284   6.133   1.414  0.5986  0.2409  0.8934
41891SOL    HW127680   1.343   6.207   1.428  0.7422  0.2779  0.1417
41891SOL    HW227681   1.199   6.173   1.397  1.0162  0.3457 -1.2850
41892SOL     OW27682   1.673   9.928   3.671 -0.4004 -0.1647  0.0130
41892SOL    HW127683   1.731   9.933   3.747 -0.4085  3.6480 -0.0392
41892SOL    HW227684   1.721   9.972   3.601 -1.9998  0.0654 -0.9984
41893SOL     OW27685   4.100   3.075   4.936  0.0939 -0.5681  0.3768
41893SOL    HW127686   4.085   3.021   5.013  2.0454 -1.8267 -0.0721
41893SOL    HW227687   4.015   3.117   4.919 -0.4115 -0.3015  3.1204
41894SOL     OW27688   5.742   8.241   7.237 -0.2422 -0.3596 -0.5635
41894SOL    HW127689   5.714   8.152   7.217 -0.1991  0.1321 -3.1899
41894SOL    HW227690   5.804   8.231   7.309 -1.4075 -2.2538  0.2506
41895SOL     OW27691   9.471  10.717  10.009  0.2485 -0.1060  0.2580
41895SOL    HW127692   9.442  10.626  10.018 -0.8375  0.3682  1.9625
41895SOL    HW227693   9.556  10.711   9.963 -0.9097 -1.7704 -1.8576
41896SOL     OW27694   4.356   4.967   0.069  0.3145  0.5292  0.8504
41896SOL    HW127695   4.295   5.041   0.068  0.9977  1.1256  1.8214
41896SOL    HW227696   4.358   4.937  -0.022 -0.3866  1.3513  0.5436
41897SOL     OW27697   5.167   0.970   1.590 -0.4306 -0.4097 -0.1394
41897SOL    HW127698   5.110   0.983   1.666  0.0906  1.1987  0.0121
41897SOL    HW227699   5.192   0.878   1.594 -3.0625 -1.2254 -0.2513
41898SOL     OW27700   4.137   4.042   3.201  0.0835 -0.1640 -0.4975
41898SOL    HW127701   4.194   4.014   3.129 -0.0081  0.9094 -1.0097
41898SOL    HW227702   4.110   4.130   3.176 -0.2975  0.0512  0.6555
41899SOL     OW27703   0.678   5.585   6.032 -0.1202  0.5561  1.2724
41899SOL    HW127704   0.729   5.509   6.061  0.3468  0.6034  0.5830
41899SOL    HW227705   0.707   5.656   6.089  0.3826  0.5157  1.0726
41900SOL     OW27706  10.574   8.525  11.229  0.1975  0.5151  0.1770
41900SOL    HW127707  10.572   8.605  11.177 -1.4913  0.8324  0.6432
41900SOL    HW227708  10.667   8.507  11.243  0.7337  0.1930 -3.1926
41901SOL     OW27709   6.649   1.948   4.351  0.7661 -0.1305  0.0667
41901SOL    HW127710   6.570   1.928   4.300  0.2414  0.7625  0.5005
41901SOL    HW227711   6.669   1.866   4.397 -1.0748  0.1435  1.4746
41902SOL     OW27712   3.863   4.113   5.326  0.2878 -0.0523 -0.4252
41902SOL    HW127713   3.852   4.192   5.274 -1.6150  0.1757  0.2475
41902SOL    HW227714   3.869   4.144   5.416 -3.3750 -0.7143  0.1751
41903SOL     OW27715   7.069   3.779   9.135  0.5384 -0.1472  0.1446
41903SOL    HW127716   7.051   3.854   9.191 -0.1921 -0.5624  0.4862
41903SOL    HW227717   7.099   3.816   9.052 -3.1103  0.7147 -0.9571
41904SOL     OW27718  10.560   7.006  10.183  0.4978 -0.0649  0.1075
41904SOL    HW127719  10.535   7.092  10.150 -2.9998 -1.7298 -2.1782
41904SOL    HW227720  10.655   7.005  10.177  0.5314  2.8002 -1.9925
41905SOL     OW27721  10.534   8.619   9.120  0.6221 -0.3087  0.0307
41905SOL    HW127722  10.494   8.641   9.205  1.1867  0.9521 -0.0083
41905SOL    HW227723  10.625   8.597   9.142  0.2278 -2.1149 -0.0105
41906SOL     OW27724   4.723   2.642   3.119  0.2372 -0.0790 -0.0888
41906SOL    HW127725   4.666   2.654   3.043  1.0392 -1.3216 -0.9168
41906SOL    HW227726   4.729   2.548   3.131  0.6797  0.0733  1.1145
41907SOL     OW27727   5.750   0.280   7.719 -0.4249 -0.1684 -0.2578
41907SOL    HW127728   5.760   0.333   7.640  0.6784  1.5355  0.9504
41907SOL    HW227729   5.669   0.231   7.705  0.6601 -1.3450 -3.1969
41908SOL     OW27730   7.872   4.081   1.175 -0.2158  0.0219  0.4951
41908SOL    HW127731   7.874   4.049   1.265  2.8857  0.9034  0.8459
41908SOL    HW227732   7.870   4.002   1.121 -1.0927 -0.5254  1.2961
41909SOL     OW27733   1.200   6.933   8.728  0.2699 -0.1763  0.5188
41909SOL    HW127734   1.211   6.962   8.819 -0.4485 -0.8488  0.8225
41909SOL    HW227735   1.107   6.941   8.711  0.4552  0.3529 -0.3132
41910SOL     OW27736   1.987  10.649   7.219  0.0242  0.2409 -0.6568
41910SOL    HW127737   1.955  10.674   7.132  0.0815  3.2010  0.0644
41910SOL    HW227738   1.917  10.676   7.279  1.5123  1.8435  0.4717
41911SOL     OW27739  10.484   4.849   7.796 -0.4376  0.5676  0.4200
41911SOL    HW127740  10.557   4.863   7.856 -0.6295  1.1616  0.5218
41911SOL    HW227741  10.466   4.755   7.801  0.4973  0.3641  0.1805
41912SOL     OW27742   3.401   5.794   8.522  0.0863 -0.4218 -0.1230
41912SOL    HW127743   3.336   5.855   8.486 -0.5808  1.0654  3.1570
41912SOL    HW227744   3.361   5.708   8.513 -1.7438  0.3074  0.4268
41913SOL     OW27745  11.191  10.604   5.711 -0.1334 -0.4386 -0.4396
41913SOL    HW127746  11.191  10.584   5.617 -1.7421  2.8441 -1.2600
41913SOL    HW227747  11.275  10.647   5.727 -0.0386 -0.6129 -0.4638
41914SOL     OW27748   0.169   4.363  10.323  0.1557  0.6417  0.9887
41914SOL    HW127749   0.106   4.325  10.385  0.3374 -1.1753  0.1428
41914SOL    HW227750   0.131   4.345  10.236  1.6241 -0.1905  0.4701
41915SOL     OW27751   8.121   7.754   0.110 -0.7803  0.2988 -0.3883
41915SOL    HW127752   8.190   7.732   0.172 -0.4812 -0.3362 -0.9279
41915SOL    HW227753   8.138   7.697   0.035 -1.3908  0.7442 -0.8716
41916SOL     OW27754  10.502   8.216   0.514  0.4831  0.2584  0.6154
41916SOL    HW127755  10.531   8.134   0.475 -0.2250  0.4170 -0.2756
41916SOL    HW227756  10.512   8.203   0.608  0.0036 -0.9885  0.5079
41917SOL     OW27757   5.856   9.790   3.689  0.0803 -0.7685  0.2185
41917SOL    HW127758   5.865   9.733   3.765  0.6995 -1.5534 -0.4151
41917SOL    HW227759   5.879   9.877   3.721  1.5938 -1.2999  0.6656
41918SOL     OW27760   5.697   8.487   4.997  0.0066 -0.3928  0.9573
41918SOL    HW127761   5.747   8.545   5.053  2.1432 -2.1853  1.0796
41918SOL    HW227762   5.735   8.400   5.013 -1.1025 -1.3706 -1.2666
41919SOL     OW27763   6.225   3.525   5.105  0.3482 -0.2974  0.3850
41919SOL    HW127764   6.170   3.461   5.150  0.9917 -1.2087 -0.0957
41919SOL    HW227765   6.314   3.495   5.120  0.8040  1.5261  1.7089
41920SOL     OW27766   6.589   9.554   3.881 -0.5973 -0.1538  0.1831
41920SOL    HW127767   6.621   9.469   3.852  0.5784 -0.0776  1.1715
41920SOL    HW227768   6.636   9.617   3.826  0.2749 -0.0797  0.9823
41921SOL     OW27769   4.365   4.843   2.575 -0.4237 -0.3973 -0.0982
41921SOL    HW127770   4.271   4.851   2.561 -0.2084  2.6397 -0.5323
41921SOL    HW227771   4.404   4.872   2.493  0.8305  1.7658  1.1542
41922SOL     OW27772   0.945   9.358   5.218  0.7867 -0.0170 -0.2847
41922SOL    HW127773   0.972   9.306   5.294  1.5002  0.5398 -0.1522
41922SOL    HW227774   0.855   9.384   5.237  1.6811  2.0272  1.4467
41923SOL     OW27775   4.177   3.987   6.964  0.2817 -0.7193  0.0607
41923SOL    HW127776   4.169   3.939   7.047  3.1268 -2.7849 -0.7159
41923SOL    HW227777   4.098   3.963   6.915  0.0984 -2.0488  0.9442
41924SOL     OW27778   2.197  10.050   0.163  0.5763  0.0625 -0.0855
41924SOL    HW127779   2.151   9.983   0.113 -0.0918 -1.0863  1.9503
41924SOL    HW227780   2.235  10.108   0.097 -0.9216 -0.8981 -1.8755
41925SOL     OW27781   9.137  11.172   0.856  0.7330  0.2249 -0.5731
41925SOL    HW127782   9.101  11.083   0.860 -1.6561  1.0788 -1.7790
41925SOL    HW227783   9.183  11.176   0.772 -0.2266  0.4929 -1.0923
41926SOL     OW27784   3.614   0.926   3.571  0.1050 -0.4322  0.0933
41926SOL    HW127785   3.645   0.951   3.658 -1.2562  1.8964 -0.0151
41926SOL    HW227786   3.583   0.836   3.581  0.0595 -0.2408  1.9812
41927SOL     OW27787   1.476   7.666   0.815 -0.1491 -0.1048  0.2822
41927SOL    HW127788   1.553   7.691   0.763 -0.0909  0.3391  0.5769
41927SOL    HW227789   1.440   7.749   0.847 -1.2139 -0.2452 -0.4898
41928SOL     OW27790   7.585   4.467   3.787  0.3618  0.0290  0.1438
41928SOL    HW127791   7.601   4.558   3.813 -1.4054  0.7007 -0.9357
41928SOL    HW227792   7.501   4.470   3.740 -1.3832 -2.6622  2.7729
41929SOL     OW27793   5.366   1.719  10.770 -0.0486  0.0200 -0.5812
41929SOL    HW127794   5.277   1.698  10.797 -0.1806  0.7322 -0.4317
41929SOL    HW227795   5.420   1.653  10.812 -0.3181  0.6837  0.8687
41930SOL     OW27796   8.840   8.482   2.978  0.6665  0.2331 -0.1280
41930SOL    HW127797   8.818   8.565   2.935  0.5580 -0.1698 -0.8682
41930SOL    HW227798   8.832   8.417   2.909 -1.1553 -0.6776  0.8545
41931SOL     OW27799   9.311   6.114   5.792 -0.0056 -0.4614 -0.9732
41931SOL    HW127800   9.327   6.201   5.829  0.2918  0.4742 -3.1276
41931SOL    HW227801   9.217   6.100   5.803 -0.2796  0.6822 -1.6370
41932SOL     OW27802   7.056   2.677  10.533  0.5289 -0.3312  0.3578
41932SOL    HW127803   7.138   2.719  10.506  0.2798 -0.4750 -0.6790
41932SOL    HW227804   6.992   2.706  10.468  0.1328 -1.5234  0.1935
41933SOL     OW27805   6.764   9.732   3.729 -0.4429 -0.3576 -0.9474
41933SOL    HW127806   6.805   9.818   3.738 -0.6709 -0.3949  0.6832
41933SOL    HW227807   6.770   9.713   3.636  2.3082  0.1018 -0.9534
41934SOL     OW27808   3.961   3.307   2.328 -0.3475  0.3240  0.5218
41934SOL    HW127809   4.049   3.296   2.363 -0.2772  2.6307  1.2009
41934SOL    HW227810   3.948   3.402   2.324 -2.6585  0.0475  0.0762
41935SOL     OW27811   4.317   8.474   4.062  0.0478 -0.1097 -0.9951
41935SOL    HW127812   4.331   8.567   4.082 -0.8592 -0.4092  1.5035
41935SOL    HW227813   4.223   8.461   4.080 -0.7082 -0.8106 -4.7335
41936SOL     OW27814   4.652   8.400   9.781 -0.1698 -0.3909 -0.1019
41936SOL    HW127815   4.645   8.471   9.717 -1.3857  0.1528  0.5839
41936SOL    HW227816   4.684   8.443   9.861  1.2112 -1.0355 -0.2849
41937SOL     OW27817   2.818  10.663  11.144  0.6248  0.4264  0.6334
41937SOL    HW127818   2.804  10.600  11.214  2.2295  0.3367  0.9119
41937SOL    HW227819   2.743  10.651  11.085  1.1336 -2.0890  0.4049
41938SOL     OW27820   3.420   6.271   3.169  0.4508  0.9396 -0.2565
41938SOL    HW127821   3.502   6.297   3.212 -0.1021  0.9145  0.8718
41938SOL    HW227822   3.352   6.288   3.235 -0.1484 -1.6957 -0.0782
41939SOL     OW27823   0.022   9.484   3.348  0.3532  0.5329 -0.1507
41939SOL    HW127824  -0.011   9.521   3.430 -0.2214  2.0850 -1.0393
41939SOL    HW227825   0.109   9.453   3.369  0.3346  1.1967  0.9833
41940SOL     OW27826   6.759   6.135   2.540 -0.2890 -0.0359  0.2296
41940SOL    HW127827   6.853   6.129   2.524 -0.7358 -4.2663 -2.0553
41940SOL    HW227828   6.749   6.119   2.634  1.1974 -2.5861  0.0157
41941SOL     OW27829   4.020   6.435   2.862 -0.2290 -0.1169 -0.2959
41941SOL    HW127830   4.108   6.467   2.840  0.5058 -1.8494  0.0109
41941SOL    HW227831   3.971   6.515   2.882  1.9081  0.7777  1.8888
41942SOL     OW27832   9.515  10.347   1.508 -0.0807 -0.1068  0.1291
41942SOL    HW127833   9.554  10.270   1.467 -0.7976  0.1366 -1.0848
41942SOL    HW227834   9.524  10.332   1.602  0.2589 -1.4172 -0.0916
41943SOL     OW27835  10.798   4.381   9.910  0.5364  0.9429  0.4089
41943SOL    HW127836  10.845   4.446   9.859  0.9512 -0.9113 -1.7345
41943SOL    HW227837  10.718   4.425   9.938  0.5457  2.2231 -1.4329
41944SOL     OW27838   0.767   4.139   1.452 -0.4766  0.1194  0.6524
41944SOL    HW127839   0.790   4.046   1.449 -1.9120 -0.2343 -1.0236
41944SOL    HW227840   0.762   4.159   1.545  0.5813 -1.2935  1.0413
41945SOL     OW27841   1.748   4.906  10.879  0.0525 -0.5723  0.5805
41945SOL    HW127842   1.755   4.843  10.807 -1.7491 -1.0083  0.7238
41945SOL    HW227843   1.724   4.988  10.837  1.6700 -0.1384  0.4625
41946SOL     OW27844   2.203   7.403  10.420  0.1876  0.1749  0.0814
41946SOL    HW127845   2.179   7.318  10.455  1.0779  0.2851  1.0075
41946SOL    HW227846   2.133   7.462  10.448 -1.7149 -0.6252 -2.5632
41947SOL     OW27847   9.273   1.393   7.938 -0.0497  0.6133 -0.1691
41947SOL    HW127848   9.256   1.416   7.847  0.1040 -0.2360 -0.4154
41947SOL    HW227849   9.362   1.423   7.954  0.8509 -1.4127 -1.0516
41948SOL     OW27850   9.949   5.700   4.710  0.1220 -0.0226  0.7514
41948SOL    HW127851  10.024   5.699   4.651  0.1493  0.3779  0.7787
41948SOL    HW227852   9.873   5.700   4.651  0.0951 -1.8681  0.7100
41949SOL     OW27853   7.887   5.166   4.604 -0.4022 -0.0428 -0.3109
41949SOL    HW127854   7.844   5.240   4.561  0.5981  1.1179  0.5972
41949SOL    HW227855   7.920   5.112   4.533 -0.5299  0.7683 -0.9921
41950SOL     OW27856  10.776  11.235   5.461  0.5029 -0.1729 -0.3685
41950SOL    HW127857  10.685  11.249   5.436  0.6679 -0.9766 -1.5285
41950SOL    HW227858  10.779  11.252   5.555 -1.0154 -0.9165 -0.1630
41951SOL     OW27859   5.959   8.115   8.224 -0.4147 -0.2606 -0.4689
41951SOL    HW127860   5.949   8.192   8.167  1.0517 -0.8417 -1.5837
41951SOL    HW227861   6.001   8.050   8.168  3.2780 -0.1327  1.8361
41952SOL     OW27862   0.547   0.323   5.841  0.0352  0.5283 -0.0648
41952SOL    HW127863   0.579   0.347   5.754  1.2092 -0.6030  0.0231
41952SOL    HW227864   0.477   0.386   5.859 -0.2305  0.7947 -1.8171
41953SOL     OW27865   9.644   0.983   5.051  0.3444  0.1014  0.1198
41953SOL    HW127866   9.699   0.957   4.977  0.8193  0.5656  0.3039
41953SOL    HW227867   9.633   0.903   5.103  1.3769  0.1446  0.4221
41954SOL     OW27868   7.536   3.877   4.266  0.2434  0.0353  0.0446
41954SOL    HW127869   7.459   3.820   4.267 -0.1403  0.5514  0.0205
41954SOL    HW227870   7.606   3.823   4.303  0.0524 -0.6881 -0.6172
41955SOL     OW27871   9.018   7.773   2.671  0.3414 -0.2114 -0.9035
41955SOL    HW127872   8.972   7.834   2.613 -1.8046 -2.6469 -1.9424
41955SOL    HW227873   8.980   7.789   2.757 -0.4297 -0.2954 -1.2228
41956SOL     OW27874   3.136   5.267   8.333  0.8274 -0.2313  0.4595
41956SOL    HW127875   3.104   5.189   8.289 -0.4345  0.9749 -0.8558
41956SOL    HW227876   3.062   5.296   8.387  0.0450  1.8391 -1.5798
41957SOL     OW27877   7.070  10.472   1.902  0.2047  0.7502 -0.2894
41957SOL    HW127878   7.134  10.454   1.971 -0.2768 -0.1523 -0.0637
41957SOL    HW227879   7.108  10.544   1.853  2.1492 -0.7421 -1.1195
41958SOL     OW27880   8.638   8.219   1.799  0.0856 -0.0181 -0.1629
41958SOL    HW127881   8.622   8.307   1.765 -0.2534  0.5544  1.3977
41958SOL    HW227882   8.679   8.233   1.884 -1.1435 -1.3395  0.6871
41959SOL     OW27883   2.391  10.528   8.196 -0.1016 -0.3919 -0.2258
41959SOL    HW127884   2.342  10.480   8.130 -1.3263 -0.0896  0.4356
41959SOL    HW227885   2.483  10.514   8.173 -0.4931 -0.7716 -1.6323
41960SOL     OW27886   3.574   8.318   9.220 -0.8107  0.2860 -0.1496
41960SOL    HW127887   3.561   8.230   9.255  1.1347 -0.6267 -1.5416
41960SOL    HW227888   3.550   8.310   9.127  1.3421  0.6340 -0.7816
41961SOL     OW27889   7.181   1.357   0.136 -0.3920 -0.1324  0.4812
41961SOL    HW127890   7.133   1.390   0.211  0.2504  0.2341  0.7423
41961SOL    HW227891   7.162   1.419   0.066  0.6090  0.6960  0.9005
41962SOL     OW27892   2.021   0.781   1.830  0.1671 -0.6924  0.2546
41962SOL    HW127893   2.092   0.809   1.772  2.1165 -1.5391  2.0782
41962SOL    HW227894   1.952   0.750   1.770  0.1688  2.5559 -1.6487
41963SOL     OW27895   3.610   7.847   5.704 -0.3793  0.1679  0.3563
41963SOL    HW127896   3.547   7.845   5.776 -0.4579  0.0281  0.2846
41963SOL    HW227897   3.642   7.937   5.703 -0.5795  0.2412  0.3933
41964SOL     OW27898   7.465   6.616   0.273  0.9436 -0.1721 -0.8780
41964SOL    HW127899   7.394   6.632   0.211  1.1107  0.8840 -0.8204
41964SOL    HW227900   7.461   6.690   0.333  0.7465 -1.2165  0.4236
41965SOL     OW27901   2.588   7.392   7.273  0.4779 -0.2647 -0.5842
41965SOL    HW127902   2.519   7.426   7.330  1.9539  2.0179  0.0027
41965SOL    HW227903   2.600   7.301   7.300 -0.6226  0.0159  0.9851
41966SOL     OW27904   3.212   5.558   2.133  0.0237  0.4940  0.4013
41966SOL    HW127905   3.178   5.644   2.156  1.0789  0.9320  0.3407
41966SOL    HW227906   3.291   5.575   2.083  0.5176 -0.5044  0.8061
41967SOL     OW27907   0.320   3.667   7.701  0.0981 -0.0564 -0.1992
41967SOL    HW127908   0.383   3.594   7.701 -0.4360 -0.5389 -1.3060
41967SOL    HW227909   0.264   3.650   7.777 -0.5353 -1.2813 -0.9114
41968SOL     OW27910   8.798   5.131   9.449  0.3350 -0.1781 -0.0441
41968SOL    HW127911   8.767   5.041   9.443  1.0475 -0.4620  0.4832
41968SOL    HW227912   8.721   5.184   9.429 -0.2942 -0.8886  0.4398
41969SOL     OW27913   4.079  10.174   2.504  0.1091 -0.0679  0.3359
41969SOL    HW127914   4.065  10.080   2.514  0.7513 -0.0356  1.8044
41969SOL    HW227915   4.171  10.188   2.527 -0.4344  1.1300  2.0255
41970SOL     OW27916   4.115   1.342   7.819  0.3975  0.4196  0.1213
41970SOL    HW127917   4.098   1.435   7.805 -1.7196 -0.0416 -0.6521
41970SOL    HW227918   4.079   1.298   7.743  0.6163 -1.1243  0.8569
41971SOL     OW27919   8.046   1.915   2.264  0.7703  0.5427  0.6538
41971SOL    HW127920   8.087   1.995   2.298  0.7729  0.2272  1.4300
41971SOL    HW227921   8.091   1.844   2.310 -0.1655  0.1564  1.0002
41972SOL     OW27922   5.193   8.982   2.841 -0.2214 -0.0615 -0.0392
41972SOL    HW127923   5.189   9.019   2.929  1.7363 -0.5930  0.3201
41972SOL    HW227924   5.109   8.937   2.830 -1.5866  2.2047  0.4929
41973SOL     OW27925   7.038   5.567   2.034  0.0500  0.5779  0.2368
41973SOL    HW127926   7.081   5.614   2.105  1.0274  1.2828 -0.7869
41973SOL    HW227927   7.069   5.477   2.043 -0.4154  0.4954  1.1308
41974SOL     OW27928   1.828   6.372   9.305 -0.5031  0.3813 -0.1614
41974SOL    HW127929   1.914   6.412   9.294 -0.1562 -0.0288  0.9606
41974SOL    HW227930   1.830   6.294   9.249 -0.6906  1.1487 -1.2760
41975SOL     OW27931   6.863   1.132   7.386 -0.6730 -0.7163  0.1275
41975SOL    HW127932   6.775   1.135   7.424 -1.1328  0.2514 -0.9444
41975SOL    HW227933   6.881   1.038   7.375 -2.5327 -0.9416 -1.7053
41976SOL     OW27934   9.641   7.418  10.535 -0.3918 -0.2652 -0.3054
41976SOL    HW127935   9.618   7.343  10.590  2.0191 -0.1378  1.0590
41976SOL    HW227936   9.704   7.468  10.588  0.4576  1.0304 -2.3844
41977SOL     OW27937   8.269   6.419   4.898  0.4066 -0.2796  0.3001
41977SOL    HW127938   8.192   6.472   4.920 -1.2295 -2.2485 -0.2618
41977SOL    HW227939   8.330   6.480   4.857  0.0028  1.7531  2.4918
41978SOL     OW27940  10.483   1.759   9.685 -0.2912 -0.0098 -0.2161
41978SOL    HW127941  10.400   1.804   9.702 -0.9051 -0.2049 -2.4308
41978SOL    HW227942  10.542   1.828   9.657  0.2679  0.0863  1.1028
41979SOL     OW27943   8.574   9.087  11.275  0.0058 -0.0388 -0.0768
41979SOL    HW127944   8.538   8.999  11.274  1.2420 -0.6479 -3.1173
41979SOL    HW227945   8.548   9.125  11.191  3.0099  0.8799 -0.7482
41980SOL     OW27946   5.277   9.650  10.077  0.4104 -0.1275  0.0354
41980SOL    HW127947   5.227   9.584  10.127  0.1724 -0.7577 -0.9983
41980SOL    HW227948   5.323   9.599  10.011  1.2834  0.6203  0.0534
41981SOL     OW27949   7.296   7.923   3.748  0.5109  0.2770 -0.5624
41981SOL    HW127950   7.220   7.867   3.733  1.4268 -1.1004 -0.2718
41981SOL    HW227951   7.357   7.899   3.678  1.3124  0.1859  0.1594
41982SOL     OW27952   9.837   8.499   2.297  0.7819 -0.2849  0.6925
41982SOL    HW127953   9.900   8.438   2.337  1.7977  0.5533  0.4045
41982SOL    HW227954   9.855   8.494   2.203  1.4389  1.0506  0.7266
41983SOL     OW27955   2.562   0.211   6.170 -0.5738  0.0692 -0.6202
41983SOL    HW127956   2.577   0.211   6.076 -1.4250 -0.5666 -0.7617
41983SOL    HW227957   2.510   0.289   6.186  1.4120  1.4112 -0.3436
41984SOL     OW27958   3.374   7.041   5.596  0.3672  0.0814  0.3041
41984SOL    HW127959   3.327   7.084   5.668  0.9383  0.1321  0.6562
41984SOL    HW227960   3.341   6.951   5.598  0.7878 -0.0667  1.0023
41985SOL     OW27961   1.211   6.201   4.299 -0.0678  0.2949  0.9196
41985SOL    HW127962   1.118   6.214   4.281 -0.1442 -0.0549  1.0603
41985SOL    HW227963   1.228   6.110   4.273 -0.1419 -0.1710  2.4032
41986SOL     OW27964  10.434   8.504   3.122 -0.3105  0.0988  0.0680
41986SOL    HW127965  10.513   8.512   3.175 -1.1288 -0.0346  1.3722
41986SOL    HW227966  10.453   8.436   3.059  1.5415  1.8888 -1.4174
41987SOL     OW27967   3.117   4.186   0.012  0.3989 -0.6968  0.5482
41987SOL    HW127968   3.079   4.100   0.034  0.7558 -1.2533 -0.9063
41987SOL    HW227969   3.153   4.174  -0.076 -2.0134  1.7307 -0.8947
41988SOL     OW27970   2.499   1.949   6.049 -0.1739  0.3415  0.9657
41988SOL    HW127971   2.587   1.969   6.016  1.3880 -1.7832  3.4303
41988SOL    HW227972   2.460   2.035   6.067  1.2922  1.3430 -0.3570
41989SOL     OW27973   1.543   8.256   6.302  0.5770  0.0863  0.2209
41989SOL    HW127974   1.489   8.186   6.338  0.0108  0.0928 -0.5902
41989SOL    HW227975   1.511   8.268   6.213  1.1272  0.9099  0.1193
41990SOL     OW27976   9.865   2.188   6.196 -0.8186 -0.2482  0.1847
41990SOL    HW127977   9.935   2.125   6.215 -0.2028 -0.3892 -2.2400
41990SOL    HW227978   9.816   2.148   6.125 -0.2925  2.0341 -1.5522
41991SOL     OW27979   5.202   0.729   9.203 -0.3775  0.7951 -0.2576
41991SOL    HW127980   5.116   0.753   9.167 -0.5402  0.7579  0.0994
41991SOL    HW227981   5.194   0.636   9.223 -0.2125  0.7632 -0.3412
41992SOL     OW27982   3.010   5.749   0.930 -0.4900 -0.0340  0.4842
41992SOL    HW127983   3.044   5.838   0.924 -1.2934  0.2773  0.4388
41992SOL    HW227984   2.915   5.758   0.922 -0.6055 -0.8694  0.7262
41993SOL     OW27985   8.125   8.464   4.530  0.1890  0.1039 -0.1650
41993SOL    HW127986   8.204   8.410   4.526  0.4300  0.4544 -0.2069
41993SOL    HW227987   8.124   8.499   4.619  1.7199  2.4965 -0.9864
41994SOL     OW27988   5.637   5.760   4.804  0.0960 -0.0978  0.0171
41994SOL    HW127989   5.618   5.678   4.848 -1.7288 -0.5326 -1.4711
41994SOL    HW227990   5.717   5.743   4.755 -0.8354 -1.3566 -1.1118
41995SOL     OW27991  10.060   1.076   4.828  0.0612 -0.0698  0.0116
41995SOL    HW127992  10.042   1.118   4.744  0.9910 -0.7124 -0.5433
41995SOL    HW227993  10.146   1.110   4.853  0.2813 -0.7050  0.1457
41996SOL     OW27994   3.091   4.385   1.074  0.0317  1.1559  0.6736
41996SOL    HW127995   3.108   4.458   1.134  0.4326  0.8333  0.9614
41996SOL    HW227996   3.161   4.322   1.093 -0.3456  0.6701  0.4708
41997SOL     OW27997   3.417   8.647   8.707 -0.0712  0.3560 -0.6822
41997SOL    HW127998   3.363   8.692   8.772  0.7867 -0.6059  0.7325
41997SOL    HW227999   3.507   8.669   8.732  0.2884 -0.5389 -1.1713
41998SOL     OW28000   8.350  10.172   5.571 -0.1574 -0.3039 -0.0779
41998SOL    HW128001   8.413  10.201   5.637 -0.1633  0.3482 -0.3595
41998SOL    HW228002   8.397  10.181   5.488  0.3495 -2.4034 -0.0973
41999SOL     OW28003   8.808   6.464   5.093 -0.1039  0.0707 -0.2820
41999SOL    HW128004   8.844   6.513   5.019 -1.3636  0.3362 -0.7398
41999SOL    HW228005   8.760   6.392   5.053  0.7694 -0.8859  0.3569
42000SOL     OW28006   5.739   6.652   3.224  0.0693  0.0438  0.4758
42000SOL    HW128007   5.739   6.744   3.198  0.6578 -0.0072  0.2807
42000SOL    HW228008   5.823   6.639   3.268  0.6493 -0.7537 -0.8010
42001SOL     OW28009   5.832   0.884   8.112 -0.6913 -0.2245  0.3879
42001SOL    HW128010   5.853   0.962   8.061  0.4089 -0.4838  0.4174
42001SOL    HW228011   5.736   0.882   8.115 -0.7440  1.2939  0.6517
42002SOL     OW28012   6.755   5.022   2.556 -0.5203 -0.5108  0.0216
42002SOL    HW128013   6.844   5.053   2.574  0.2398 -1.1791 -2.2712
42002SOL    HW228014   6.748   5.022   2.460 -2.3012 -2.3710  0.0759
42003SOL     OW28015   4.141  11.195   8.305 -0.3054 -0.1660  0.5405
42003SOL    HW128016   4.094  11.258   8.251 -2.1798 -1.8212  0.1003
42003SOL    HW228017   4.231  11.197   8.274 -0.4808  1.7165  0.0557
42004SOL     OW28018   0.096  10.338   7.650 -0.1104 -0.0988 -0.4741
42004SOL    HW128019   0.023  10.376   7.699  0.1298 -0.3413  0.0765
42004SOL    HW228020   0.086  10.374   7.561 -0.5398  0.3556 -0.2499
42005SOL     OW28021   9.443   4.890   1.133  0.0522 -0.2292 -0.1327
42005SOL    HW128022   9.514   4.918   1.190  0.0671 -0.2528 -0.1398
42005SOL    HW228023   9.416   4.805   1.167 -0.3010 -0.0013  0.1728
42006SOL     OW28024   1.679   8.567   8.750  0.1130  0.3672 -0.0443
42006SOL    HW128025   1.692   8.608   8.664  1.0186 -0.8285 -0.5116
42006SOL    HW228026   1.662   8.640   8.809  0.0225  1.2610 -1.1368
42007SOL     OW28027   9.115   0.410   4.318 -0.0014 -0.1275 -0.0380
42007SOL    HW128028   9.024   0.392   4.296  0.3771 -0.0792 -1.8475
42007SOL    HW228029   9.132   0.497   4.282  0.3024  0.6212  1.8280
42008SOL     OW28030   6.959   9.460   0.492 -0.1779  0.4065  0.0052
42008SOL    HW128031   6.986   9.453   0.583  1.0234  0.9485 -0.2947
42008SOL    HW228032   7.031   9.422   0.442 -2.0274 -2.5465 -0.6396
42009SOL     OW28033   1.785   9.697   6.870  0.4293  0.5195 -0.2598
42009SOL    HW128034   1.808   9.780   6.828 -0.0762  0.5187 -0.5442
42009SOL    HW228035   1.699   9.713   6.908 -0.1526 -0.2101 -1.2384
42010SOL     OW28036   8.067   4.588   6.933 -0.0624 -0.0964 -0.5141
42010SOL    HW128037   8.049   4.582   7.027  2.6972  0.3230  0.1426
42010SOL    HW228038   8.056   4.681   6.913 -0.2807 -0.1226 -0.5155
42011SOL     OW28039   4.934  10.915   9.877 -0.1478  0.1460 -0.0273
42011SOL    HW128040   4.966  10.858   9.807 -2.6410 -0.9522 -0.3798
42011SOL    HW228041   4.855  10.955   9.841 -1.5622 -0.5406  2.1459
42012SOL     OW28042  11.163   3.270   6.791  0.2225  0.3923 -0.2319
42012SOL    HW128043  11.220   3.211   6.841 -0.1686 -0.4012 -0.6990
42012SOL    HW228044  11.218   3.302   6.720  0.7067  1.3262  0.5451
42013SOL     OW28045   7.234   5.225   6.768 -0.0755  0.2880 -0.4503
42013SOL    HW128046   7.261   5.295   6.828 -0.0374  2.0449 -2.4196
42013SOL    HW228047   7.210   5.153   6.826 -0.3828  1.9960  1.6962
42014SOL     OW28048   9.987   7.241   0.936  0.5614 -0.1152  0.4784
42014SOL    HW128049   9.960   7.325   0.900 -0.2574 -0.3492  0.5267
42014SOL    HW228050  10.050   7.264   1.004 -0.7398  0.5774  1.5022
42015SOL     OW28051   8.599   4.556  10.491 -1.0924  0.3945 -0.7792
42015SOL    HW128052   8.532   4.537  10.556 -2.4309  1.9704 -1.6349
42015SOL    HW228053   8.642   4.636  10.522 -0.1280 -0.1528 -0.6504
42016SOL     OW28054  11.274   0.123   6.763  0.4823 -0.0924  0.0092
42016SOL    HW128055  11.263   0.062   6.835  1.9256 -1.1608 -0.6259
42016SOL    HW228056  11.192   0.119   6.714  0.0480 -0.4491  0.7596
42017SOL     OW28057   9.093   0.814   0.670 -0.9134  0.5479 -0.3180
42017SOL    HW128058   9.024   0.749   0.663 -0.6464  0.1472  0.6446
42017SOL    HW228059   9.173   0.763   0.685 -0.9445  1.1217  2.1740
42018SOL     OW28060   8.379   6.648   5.212 -0.8953  0.0834  0.4739
42018SOL    HW128061   8.410   6.727   5.255 -1.2471  0.9407 -0.7917
42018SOL    HW228062   8.449   6.625   5.151 -0.9951 -0.3267  0.5095
42019SOL     OW28063   1.412   1.619   0.578  0.4057  0.1754 -0.2827
42019SOL    HW128064   1.427   1.713   0.574 -0.6378  0.3312 -3.5294
42019SOL    HW228065   1.434   1.595   0.668  1.6387  3.3176  0.3853
42020SOL     OW28066   8.795   1.211   3.801 -0.2346 -0.4900  0.2272
42020SOL    HW128067   8.870   1.270   3.790 -0.5650  0.0431  0.7388
42020SOL    HW228068   8.777   1.178   3.713  1.7733 -2.1224  0.3450
42021SOL     OW28069   0.811   7.101   7.192 -0.0079  0.0891 -0.2981
42021SOL    HW128070   0.803   7.017   7.238  1.5870  0.9535  1.7019
42021SOL    HW228071   0.728   7.145   7.207  0.4356  0.3068  1.7850
42022SOL     OW28072   4.239   5.724  10.071 -0.0414 -0.1618 -0.4249
42022SOL    HW128073   4.151   5.685  10.069  0.4452 -1.2842 -1.1223
42022SOL    HW228074   4.247   5.761  10.159  0.1162 -3.3129  1.0514
42023SOL     OW28075   8.279   6.309   0.661  0.1130 -0.2664 -0.0902
42023SOL    HW128076   8.264   6.399   0.690  3.5779  0.6894 -0.7684
42023SOL    HW228077   8.303   6.261   0.740  0.3187 -0.0591 -0.0272
42024SOL     OW28078   2.911   3.165   3.098 -0.6899  0.2999 -0.1649
42024SOL    HW128079   2.865   3.228   3.153 -1.1384  0.8144 -1.0887
42024SOL    HW228080   2.853   3.090   3.094  0.5293 -0.8465  2.1850
42025SOL     OW28081   9.842   8.408   8.463  0.3809  0.3934  0.6171
42025SOL    HW128082   9.899   8.479   8.435 -1.1945  2.0587  1.3862
42025SOL    HW228083   9.767   8.413   8.404  0.9477 -1.7268 -0.3578
42026SOL     OW28084  10.241   1.675   4.994 -1.3529  0.2031 -0.3278
42026SOL    HW128085  10.215   1.609   5.058  1.6261  0.3704  1.2299
42026SOL    HW228086  10.253   1.755   5.046  2.3282  0.0591 -0.6465
42027SOL     OW28087   8.786   2.899   2.034 -0.3956 -0.7420  1.1355
42027SOL    HW128088   8.697   2.918   2.006 -0.6710 -1.8802  1.1844
42027SOL    HW228089   8.799   2.953   2.112 -0.6887  0.1561  0.5738
42028SOL     OW28090   8.181   4.949   3.332 -0.1489  0.1236  0.1782
42028SOL    HW128091   8.137   4.980   3.412 -1.3389  1.0128 -0.7918
42028SOL    HW228092   8.200   5.029   3.283 -0.9365 -0.4973 -1.1875
42029SOL     OW28093   8.094   8.933   0.753 -0.1037  0.8807 -0.3578
42029SOL    HW128094   8.137   9.007   0.710  0.2748  1.8286  1.5548
42029SOL    HW228095   8.108   8.948   0.847 -1.2447 -0.8783  0.1446
42030SOL     OW28096   4.852  10.710   0.815  0.8331  0.5402  0.1867
42030SOL    HW128097   4.810  10.789   0.781 -1.1999 -0.6938 -0.3567
42030SOL    HW228098   4.916  10.685   0.748 -0.6742  0.0681 -1.1391
42031SOL     OW28099  10.908   4.179   3.870 -0.3308  0.0399  0.1358
42031SOL    HW128100  10.903   4.180   3.966 -0.8951  0.4942  0.1032
42031SOL    HW228101  10.896   4.271   3.845 -1.2817 -0.2265 -0.4202
42032SOL     OW28102  10.927   4.750   6.558  0.2861  0.1679  0.2878
42032SOL    HW128103  11.005   4.765   6.612  0.1060  3.1284 -0.1502
42032SOL    HW228104  10.961   4.740   6.470  0.3492 -1.7312  0.4885
42033SOL     OW28105   3.509   8.485   1.811 -0.1742  0.3681  0.6738
42033SOL    HW128106   3.556   8.563   1.839 -0.0364  0.8344 -0.7675
42033SOL    HW228107   3.576   8.430   1.771 -0.3366 -0.3251  1.3446
42034SOL     OW28108   7.636   8.192   3.264  1.0885  0.5436 -0.0792
42034SOL    HW128109   7.576   8.266   3.265 -0.7532 -0.8686  0.8333
42034SOL    HW228110   7.614   8.143   3.343 -0.2184 -2.8328 -2.3309
42035SOL     OW28111   9.238  10.294   9.658  0.1327 -0.0536  0.0252
42035SOL    HW128112   9.312  10.258   9.707  1.9230  0.8475 -1.8698
42035SOL    HW228113   9.273  10.372   9.615 -1.2131 -0.8983 -2.8518
42036SOL     OW28114   3.001   4.593   8.310  0.4121 -0.8502  0.6007
42036SOL    HW128115   2.988   4.508   8.269  0.6073 -0.3094 -0.6477
42036SOL    HW228116   3.020   4.652   8.237 -2.0534  0.7559  1.1443
42037SOL     OW28117   0.034   1.080   6.031 -0.2070 -0.0603 -0.5118
42037SOL    HW128118  -0.045   1.133   6.049  0.3955  0.9236 -0.6682
42037SOL    HW228119   0.099   1.144   6.002 -0.0550 -1.1347 -2.7802
42038SOL     OW28120   6.599  10.045   9.229  0.4442 -0.1331 -0.3328
42038SOL    HW128121   6.561  10.004   9.152 -1.1535  0.6953 -0.0281
42038SOL    HW228122   6.693  10.034   9.218  0.1778 -1.3827 -1.6241
42039SOL     OW28123   4.294   8.309   5.252 -0.3458 -0.0771  0.2907
42039SOL    HW128124   4.369   8.299   5.193  1.1011 -0.2707  2.0828
42039SOL    HW228125   4.327   8.362   5.324 -2.6528  1.9133  0.0014
42040SOL     OW28126   0.984   3.820   3.275 -0.8078 -0.6211 -0.2357
42040SOL    HW128127   1.046   3.747   3.269  0.8957  0.7485  0.1244
42040SOL    HW228128   0.983   3.843   3.368  0.0839  0.9451 -0.5769
42041SOL     OW28129   5.638   8.007   9.502  0.1090  0.0066 -0.1194
42041SOL    HW128130   5.613   8.099   9.493  1.3616  0.2543 -1.5425
42041SOL    HW228131   5.658   7.996   9.595  0.1360  1.2174  0.0300
42042SOL     OW28132   0.756   3.734   0.315  0.3435  0.1155 -0.0114
42042SOL    HW128133   0.839   3.729   0.267  0.2319 -0.2385 -0.1735
42042SOL    HW228134   0.690   3.750   0.248  0.0248 -1.5922 -0.1684
42043SOL     OW28135   1.122   9.148  10.148  0.3425  0.2340  0.8058
42043SOL    HW128136   1.113   9.054  10.136  1.3702  0.2096  0.0106
42043SOL    HW228137   1.032   9.180  10.161 -0.3584 -0.5177 -1.6444
42044SOL     OW28138  10.500   4.649   3.363  0.3528 -0.1438 -0.2022
42044SOL    HW128139  10.479   4.598   3.442  2.2031 -0.1911  0.2990
42044SOL    HW228140  10.435   4.720   3.362 -0.6883 -1.0474  0.4656
42045SOL     OW28141   2.426   1.560   5.018  0.1856  0.0548 -0.3630
42045SOL    HW128142   2.503   1.545   4.962 -1.0427  0.4254 -2.2452
42045SOL    HW228143   2.363   1.493   4.991 -0.9949  1.1860 -0.5176
42046SOL     OW28144   0.748   1.874   5.839 -0.9179 -0.0430  0.3502
42046SOL    HW128145   0.794   1.855   5.757  0.5366 -0.7619  1.3131
42046SOL    HW228146   0.748   1.970   5.844  1.5462  0.0013  0.8626
42047SOL     OW28147   9.966   6.106   7.036  0.2007  0.7510  0.5972
42047SOL    HW128148   9.910   6.178   7.065 -0.0025 -0.2018  2.7965
42047SOL    HW228149  10.053   6.130   7.067  0.0971  0.0067  1.5248
42048SOL     OW28150   4.652   6.361   4.735 -0.1104 -0.6932 -0.1408
42048SOL    HW128151   4.670   6.276   4.695 -1.1898 -1.1384  0.3011
42048SOL    HW228152   4.561   6.379   4.715 -0.7002 -0.9254  2.0494
42049SOL     OW28153   0.608  10.984   8.359  0.2602  0.0549  0.1557
42049SOL    HW128154   0.599  10.890   8.344  1.0693 -0.3626  1.9722
42049SOL    HW228155   0.521  11.012   8.390 -0.2114  0.0959 -1.1506
42050SOL     OW28156   9.883  10.074   5.568 -0.7146  0.2792 -0.0404
42050SOL    HW128157   9.832  10.106   5.642  2.0301  0.6104  1.8485
42050SOL    HW228158   9.890   9.979   5.582  0.7924  0.4945  0.8565
42051SOL     OW28159   4.552   9.277   6.656  0.1203  0.4768  0.0563
42051SOL    HW128160   4.554   9.370   6.634 -0.3035  1.0785  2.2644
42051SOL    HW228161   4.620   9.237   6.602 -1.5747  1.4959 -3.0920
42052SOL     OW28162   8.919   9.175   8.332  0.3015 -0.3409  0.4868
42052SOL    HW128163   8.906   9.152   8.424  0.6343  1.3792  1.0146
42052SOL    HW228164   8.833   9.206   8.303  0.2507 -0.6754  0.2775
42053SOL     OW28165   7.697   6.099  10.905 -0.5355  0.7434 -0.6881
42053SOL    HW128166   7.694   6.099  10.809  1.5210  3.9749 -0.9056
42053SOL    HW228167   7.790   6.102  10.926 -0.9376 -0.1484  1.4647
42054SOL     OW28168   6.681   2.996   0.054 -0.1929  0.2549 -0.2984
42054SOL    HW128169   6.616   2.928   0.070 -1.4104  1.0044 -1.7955
42054SOL    HW228170   6.746   2.983   0.123 -1.4967 -1.0347  0.7689
42055SOL     OW28171   3.398  10.282   4.526 -0.0126  0.7065 -0.0789
42055SOL    HW128172   3.432  10.369   4.506  1.1096  0.3673  0.2691
42055SOL    HW228173   3.426  10.228   4.452 -1.6998  0.8549 -0.8696
42056SOL     OW28174   3.301  10.280   6.220  0.3247 -0.3165 -0.3954
42056SOL    HW128175   3.295  10.185   6.204  0.6445 -0.4565  0.2834
42056SOL    HW228176   3.263  10.319   6.141  1.1184 -0.9912 -1.1316
42057SOL     OW28177   4.354  10.767  10.264 -0.1970 -0.3922 -0.1727
42057SOL    HW128178   4.317  10.681  10.247 -0.2245 -0.0603 -2.0204
42057SOL    HW228179   4.369  10.804  10.177  2.2492  0.4277  0.5155
42058SOL     OW28180   6.480  10.403   6.705  0.5263  0.0064  0.3143
42058SOL    HW128181   6.512  10.400   6.615 -1.5978  0.3766 -0.5057
42058SOL    HW228182   6.536  10.341   6.753  2.8118  1.0566 -0.8313
42059SOL     OW28183   1.454   7.882   9.470  0.0624  0.0410 -0.5601
42059SOL    HW128184   1.450   7.818   9.398  0.3835  0.2782 -0.7918
42059SOL    HW228185   1.545   7.912   9.470 -0.4876  1.8529 -1.6440
42060SOL     OW28186  10.972   9.559   7.947 -0.2902 -0.6648 -0.4941
42060SOL    HW128187  10.891   9.579   7.899 -0.6783 -3.3900 -1.1651
42060SOL    HW228188  10.966   9.612   8.027 -1.8337  0.5714 -1.3587
42061SOL     OW28189   0.183   6.657   4.103 -0.5953 -0.1500 -0.4944
42061SOL    HW128190   0.227   6.729   4.059 -0.3248  0.0209  0.0436
42061SOL    HW228191   0.254   6.598   4.128 -0.3959  1.0565  2.1118
42062SOL     OW28192   6.306   6.463   2.684 -0.0164  0.3234 -0.2712
42062SOL    HW128193   6.349   6.381   2.662  4.0895  1.3054  2.8076
42062SOL    HW228194   6.224   6.437   2.727  0.5176 -2.0790 -0.5690
42063SOL     OW28195   1.547   6.472   8.040 -0.3013 -0.5451  0.3641
42063SOL    HW128196   1.538   6.567   8.038 -2.7583 -0.7155 -0.3611
42063SOL    HW228197   1.541   6.448   8.132 -0.2161 -0.0237  0.5038
42064SOL     OW28198   9.620   5.346   0.704 -0.3398  0.0394  0.3882
42064SOL    HW128199   9.637   5.409   0.633 -0.9344  0.2346  0.4198
42064SOL    HW228200   9.614   5.262   0.659 -1.0981  0.2123  0.1548
42065SOL     OW28201   9.607  10.380   0.449 -0.1516  0.0088 -0.1263
42065SOL    HW128202   9.591  10.464   0.407  3.7198  0.1127 -1.8394
42065SOL    HW228203   9.634  10.403   0.538 -0.0968  0.4961 -0.2660
42066SOL     OW28204   5.229   1.924   5.792 -0.7691  0.5565 -0.0004
42066SOL    HW128205   5.183   2.006   5.774 -1.7339 -0.0496 -0.3672
42066SOL    HW228206   5.222   1.913   5.887 -0.3569  1.0534  0.0911
42067SOL     OW28207   7.379  10.097   2.428  0.0819  0.7817  0.1910
42067SOL    HW128208   7.329  10.016   2.435  0.2608  0.2567 -3.2698
42067SOL    HW228209   7.467  10.073   2.458 -0.0851 -0.0473  0.0283
42068SOL     OW28210   3.605   9.040   1.555 -0.2956  0.7056  0.3616
42068SOL    HW128211   3.547   9.103   1.512  2.4578  2.1027 -1.6174
42068SOL    HW228212   3.689   9.086   1.561  1.5876 -2.4096 -0.1945
42069SOL     OW28213   8.975  10.090   0.210 -0.3501 -0.3306  0.0948
42069SOL    HW128214   8.984  10.122   0.120  2.7888 -0.2393  0.3434
42069SOL    HW228215   8.946   9.999   0.200 -3.4808  0.6268 -0.7923
42070SOL     OW28216   4.127   6.102  11.180 -0.2461 -0.0354  0.0293
42070SOL    HW128217   4.221   6.117  11.169 -0.1265  0.7301  1.8223
42070SOL    HW228218   4.122   6.032  11.245 -0.9312 -1.7479 -1.7745
42071SOL     OW28219   8.132   2.494   2.715  0.3680 -0.0015  0.0181
42071SOL    HW128220   8.172   2.579   2.735 -0.4475  0.1282  1.1563
42071SOL    HW228221   8.115   2.498   2.621 -1.8447  2.0930  0.4077
42072SOL     OW28222   6.635   4.398   9.238 -0.1338 -0.2334  0.8400
42072SOL    HW128223   6.631   4.472   9.177 -2.3465  1.9533  3.3861
42072SOL    HW228224   6.721   4.405   9.278  1.2795 -1.5880 -1.6982
42073SOL     OW28225   4.226   5.455   9.382 -0.1978  0.5842  0.2996
42073SOL    HW128226   4.266   5.496   9.459  3.9494 -0.1581 -1.2151
42073SOL    HW228227   4.168   5.522   9.347  1.2424  2.6440  1.6065
42074SOL     OW28228   7.641   5.128   0.212  0.1218  0.2768 -0.2597
42074SOL    HW128229   7.645   5.067   0.286 -3.7814  0.0903  0.0102
42074SOL    HW228230   7.619   5.212   0.252 -1.3643  0.3116 -1.0720
42075SOL     OW28231   0.644  10.419   3.336  0.4670 -0.0966  0.1673
42075SOL    HW128232   0.580  10.462   3.279  1.3113 -1.6588 -2.1120
42075SOL    HW228233   0.667  10.339   3.290  0.8208 -1.7884  3.0306
42076SOL     OW28234   7.751   5.284   3.896 -0.1045 -0.4564 -0.0165
42076SOL    HW128235   7.674   5.289   3.839  0.3540  0.3700 -0.5898
42076SOL    HW228236   7.751   5.193   3.928  0.0505 -1.1850 -1.9547
42077SOL     OW28237   8.319   8.877   9.252 -0.4494  0.4602  0.5134
42077SOL    HW128238   8.285   8.810   9.192  1.2055 -0.0286  0.0621
42077SOL    HW228239   8.391   8.833   9.298  0.6333  1.9090  0.2576
42078SOL     OW28240   5.071   9.523   1.106 -0.3607 -0.0993  0.3693
42078SOL    HW128241   5.014   9.594   1.137 -1.1833 -0.2652 -0.7273
42078SOL    HW228242   5.078   9.464   1.181  0.2890  1.0870  1.2872
42079SOL     OW28243   9.994   3.852   6.181 -0.4274  0.3984 -0.1825
42079SOL    HW128244  10.005   3.795   6.105 -0.6330 -1.8574  1.3706
42079SOL    HW228245  10.082   3.865   6.215 -0.5144 -0.2269  0.2949
42080SOL     OW28246   4.226   1.378   6.542 -0.8956 -0.2752  0.1440
42080SOL    HW128247   4.313   1.415   6.553 -0.8675  0.3262 -1.6732
42080SOL    HW228248   4.214   1.320   6.617  0.8029  0.1169  0.7552
42081SOL     OW28249   3.617   1.764   6.807  0.1619 -0.1039  1.0098
42081SOL    HW128250   3.640   1.838   6.751 -0.3862  0.7201  1.8523
42081SOL    HW228251   3.701   1.726   6.833  0.4538 -1.1239 -1.1107
42082SOL     OW28252   7.695   5.837  11.163 -0.0258 -0.3760 -0.4791
42082SOL    HW128253   7.616   5.786  11.143 -0.8689  0.5963  0.2363
42082SOL    HW228254   7.764   5.795  11.112 -1.4568  0.1991 -3.1001
42083SOL     OW28255   7.057   7.199   9.051 -0.1219  0.1315  0.4033
42083SOL    HW128256   7.120   7.127   9.044 -0.3563 -0.0284 -0.0985
42083SOL    HW228257   7.011   7.199   8.967 -0.9778  0.0775  0.8680
42084SOL     OW28258   2.987  10.603   0.476 -0.4367 -0.0336  0.0019
42084SOL    HW128259   2.902  10.574   0.442  0.5505 -1.7690 -1.0853
42084SOL    HW228260   3.003  10.686   0.430 -1.8420  0.7213  0.7841
42085SOL     OW28261   1.278   6.282  10.817  0.7334 -0.2672 -0.8786
42085SOL    HW128262   1.250   6.326  10.737  0.0076  0.2573 -0.3600
42085SOL    HW228263   1.247   6.340  10.887 -1.5553 -2.2519 -0.0793
42086SOL     OW28264  10.411   2.234  11.071 -0.3640  0.5730  0.1779
42086SOL    HW128265  10.327   2.246  11.028 -0.0806 -0.8549 -0.8308
42086SOL    HW228266  10.464   2.185  11.008  0.4868 -0.4797  1.6376
42087SOL     OW28267   1.417   7.170   2.452  0.3356 -0.1522  0.6905
42087SOL    HW128268   1.478   7.111   2.407  0.9058  1.5130 -0.8121
42087SOL    HW228269   1.346   7.185   2.390  0.6071  1.3574  0.7018
42088SOL     OW28270   9.669   3.087   2.278 -0.3726 -0.1981 -0.0139
42088SOL    HW128271   9.727   3.156   2.310 -0.1324  0.2652 -1.4035
42088SOL    HW228272   9.663   3.025   2.351 -0.2581  1.0639  1.1060
42089SOL     OW28273   2.510   8.312   2.397  0.1769  0.4300  0.0604
42089SOL    HW128274   2.514   8.233   2.451  1.8800  0.6667  0.3344
42089SOL    HW228275   2.438   8.295   2.336 -1.1255 -0.2857  1.6822
42090SOL     OW28276   8.872   4.239   7.368 -0.0042  0.4052  1.3327
42090SOL    HW128277   8.910   4.219   7.282 -1.0758 -1.0584  1.1504
42090SOL    HW228278   8.827   4.322   7.355  0.7901  0.7684  0.7970
42091SOL     OW28279   8.603   8.697   6.126 -0.6358 -0.2016 -0.2999
42091SOL    HW128280   8.673   8.703   6.192 -0.2091 -2.6161 -0.4469
42091SOL    HW228281   8.611   8.608   6.091 -4.2067 -0.8370  0.1499
42092SOL     OW28282   4.799   8.274   3.547  0.6169  0.8726 -0.3234
42092SOL    HW128283   4.808   8.238   3.459 -0.4912 -3.4134  1.0629
42092SOL    HW228284   4.707   8.302   3.551  0.3216 -0.0626 -0.2299
42093SOL     OW28285   8.857   8.082   8.160  0.4810  0.0468 -0.2289
42093SOL    HW128286   8.855   7.987   8.173 -2.6880  0.0759  0.2055
42093SOL    HW228287   8.904   8.094   8.078 -0.3564 -2.0241 -1.0761
42094SOL     OW28288   9.776   2.532   4.355  0.2589  0.4665 -0.1271
42094SOL    HW128289   9.763   2.556   4.447  1.4581  0.3565  0.0792
42094SOL    HW228290   9.709   2.465   4.338 -0.3841  0.9397  0.4703
42095SOL     OW28291  10.041   5.125   6.194  0.1170 -0.2396 -0.0471
42095SOL    HW128292  10.100   5.133   6.269  0.7079  2.9235 -0.7186
42095SOL    HW228293  10.088   5.069   6.133 -0.1480 -2.4419  1.6584
42096SOL     OW28294   1.914   5.353   6.846  0.3230  0.5816  0.5776
42096SOL    HW128295   1.933   5.259   6.841  1.9136  0.9049 -0.2087
42096SOL    HW228296   1.921   5.375   6.939 -1.6766 -0.3508  0.9979
42097SOL     OW28297   6.923   5.343   1.783 -0.6445 -0.9532 -0.9148
42097SOL    HW128298   7.014   5.372   1.784 -0.9010  0.0189  1.5300
42097SOL    HW228299   6.927   5.250   1.804 -0.2552 -0.1221  3.6572
42098SOL     OW28300   0.952   4.350   1.316 -0.0249  0.1771  0.1126
42098SOL    HW128301   0.901   4.374   1.239 -0.3361 -3.1854 -0.8667
42098SOL    HW228302   0.892   4.299   1.370  0.2937  2.1520  2.5081
42099SOL     OW28303   6.263   0.580   2.386  0.3363 -0.5448 -0.3207
42099SOL    HW128304   6.318   0.503   2.399  0.8323  0.0793  1.7919
42099SOL    HW228305   6.293   0.642   2.453 -2.4068  0.1028  0.4282
42100SOL     OW28306   7.245   1.406   2.778  0.0219  0.3548  0.4395
42100SOL    HW128307   7.308   1.476   2.795  0.0104  0.0816  1.6880
42100SOL    HW228308   7.181   1.445   2.718  2.0476  0.2443 -1.9085
42101SOL     OW28309   2.886   0.789  10.012 -0.1208  0.0093  0.3847
42101SOL    HW128310   2.823   0.855   9.982 -1.3575 -0.7059  1.3169
42101SOL    HW228311   2.954   0.840  10.057 -1.0777  0.6842  1.1276
42102SOL     OW28312   4.917   3.495   5.571  0.8665 -0.5356  0.5168
42102SOL    HW128313   4.863   3.503   5.492 -1.0360 -1.1737  1.7011
42102SOL    HW228314   4.958   3.581   5.580 -0.3547  0.1463 -0.1558
42103SOL     OW28315   4.361   9.354  10.317  0.3825  0.0070 -0.7074
42103SOL    HW128316   4.338   9.443  10.290  1.2438  0.5538  0.2878
42103SOL    HW228317   4.442   9.364  10.368  0.0092 -1.2180  0.1879
42104SOL     OW28318   4.101   8.530   8.561  0.1349  0.2337 -0.4786
42104SOL    HW128319   4.159   8.454   8.554  0.3884  0.4135 -0.3356
42104SOL    HW228320   4.095   8.563   8.471 -0.0532 -0.0084 -0.5578
42105SOL     OW28321   3.204   8.568   8.284  0.3399 -0.5018 -0.1311
42105SOL    HW128322   3.199   8.582   8.379  0.2124 -2.3904  0.1803
42105SOL    HW228323   3.113   8.565   8.255  0.2605  3.7419 -1.0340
42106SOL     OW28324   6.656   1.038   3.010  0.6501  0.3797 -0.1863
42106SOL    HW128325   6.716   1.082   2.950  1.2398  0.7364  0.6396
42106SOL    HW228326   6.571   1.040   2.966  0.0204  4.5639  0.7710
42107SOL     OW28327   1.150   1.037   2.486  1.0642 -0.1749  0.1183
42107SOL    HW128328   1.130   1.129   2.470 -0.0037 -0.2592  0.8772
42107SOL    HW228329   1.243   1.029   2.466  0.6967  0.5480 -2.2010
42108SOL     OW28330   3.060  10.833   5.789 -0.9046  0.0718  1.3981
42108SOL    HW128331   2.994  10.842   5.720  0.5346  0.1423 -0.0211
42108SOL    HW228332   3.120  10.906   5.774  0.8673 -1.3932  1.0616
42109SOL     OW28333   9.435   3.708   6.979 -0.5824  0.5682  0.5774
42109SOL    HW128334   9.469   3.625   7.012 -0.4656  0.3652 -0.0393
42109SOL    HW228335   9.364   3.683   6.919 -0.7193  0.9252  0.5876
42110SOL     OW28336   5.591  10.493   9.107  0.0545  0.4762  0.5692
42110SOL    HW128337   5.667  10.543   9.138  0.8607 -0.0641 -0.4647
42110SOL    HW228338   5.518  10.524   9.161  1.1378  0.4762  2.0945
42111SOL     OW28339   9.241  10.193  10.638 -0.1408  0.0294 -0.0445
42111SOL    HW128340   9.242  10.249  10.560  1.0359  0.2605  0.1145
42111SOL    HW228341   9.167  10.224  10.690 -0.7296  0.0937 -0.9089
42112SOL     OW28342   4.288   9.153   6.585 -0.1221  0.0063 -0.1606
42112SOL    HW128343   4.313   9.207   6.510  0.4518  2.6740  1.8335
42112SOL    HW228344   4.364   9.156   6.644 -1.7523  0.8348  2.0198
42113SOL     OW28345   9.315   4.936   7.977 -0.9202 -0.4732  0.8254
42113SOL    HW128346   9.310   4.993   7.900 -2.0035  0.3809  1.4920
42113SOL    HW228347   9.255   4.976   8.040 -0.7813 -1.6934  1.7674
42114SOL     OW28348   7.203   9.846   9.013 -0.1079  0.1454  0.0729
42114SOL    HW128349   7.130   9.785   9.001  0.0133 -0.2838  1.3702
42114SOL    HW228350   7.235   9.863   8.924  0.8752 -2.9309 -0.2948
42115SOL     OW28351   8.484   0.298   6.839  0.0990  0.1867  0.0571
42115SOL    HW128352   8.546   0.277   6.769 -0.0199 -0.1248  0.0425
42115SOL    HW228353   8.442   0.379   6.811 -2.1794 -1.4872 -1.7720
42116SOL     OW28354   0.141   6.295  10.282 -0.0819 -0.0192  0.5540
42116SOL    HW128355   0.131   6.200  10.273 -1.0882  0.1973 -1.1551
42116SOL    HW228356   0.206   6.319  10.217 -1.9536  0.7555 -1.1485
42117SOL     OW28357   2.394  10.196   4.032 -0.2533  0.2796  0.2677
42117SOL    HW128358   2.391  10.111   3.989  0.9504  1.2958 -2.0090
42117SOL    HW228359   2.483  10.201   4.069  0.1823  1.0343 -0.8139
42118SOL     OW28360   6.693   9.409   3.580  0.1897 -0.4134 -0.5137
42118SOL    HW128361   6.696   9.342   3.647 -0.4528  0.6157  0.5811
42118SOL    HW228362   6.771   9.462   3.595 -0.7559  0.7614  0.4811
42119SOL     OW28363   7.654   8.145   7.947  0.1817 -0.1128  0.1036
42119SOL    HW128364   7.564   8.114   7.958  0.3589 -1.0234 -0.8365
42119SOL    HW228365   7.676   8.185   8.030 -1.2120  0.4165  0.2377
42120SOL     OW28366   4.915   7.015   1.997  0.7089  0.2595 -0.7304
42120SOL    HW128367   4.858   7.063   1.936  0.0383  0.1275 -0.2175
42120SOL    HW228368   4.880   7.036   2.083  0.6076 -0.8936 -0.4793
42121SOL     OW28369   5.314   8.324   7.536  0.1029  0.0078  0.5880
42121SOL    HW128370   5.408   8.332   7.524 -0.2214  1.3283 -1.8775
42121SOL    HW228371   5.296   8.366   7.620  1.8805 -2.2045  2.1693
42122SOL     OW28372   0.912   6.351   6.976 -0.4783 -0.1509  0.0682
42122SOL    HW128373   0.969   6.352   7.053  0.4895 -0.0299 -0.6346
42122SOL    HW228374   0.846   6.418   6.995  0.4750  0.7618  0.2673
42123SOL     OW28375   9.234   6.021   2.255  0.2363  0.3565 -0.1019
42123SOL    HW128376   9.156   6.038   2.308  2.2627  4.1079  2.0790
42123SOL    HW228377   9.302   6.000   2.318  1.6480 -0.1248 -1.7127
42124SOL     OW28378   3.892   1.626  10.333 -0.2786 -0.7651  0.1771
42124SOL    HW128379   3.863   1.694  10.395 -0.8183 -0.4717 -0.3815
42124SOL    HW228380   3.967   1.665  10.289 -0.4076 -0.6409  0.0641
42125SOL     OW28381   7.170   5.743   3.832  0.5384  0.3198  0.2049
42125SOL    HW128382   7.173   5.709   3.921 -1.8802  1.4978  0.8216
42125SOL    HW228383   7.153   5.666   3.778 -0.1902 -0.1297  1.0369
42126SOL     OW28384   2.386   8.535   7.279 -0.2318 -0.3096 -0.3890
42126SOL    HW128385   2.414   8.531   7.188  0.4039  1.0198 -0.2799
42126SOL    HW228386   2.311   8.476   7.284  0.6807 -1.6117 -1.3974
42127SOL     OW28387   7.000   4.541   8.040  0.4763  0.2960 -0.1943
42127SOL    HW128388   6.927   4.601   8.056  0.6615  0.5167 -0.1726
42127SOL    HW228389   6.977   4.462   8.090 -0.0588  0.1150 -0.7147
42128SOL     OW28390  10.520   1.183   2.359 -0.1457  0.7374 -0.3585
42128SOL    HW128391  10.573   1.126   2.303  1.7524  2.5148 -0.4714
42128SOL    HW228392  10.458   1.123   2.401 -1.1567 -0.7792 -3.6892
42129SOL     OW28393   4.125   3.856   8.404 -0.2241 -0.6508 -0.0461
42129SOL    HW128394   4.035   3.825   8.393  0.0005 -1.0407 -0.8791
42129SOL    HW228395   4.172   3.819   8.329  0.3740  0.5286 -0.2854
42130SOL     OW28396   2.950  10.303  10.132 -0.4914 -0.4834  0.2749
42130SOL    HW128397   2.995  10.245  10.193  0.8876  0.0107 -0.2557
42130SOL    HW228398   2.862  10.265  10.124 -0.2480 -1.3651  1.4423
42131SOL     OW28399   4.435   0.481   3.188  0.3339 -0.1496 -0.5748
42131SOL    HW128400   4.358   0.528   3.220  0.3966  0.8273 -1.8008
42131SOL    HW228401   4.503   0.498   3.253 -0.3376 -0.6413  0.2792
42132SOL     OW28402   3.106   8.676   7.290 -0.0710  0.5186  0.2005
42132SOL    HW128403   3.094   8.594   7.339 -0.5590 -0.1741 -1.0530
42132SOL    HW228404   3.043   8.671   7.219 -0.1941  2.0591  0.1857
42133SOL     OW28405   8.222   8.510   9.992 -0.1611  0.3045 -0.0520
42133SOL    HW128406   8.187   8.545   9.910  1.0694  0.2926 -0.6073
42133SOL    HW228407   8.261   8.426   9.968  1.5384  0.9745  0.2049
42134SOL     OW28408   3.286   7.586   8.765  0.4215 -0.4100  0.5611
42134SOL    HW128409   3.363   7.554   8.812  1.0759 -0.9100 -0.8027
42134SOL    HW228410   3.301   7.560   8.674 -0.5426  1.0272 -0.0358
42135SOL     OW28411  11.063   0.646   3.709  0.3255  0.3684  0.3292
42135SOL    HW128412  11.000   0.717   3.703 -1.2630 -1.0091 -0.0325
42135SOL    HW228413  11.141   0.679   3.664 -0.7050  1.5223 -0.6910
42136SOL     OW28414   0.533   5.520   0.305 -0.5758  0.1073 -0.0672
42136SOL    HW128415   0.522   5.509   0.211 -1.6773 -4.7445  0.3651
42136SOL    HW228416   0.615   5.474   0.325 -1.8167 -1.5396  1.5767
42137SOL     OW28417   4.379   8.905   5.039 -0.0584 -0.4080 -0.0503
42137SOL    HW128418   4.388   8.981   5.097 -1.1531  0.3701 -0.8559
42137SOL    HW228419   4.463   8.900   4.993 -0.2274  0.7765 -0.5232
42138SOL     OW28420   2.593   5.445  10.700 -0.2406  0.6225 -0.4052
42138SOL    HW128421   2.649   5.367  10.702 -1.0779  0.0217  0.6495
42138SOL    HW228422   2.536   5.436  10.776 -2.5226  0.6333 -1.9908
42139SOL     OW28423   3.989   1.198   1.872  0.8842 -0.0887  0.1610
42139SOL    HW128424   3.945   1.272   1.914  1.0696 -0.2692  0.6795
42139SOL    HW228425   3.946   1.190   1.786 -0.9643 -1.0441  1.1111
42140SOL     OW28426   8.800   8.513   5.399 -0.4210  0.4367  0.2625
42140SOL    HW128427   8.790   8.561   5.317  0.1874  0.4735  0.2072
42140SOL    HW228428   8.848   8.573   5.456  3.7421 -1.3391 -0.9813
42141SOL     OW28429   4.034   9.816   9.981  0.3335 -0.3567  0.4588
42141SOL    HW128430   4.106   9.866   9.944 -0.1703  0.9889  1.2497
42141SOL    HW228431   4.062   9.724   9.973  1.6162  0.0755 -0.2816
42142SOL     OW28432   4.473   0.132   5.385 -0.2342 -0.9965 -0.4607
42142SOL    HW128433   4.564   0.110   5.405 -0.7029 -1.2150  1.7258
42142SOL    HW228434   4.423   0.057   5.419 -1.2023 -1.3059 -2.4427
42143SOL     OW28435   8.322   6.344   3.695 -0.5753 -0.2071 -0.3115
42143SOL    HW128436   8.306   6.256   3.729 -0.5272  0.5195  1.7846
42143SOL    HW228437   8.258   6.399   3.742  2.1160  1.4682  1.7150
42144SOL     OW28438   8.179   2.259   6.801  0.0272  0.4732 -0.2484
42144SOL    HW128439   8.237   2.190   6.768  1.4810  0.1470  2.7380
42144SOL    HW228440   8.091   2.222   6.792  0.7374 -1.5913  0.7473
42145SOL     OW28441   9.492   5.861   1.834 -0.0616  0.3750 -0.8805
42145SOL    HW128442   9.542   5.892   1.758 -0.0362  0.6002 -0.7749
42145SOL    HW228443   9.407   5.905   1.826  0.2745  1.1636 -0.2639
42146SOL     OW28444   1.923   2.508   4.429 -0.1382 -0.2492  0.3943
42146SOL    HW128445   1.906   2.427   4.477 -1.4078 -0.7183 -0.7608
42146SOL    HW228446   1.960   2.479   4.346 -1.4535  0.2602 -0.4036
42147SOL     OW28447   7.418   2.326   6.785 -1.0827 -0.1095 -1.0640
42147SOL    HW128448   7.399   2.260   6.852  1.3389  0.1109 -0.0550
42147SOL    HW228449   7.450   2.276   6.711 -3.0735 -0.3000 -1.8458
42148SOL     OW28450   1.916  11.009  10.272 -0.2012  0.0928 -0.0830
42148SOL    HW128451   1.897  11.102  10.281  0.0834  0.0682  0.8476
42148SOL    HW228452   1.835  10.971  10.237 -0.2584  0.7032 -0.6371
42149SOL     OW28453   6.110   5.507  10.049 -0.0554 -0.5168 -0.6378
42149SOL    HW128454   6.047   5.525   9.979 -0.9650 -1.5327 -0.1142
42149SOL    HW228455   6.104   5.412  10.062 -0.4955 -0.2570  1.3340
42150SOL     OW28456   6.870   6.910   2.818  0.5134 -0.2819 -0.4590
42150SOL    HW128457   6.847   6.886   2.729  3.3577 -1.5506 -0.9658
42150SOL    HW228458   6.808   6.862   2.873 -2.0626  1.4484 -1.6698
42151SOL     OW28459   8.996  10.962   2.153 -0.0273 -0.1571  0.1093
42151SOL    HW128460   9.054  11.027   2.114  3.3407 -1.4380  2.4439
42151SOL    HW228461   9.001  10.978   2.247 -2.0936 -1.4955  0.5211
42152SOL     OW28462   0.191   2.109   6.336 -0.6094  0.4518 -0.1199
42152SOL    HW128463   0.172   2.200   6.312 -2.0197 -0.1373 -1.4751
42152SOL    HW228464   0.268   2.086   6.284 -1.3703  0.3470 -1.2510
42153SOL     OW28465   4.218   1.051   5.541 -0.0065  0.3008 -0.5713
42153SOL    HW128466   4.203   1.047   5.447  0.9732  1.1928 -0.7783
42153SOL    HW228467   4.234   0.960   5.567 -1.0305 -0.0564 -1.1179
42154SOL     OW28468  10.819   0.554   0.088 -0.4401  0.3289 -0.0478
42154SOL    HW128469  10.909   0.585   0.097 -0.2290  0.3318 -1.8916
42154SOL    HW228470  10.786   0.598   0.010 -1.9444  0.0725  0.4209
42155SOL     OW28471   1.697   4.451   4.697  0.1918 -0.2546 -0.8319
42155SOL    HW128472   1.637   4.433   4.769 -0.7932  0.0371 -1.5552
42155SOL    HW228473   1.756   4.519   4.731 -0.2160 -0.1729 -0.2844
42156SOL     OW28474   5.587  10.089   1.093 -0.5555  0.3849 -0.0165
42156SOL    HW128475   5.546  10.099   1.179  0.8385  0.4873  0.6691
42156SOL    HW228476   5.605   9.995   1.087  0.9218  0.5980  0.5968
42157SOL     OW28477   9.478   2.508   3.520  0.9089 -0.5044  0.4468
42157SOL    HW128478   9.486   2.417   3.549  4.5918 -0.6082 -0.4390
42157SOL    HW228479   9.564   2.547   3.537  0.1964  2.1721 -1.3870
42158SOL     OW28480   0.110   0.709   8.692 -0.3560 -0.7590 -0.7760
42158SOL    HW128481   0.084   0.706   8.784  0.2188 -1.2961 -0.6262
42158SOL    HW228482   0.031   0.683   8.644 -0.2929 -1.7356 -0.3663
42159SOL     OW28483  10.637   3.055   7.852  0.0385  0.1923  0.6319
42159SOL    HW128484  10.553   3.013   7.829 -0.1551  0.2651  1.1896
42159SOL    HW228485  10.614   3.145   7.872  0.2722  0.2474  0.6532
42160SOL     OW28486  10.854   1.046   0.426  0.3647  0.4095  0.4742
42160SOL    HW128487  10.809   1.127   0.403  0.2930 -0.2678 -1.9806
42160SOL    HW228488  10.835   1.034   0.519 -0.7580  2.4721  0.5724
42161SOL     OW28489   8.264   2.671   8.566  0.1872  0.0778 -0.4365
42161SOL    HW128490   8.277   2.752   8.616 -0.6224  0.5149 -0.9226
42161SOL    HW228491   8.172   2.648   8.580  0.6295 -1.3070  0.4882
42162SOL     OW28492   3.093   0.046   2.449 -0.5828  0.0344  0.1236
42162SOL    HW128493   3.042  -0.031   2.423  1.4836 -0.7004 -2.1669
42162SOL    HW228494   3.078   0.109   2.378  0.0402  0.6151  0.4991
42163SOL     OW28495   9.133   6.051   7.578  0.8578  0.1034 -0.1193
42163SOL    HW128496   9.181   5.985   7.628 -0.2427 -0.3946  0.3105
42163SOL    HW228497   9.192   6.074   7.506  2.2216  0.3857  1.0433
42164SOL     OW28498   8.528   4.093   4.315 -0.0479  1.2634 -0.6137
42164SOL    HW128499   8.593   4.159   4.288  0.9289  1.6280  2.2800
42164SOL    HW228500   8.574   4.010   4.308 -0.0852  1.2635 -0.8699
42165SOL     OW28501   7.855   6.524   2.809  0.6886 -0.2987 -1.0509
42165SOL    HW128502   7.877   6.435   2.784  1.2331 -0.1561 -1.1029
42165SOL    HW228503   7.934   6.575   2.789  0.3084  0.2345 -1.2392
42166SOL     OW28504   6.105   8.548   3.303  0.0344 -0.8296  0.1934
42166SOL    HW128505   6.104   8.626   3.358 -0.4787 -1.7220  1.4973
42166SOL    HW228506   6.022   8.551   3.255  0.5942  0.0827 -0.7696
42167SOL     OW28507   7.690  10.505   6.252 -0.3909  0.7483  0.1375
42167SOL    HW128508   7.730  10.433   6.301 -0.0157  0.8866  0.0385
42167SOL    HW228509   7.596  10.494   6.266 -0.3673 -0.0681 -0.3023
42168SOL     OW28510   2.867   5.806   7.341 -0.3656 -0.6023  0.2021
42168SOL    HW128511   2.848   5.860   7.418  1.3828 -0.0844  0.3092
42168SOL    HW228512   2.793   5.746   7.336 -2.4504  1.7907  0.0397
42169SOL     OW28513   9.436   9.867  10.790  0.0708  1.0447 -0.3884
42169SOL    HW128514   9.449   9.896  10.881 -1.6183  0.6276  0.0368
42169SOL    HW228515   9.524   9.847  10.758  0.7528  1.6678  0.9955
42170SOL     OW28516   6.172   6.316   0.072 -0.1954 -0.1933  0.5181
42170SOL    HW128517   6.249   6.290   0.123  0.4383  1.0703  0.2396
42170SOL    HW228518   6.187   6.408   0.052 -0.3088 -0.6878 -2.1379
42171SOL     OW28519   7.705   6.985   6.461  0.2365 -0.0310  0.6912
42171SOL    HW128520   7.717   7.001   6.367 -0.1107 -2.7888  0.0812
42171SOL    HW228521   7.712   7.071   6.501  0.2589  1.2686 -1.8777
42172SOL     OW28522   4.342   8.224   9.274  1.0097 -0.1996  0.3111
42172SOL    HW128523   4.277   8.280   9.315  3.1432  2.1372  0.6905
42172SOL    HW228524   4.360   8.265   9.190  2.0158 -0.7980  0.2168
42173SOL     OW28525   0.972   8.522   5.951 -0.1983 -1.1324  0.2755
42173SOL    HW128526   0.925   8.453   5.997 -1.6842 -0.1717  0.2644
42173SOL    HW228527   0.932   8.525   5.864  2.0302 -2.3909 -0.9083
42174SOL     OW28528   0.278   2.445   6.406 -0.0845 -0.5106  0.6229
42174SOL    HW128529   0.223   2.432   6.328  0.2902 -1.9587  0.5695
42174SOL    HW228530   0.259   2.369   6.461  0.3240  0.0446  1.5435
42175SOL     OW28531   1.627   4.682   5.735 -0.1488 -0.9850 -0.1748
42175SOL    HW128532   1.669   4.652   5.655  1.4731  0.4506  0.0705
42175SOL    HW228533   1.668   4.630   5.805  2.1937  1.1383  0.1818
42176SOL     OW28534   4.857   4.742   5.732 -0.2264  0.2308 -0.1371
42176SOL    HW128535   4.907   4.661   5.741  0.7876  0.7033 -1.1832
42176SOL    HW228536   4.924   4.811   5.726 -0.9979  0.9095 -1.3648
42177SOL     OW28537   1.645   9.311   6.731  0.9527  0.3830  0.1325
42177SOL    HW128538   1.641   9.352   6.644 -0.2111 -0.0317 -0.0308
42177SOL    HW228539   1.738   9.293   6.745  1.1061  0.0120 -1.2346
42178SOL     OW28540  10.278   1.898   8.465 -0.8547  1.1606 -0.1156
42178SOL    HW128541  10.195   1.858   8.440 -0.0703 -1.8583  1.6308
42178SOL    HW228542  10.342   1.860   8.405 -0.3254  1.2833  0.3623
42179SOL     OW28543   3.532   7.709   5.448  0.2810  0.0324  0.4355
42179SOL    HW128544   3.527   7.641   5.515  1.0121 -0.3516  0.1228
42179SOL    HW228545   3.541   7.791   5.497  1.8827 -0.3384  0.8352
42180SOL     OW28546   0.726   5.626   7.790  0.4216  0.5725 -0.3528
42180SOL    HW128547   0.649   5.607   7.843  0.9534  0.7442  0.5092
42180SOL    HW228548   0.765   5.540   7.772  0.1675  0.5042 -0.5892
42181SOL     OW28549   1.145   6.808   3.121  0.1932 -0.2174  0.3386
42181SOL    HW128550   1.223   6.823   3.066 -0.9940  0.7982 -1.1269
42181SOL    HW228551   1.078   6.780   3.059 -1.2223  1.0352  1.2737
42182SOL     OW28552   7.228   3.844   3.843  0.2298 -0.0228  0.7436
42182SOL    HW128553   7.133   3.833   3.844  0.2340 -0.2078  2.5132
42182SOL    HW228554   7.258   3.787   3.773 -1.0046  0.6342 -0.3784
42183SOL     OW28555   7.362   6.570   4.629 -0.4340 -0.0624  0.8896
42183SOL    HW128556   7.337   6.537   4.716  0.6268  0.7177  1.4969
42183SOL    HW228557   7.437   6.517   4.604 -0.3245  0.1637  0.7384
42184SOL     OW28558   3.553   7.858   6.737  0.8764  0.1523 -0.5746
42184SOL    HW128559   3.619   7.882   6.672  1.4039 -0.2509 -0.2020
42184SOL    HW228560   3.511   7.779   6.701 -0.4934  1.2793 -1.5480
42185SOL     OW28561   7.516   1.204  10.356  0.4344  0.4043 -0.8249
42185SOL    HW128562   7.568   1.160  10.423  0.7940  0.7421 -0.8749
42185SOL    HW228563   7.437   1.151  10.347  0.4845  0.2382 -0.2890
42186SOL     OW28564   2.551   2.058   5.463 -1.1860  0.4204  0.1038
42186SOL    HW128565   2.540   2.024   5.551  1.1533 -0.2822  0.1886
42186SOL    HW228566   2.577   2.150   5.476  1.5937 -0.3159  0.3453
42187SOL     OW28567   3.787  11.189   0.014 -0.2631 -0.6132  0.0065
42187SOL    HW128568   3.849  11.241   0.066 -1.9617 -0.2694  1.8046
42187SOL    HW228569   3.714  11.172   0.074 -1.6851 -1.4450 -1.8700
42188SOL     OW28570   9.676   3.842   4.302  0.1833  0.1348  0.2441
42188SOL    HW128571   9.716   3.760   4.272  1.6235  0.2207  1.7906
42188SOL    HW228572   9.749   3.891   4.340 -0.5665  2.3202 -0.9636
42189SOL     OW28573   7.152  10.230   7.343  0.4725 -0.2436  0.0849
42189SOL    HW128574   7.099  10.159   7.307  0.9272 -1.2710  1.3649
42189SOL    HW228575   7.092  10.280   7.398  0.3750 -0.2426 -0.0234
42190SOL     OW28576   0.451   4.307   0.237  0.4173  0.3793 -0.5987
42190SOL    HW128577   0.482   4.281   0.150 -0.8281  1.9657 -1.5770
42190SOL    HW228578   0.423   4.398   0.226 -3.0306 -0.4100  0.5402
42191SOL     OW28579   6.719   0.855   8.907 -0.4830  0.2125  0.4085
42191SOL    HW128580   6.669   0.910   8.847  0.4888 -0.0382 -0.6770
42191SOL    HW228581   6.722   0.905   8.989 -1.0763  0.9782 -0.0205
42192SOL     OW28582   8.597   4.754   7.490 -0.2050  0.0556 -0.7577
42192SOL    HW128583   8.564   4.673   7.529 -0.1472 -0.8681 -2.4795
42192SOL    HW228584   8.691   4.740   7.483 -0.0312  0.7917  0.0259
42193SOL     OW28585   2.154   2.942   8.311  0.1431 -0.0590  0.0609
42193SOL    HW128586   2.059   2.946   8.321  0.2631 -0.2857  1.4613
42193SOL    HW228587   2.174   2.849   8.305  0.3014 -0.0305  0.1308
42194SOL     OW28588   6.716   2.905   8.911  0.0399 -0.4328  0.1588
42194SOL    HW128589   6.663   2.915   8.832  0.2711  0.5242  0.1195
42194SOL    HW228590   6.791   2.963   8.897  0.0009 -0.1326  1.1484
42195SOL     OW28591   9.598   5.223   7.093  0.4168  0.3398  0.1889
42195SOL    HW128592   9.610   5.171   7.014  1.6645  2.5508 -1.1695
42195SOL    HW228593   9.619   5.312   7.067  0.5847  1.2079  2.9523
42196SOL     OW28594  11.089   0.720  10.494  0.0958 -0.2746  0.4054
42196SOL    HW128595  11.070   0.659  10.566  0.4538 -1.2895 -0.3286
42196SOL    HW228596  11.180   0.701  10.470 -0.3353 -0.7193 -1.0049
42197SOL     OW28597   7.010   5.512   6.551 -0.3261 -0.1239  0.6826
42197SOL    HW128598   6.990   5.505   6.644  1.2607  0.1536  1.0790
42197SOL    HW228599   7.085   5.453   6.539  2.3974  3.0875  0.5550
42198SOL     OW28600   6.454  10.921  10.382 -0.0614 -0.8272 -0.2639
42198SOL    HW128601   6.519  10.855  10.358  1.2150  0.7416 -1.2913
42198SOL    HW228602   6.473  10.996  10.326 -2.0601  0.1074  0.2058
42199SOL     OW28603  10.790   1.916   2.469 -0.3726  0.0719 -0.0403
42199SOL    HW128604  10.790   1.852   2.540 -3.0417  0.0698  0.0556
42199SOL    HW228605  10.763   1.867   2.392  0.4760  0.5118 -0.6426
42200SOL     OW28606   8.563   5.332  10.584  0.2906 -0.4871 -0.3581
42200SOL    HW128607   8.511   5.258  10.615  0.2194  0.3693  1.7633
42200SOL    HW228608   8.535   5.345  10.494 -1.4506 -1.5173 -0.0146
42201SOL     OW28609   5.557   9.426   7.523 -0.1481 -0.0456 -0.3806
42201SOL    HW128610   5.522   9.424   7.434 -2.2539 -1.1961  0.3835
42201SOL    HW228611   5.539   9.338   7.557  0.5098  0.4004  1.2158
42202SOL     OW28612   5.078   7.387   2.815 -0.7893  0.9698 -0.5994
42202SOL    HW128613   5.044   7.441   2.744 -2.2252  0.8410 -0.0381
42202SOL    HW228614   5.071   7.297   2.782  0.4376  1.0240 -1.0532
42203SOL     OW28615   8.611   6.018   0.760  0.4240  0.3504  0.0040
42203SOL    HW128616   8.590   5.925   0.752 -2.5412  0.9247 -0.0245
42203SOL    HW228617   8.526   6.062   0.768  1.6386  3.1787 -1.0394
42204SOL     OW28618  10.822  10.402  10.725 -0.2518  0.2076 -0.1986
42204SOL    HW128619  10.795  10.384  10.815  0.0526 -1.6879 -0.4438
42204SOL    HW228620  10.912  10.434  10.733 -0.4495  0.6881  0.1918
42205SOL     OW28621   3.046  10.556  10.972  0.7854  0.0457 -0.1781
42205SOL    HW128622   3.057  10.607  10.892 -2.0404 -2.0887 -2.1700
42205SOL    HW228623   2.991  10.610  11.028 -0.0516  0.2484 -1.1699
42206SOL     OW28624   1.395   2.681   0.939  0.2698  0.0052 -0.4474
42206SOL    HW128625   1.387   2.750   0.874  3.0245  0.7800 -0.1162
42206SOL    HW228626   1.438   2.609   0.892  2.1466  0.5175  0.3696
42207SOL     OW28627   3.211  11.014   6.064 -0.3131  0.1987  0.2128
42207SOL    HW128628   3.286  10.962   6.035 -0.6000 -0.8811  1.3296
42207SOL    HW228629   3.236  11.046   6.150 -1.2075 -0.3594  0.6930
42208SOL     OW28630   8.453   0.277   2.294  0.8158 -0.1220 -0.1940
42208SOL    HW128631   8.409   0.213   2.238  1.2001 -0.3693 -0.2157
42208SOL    HW228632   8.541   0.242   2.307  0.2929 -0.8648  1.8223
42209SOL     OW28633   6.965  10.058  10.201  0.0871 -0.7819  0.5277
42209SOL    HW128634   7.027  10.027  10.267  3.0957  2.1594 -0.6399
42209SOL    HW228635   6.946  10.148  10.226  1.0482  0.3161 -2.3014
42210SOL     OW28636  10.862   9.155   4.920 -0.4907 -0.4055  0.1583
42210SOL    HW128637  10.903   9.080   4.964  2.0791  0.3325 -0.8068
42210SOL    HW228638  10.893   9.149   4.830  1.1681  2.6690  0.4019
42211SOL     OW28639   3.473   3.251   6.582  1.3260  0.2963 -0.1837
42211SOL    HW128640   3.558   3.295   6.590  1.7467 -0.4049 -0.6930
42211SOL    HW228641   3.494   3.163   6.550  0.6022 -0.7168  1.9076
42212SOL     OW28642   4.354   8.890   2.361  0.5944  0.1044  0.0568
42212SOL    HW128643   4.410   8.830   2.410  0.1318 -1.8348 -1.6785
42212SOL    HW228644   4.293   8.925   2.426  1.2036 -0.9252  1.2074
42213SOL     OW28645   1.900   0.515   1.056  0.0405 -0.5737  0.0038
42213SOL    HW128646   1.883   0.458   0.982 -0.7235  0.6340 -0.7929
42213SOL    HW228647   1.940   0.593   1.018 -0.8470  0.2851  0.7693
42214SOL     OW28648   5.208   1.607   3.317  0.7299  0.4833 -0.6473
42214SOL    HW128649   5.208   1.634   3.409 -0.0756  1.0472 -0.7967
42214SOL    HW228650   5.117   1.620   3.288  1.1226  1.0325 -1.7151
42215SOL     OW28651   9.673   8.782   7.311 -0.0641 -0.0190 -0.3589
42215SOL    HW128652   9.741   8.846   7.329  0.4343 -0.9080  1.1775
42215SOL    HW228653   9.611   8.827   7.254 -0.2376  2.1683  1.4284
42216SOL     OW28654   8.466   0.131   9.150  0.6828  0.8954  0.1136
42216SOL    HW128655   8.462   0.113   9.244 -1.7658 -1.6999 -0.3544
42216SOL    HW228656   8.543   0.187   9.140 -0.2550  3.2077  3.8972
42217SOL     OW28657   5.116   4.407   1.664 -0.6571  0.0566 -0.6067
42217SOL    HW128658   5.120   4.437   1.754  0.8873  0.7962 -0.9014
42217SOL    HW228659   5.028   4.431   1.635 -1.5797 -1.1753  0.9975
42218SOL     OW28660   4.038   8.123   2.591 -0.2290 -0.0575 -0.0256
42218SOL    HW128661   4.049   8.208   2.634 -0.7133 -0.1820  0.3440
42218SOL    HW228662   4.041   8.059   2.662  1.6187 -0.4858 -0.4412
42219SOL     OW28663   8.032   4.136   0.223 -0.5200  0.2801  0.0073
42219SOL    HW128664   8.105   4.157   0.165 -0.4574 -1.4540 -0.5979
42219SOL    HW228665   8.071   4.084   0.294 -1.0954 -0.3934 -0.1553
42220SOL     OW28666   7.212   0.898   3.584 -0.1775  0.0047  0.1775
42220SOL    HW128667   7.199   0.963   3.515  1.4363 -2.1495 -2.3773
42220SOL    HW228668   7.160   0.823   3.556  0.3677 -0.8813  1.4325
42221SOL     OW28669   3.833   6.290   4.509  0.2480 -0.5489 -0.3056
42221SOL    HW128670   3.874   6.209   4.478  0.9915 -0.1164 -0.4623
42221SOL    HW228671   3.901   6.333   4.561 -0.2019 -0.1066 -0.0791
42222SOL     OW28672   5.485   7.420   1.168  0.1091  0.4878  0.7194
42222SOL    HW128673   5.571   7.412   1.125 -1.2831  1.3582 -2.5685
42222SOL    HW228674   5.481   7.346   1.227  1.8667 -1.5815 -1.5237
42223SOL     OW28675  10.565   5.134   3.680 -0.3664  0.3244  0.1432
42223SOL    HW128676  10.652   5.098   3.693 -1.0562 -2.4412 -2.0569
42223SOL    HW228677  10.580   5.221   3.641  1.3466  0.4322  0.9595
42224SOL     OW28678   6.542  10.242   8.273 -0.2698  0.5603  0.3305
42224SOL    HW128679   6.554  10.329   8.310 -2.7345  0.6437  1.1100
42224SOL    HW228680   6.556  10.253   8.179  1.7430  1.2654  0.6727
42225SOL     OW28681   7.329   6.967   7.381 -0.2822 -1.0788  0.0110
42225SOL    HW128682   7.380   6.887   7.396  2.1633  0.6523  1.7774
42225SOL    HW228683   7.357   6.998   7.295 -1.3617 -2.1225 -0.7551
42226SOL     OW28684   2.793   3.641   7.894  0.5243 -0.2926 -0.0604
42226SOL    HW128685   2.720   3.690   7.855  1.2353  0.4643 -0.4651
42226SOL    HW228686   2.782   3.552   7.862 -0.1949 -0.1747 -0.1617
42227SOL     OW28687   9.067   6.371   7.991 -0.0065 -0.7513 -0.1917
42227SOL    HW128688   9.105   6.446   8.035 -0.7272  0.0250 -0.8607
42227SOL    HW228689   9.111   6.368   7.906  0.9935 -1.9199  0.3297
42228SOL     OW28690   6.422   2.969   5.085  1.0469 -0.0315 -0.0955
42228SOL    HW128691   6.465   2.894   5.045 -0.8147 -2.3577  1.9645
42228SOL    HW228692   6.334   2.938   5.105  0.6152  2.2834  2.0216
42229SOL     OW28693   4.953   4.439   9.644  0.6277  0.3552 -0.2483
42229SOL    HW128694   4.961   4.533   9.628 -0.1630  0.5874  0.6139
42229SOL    HW228695   5.039   4.413   9.677  0.8861  0.7475 -0.5951
42230SOL     OW28696  10.793   9.867   1.335  0.9624  0.0749 -0.1944
42230SOL    HW128697  10.792   9.840   1.243  0.5398 -0.3251 -0.0747
42230SOL    HW228698  10.885   9.869   1.358  1.0020 -1.4603 -0.1503
42231SOL     OW28699   6.959   3.865   6.717 -0.5055  0.9148 -0.8617
42231SOL    HW128700   6.911   3.785   6.742 -0.0417  0.7013 -0.6223
42231SOL    HW228701   6.965   3.861   6.622 -2.0847  1.6075 -1.0168
42232SOL     OW28702   0.774   4.093  10.716  0.2314 -0.0664  0.6270
42232SOL    HW128703   0.753   4.132  10.631 -0.5018 -0.3840  0.6575
42232SOL    HW228704   0.751   4.161  10.779  1.5501  0.4839  0.5396
42233SOL     OW28705   5.081   8.374   3.925 -0.6098  0.4334  0.1832
42233SOL    HW128706   5.120   8.419   3.850  1.8618 -0.8470  0.5784
42233SOL    HW228707   5.028   8.304   3.887  0.2007  0.1212 -0.4172
42234SOL     OW28708   8.434   6.697  10.535 -0.1420  0.3208 -0.1490
42234SOL    HW128709   8.346   6.674  10.563  0.4087 -0.9282  0.6576
42234SOL    HW228710   8.432   6.791  10.523 -1.8040  0.2157 -0.9612
42235SOL     OW28711   4.580   2.275   2.109 -0.4131 -0.4033 -0.7177
42235SOL    HW128712   4.535   2.325   2.041  1.3999  0.7474 -1.1360
42235SOL    HW228713   4.671   2.306   2.106 -0.0807 -0.9424  1.6533
42236SOL     OW28714   9.859  10.450   8.580 -0.5582  0.3468  0.4340
42236SOL    HW128715   9.835  10.358   8.576  0.1451  0.1679  0.2392
42236SOL    HW228716   9.897  10.469   8.495  1.7678  0.1013  1.3372
42237SOL     OW28717   4.095   1.563   7.213 -0.1813  0.2485 -0.6049
42237SOL    HW128718   4.017   1.618   7.215 -0.0655  0.4367  1.1832
42237SOL    HW228719   4.130   1.569   7.303  2.1055  0.5095 -1.4325
42238SOL     OW28720   4.407   5.335   6.907 -0.0816 -0.2621  0.1069
42238SOL    HW128721   4.349   5.402   6.943 -0.0196 -0.8949  1.4496
42238SOL    HW228722   4.409   5.267   6.974  1.0257 -0.9382 -0.5848
42239SOL     OW28723   5.582   4.855  10.027 -0.2582  0.3614  0.3394
42239SOL    HW128724   5.512   4.913  10.056 -0.9868 -0.3447  0.0298
42239SOL    HW228725   5.543   4.803   9.956  0.4504 -0.3200  0.4330
42240SOL     OW28726   6.686   5.121   8.920  0.0070  0.3622  0.0423
42240SOL    HW128727   6.642   5.114   8.835  0.5920  0.9646 -0.3207
42240SOL    HW228728   6.702   5.030   8.946 -0.7348  0.1545 -0.1895
42241SOL     OW28729  10.576   1.079  10.625  0.1238  0.7084 -0.1419
42241SOL    HW128730  10.500   1.068  10.568 -0.6007 -0.6529  1.0368
42241SOL    HW228731  10.642   1.020  10.588 -1.1672 -2.1281  1.7081
42242SOL     OW28732   4.674   1.488   4.832  0.5962  0.2173 -0.0125
42242SOL    HW128733   4.671   1.396   4.857 -0.5783  0.1799 -0.2038
42242SOL    HW228734   4.614   1.531   4.893 -1.2648  0.3397 -1.8329
42243SOL     OW28735   0.750   9.410   5.567 -0.5267  0.8272  0.2298
42243SOL    HW128736   0.685   9.345   5.592 -0.5283  0.3909 -0.8382
42243SOL    HW228737   0.708   9.460   5.496 -0.2175  1.4518  0.4823
42244SOL     OW28738   7.267   8.376   7.237  0.4727  0.2390  0.2654
42244SOL    HW128739   7.257   8.283   7.220 -2.9533  0.2411  1.5103
42244SOL    HW228740   7.226   8.390   7.322 -0.3428  3.0538 -0.4675
42245SOL     OW28741   0.605   6.955   5.914  0.8696  0.0131 -0.2093
42245SOL    HW128742   0.570   6.989   5.831  0.8564  2.5216  0.7398
42245SOL    HW228743   0.669   7.020   5.941  0.9576 -0.8188  1.7075
42246SOL     OW28744   7.885   0.965   5.238 -0.9240  0.4078  1.1100
42246SOL    HW128745   7.907   0.972   5.331 -0.6323  2.6680  0.9267
42246SOL    HW228746   7.970   0.963   5.193 -1.0483  1.4113  0.8075
42247SOL     OW28747   2.970   1.334  10.116  0.3143  0.5788 -0.3285
42247SOL    HW128748   3.045   1.389  10.133 -0.5663  1.4280  1.0170
42247SOL    HW228749   3.004   1.244  10.123  1.6340  0.9207 -1.9787
42248SOL     OW28750   7.905  10.034   6.655  0.6251 -0.2588  0.2300
42248SOL    HW128751   7.987   9.997   6.624  0.0936 -0.7747 -0.6019
42248SOL    HW228752   7.844  10.021   6.583 -0.1556  0.2371  0.7834
42249SOL     OW28753   5.622   6.609   7.869  0.5221 -0.2650 -0.0901
42249SOL    HW128754   5.579   6.658   7.799 -0.3768  0.2586  0.8108
42249SOL    HW228755   5.565   6.535   7.885  0.3336  0.0263  0.6023
42250SOL     OW28756   2.461   2.266   0.850 -0.4658 -0.2890  0.1899
42250SOL    HW128757   2.510   2.341   0.817  0.6974 -0.4095  1.5475
42250SOL    HW228758   2.487   2.259   0.942 -2.7529 -0.6005  0.8795
42251SOL     OW28759   1.684   1.684   7.687  0.3069  0.0021 -0.1627
42251SOL    HW128760   1.700   1.772   7.656 -1.9775  0.8709  0.8512
42251SOL    HW228761   1.620   1.647   7.626 -0.2827 -0.1691  0.5290
42252SOL     OW28762   1.865   5.146   6.514 -0.1835 -0.2127 -0.4602
42252SOL    HW128763   1.812   5.067   6.502 -2.5403  0.7796  2.2558
42252SOL    HW228764   1.952   5.113   6.538 -0.7130 -1.9617 -0.7723
42253SOL     OW28765   9.219   4.988   1.033 -0.4848  0.1158 -0.8700
42253SOL    HW128766   9.295   4.958   1.082  0.4445  1.9098 -1.1414
42253SOL    HW228767   9.156   5.014   1.100  0.2317  1.2310 -0.6108
42254SOL     OW28768   5.667   7.506   3.405 -0.1210  0.0458 -0.5871
42254SOL    HW128769   5.663   7.501   3.500 -0.0999  0.2308 -0.5778
42254SOL    HW228770   5.757   7.533   3.385  0.2435 -1.1941 -0.7020
42255SOL     OW28771   3.133   7.967   7.881 -0.9047 -0.1232 -0.0621
42255SOL    HW128772   3.069   8.030   7.848 -1.2864 -0.9666 -0.9927
42255SOL    HW228773   3.118   7.889   7.829 -1.2948 -1.4361  1.8984
42256SOL     OW28774   1.098   2.786   7.642 -0.0182 -0.9932  0.6129
42256SOL    HW128775   1.009   2.820   7.655 -0.0756 -0.8353 -0.1385
42256SOL    HW228776   1.085   2.701   7.600  0.1682  1.0116 -4.1739
42257SOL     OW28777  11.035   4.505   1.855  0.1269 -0.9139  0.4121
42257SOL    HW128778  11.034   4.566   1.928 -0.3598 -0.8544  0.3619
42257SOL    HW228779  11.046   4.560   1.777 -0.1921 -0.8934  0.3770
42258SOL     OW28780   9.134   6.186   0.085 -0.4836 -0.1094 -0.3116
42258SOL    HW128781   9.051   6.225   0.114 -0.8440  0.3688 -1.8847
42258SOL    HW228782   9.197   6.257   0.089 -0.5487 -0.0241 -0.7132
42259SOL     OW28783   1.120   0.378   4.206 -0.4202  0.5528 -0.2250
42259SOL    HW128784   1.029   0.375   4.177 -0.1783 -2.8542 -1.1530
42259SOL    HW228785   1.170   0.346   4.131  1.2876  0.3067  0.9614
42260SOL     OW28786   6.308   7.745   3.330  0.0185 -0.0475  0.1855
42260SOL    HW128787   6.238   7.787   3.280 -0.5889 -1.5757 -0.2936
42260SOL    HW228788   6.313   7.656   3.294  1.1507 -0.4418  1.2708
42261SOL     OW28789   9.864   3.576   9.684 -0.1983 -0.0740  0.0304
42261SOL    HW128790   9.942   3.568   9.628  0.6004  0.3182  1.0514
42261SOL    HW228791   9.842   3.669   9.683 -0.3731 -0.1132  0.1147
42262SOL     OW28792   6.786   5.598   7.177  0.4076 -1.1760 -0.3186
42262SOL    HW128793   6.786   5.537   7.103  1.9125 -1.8851  0.2049
42262SOL    HW228794   6.694   5.620   7.191  0.0808 -1.0963 -2.3166
42263SOL     OW28795   1.761   0.454   8.600  0.4860 -0.0916 -0.1755
42263SOL    HW128796   1.785   0.363   8.618 -0.8121 -0.7168 -1.4876
42263SOL    HW228797   1.817   0.480   8.527 -0.2870 -0.3687 -0.8669
42264SOL     OW28798   0.437   4.980   4.648  0.0373  0.3590  0.0995
42264SOL    HW128799   0.484   4.956   4.568  0.8888  0.3783  0.5802
42264SOL    HW228800   0.458   5.073   4.660 -0.4802  0.4769  0.0862
42265SOL     OW28801   0.915   8.478   4.998 -0.4581 -0.7968  0.2139
42265SOL    HW128802   0.822   8.473   5.019 -0.4326 -2.9563  0.0205
42265SOL    HW228803   0.950   8.541   5.062 -1.8500 -0.7719  0.9949
42266SOL     OW28804   8.245   3.683   8.883  0.4964  1.1318 -0.6558
42266SOL    HW128805   8.212   3.678   8.973  1.6887 -0.9198 -0.2830
42266SOL    HW228806   8.338   3.702   8.893  0.7560  0.3303 -1.4247
42267SOL     OW28807   4.877   8.627   8.821  0.2651 -0.4418  0.2523
42267SOL    HW128808   4.789   8.646   8.855 -0.7167 -0.6859 -2.0136
42267SOL    HW228809   4.864   8.607   8.729  2.5039 -2.3132  0.2416
42268SOL     OW28810   3.881   0.482   3.433  0.2236  0.6759  0.1542
42268SOL    HW128811   3.832   0.429   3.496 -1.3209  1.2603 -0.5068
42268SOL    HW228812   3.948   0.422   3.399 -0.7793 -0.5369  0.2340
42269SOL     OW28813   3.488   5.407   6.749  0.0306  0.3518 -0.5415
42269SOL    HW128814   3.578   5.383   6.730 -0.2743 -3.0012  1.3394
42269SOL    HW228815   3.492   5.448   6.835 -0.2451  0.1630 -0.4389
42270SOL     OW28816   2.073  10.216   6.371 -0.0797  0.3920  1.1211
42270SOL    HW128817   2.168  10.210   6.371  0.0758  2.0202 -0.3146
42270SOL    HW228818   2.054  10.305   6.400 -1.1256  0.2889  0.8094
42271SOL     OW28819   3.050   8.513   4.049 -0.0852  0.2450 -0.1104
42271SOL    HW128820   3.104   8.446   4.007  1.6526  2.2900 -1.3375
42271SOL    HW228821   3.089   8.525   4.136  0.1391  0.2823 -0.2172
42272SOL     OW28822   3.787   8.216   1.313  0.0470 -0.3801 -0.1984
42272SOL    HW128823   3.756   8.272   1.242  3.2511  1.6418 -0.1596
42272SOL    HW228824   3.797   8.274   1.388  0.8447 -1.5758  0.6604
42273SOL     OW28825   0.308   2.171   2.166  0.5601  0.3595 -0.2018
42273SOL    HW128826   0.318   2.262   2.140 -0.3333  0.7129  0.6468
42273SOL    HW228827   0.213   2.157   2.171  0.6837 -0.0989  1.3882
42274SOL     OW28828   8.465   3.889   2.834  0.5393 -0.7749 -0.3915
42274SOL    HW128829   8.509   3.914   2.752 -0.1851  0.8834 -0.3112
42274SOL    HW228830   8.469   3.793   2.835  1.7489 -0.7677 -1.6995
42275SOL     OW28831  11.107   8.724   9.549  0.4117 -0.1625  0.3480
42275SOL    HW128832  11.165   8.768   9.488  0.1564 -0.8141 -0.3718
42275SOL    HW228833  11.079   8.793   9.610 -1.2506  1.0884 -1.7022
42276SOL     OW28834  10.539   6.242   6.480  0.2791 -0.4152 -0.7987
42276SOL    HW128835  10.552   6.208   6.568  1.3476  1.0979 -0.3351
42276SOL    HW228836  10.556   6.167   6.423 -1.5017 -1.7051  0.2587
42277SOL     OW28837   4.990   3.057   9.549 -0.3101  0.3904 -1.0033
42277SOL    HW128838   5.050   3.127   9.524  1.7765 -1.0600 -0.3400
42277SOL    HW228839   4.907   3.101   9.566  0.2004  2.3437 -3.0741
42278SOL     OW28840   2.988   0.827   5.961  0.1499  0.3866  0.1489
42278SOL    HW128841   3.064   0.848   5.906 -0.5634 -0.8571 -1.3873
42278SOL    HW228842   2.914   0.829   5.901 -0.7930 -0.0972  1.2738
42279SOL     OW28843   6.654   9.517   1.419  0.4931 -0.2332 -0.8986
42279SOL    HW128844   6.694   9.603   1.435  0.7764 -0.8730  3.0298
42279SOL    HW228845   6.707   9.479   1.349  0.9123  2.3866 -2.1458
42280SOL     OW28846   5.023   7.091   4.339  0.3569 -0.0265  0.2287
42280SOL    HW128847   5.018   7.186   4.348  0.1898 -0.0835  0.8518
42280SOL    HW228848   5.115   7.070   4.350  0.2886 -0.0002  0.9219
42281SOL     OW28849   2.290   5.420   8.251  0.5511 -0.1368  0.0437
42281SOL    HW128850   2.300   5.344   8.195 -1.9001 -0.6046  0.1184
42281SOL    HW228851   2.376   5.432   8.291  1.9201 -0.7844 -2.5016
42282SOL     OW28852   1.086   5.587   7.497 -1.0135  0.9970 -0.5355
42282SOL    HW128853   1.107   5.494   7.507  1.5219  1.3420 -1.6848
42282SOL    HW228854   1.050   5.613   7.582  0.7396 -0.4655  0.7349
42283SOL     OW28855   0.022   9.147   9.580 -0.4274 -0.7076 -0.2962
42283SOL    HW128856   0.005   9.078   9.644 -1.9587 -1.0223 -0.9859
42283SOL    HW228857   0.067   9.215   9.629 -0.3817 -1.4962  0.7974
42284SOL     OW28858   1.293  10.727  11.146  0.3068  0.0702  0.5806
42284SOL    HW128859   1.208  10.764  11.170 -0.0631 -1.2311  1.3815
42284SOL    HW228860   1.330  10.697  11.229  1.4728  0.4216  0.2098
42285SOL     OW28861   5.132   8.575   6.434 -0.3750 -0.5151 -0.3427
42285SOL    HW128862   5.048   8.601   6.473 -0.2488 -0.6874  0.0446
42285SOL    HW228863   5.161   8.501   6.486  0.9587  0.7134  0.7670
42286SOL     OW28864   5.125   1.453   2.406 -0.1191 -0.0709  0.0077
42286SOL    HW128865   5.076   1.483   2.329 -0.2266  0.0110  0.1076
42286SOL    HW228866   5.139   1.359   2.390 -0.0317 -0.0279 -0.1711
42287SOL     OW28867   9.819   1.062   7.360  0.1373  0.0410  0.3386
42287SOL    HW128868   9.770   1.076   7.279  1.3106  0.0777 -0.4020
42287SOL    HW228869   9.867   1.144   7.374  0.4433 -0.1946  0.7122
42288SOL     OW28870  11.029   4.619   4.996  0.0217 -0.3280 -0.1132
42288SOL    HW128871  10.947   4.652   4.958  0.7753  1.4506 -0.3310
42288SOL    HW228872  11.013   4.527   5.013 -1.9841 -0.0495 -0.2680
42289SOL     OW28873   4.979   1.456   0.326  0.7488 -0.2490 -0.8091
42289SOL    HW128874   4.991   1.533   0.381 -1.2069 -0.3117 -0.2295
42289SOL    HW228875   5.066   1.415   0.322  1.1845  0.3686  1.3041
42290SOL     OW28876   6.425   8.149   0.263 -0.0697  0.1834  0.2184
42290SOL    HW128877   6.420   8.242   0.283 -1.1775  0.5348 -1.4536
42290SOL    HW228878   6.510   8.121   0.297  0.0940  1.6999  1.1220
42291SOL     OW28879  10.825   0.213  11.220  0.3639 -0.2257  0.4913
42291SOL    HW128880  10.915   0.242  11.205  0.4142 -0.6405 -0.0764
42291SOL    HW228881  10.825   0.121  11.191 -0.5159  0.1021 -0.6429
42292SOL     OW28882   7.460   7.912   5.230 -0.1712 -0.1264  0.1632
42292SOL    HW128883   7.374   7.870   5.230  0.2834 -1.3308 -2.9601
42292SOL    HW228884   7.446   7.996   5.188  0.4245 -1.2966 -2.6174
42293SOL     OW28885   4.234   2.087   0.991  0.2145 -0.0334 -0.0075
42293SOL    HW128886   4.303   2.153   0.989  0.2608 -0.0662  0.3610
42293SOL    HW228887   4.179   2.108   0.915 -0.8330  1.5849  1.1263
42294SOL     OW28888   7.483   5.198   9.790 -0.2317  0.2097 -0.3354
42294SOL    HW128889   7.579   5.195   9.790 -0.2245 -0.2134  1.3334
42294SOL    HW228890   7.457   5.129   9.730  0.5062  0.0807 -0.5163
42295SOL     OW28891   1.202   7.308   7.898 -0.4965  0.4183  0.2177
42295SOL    HW128892   1.213   7.293   7.992 -1.6390 -2.3677  0.0123
42295SOL    HW228893   1.161   7.228   7.866  0.9060  0.7921 -2.8828
42296SOL     OW28894  11.268   9.603   8.171  0.0779  0.3362  0.0164
42296SOL    HW128895  11.277   9.695   8.194  0.5500 -0.2071  2.2054
42296SOL    HW228896  11.174   9.586   8.172  0.0690 -0.0016  3.3520
42297SOL     OW28897   7.571   1.465   3.220  0.1800  0.6095  0.0618
42297SOL    HW128898   7.636   1.535   3.210  0.4076  0.4064  0.1331
42297SOL    HW228899   7.607   1.391   3.172  0.3987  0.2282  0.8032
42298SOL     OW28900   9.540   8.104   2.884 -0.0562 -0.8488 -0.2496
42298SOL    HW128901   9.452   8.082   2.915 -0.3471 -0.7446 -0.9782
42298SOL    HW228902   9.533   8.195   2.856  0.5684 -0.5052  0.6944
42299SOL     OW28903  11.129   2.173   2.370  1.0304  0.1435 -0.7845
42299SOL    HW128904  11.138   2.265   2.347  0.1618  0.0973 -1.3559
42299SOL    HW228905  11.034   2.159   2.377  1.1541 -0.6975 -0.6588
42300SOL     OW28906   2.708  11.199   7.269 -0.4768  0.6411  0.1145
42300SOL    HW128907   2.774  11.219   7.335 -0.9390  0.4510  0.6430
42300SOL    HW228908   2.625  11.195   7.318 -0.7524 -0.0309 -0.3837
42301SOL     OW28909   4.392   9.838   7.352 -0.0173 -0.0828  0.8759
42301SOL    HW128910   4.317   9.800   7.398  0.2040  1.2815  2.4726
42301SOL    HW228911   4.383   9.808   7.262 -1.7542 -1.0003  1.3111
42302SOL     OW28912   4.828   2.026   4.011 -0.2600 -0.1509 -0.3829
42302SOL    HW128913   4.827   2.060   3.921 -0.1523 -0.3592 -0.4632
42302SOL    HW228914   4.735   2.023   4.036 -0.1810  2.6321  0.5629
42303SOL     OW28915   5.909   7.278   9.865  0.7269 -0.1597  0.2297
42303SOL    HW128916   5.936   7.253   9.954 -3.6392 -0.4069  1.7346
42303SOL    HW228917   5.893   7.373   9.870  0.7272 -0.1230 -0.3565
42304SOL     OW28918   9.611   4.685  10.532  0.0408 -0.3745 -0.8970
42304SOL    HW128919   9.617   4.762  10.588 -0.8211 -0.0815 -1.1877
42304SOL    HW228920   9.518   4.663  10.531  0.0813 -0.5772 -1.9211
42305SOL     OW28921   0.767   6.720   2.322  0.4544 -0.0438  0.0151
42305SOL    HW128922   0.771   6.765   2.407  0.6941 -0.8483  0.4456
42305SOL    HW228923   0.703   6.770   2.271 -0.4192 -0.1089  1.0092
42306SOL     OW28924   0.124   9.868   7.883 -0.5340 -0.1583  0.0806
42306SOL    HW128925   0.180   9.842   7.956  1.0070  1.3626 -0.5087
42306SOL    HW228926   0.130   9.796   7.821  1.8434  0.4917 -0.5285
42307SOL     OW28927   6.609   3.598   6.974  0.2473  0.2115 -0.0490
42307SOL    HW128928   6.554   3.637   6.906 -0.4559  0.0791  0.4303
42307SOL    HW228929   6.691   3.646   6.970  0.7553 -0.7385 -1.9580
42308SOL     OW28930   0.646   9.788   7.438  0.2286  0.3003 -0.0471
42308SOL    HW128931   0.680   9.829   7.518 -0.0294  0.8832 -0.2325
42308SOL    HW228932   0.551   9.791   7.448  0.1703 -2.3839  1.0078
42309SOL     OW28933   1.889   3.049   2.969  0.4135  0.2095  0.4643
42309SOL    HW128934   1.959   3.057   3.033  0.9379 -1.4868  0.1669
42309SOL    HW228935   1.824   2.994   3.011 -0.1129  0.6592  0.2402
42310SOL     OW28936   4.463   4.074   0.345  0.8859  0.4169  0.9334
42310SOL    HW128937   4.534   4.034   0.394  0.7095 -0.8125  0.2159
42310SOL    HW228938   4.392   4.010   0.347  0.4667  0.8306  0.0727
42311SOL     OW28939   1.670   2.652   6.182 -0.1854 -0.1738 -0.7176
42311SOL    HW128940   1.611   2.721   6.152  0.6822  0.4593 -1.0008
42311SOL    HW228941   1.758   2.688   6.170  0.2933 -1.3832 -1.0161
42312SOL     OW28942   5.328   0.968   5.365 -0.0752 -0.6627 -0.2956
42312SOL    HW128943   5.334   0.906   5.292  0.2845  1.5979 -2.2930
42312SOL    HW228944   5.248   1.018   5.346  0.9259  1.0583 -0.0773
42313SOL     OW28945   6.254   2.564  10.077 -0.0534 -0.3167 -0.0765
42313SOL    HW128946   6.302   2.525  10.003 -0.1125 -0.5832  0.0251
42313SOL    HW228947   6.323   2.588  10.140 -0.0603 -0.8200  0.1271
42314SOL     OW28948   7.549   8.663   1.702 -0.7030 -0.0559  0.1392
42314SOL    HW128949   7.460   8.693   1.686 -0.3990  1.5616  1.2793
42314SOL    HW228950   7.605   8.729   1.662  0.0252 -1.5834 -1.4810
42315SOL     OW28951   0.671   9.386  10.119 -0.0537 -0.0388 -0.1630
42315SOL    HW128952   0.648   9.352  10.205 -2.4673 -1.6896 -1.3453
42315SOL    HW228953   0.590   9.427  10.087  0.8650  0.7708 -1.5640
42316SOL     OW28954   2.907   5.149   0.158  0.1151  0.8659 -0.3009
42316SOL    HW128955   2.959   5.229   0.146  0.7223  0.1495 -2.8459
42316SOL    HW228956   2.970   5.084   0.187 -0.1812  0.9834  0.6642
42317SOL     OW28957   2.950   8.304   2.001 -0.0030 -0.5118 -1.2722
42317SOL    HW128958   2.997   8.226   2.029  0.2895  0.5273  1.4195
42317SOL    HW228959   3.007   8.377   2.024 -1.1651  0.6062 -1.7788
42318SOL     OW28960   8.071   8.340  10.548 -1.2552  0.7891  0.3732
42318SOL    HW128961   8.046   8.432  10.539  2.9022  1.9915 -1.2809
42318SOL    HW228962   8.066   8.304  10.460  0.7774  0.5914  0.3021
42319SOL     OW28963   9.973   4.463   4.257 -0.2972 -0.1039  0.3539
42319SOL    HW128964   9.973   4.500   4.168 -0.6890 -1.7388 -0.3713
42319SOL    HW228965  10.049   4.502   4.299  0.6958 -0.3163 -1.1596
42320SOL     OW28966   9.842   0.838   2.005 -0.2693 -0.0082  0.0269
42320SOL    HW128967   9.804   0.884   1.929 -0.3001 -1.1776 -0.6846
42320SOL    HW228968   9.797   0.876   2.080  1.3977  2.8713 -0.2695
42321SOL     OW28969  10.596  10.966  11.144  0.1083  0.8085  0.1293
42321SOL    HW128970  10.547  10.890  11.175 -2.3910  1.9222 -0.8078
42321SOL    HW228971  10.688  10.944  11.161 -0.6676 -1.3768  2.0657
42322SOL     OW28972   9.488   9.648  11.025  0.2947  0.4525 -0.0894
42322SOL    HW128973   9.450   9.637  11.112  0.8893  2.0356  0.3973
42322SOL    HW228974   9.477   9.562  10.983 -0.7306 -0.0921  1.2388
42323SOL     OW28975   4.740   3.271   2.841 -0.6221 -0.3459  0.0794
42323SOL    HW128976   4.693   3.348   2.808 -0.3949 -0.6136 -0.8835
42323SOL    HW228977   4.832   3.291   2.825 -0.6434 -1.5021 -1.7049
42324SOL     OW28978   0.753   9.180   6.880  0.1146  0.1337  0.1541
42324SOL    HW128979   0.712   9.229   6.809  1.3689  1.0958  0.0557
42324SOL    HW228980   0.686   9.174   6.948 -1.1032 -0.7988 -1.0897
42325SOL     OW28981  11.112   6.014   5.824  0.2418  0.0334  0.4956
42325SOL    HW128982  11.035   6.070   5.823  0.2080 -0.0189 -0.1064
42325SOL    HW228983  11.166   6.044   5.751 -0.1536 -1.2213 -0.3447
42326SOL     OW28984   8.207   5.195   6.876 -0.2163 -0.2181  0.1285
42326SOL    HW128985   8.148   5.153   6.937  1.0163 -0.7384  1.0125
42326SOL    HW228986   8.284   5.218   6.929  0.0037  1.2454 -0.7829
42327SOL     OW28987   6.006   4.677   3.929 -0.0101 -0.1915  0.2134
42327SOL    HW128988   6.077   4.617   3.907  1.5207  0.2705  3.3195
42327SOL    HW228989   5.967   4.639   4.008 -0.4398  1.7148  0.9753
42328SOL     OW28990   9.170   3.116   1.491 -0.2990  0.2371 -0.0633
42328SOL    HW128991   9.176   3.020   1.491  3.2442  0.3193  1.3523
42328SOL    HW228992   9.144   3.138   1.580  0.3187  0.6213  0.0234
42329SOL     OW28993   3.530   2.220   2.098  0.2070 -0.3683 -0.6702
42329SOL    HW128994   3.615   2.262   2.090  0.2079 -0.5147 -1.4810
42329SOL    HW228995   3.540   2.159   2.171  0.3649  0.6253  0.1688
42330SOL     OW28996   6.629   3.667   2.427 -0.4307  1.0253  0.4729
42330SOL    HW128997   6.638   3.610   2.350 -1.2542  0.9385  0.4407
42330SOL    HW228998   6.718   3.670   2.464 -0.0353  1.0149 -0.4387
42331SOL     OW28999   4.325   8.387   3.416  0.5882  0.5019 -0.3934
42331SOL    HW129000   4.364   8.469   3.387  0.1637 -0.3584 -3.7715
42331SOL    HW229001   4.394   8.345   3.467  1.3624  2.2301  0.0645
42332SOL     OW29002   8.927   3.892   0.726  0.0971  0.3362 -0.3119
42332SOL    HW129003   8.873   3.846   0.791  2.2459 -0.9785  0.6571
42332SOL    HW229004   8.919   3.839   0.647 -0.3309  0.3849 -0.3060
42333SOL     OW29005   2.485   8.046   5.107 -0.4118  0.2979  0.4914
42333SOL    HW129006   2.513   8.042   5.015 -1.8614  0.8604 -0.0126
42333SOL    HW229007   2.506   7.959   5.142  2.2407  0.7936  0.3106
42334SOL     OW29008   5.800   3.972  11.237 -0.0706  0.8861 -0.3313
42334SOL    HW129009   5.836   4.056  11.210  0.8597  0.4839 -0.3707
42334SOL    HW229010   5.873   3.928  11.280 -0.5824  0.1414 -0.2180
42335SOL     OW29011   2.086   5.203   6.059  0.1401  0.0101  0.5580
42335SOL    HW129012   2.087   5.264   6.133  2.4743 -1.4383  1.8656
42335SOL    HW229013   1.998   5.168   6.057 -0.1695  0.6038  2.2347
42336SOL     OW29014   5.158  10.907   0.373 -0.2736 -0.0232 -0.4091
42336SOL    HW129015   5.252  10.919   0.383 -0.3914  0.5673  0.0240
42336SOL    HW229016   5.125  10.994   0.351 -0.8829  0.0602  0.7561
42337SOL     OW29017   1.269   8.144   6.848  0.3389 -0.0901  0.3761
42337SOL    HW129018   1.316   8.195   6.782 -0.0978 -1.1153 -0.7861
42337SOL    HW229019   1.290   8.186   6.931  2.8358 -0.1432 -0.1416
42338SOL     OW29020   0.686   1.620   0.947  0.0172  0.2578 -0.0174
42338SOL    HW129021   0.592   1.633   0.936 -0.4820 -2.6141  0.0172
42338SOL    HW229022   0.695   1.581   1.034  1.2877  0.6908  0.0758
42339SOL     OW29023  10.717  10.173   0.377  0.2652  0.3042 -0.6912
42339SOL    HW129024  10.680  10.260   0.362  0.8349  0.9034  1.1780
42339SOL    HW229025  10.652  10.129   0.432  0.8184  0.2150 -0.1018
42340SOL     OW29026   8.188  10.944   3.121 -0.1514 -0.2037  0.4380
42340SOL    HW129027   8.117  10.894   3.161 -0.9693  0.4657 -0.1335
42340SOL    HW229028   8.268  10.902   3.152 -0.7993 -2.0928 -0.2911
42341SOL     OW29029   6.158   8.730   6.714  0.2219 -0.2178  0.3516
42341SOL    HW129030   6.112   8.782   6.648  0.5968 -0.1843  0.1133
42341SOL    HW229031   6.098   8.728   6.789  0.3819  0.9375  0.5287
42342SOL     OW29032   9.121   5.396   8.499  0.0808  0.0043  0.4936
42342SOL    HW129033   9.172   5.431   8.426 -2.1221  1.5020 -0.4323
42342SOL    HW229034   9.046   5.355   8.458  0.7509 -2.7380  1.7920
42343SOL     OW29035  11.148   2.656   4.841 -0.4163  0.4223 -0.5049
42343SOL    HW129036  11.208   2.614   4.903 -0.4912 -1.8801 -1.8685
42343SOL    HW229037  11.198   2.730   4.806  0.2558  0.7178  0.9746
42344SOL     OW29038   1.271   6.997  10.339 -0.4219  0.6619 -0.5686
42344SOL    HW129039   1.295   6.905  10.330 -1.6795  0.4643 -2.3916
42344SOL    HW229040   1.176   6.996  10.345 -0.4957  1.8793 -1.3053
42345SOL     OW29041   6.971  10.463   3.459 -0.4736 -0.2638 -0.0994
42345SOL    HW129042   6.994  10.372   3.440  2.4549  0.1357  1.0807
42345SOL    HW229043   7.039  10.515   3.417 -0.9786  1.2662  0.8742
42346SOL     OW29044   9.177   0.955   2.380 -0.1274  0.4020 -0.2376
42346SOL    HW129045   9.105   0.933   2.321 -1.1945 -0.3905  1.2860
42346SOL    HW229046   9.223   0.872   2.392 -0.3971  0.3718  0.6414
42347SOL     OW29047   4.566   0.987   6.333 -0.2073 -0.0492 -0.3765
42347SOL    HW129048   4.630   1.035   6.280 -0.4152  1.3681  0.5964
42347SOL    HW229049   4.614   0.911   6.365  0.0004 -0.7847 -2.3327
42348SOL     OW29050   2.849   7.589   8.773  0.5726  0.2587 -0.0330
42348SOL    HW129051   2.911   7.619   8.706  1.1819 -0.6463  0.1030
42348SOL    HW229052   2.901   7.530   8.828 -0.4472 -0.6327  0.0004
42349SOL     OW29053   5.063   7.508   2.199  0.4457  0.7553 -0.0018
42349SOL    HW129054   4.995   7.572   2.218 -0.1798  0.4038 -0.9624
42349SOL    HW229055   5.056   7.493   2.105  0.0404 -1.2853  0.3088
42350SOL     OW29056   1.953   7.118   7.728 -0.2896  0.2440 -0.0547
42350SOL    HW129057   1.978   7.183   7.663 -0.1935  0.7407  0.4612
42350SOL    HW229058   2.036   7.087   7.764 -0.3490  1.1408  0.9354
42351SOL     OW29059  10.042   9.836   6.703 -0.0152  0.1496 -0.6202
42351SOL    HW129060  10.001   9.791   6.629  0.6736 -1.2384 -0.1972
42351SOL    HW229061  10.112   9.777   6.730  0.2209  0.9926  0.6630
42352SOL     OW29062   5.564   5.602   7.921  0.0851 -0.2291  0.0865
42352SOL    HW129063   5.537   5.637   7.836  1.2478 -0.8625 -0.5648
42352SOL    HW229064   5.621   5.528   7.900  0.9287  0.0120  1.4132
42353SOL     OW29065   3.143   7.313   1.999  0.5962 -0.2408  0.0722
42353SOL    HW129066   3.072   7.274   2.051 -1.4273  0.5282 -1.9430
42353SOL    HW229067   3.208   7.341   2.064 -1.7974  0.7445  2.2057
42354SOL     OW29068   0.464   6.435   3.577  1.1443  0.6037  0.8334
42354SOL    HW129069   0.523   6.395   3.641  0.3440  1.6981  2.3274
42354SOL    HW229070   0.472   6.380   3.499  0.8811 -1.8263  2.4055
42355SOL     OW29071   7.347  10.391   3.476 -0.3845  0.1109  0.3498
42355SOL    HW129072   7.291  10.372   3.552 -2.0297 -0.4228 -0.9463
42355SOL    HW229073   7.287  10.418   3.408  1.1198  1.1187 -0.6429
42356SOL     OW29074   6.404   1.207   8.857  0.5233  0.1284 -0.3532
42356SOL    HW129075   6.311   1.211   8.836  0.9022  1.2309 -2.0164
42356SOL    HW229076   6.429   1.116   8.840  0.0797  0.2016 -1.4545
42357SOL     OW29077   6.957   1.717   2.822  0.4988  0.8856  0.0700
42357SOL    HW129078   6.982   1.632   2.786 -1.3492  1.4946 -3.0947
42357SOL    HW229079   6.862   1.709   2.837  0.1155  2.5892 -1.1607
42358SOL     OW29080   3.309   4.218   7.676 -0.5359 -0.5036  0.7132
42358SOL    HW129081   3.271   4.244   7.759 -1.9304  0.6058 -0.2314
42358SOL    HW229082   3.234   4.197   7.620  0.3513 -0.9370 -0.3600
42359SOL     OW29083   8.855   9.914   0.969 -0.0231  0.0814  0.5364
42359SOL    HW129084   8.910   9.962   0.907  0.2318  0.9116  1.3684
42359SOL    HW229085   8.816   9.983   1.024  1.1465 -0.6831  2.4171
42360SOL     OW29086   8.482   2.454   5.824  0.2179  0.1016 -0.1916
42360SOL    HW129087   8.528   2.415   5.898  0.3257  0.0733 -0.2730
42360SOL    HW229088   8.391   2.457   5.851  0.1158 -0.7223 -0.3996
42361SOL     OW29089   9.817   8.087   4.322 -0.8643 -0.2045  0.3293
42361SOL    HW129090   9.786   7.997   4.310  0.7905 -1.1953  2.5673
42361SOL    HW229091   9.741   8.135   4.355 -1.8455 -0.6749 -1.1512
42362SOL     OW29092   5.899  10.700   0.258 -0.2231  0.1874  0.4029
42362SOL    HW129093   5.832  10.637   0.285 -1.8755  0.1045 -3.2234
42362SOL    HW229094   5.872  10.783   0.298 -0.8901 -0.4217  1.2539
42363SOL     OW29095   5.556   8.437   1.330  0.1576 -0.3551 -0.2147
42363SOL    HW129096   5.584   8.437   1.422 -1.0284 -0.4563  0.1699
42363SOL    HW229097   5.488   8.504   1.326 -1.3029 -1.7710 -0.4948
42364SOL     OW29098   8.301   2.596   4.563 -0.3309  0.7909 -0.0009
42364SOL    HW129099   8.305   2.565   4.654 -2.0170 -0.4119 -0.2784
42364SOL    HW229100   8.392   2.604   4.536  0.1960  0.7046  1.6450
42365SOL     OW29101   5.104   2.424   6.502 -0.1874 -0.4468 -0.4846
42365SOL    HW129102   5.072   2.333   6.501 -0.6213 -0.3297 -2.6467
42365SOL    HW229103   5.195   2.417   6.472  0.0248 -0.2293  0.1013
42366SOL     OW29104   5.715   7.578   3.693 -0.7553 -0.1735  0.4653
42366SOL    HW129105   5.679   7.557   3.779  1.0198 -2.0670  0.8249
42366SOL    HW229106   5.797   7.529   3.688 -1.1780 -0.8159 -2.6219
42367SOL     OW29107   8.327   3.071   2.127  0.0564  0.0268 -0.1476
42367SOL    HW129108   8.412   3.109   2.147  1.1118 -2.8709  1.4062
42367SOL    HW229109   8.342   3.019   2.048 -0.8109  0.9691 -0.9701
42368SOL     OW29110   9.498   6.733   0.532  0.8908 -0.5056 -0.0644
42368SOL    HW129111   9.574   6.764   0.581 -2.4710  3.2298  3.6671
42368SOL    HW229112   9.474   6.651   0.575  1.8903 -0.8957 -0.2265
42369SOL     OW29113  10.250   1.534   2.468  0.6346 -0.1736  0.2660
42369SOL    HW129114  10.323   1.530   2.529 -0.0709  0.1889  1.1539
42369SOL    HW229115  10.237   1.628   2.453 -1.5605 -0.0216  2.5149
42370SOL     OW29116   6.898   0.531   5.133  0.1039 -0.7984 -0.4542
42370SOL    HW129117   6.806   0.533   5.161  0.5294  0.1880  0.9476
42370SOL    HW229118   6.893   0.510   5.040 -1.8540  3.2416 -1.5135
42371SOL     OW29119   3.867   7.997   3.766 -0.0939 -0.2537  0.5014
42371SOL    HW129120   3.819   7.941   3.828 -0.0894 -0.1300  0.6169
42371SOL    HW229121   3.850   8.086   3.796 -1.3044 -0.0913 -0.5308
42372SOL     OW29122   4.487   9.817   0.842  0.2037  0.1349  0.1169
42372SOL    HW129123   4.518   9.727   0.845  1.2075  0.3318 -2.2656
42372SOL    HW229124   4.417   9.820   0.907  2.8174 -1.2252  3.2516
42373SOL     OW29125  11.029   9.113   1.259 -0.2271 -0.2738 -0.0917
42373SOL    HW129126  11.012   9.069   1.342  1.8537 -1.1476 -0.0644
42373SOL    HW229127  11.106   9.167   1.276 -1.6736  2.1555 -0.6136
42374SOL     OW29128   2.110   3.597   8.567 -0.8517 -0.2953  0.3555
42374SOL    HW129129   2.122   3.676   8.514  1.6031 -0.7458  0.1221
42374SOL    HW229130   2.196   3.581   8.606 -1.3724 -2.6580  0.6898
42375SOL     OW29131   8.000   2.631   5.255 -0.6550 -0.0603 -0.4098
42375SOL    HW129132   7.910   2.662   5.253 -0.7698 -0.3737 -0.2240
42375SOL    HW229133   8.043   2.677   5.183 -0.7175  0.8313  0.1150
42376SOL     OW29134   1.725  10.016   1.011  0.3948  0.2958 -0.6861
42376SOL    HW129135   1.754  10.008   1.102 -2.9117  1.0421  0.5913
42376SOL    HW229136   1.759  10.101   0.982  0.1695  0.7802  0.4219
42377SOL     OW29137   4.124   6.372   8.328 -0.1046  0.1784  0.0646
42377SOL    HW129138   4.166   6.402   8.408  1.0002 -0.8541 -0.1015
42377SOL    HW229139   4.194   6.371   8.263 -0.9316  0.7475 -0.8582
42378SOL     OW29140   7.520   4.398   7.580 -0.4405  0.2503  0.2033
42378SOL    HW129141   7.483   4.391   7.492  0.2360  1.2093 -0.1768
42378SOL    HW229142   7.479   4.476   7.617  0.2553  0.6123  0.2346
42379SOL     OW29143   7.268  10.524   6.017 -0.2977 -0.6294 -0.9328
42379SOL    HW129144   7.287  10.522   6.110  0.4108 -0.1160 -1.0637
42379SOL    HW229145   7.218  10.443   6.001 -0.9841 -0.4066 -0.0029
42380SOL     OW29146   2.287   3.070   0.615 -1.1644  0.4518 -0.1627
42380SOL    HW129147   2.232   3.008   0.662 -0.3460 -0.2868 -0.1445
42380SOL    HW229148   2.262   3.061   0.523 -4.5667  3.6838  0.1877
42381SOL     OW29149   0.880   1.369   0.955  0.0413 -0.0926  0.3424
42381SOL    HW129150   0.796   1.399   0.989 -0.3793  0.9594 -1.5003
42381SOL    HW229151   0.895   1.422   0.877  2.7106  0.1618  0.9222
42382SOL     OW29152  10.176   5.685  11.178  0.5842  0.2497  0.0061
42382SOL    HW129153  10.267   5.703  11.204  0.7368 -0.8359  0.2614
42382SOL    HW229154  10.124   5.748  11.227  1.2254  1.2159 -0.5076
42383SOL     OW29155   1.553   2.778   2.047  0.4460 -0.0319  0.4330
42383SOL    HW129156   1.539   2.711   1.980 -2.6818  0.4304  0.4525
42383SOL    HW229157   1.526   2.736   2.129 -0.5802  0.8792  0.5922
42384SOL     OW29158  10.830   1.185   6.798 -0.3369  0.7245 -0.0345
42384SOL    HW129159  10.758   1.163   6.739 -1.0193 -0.4951  1.1770
42384SOL    HW229160  10.789   1.240   6.865 -0.2916 -0.3459  0.9129
42385SOL     OW29161  10.683   0.470   2.713 -0.0026 -0.6444  0.1075
42385SOL    HW129162  10.622   0.487   2.785  0.2048 -1.4387  0.4773
42385SOL    HW229163  10.696   0.556   2.672 -1.2967 -0.4457  0.0754
42386SOL     OW29164   8.014   9.776   8.545 -0.6532 -0.3265 -0.0812
42386SOL    HW129165   7.963   9.764   8.625  1.2577 -1.3445  1.0607
42386SOL    HW229166   8.088   9.831   8.572  0.7273 -1.7475 -0.7756
42387SOL     OW29167  10.388   9.543  11.275 -0.7751  0.2237 -1.2625
42387SOL    HW129168  10.357   9.563  11.363  0.9765  0.2297 -0.5978
42387SOL    HW229169  10.438   9.620  11.248 -1.4508  0.3098 -2.3818
42388SOL     OW29170   0.725   1.101  11.006 -0.8105 -0.2415 -0.1223
42388SOL    HW129171   0.752   1.027  10.952 -0.3128  1.2862 -2.0673
42388SOL    HW229172   0.630   1.091  11.014 -0.8560 -0.6418 -1.0687
42389SOL     OW29173   5.354   3.961   4.755 -0.2860 -0.5648  0.4641
42389SOL    HW129174   5.307   4.042   4.734  1.2297  0.6877  1.6186
42389SOL    HW229175   5.410   3.947   4.679  0.4981  0.3169  0.8560
42390SOL     OW29176   9.634   8.573   2.700 -0.0318 -0.0640 -0.0140
42390SOL    HW129177   9.672   8.596   2.785 -4.1584  1.7655  1.5703
42390SOL    HW229178   9.660   8.645   2.642  0.1733  0.3481  0.5821
42391SOL     OW29179   9.726   4.142  10.541  0.0299 -0.1239 -0.2924
42391SOL    HW129180   9.756   4.232  10.523  1.6586 -0.6202 -0.2308
42391SOL    HW229181   9.637   4.153  10.575  0.4725  1.5315  0.4611
42392SOL     OW29182   4.568  10.780   2.698 -0.1517 -0.1577  0.2306
42392SOL    HW129183   4.584  10.874   2.702 -0.0063 -0.1832  0.2634
42392SOL    HW229184   4.485  10.768   2.745 -1.1723  0.1806 -1.4228
42393SOL     OW29185   9.971   3.911   0.920  0.1074  0.5671  0.2147
42393SOL    HW129186   9.880   3.909   0.950  0.3548 -0.4322  0.9580
42393SOL    HW229187   9.993   3.819   0.903  1.7023  0.4850  2.3522
42394SOL     OW29188   0.242   5.672   5.046  0.1352 -0.3128 -0.9046
42394SOL    HW129189   0.163   5.628   5.015  0.3201 -2.3691  1.2830
42394SOL    HW229190   0.211   5.754   5.083 -0.9103 -0.8360 -0.5875
42395SOL     OW29191   8.068   0.629   0.320 -0.0485 -0.6076  0.4457
42395SOL    HW129192   8.151   0.586   0.303  0.8906  1.1403  0.3543
42395SOL    HW229193   8.087   0.723   0.311 -2.1051 -0.1691  0.0526
42396SOL     OW29194   7.771   2.230   8.249 -0.5109 -1.1845  0.1344
42396SOL    HW129195   7.833   2.197   8.313  0.3018 -0.7207 -0.4043
42396SOL    HW229196   7.770   2.164   8.179 -0.8488 -1.3328  0.2745
42397SOL     OW29197   2.834  10.284   6.421  0.1568  0.4552 -0.9445
42397SOL    HW129198   2.881  10.365   6.404  3.5643 -0.7878  1.2857
42397SOL    HW229199   2.880  10.218   6.368 -0.5334 -0.4751 -0.4138
42398SOL     OW29200   6.519   1.922   7.393  0.1517 -0.4745 -0.1201
42398SOL    HW129201   6.477   2.007   7.384 -1.0014 -0.8886  0.9682
42398SOL    HW229202   6.535   1.913   7.487  0.2898 -1.4396 -0.2199
42399SOL     OW29203   1.880   0.237   3.016  0.7804  0.7103 -0.0621
42399SOL    HW129204   1.880   0.142   3.011  0.7787  0.7391 -0.7365
42399SOL    HW229205   1.922   0.266   2.935  0.1683  1.2926 -0.1928
42400SOL     OW29206   6.625   3.722   4.226 -0.6771  0.3244  0.2498
42400SOL    HW129207   6.672   3.649   4.187 -1.5476  0.1991 -0.6036
42400SOL    HW229208   6.542   3.684   4.255 -0.5226  0.6662  1.1695
42401SOL     OW29209   9.134   3.196   8.818 -0.2723  0.5559  0.2328
42401SOL    HW129210   9.226   3.171   8.820 -0.1034  0.7924 -2.0590
42401SOL    HW229211   9.087   3.114   8.808  0.0132  0.6566 -2.8029
42402SOL     OW29212   1.631   4.353   2.248 -0.3692 -0.1522  0.1701
42402SOL    HW129213   1.606   4.416   2.315  0.8493  0.0326  0.4684
42402SOL    HW229214   1.642   4.406   2.169 -1.0927 -0.2614 -0.0057
42403SOL     OW29215   3.621   5.457  11.140  0.2775 -0.6486  0.4772
42403SOL    HW129216   3.534   5.496  11.150  0.4329 -0.7078  2.5756
42403SOL    HW229217   3.613   5.371  11.180  1.1518 -0.9183  0.0965
42404SOL     OW29218  11.137   5.165   4.262 -0.3784  0.2393 -0.0066
42404SOL    HW129219  11.078   5.190   4.333 -0.8808  1.5958 -0.8628
42404SOL    HW229220  11.195   5.240   4.252  1.3132 -0.9334  0.5852
42405SOL     OW29221   6.055   9.279   8.737 -0.1199 -0.1655 -0.6142
42405SOL    HW129222   5.986   9.244   8.793 -0.3897  0.1450 -0.7464
42405SOL    HW229223   6.017   9.358   8.698  1.8375  2.9005  2.9919
42406SOL     OW29224   5.676   8.874  11.178  0.3324  0.5893 -0.2785
42406SOL    HW129225   5.677   8.891  11.272  1.0530 -1.0255  0.0318
42406SOL    HW229226   5.766   8.887  11.150  0.1786  0.7571 -0.7026
42407SOL     OW29227   4.243   0.115   0.508  0.3072  0.1263  0.2791
42407SOL    HW129228   4.222   0.072   0.426  0.5962  0.7632 -0.1337
42407SOL    HW229229   4.240   0.045   0.573  2.8087 -0.9928 -0.6591
42408SOL     OW29230   7.837   2.471   8.361 -0.4289  0.2422 -0.0438
42408SOL    HW129231   7.798   2.402   8.307 -2.6210 -0.1566  1.8837
42408SOL    HW229232   7.925   2.440   8.380  0.1649  0.0894 -2.7554
42409SOL     OW29233   8.488   8.906   0.257  0.4046 -0.1553 -0.4711
42409SOL    HW129234   8.423   8.957   0.305  0.0248 -1.2091  0.1735
42409SOL    HW229235   8.437   8.846   0.203  0.8192 -0.9431 -0.0108
42410SOL     OW29236   5.718   5.224   8.945 -0.0157  0.1271  0.4778
42410SOL    HW129237   5.791   5.251   9.000 -0.1051  0.6456  0.3516
42410SOL    HW229238   5.727   5.129   8.936  0.8600  0.2349  0.1454
42411SOL     OW29239   4.364   1.508   9.225 -0.0238  0.2275  0.0618
42411SOL    HW129240   4.357   1.474   9.314  4.3486 -0.5133  0.3652
42411SOL    HW229241   4.298   1.576   9.220 -2.7069 -1.9028  2.6580
42412SOL     OW29242   8.996   8.254   6.051 -0.2732 -0.2331  0.1673
42412SOL    HW129243   9.015   8.162   6.034  1.6852 -0.0605  1.1989
42412SOL    HW229244   8.901   8.257   6.064 -0.2882 -2.2112  0.7784
42413SOL     OW29245   2.068   3.010  11.065 -0.2114 -1.5292  0.3905
42413SOL    HW129246   2.080   3.032  11.157 -0.1055 -1.0973  0.2747
42413SOL    HW229247   2.043   3.093  11.024  0.0518 -1.6568 -0.0256
42414SOL     OW29248   4.938  10.463   1.052 -0.0292 -0.6825  1.0500
42414SOL    HW129249   4.889  10.424   0.980  1.5326  0.5618 -0.7706
42414SOL    HW229250   4.906  10.554   1.056  0.3596 -0.5625  1.4991
42415SOL     OW29251   8.648   9.166   1.711 -0.1549 -0.4560  0.2620
42415SOL    HW129252   8.561   9.206   1.715  0.6758  1.3668  1.2389
42415SOL    HW229253   8.649   9.104   1.784 -1.3756 -2.2277 -1.1337
42416SOL     OW29254   5.408   2.234   4.995  0.5642 -0.3269  0.4203
42416SOL    HW129255   5.371   2.154   5.032  1.6849 -1.0748 -0.0497
42416SOL    HW229256   5.366   2.304   5.046 -4.8566 -0.6892 -2.7561
42417SOL     OW29257   7.845   6.146  10.305  0.0052  0.9322 -0.8724
42417SOL    HW129258   7.791   6.225  10.309 -0.5903  0.5073  1.9488
42417SOL    HW229259   7.795   6.086  10.249  0.3982  2.4348 -2.9258
42418SOL     OW29260  11.277   0.709   1.749  0.1154 -0.5469 -0.2382
42418SOL    HW129261  11.234   0.792   1.770 -2.3398 -1.6691 -0.4559
42418SOL    HW229262  11.279   0.707   1.653  0.2990 -0.6928 -0.2308
42419SOL     OW29263   7.335   1.499   1.115  0.3031 -0.3745 -0.6939
42419SOL    HW129264   7.348   1.565   1.183  0.0326 -0.6475 -0.3705
42419SOL    HW229265   7.418   1.453   1.110 -0.4101 -1.9913  1.2316
42420SOL     OW29266   6.516   4.862   4.166 -0.7275  0.0068  0.1060
42420SOL    HW129267   6.561   4.803   4.106 -1.5464  0.3848 -0.9064
42420SOL    HW229268   6.505   4.811   4.246 -0.2792 -0.7667 -0.3154
42421SOL     OW29269   8.173   4.474   9.611 -0.2744  0.3562 -0.4049
42421SOL    HW129270   8.196   4.400   9.668  0.3476  0.9515  0.1464
42421SOL    HW229271   8.171   4.437   9.523  0.5171 -0.2174 -0.1950
42422SOL     OW29272   4.785   5.263   9.896 -0.6550  0.0816 -0.3168
42422SOL    HW129273   4.789   5.248   9.991 -1.3364 -1.3230 -0.4759
42422SOL    HW229274   4.876   5.253   9.867 -0.6493 -0.9987  0.0128
42423SOL     OW29275   9.621   3.612   5.126 -0.5400  0.2742 -0.7629
42423SOL    HW129276   9.575   3.641   5.205 -0.7209 -1.6881 -0.1118
42423SOL    HW229277   9.697   3.670   5.120  1.2217 -1.4362  2.6330
42424SOL     OW29278   1.007   6.904   6.637 -0.0413  0.3436  0.2816
42424SOL    HW129279   1.040   6.917   6.725  2.0616  0.9091 -0.5216
42424SOL    HW229280   1.079   6.859   6.591 -1.0107  0.2069 -1.1751
42425SOL     OW29281  10.850   1.622   6.950  0.2762  0.3924  0.3139
42425SOL    HW129282  10.756   1.635   6.959 -0.0422 -0.3782 -1.4383
42425SOL    HW229283  10.884   1.624   7.040 -1.6655 -1.2395  1.1709
42426SOL     OW29284   5.188   9.538   2.504 -0.3187 -0.3119  0.1449
42426SOL    HW129285   5.246   9.599   2.458 -0.7684  1.0959  1.3678
42426SOL    HW229286   5.214   9.546   2.596 -0.9930 -1.3236  0.4332
42427SOL     OW29287   9.283   5.589  10.482 -0.9831  0.0146  0.3050
42427SOL    HW129288   9.313   5.675  10.511 -0.2383 -0.0082 -0.3615
42427SOL    HW229289   9.203   5.607  10.432 -1.0304  0.2839  0.4785
42428SOL     OW29290  11.258   0.880   0.347  0.2402  0.2844 -0.8971
42428SOL    HW129291  11.228   0.823   0.277 -3.7266  1.3994 -0.3609
42428SOL    HW229292  11.298   0.955   0.302 -2.2098  0.9684 -2.1203
42429SOL     OW29293   9.746   1.884   8.022 -0.4711  0.3694 -0.1410
42429SOL    HW129294   9.734   1.907   8.114  2.1112  0.3643  0.2776
42429SOL    HW229295   9.723   1.964   7.974  0.9992  1.4146  0.7732
42430SOL     OW29296   9.430   8.764   9.726  0.3934 -0.4596 -0.0414
42430SOL    HW129297   9.382   8.751   9.808  0.4344 -1.8463 -0.2117
42430SOL    HW229298   9.519   8.788   9.755  0.1111  0.2068  0.2956
42431SOL     OW29299   8.732   2.903   6.789  0.4125  0.3070  0.0755
42431SOL    HW129300   8.781   2.823   6.768  1.0835  0.5662  0.6238
42431SOL    HW229301   8.640   2.879   6.773  0.5294 -0.8064  0.8981
42432SOL     OW29302  10.578   3.749   9.416 -0.4765  0.3307  0.0409
42432SOL    HW129303  10.654   3.766   9.359  0.9632  0.0477  1.7899
42432SOL    HW229304  10.554   3.658   9.397 -0.2692  0.3614 -0.3926
42433SOL     OW29305   4.635   6.155   0.201 -0.0228 -0.0781  0.1805
42433SOL    HW129306   4.686   6.075   0.208  0.3607  0.3125  3.5934
42433SOL    HW229307   4.545   6.125   0.186  0.4410 -0.9927 -0.8755
42434SOL     OW29308  10.304   9.645   6.751 -0.6521  0.1671 -0.2852
42434SOL    HW129309  10.269   9.605   6.671 -0.4939  0.5101 -0.5310
42434SOL    HW229310  10.262   9.597   6.822 -0.7490 -0.1829 -0.5739
42435SOL     OW29311   6.961   2.438  11.199  0.3403 -0.1169 -0.7113
42435SOL    HW129312   6.937   2.517  11.152  0.1923 -0.8334 -1.8906
42435SOL    HW229313   6.880   2.387  11.203  0.4537 -0.2495 -0.0556
42436SOL     OW29314   8.757   6.628   1.611  0.2475 -1.1326 -0.0822
42436SOL    HW129315   8.807   6.637   1.692  0.0530  1.0745 -0.1406
42436SOL    HW229316   8.703   6.707   1.608 -1.8377 -2.4971 -0.9854
42437SOL     OW29317   5.275   8.207   7.191  0.2174  0.6166 -0.0716
42437SOL    HW129318   5.249   8.209   7.098 -1.6874  0.4207  0.4201
42437SOL    HW229319   5.219   8.140   7.230  1.2721  0.4256  1.1593
42438SOL     OW29320   9.342   4.529   9.397  0.3016 -0.3894  0.2802
42438SOL    HW129321   9.281   4.579   9.451  1.7142  2.4768 -0.5753
42438SOL    HW229322   9.427   4.568   9.415  1.4026 -1.9925 -1.1123
42439SOL     OW29323   3.937   7.809   0.022  0.5357  0.1601 -0.1704
42439SOL    HW129324   3.910   7.720   0.002  1.5961  0.0264 -1.1631
42439SOL    HW229325   4.027   7.801   0.053  0.7784  0.9036 -0.6369
42440SOL     OW29326   2.533   6.398  10.131  0.0346 -0.2488  0.0459
42440SOL    HW129327   2.500   6.488  10.128  0.5500 -0.0544  0.1901
42440SOL    HW229328   2.581   6.393  10.213  2.4817  0.2089 -1.2872
42441SOL     OW29329   9.928  10.394   2.740 -0.3506  0.0061 -0.0185
42441SOL    HW129330   9.975  10.426   2.663  2.3054 -0.0086  1.4715
42441SOL    HW229331   9.940  10.299   2.738 -1.3962 -0.1366 -0.2319
42442SOL     OW29332   0.057   9.499  11.272 -0.3262 -0.0993  0.1521
42442SOL    HW129333   0.104   9.429  11.226 -0.7502  0.7650 -1.7225
42442SOL    HW229334  -0.000   9.454  11.333 -0.7839 -1.4283 -1.1963
42443SOL     OW29335   2.525   1.936   8.186 -1.0051 -0.1234  0.6612
42443SOL    HW129336   2.541   1.935   8.092 -0.1368 -2.1673  0.7610
42443SOL    HW229337   2.548   2.024   8.214 -0.5811  0.2996 -0.9258
42444SOL     OW29338   8.467   1.441   2.585  0.4479  0.1371 -0.9146
42444SOL    HW129339   8.553   1.399   2.586  0.6515  0.5023  1.1358
42444SOL    HW229340   8.468   1.496   2.507  2.5615  1.0462 -0.3208
42445SOL     OW29341   2.795   5.131   9.442  0.0701 -0.0088  0.2263
42445SOL    HW129342   2.725   5.087   9.491 -0.0901 -2.2102 -1.8613
42445SOL    HW229343   2.753   5.208   9.404 -1.1294 -1.0342 -0.5808
42446SOL     OW29344   3.367   7.867   9.058  0.0148  0.7426  0.1613
42446SOL    HW129345   3.349   7.926   9.131 -0.4317  2.1715 -1.0650
42446SOL    HW229346   3.282   7.852   9.017  0.2037 -0.3452  0.1281
42447SOL     OW29347   5.448   2.258   4.007  0.8337  0.1168  0.1910
42447SOL    HW129348   5.369   2.247   4.059 -0.1217  1.8164 -0.8234
42447SOL    HW229349   5.509   2.304   4.064  1.2165 -1.3870  1.0492
42448SOL     OW29350   4.902   9.982   7.997  0.3355 -0.0952  0.2378
42448SOL    HW129351   4.872   9.891   7.994  0.0666  0.0067 -0.2168
42448SOL    HW229352   4.825  10.034   7.974  1.1496  0.1070 -2.2423
42449SOL     OW29353   0.787   5.975   3.152 -0.2303 -0.0189  0.2576
42449SOL    HW129354   0.793   6.061   3.110 -1.0336 -0.0271  0.1005
42449SOL    HW229355   0.846   5.981   3.227 -2.5094  1.7832  2.0909
42450SOL     OW29356   3.092   9.100   1.115  0.2548  0.0349 -0.4603
42450SOL    HW129357   3.149   9.123   1.188 -0.4166 -0.9646  0.4119
42450SOL    HW229358   3.083   9.181   1.065 -1.1058  1.3883  1.8293
42451SOL     OW29359   1.036   1.699   4.849 -0.1949  0.7703  0.2563
42451SOL    HW129360   1.022   1.771   4.910 -1.0624  0.3764  0.5468
42451SOL    HW229361   1.084   1.737   4.776  0.4191  1.3645  0.9548
42452SOL     OW29362   3.929  10.643   0.212 -0.2950  0.5496 -0.1343
42452SOL    HW129363   4.014  10.604   0.231  0.2839  1.5363 -0.6306
42452SOL    HW229364   3.910  10.697   0.289 -0.6111  0.1158  0.0977
42453SOL     OW29365   1.656   7.275  10.950  0.5524  0.1121  0.4569
42453SOL    HW129366   1.692   7.360  10.926  0.9906  0.1268  1.1495
42453SOL    HW229367   1.618   7.241  10.869  1.5160  0.4029 -0.1265
42454SOL     OW29368   3.471   5.554   2.318  0.3880 -0.0013 -0.0224
42454SOL    HW129369   3.531   5.617   2.278 -1.8826  3.2205  1.2172
42454SOL    HW229370   3.392   5.557   2.263  0.2896 -2.1207 -0.1049
42455SOL     OW29371   6.811   0.008   9.495  0.2590 -0.1174  0.0534
42455SOL    HW129372   6.760  -0.035   9.427 -0.3249 -0.0978  0.4740
42455SOL    HW229373   6.754   0.077   9.530  1.8523  2.3954 -1.9383
42456SOL     OW29374   9.422   4.542  11.238  0.3710 -0.3732  0.1066
42456SOL    HW129375   9.439   4.575  11.150 -0.6758 -1.4713 -0.5498
42456SOL    HW229376   9.420   4.619  11.294  0.6909  0.3748 -0.8949
42457SOL     OW29377   5.863   1.202   6.210  0.4004 -0.0439  0.2542
42457SOL    HW129378   5.794   1.215   6.145  0.5527 -1.4957 -0.2393
42457SOL    HW229379   5.942   1.235   6.167  0.1965  0.6710  0.4188
42458SOL     OW29380   2.941   1.799   5.023  0.5345 -0.5302 -0.5588
42458SOL    HW129381   2.973   1.737   5.089 -0.5745  0.4241  0.9685
42458SOL    HW229382   2.851   1.772   5.007  0.7036 -0.5693 -1.4723
42459SOL     OW29383   2.519   2.984   7.323 -0.4661 -0.0970  0.4426
42459SOL    HW129384   2.573   2.906   7.320  0.7078  0.6824  0.7508
42459SOL    HW229385   2.511   3.012   7.231  0.9929  0.6607  0.5247
42460SOL     OW29386   1.973  11.024   0.687 -0.2310 -0.1418  0.2737
42460SOL    HW129387   2.034  11.076   0.636 -0.2602 -1.5008 -1.2191
42460SOL    HW229388   1.917  11.088   0.731  1.5833  1.1099  0.8822
42461SOL     OW29389   1.472   1.695  11.053 -0.3908 -0.3258  0.2418
42461SOL    HW129390   1.391   1.655  11.085 -1.7112  1.6767 -0.4113
42461SOL    HW229391   1.497   1.640  10.978 -1.9650 -0.1590 -0.4401
42462SOL     OW29392   0.862   9.043   9.101  0.0677 -0.2123 -0.1245
42462SOL    HW129393   0.898   9.037   9.189  0.3835  0.5199 -0.1911
42462SOL    HW229394   0.874   8.955   9.064  1.9303  0.0139 -0.1855
42463SOL     OW29395   1.129   5.978   8.405  0.8610  0.5287  0.2468
42463SOL    HW129396   1.180   6.011   8.479  0.0902  1.0621  0.5621
42463SOL    HW229397   1.113   6.055   8.350  0.2349  0.4166  0.2596
42464SOL     OW29398   1.132   1.223   4.488 -0.4162 -0.0544  0.0488
42464SOL    HW129399   1.122   1.157   4.556 -2.2916  1.1588  1.0264
42464SOL    HW229400   1.100   1.181   4.408  0.4415 -1.0031  0.1860
42465SOL     OW29401   6.267  11.014   1.903  0.2447 -0.1914 -0.1729
42465SOL    HW129402   6.243  11.104   1.882 -0.7044 -0.3905 -0.0082
42465SOL    HW229403   6.189  10.978   1.945  0.7448 -0.9778  0.1000
42466SOL     OW29404   2.962  11.215   9.709 -0.3235  0.7679  0.2650
42466SOL    HW129405   3.027  11.215   9.780 -1.4837  2.0853  1.3720
42466SOL    HW229406   3.009  11.179   9.634  1.1196 -0.1185  1.5289
42467SOL     OW29407   3.315   6.251   2.882  0.1268  0.5614 -0.3027
42467SOL    HW129408   3.300   6.342   2.855  1.5665  0.2141 -2.5400
42467SOL    HW229409   3.311   6.254   2.977  0.1633  2.9842 -0.3005
42468SOL     OW29410   3.550   7.795  10.442 -0.4666 -0.4584 -0.0549
42468SOL    HW129411   3.500   7.781  10.523 -1.3432 -1.0587 -0.6821
42468SOL    HW229412   3.483   7.814  10.376  0.0919 -1.7845 -1.0267
42469SOL     OW29413   8.030   5.507   3.584 -0.5007  0.2749 -0.5236
42469SOL    HW129414   8.065   5.460   3.660 -1.7538 -1.0284 -0.7096
42469SOL    HW229415   7.970   5.572   3.622 -1.7017 -0.8768 -0.4041
42470SOL     OW29416   8.150   1.393   6.214  0.6233  0.1132  0.3475
42470SOL    HW129417   8.141   1.448   6.291  0.4089  0.7597 -0.1314
42470SOL    HW229418   8.083   1.325   6.225  1.4208 -0.5476  1.3329
42471SOL     OW29419   2.978   4.645   5.273  0.0602 -0.3282 -0.0461
42471SOL    HW129420   2.996   4.573   5.213 -1.8209 -1.4509  0.6646
42471SOL    HW229421   2.996   4.610   5.360 -0.6608  0.1059  0.2906
42472SOL     OW29422   4.747   5.127   6.822 -0.3222 -0.4750  0.4092
42472SOL    HW129423   4.738   5.115   6.916  2.4537 -1.5554  0.6218
42472SOL    HW229424   4.840   5.140   6.808 -0.5670 -0.9572 -2.2565
42473SOL     OW29425   6.862   3.945   4.797 -0.3831  0.3543 -0.0197
42473SOL    HW129426   6.798   3.997   4.748 -0.8875 -1.0203 -0.8983
42473SOL    HW229427   6.895   3.881   4.733 -1.3471 -1.7641  1.4548
42474SOL     OW29428   8.486   0.054   5.380  0.2639 -0.5338 -0.1754
42474SOL    HW129429   8.525   0.140   5.365 -0.4076 -0.6069 -2.8429
42474SOL    HW229430   8.525   0.024   5.462 -0.9076  3.0823  1.9662
42475SOL     OW29431   2.521   2.997   0.511  0.1267 -0.0484 -0.2619
42475SOL    HW129432   2.543   3.084   0.477 -1.3004 -0.1167 -1.4447
42475SOL    HW229433   2.446   3.013   0.569  0.9360 -0.2869  0.8815
42476SOL     OW29434   2.718   5.834   3.219 -0.6628  0.1577  0.3292
42476SOL    HW129435   2.778   5.902   3.190 -0.1922 -0.6119 -0.5477
42476SOL    HW229436   2.715   5.843   3.314  1.3745 -0.2188  0.4589
42477SOL     OW29437  10.692   9.105   3.678 -0.3414  0.3022 -0.6023
42477SOL    HW129438  10.692   9.010   3.680  0.5247  0.2584 -1.9171
42477SOL    HW229439  10.741   9.128   3.599 -1.4052  1.8301 -0.8540
42478SOL     OW29440   5.680   2.898   5.082  0.0468 -1.0625  0.3148
42478SOL    HW129441   5.605   2.918   5.137  2.3827 -2.1713  4.3728
42478SOL    HW229442   5.702   2.982   5.040 -2.1130 -0.2403  0.6845
42479SOL     OW29443   8.450   6.509   4.539  0.1222  0.6126  0.4562
42479SOL    HW129444   8.411   6.427   4.570  0.7659 -0.4837 -1.4877
42479SOL    HW229445   8.410   6.577   4.594 -1.9029 -0.7957  0.8119
42480SOL     OW29446   8.176   6.043   5.131  0.2006  0.3179  0.0623
42480SOL    HW129447   8.100   6.096   5.152  1.2103  0.7634  3.0763
42480SOL    HW229448   8.143   5.954   5.126 -0.6841  0.6282  0.2093
42481SOL     OW29449  10.270   7.956   3.931 -0.0318  0.2599  0.0438
42481SOL    HW129450  10.197   7.910   3.889  0.2502 -1.0106  0.8620
42481SOL    HW229451  10.232   7.991   4.012  0.2502 -0.4221  0.4810
42482SOL     OW29452   4.732   5.797   8.711  0.4578 -0.0155 -0.0743
42482SOL    HW129453   4.722   5.704   8.731  1.9327  0.1138  1.5019
42482SOL    HW229454   4.742   5.800   8.616 -0.4507 -1.3490 -0.2513
42483SOL     OW29455   6.886  10.089   0.965 -0.0343 -0.7733  0.2349
42483SOL    HW129456   6.940  10.040   0.903 -1.2997 -0.2305 -1.3861
42483SOL    HW229457   6.840  10.021   1.015 -0.0573 -1.2386 -0.4042
42484SOL     OW29458   2.296   6.637   1.881 -0.0090 -0.2484 -0.8980
42484SOL    HW129459   2.232   6.591   1.936  0.4222  0.2895  0.0712
42484SOL    HW229460   2.345   6.692   1.942  2.1137 -1.4364 -1.4605
42485SOL     OW29461   3.993   2.284   4.246  0.3187 -0.3468 -0.2041
42485SOL    HW129462   4.078   2.312   4.212  0.5191  1.0527  1.3166
42485SOL    HW229463   4.011   2.200   4.289  0.8575 -0.2293 -0.1927
42486SOL     OW29464   0.465   2.243   7.384  0.0220 -0.2089  0.3938
42486SOL    HW129465   0.507   2.326   7.359 -1.5125  0.8915  1.2647
42486SOL    HW229466   0.436   2.205   7.301  0.7050  0.1535 -0.0140
42487SOL     OW29467   0.740   8.478  10.581 -0.3866 -0.0492  0.5018
42487SOL    HW129468   0.754   8.420  10.506  0.3284 -0.1380  0.6961
42487SOL    HW229469   0.645   8.478  10.594 -0.3836 -1.3758  0.6603
42488SOL     OW29470   3.751   9.897  11.130 -0.4527  0.2891 -0.1378
42488SOL    HW129471   3.697   9.851  11.067 -3.2588  1.6496  1.0809
42488SOL    HW229472   3.737   9.850  11.213 -0.5353  1.2110  0.3865
42489SOL     OW29473   5.585  10.001  10.309  0.4236 -0.5398 -0.4953
42489SOL    HW129474   5.531  10.043  10.375  0.9533 -0.5099 -0.0683
42489SOL    HW229475   5.670  10.046  10.315  1.6979 -2.9440  1.4269
42490SOL     OW29476   4.808   2.698   7.073  0.2161 -0.5183 -0.1059
42490SOL    HW129477   4.846   2.783   7.050  0.4780 -0.8282 -0.8488
42490SOL    HW229478   4.860   2.669   7.149 -0.2797  0.2511  0.5452
42491SOL     OW29479   1.861   7.423   2.147 -0.1728 -0.5695 -0.5911
42491SOL    HW129480   1.771   7.389   2.150  0.3772 -2.0321  0.4522
42491SOL    HW229481   1.858   7.493   2.082 -2.2259 -0.1054 -0.0809
42492SOL     OW29482   9.722  11.131   7.443 -0.6245  0.0530  0.2777
42492SOL    HW129483   9.719  11.064   7.375 -0.0020  0.6307 -0.3349
42492SOL    HW229484   9.797  11.186   7.419 -1.4993  1.3381  0.4312
42493SOL     OW29485   4.713   8.469   5.646  0.4548  0.5790 -0.4191
42493SOL    HW129486   4.705   8.374   5.658  0.8749  0.6927  0.8746
42493SOL    HW229487   4.808   8.484   5.644  0.3875  0.9275 -1.0145
42494SOL     OW29488   9.933   7.978   3.523  0.0645  0.2512  0.2830
42494SOL    HW129489   9.913   7.919   3.451  1.8584 -1.0015  0.7367
42494SOL    HW229490   9.868   7.957   3.591 -0.6848  0.3822 -0.3807
42495SOL     OW29491   1.351   2.632   0.034  0.3851  0.6189 -0.5017
42495SOL    HW129492   1.420   2.578  -0.004  1.9390 -0.4346  3.3088
42495SOL    HW229493   1.270   2.591   0.006  1.4891 -2.5721  0.4901
42496SOL     OW29494  10.802   9.152   6.653 -0.2060  0.3814 -0.2532
42496SOL    HW129495  10.810   9.233   6.603  1.6324  0.3198 -0.1232
42496SOL    HW229496  10.734   9.170   6.718 -0.4106  1.5113 -0.7607
42497SOL     OW29497   7.105   4.098   2.967 -0.8306 -0.1380 -0.2005
42497SOL    HW129498   7.009   4.103   2.968 -0.9800 -1.6906  2.3172
42497SOL    HW229499   7.124   4.005   2.982  1.0261  0.4176  1.1966
42498SOL     OW29500  10.153   2.780   4.731 -0.5759 -0.3611  0.0100
42498SOL    HW129501  10.079   2.839   4.718 -0.5180 -0.6519 -2.0918
42498SOL    HW229502  10.186   2.764   4.642  1.7648 -0.5622  0.8573
42499SOL     OW29503   3.902   6.405   2.621 -0.1044 -0.1825  0.8223
42499SOL    HW129504   3.936   6.433   2.706 -3.5138  1.4584  1.8288
42499SOL    HW229505   3.827   6.349   2.642  0.9144 -2.4816 -1.2121
42500SOL     OW29506   4.007  10.415   1.964 -0.5820  0.1398  0.9707
42500SOL    HW129507   4.066  10.485   1.937 -0.1201 -0.0995  1.3299
42500SOL    HW229508   3.945  10.406   1.892 -0.0610  0.2695  0.4981
42501SOL     OW29509   6.746   6.773   1.550  0.5544  0.8431 -0.1430
42501SOL    HW129510   6.764   6.794   1.459 -0.3063  1.6975 -0.1263
42501SOL    HW229511   6.683   6.839   1.578  2.2307  1.8123  1.6248
42502SOL     OW29512   4.655   8.828  11.277  0.2157 -0.2607  0.7059
42502SOL    HW129513   4.673   8.777  11.356  2.1180 -0.6103  0.0948
42502SOL    HW229514   4.563   8.854  11.286 -0.0220 -1.4858  2.3387
42503SOL     OW29515   0.893   9.279   7.434 -0.1300  0.1517 -0.1989
42503SOL    HW129516   0.909   9.293   7.341  2.2183  3.5635  0.4884
42503SOL    HW229517   0.807   9.317   7.450 -0.0337  0.6503 -0.8179
42504SOL     OW29518   5.925   4.302   8.826  0.1091  0.0742 -0.9077
42504SOL    HW129519   5.877   4.227   8.860  2.1588 -1.0160 -0.2475
42504SOL    HW229520   5.961   4.272   8.742 -0.3110  0.8570 -1.3830
42505SOL     OW29521   1.737   1.245   2.887  0.6764 -0.9063  1.2685
42505SOL    HW129522   1.795   1.283   2.953 -1.7669  0.7668  2.6298
42505SOL    HW229523   1.732   1.152   2.910  3.9255 -1.4946  0.1164
42506SOL     OW29524   0.719  10.696   2.123 -0.2708  0.1012  0.4240
42506SOL    HW129525   0.721  10.600   2.117 -2.0642 -0.0135  1.0357
42506SOL    HW229526   0.781  10.725   2.056  0.4115 -1.4773  0.3105
42507SOL     OW29527   3.495   3.307   9.751  0.3780 -0.4349  0.0563
42507SOL    HW129528   3.541   3.223   9.744 -0.3935 -0.9106  0.5830
42507SOL    HW229529   3.549   3.359   9.810  1.1308 -0.3610 -0.6756
42508SOL     OW29530  10.510   3.192   0.451  0.0420 -0.4348 -0.3716
42508SOL    HW129531  10.541   3.211   0.363  1.4707  1.9204  0.5381
42508SOL    HW229532  10.469   3.274   0.480 -0.7278 -1.2717  1.0211
42509SOL     OW29533   2.258   7.914  10.614  0.9474 -1.1946  0.2835
42509SOL    HW129534   2.251   7.840  10.554 -3.8417 -0.3796 -0.6121
42509SOL    HW229535   2.232   7.878  10.699 -0.7347 -0.7760 -0.0188
42510SOL     OW29536   1.148   0.984   1.642  0.3169 -0.7716 -0.3686
42510SOL    HW129537   1.065   1.031   1.652  0.5476 -0.5880  0.7529
42510SOL    HW229538   1.130   0.919   1.573 -0.6476 -0.4978 -0.3945
42511SOL     OW29539   0.191  11.133   5.257  0.0029  0.4096 -1.1392
42511SOL    HW129540   0.280  11.114   5.226  0.7563 -0.5906  1.3749
42511SOL    HW229541   0.189  11.227   5.271  0.7841  0.3912 -0.8871
42512SOL     OW29542   9.158   0.484   1.253 -0.4761  0.4331 -0.3417
42512SOL    HW129543   9.114   0.414   1.300  1.6691 -0.9747 -0.2979
42512SOL    HW229544   9.113   0.488   1.168 -3.9221  2.5316  1.3647
42513SOL     OW29545   8.707   7.163   0.407 -0.3895 -0.3447 -0.3352
42513SOL    HW129546   8.658   7.109   0.346  1.0752 -1.6380 -0.4133
42513SOL    HW229547   8.680   7.253   0.387 -0.6207 -0.8086 -2.2538
42514SOL     OW29548   1.006   9.131   3.673 -0.0664  0.3209 -0.3355
42514SOL    HW129549   0.945   9.204   3.673  0.0380  0.4089 -0.0942
42514SOL    HW229550   1.055   9.140   3.755  1.5021  1.2771 -1.3192
42515SOL     OW29551   0.348   7.489   4.018 -0.3063 -0.8270 -0.2948
42515SOL    HW129552   0.297   7.555   4.064 -1.1046 -0.8360 -1.1305
42515SOL    HW229553   0.379   7.533   3.939  2.7755 -0.1853  1.1379
42516SOL     OW29554   8.171   3.802   8.109 -0.4310 -0.7566  0.8239
42516SOL    HW129555   8.130   3.739   8.168 -1.7747  1.3372  2.2500
42516SOL    HW229556   8.124   3.884   8.124  0.3425  0.3259 -1.9080
42517SOL     OW29557   6.569   3.999   9.286  0.1077 -0.0745  0.1117
42517SOL    HW129558   6.573   4.079   9.233  0.1297  0.0095  0.2395
42517SOL    HW229559   6.497   3.949   9.247  0.5414 -0.3041 -0.4022
42518SOL     OW29560  11.193   9.392   4.288 -0.3353 -0.0065 -0.4167
42518SOL    HW129561  11.145   9.439   4.219 -0.2114  0.0331 -0.4760
42518SOL    HW229562  11.227   9.462   4.344  0.6449  0.0245 -1.0276
42519SOL     OW29563   8.990   7.181   5.016 -0.5954  0.7156 -1.2837
42519SOL    HW129564   8.898   7.208   5.020 -0.7927  0.0320  1.9505
42519SOL    HW229565   9.038   7.261   4.996 -1.6505  2.1575  1.4305
42520SOL     OW29566   4.441  10.209   6.667 -0.2332  0.1256 -0.9133
42520SOL    HW129567   4.441  10.224   6.761  3.1875  0.1625 -0.8144
42520SOL    HW229568   4.358  10.164   6.650 -0.9872  0.1930  2.0513
42521SOL     OW29569   3.682   7.507   6.878 -0.2781  0.3286  0.3789
42521SOL    HW129570   3.729   7.521   6.797 -1.6286  0.4795 -0.4068
42521SOL    HW229571   3.667   7.594   6.913  1.3110  0.2274  1.4336
42522SOL     OW29572   5.459   8.912   6.576 -0.3330 -0.1247  0.7369
42522SOL    HW129573   5.426   8.823   6.587 -1.7557  0.4426  1.2863
42522SOL    HW229574   5.553   8.905   6.593 -0.4837 -1.4503  1.1547
42523SOL     OW29575   4.192   1.243   2.567  0.2033  0.8814 -0.4801
42523SOL    HW129576   4.197   1.190   2.647 -0.3689  0.6358 -0.6028
42523SOL    HW229577   4.148   1.324   2.595  1.6466  1.5857 -0.1506
42524SOL     OW29578  11.199  11.197   8.514 -0.1367 -0.7774  0.5535
42524SOL    HW129579  11.274  11.137   8.507 -1.0026 -1.9143  0.6882
42524SOL    HW229580  11.162  11.180   8.600  0.4386  1.0190  1.2012
42525SOL     OW29581   8.652   5.586   7.616 -0.4062  0.0052  0.1851
42525SOL    HW129582   8.678   5.645   7.686  0.8339 -0.0945 -0.1626
42525SOL    HW229583   8.661   5.639   7.536  2.9500 -1.2213 -0.3829
42526SOL     OW29584   2.310  10.131   9.473  0.2178 -0.4537  0.7881
42526SOL    HW129585   2.398  10.134   9.510  0.7358 -0.5955 -0.3956
42526SOL    HW229586   2.321  10.155   9.381 -1.1294  0.6088  0.8579
42527SOL     OW29587   9.141   2.086   1.312  0.3297 -0.5901  0.4141
42527SOL    HW129588   9.145   2.174   1.349  1.3910 -0.8340  0.9310
42527SOL    HW229589   9.096   2.034   1.378  1.4943 -0.8457  1.0517
42528SOL     OW29590   9.329   7.528   8.390 -0.6235 -0.5962 -0.3243
42528SOL    HW129591   9.405   7.555   8.340  0.5661 -0.2576  1.5544
42528SOL    HW229592   9.265   7.597   8.377  0.9806  1.3428  1.3895
42529SOL     OW29593   9.139   8.490   0.893 -0.2261 -0.5694  0.3438
42529SOL    HW129594   9.206   8.483   0.962  0.5559 -0.6257 -0.4011
42529SOL    HW229595   9.083   8.414   0.907 -0.9025  0.1524  1.7568
42530SOL     OW29596   9.167   2.200   1.675 -0.1446 -0.1176  0.2557
42530SOL    HW129597   9.135   2.117   1.641  0.5650 -0.9358  1.4953
42530SOL    HW229598   9.138   2.265   1.611 -1.3457 -1.2136 -0.3644
42531SOL     OW29599   7.179   6.844   0.087  0.3678 -0.3638  0.6047
42531SOL    HW129600   7.100   6.874   0.043  0.6690 -1.6049 -0.8829
42531SOL    HW229601   7.249   6.897   0.050  0.6140 -1.3693 -0.4330
42532SOL     OW29602   7.415   1.824   6.543  0.3002  0.6351 -1.0323
42532SOL    HW129603   7.431   1.917   6.525  1.8771 -0.0555 -3.7457
42532SOL    HW229604   7.391   1.787   6.458 -1.6045 -1.2537  0.2222
42533SOL     OW29605   5.382   2.590   4.224 -0.1695 -0.5267 -0.2257
42533SOL    HW129606   5.467   2.609   4.264  0.1405 -0.9894 -0.6469
42533SOL    HW229607   5.381   2.641   4.143  0.8677 -2.5626 -1.6021
42534SOL     OW29608   0.757   3.328   7.572  0.2240 -0.1190 -0.7429
42534SOL    HW129609   0.793   3.254   7.523  1.4312 -0.9528  1.2689
42534SOL    HW229610   0.670   3.298   7.599  0.3386 -0.4470 -0.7233
42535SOL     OW29611   8.132  10.310   5.517  0.1274  0.1714 -0.2790
42535SOL    HW129612   8.086  10.240   5.470  1.1883  1.1400 -2.9765
42535SOL    HW229613   8.204  10.266   5.561 -0.4731 -0.6916 -0.1246
42536SOL     OW29614  10.284   0.810   8.720  0.2266  0.7416  0.4484
42536SOL    HW129615  10.225   0.856   8.660 -3.0224 -1.1603  1.9454
42536SOL    HW229616  10.302   0.874   8.789  0.1748  1.4371 -0.1643
42537SOL     OW29617   3.260   4.444   6.840 -0.4321 -0.7609 -0.6536
42537SOL    HW129618   3.245   4.497   6.762 -1.7270 -0.4669 -0.2207
42537SOL    HW229619   3.270   4.508   6.911  0.8487 -1.0210 -0.5716
42538SOL     OW29620   3.043   1.454   6.208  0.1524 -0.2880  0.7979
42538SOL    HW129621   3.098   1.381   6.180  0.0467 -0.1450  0.2034
42538SOL    HW229622   3.088   1.532   6.175 -1.1276 -0.2379 -0.9969
42539SOL     OW29623   3.930  10.831   8.386 -0.3487 -0.2495 -0.5280
42539SOL    HW129624   3.943  10.757   8.445 -0.0384  0.5968  0.4984
42539SOL    HW229625   4.010  10.883   8.395 -0.8586  0.5806 -0.6772
42540SOL     OW29626   3.248   1.314   6.343  0.4931  1.0142 -0.0881
42540SOL    HW129627   3.275   1.253   6.412  0.6577 -0.5048 -1.4278
42540SOL    HW229628   3.161   1.343   6.369  0.4498  0.2684  0.6441
42541SOL     OW29629   4.578   5.495   2.005 -0.1915 -0.3560  0.5271
42541SOL    HW129630   4.669   5.469   2.018 -0.2748  0.1031  2.2431
42541SOL    HW229631   4.539   5.421   1.957  0.7435 -1.1954  1.0230
42542SOL     OW29632   1.203   9.757   4.186  1.0025 -0.3514  0.4240
42542SOL    HW129633   1.245   9.677   4.152  0.3827 -0.0312 -1.1921
42542SOL    HW229634   1.178   9.806   4.107 -2.7803 -0.7031  1.1994
42543SOL     OW29635   5.794  10.485   1.455 -0.0181 -0.0680  0.3573
42543SOL    HW129636   5.868  10.440   1.496  0.4873  0.5090  0.0831
42543SOL    HW229637   5.718  10.434   1.482  0.6811 -2.1871 -1.3633
42544SOL     OW29638   8.020   4.973   3.883  0.0559 -0.1188  0.8835
42544SOL    HW129639   8.080   5.003   3.951 -0.1846 -0.8548  1.4297
42544SOL    HW229640   8.059   4.892   3.850 -0.4310 -0.3985  0.9811
42545SOL     OW29641  11.214   3.184   7.840  0.3310  0.1070  0.0575
42545SOL    HW129642  11.244   3.269   7.870  0.8466 -0.1602  0.3028
42545SOL    HW229643  11.292   3.142   7.803  0.1222 -0.3255  0.0978
42546SOL     OW29644   2.899   8.852  10.665  0.2388  0.0726 -0.1505
42546SOL    HW129645   2.840   8.911  10.713 -0.9023 -0.8917 -0.3342
42546SOL    HW229646   2.947   8.910  10.605  0.7929  1.1232  1.2507
42547SOL     OW29647   9.010   1.637   8.175  0.3058 -0.4498  0.4773
42547SOL    HW129648   8.971   1.634   8.088  1.8605 -1.1454 -0.2473
42547SOL    HW229649   8.943   1.676   8.231 -0.5723  0.3883 -1.1080
42548SOL     OW29650   1.564   4.172   2.853 -0.1011 -0.3193 -0.5113
42548SOL    HW129651   1.563   4.097   2.794  1.1548  0.4086 -1.4798
42548SOL    HW229652   1.585   4.247   2.798 -2.2122  0.9481  0.2657
42549SOL     OW29653   1.179  10.275   4.037  0.5373 -0.2238  0.0907
42549SOL    HW129654   1.181  10.209   3.967 -0.2512  0.3532 -0.4983
42549SOL    HW229655   1.219  10.352   3.997  0.5083 -0.0313  0.4375
42550SOL     OW29656   2.672   8.373  10.419 -0.5703  0.2729  0.0129
42550SOL    HW129657   2.656   8.280  10.403 -0.5470  0.3790 -0.6469
42550SOL    HW229658   2.585   8.409  10.438 -0.2978 -0.3567  2.9680
42551SOL     OW29659   9.150   5.854   9.193  0.0782  0.5578  0.4017
42551SOL    HW129660   9.165   5.946   9.215 -1.7445  1.2204 -0.8610
42551SOL    HW229661   9.078   5.827   9.251 -2.1771  1.2103 -1.9139
42552SOL     OW29662   7.506   5.854  10.121 -0.2031  0.0891  0.0972
42552SOL    HW129663   7.453   5.821  10.048 -0.1813  0.4409 -0.0806
42552SOL    HW229664   7.590   5.810  10.111 -0.6218 -0.8666  0.6819
42553SOL     OW29665   3.257   5.358   0.486  0.1030 -0.0776 -0.1403
42553SOL    HW129666   3.202   5.344   0.563 -1.5771  2.1123 -0.8278
42553SOL    HW229667   3.272   5.453   0.484  0.0824 -0.0623 -2.4739
42554SOL     OW29668   5.691   9.954   9.308  0.0952 -0.3913  0.0662
42554SOL    HW129669   5.734  10.034   9.277 -1.9866  0.3345 -1.1944
42554SOL    HW229670   5.733   9.935   9.392  1.6132  1.2045 -0.2644
42555SOL     OW29671   6.475  10.659   2.119 -0.4077 -0.7254  0.1261
42555SOL    HW129672   6.545  10.630   2.060  0.8099  0.1193  1.1174
42555SOL    HW229673   6.472  10.754   2.107 -2.0190 -0.8256 -0.5464
42556SOL     OW29674   7.182   1.598   7.691  0.5272 -1.0860 -0.4076
42556SOL    HW129675   7.093   1.618   7.664  0.6011  0.7728  0.6077
42556SOL    HW229676   7.185   1.502   7.694 -1.0707 -1.2148 -1.5574
42557SOL     OW29677   1.058   8.901  10.124  0.4375  0.0656 -0.3654
42557SOL    HW129678   1.012   8.836  10.178  0.9546 -0.6622 -0.7815
42557SOL    HW229679   1.045   8.872  10.034  1.1255  0.2242 -0.5265
42558SOL     OW29680   8.252   4.789   8.039 -0.3711  0.0865  0.9053
42558SOL    HW129681   8.278   4.875   8.006  2.4551 -1.4422 -1.3091
42558SOL    HW229682   8.294   4.782   8.124 -0.3346  0.7508  0.9470
42559SOL     OW29683   6.745   5.168   0.040  0.3189  0.0779 -0.1166
42559SOL    HW129684   6.674   5.212  -0.007  0.1409  0.3447  0.3903
42559SOL    HW229685   6.721   5.176   0.133  0.7579 -0.2712  0.0299
42560SOL     OW29686   8.146   5.168  10.455 -0.4704  0.4941 -0.1716
42560SOL    HW129687   8.222   5.226  10.449 -0.7132  0.6973 -1.6304
42560SOL    HW229688   8.168   5.093  10.400 -1.7826  1.1171 -1.6155
42561SOL     OW29689  10.296   6.344   4.787 -0.1434 -0.4015  0.3528
42561SOL    HW129690  10.313   6.251   4.777  2.4307 -0.1122  1.3129
42561SOL    HW229691  10.208   6.357   4.752  0.3877 -2.7542 -2.0947
42562SOL     OW29692   7.594   1.886   5.488 -0.2316 -0.0274 -0.1956
42562SOL    HW129693   7.651   1.953   5.451 -1.0232  0.1586 -1.0987
42562SOL    HW229694   7.511   1.897   5.443 -1.8477  1.3603  2.7685
42563SOL     OW29695   6.588   0.668   8.531  0.4685  0.4192  0.1133
42563SOL    HW129696   6.522   0.618   8.483  1.2469 -0.4053 -0.1087
42563SOL    HW229697   6.558   0.667   8.622 -0.2501  0.7568 -0.1129
42564SOL     OW29698  10.977  10.304   2.533 -0.3213  0.1872  0.1897
42564SOL    HW129699  11.024  10.282   2.453 -1.1027 -1.4751  0.1536
42564SOL    HW229700  10.886  10.312   2.506 -0.6308 -0.6337  0.9330
42565SOL     OW29701   0.895   4.087   5.344  0.1035  0.3836 -0.0810
42565SOL    HW129702   0.979   4.046   5.325  0.3453  0.5363  0.6283
42565SOL    HW229703   0.918   4.169   5.387 -0.4115  0.3884  0.1870
42566SOL     OW29704   6.908   2.554   3.003 -0.1507 -0.5665  0.5029
42566SOL    HW129705   6.864   2.474   3.031  0.2867 -1.3038 -0.8028
42566SOL    HW229706   6.889   2.618   3.071 -2.7421 -1.0210  0.2980
42567SOL     OW29707  11.201   9.361   9.965 -0.1245  0.2810 -0.4891
42567SOL    HW129708  11.115   9.404   9.965 -0.4258 -0.3067 -1.3048
42567SOL    HW229709  11.197   9.300  10.039 -1.3910 -1.6239 -2.0483
42568SOL     OW29710   3.227   7.156   2.712 -0.2134  0.1075  0.6994
42568SOL    HW129711   3.315   7.181   2.742  0.0197 -1.6890  1.6463
42568SOL    HW229712   3.223   7.061   2.727 -2.2744  0.1385  0.5364
42569SOL     OW29713   0.611   8.441   3.744  0.2040  0.1595 -0.2465
42569SOL    HW129714   0.560   8.418   3.821 -1.1112  1.0436 -0.8160
42569SOL    HW229715   0.648   8.527   3.764 -0.6897  0.6989 -0.8259
42570SOL     OW29716  11.139   3.395   4.620  0.4969 -0.0280  0.2237
42570SOL    HW129717  11.107   3.466   4.565 -0.6026 -0.1898  0.6433
42570SOL    HW229718  11.220   3.430   4.659 -1.1554  1.9131  2.2171
42571SOL     OW29719   1.526   4.765   6.459  0.3559 -0.0855  1.2967
42571SOL    HW129720   1.474   4.838   6.427  0.7019 -0.1982  0.4433
42571SOL    HW229721   1.464   4.693   6.468  0.3726 -0.2726  0.1042
42572SOL     OW29722  10.732   5.314  11.187  0.4667  0.1096  0.0351
42572SOL    HW129723  10.822   5.308  11.218  0.4286  1.2722  0.4072
42572SOL    HW229724  10.736   5.373  11.111  0.1806 -0.7443 -0.6630
42573SOL     OW29725   0.537   9.819   3.471 -0.1787  0.3970  0.8432
42573SOL    HW129726   0.487   9.899   3.482 -1.0052 -0.0452  0.3915
42573SOL    HW229727   0.563   9.820   3.378 -2.2531 -1.0002  0.1823
42574SOL     OW29728  10.367   4.189   6.512 -0.9299  0.6055  0.1334
42574SOL    HW129729  10.384   4.259   6.576  3.1002  0.0313 -0.0216
42574SOL    HW229730  10.304   4.131   6.556 -2.5909  3.0673  1.1972
42575SOL     OW29731  10.311   3.310   0.690  0.3683 -0.0828  0.3029
42575SOL    HW129732  10.306   3.229   0.639  2.0754  0.2356 -0.4147
42575SOL    HW229733  10.246   3.367   0.649 -0.2551 -0.7709  0.2907
42576SOL     OW29734   6.283   8.901   9.117  0.0949  0.1482 -0.3531
42576SOL    HW129735   6.291   8.914   9.022 -1.4813  0.9273 -0.4073
42576SOL    HW229736   6.189   8.895   9.133  0.1783  2.3889  1.4430
42577SOL     OW29737   4.825   6.812   1.562  0.0637 -0.6651  0.7400
42577SOL    HW129738   4.746   6.772   1.527  0.9900 -1.5880 -0.3743
42577SOL    HW229739   4.860   6.864   1.490  0.2803  0.0613  1.3479
42578SOL     OW29740   2.566   2.862   6.341 -0.0988 -0.1268 -0.1824
42578SOL    HW129741   2.653   2.876   6.378 -0.2974 -1.0330  0.6297
42578SOL    HW229742   2.525   2.797   6.397 -1.6929  1.0204  0.0578
42579SOL     OW29743   4.693   0.171  10.778 -0.2779  0.2407  0.5191
42579SOL    HW129744   4.664   0.173  10.687  2.4224  0.2780 -0.4338
42579SOL    HW229745   4.717   0.079  10.793  0.1781  0.4147  0.8762
42580SOL     OW29746   5.377   0.515  10.020 -0.4958 -0.4239 -0.4733
42580SOL    HW129747   5.293   0.480  10.048 -0.7323 -0.2517 -0.9562
42580SOL    HW229748   5.361   0.551   9.932 -0.3537  1.1799  0.1203
42581SOL     OW29749   2.438   1.340   7.847  1.0608 -0.0193 -0.1697
42581SOL    HW129750   2.380   1.284   7.899 -0.2838  1.4484 -0.0123
42581SOL    HW229751   2.507   1.366   7.908  1.8909 -1.7275 -0.3390
42582SOL     OW29752   0.443   6.868   3.614 -0.6174  0.3167 -0.7320
42582SOL    HW129753   0.435   6.850   3.708 -0.5409  0.6772 -0.6542
42582SOL    HW229754   0.535   6.849   3.594 -0.9388 -1.0741 -1.0275
42583SOL     OW29755  11.013   8.452   0.587 -0.1800  0.1355 -0.0987
42583SOL    HW129756  11.094   8.494   0.615  0.4669 -2.0796  1.5952
42583SOL    HW229757  10.949   8.476   0.654 -0.0266 -0.8181  0.4057
42584SOL     OW29758   0.331  10.605   4.074 -0.1216  0.3249  0.1817
42584SOL    HW129759   0.389  10.677   4.098  0.8037 -0.1247 -0.6132
42584SOL    HW229760   0.301  10.569   4.157  1.8619 -0.3189  0.6683
42585SOL     OW29761   3.396   3.416   9.329  0.5152 -0.3532  0.0387
42585SOL    HW129762   3.430   3.448   9.245 -1.0243 -0.3007 -0.5917
42585SOL    HW229763   3.331   3.480   9.355  0.7271 -0.5610  1.1100
42586SOL     OW29764   3.102   8.853   9.278 -0.1481 -0.1163 -0.1856
42586SOL    HW129765   3.046   8.891   9.345  1.1405  2.5539 -0.4952
42586SOL    HW229766   3.042   8.837   9.204 -0.9331  0.3875  0.3183
42587SOL     OW29767   7.053   6.076   2.497 -0.5191 -0.5229 -0.3522
42587SOL    HW129768   7.127   6.113   2.544 -1.9951  0.3383  1.4252
42587SOL    HW229769   7.055   5.983   2.518  0.9099 -0.7950 -1.5802
42588SOL     OW29770   2.886   0.259   0.308 -0.7825  1.3189  0.2772
42588SOL    HW129771   2.941   0.184   0.332 -2.7333 -0.0119  0.8511
42588SOL    HW229772   2.946   0.333   0.306  0.8549  0.1208  1.8174
42589SOL     OW29773   6.299   2.290   8.414  0.3275  0.4651  0.2727
42589SOL    HW129774   6.310   2.300   8.508 -1.2847  0.4306  0.4817
42589SOL    HW229775   6.251   2.368   8.387  1.2534  0.7482 -0.6293
42590SOL     OW29776   9.970   0.743   5.120  0.1734  0.2932  0.9056
42590SOL    HW129777  10.048   0.737   5.064 -1.0586 -0.0562 -0.8674
42590SOL    HW229778   9.949   0.837   5.120  0.6311  0.3996  1.4577
42591SOL     OW29779   3.535   2.248   4.859 -0.1446  0.5234  0.4331
42591SOL    HW129780   3.575   2.182   4.803  0.2132 -0.2949  1.6273
42591SOL    HW229781   3.441   2.237   4.845 -0.0535  0.7247 -0.4305
42592SOL     OW29782   6.982   2.891   0.931  0.4561  0.5240 -0.2321
42592SOL    HW129783   7.008   2.970   0.979  0.1811  1.1455 -1.0743
42592SOL    HW229784   6.890   2.906   0.909  0.7086  0.4704 -1.3604
42593SOL     OW29785   7.169   4.398   8.328  0.4660 -0.7502 -0.4059
42593SOL    HW129786   7.173   4.477   8.274 -0.6283 -1.3633 -1.4296
42593SOL    HW229787   7.134   4.428   8.412 -0.6561 -0.2598 -1.0304
42594SOL     OW29788   1.436   6.005   3.883 -0.4540  0.0138 -0.1450
42594SOL    HW129789   1.368   5.946   3.916  1.0095 -1.8597 -0.3041
42594SOL    HW229790   1.499   5.948   3.840  0.0702  1.9184 -2.0942
42595SOL     OW29791   8.822   4.088   8.951  0.3380  0.0806 -0.0137
42595SOL    HW129792   8.915   4.110   8.951  0.2315  0.7009 -1.8696
42595SOL    HW229793   8.792   4.109   9.040  1.4599  2.1751 -0.0733
42596SOL     OW29794   3.073   6.052   5.967  0.1223  0.9299  0.1290
42596SOL    HW129795   3.117   6.052   6.052  1.3182  1.5382 -0.4505
42596SOL    HW229796   2.982   6.031   5.986  1.0075 -2.4482  1.1980
42597SOL     OW29797   4.286   6.827   7.361  0.0239 -0.2353  0.2857
42597SOL    HW129798   4.223   6.826   7.289 -0.0422  2.6569  0.2024
42597SOL    HW229799   4.367   6.794   7.322 -0.4114 -0.1770 -0.7057
42598SOL     OW29800   8.986   4.433   2.627  0.2301  0.7938  0.2828
42598SOL    HW129801   9.003   4.441   2.721  2.1587  0.2343  0.0341
42598SOL    HW229802   9.036   4.505   2.588 -0.3368  0.8597 -0.3279
42599SOL     OW29803   5.744   0.468   2.125 -0.2672 -0.0039 -0.4269
42599SOL    HW129804   5.782   0.480   2.038  1.1348 -0.4217  0.1077
42599SOL    HW229805   5.662   0.518   2.122 -0.1338  0.1682 -1.9041
42600SOL     OW29806   5.006   8.248   7.419  0.5876  0.1043  0.0507
42600SOL    HW129807   5.094   8.231   7.454  0.4112 -0.1568  0.3692
42600SOL    HW229808   4.949   8.250   7.496  0.6835  2.8313  0.1445
42601SOL     OW29809   9.272   8.246   8.783  0.1419 -0.0443 -0.0828
42601SOL    HW129810   9.277   8.336   8.815  2.2303  0.0359 -0.4487
42601SOL    HW229811   9.340   8.199   8.833 -0.4970 -1.2753 -0.3287
42602SOL     OW29812   0.859   3.495   0.403  0.7733 -0.3934 -0.2527
42602SOL    HW129813   0.856   3.569   0.341  0.3456  0.5041  0.8018
42602SOL    HW229814   0.947   3.460   0.395 -0.1580 -2.4198 -3.7388
42603SOL     OW29815   4.677   1.572  10.126  0.4919  0.1008 -0.1920
42603SOL    HW129816   4.727   1.503  10.082 -0.8412 -1.4433  0.6180
42603SOL    HW229817   4.710   1.571  10.216  0.7669  0.8299 -0.2814
42604SOL     OW29818   1.084   9.309   7.623  0.2679  1.1329  0.2123
42604SOL    HW129819   1.025   9.317   7.547 -1.3253  0.1897  1.2891
42604SOL    HW229820   1.027   9.280   7.694  1.9587  0.7880  1.4799
42605SOL     OW29821   1.192   7.734   5.104  0.8576 -0.3272  0.2891
42605SOL    HW129822   1.259   7.798   5.129  1.7238 -0.6021 -1.1795
42605SOL    HW229823   1.208   7.659   5.162  0.6383  0.2932  1.1720
42606SOL     OW29824   4.897   9.463   4.604  0.5543 -0.2582 -0.2942
42606SOL    HW129825   4.863   9.506   4.683 -0.0760  0.3442 -0.8794
42606SOL    HW229826   4.869   9.372   4.612  0.2264 -0.1322  0.0376
42607SOL     OW29827   2.148   6.420   5.245 -0.0566 -1.4062 -0.3074
42607SOL    HW129828   2.219   6.388   5.189  0.4489 -0.9053  0.0396
42607SOL    HW229829   2.193   6.459   5.320 -0.6452  0.2957 -0.8105
42608SOL     OW29830   9.604   7.948   1.743 -0.2697 -0.1630  0.2734
42608SOL    HW129831   9.575   7.980   1.829 -0.9856 -1.4820  0.5554
42608SOL    HW229832   9.527   7.903   1.707  0.6339 -1.4162 -0.1494
42609SOL     OW29833   3.966   9.005   5.857 -0.3443  0.5651  0.2134
42609SOL    HW129834   4.038   9.039   5.909 -2.5504  0.3504  3.7069
42609SOL    HW229835   3.984   8.911   5.849 -1.3087  0.0132  3.2843
42610SOL     OW29836   9.426   1.377   0.485  0.0747  0.1085 -0.0103
42610SOL    HW129837   9.466   1.408   0.567  0.4635 -0.2040 -0.0823
42610SOL    HW229838   9.360   1.444   0.464 -0.5487 -0.1838  0.9485
42611SOL     OW29839   0.672   2.100   3.049 -0.1594 -0.2631  0.0228
42611SOL    HW129840   0.715   2.024   3.010 -1.7743 -0.1606 -2.1615
42611SOL    HW229841   0.736   2.171   3.041  0.2491 -0.7096 -0.7379
42612SOL     OW29842   8.158   8.317   9.037 -0.0974 -0.2205  0.2618
42612SOL    HW129843   8.071   8.279   9.029  0.2328 -0.9642  0.1102
42612SOL    HW229844   8.176   8.316   9.132 -0.5462  0.6235  0.3623
42613SOL     OW29845   1.913  10.997   0.388  0.5810  0.3356  0.0113
42613SOL    HW129846   1.871  10.958   0.465 -1.0799  0.7052 -0.6488
42613SOL    HW229847   1.997  11.029   0.420  2.1914 -3.8881  0.5317
42614SOL     OW29848   3.520   0.432  10.461  0.0426 -0.0956  0.2362
42614SOL    HW129849   3.607   0.443  10.500 -0.1465  1.8165  0.2316
42614SOL    HW229850   3.465   0.493  10.509 -0.8526  0.1862 -1.0954
42615SOL     OW29851   6.270   9.503   9.253 -0.4264 -0.5731 -0.7471
42615SOL    HW129852   6.291   9.563   9.326 -1.3760 -0.6627 -0.3799
42615SOL    HW229853   6.250   9.561   9.180 -1.6050 -0.4040 -0.3194
42616SOL     OW29854   1.233   1.334   1.627  0.4384 -0.0492 -0.7509
42616SOL    HW129855   1.275   1.305   1.708 -1.6648 -0.0292  0.4112
42616SOL    HW229856   1.165   1.268   1.610 -0.9825  1.3991 -0.9412
42617SOL     OW29857   1.123   2.893   6.210 -0.7262 -0.8001 -0.3816
42617SOL    HW129858   1.107   2.826   6.144 -0.3278 -1.0350 -0.2426
42617SOL    HW229859   1.217   2.912   6.203 -0.5959 -1.1237  0.3912
42618SOL     OW29860   6.755   9.040   2.626 -0.2035 -0.5988  0.0995
42618SOL    HW129861   6.802   8.978   2.571 -0.8383 -1.4086  0.4447
42618SOL    HW229862   6.820   9.071   2.689 -0.0923 -1.6346  0.5152
42619SOL     OW29863   9.547  10.473   8.506 -0.5950  0.1260  0.4659
42619SOL    HW129864   9.602  10.549   8.490 -1.0763 -0.0299 -2.3498
42619SOL    HW229865   9.596  10.399   8.470 -1.5236 -0.4167  0.2803
42620SOL     OW29866  10.573   0.189   4.492 -0.5981  0.2526  0.2750
42620SOL    HW129867  10.613   0.276   4.493  0.7470 -0.1807 -2.9201
42620SOL    HW229868  10.518   0.189   4.414 -0.1978 -1.8580 -0.0606
42621SOL     OW29869  10.624   3.388   7.424 -0.3920 -0.3535  0.5051
42621SOL    HW129870  10.582   3.305   7.447 -0.6542 -0.3401  0.0857
42621SOL    HW229871  10.716   3.375   7.445 -0.3422 -0.9377 -0.0595
42622SOL     OW29872   8.667   9.876   9.278 -0.2446  0.2321  0.1470
42622SOL    HW129873   8.646   9.783   9.289  0.2435  0.3255  2.3586
42622SOL    HW229874   8.610   9.920   9.341 -0.2988  1.4312 -0.7169
42623SOL     OW29875   5.877   2.660   7.324 -0.0217  0.0302  0.2336
42623SOL    HW129876   5.895   2.753   7.337  0.3857  0.0863 -0.6398
42623SOL    HW229877   5.829   2.633   7.402  2.3578  0.2789  1.8724
42624SOL     OW29878   4.846   8.174   0.528  0.6104 -0.1567 -0.4868
42624SOL    HW129879   4.808   8.189   0.442 -0.3421  0.6241  0.0466
42624SOL    HW229880   4.880   8.085   0.525 -0.4575 -0.5515 -1.2837
42625SOL     OW29881   4.940  11.055   8.158 -0.1201 -0.4774 -0.6021
42625SOL    HW129882   4.887  10.976   8.167 -0.9058  0.2270  1.8152
42625SOL    HW229883   4.876  11.126   8.159  0.6908  0.2689 -0.6385
42626SOL     OW29884   7.758   2.086   1.917 -0.4859  0.0903  0.2484
42626SOL    HW129885   7.685   2.042   1.960  1.6606 -0.6294  3.5829
42626SOL    HW229886   7.765   2.170   1.962 -0.9618  1.4194 -2.0427
42627SOL     OW29887   3.737   6.329   9.104 -0.7667  0.9059  0.6154
42627SOL    HW129888   3.697   6.274   9.171  1.4400 -1.4446  0.1449
42627SOL    HW229889   3.824   6.349   9.138 -0.2611  1.1683 -0.7620
42628SOL     OW29890   8.368   7.234   6.797  0.5637  0.6737 -0.5516
42628SOL    HW129891   8.351   7.304   6.859  1.2642 -0.6304  1.1873
42628SOL    HW229892   8.432   7.271   6.736 -0.8367  2.2880 -1.1220
42629SOL     OW29893   8.603   5.191   6.992  0.8004  0.2270  0.5491
42629SOL    HW129894   8.529   5.230   6.947 -0.2362 -1.5433  0.6043
42629SOL    HW229895   8.658   5.265   7.018  0.4107  1.4230 -1.7892
42630SOL     OW29896   4.425   2.575   7.488  0.0569 -0.3675  0.1118
42630SOL    HW129897   4.485   2.646   7.464 -0.5239 -0.1569 -0.7606
42630SOL    HW229898   4.390   2.600   7.573  0.0975  0.2372 -0.0494
42631SOL     OW29899   8.595   9.969  10.056 -0.5317  0.2331 -0.1634
42631SOL    HW129900   8.681   9.980  10.098 -1.0029  1.1317  0.6232
42631SOL    HW229901   8.600   9.885  10.010  0.9651  0.5435 -0.6181
42632SOL     OW29902   1.444   8.414   2.050 -0.1675  0.0344  0.3086
42632SOL    HW129903   1.405   8.486   2.100  1.7855  3.1742 -2.2830
42632SOL    HW229904   1.372   8.379   1.998 -0.8289  1.4219  0.2437
42633SOL     OW29905   6.037   7.670   4.428 -0.4359 -0.3777  0.3051
42633SOL    HW129906   5.962   7.667   4.487  0.6611 -0.3304  1.7517
42633SOL    HW229907   6.101   7.610   4.467  0.9168  0.8424  0.0381
42634SOL     OW29908   8.411   0.735   2.357  0.8127 -0.0385 -0.1796
42634SOL    HW129909   8.407   0.650   2.313  1.7532  0.1237 -0.6139
42634SOL    HW229910   8.390   0.715   2.449  1.0995 -0.7615 -0.2571
42635SOL     OW29911   3.781   4.407   2.839  0.4466  0.1100 -0.1898
42635SOL    HW129912   3.858   4.463   2.825 -0.8065  1.5183 -1.8467
42635SOL    HW229913   3.816   4.330   2.884  2.5100  1.5110  0.7834
42636SOL     OW29914  11.093   6.415   8.808 -0.2259 -0.6840  0.2684
42636SOL    HW129915  11.133   6.333   8.779 -2.2676 -1.8131  0.4954
42636SOL    HW229916  11.165   6.479   8.803  0.8994 -1.9633 -2.0179
42637SOL     OW29917  10.310   8.234   1.262 -0.5413  0.2551  0.1407
42637SOL    HW129918  10.344   8.145   1.267 -0.2114  0.2716 -1.2379
42637SOL    HW229919  10.259   8.246   1.342 -0.7355 -1.2353  0.2563
42638SOL     OW29920   9.154   3.074   3.714  0.2008  0.4099 -0.3329
42638SOL    HW129921   9.102   3.145   3.677  2.2722  2.6951  0.8098
42638SOL    HW229922   9.146   3.086   3.809 -1.2827 -2.4213 -0.0147
42639SOL     OW29923   2.150   8.509   3.541  0.0186  0.1358  0.0149
42639SOL    HW129924   2.117   8.596   3.565 -1.7471 -0.7398  0.9147
42639SOL    HW229925   2.143   8.458   3.622  2.1983 -0.5564 -0.1601
42640SOL     OW29926   2.150   4.141   8.430  0.1382 -0.0865  0.0582
42640SOL    HW129927   2.086   4.209   8.410  1.1531  0.7550 -0.4839
42640SOL    HW229928   2.156   4.089   8.349 -2.9887 -2.9439  1.4285
42641SOL     OW29929   0.302  10.892   8.630  0.0188 -0.3192 -0.8207
42641SOL    HW129930   0.323  10.982   8.604 -0.3797  0.5723  1.6948
42641SOL    HW229931   0.379  10.863   8.679 -0.6662 -0.5929  0.1131
42642SOL     OW29932   7.355   9.028  10.631  0.0929  0.2608  0.4887
42642SOL    HW129933   7.351   8.968  10.556  2.0008  1.4403 -0.6172
42642SOL    HW229934   7.390   8.975  10.703  1.7376  0.0089 -0.4666
42643SOL     OW29935   2.589  10.524   0.632  0.9339  0.3335  0.3579
42643SOL    HW129936   2.660  10.515   0.696  0.5608  0.9949  0.8817
42643SOL    HW229937   2.590  10.442   0.583  0.6194 -0.5925  1.8314
42644SOL     OW29938   9.944   1.890   5.405 -0.2043  0.4403 -0.1408
42644SOL    HW129939  10.016   1.917   5.462  0.0943  0.0231 -0.3151
42644SOL    HW229940   9.899   1.821   5.455 -0.3032  0.4874 -0.1632
42645SOL     OW29941   5.132   2.679  10.742  0.1109 -0.7464  0.0372
42645SOL    HW129942   5.220   2.692  10.706  0.1532 -1.8023 -0.2901
42645SOL    HW229943   5.132   2.729  10.823  0.7167 -0.0144 -0.4033
42646SOL     OW29944  10.540   0.860   4.422 -0.4233 -0.3307  1.1389
42646SOL    HW129945  10.598   0.802   4.374 -0.7932 -1.2756  1.8184
42646SOL    HW229946  10.489   0.904   4.354 -0.3209 -0.9900  0.6279
42647SOL     OW29947   3.101   1.435   7.289 -0.0508 -1.2617 -0.2229
42647SOL    HW129948   3.022   1.466   7.246 -0.1600 -0.7547  0.3286
42647SOL    HW229949   3.105   1.484   7.371 -0.0880 -2.4977  0.5559
42648SOL     OW29950   0.712  10.669   1.793 -0.5376  0.5619 -0.1184
42648SOL    HW129951   0.640  10.624   1.837  0.5342 -0.2292  0.8787
42648SOL    HW229952   0.786  10.608   1.800 -0.3615  0.2680 -3.2726
42649SOL     OW29953   6.051   0.978   1.388 -0.1720  0.2779 -0.3273
42649SOL    HW129954   5.976   1.031   1.362 -0.6879 -0.6586 -0.7885
42649SOL    HW229955   6.016   0.915   1.451  0.0620 -0.6506 -1.1044
42650SOL     OW29956   6.226   8.684   1.864  0.5408 -0.0503  0.4055
42650SOL    HW129957   6.270   8.630   1.800  0.4563  0.6226 -0.2289
42650SOL    HW229958   6.234   8.635   1.946  0.4552 -1.0229 -0.1501
42651SOL     OW29959   3.115   0.178   2.077  0.1590  0.1255 -0.0814
42651SOL    HW129960   3.041   0.141   2.125  0.4253  0.1118  0.3241
42651SOL    HW229961   3.191   0.132   2.111  0.5247  1.2128  0.6101
42652SOL     OW29962   0.054  10.728   7.681  0.7999 -0.5139 -0.1777
42652SOL    HW129963   0.143  10.696   7.694  1.9666  2.0029 -1.1784
42652SOL    HW229964   0.058  10.779   7.600 -1.6390 -0.5784 -0.4104
42653SOL     OW29965   9.160   7.277  10.265 -0.3417 -0.4918 -0.2214
42653SOL    HW129966   9.182   7.364  10.231 -2.6939  1.6805  3.0967
42653SOL    HW229967   9.084   7.249  10.213 -1.7938  1.1943  0.8654
42654SOL     OW29968   7.527   1.503   9.124 -0.8012 -0.1522 -0.2217
42654SOL    HW129969   7.521   1.558   9.202 -1.4930 -0.4277 -0.0758
42654SOL    HW229970   7.620   1.479   9.118 -0.7952 -0.3526  0.6679
42655SOL     OW29971   1.831   5.019   7.813  0.1574  0.1066  0.5628
42655SOL    HW129972   1.889   5.068   7.755  0.4681 -1.8602 -0.9045
42655SOL    HW229973   1.744   5.029   7.775  0.2827 -0.7556  0.0163
42656SOL     OW29974  10.704   5.325   2.249 -0.8568  0.1426  0.0601
42656SOL    HW129975  10.728   5.412   2.217  0.9311 -0.8713 -1.5699
42656SOL    HW229976  10.631   5.298   2.193 -2.6084  1.2222  1.7153
42657SOL     OW29977   2.192   3.476   3.782  0.3995  0.2742 -0.2975
42657SOL    HW129978   2.128   3.432   3.838 -0.1282 -3.2769 -3.2810
42657SOL    HW229979   2.138   3.521   3.716  0.9958  1.3453 -0.0691
42658SOL     OW29980   3.237   1.218   1.745  0.3073  0.6607  0.2849
42658SOL    HW129981   3.198   1.144   1.698  0.4498 -0.0860  1.3008
42658SOL    HW229982   3.306   1.250   1.686  1.0479 -0.7950  0.3088
42659SOL     OW29983   5.157   7.766   4.600 -1.0021  0.3693  0.1623
42659SOL    HW129984   5.093   7.794   4.534 -0.7583 -0.4321 -0.4286
42659SOL    HW229985   5.170   7.673   4.582  1.4477  0.8253 -0.6787
42660SOL     OW29986   8.419   1.863  10.827 -0.0834 -0.2291 -0.5410
42660SOL    HW129987   8.481   1.794  10.802  0.5300  0.3537 -0.6783
42660SOL    HW229988   8.384   1.895  10.743  0.8860  0.7391 -0.6092
42661SOL     OW29989  10.153   5.742   2.389  0.2385 -0.2093 -0.2416
42661SOL    HW129990  10.115   5.827   2.366 -1.6196 -0.7424  0.6396
42661SOL    HW229991  10.207   5.760   2.465  1.8434  0.5652 -1.4989
42662SOL     OW29992   6.476   1.339   4.234 -0.0771  0.0153  0.3052
42662SOL    HW129993   6.523   1.256   4.221 -1.0028 -0.6080  0.8418
42662SOL    HW229994   6.545   1.405   4.238  0.6503 -0.6561 -0.6261
42663SOL     OW29995   4.401   1.175   7.144  0.0631  0.1464  0.2019
42663SOL    HW129996   4.457   1.174   7.221  0.6626 -0.6936 -0.2344
42663SOL    HW229997   4.342   1.249   7.159  1.6459  1.4298  0.4045
42664SOL     OW29998   0.319   1.390   4.641 -0.0968 -0.0445  0.0426
42664SOL    HW129999   0.397   1.335   4.638  0.4539  0.7349 -0.1553
42664SOL    HW230000   0.280   1.382   4.554  0.7620  0.9647 -0.4609
42665SOL     OW30001   3.750   4.328   9.811 -0.0674  0.3513 -0.1196
42665SOL    HW130002   3.769   4.234   9.814  1.3222  0.6154  0.1584
42665SOL    HW230003   3.709   4.341   9.726 -1.1756 -0.6537  0.2362
42666SOL     OW30004   0.885   1.445   2.241  0.5567  0.5879  0.6062
42666SOL    HW130005   0.921   1.534   2.241  0.6685  0.5749  2.0395
42666SOL    HW230006   0.793   1.456   2.263  0.0694  0.4825 -1.2772
42667SOL     OW30007   1.729   1.652   8.932 -0.1103  0.3594 -0.0896
42667SOL    HW130008   1.758   1.732   8.976 -0.3378  0.4686 -0.1382
42667SOL    HW230009   1.795   1.638   8.864 -0.4346  0.8849 -0.5220
42668SOL     OW30010   2.533   4.030   5.481 -0.3220  0.0148  0.9949
42668SOL    HW130011   2.552   4.014   5.388  0.1237  1.0175  0.8993
42668SOL    HW230012   2.439   4.043   5.484 -0.4318 -0.7139  0.7895
42669SOL     OW30013   5.510   9.691  11.162 -0.2962  0.3024  0.5301
42669SOL    HW130014   5.583   9.652  11.210  1.0838 -0.6204 -2.0794
42669SOL    HW230015   5.521   9.659  11.072 -1.9611  2.8557 -0.7134
42670SOL     OW30016   7.709   1.040  10.545  0.1330  0.3526 -0.1935
42670SOL    HW130017   7.704   1.053  10.640 -0.2699 -0.6818 -0.0550
42670SOL    HW230018   7.666   0.955  10.531  0.5157  0.3288 -1.2602
42671SOL     OW30019   1.441  10.446  10.040  0.6583  0.1899  0.3772
42671SOL    HW130020   1.500  10.522  10.035  1.6465 -0.4492  1.6468
42671SOL    HW230021   1.397  10.444   9.955 -0.3163  2.8972  0.7259
42672SOL     OW30022   8.138   5.773   2.527  0.8344 -0.2909 -0.4598
42672SOL    HW130023   8.197   5.704   2.559  1.5575 -0.2492 -1.6440
42672SOL    HW230024   8.134   5.759   2.432  0.2684  0.7412 -0.6027
42673SOL     OW30025   0.439  10.237   5.899 -0.5441  0.6941  0.2765
42673SOL    HW130026   0.466  10.313   5.950  1.2802 -0.5679  1.3045
42673SOL    HW230027   0.510  10.222   5.837 -1.1573  0.1572 -0.3202
42674SOL     OW30028   7.197   1.414   4.600 -0.2915  0.6646  0.4570
42674SOL    HW130029   7.147   1.490   4.569 -1.1987  0.1021  0.4912
42674SOL    HW230030   7.154   1.390   4.682 -0.2907 -0.1449  0.2228
42675SOL     OW30031   2.838   4.339   5.664 -0.3422 -0.4463  0.0722
42675SOL    HW130032   2.843   4.296   5.578  0.1393 -0.0764 -0.0932
42675SOL    HW230033   2.838   4.433   5.643  1.1119 -0.3273  0.5232
42676SOL     OW30034   0.685   5.339   4.075 -0.2990  0.2798  0.1820
42676SOL    HW130035   0.645   5.386   4.002  0.7009  1.6278  0.4427
42676SOL    HW230036   0.754   5.398   4.105  1.9456 -1.9666 -0.3022
42677SOL     OW30037   3.275  10.415   5.974 -0.2988 -0.5059 -0.1714
42677SOL    HW130038   3.200  10.465   6.006  0.1344 -0.7131  1.2445
42677SOL    HW230039   3.315  10.470   5.907 -2.4552 -0.9542 -1.9223
42678SOL     OW30040   5.955   2.097   8.512  0.2949 -0.5813 -0.1288
42678SOL    HW130041   6.027   2.146   8.552  0.8423 -2.2038  1.0191
42678SOL    HW230042   5.919   2.045   8.584 -0.0516 -2.0596 -1.3067
42679SOL     OW30043   7.938   2.263   0.766 -0.1478  0.8202  0.2142
42679SOL    HW130044   7.968   2.354   0.764 -1.0506  1.1083 -0.8981
42679SOL    HW230045   7.974   2.224   0.686 -0.9358  0.5971 -0.0401
42680SOL     OW30046   1.185   0.620   3.018  0.0759 -0.0783 -0.3338
42680SOL    HW130047   1.144   0.598   3.102  0.2016 -0.8403 -0.4657
42680SOL    HW230048   1.115   0.663   2.968 -0.1058  0.0484  0.0263
42681SOL     OW30049   7.818   7.785   4.224 -0.6559 -0.5123  0.1877
42681SOL    HW130050   7.887   7.721   4.205  0.6884  0.3228  1.9681
42681SOL    HW230051   7.865   7.862   4.255 -2.1678  1.5967 -2.2930
42682SOL     OW30052   9.472   5.604   8.977  0.4462  0.0468 -0.4253
42682SOL    HW130053   9.507   5.579   8.892  0.1868 -0.4027 -0.4019
42682SOL    HW230054   9.395   5.657   8.957  0.6176  0.2837 -0.4693
42683SOL     OW30055  11.104   5.892   0.011 -0.3801  0.0296 -0.9388
42683SOL    HW130056  11.169   5.835   0.053 -0.8490  0.1840  0.0362
42683SOL    HW230057  11.152   5.936  -0.058  0.8726  0.9888  0.4767
42684SOL     OW30058  10.192   9.513   6.555  0.3470 -0.0933 -0.0146
42684SOL    HW130059  10.253   9.439   6.549  0.5530 -0.2305  2.5096
42684SOL    HW230060  10.107   9.473   6.571  0.2474  0.1768  0.1413
42685SOL     OW30061  10.467   3.719   4.073 -0.0992  0.4112 -0.8922
42685SOL    HW130062  10.403   3.693   4.140  2.3825 -1.5051  0.9449
42685SOL    HW230063  10.502   3.636   4.041 -0.2067  1.3454 -3.6064
42686SOL     OW30064   5.212  11.154   9.848  0.3446  0.0567  0.4180
42686SOL    HW130065   5.119  11.137   9.833  0.1387  2.6956 -2.2964
42686SOL    HW230066   5.222  11.150   9.943 -2.6271  0.0229  0.8246
42687SOL     OW30067   1.083   2.187  10.956 -0.0835  0.4261 -0.2428
42687SOL    HW130068   1.083   2.098  10.921 -2.2283  0.5667 -0.7246
42687SOL    HW230069   1.020   2.184  11.028 -0.7171  1.6866 -0.7133
42688SOL     OW30070   6.070   9.649   2.939  0.2107 -0.1449 -0.1779
42688SOL    HW130071   5.988   9.630   2.895 -0.7847  2.0872  0.5181
42688SOL    HW230072   6.138   9.609   2.885 -1.1232  0.5371 -2.4631
42689SOL     OW30073   6.841   4.734   7.824  0.4657  0.7610 -0.6868
42689SOL    HW130074   6.825   4.732   7.919  0.3194  4.2278 -0.5311
42689SOL    HW230075   6.754   4.722   7.785  0.5861 -1.1482 -0.4669
42690SOL     OW30076   6.487   0.859   0.318  0.0982 -0.1019 -0.4145
42690SOL    HW130077   6.493   0.766   0.299 -1.7630 -0.2244 -0.5680
42690SOL    HW230078   6.437   0.895   0.245  0.0601  0.8733  0.0781
42691SOL     OW30079   9.431   7.341   9.829  0.3243  0.5248 -0.2020
42691SOL    HW130080   9.340   7.370   9.835 -0.3611 -1.4684 -0.4678
42691SOL    HW230081   9.449   7.301   9.914 -0.0772 -1.7876 -1.1317
42692SOL     OW30082   8.222   3.773   1.593  0.8354 -0.3993 -0.1738
42692SOL    HW130083   8.240   3.722   1.671 -1.9657  0.8484  1.4467
42692SOL    HW230084   8.247   3.862   1.615 -0.0280 -0.0218 -0.6366
42693SOL     OW30085   3.513   0.348   8.698  0.4695 -0.1543 -0.3551
42693SOL    HW130086   3.550   0.371   8.783  0.8643 -0.5956 -0.4053
42693SOL    HW230087   3.467   0.266   8.713  0.9909 -0.5116 -0.6806
42694SOL     OW30088   0.593   3.005   4.029 -0.7945  0.0392  0.0016
42694SOL    HW130089   0.595   3.056   3.948  0.7951 -1.8621 -1.2557
42694SOL    HW230090   0.501   2.985   4.043 -1.1576  0.9045 -1.0135
42695SOL     OW30091   2.465  11.177   9.568  0.9700 -0.1495 -0.0497
42695SOL    HW130092   2.501  11.091   9.549 -0.6011 -1.4429  2.2544
42695SOL    HW230093   2.529  11.219   9.625  1.0142 -0.4340  0.1065
42696SOL     OW30094   8.014   5.804   9.089 -0.2586 -0.4285 -0.0812
42696SOL    HW130095   7.940   5.783   9.145  0.2103 -0.9290  0.3657
42696SOL    HW230096   8.088   5.813   9.149  0.2367 -0.8987 -0.6076
42697SOL     OW30097   0.940   1.113   5.699 -0.1624  0.4558 -0.6073
42697SOL    HW130098   0.850   1.131   5.728 -0.7466 -0.6541 -1.6453
42697SOL    HW230099   0.929   1.071   5.614  1.2963 -0.6462 -0.2788
42698SOL     OW30100   3.687   9.369   3.164 -0.0264  0.0449 -0.0872
42698SOL    HW130101   3.733   9.320   3.233 -1.9659 -0.3559  0.9966
42698SOL    HW230102   3.701   9.461   3.186 -2.0186 -0.0551  1.9138
42699SOL     OW30103   4.047   6.337   3.605  0.5277  0.0093  0.2496
42699SOL    HW130104   4.141   6.353   3.602  0.4503  0.9203  1.8396
42699SOL    HW230105   4.009   6.420   3.635 -0.9618  0.1812 -1.8602
42700SOL     OW30106   1.073   4.882   8.538  0.0929 -0.0401 -0.0579
42700SOL    HW130107   1.079   4.935   8.617 -0.1415 -2.7342  1.9028
42700SOL    HW230108   0.982   4.890   8.510 -0.5889 -1.2534  1.6588
42701SOL     OW30109  10.955   9.013   6.836 -0.7853 -0.2715 -0.7316
42701SOL    HW130110  11.029   9.003   6.777 -0.7479 -1.0000 -0.5647
42701SOL    HW230111  10.887   9.054   6.782  0.0139  1.2251 -0.6523
42702SOL     OW30112   9.962  10.264  10.852 -0.4365  0.4697  0.0565
42702SOL    HW130113   9.957  10.237  10.943 -0.0254  0.1146 -0.0206
42702SOL    HW230114  10.021  10.340  10.853  3.3688 -2.1825 -0.4112
42703SOL     OW30115   7.070   2.725   3.888  0.8190 -0.4125 -0.6833
42703SOL    HW130116   7.057   2.658   3.955 -0.4796  0.3317 -0.1450
42703SOL    HW230117   6.993   2.718   3.831  0.5437  0.7182 -0.4944
42704SOL     OW30118   0.782   2.256   8.088  0.1829  0.3190  0.6741
42704SOL    HW130119   0.734   2.310   8.026  0.2897  0.6779  0.9014
42704SOL    HW230120   0.755   2.289   8.174  0.0708 -0.1428  0.8181
42705SOL     OW30121   4.484   7.238   0.431 -0.0241  0.4475  0.2031
42705SOL    HW130122   4.399   7.281   0.419  2.0982  5.4797  0.6236
42705SOL    HW230123   4.482   7.204   0.520 -1.0417  2.1573  0.8796
42706SOL     OW30124   3.849   6.581   2.168  0.3888  0.1275  0.4835
42706SOL    HW130125   3.819   6.606   2.081  0.6122  2.0453  0.9212
42706SOL    HW230126   3.778   6.527   2.204  0.0520 -0.2001 -0.6440
42707SOL     OW30127   9.827   8.736   6.404  0.5169  0.3167  0.3025
42707SOL    HW130128   9.914   8.717   6.438  0.2581 -1.6414  0.0130
42707SOL    HW230129   9.828   8.700   6.315 -1.1893 -1.6482  1.0019
42708SOL     OW30130   4.363   5.348   5.890 -0.2047  0.0205  0.2116
42708SOL    HW130131   4.441   5.340   5.835  0.6538 -2.3122  1.6300
42708SOL    HW230132   4.382   5.420   5.949  0.2741  0.3602 -0.3507
42709SOL     OW30133   9.726  10.426   9.411 -0.0790  0.4063 -0.8823
42709SOL    HW130134   9.709  10.520   9.416 -1.4707  0.1008  0.9418
42709SOL    HW230135   9.642  10.385   9.431  0.8201 -1.2115 -0.2287
42710SOL     OW30136   1.873   9.523  10.582 -0.0415 -0.1824  0.0123
42710SOL    HW130137   1.795   9.468  10.575  0.5188 -1.1415  0.9442
42710SOL    HW230138   1.849   9.605  10.539 -1.8835 -0.1038  1.0736
42711SOL     OW30139   9.927   0.853   1.093  0.3012  0.1061  0.2566
42711SOL    HW130140   9.884   0.830   1.010 -0.1450 -0.1161  0.5456
42711SOL    HW230141  10.020   0.849   1.073  0.2654 -2.0025  0.2848
42712SOL     OW30142   8.945   2.577   4.525 -0.3512 -0.4172  0.2291
42712SOL    HW130143   8.927   2.488   4.555 -2.1875  0.0758  0.7857
42712SOL    HW230144   8.943   2.629   4.605 -2.0419  0.4663 -0.3293
42713SOL     OW30145  10.408   7.975   4.751 -0.0243  0.2249 -0.3859
42713SOL    HW130146  10.436   7.924   4.675 -0.8785 -0.0555 -0.5208
42713SOL    HW230147  10.397   7.911   4.821  1.9736  0.6297  0.3588
42714SOL     OW30148  10.514   2.075   2.992 -0.4944  0.5503  0.1563
42714SOL    HW130149  10.464   2.146   2.953 -3.2023 -1.4444 -0.3638
42714SOL    HW230150  10.548   2.026   2.917 -0.2191  0.2783  0.4561
42715SOL     OW30151   1.150  11.204   8.508 -0.8833  0.5756  0.1836
42715SOL    HW130152   1.156  11.109   8.498 -1.9233  0.6109 -0.9576
42715SOL    HW230153   1.068  11.219   8.554 -0.3410  0.8962  1.0719
42716SOL     OW30154  10.597   9.355   5.162  0.3678 -0.0890  0.9303
42716SOL    HW130155  10.558   9.268   5.162  0.4372 -0.3258 -3.2646
42716SOL    HW230156  10.651   9.357   5.083 -0.6608  4.1403  0.0835
42717SOL     OW30157   8.346   2.305   7.843  0.3386 -0.4205  0.7905
42717SOL    HW130158   8.311   2.269   7.761 -0.7444 -1.8617  1.8405
42717SOL    HW230159   8.269   2.314   7.900  1.1024  0.3819  1.7223
42718SOL     OW30160   8.818   4.766   5.961 -0.6647 -0.0195  0.1750
42718SOL    HW130161   8.865   4.692   5.923 -0.1262  0.7549 -0.7261
42718SOL    HW230162   8.726   4.747   5.945 -0.5408 -0.5632  0.0906
42719SOL     OW30163   7.487   4.461   3.119  0.4473  0.3282  0.8230
42719SOL    HW130164   7.551   4.437   3.185  2.5780  2.3810 -0.3771
42719SOL    HW230165   7.478   4.383   3.064 -0.3620 -0.9431  2.6677
42720SOL     OW30166   7.992  10.276   4.691 -0.6861 -0.2668 -0.1810
42720SOL    HW130167   7.997  10.366   4.722 -0.0583 -0.7964  1.3146
42720SOL    HW230168   7.898  10.260   4.682 -0.8130  0.4468 -0.2419
42721SOL     OW30169   3.017   8.256  10.488  0.0650  0.8889  0.4323
42721SOL    HW130170   3.105   8.220  10.500 -0.0391  0.7916  0.9189
42721SOL    HW230171   2.975   8.197  10.425  0.9632  1.9899 -1.2770
42722SOL     OW30172   3.542   6.507   3.015  0.0955 -0.5427  0.0752
42722SOL    HW130173   3.551   6.429   3.070  0.1842 -3.4919 -3.7214
42722SOL    HW230174   3.448   6.514   2.999  0.2286 -0.9248 -0.9143
42723SOL     OW30175   8.317   5.023   1.156 -0.3237  0.3881  0.4767
42723SOL    HW130176   8.286   4.943   1.113  0.1833  0.4419  0.0151
42723SOL    HW230177   8.341   4.994   1.244 -1.4390  0.2967  0.7726
42724SOL     OW30178   4.126   9.351   6.719 -0.1585  1.0074  0.2483
42724SOL    HW130179   4.176   9.299   6.655  0.9003  1.8033  0.4090
42724SOL    HW230180   4.051   9.384   6.670 -0.9064 -0.6943  0.1507
42725SOL     OW30181   7.407   9.497   1.138 -0.3599  0.2214  0.1656
42725SOL    HW130182   7.353   9.562   1.183  1.1958  1.5698  0.2001
42725SOL    HW230183   7.489   9.496   1.188  1.3372  1.5557 -2.3381
42726SOL     OW30184   7.508   6.657   1.027  0.5496  0.3637  0.7006
42726SOL    HW130185   7.444   6.722   0.998 -0.9018 -0.1558  2.5453
42726SOL    HW230186   7.593   6.697   1.010 -0.2643  1.4121 -1.0847
42727SOL     OW30187   2.776   6.355   3.181  0.9329 -0.2546  0.6103
42727SOL    HW130188   2.682   6.334   3.180  1.0248 -0.7254 -0.8193
42727SOL    HW230189   2.812   6.303   3.253  0.2951 -1.0066  0.3982
42728SOL     OW30190  10.082   5.219  10.294  0.3739  0.0206 -0.4864
42728SOL    HW130191  10.116   5.142  10.340 -3.2407 -1.7394 -0.4290
42728SOL    HW230192  10.108   5.293  10.349  0.3956 -1.5586  1.7810
42729SOL     OW30193   6.835   5.840   7.590 -0.7315 -0.6343 -0.1954
42729SOL    HW130194   6.927   5.827   7.566 -0.4222  2.4471 -1.1031
42729SOL    HW230195   6.790   5.847   7.506 -1.3669  0.2010  0.2008
42730SOL     OW30196   3.999  10.594  10.439 -0.7369  0.0188 -0.6161
42730SOL    HW130197   3.952  10.546  10.371 -0.8358  0.6222 -0.9744
42730SOL    HW230198   4.019  10.679  10.400 -1.7824  0.8023  0.4644
42731SOL     OW30199   0.051  10.422   4.918 -0.0013 -0.5029 -1.1317
42731SOL    HW130200   0.063  10.495   4.858  1.3371 -0.6551 -1.0869
42731SOL    HW230201   0.080  10.345   4.869  3.7728 -0.3181  0.4547
42732SOL     OW30202   1.374   2.229   9.991  0.1107 -0.6204 -0.1980
42732SOL    HW130203   1.419   2.198  10.069  0.7335 -2.0089 -1.0823
42732SOL    HW230204   1.370   2.324  10.002 -0.5413 -0.8425  1.8839
42733SOL     OW30205   7.313   8.506   6.330  0.0520 -0.0273 -0.0573
42733SOL    HW130206   7.369   8.542   6.399  0.1213  0.8807 -0.5743
42733SOL    HW230207   7.278   8.425   6.368  1.0862 -0.2068  0.5646
42734SOL     OW30208   5.950   0.210   7.271  0.7652 -0.1582  0.1109
42734SOL    HW130209   6.007   0.276   7.311  0.5475  0.0478  0.0853
42734SOL    HW230210   6.010   0.150   7.228  1.0811 -0.9254  1.5469
42735SOL     OW30211   7.619   0.373   2.257  0.4029 -0.4075 -0.2402
42735SOL    HW130212   7.537   0.334   2.228 -0.1844 -0.2356  1.1454
42735SOL    HW230213   7.686   0.309   2.231 -0.3928 -1.6488  0.6708
42736SOL     OW30214   2.345   3.413   9.611 -0.3218 -0.4678  0.7952
42736SOL    HW130215   2.341   3.467   9.690  0.3512  1.1070 -0.1923
42736SOL    HW230216   2.253   3.395   9.590 -0.5577  0.2355  1.1860
42737SOL     OW30217   0.948   1.041   0.622 -0.2773  0.6719 -0.1582
42737SOL    HW130218   0.941   0.980   0.548 -0.1579 -2.7395  2.4161
42737SOL    HW230219   0.863   1.086   0.624 -0.1614  1.1181 -2.4824
42738SOL     OW30220   2.015  10.786   7.883 -0.0592 -0.2147 -0.3597
42738SOL    HW130221   2.053  10.704   7.851  0.0060 -0.2666 -0.1480
42738SOL    HW230222   2.071  10.854   7.846  1.3454 -0.3455  1.4135
42739SOL     OW30223   6.598   1.027  10.731 -0.1503  0.3215 -0.1268
42739SOL    HW130224   6.593   0.945  10.781 -1.0148 -0.1383 -0.9280
42739SOL    HW230225   6.506   1.052  10.719 -0.0551 -0.2698 -2.5598
42740SOL     OW30226   8.696   7.994   2.121 -0.2259  0.4508 -0.4366
42740SOL    HW130227   8.632   8.066   2.119  0.4648  1.1313 -3.9062
42740SOL    HW230228   8.654   7.923   2.074 -0.2146 -0.9134  1.4849
42741SOL     OW30229   4.949   9.377   5.287  0.3453 -0.5116  0.4072
42741SOL    HW130230   4.959   9.289   5.323  1.3791 -0.7528 -0.4475
42741SOL    HW230231   4.948   9.364   5.192 -1.1490  0.2444  0.2845
42742SOL     OW30232   9.158   3.897  10.002 -1.0951 -0.0218  0.3016
42742SOL    HW130233   9.171   3.852   9.919 -1.5812  1.1392 -0.4221
42742SOL    HW230234   9.139   3.827  10.065 -2.4728 -0.7825 -0.9109
42743SOL     OW30235  10.132   8.260   7.011  0.0807  0.6863 -0.1868
42743SOL    HW130236  10.206   8.283   7.068 -0.1687 -1.5980  1.1928
42743SOL    HW230237  10.168   8.195   6.951  0.0604  2.2952 -2.0541
42744SOL     OW30238   9.861   8.705  11.243  0.1117  0.4571 -1.1182
42744SOL    HW130239   9.861   8.719  11.338  2.3396  0.5422 -1.0935
42744SOL    HW230240   9.776   8.664  11.226 -1.7011  3.2639  0.4277
42745SOL     OW30241  10.761   5.151   5.647 -0.3251 -0.3726 -1.0002
42745SOL    HW130242  10.748   5.089   5.576 -1.5198 -0.3848 -0.7926
42745SOL    HW230243  10.804   5.101   5.716 -0.5620 -0.7574 -1.1326
42746SOL     OW30244   3.090   1.483   3.353  0.0939  0.0134 -0.0281
42746SOL    HW130245   3.102   1.562   3.406 -0.6373  0.0203  0.1370
42746SOL    HW230246   3.018   1.436   3.396 -3.1340  1.7620 -2.9615
42747SOL     OW30247   6.590   2.356   1.447 -0.0306  0.2335 -0.2314
42747SOL    HW130248   6.523   2.339   1.513  0.4918 -1.9123 -0.1683
42747SOL    HW230249   6.671   2.369   1.496  0.3989 -1.5632 -0.3726
42748SOL     OW30250   7.597   4.149   1.460  0.1190  0.6110 -0.3622
42748SOL    HW130251   7.602   4.188   1.373 -0.8402  0.3599 -0.5463
42748SOL    HW230252   7.625   4.219   1.519 -0.2955  1.1447 -0.7879
42749SOL     OW30253   4.962   6.314   1.005  0.3930  0.0068 -0.1703
42749SOL    HW130254   4.992   6.291   0.917  0.0286  1.5695 -0.7481
42749SOL    HW230255   5.004   6.398   1.023  0.4184 -0.2655  1.1437
42750SOL     OW30256   5.126   9.538   5.508  0.2630 -0.5618 -0.4258
42750SOL    HW130257   5.100   9.566   5.420  1.7045 -0.7491 -0.9327
42750SOL    HW230258   5.105   9.612   5.564  0.1203 -0.1173 -1.0557
42751SOL     OW30259   4.690   0.306   3.013 -0.2985  0.0077 -0.2482
42751SOL    HW130260   4.738   0.312   3.095  1.4461  1.4316 -1.2958
42751SOL    HW230261   4.612   0.254   3.034  1.4127 -1.9706  1.6702
42752SOL     OW30262   8.815   1.735   8.702 -0.2068 -0.2149  0.3134
42752SOL    HW130263   8.725   1.768   8.710 -0.8697 -2.0731  1.2732
42752SOL    HW230264   8.867   1.812   8.681 -1.6048  1.4444  2.4802
42753SOL     OW30265   1.707   6.228   1.470 -0.4229 -0.1479  0.7822
42753SOL    HW130266   1.786   6.175   1.485 -0.4268  0.0009  1.3416
42753SOL    HW230267   1.712   6.252   1.377 -0.4399 -1.1596  0.5021
42754SOL     OW30268  10.692   7.453  10.761  0.4015 -0.1203  0.4360
42754SOL    HW130269  10.773   7.416  10.797  1.3474 -0.7278 -2.1300
42754SOL    HW230270  10.637   7.377  10.743 -0.3002  0.2198  1.0675
42755SOL     OW30271   5.979   2.138   3.618 -0.9553 -0.3256  0.4722
42755SOL    HW130272   6.075   2.142   3.617 -0.9775  0.1727  0.4456
42755SOL    HW230273   5.951   2.221   3.581 -1.3953 -0.8224 -0.3228
42756SOL     OW30274   0.513   5.204   7.780 -0.2616 -0.4398  0.3250
42756SOL    HW130275   0.482   5.276   7.726  0.3326 -0.0459  0.4976
42756SOL    HW230276   0.464   5.214   7.862  0.0823 -0.0066  0.4836
42757SOL     OW30277   0.129  10.240   4.413  0.3941  0.2391 -0.4812
42757SOL    HW130278   0.200  10.198   4.365  0.0977 -0.8308 -0.0133
42757SOL    HW230279   0.050  10.198   4.380  0.0661  0.6112 -0.1797
42758SOL     OW30280   3.026   8.863   7.052 -0.5457  0.0217 -0.2803
42758SOL    HW130281   3.094   8.842   7.116 -0.9456  0.6334  0.3622
42758SOL    HW230282   3.054   8.946   7.014 -2.2057  1.6951  1.8959
42759SOL     OW30283  10.624   5.020   7.475  0.1237  0.0955 -0.0809
42759SOL    HW130284  10.544   5.071   7.483 -0.2434 -0.1124 -1.9152
42759SOL    HW230285  10.596   4.936   7.440  0.9550 -0.6377  0.9541
42760SOL     OW30286   5.754   2.413   1.419  0.6751  0.1164 -0.3311
42760SOL    HW130287   5.666   2.378   1.402  0.4670 -1.6995  3.4177
42760SOL    HW230288   5.738   2.499   1.458  0.3802 -0.7238  1.5103
42761SOL     OW30289  10.079   2.531   1.500 -0.0119  0.1439 -0.3012
42761SOL    HW130290   9.995   2.497   1.469  0.5964 -0.5410 -1.2476
42761SOL    HW230291  10.099   2.479   1.578 -0.3679  0.1836 -0.1799
42762SOL     OW30292  10.313   4.523  10.429 -0.9809 -0.0866  0.1842
42762SOL    HW130293  10.313   4.485  10.516 -2.5404 -0.1170  0.1923
42762SOL    HW230294  10.373   4.467  10.379  0.3091  0.2181  1.3218
42763SOL     OW30295  10.808   4.112  10.764 -0.2595  0.4674 -0.3965
42763SOL    HW130296  10.788   4.116  10.671 -1.2014  0.0980 -0.2246
42763SOL    HW230297  10.862   4.189  10.781 -0.3958  0.7356 -1.1726
42764SOL     OW30298   7.325   8.516  10.243 -0.1914 -0.6610  0.7408
42764SOL    HW130299   7.367   8.581  10.299  1.9420 -0.0086 -1.4668
42764SOL    HW230300   7.263   8.471  10.301  0.0742  1.6189  2.9480
42765SOL     OW30301   9.817   7.471   9.195  0.4212  0.6948 -0.3921
42765SOL    HW130302   9.823   7.406   9.125  0.7769 -1.5660  1.6185
42765SOL    HW230303   9.724   7.472   9.219  0.4867  0.6228 -0.1347
42766SOL     OW30304   0.750   7.859   9.693 -0.5879  0.2729 -0.2929
42766SOL    HW130305   0.689   7.786   9.697  0.9498 -1.1525 -1.0960
42766SOL    HW230306   0.700   7.931   9.655 -2.1727 -0.3262  0.5877
42767SOL     OW30307  10.082   1.362   6.822 -0.2204  0.0506  0.5748
42767SOL    HW130308  10.110   1.414   6.898  0.0126  0.2342  0.3667
42767SOL    HW230309  10.088   1.271   6.852  0.3716  0.0985  0.6128
42768SOL     OW30310   8.362   5.312   3.182  0.0596  0.0626 -0.2643
42768SOL    HW130311   8.458   5.319   3.178  0.1065  0.2439  0.8603
42768SOL    HW230312   8.340   5.337   3.272 -1.2652  2.4675 -1.1571
42769SOL     OW30313   4.297   3.558  10.237 -0.2375 -0.4181 -0.2045
42769SOL    HW130314   4.290   3.651  10.259  2.9211  0.3188 -1.6965
42769SOL    HW230315   4.321   3.516  10.320  1.0482  0.5871 -0.0323
42770SOL     OW30316  10.114   6.505   2.845 -0.1800  0.0099 -0.0518
42770SOL    HW130317  10.173   6.580   2.843 -0.1480 -0.0198 -2.1097
42770SOL    HW230318  10.103   6.487   2.939  1.4834  1.2390  0.4515
42771SOL     OW30319   8.070   5.296   5.590 -0.2262 -0.2873 -0.1257
42771SOL    HW130320   8.130   5.294   5.664 -1.2598  2.7987  0.9429
42771SOL    HW230321   8.127   5.306   5.513  0.7365 -0.7070  0.5200
42772SOL     OW30322   3.237   7.801   2.235 -0.0248  0.0854  0.1761
42772SOL    HW130323   3.281   7.814   2.319  1.1155  0.0461 -0.3953
42772SOL    HW230324   3.189   7.882   2.220  2.0516  1.2785 -0.4471
42773SOL     OW30325  11.073   6.022   8.341 -0.0336 -0.0192 -0.1144
42773SOL    HW130326  10.994   5.998   8.389  0.4236 -0.5156  0.4020
42773SOL    HW230327  11.062   5.981   8.255 -1.5583  2.1203 -1.0351
42774SOL     OW30328   7.779   1.912   7.443 -0.1691  0.2325 -0.4373
42774SOL    HW130329   7.758   1.850   7.512 -1.7139 -0.1311 -1.1784
42774SOL    HW230330   7.772   1.861   7.362  1.4005  0.6946 -0.8962
42775SOL     OW30331  11.092   0.292   1.808  0.1361  0.1478 -0.0431
42775SOL    HW130332  11.081   0.361   1.873 -0.7994 -1.0089  1.0644
42775SOL    HW230333  11.054   0.328   1.728  0.6270  1.2982  0.2104
42776SOL     OW30334   8.168   0.120  10.705 -0.5047 -0.1112 -0.1646
42776SOL    HW130335   8.260   0.107  10.729 -0.5661 -0.1097  0.0784
42776SOL    HW230336   8.121   0.116  10.789 -0.5873  1.0965 -0.1409
42777SOL     OW30337  10.473   0.301   1.582 -0.5593 -0.3158 -0.7789
42777SOL    HW130338  10.528   0.377   1.563 -1.5641  0.9749  1.1102
42777SOL    HW230339  10.417   0.329   1.655 -3.0179 -1.8908 -1.9057
42778SOL     OW30340  10.224   4.056   7.244  0.0576  0.9604  0.5549
42778SOL    HW130341  10.297   4.002   7.274  1.0512  1.4601 -0.8643
42778SOL    HW230342  10.186   4.006   7.172 -1.4784  0.3774  1.7118
42779SOL     OW30343  10.871   9.692   2.895 -0.0304 -1.0803  0.1380
42779SOL    HW130344  10.923   9.615   2.873 -1.3570 -1.8947 -0.2164
42779SOL    HW230345  10.828   9.669   2.977  0.1912 -0.3833  0.4596
42780SOL     OW30346   4.478   5.269   5.285 -0.4656  0.1583 -0.0608
42780SOL    HW130347   4.472   5.277   5.190 -0.6224 -1.0714 -0.1774
42780SOL    HW230348   4.416   5.334   5.319 -0.2276  0.7699 -0.7925
42781SOL     OW30349   5.654   2.179   6.963 -0.6268 -0.3642 -0.4918
42781SOL    HW130350   5.696   2.095   6.943  2.1078  0.7616  0.1001
42781SOL    HW230351   5.602   2.199   6.885 -2.8156 -3.3714  0.0450
42782SOL     OW30352   1.334   5.170  10.206 -0.1587 -0.1979 -0.2500
42782SOL    HW130353   1.381   5.209  10.280  0.2371  0.5275 -0.8668
42782SOL    HW230354   1.389   5.190  10.130 -1.3147  0.4105 -0.9551
42783SOL     OW30355   3.807   5.917   6.132  0.2813 -0.3917  0.2378
42783SOL    HW130356   3.802   6.005   6.095  1.0578  0.7107  2.5102
42783SOL    HW230357   3.896   5.911   6.166 -0.4836 -1.0754  2.2799
42784SOL     OW30358  11.093   3.954  10.196  0.0688  0.0434 -0.2584
42784SOL    HW130359  11.168   3.903  10.225  0.6892  0.5991 -0.8787
42784SOL    HW230360  11.077   4.016  10.267 -0.3940 -0.6683  0.2841
42785SOL     OW30361   1.282   6.708  11.272 -0.6294  0.6547  0.1612
42785SOL    HW130362   1.275   6.802  11.260  2.4517  0.6997 -2.8283
42785SOL    HW230363   1.336   6.698  11.351 -0.1423  1.4509 -0.0615
42786SOL     OW30364   2.711   0.513   8.507  0.0599  0.4829  1.2351
42786SOL    HW130365   2.689   0.459   8.431 -0.1133 -1.1534  2.4105
42786SOL    HW230366   2.736   0.597   8.469 -0.6374 -0.0769 -0.5988
42787SOL     OW30367   8.149   7.249   7.617  0.3840 -0.2401 -0.4432
42787SOL    HW130368   8.092   7.303   7.671 -0.5519 -2.0922  0.4815
42787SOL    HW230369   8.187   7.185   7.677  2.0876 -0.1593 -1.3611
42788SOL     OW30370   6.467   9.222   7.011 -0.6434 -0.3466 -0.1348
42788SOL    HW130371   6.414   9.143   7.021  1.5305 -1.9579 -0.6292
42788SOL    HW230372   6.522   9.205   6.935  2.3471  0.1424  1.7791
42789SOL     OW30373   9.475   4.053   9.625 -0.2170  0.4643 -0.5124
42789SOL    HW130374   9.548   4.062   9.563 -0.0175  2.2182 -0.0975
42789SOL    HW230375   9.403   4.100   9.584 -0.4745  0.5359  0.0119
42790SOL     OW30376   7.883   1.980   3.082 -0.6914  0.0796  0.1497
42790SOL    HW130377   7.834   1.902   3.056 -3.6486  1.9835 -0.4605
42790SOL    HW230378   7.930   1.954   3.161 -2.4594 -2.0059  0.6038
42791SOL     OW30379   3.074   1.916   1.553  0.5466 -0.1934 -0.4488
42791SOL    HW130380   2.990   1.941   1.592 -0.4549 -1.7572 -1.5073
42791SOL    HW230381   3.102   1.841   1.605  1.1543  0.1410 -0.2892
42792SOL     OW30382   8.482   6.088   7.907 -0.1433 -0.3583 -0.1907
42792SOL    HW130383   8.389   6.089   7.884 -0.5619 -0.1996  1.3521
42792SOL    HW230384   8.484   6.041   7.991  1.1428 -0.1485 -0.0925
42793SOL     OW30385   4.304   8.915   7.561  0.2998  0.2555  0.1084
42793SOL    HW130386   4.262   9.000   7.573 -2.5279 -1.1572  1.3582
42793SOL    HW230387   4.383   8.919   7.615 -0.0756  1.8687  0.5955
42794SOL     OW30388   0.038   1.502  10.344 -0.4118  0.0086  0.2534
42794SOL    HW130389   0.098   1.507  10.270 -1.1761  1.0368 -0.3162
42794SOL    HW230390   0.063   1.575  10.400 -0.3824 -0.2655  0.6039
42795SOL     OW30391   6.183   6.416   4.593  0.2650 -0.2270  0.2081
42795SOL    HW130392   6.268   6.396   4.553  1.1478 -0.7001  2.1725
42795SOL    HW230393   6.128   6.341   4.572  0.8185 -0.6304  0.1787
42796SOL     OW30394   4.723  10.633  10.129 -1.3120 -0.7606  0.0388
42796SOL    HW130395   4.688  10.572  10.064  0.0938 -2.2253  0.5862
42796SOL    HW230396   4.817  10.637  10.110 -1.6230  3.1193 -1.4610
42797SOL     OW30397   5.881   0.824   1.530 -0.1057 -0.3839  0.3920
42797SOL    HW130398   5.841   0.745   1.493  3.4221 -2.1743 -0.1110
42797SOL    HW230399   5.867   0.816   1.624 -0.8292 -1.0051  0.2420
42798SOL     OW30400   4.035   1.833   9.810 -0.5058  0.6452  0.2063
42798SOL    HW130401   3.986   1.906   9.847 -3.7661 -1.1834 -0.1014
42798SOL    HW230402   3.992   1.816   9.726 -0.8099 -2.3780  0.8649
42799SOL     OW30403   9.621   2.856   4.228  0.3230 -0.0208 -0.4563
42799SOL    HW130404   9.712   2.882   4.214  1.0577 -1.3027  1.5158
42799SOL    HW230405   9.609   2.781   4.169  0.5948  0.0421 -0.5934
42800SOL     OW30406   6.948   1.038  10.721 -0.0494  0.1452  0.5832
42800SOL    HW130407   6.892   1.108  10.689 -0.0424  0.3892  1.1111
42800SOL    HW230408   7.037   1.072  10.711 -0.0871  0.6847  1.9422
42801SOL     OW30409   4.969   0.408   5.632 -0.2492 -0.7150 -0.2354
42801SOL    HW130410   4.983   0.320   5.667  1.0236 -1.0384 -1.4651
42801SOL    HW230411   5.025   0.464   5.686 -0.9872 -0.6642  0.4868
42802SOL     OW30412   6.284   0.797  10.520  1.1338  0.2465  0.2978
42802SOL    HW130413   6.298   0.711  10.560  0.9186 -0.4822 -1.1509
42802SOL    HW230414   6.223   0.781  10.448  2.4681  1.2872 -1.1287
42803SOL     OW30415   5.660   8.592  10.346  0.6474 -0.3188  0.4125
42803SOL    HW130416   5.591   8.528  10.325 -0.0216  0.4361  0.2673
42803SOL    HW230417   5.674   8.580  10.440  0.1143 -0.2886  0.5013
42804SOL     OW30418   1.567   6.457   9.123 -0.3988  0.8053  0.7785
42804SOL    HW130419   1.535   6.447   9.212  0.3527 -0.7953  0.9089
42804SOL    HW230420   1.662   6.457   9.131 -0.3264  0.9885  0.0062
42805SOL     OW30421   6.491   6.731   5.724  0.0873 -0.4061 -0.2279
42805SOL    HW130422   6.444   6.704   5.645  1.2608  0.4560 -1.2607
42805SOL    HW230423   6.433   6.793   5.767  0.2111  0.6279 -1.4775
42806SOL     OW30424   2.122   7.776   3.762 -0.2456 -0.1547 -0.5885
42806SOL    HW130425   2.054   7.788   3.828  0.3748  0.1669  0.0021
42806SOL    HW230426   2.176   7.704   3.796  0.0970  0.0357 -0.7288
42807SOL     OW30427   9.877   5.573   2.995 -0.2424  0.4564 -0.1932
42807SOL    HW130428   9.850   5.657   3.033  3.8085  1.5556  0.6477
42807SOL    HW230429   9.867   5.510   3.067  0.4083  1.0548  0.4431
42808SOL     OW30430   7.067   1.916   6.512 -0.1530 -0.2973 -0.1602
42808SOL    HW130431   7.101   1.853   6.576 -0.5784 -1.2944 -0.8784
42808SOL    HW230432   7.115   1.996   6.529 -0.5226 -0.4178  1.6528
42809SOL     OW30433   9.449   7.103   9.675  0.6746  0.2668  0.1475
42809SOL    HW130434   9.516   7.108   9.606  0.2524  0.6906 -0.2366
42809SOL    HW230435   9.450   7.190   9.716  1.0213 -0.0253  0.7810
42810SOL     OW30436   1.270   3.926   2.803  0.9110  0.0501 -0.6245
42810SOL    HW130437   1.194   3.976   2.773  0.8171  0.8682  0.8785
42810SOL    HW230438   1.289   3.866   2.731 -1.1961 -0.2262 -1.0157
42811SOL     OW30439   5.297   3.552   4.834  0.0300  1.1913 -1.0118
42811SOL    HW130440   5.225   3.590   4.883 -0.2157  0.0512 -0.4611
42811SOL    HW230441   5.376   3.594   4.869 -0.0980  0.0650  0.7090
42812SOL     OW30442   1.916   5.536  10.062  0.3628 -0.9660  0.7327
42812SOL    HW130443   1.870   5.619  10.052 -0.9154 -1.5222  1.8413
42812SOL    HW230444   1.884   5.499  10.144  0.0956 -3.0510 -0.2361
42813SOL     OW30445   0.108   7.573   1.365  0.1645 -0.0135  0.3020
42813SOL    HW130446   0.103   7.653   1.418 -2.8951 -1.4033  2.3767
42813SOL    HW230447   0.061   7.595   1.284 -0.1232  0.4792  0.5958
42814SOL     OW30448   0.050   8.280  10.249 -0.0210 -0.3290  0.3113
42814SOL    HW130449   0.040   8.230  10.168  0.0413 -1.1112  0.7743
42814SOL    HW230450  -0.033   8.268  10.295 -0.7355  1.5525 -0.3973
42815SOL     OW30451   2.252   8.862   8.922  0.7699 -0.4391 -0.3387
42815SOL    HW130452   2.230   8.799   8.853  3.0490 -0.7444 -0.8694
42815SOL    HW230453   2.318   8.919   8.882  1.9100 -0.4222  1.4423
42816SOL     OW30454   7.302  10.525   3.041 -0.2839 -0.1959  0.1863
42816SOL    HW130455   7.367  10.560   3.102 -1.1382  0.0291  0.9916
42816SOL    HW230456   7.305  10.430   3.055  0.8362 -0.3306 -0.7857
42817SOL     OW30457   0.055  10.312  11.285 -0.1739  0.2793  0.2408
42817SOL    HW130458   0.038  10.225  11.320  0.7960  0.1917  0.5258
42817SOL    HW230459   0.140  10.336  11.322  0.4555  0.5658 -1.3198
42818SOL     OW30460   9.438   6.957   2.659 -0.4102  0.5768  0.9658
42818SOL    HW130461   9.461   7.011   2.583 -1.0671  0.7021  0.8530
42818SOL    HW230462   9.453   7.014   2.734 -0.6078  0.7457  0.8768
42819SOL     OW30463   3.875   8.967   8.624 -0.1702  0.2727  0.0563
42819SOL    HW130464   3.859   8.948   8.716 -1.0556 -2.3209 -0.5466
42819SOL    HW230465   3.934   9.043   8.625 -0.6635  0.7263  2.7001
42820SOL     OW30466   5.375   6.523   1.944  0.6594  0.3703 -0.2832
42820SOL    HW130467   5.431   6.468   1.889 -1.4081 -0.5649 -1.5906
42820SOL    HW230468   5.299   6.468   1.962 -0.8315  2.2870 -0.4136
42821SOL     OW30469   8.592   5.304   5.004  0.0721 -0.2146  1.5532
42821SOL    HW130470   8.614   5.383   4.954  0.3932 -1.1993  0.0702
42821SOL    HW230471   8.630   5.319   5.090 -0.4103  1.5045  1.5133
42822SOL     OW30472   5.635   4.209   1.647  0.5412  0.3138  0.3190
42822SOL    HW130473   5.651   4.295   1.608 -0.3903  0.6885  0.7381
42822SOL    HW230474   5.686   4.209   1.728  0.6092  0.4335  0.2762
42823SOL     OW30475   1.922   9.661   1.485 -0.0672  0.0283 -0.2161
42823SOL    HW130476   1.895   9.740   1.439  0.1846 -0.7106 -1.7167
42823SOL    HW230477   1.861   9.653   1.558 -1.2523  0.6454 -1.0979
42824SOL     OW30478   9.301  10.775   2.779 -0.6265  0.3107  0.2949
42824SOL    HW130479   9.330  10.691   2.816  3.6936  0.7479 -1.4725
42824SOL    HW230480   9.365  10.839   2.812 -1.3475  2.1251 -1.5971
42825SOL     OW30481   0.946  10.830   6.281  0.1721 -0.1805 -0.1271
42825SOL    HW130482   0.978  10.900   6.339  0.7069 -0.2659 -0.3118
42825SOL    HW230483   0.904  10.877   6.209 -1.2511 -0.0835  0.7309
42826SOL     OW30484   0.032   7.598   3.579 -0.2795  0.4361 -0.5665
42826SOL    HW130485   0.047   7.582   3.486  0.7998  1.2341 -0.5538
42826SOL    HW230486   0.096   7.541   3.623  0.7492  1.6756 -0.4041
42827SOL     OW30487  10.391   1.132  10.399  0.3168 -0.0957 -0.1980
42827SOL    HW130488  10.340   1.053  10.412  1.7746 -1.2292 -1.0206
42827SOL    HW230489  10.429   1.123  10.311 -0.5988  2.1945 -0.9110
42828SOL     OW30490  10.656   7.378   7.654  0.5195 -0.5348  0.5034
42828SOL    HW130491  10.569   7.343   7.632 -0.1040  0.3723  1.4395
42828SOL    HW230492  10.679   7.335   7.736  1.3106 -1.3508 -0.1371
42829SOL     OW30493   4.108   3.740   0.477  0.0159  0.0936  0.7372
42829SOL    HW130494   4.119   3.654   0.436 -1.5859 -0.3838  1.2092
42829SOL    HW230495   4.017   3.739   0.508  0.4031  1.4191  1.9981
42830SOL     OW30496   8.637   3.567   6.921 -0.4968  0.1006  0.4572
42830SOL    HW130497   8.566   3.557   6.985 -1.1766  2.3001  0.1327
42830SOL    HW230498   8.592   3.568   6.836 -0.3332  2.8289  0.3134
42831SOL     OW30499   0.215   9.163  10.453 -0.0393  0.3883 -0.0304
42831SOL    HW130500   0.177   9.150  10.540  1.5551 -0.5647  0.5513
42831SOL    HW230501   0.209   9.078  10.411 -2.3948  1.2074 -1.5975
42832SOL     OW30502   2.889   5.127   1.548 -0.2402 -0.5763 -0.3958
42832SOL    HW130503   2.911   5.201   1.605 -1.1083  0.0422 -0.8456
42832SOL    HW230504   2.905   5.049   1.603 -1.4061  0.0161  0.8409
42833SOL     OW30505   9.210   7.580   9.618  0.4447  0.3031  0.6901
42833SOL    HW130506   9.229   7.633   9.541 -0.8039  0.1521  0.2545
42833SOL    HW230507   9.291   7.533   9.636  1.2483  1.5620  0.4540
42834SOL     OW30508   4.027   1.093   7.238  0.3390  0.0833 -0.1212
42834SOL    HW130509   4.012   1.015   7.291  0.1754 -1.0452 -1.7273
42834SOL    HW230510   4.099   1.069   7.180 -1.8646 -0.2064 -2.9677
42835SOL     OW30511   5.629   1.806   1.163  0.4150 -0.1962 -0.1110
42835SOL    HW130512   5.569   1.797   1.237  0.8714 -0.0980  0.2791
42835SOL    HW230513   5.583   1.863   1.101  0.6446  1.0193  0.7869
42836SOL     OW30514   7.058   4.177   9.098 -0.3798  0.1392 -0.4907
42836SOL    HW130515   7.080   4.259   9.141  2.1747 -1.7701  2.3255
42836SOL    HW230516   6.963   4.179   9.087 -0.6410  2.5671  1.4805
42837SOL     OW30517   6.438   2.603   1.774  0.3645  0.1561 -0.7918
42837SOL    HW130518   6.492   2.643   1.706  0.4246  1.7576  0.1359
42837SOL    HW230519   6.403   2.677   1.824 -0.5038 -0.9325  0.2914
42838SOL     OW30520  10.234   3.878   0.657 -0.2746  0.4497  0.0295
42838SOL    HW130521  10.247   3.971   0.671  1.8418  0.2784 -0.5430
42838SOL    HW230522  10.252   3.838   0.743 -1.8013  0.5849  0.4388
42839SOL     OW30523   7.401   3.046  11.233 -0.3151 -0.4029 -0.1198
42839SOL    HW130524   7.474   3.096  11.270 -0.8163  0.8285 -0.7216
42839SOL    HW230525   7.435   2.957  11.223  0.7988 -0.0621  0.4436
42840SOL     OW30526   3.689   8.823  11.226 -0.2457 -0.3737 -0.4277
42840SOL    HW130527   3.627   8.751  11.240  0.3809 -1.4452 -2.7721
42840SOL    HW230528   3.673   8.851  11.136  0.8804  1.1533 -0.1933
42841SOL     OW30529   7.174  10.245   5.833  0.1311 -0.3071  0.1344
42841SOL    HW130530   7.122  10.176   5.790  0.8573  0.1134 -1.4904
42841SOL    HW230531   7.223  10.199   5.901 -2.9482 -0.6036  2.3981
42842SOL     OW30532   0.911   1.995   4.956  0.2844 -0.2261 -0.9124
42842SOL    HW130533   0.961   2.012   4.876 -0.5903  0.5558 -1.3138
42842SOL    HW230534   0.828   1.958   4.925  0.3936 -1.0025 -0.2919
42843SOL     OW30535   7.927  10.572  10.889  0.0405 -0.2673 -0.5480
42843SOL    HW130536   7.894  10.570  10.799  1.2512  2.3892 -1.1541
42843SOL    HW230537   7.905  10.659  10.921  0.4547 -0.8415  1.4342
42844SOL     OW30538   3.961  11.012   9.359 -0.1089 -0.2137  0.2601
42844SOL    HW130539   4.048  11.018   9.397 -0.4175 -1.4835  1.2572
42844SOL    HW230540   3.927  10.928   9.391 -1.1964 -0.3463 -1.1654
42845SOL     OW30541   2.200   0.656   9.323 -0.0664  1.0538 -0.2309
42845SOL    HW130542   2.261   0.583   9.334  0.1661  1.1387 -0.9217
42845SOL    HW230543   2.194   0.695   9.411  0.9444  1.0936 -0.1671
42846SOL     OW30544  10.586   6.190   4.776  0.9527 -0.0742 -0.8015
42846SOL    HW130545  10.658   6.130   4.796  1.2931  0.7180  0.4559
42846SOL    HW230546  10.558   6.223   4.861 -0.1874  0.4560 -1.3637
42847SOL     OW30547   6.661   5.545   2.996 -0.3197  0.1849 -0.3584
42847SOL    HW130548   6.718   5.469   3.010  0.0531  0.6696  0.8958
42847SOL    HW230549   6.574   5.507   2.980 -0.3097 -0.5186  1.0750
42848SOL     OW30550  10.556   0.270   7.836  0.4245 -0.2267  0.3814
42848SOL    HW130551  10.471   0.262   7.879 -1.9817  1.9344 -3.3747
42848SOL    HW230552  10.595   0.348   7.875 -1.4394  1.3518 -0.7079
42849SOL     OW30553   1.530   6.058   3.611  0.1746 -0.0319 -0.9943
42849SOL    HW130554   1.467   6.051   3.683  0.7861  0.3438 -0.4099
42849SOL    HW230555   1.560   6.149   3.615  1.5315 -0.4627 -0.5854
42850SOL     OW30556   6.706  10.173   3.290  0.1949  0.4711  0.0979
42850SOL    HW130557   6.663  10.088   3.287  2.8812 -1.0519  1.1755
42850SOL    HW230558   6.709  10.196   3.383  0.1831  1.3890 -0.1128
42851SOL     OW30559   9.351   5.126   7.170 -0.1872  0.1205 -0.0315
42851SOL    HW130560   9.294   5.191   7.211  1.9804  1.4662  1.0277
42851SOL    HW230561   9.411   5.177   7.115  0.3435 -1.1758 -0.7053
42852SOL     OW30562   2.990   8.468   0.642  0.0775 -0.8237 -0.1573
42852SOL    HW130563   2.906   8.501   0.671  0.7681  1.3185 -0.4421
42852SOL    HW230564   3.053   8.502   0.705  1.2440  1.4856 -2.3816
42853SOL     OW30565   3.487   6.263  10.072 -0.3739  0.2213  0.6148
42853SOL    HW130566   3.479   6.180  10.117  0.3050 -0.6773 -0.8396
42853SOL    HW230567   3.483   6.240   9.979 -0.8634  1.8915  0.1850
42854SOL     OW30568   9.301   4.247   7.133 -0.5733  0.2811 -0.1089
42854SOL    HW130569   9.212   4.267   7.104 -0.1149 -1.6083 -3.3149
42854SOL    HW230570   9.303   4.152   7.142  0.5237  0.4627  2.4326
42855SOL     OW30571   2.278   7.519   4.508 -0.2503  0.1745 -0.0455
42855SOL    HW130572   2.362   7.475   4.526 -0.0308  0.6122  0.0143
42855SOL    HW230573   2.249   7.551   4.594  0.3002  1.3908 -0.2902
42856SOL     OW30574   7.499  10.070  10.223  0.0818  0.0813  0.5425
42856SOL    HW130575   7.474  10.162  10.213  1.4488  0.5396  1.0595
42856SOL    HW230576   7.423  10.029  10.265 -0.2305  1.1618  1.0768
42857SOL     OW30577   2.398   5.846   0.360  0.7141  0.2073  0.1916
42857SOL    HW130578   2.402   5.881   0.272 -0.1593 -1.0316 -0.3764
42857SOL    HW230579   2.489   5.843   0.389  0.9553  1.1599 -0.4385
42858SOL     OW30580   9.304   4.860   7.165 -0.0341  0.8110 -0.2362
42858SOL    HW130581   9.327   4.953   7.162 -0.1495  0.8175 -1.1301
42858SOL    HW230582   9.304   4.838   7.258 -0.0471  1.7167 -0.0169
42859SOL     OW30583   4.405   0.266   6.864  0.0574 -0.4010  0.4690
42859SOL    HW130584   4.367   0.241   6.780 -1.8729 -0.1722  1.2325
42859SOL    HW230585   4.445   0.352   6.848 -0.6280 -0.1839 -0.1189
42860SOL     OW30586   2.306   3.197   6.883 -0.1644  0.2369 -0.3236
42860SOL    HW130587   2.226   3.201   6.935 -0.0243 -1.7971  0.1397
42860SOL    HW230588   2.278   3.162   6.799  0.5403 -3.8530  0.9050
42861SOL     OW30589   7.562   7.746   8.936  0.2545  0.2580 -0.0319
42861SOL    HW130590   7.567   7.656   8.968 -0.0528  1.0171  2.3845
42861SOL    HW230591   7.646   7.760   8.891 -0.6010 -1.8725 -2.5035
42862SOL     OW30592   3.151   6.898   1.497 -0.2212 -0.3175 -0.3586
42862SOL    HW130593   3.136   6.959   1.425  2.1213  0.9551  0.1115
42862SOL    HW230594   3.073   6.904   1.551 -0.6160  1.2639 -1.0544
42863SOL     OW30595   8.515   4.369   5.381  0.0191 -0.3029  0.2660
42863SOL    HW130596   8.544   4.303   5.318 -0.3352 -1.4836  1.2787
42863SOL    HW230597   8.549   4.451   5.348 -0.6661 -0.7855 -1.7845
42864SOL     OW30598   2.949   2.291  10.382 -1.5060  0.6485  0.4832
42864SOL    HW130599   2.889   2.240  10.436 -1.7809  0.9896  0.5020
42864SOL    HW230600   2.936   2.381  10.410 -0.1734  0.6228  1.3033
42865SOL     OW30601   6.634  10.285   0.200  0.2186 -0.2661 -0.3937
42865SOL    HW130602   6.552  10.331   0.221  0.2488  0.2872 -1.4262
42865SOL    HW230603   6.627  10.202   0.248  0.5786  1.1280  2.2904
42866SOL     OW30604   9.586   0.901   5.882 -0.0321  0.4456  0.4616
42866SOL    HW130605   9.562   0.839   5.813  0.5010  1.9838 -1.1621
42866SOL    HW230606   9.522   0.972   5.874  2.1453  2.3681 -0.8905
42867SOL     OW30607   3.445  11.123   1.348 -0.2548 -0.5501 -0.0182
42867SOL    HW130608   3.462  11.100   1.256 -1.5151  0.1250 -0.4442
42867SOL    HW230609   3.519  11.086   1.396  1.0753  0.1150 -1.4448
42868SOL     OW30610   0.228   5.477   1.052  0.5203  0.3449  0.4088
42868SOL    HW130611   0.197   5.403   0.999 -1.4461  0.0471  1.8654
42868SOL    HW230612   0.245   5.546   0.988  2.2736 -1.2625 -0.9768
42869SOL     OW30613   3.745   1.268   6.993 -0.1931  0.1654  0.0659
42869SOL    HW130614   3.802   1.310   6.928 -0.4896  1.7170  0.7671
42869SOL    HW230615   3.675   1.331   7.008 -0.6048 -0.5453  1.2521
42870SOL     OW30616   0.897   8.552   6.744 -0.4314 -0.6713 -0.0362
42870SOL    HW130617   0.849   8.501   6.678  2.3414 -1.0682 -1.9366
42870SOL    HW230618   0.988   8.553   6.712  0.5835  1.2740  2.5400
42871SOL     OW30619   3.338  11.088   5.736 -0.0533 -0.1344  0.3186
42871SOL    HW130620   3.404  11.035   5.692  1.3262  0.7544  1.2516
42871SOL    HW230621   3.354  11.076   5.829 -0.1020  1.4053  0.5592
42872SOL     OW30622   1.714   4.438   6.373 -0.3735  0.2057  0.0171
42872SOL    HW130623   1.651   4.387   6.322 -0.1111 -0.2605  0.1518
42872SOL    HW230624   1.774   4.473   6.307 -0.2212 -0.1328 -0.0280
42873SOL     OW30625  10.615   6.580   3.587  0.1324 -0.6098  0.2266
42873SOL    HW130626  10.656   6.664   3.569  3.2232 -2.0145  0.0267
42873SOL    HW230627  10.631   6.527   3.509 -2.1263 -1.2974  0.1659
42874SOL     OW30628   2.451   2.407   6.308  0.0118  0.0190 -0.4799
42874SOL    HW130629   2.496   2.486   6.276  1.0650 -0.0710  0.7027
42874SOL    HW230630   2.360   2.434   6.317  0.4977  1.4026  0.7320
42875SOL     OW30631   8.181   7.117   8.278 -0.2211  0.0914 -0.3280
42875SOL    HW130632   8.168   7.135   8.371 -0.1101  2.7769 -0.7568
42875SOL    HW230633   8.276   7.117   8.266 -0.2509  1.7928 -0.7471
42876SOL     OW30634   2.309   1.977   5.334  0.0486  0.3274 -0.1397
42876SOL    HW130635   2.321   1.902   5.276 -0.1586 -0.4392  0.7989
42876SOL    HW230636   2.397   2.001   5.362  0.1614  0.7803 -0.8508
42877SOL     OW30637   1.227   6.872   0.568  0.1409  0.3615 -0.8119
42877SOL    HW130638   1.140   6.883   0.530 -0.6706  1.7974  1.2641
42877SOL    HW230639   1.223   6.919   0.651  2.0943 -1.7773  0.6258
42878SOL     OW30640   8.684   9.943   3.984  0.2367 -0.6814 -0.2281
42878SOL    HW130641   8.727  10.021   4.018  1.2398 -1.9836  1.6158
42878SOL    HW230642   8.600   9.976   3.949  1.2224  1.3919 -0.8354
42879SOL     OW30643   3.409   3.563   2.285  0.1465 -0.6231  0.2002
42879SOL    HW130644   3.320   3.591   2.306  0.1955  0.4288 -0.9395
42879SOL    HW230645   3.461   3.643   2.289  1.1921 -1.3222  1.5020
42880SOL     OW30646   8.505  11.275   8.233 -0.0607 -0.3929 -0.0908
42880SOL    HW130647   8.409  11.276   8.239 -0.0375  0.6469  0.3238
42880SOL    HW230648   8.533  11.239   8.318 -0.0470  1.6052  0.7945
42881SOL     OW30649  11.002  11.119   4.904 -0.3594  0.4864 -0.5080
42881SOL    HW130650  11.055  11.188   4.944 -1.3478 -0.1324  2.0689
42881SOL    HW230651  11.038  11.038   4.939 -0.5922 -0.2045 -1.7999
42882SOL     OW30652   2.786   7.246  11.196 -0.1800 -0.0454  0.2124
42882SOL    HW130653   2.724   7.181  11.162  0.4321 -1.2038  1.2216
42882SOL    HW230654   2.852   7.253  11.127 -2.2588  2.5684 -1.7133
42883SOL     OW30655   6.745   9.558   7.807 -0.0939  0.0050  0.0415
42883SOL    HW130656   6.657   9.595   7.808  0.0638  0.3784  0.7477
42883SOL    HW230657   6.766   9.549   7.714  0.5865  3.4757 -0.2940
42884SOL     OW30658   2.511   7.888   7.095 -0.0808 -0.7421  0.5431
42884SOL    HW130659   2.567   7.876   7.172  1.4481  0.3769 -0.3213
42884SOL    HW230660   2.422   7.874   7.127  0.6271 -1.8668  2.1478
42885SOL     OW30661   8.635   3.451   8.616  0.3394 -0.3788  0.5985
42885SOL    HW130662   8.671   3.511   8.681  0.6931 -0.8879  0.8833
42885SOL    HW230663   8.607   3.507   8.544 -0.0968  0.1959  1.2096
42886SOL     OW30664   0.753  10.379  10.117 -0.3627  0.4417 -0.3784
42886SOL    HW130665   0.744  10.387  10.212 -1.0627  1.6742 -0.5186
42886SOL    HW230666   0.756  10.470  10.086  0.7703  0.0619 -1.4605
42887SOL     OW30667   7.842  10.757   1.441  0.3203 -0.4322 -0.0868
42887SOL    HW130668   7.787  10.710   1.379  1.6196 -1.2515 -0.6596
42887SOL    HW230669   7.826  10.713   1.525  0.3798 -0.9270 -0.3272
42888SOL     OW30670   1.759   2.110  10.339 -0.3448 -0.1049 -0.2239
42888SOL    HW130671   1.841   2.158  10.330  0.3047 -1.3464 -1.2316
42888SOL    HW230672   1.780   2.036  10.397 -0.6420 -0.6235 -0.7624
42889SOL     OW30673   0.655   9.315   1.952  0.2580 -0.1493  0.0664
42889SOL    HW130674   0.573   9.361   1.968 -0.3889 -1.2526  0.0501
42889SOL    HW230675   0.633   9.248   1.887  1.4889  0.4023 -0.9589
42890SOL     OW30676   1.083   8.806   6.084  0.4726 -0.0521 -0.2201
42890SOL    HW130677   1.093   8.711   6.073 -0.9079 -0.3989  1.1933
42890SOL    HW230678   1.004   8.827   6.034  0.6022  0.3087 -0.2716
42891SOL     OW30679   7.112   8.271   8.869  0.6280  0.0318 -0.0668
42891SOL    HW130680   7.138   8.257   8.778  0.9447 -0.0182  0.0277
42891SOL    HW230681   7.045   8.205   8.885  1.1191 -0.4684 -0.0383
42892SOL     OW30682   3.607   7.244  11.122  0.5542  0.1065  0.3651
42892SOL    HW130683   3.623   7.246  11.027  2.6770  0.5525  0.6658
42892SOL    HW230684   3.574   7.331  11.143 -2.5341 -0.7924 -0.2664
42893SOL     OW30685   9.918   7.726   7.659 -0.1564 -0.5139 -0.2796
42893SOL    HW130686   9.938   7.719   7.753 -0.0239 -0.3246 -0.2923
42893SOL    HW230687   9.975   7.662   7.617 -0.4706 -0.8532 -0.2000
42894SOL     OW30688  10.619   0.110   6.805 -0.3006 -0.3293  0.3322
42894SOL    HW130689  10.664   0.059   6.738 -0.7611 -0.5157  0.1572
42894SOL    HW230690  10.652   0.075   6.888  0.8836  0.4625  0.2127
42895SOL     OW30691   5.389   8.755   3.614  0.8851 -0.3652  0.2554
42895SOL    HW130692   5.310   8.798   3.646 -1.5944 -3.0145 -1.7830
42895SOL    HW230693   5.431   8.820   3.557  0.7849  1.4002  2.0875
42896SOL     OW30694   0.252   9.225   8.324  0.0528  0.5122 -0.0773
42896SOL    HW130695   0.235   9.131   8.319 -0.5031  0.4363  2.2915
42896SOL    HW230696   0.181   9.261   8.377  1.1161  2.0037  0.4431
42897SOL     OW30697   4.417   4.643   0.254  0.5083  0.5947 -0.3968
42897SOL    HW130698   4.414   4.650   0.350  0.2271  0.7863 -0.4171
42897SOL    HW230699   4.488   4.582   0.236 -0.5599 -0.8363  0.0051
42898SOL     OW30700   1.234  11.245   4.950  0.0999 -0.2264  0.4235
42898SOL    HW130701   1.250  11.205   5.036  0.2315  0.7455  0.8632
42898SOL    HW230702   1.280  11.329   4.954 -2.3139  1.1885  0.5022
42899SOL     OW30703  10.279  10.233   5.322 -0.0251  0.3266  0.1013
42899SOL    HW130704  10.302  10.166   5.257  0.2141  0.6801 -0.1831
42899SOL    HW230705  10.343  10.220   5.393  0.1315  0.3664 -0.0316
42900SOL     OW30706   2.668   0.520   2.897  0.3859  0.2115  0.3672
42900SOL    HW130707   2.638   0.528   2.988  0.9651  1.2117  0.4966
42900SOL    HW230708   2.736   0.588   2.889  0.4927 -0.0112 -0.7500
42901SOL     OW30709   7.985   7.185   3.065  0.1986  0.2294 -0.0873
42901SOL    HW130710   8.080   7.192   3.059  0.0642  1.4149 -1.4665
42901SOL    HW230711   7.959   7.257   3.122  0.0449  0.6584 -0.6938
42902SOL     OW30712   2.715   2.410   2.306  0.7272 -0.3439 -0.4458
42902SOL    HW130713   2.701   2.316   2.302  1.6167 -0.4694 -0.9860
42902SOL    HW230714   2.676   2.437   2.389  0.7014 -1.2321 -0.1609
42903SOL     OW30715   7.414   7.369  10.076 -0.4989  0.2093 -0.9314
42903SOL    HW130716   7.429   7.304  10.008  1.1958  1.9283 -2.3309
42903SOL    HW230717   7.502   7.392  10.108 -1.1852  0.2157  1.1430
42904SOL     OW30718   0.032   3.663   2.537 -0.5380 -0.4725 -0.0264
42904SOL    HW130719  -0.026   3.701   2.603 -0.6804 -1.1173  0.2249
42904SOL    HW230720  -0.028   3.630   2.469 -0.3512  2.0179 -1.5390
42905SOL     OW30721   5.974   9.383   1.578 -0.4381  0.3490  0.0389
42905SOL    HW130722   5.896   9.439   1.574 -0.4931  0.2113 -1.3103
42905SOL    HW230723   6.036   9.432   1.631 -0.8899  1.1713 -0.1699
42906SOL     OW30724   2.146   0.531  10.816 -0.3854 -0.2902 -0.0131
42906SOL    HW130725   2.206   0.504  10.747 -1.0336  0.8378 -1.0609
42906SOL    HW230726   2.201   0.537  10.894  0.9119  0.8406 -0.9626
42907SOL     OW30727   8.237  10.067  10.317  0.0709 -0.1118 -0.8677
42907SOL    HW130728   8.257   9.974  10.327 -0.7516 -0.5801 -3.0666
42907SOL    HW230729   8.225  10.099  10.407  1.4295 -1.8574 -0.0120
42908SOL     OW30730   7.516   0.568   3.841 -0.4441 -0.3550 -0.7174
42908SOL    HW130731   7.593   0.567   3.899 -0.5876 -1.8039 -0.5204
42908SOL    HW230732   7.548   0.603   3.758  0.2928 -0.3948 -0.4525
42909SOL     OW30733   0.712   3.362   8.072  0.1676  0.3164  0.0199
42909SOL    HW130734   0.755   3.426   8.016 -2.1069  0.5278 -1.6560
42909SOL    HW230735   0.743   3.381   8.160  2.0312  1.5603 -0.8461
42910SOL     OW30736   0.618  10.989  10.679 -0.0152 -1.1739 -0.0065
42910SOL    HW130737   0.714  10.996  10.687  0.1197 -1.4005 -1.3023
42910SOL    HW230738   0.603  10.898  10.654 -0.4751 -0.8110 -1.0624
42911SOL     OW30739   8.836   7.110   9.075 -0.1874  0.7809 -0.0087
42911SOL    HW130740   8.807   7.164   9.002 -2.2235 -0.2517 -0.0475
42911SOL    HW230741   8.890   7.168   9.128 -1.6549  2.6443 -0.4435
42912SOL     OW30742   8.785   3.952   8.000 -0.3633 -0.0234  0.0421
42912SOL    HW130743   8.772   4.047   7.992 -1.0841 -0.1008  0.2345
42912SOL    HW230744   8.850   3.943   8.070 -0.1639  0.3404 -0.0953
42913SOL     OW30745   7.188   3.044   3.067 -0.0850 -0.4537  0.2710
42913SOL    HW130746   7.171   3.002   2.983 -0.6146  1.5200 -0.6704
42913SOL    HW230747   7.116   3.107   3.077  0.5893  0.1279  1.6677
42914SOL     OW30748  10.521   6.193   3.029  0.0219 -0.4285 -0.3809
42914SOL    HW130749  10.467   6.206   3.107  2.5724  1.2059  1.2350
42914SOL    HW230750  10.515   6.099   3.012 -3.7142 -0.2900 -0.7165
42915SOL     OW30751   1.946   7.186   0.698 -0.5027  0.3130  0.7075
42915SOL    HW130752   2.031   7.208   0.661 -0.6474  2.1831  1.3431
42915SOL    HW230753   1.954   7.208   0.791 -0.5967 -2.8971  1.5738
42916SOL     OW30754   9.682   8.851   3.206 -0.7252 -0.2742 -0.7520
42916SOL    HW130755   9.746   8.844   3.135  1.4675  3.3895  0.5925
42916SOL    HW230756   9.704   8.780   3.266  0.8756 -0.2021 -1.2190
42917SOL     OW30757   8.311  10.540   8.446 -0.0676 -0.0934 -0.2724
42917SOL    HW130758   8.393  10.510   8.407  0.2701 -0.4826  0.7214
42917SOL    HW230759   8.255  10.463   8.446 -0.3607  0.1108 -0.7184
42918SOL     OW30760   0.408   8.783   6.450 -0.5282  0.2850  0.2245
42918SOL    HW130761   0.484   8.803   6.504  0.2465  0.8527 -1.0272
42918SOL    HW230762   0.359   8.865   6.447 -1.0101  0.0267  0.7089
42919SOL     OW30763   3.965   5.153   3.947 -0.2017  0.1716 -0.7822
42919SOL    HW130764   3.886   5.194   3.913 -0.0369  1.1393 -0.0438
42919SOL    HW230765   4.003   5.218   4.007  1.0017 -0.3797 -0.9023
42920SOL     OW30766   9.955   8.698   2.702  0.0815  0.6238 -0.3949
42920SOL    HW130767  10.036   8.654   2.675  0.3099  0.6620  0.2125
42920SOL    HW230768   9.893   8.680   2.631  1.1062  2.0094 -1.7104
42921SOL     OW30769   5.778   1.113  10.971  0.1227 -0.2434 -0.6023
42921SOL    HW130770   5.745   1.054  11.039 -0.2922 -0.0844 -0.6628
42921SOL    HW230771   5.749   1.072  10.889 -2.3664  1.2799 -0.6079
42922SOL     OW30772   6.550   7.123   2.825 -0.6938  0.1899 -0.2771
42922SOL    HW130773   6.531   7.057   2.891 -0.1823 -1.0089 -1.2860
42922SOL    HW230774   6.465   7.163   2.806 -0.7568  0.9876  1.5127
42923SOL     OW30775   4.307  11.084  10.565 -0.1465 -0.1419  0.2987
42923SOL    HW130776   4.352  11.136  10.632  1.6539 -1.1725 -0.0381
42923SOL    HW230777   4.341  10.996  10.576 -1.0051 -0.6640 -0.9729
42924SOL     OW30778   3.303   5.775   1.087 -0.7633  0.0724 -0.3436
42924SOL    HW130779   3.309   5.681   1.106  1.6951  0.1853 -0.1412
42924SOL    HW230780   3.320   5.781   0.993 -0.4005  0.3251 -0.2657
42925SOL     OW30781   5.816   8.218   8.628  0.5382  0.3109  0.6895
42925SOL    HW130782   5.823   8.216   8.533 -0.1824  1.4563  0.5900
42925SOL    HW230783   5.812   8.126   8.654  2.2553 -0.0760 -0.2397
42926SOL     OW30784   8.894  11.141   8.864 -0.2943 -0.0470  0.7034
42926SOL    HW130785   8.937  11.057   8.847 -0.3835  0.1128 -0.3830
42926SOL    HW230786   8.806  11.117   8.893 -0.1569 -0.3381  0.8864
42927SOL     OW30787   9.847   5.095   7.189  0.2307  0.1877  0.9826
42927SOL    HW130788   9.830   5.007   7.154  2.8732  0.9487 -2.8014
42927SOL    HW230789   9.770   5.146   7.164  0.0223 -0.3711  0.4603
42928SOL     OW30790   0.987   4.242   0.084 -0.6009  0.7066  0.0454
42928SOL    HW130791   0.956   4.163   0.039 -0.5016  0.9355 -0.4261
42928SOL    HW230792   1.075   4.257   0.049  1.1455 -1.3377  3.1287
42929SOL     OW30793   8.794   7.881   2.844  0.6162  0.0088 -0.5632
42929SOL    HW130794   8.746   7.874   2.926  0.2376  0.3632 -0.7515
42929SOL    HW230795   8.738   7.837   2.780 -0.4067  2.0771 -1.1792
42930SOL     OW30796   5.096   2.073   7.465 -0.7582  0.3813 -0.1838
42930SOL    HW130797   5.102   2.090   7.559  2.8650  0.0505 -0.1949
42930SOL    HW230798   5.154   1.998   7.451 -0.9164  0.6563 -2.7187
42931SOL     OW30799   6.491   3.513   5.192  0.0613 -0.1603  0.0842
42931SOL    HW130800   6.574   3.488   5.151 -0.0557  0.5241 -0.5916
42931SOL    HW230801   6.507   3.503   5.285  0.9201  0.0021 -0.0346
42932SOL     OW30802   4.099   2.869   0.571  0.6404  0.1555 -0.6911
42932SOL    HW130803   4.153   2.898   0.498  0.7889  0.8514 -0.3087
42932SOL    HW230804   4.112   2.774   0.574  2.9013  0.4297  0.2092
42933SOL     OW30805   1.430   5.979   7.296  0.4720  0.1292 -0.1928
42933SOL    HW130806   1.404   5.956   7.207  0.6803 -0.0782 -0.2002
42933SOL    HW230807   1.357   5.948   7.350  1.9362 -3.1752  0.1074
42934SOL     OW30808   5.299   1.402   4.942  0.8898  0.1495 -0.3575
42934SOL    HW130809   5.219   1.363   4.977  1.1796 -2.9789 -2.6922
42934SOL    HW230810   5.348   1.430   5.019 -1.3264 -0.1736  1.2659
42935SOL     OW30811   7.679   5.679   2.602 -0.7430 -0.5442 -0.6306
42935SOL    HW130812   7.726   5.711   2.526  1.5120 -1.0631  0.4579
42935SOL    HW230813   7.701   5.741   2.672 -0.6821 -1.4675  0.2010
42936SOL     OW30814   3.523   9.612  10.251 -0.8207  0.2525  0.0775
42936SOL    HW130815   3.475   9.529  10.247 -0.3705 -0.0348  0.5007
42936SOL    HW230816   3.498   9.658  10.171  0.5699 -1.2021 -1.2560
42937SOL     OW30817  11.115   5.041   0.946  0.3088 -0.5770 -0.4611
42937SOL    HW130818  11.060   5.081   1.013  2.0816  0.2103  0.6022
42937SOL    HW230819  11.070   5.060   0.864 -0.7208  0.4989  0.3127
42938SOL     OW30820   8.579   2.070   7.996  0.3638  0.4358  0.2114
42938SOL    HW130821   8.631   2.011   7.939  1.1837  0.3210  1.0556
42938SOL    HW230822   8.602   2.043   8.085 -1.3420  0.2393  0.6155
42939SOL     OW30823   9.085   0.365   7.123 -0.0912  0.3369  0.4087
42939SOL    HW130824   9.008   0.384   7.068  1.0702  0.9699 -1.0692
42939SOL    HW230825   9.064   0.406   7.207 -1.5784  0.0610  0.2065
42940SOL     OW30826   8.909   0.945   3.825  0.6834 -0.2914  0.3126
42940SOL    HW130827   8.890   1.033   3.859  0.5931 -0.1945  0.0167
42940SOL    HW230828   9.004   0.943   3.815  0.7648 -0.5309  1.1351
42941SOL     OW30829   8.253   6.074   0.865  0.5347  0.3783 -0.7934
42941SOL    HW130830   8.233   6.042   0.777  2.5596 -0.4118 -1.0180
42941SOL    HW230831   8.217   6.008   0.923  1.2047 -0.2954 -1.1271
42942SOL     OW30832   3.578   1.942   1.240 -0.3651  0.0663 -0.2843
42942SOL    HW130833   3.587   2.037   1.248  0.3862 -0.0106 -0.1638
42942SOL    HW230834   3.536   1.915   1.322  1.1125  0.0890  0.5184
42943SOL     OW30835   4.374   9.299   4.798 -1.7074 -0.2937 -0.6529
42943SOL    HW130836   4.319   9.229   4.833  0.4115 -1.7332 -0.0070
42943SOL    HW230837   4.394   9.271   4.708 -0.5991 -0.7447 -0.2909
42944SOL     OW30838   1.922   1.898   5.634  0.3142 -0.3033  0.2967
42944SOL    HW130839   1.956   1.964   5.574  0.2613 -0.6666 -0.1346
42944SOL    HW230840   1.991   1.889   5.700  0.3060  0.2055  0.3824
42945SOL     OW30841   0.842   2.703   1.639 -0.0935 -0.3078 -0.3462
42945SOL    HW130842   0.838   2.613   1.606  0.8354 -0.5932  0.2737
42945SOL    HW230843   0.883   2.695   1.725  0.8281  0.7944 -0.6552
42946SOL     OW30844   0.860   2.515  11.023  0.0401  0.0408 -0.0978
42946SOL    HW130845   0.825   2.521  10.934 -1.5695 -0.6264  0.4462
42946SOL    HW230846   0.794   2.463  11.071  0.7589  0.5724  1.5316
42947SOL     OW30847   5.501   5.836   9.665  0.3806 -0.0751 -0.5835
42947SOL    HW130848   5.457   5.762   9.623 -1.1949  0.3493  0.2445
42947SOL    HW230849   5.431   5.898   9.685  1.4563  0.9623  0.1368
42948SOL     OW30850   9.159   6.747   5.182 -0.2917  0.1028 -0.3583
42948SOL    HW130851   9.150   6.725   5.090 -0.8469 -0.2594 -0.2224
42948SOL    HW230852   9.152   6.663   5.228  1.6096  0.0505 -0.0746
42949SOL     OW30853   8.823   0.866   7.056 -0.5079  0.2186  0.0073
42949SOL    HW130854   8.777   0.865   7.140 -1.3700  0.6433 -0.4460
42949SOL    HW230855   8.769   0.812   6.998  0.3659 -0.5131 -0.1368
42950SOL     OW30856   4.059   7.065   5.833 -0.0715 -0.1813  0.0242
42950SOL    HW130857   3.976   7.019   5.848 -1.4022  2.0123 -0.1772
42950SOL    HW230858   4.050   7.147   5.881  1.6284  0.4966 -0.7293
42951SOL     OW30859   3.033   8.163  11.173  0.1183 -0.1790  0.3391
42951SOL    HW130860   3.122   8.129  11.183  0.8673  1.6341  0.2260
42951SOL    HW230861   2.982   8.117  11.240  1.4435 -0.3088  1.3002
42952SOL     OW30862   6.254   6.630   9.850  0.2154 -0.2752 -0.3598
42952SOL    HW130863   6.298   6.561   9.900  1.2289  2.0669  2.2395
42952SOL    HW230864   6.304   6.636   9.769  2.2340 -0.4170  0.8088
42953SOL     OW30865   5.158   8.504  10.140 -0.2699  0.5201 -0.2684
42953SOL    HW130866   5.120   8.427  10.097 -1.3109  0.7202  0.2814
42953SOL    HW230867   5.204   8.550  10.069  0.2609 -0.5319 -0.6267
42954SOL     OW30868   9.207   6.840   1.171  0.4704 -0.8750 -0.4161
42954SOL    HW130869   9.251   6.893   1.238 -1.0252  0.1407 -0.1747
42954SOL    HW230870   9.116   6.834   1.201  0.2816 -2.3657 -1.2027
42955SOL     OW30871  10.913   1.039   7.176 -0.3131  0.4744 -0.0347
42955SOL    HW130872  10.876   0.953   7.198 -0.9985  0.4213 -1.2480
42955SOL    HW230873  10.875   1.098   7.240  1.1280 -0.2788  1.6006
42956SOL     OW30874   8.681   8.953   2.893  0.1363 -0.2719  0.1433
42956SOL    HW130875   8.653   8.876   2.844  0.0804 -0.1594 -0.0027
42956SOL    HW230876   8.765   8.977   2.854  0.6484 -0.8620  0.8649
42957SOL     OW30877   0.234   6.455   4.855  0.7877 -0.0638  0.1974
42957SOL    HW130878   0.192   6.394   4.794  1.4486  0.3701 -0.7242
42957SOL    HW230879   0.223   6.541   4.814  1.8185  0.1572  0.3532
42958SOL     OW30880  10.270  10.623   5.144  0.1278  0.0822 -0.1409
42958SOL    HW130881  10.307  10.559   5.084  1.8454  2.8310 -2.2444
42958SOL    HW230882  10.326  10.618   5.222 -0.1108 -1.2831 -0.0344
42959SOL     OW30883   1.310   7.763   7.224  0.3795 -0.0132  0.1183
42959SOL    HW130884   1.400   7.791   7.207  0.8713 -1.4026  0.3104
42959SOL    HW230885   1.310   7.669   7.204 -1.2575  0.1377 -0.7212
42960SOL     OW30886   8.076   5.089   8.231  0.2203  0.2517  0.1049
42960SOL    HW130887   8.108   5.172   8.195 -0.0224  0.9538  1.4566
42960SOL    HW230888   8.151   5.053   8.277  0.2624 -0.1927 -0.3012
42961SOL     OW30889  10.596  10.075   4.850  0.2539 -0.5267  0.3181
42961SOL    HW130890  10.606   9.989   4.890  0.2641 -0.2813  0.8435
42961SOL    HW230891  10.671  10.083   4.791  0.1006 -0.9881  0.0566
42962SOL     OW30892   2.144   9.146   7.048 -0.0896  0.0626 -0.2330
42962SOL    HW130893   2.123   9.226   7.095 -1.6296  0.2167 -1.1022
42962SOL    HW230894   2.236   9.155   7.023 -0.4163  1.9059 -0.9340
42963SOL     OW30895   9.779   8.845   5.042 -0.0758 -0.7294  0.1256
42963SOL    HW130896   9.694   8.825   5.004  0.0700 -2.4444  0.6341
42963SOL    HW230897   9.842   8.798   4.989  0.9689  2.6466 -1.9648
42964SOL     OW30898   2.965   0.460   8.800 -0.1885 -0.0933  0.1374
42964SOL    HW130899   2.980   0.537   8.745 -0.4178 -0.4489 -0.4348
42964SOL    HW230900   2.983   0.385   8.742 -1.5916 -0.4908  0.1883
42965SOL     OW30901   7.327   9.122  10.206  0.3538  1.0305 -0.3047
42965SOL    HW130902   7.316   9.107  10.112  1.3189  0.7949 -0.3841
42965SOL    HW230903   7.297   9.040  10.246  0.8212  0.7786 -0.4627
42966SOL     OW30904   7.414   8.223   4.372 -0.2860  0.0671  0.5763
42966SOL    HW130905   7.396   8.232   4.278  4.4437 -1.3694 -0.7597
42966SOL    HW230906   7.399   8.129   4.389  1.3094 -0.2148  0.5300
42967SOL     OW30907   3.250   4.167   4.002  0.3937  0.6802 -0.2258
42967SOL    HW130908   3.169   4.120   3.986  0.2757  0.2384  1.5036
42967SOL    HW230909   3.274   4.203   3.916 -1.4692  0.6131 -0.8105
42968SOL     OW30910   4.990   3.328   5.923 -0.0102  0.2395  0.2598
42968SOL    HW130911   5.047   3.257   5.953  0.3489  0.5909  0.4176
42968SOL    HW230912   4.908   3.315   5.971 -1.0706 -1.8790 -1.9407
42969SOL     OW30913   5.297  10.677   5.189  0.0801  0.2732 -0.2204
42969SOL    HW130914   5.369  10.740   5.190 -0.0471  0.4187  0.3579
42969SOL    HW230915   5.220  10.729   5.163 -0.3372  0.7410  1.7258
42970SOL     OW30916   3.533   3.534   3.862  0.2780  0.4143  0.7387
42970SOL    HW130917   3.567   3.446   3.874 -1.2888 -0.2133  0.7098
42970SOL    HW230918   3.573   3.564   3.780 -0.6057 -0.9797 -0.2206
42971SOL     OW30919   9.203   8.768   8.802 -0.2543 -0.4846 -0.1570
42971SOL    HW130920   9.183   8.787   8.894  1.7328  2.4223 -0.1983
42971SOL    HW230921   9.260   8.840   8.774  0.0400 -1.8004 -3.4092
42972SOL     OW30922   5.391   0.411   5.477 -0.0883  0.0567  0.0346
42972SOL    HW130923   5.459   0.365   5.428 -1.2725  0.2861 -1.9794
42972SOL    HW230924   5.354   0.344   5.535  0.8615 -0.4428  0.0862
42973SOL     OW30925   6.148   7.729   0.606 -0.3817 -0.1693 -0.1012
42973SOL    HW130926   6.168   7.801   0.545 -0.7664  0.6629  0.7222
42973SOL    HW230927   6.148   7.771   0.692 -2.2629 -0.8034  0.2561
42974SOL     OW30928  10.174   5.937   2.953  0.2865 -0.2217  0.7386
42974SOL    HW130929  10.202   6.021   2.917  0.5220 -0.2617  0.8272
42974SOL    HW230930  10.141   5.958   3.040 -0.2372 -0.1323  0.5210
42975SOL     OW30931   6.991  11.128   3.409 -0.7271  0.0342 -0.1796
42975SOL    HW130932   7.015  11.042   3.373 -0.9672 -0.3784  0.6190
42975SOL    HW230933   6.906  11.113   3.451  0.2761  0.0875  1.9841
42976SOL     OW30934   1.867   2.412   5.403  0.1036 -0.0741  1.0528
42976SOL    HW130935   1.894   2.502   5.418 -1.1767  0.8151 -1.4932
42976SOL    HW230936   1.899   2.391   5.316 -1.1843 -1.4382  0.8607
42977SOL     OW30937   1.719   8.576   2.720 -0.3809  0.4164 -0.0096
42977SOL    HW130938   1.780   8.577   2.646 -0.0368 -2.7228  0.1013
42977SOL    HW230939   1.649   8.517   2.693 -2.5879  2.6340  0.5405
42978SOL     OW30940  10.257   2.491   1.710 -0.3922 -0.1242 -0.5820
42978SOL    HW130941  10.232   2.418   1.766  1.8006 -1.6468 -1.4504
42978SOL    HW230942  10.336   2.527   1.752 -0.9414  1.2037 -0.6450
42979SOL     OW30943   4.861   2.323   8.683  0.1319  0.0022 -0.3257
42979SOL    HW130944   4.782   2.279   8.650  0.9560 -0.3045 -1.9797
42979SOL    HW230945   4.918   2.251   8.711 -0.8785  0.2590  2.7960
42980SOL     OW30946   2.205   5.790  10.692  0.0744  0.2392  0.1402
42980SOL    HW130947   2.255   5.831  10.762  1.5595 -1.9694  0.4752
42980SOL    HW230948   2.147   5.728  10.737 -2.3222  1.9979 -0.3260
42981SOL     OW30949   0.278   8.106   7.770  0.4043 -0.0714  0.7269
42981SOL    HW130950   0.221   8.037   7.803  0.5495  0.7151  2.7654
42981SOL    HW230951   0.302   8.078   7.682  0.3372 -2.5471  1.4271
42982SOL     OW30952   5.306   0.250  10.148  0.0685  0.7925  0.7440
42982SOL    HW130953   5.211   0.263  10.142 -0.1801 -0.4450  1.5797
42982SOL    HW230954   5.335   0.308  10.218  0.1268  1.9617 -0.2094
42983SOL     OW30955   0.420   7.689   3.149 -0.1287  1.0527  0.1856
42983SOL    HW130956   0.438   7.648   3.065 -3.5550  1.4777 -0.9255
42983SOL    HW230957   0.360   7.628   3.193  0.4379  1.5354  1.7199
42984SOL     OW30958  10.686   0.321   0.135 -0.0180 -0.2483 -0.1138
42984SOL    HW130959  10.717   0.411   0.129 -1.7302  0.3066 -1.1902
42984SOL    HW230960  10.717   0.279   0.054  1.8588 -1.0491  0.9390
42985SOL     OW30961  10.414   9.325   0.205  0.2711 -0.0703  0.0567
42985SOL    HW130962  10.509   9.333   0.207  0.1555  3.1071 -0.6316
42985SOL    HW230963  10.392   9.331   0.112 -0.6290  0.3578  0.2875
42986SOL     OW30964   0.406   6.100  10.166 -0.2584 -0.3488 -0.5390
42986SOL    HW130965   0.442   6.114  10.078  1.4292 -1.3765 -0.0575
42986SOL    HW230966   0.338   6.033  10.153 -2.5267  1.9572 -1.5367
42987SOL     OW30967   8.922   3.965   6.242 -0.1386 -0.1551 -0.5518
42987SOL    HW130968   8.929   3.932   6.152 -1.0524  0.6370 -0.9438
42987SOL    HW230969   8.943   4.058   6.234 -2.6815  0.5149 -0.4383
42988SOL     OW30970   9.070   6.428   2.501 -0.2215  0.1200 -0.1610
42988SOL    HW130971   9.145   6.485   2.487 -0.9903  1.2530  0.1879
42988SOL    HW230972   9.037   6.410   2.413 -0.1610  0.4892 -0.2629
42989SOL     OW30973   8.609   9.084   1.360  0.2552  0.1412  0.1162
42989SOL    HW130974   8.559   9.003   1.349  1.7855 -0.7451 -0.5711
42989SOL    HW230975   8.543   9.149   1.385 -1.0352 -1.2664  0.5462
42990SOL     OW30976   8.864   8.980   4.335  0.5753  0.0145 -0.0059
42990SOL    HW130977   8.828   8.913   4.394  0.1190  1.7903  1.8305
42990SOL    HW230978   8.946   8.942   4.303  1.9335 -0.2701  3.4303
42991SOL     OW30979   2.224   3.648   0.956 -0.4472 -0.1686 -0.4916
42991SOL    HW130980   2.311   3.612   0.938 -0.4214 -1.4848  1.9349
42991SOL    HW230981   2.188   3.669   0.869  1.3091 -1.9005 -1.6990
42992SOL     OW30982   0.523   7.699   9.729 -0.3021 -0.4642  0.2030
42992SOL    HW130983   0.510   7.651   9.811 -0.0506 -2.0403 -0.6355
42992SOL    HW230984   0.437   7.738   9.711 -0.6558 -0.9921  0.6873
42993SOL     OW30985   6.969   2.979   8.125 -0.3841 -0.2780  0.3814
42993SOL    HW130986   6.981   2.952   8.216 -0.0306 -1.1338  0.0858
42993SOL    HW230987   6.876   2.966   8.108 -0.6961  1.0187  0.9683
42994SOL     OW30988   7.071   5.954   5.054  0.2913  0.2886  0.1517
42994SOL    HW130989   7.043   5.906   4.975 -1.3858 -1.8520  1.9128
42994SOL    HW230990   7.112   5.887   5.109 -0.1864  1.3216  1.8347
42995SOL     OW30991   4.351   3.841   1.448  0.1958 -0.2496  0.2206
42995SOL    HW130992   4.391   3.756   1.433 -0.2638 -0.5999  0.9395
42995SOL    HW230993   4.341   3.879   1.360 -1.9653 -2.0239 -0.3949
42996SOL     OW30994   6.923   8.664  10.247  0.0993 -0.0507 -0.1235
42996SOL    HW130995   6.845   8.712  10.275 -1.1400 -1.5230 -0.8775
42996SOL    HW230996   6.988   8.681  10.315  0.0202  3.2598 -0.7311
42997SOL     OW30997   3.663   6.237   8.838  0.2855 -0.3325 -0.1706
42997SOL    HW130998   3.711   6.293   8.899  0.0098  0.4685 -0.6824
42997SOL    HW230999   3.725   6.219   8.767 -0.2449  0.9653 -0.9922
42998SOL     OW31000   4.360   5.187   4.214 -0.1047  0.2776  0.1708
42998SOL    HW131001   4.346   5.108   4.161  0.4857  0.3995 -0.1802
42998SOL    HW231002   4.449   5.178   4.246 -0.1692  0.6238  0.4426
42999SOL     OW31003   6.753   3.479   6.030  0.1049  0.2501  0.0469
42999SOL    HW131004   6.717   3.447   5.947  1.2796  0.1222 -0.4277
42999SOL    HW231005   6.775   3.400   6.078 -1.0730  0.3126  0.7326
43000SOL     OW31006   2.407   4.381   1.096 -0.1786 -0.1428  0.1741
43000SOL    HW131007   2.353   4.396   1.019 -1.8003  0.6783  1.4042
43000SOL    HW231008   2.423   4.286   1.097  0.4008 -0.0794 -1.4774
43001SOL     OW31009   1.937   7.522   0.580  0.8191 -0.3752  0.0981
43001SOL    HW131010   1.948   7.532   0.485  2.0057  1.2325  0.3702
43001SOL    HW231011   1.871   7.453   0.589  0.5057 -0.3955 -1.8946
43002SOL     OW31012   7.883   4.398   0.575 -0.0435  0.1403  0.0826
43002SOL    HW131013   7.946   4.430   0.639 -2.4444  0.2618  2.5491
43002SOL    HW231014   7.906   4.305   0.563  0.4511  0.1149  1.1579
43003SOL     OW31015   7.607   0.163   4.049 -0.2216  0.2383 -0.0167
43003SOL    HW131016   7.532   0.104   4.037 -1.9989  1.8053  2.4980
43003SOL    HW231017   7.606   0.218   3.971 -0.2282 -1.2340 -1.1009
43004SOL     OW31018   0.589   3.950   4.464 -0.1290  0.6268 -0.1797
43004SOL    HW131019   0.571   3.982   4.552 -0.2317 -0.5254  0.2253
43004SOL    HW231020   0.602   3.856   4.474 -2.8743 -0.0293 -1.7518
43005SOL     OW31021   5.814   9.560   0.540 -0.5567 -0.0586 -0.6435
43005SOL    HW131022   5.723   9.533   0.552  0.2221 -1.7302  2.4814
43005SOL    HW231023   5.865   9.482   0.562  1.7234  0.3690 -3.6755
43006SOL     OW31024   4.474  10.105   8.609 -0.1161  0.0991  0.4658
43006SOL    HW131025   4.410  10.038   8.630 -1.1605  1.6108  2.5011
43006SOL    HW231026   4.432  10.157   8.540 -0.1767 -0.1618  0.3068
43007SOL     OW31027   2.671   6.497  10.453 -0.5272 -0.2174 -0.2282
43007SOL    HW131028   2.665   6.571  10.394 -2.1973 -0.6890 -0.6961
43007SOL    HW231029   2.665   6.535  10.541 -2.0688  0.1821 -0.4768
43008SOL     OW31030   6.806   2.123   8.192 -0.0915  0.1548  0.1032
43008SOL    HW131031   6.827   2.097   8.102  1.1177  0.2930  0.3267
43008SOL    HW231032   6.715   2.153   8.188 -0.7010 -1.6524 -0.6852
43009SOL     OW31033   5.190   2.927   4.796 -0.2326  0.1493  1.3048
43009SOL    HW131034   5.206   2.992   4.864  1.2548 -0.1504  1.2714
43009SOL    HW231035   5.147   2.854   4.842  0.5410  0.0474  1.8885
43010SOL     OW31036   6.591   6.994   2.267  0.3767 -0.2143 -0.0956
43010SOL    HW131037   6.642   7.005   2.187  0.4865 -0.4323 -0.0577
43010SOL    HW231038   6.655   6.967   2.333  0.2068 -0.5581 -0.0639
43011SOL     OW31039   1.800   2.743   5.302  0.1104  0.2272 -0.2584
43011SOL    HW131040   1.885   2.721   5.341 -0.6843  0.5034  1.7775
43011SOL    HW231041   1.793   2.838   5.313  0.2504  0.4636 -2.0007
43012SOL     OW31042   5.410  10.159  11.071  0.9507 -0.1191  0.2744
43012SOL    HW131043   5.434  10.099  11.142  0.7025  0.2921  0.7092
43012SOL    HW231044   5.421  10.246  11.109  1.2899  0.1146 -0.3497
43013SOL     OW31045   5.833   6.737   4.594  0.1616  0.2519  0.0424
43013SOL    HW131046   5.853   6.706   4.682 -1.1889 -0.2887  0.1868
43013SOL    HW231047   5.743   6.707   4.577  1.0465 -1.3957 -2.2997
43014SOL     OW31048   8.684   1.337   6.697  0.6995  0.5756  0.0505
43014SOL    HW131049   8.769   1.363   6.661  0.6031 -0.2324 -0.8043
43014SOL    HW231050   8.653   1.269   6.637 -1.5137  2.2962 -0.8710
43015SOL     OW31051   7.108   1.047   2.565  0.1599 -0.0143 -0.1939
43015SOL    HW131052   7.138   0.987   2.496 -0.1067  0.7225 -0.9657
43015SOL    HW231053   7.105   0.993   2.644 -1.4273 -1.4077 -1.1280
43016SOL     OW31054   6.623   2.903   8.109  0.6644  1.4070  0.0822
43016SOL    HW131055   6.672   2.822   8.100 -0.4893  0.7899 -0.8903
43016SOL    HW231056   6.661   2.946   8.186  1.0087 -0.2415  0.8700
43017SOL     OW31057   1.917   2.221   7.679 -0.1284 -0.5593  0.1265
43017SOL    HW131058   1.944   2.305   7.641 -0.7731 -0.2459  0.3497
43017SOL    HW231059   1.888   2.169   7.604  1.2899 -1.0017 -0.1580
43018SOL     OW31060   7.973   6.915   3.044 -0.6498 -0.2750  0.0062
43018SOL    HW131061   8.058   6.900   3.002 -0.7262 -0.4349 -0.0877
43018SOL    HW231062   7.974   7.009   3.066 -0.7778 -0.1020 -0.7155
43019SOL     OW31063   0.941   0.029  10.143 -0.6991 -0.3361 -0.3334
43019SOL    HW131064   0.982   0.002  10.226  0.3843 -1.3790 -1.1630
43019SOL    HW231065   1.015   0.059  10.089 -1.5290  1.5801 -0.5067
43020SOL     OW31066  10.731   1.525   3.462  0.1420 -0.2677  0.6515
43020SOL    HW131067  10.738   1.616   3.493 -2.8253  0.7670 -1.2308
43020SOL    HW231068  10.722   1.473   3.543  1.6974  1.0919  1.7619
43021SOL     OW31069   8.387   9.270   5.609  0.0807  0.4980  0.1015
43021SOL    HW131070   8.422   9.243   5.524 -0.2468  0.1940  0.0590
43021SOL    HW231071   8.398   9.365   5.610 -0.8342  0.6273 -0.7054
43022SOL     OW31072   1.985   9.839   7.349  0.2160 -0.7148  0.0348
43022SOL    HW131073   1.968   9.856   7.442  2.9089  4.5517 -0.0627
43022SOL    HW231074   2.079   9.821   7.345  0.8215  2.2818 -1.7722
43023SOL     OW31075   4.261   7.908   5.462  0.3723  0.0232  0.2040
43023SOL    HW131076   4.281   7.963   5.538  1.5958 -0.0220 -0.0526
43023SOL    HW231077   4.220   7.830   5.498 -2.4654  1.5330  0.4885
43024SOL     OW31078  10.071   0.988   0.345 -1.0067  0.1199  0.0242
43024SOL    HW131079  10.046   0.897   0.332 -1.4122  0.0104  1.4314
43024SOL    HW231080  10.120   0.988   0.427 -1.2278  1.2090  0.1763
43025SOL     OW31081  10.996  10.806   3.286  0.4768 -0.3761 -0.5061
43025SOL    HW131082  11.004  10.767   3.373 -2.2416  0.0171  0.0143
43025SOL    HW231083  11.026  10.896   3.297  1.5786 -0.7376 -0.3892
43026SOL     OW31084   4.313   8.471   5.466 -0.0985  0.7193 -0.3010
43026SOL    HW131085   4.364   8.541   5.505  1.6248  0.1260 -1.3783
43026SOL    HW231086   4.348   8.391   5.504  2.4827  0.0038 -3.6649
43027SOL     OW31087   2.241   6.676   6.048 -0.0416  0.4724  0.4166
43027SOL    HW131088   2.286   6.685   6.132  0.2152 -2.9811  0.7989
43027SOL    HW231089   2.148   6.681   6.070 -0.0090  3.3739  0.2449
43028SOL     OW31090   2.747   0.252   2.309  0.3152 -0.0004 -0.2920
43028SOL    HW131091   2.787   0.186   2.253  0.6176 -0.9191  0.9610
43028SOL    HW231092   2.653   0.235   2.303  0.4840 -2.1919  1.8934
43029SOL     OW31093   2.550   0.924   8.510 -0.3899  0.1007  0.0170
43029SOL    HW131094   2.588   0.973   8.583  0.2136 -1.4897  0.8259
43029SOL    HW231095   2.463   0.962   8.498 -0.4718  0.4471  1.5270
43030SOL     OW31096   8.090   5.585   9.441 -0.1309 -0.4540 -0.6425
43030SOL    HW131097   8.104   5.635   9.361 -0.0384 -2.6485 -2.0940
43030SOL    HW231098   8.169   5.600   9.494  0.3304  0.1185 -1.4847
43031SOL     OW31099   8.206   3.227   3.100  0.8761 -0.2164  0.1937
43031SOL    HW131100   8.145   3.295   3.071  0.8386 -0.1439  0.4443
43031SOL    HW231101   8.270   3.220   3.029  1.6298  0.9938  0.7359
43032SOL     OW31102   6.843   6.430   1.659 -0.0995  0.3121  0.1552
43032SOL    HW131103   6.826   6.397   1.571  1.5163 -0.9338  0.2528
43032SOL    HW231104   6.794   6.372   1.717  1.2166 -0.8023  0.2105
43033SOL     OW31105   6.717   8.706   4.286  0.0051  0.4496  0.0679
43033SOL    HW131106   6.667   8.669   4.213 -1.2564  1.9891  0.1087
43033SOL    HW231107   6.800   8.731   4.247 -1.0416  2.2586 -1.1644
43034SOL     OW31108   6.464   4.207   4.637  0.1307  0.1610 -0.0049
43034SOL    HW131109   6.397   4.140   4.626  1.6244 -1.4869  0.4272
43034SOL    HW231110   6.445   4.247   4.722 -0.2628 -0.3472  0.1507
43035SOL     OW31111   5.164  10.421   6.236 -0.8566  0.3687  0.0358
43035SOL    HW131112   5.123  10.342   6.270 -0.0388 -0.3105 -0.4954
43035SOL    HW231113   5.222  10.451   6.306 -0.4003 -0.0996 -0.1312
43036SOL     OW31114   0.630   3.975   9.438  0.4250 -0.4503 -0.0447
43036SOL    HW131115   0.714   3.956   9.396  0.3295 -1.4799  0.2055
43036SOL    HW231116   0.610   3.896   9.488 -0.4617 -0.0260  0.2890
43037SOL     OW31117   6.528  10.355   8.754  0.4558 -0.2707  0.4553
43037SOL    HW131118   6.502  10.267   8.779  1.5109 -0.3780  1.2692
43037SOL    HW231119   6.451  10.392   8.712  0.2607 -1.8486 -0.6421
43038SOL     OW31120  10.606  11.219   5.974  0.3042 -0.0699 -0.8042
43038SOL    HW131121  10.534  11.180   5.925  0.3418  0.6967 -1.4959
43038SOL    HW231122  10.681  11.163   5.955 -0.3379 -1.5820  0.8860
43039SOL     OW31123   7.122   5.081   0.742 -0.0223  0.1848  0.2436
43039SOL    HW131124   7.175   5.018   0.694  0.8139  0.6298  0.5481
43039SOL    HW231125   7.149   5.070   0.833  0.0231  0.8620  0.3201
43040SOL     OW31126   1.546   9.993   7.800 -0.1614 -0.4392 -0.2951
43040SOL    HW131127   1.555   9.948   7.716  0.4893 -0.1091 -0.4101
43040SOL    HW231128   1.597  10.074   7.789  1.4240 -1.2117  0.9927
43041SOL     OW31129  10.805   8.750   3.418 -0.3012 -0.7131 -0.5332
43041SOL    HW131130  10.889   8.744   3.463  0.0807 -2.3696 -1.4118
43041SOL    HW231131  10.744   8.778   3.486  1.2564  2.6348 -0.3157
43042SOL     OW31132   6.116   4.347   3.347 -0.1985 -0.0061  0.2014
43042SOL    HW131133   6.071   4.391   3.419 -1.7321  1.1677 -1.3997
43042SOL    HW231134   6.162   4.274   3.389  1.7242  2.5000  2.8362
43043SOL     OW31135   9.373   0.106   6.950 -0.0014  0.1625 -0.0125
43043SOL    HW131136   9.352   0.027   6.999  0.2073  0.0958 -0.0310
43043SOL    HW231137   9.290   0.131   6.908 -0.8338  1.5727  2.2852
43044SOL     OW31138   2.203   8.883   0.033  0.2953  0.0175 -0.8747
43044SOL    HW131139   2.119   8.840   0.020 -0.9434  2.5212 -1.9498
43044SOL    HW231140   2.266   8.828  -0.012 -0.5123 -2.5159  0.8947
43045SOL     OW31141   1.266  11.264   7.978  0.2396  0.4032 -0.0422
43045SOL    HW131142   1.275  11.217   8.061 -1.9598  0.2829  0.1892
43045SOL    HW231143   1.339  11.326   7.978  0.1380  0.6152  2.1455
43046SOL     OW31144   3.351   4.671  10.873  0.1206 -0.4896  0.4140
43046SOL    HW131145   3.444   4.664  10.896 -0.0874 -3.5575  0.7227
43046SOL    HW231146   3.345   4.633  10.785 -0.7661  0.1735  0.1810
43047SOL     OW31147   9.940   2.953   0.932  0.9912  0.1777 -0.0425
43047SOL    HW131148  10.031   2.947   0.905  1.0056  0.2343 -0.0078
43047SOL    HW231149   9.915   2.863   0.954  1.1506  0.2179  0.3111
43048SOL     OW31150   1.743   9.516   9.920  0.2644  0.0502  0.3540
43048SOL    HW131151   1.827   9.561   9.913  1.5132 -1.8658  1.8374
43048SOL    HW231152   1.682   9.583   9.952  1.3706  1.3248 -0.1363
43049SOL     OW31153   0.378   9.749   2.061  0.0096 -0.2830  0.0890
43049SOL    HW131154   0.364   9.837   2.024  0.4527 -0.0935  0.3721
43049SOL    HW231155   0.472   9.734   2.053 -0.1616 -1.0237 -0.5997
43050SOL     OW31156   3.641   3.783   7.975  0.2363  0.2861 -0.3643
43050SOL    HW131157   3.591   3.831   7.910 -0.7139  1.3701  1.0923
43050SOL    HW231158   3.673   3.850   8.036  0.7618 -0.7060  0.4913
43051SOL     OW31159   1.867   9.615   8.569  0.3446 -0.4480 -0.0429
43051SOL    HW131160   1.832   9.526   8.566 -0.7562 -0.0164 -0.9026
43051SOL    HW231161   1.804   9.664   8.622  0.9779 -0.1869  0.4844
43052SOL     OW31162   5.692   0.367   8.479  0.5085  0.0065  0.4381
43052SOL    HW131163   5.777   0.392   8.445 -0.3816  4.5247  0.8801
43052SOL    HW231164   5.636   0.358   8.402  1.0013 -1.5906  0.2319
43053SOL     OW31165   3.064   3.669   2.945  0.5343  0.2807 -0.0575
43053SOL    HW131166   3.131   3.670   2.876  0.3558 -0.9146 -0.2728
43053SOL    HW231167   3.094   3.601   3.006 -0.8367 -0.7878 -0.5342
43054SOL     OW31168   0.204   3.344   3.511  0.1141 -0.0830  0.0524
43054SOL    HW131169   0.111   3.354   3.492 -0.2119 -1.7559  0.6490
43054SOL    HW231170   0.245   3.420   3.470 -1.2475 -0.4068 -2.0561
43055SOL     OW31171   0.470   7.536   0.424 -0.1852 -0.3032  0.3711
43055SOL    HW131172   0.510   7.607   0.475 -0.7588  0.3796 -0.1227
43055SOL    HW231173   0.380   7.532   0.455 -0.4581 -0.0754 -0.3932
43056SOL     OW31174   4.955   7.154   3.930  0.4694 -0.2737  0.0087
43056SOL    HW131175   4.913   7.171   3.846 -1.7306 -3.3914  0.2581
43056SOL    HW231176   4.941   7.234   3.981  3.4970  2.4432 -2.9880
43057SOL     OW31177   8.323   0.514   5.659  0.0467  0.3720 -0.0933
43057SOL    HW131178   8.324   0.426   5.698 -3.3257 -0.5410 -1.6825
43057SOL    HW231179   8.270   0.504   5.580 -1.7855  4.1126  0.4512
43058SOL     OW31180   6.859   3.419  10.181  0.4122 -0.6269  0.3901
43058SOL    HW131181   6.787   3.373  10.224 -0.4626 -1.1560 -1.5344
43058SOL    HW231182   6.911   3.350  10.140 -0.4311 -0.0524 -1.7975
43059SOL     OW31183   7.149  11.138   8.720 -0.4824 -0.1177  0.1771
43059SOL    HW131184   7.159  11.076   8.792  0.2792  0.6313  0.7375
43059SOL    HW231185   7.083  11.099   8.663 -1.2954 -0.5958  1.4140
43060SOL     OW31186   7.967   4.734   7.971  0.8821  0.1451 -0.2799
43060SOL    HW131187   8.057   4.746   8.003  0.5011 -1.4789  1.6039
43060SOL    HW231188   7.940   4.650   8.007 -0.6026 -0.5534 -2.8006
43061SOL     OW31189   1.026   3.912   2.631  0.2903  0.0080  0.5039
43061SOL    HW131190   1.010   4.006   2.638  0.4934 -0.0298  5.5861
43061SOL    HW231191   0.939   3.872   2.639  0.3932 -0.2064  0.5601
43062SOL     OW31192   9.622   3.407   8.356  0.0760  0.2957 -0.1198
43062SOL    HW131193   9.585   3.445   8.436 -0.3753  0.5621 -0.4532
43062SOL    HW231194   9.704   3.367   8.385  0.7846  1.8685  0.1868
43063SOL     OW31195   6.509   0.353   2.871  0.3925 -0.9361  0.0055
43063SOL    HW131196   6.493   0.373   2.779  2.4236 -0.4894 -0.3036
43063SOL    HW231197   6.533   0.436   2.910 -0.3761 -1.1413  0.9440
43064SOL     OW31198   0.484   7.533   5.871 -0.2362  0.4288  0.4729
43064SOL    HW131199   0.465   7.463   5.934 -1.1002  1.0055  0.8644
43064SOL    HW231200   0.578   7.546   5.879 -0.1676 -0.2303  0.8789
43065SOL     OW31201   5.474   2.400   7.207  0.3392 -0.4040 -1.3664
43065SOL    HW131202   5.479   2.493   7.183 -0.6533 -0.3138 -1.2450
43065SOL    HW231203   5.538   2.391   7.278 -0.6699  0.5430 -0.3063
43066SOL     OW31204   9.002  10.403  10.489  0.6518  0.2922 -0.0137
43066SOL    HW131205   8.963  10.384  10.404  0.6789 -0.4170  0.1204
43066SOL    HW231206   9.075  10.461  10.470  1.4813 -0.9145 -0.6394
43067SOL     OW31207   8.614   7.570   5.972 -0.3339  0.0951  0.1423
43067SOL    HW131208   8.594   7.663   5.982  0.8348  0.3339  0.3805
43067SOL    HW231209   8.706   7.563   5.994 -0.2368 -1.0173 -0.5494
43068SOL     OW31210   4.536  10.659   8.432 -0.3106  0.6518  0.5626
43068SOL    HW131211   4.541  10.738   8.486  1.6875  0.8705  0.1309
43068SOL    HW231212   4.627  10.637   8.414 -0.8876 -0.5848 -1.0356
43069SOL     OW31213   9.021  10.495   1.654  1.0064  0.0899  0.0462
43069SOL    HW131214   9.111  10.490   1.622  1.1425 -1.0255  0.5750
43069SOL    HW231215   9.012  10.586   1.684  1.9565  0.2100 -0.0053
43070SOL     OW31216   2.329   8.903   9.513 -0.6296 -0.2985  0.9020
43070SOL    HW131217   2.247   8.953   9.515 -2.1406 -2.6583  2.2049
43070SOL    HW231218   2.345   8.880   9.604  0.5350 -1.3712  0.4498
43071SOL     OW31219   0.970   6.481   2.317  0.0205  0.3593 -0.3662
43071SOL    HW131220   0.925   6.495   2.400 -1.6090  2.1169 -1.4750
43071SOL    HW231221   1.002   6.567   2.291  0.4535 -0.1448 -1.5912
43072SOL     OW31222   2.372   6.905   5.627  0.7200 -1.1754  0.6170
43072SOL    HW131223   2.353   6.996   5.648  3.0869 -0.2346 -0.8822
43072SOL    HW231224   2.290   6.870   5.592  0.0910  0.7197  0.1235
43073SOL     OW31225   3.859   4.845   9.086  0.2466  0.0130 -0.1117
43073SOL    HW131226   3.795   4.915   9.098 -0.1123 -0.4407  0.7147
43073SOL    HW231227   3.828   4.773   9.141 -1.9968 -2.6899 -4.3754
43074SOL     OW31228   3.293  10.635   4.663  0.5609  0.1979 -0.2346
43074SOL    HW131229   3.237  10.566   4.698  2.7202 -1.5483  0.0182
43074SOL    HW231230   3.293  10.703   4.730  0.5904 -0.8345  0.8497
43075SOL     OW31231   2.279   2.052   2.090  0.3672  0.0061 -0.3573
43075SOL    HW131232   2.246   1.970   2.127 -0.0099  1.4239  2.8212
43075SOL    HW231233   2.213   2.117   2.115  2.2231  1.7921  0.1692
43076SOL     OW31234   3.130  11.091   3.808 -0.2329 -0.7386  0.3640
43076SOL    HW131235   3.133  11.089   3.712  0.1993 -0.0284  0.3523
43076SOL    HW231236   3.050  11.044   3.830  0.0709 -1.5890 -0.3110
43077SOL     OW31237   1.509   0.059   7.565 -0.2663  0.4706 -0.1250
43077SOL    HW131238   1.441   0.112   7.607 -1.3106 -0.5946 -0.4169
43077SOL    HW231239   1.591   0.103   7.587 -0.8133  0.4057  2.4396
43078SOL     OW31240   7.211   6.928   5.480  0.1704 -0.4123  0.3161
43078SOL    HW131241   7.289   6.901   5.527  1.0538  1.7485  0.2068
43078SOL    HW231242   7.141   6.925   5.546  0.4764 -1.6233  0.6040
43079SOL     OW31243   7.966   6.623   2.057 -0.4824  0.1586  0.4521
43079SOL    HW131244   7.981   6.701   2.004  1.8641  1.2875  2.5766
43079SOL    HW231245   7.904   6.651   2.124  0.0236  0.1079  0.9535
43080SOL     OW31246   6.353   5.120   8.389 -0.1013  0.3845 -0.1436
43080SOL    HW131247   6.290   5.189   8.409  0.2295  0.4780  0.6061
43080SOL    HW231248   6.434   5.149   8.432 -0.0327 -0.5940  0.4003
43081SOL     OW31249  10.695   5.185   0.931  0.1587 -0.4100 -0.9773
43081SOL    HW131250  10.745   5.150   0.856 -0.1001 -0.1626 -1.2675
43081SOL    HW231251  10.691   5.279   0.915  0.9585 -0.2103 -0.1325
43082SOL     OW31252  11.029   4.038   6.118 -0.1944 -0.8313  0.0512
43082SOL    HW131253  11.017   4.064   6.209 -1.0732  1.6112 -0.6688
43082SOL    HW231254  11.049   3.945   6.122  0.6547 -0.6207  2.7712
43083SOL     OW31255   5.436   4.670   2.285 -0.4116  0.3845  0.0138
43083SOL    HW131256   5.426   4.576   2.271  2.6889  0.0306 -0.6096
43083SOL    HW231257   5.406   4.711   2.204  0.2647 -0.2797 -0.5841
43084SOL     OW31258  10.023   1.212   5.961 -0.1707  0.0748 -0.0955
43084SOL    HW131259  10.062   1.201   5.875  0.7732 -0.0346  0.3245
43084SOL    HW231260   9.992   1.303   5.963  1.2551  0.5784  0.0029
43085SOL     OW31261  11.067   8.839   5.624 -0.1684  0.4227 -0.3305
43085SOL    HW131262  10.998   8.775   5.604 -0.0185 -0.0870  0.6990
43085SOL    HW231263  11.041   8.918   5.577 -1.2082  0.0971 -0.3297
43086SOL     OW31264   6.187  10.707   5.357  0.5958  0.8386 -0.3043
43086SOL    HW131265   6.276  10.676   5.367  0.8169  1.2465 -0.9307
43086SOL    HW231266   6.173  10.713   5.263 -0.4223 -0.1334 -0.2355
43087SOL     OW31267   3.839   9.814   4.468 -0.2894  0.5053 -0.4022
43087SOL    HW131268   3.925   9.831   4.506  0.6010  0.1928 -2.1523
43087SOL    HW231269   3.818   9.895   4.420  0.2908 -0.3356 -2.1576
43088SOL     OW31270   7.035   7.135   2.057 -0.0623 -0.5673  0.6846
43088SOL    HW131271   7.050   7.196   2.130 -0.4506 -0.9066  1.0519
43088SOL    HW231272   7.120   7.127   2.014 -0.4502  1.9966 -0.7710
43089SOL     OW31273   5.466   5.959   2.386  0.7381  0.1041  0.1497
43089SOL    HW131274   5.493   6.004   2.306 -0.3612 -0.7402 -0.7284
43089SOL    HW231275   5.380   5.923   2.366  0.2774  0.1754  1.8458
43090SOL     OW31276   6.854   1.761   7.038  0.0852 -0.1232  0.0105
43090SOL    HW131277   6.769   1.761   7.081  0.6070  0.7019  1.1039
43090SOL    HW231278   6.901   1.834   7.078  1.4325 -0.7761 -0.3082
43091SOL     OW31279   6.702   2.377   1.212 -0.0674 -0.9019  0.6001
43091SOL    HW131280   6.729   2.468   1.221 -1.6227 -0.2082 -1.0948
43091SOL    HW231281   6.656   2.356   1.293  0.4004 -0.2186  1.0412
43092SOL     OW31282   6.560   2.268   2.517  0.1759 -0.3645  0.6032
43092SOL    HW131283   6.605   2.342   2.556 -0.0703  0.7659 -1.1304
43092SOL    HW231284   6.626   2.225   2.462  0.0296 -0.7707  0.7368
43093SOL     OW31285  10.303   8.781   6.581 -0.0026  0.0766 -0.0693
43093SOL    HW131286  10.289   8.741   6.496  0.9791 -1.6508  0.5393
43093SOL    HW231287  10.235   8.745   6.637  0.6891 -0.5431  0.4018
43094SOL     OW31288   0.264  10.634  10.371  0.0996 -0.3502 -0.0332
43094SOL    HW131289   0.315  10.554  10.382 -0.7549 -0.8519  0.4550
43094SOL    HW231290   0.304  10.697  10.431  0.8171 -0.3810 -0.4664
43095SOL     OW31291   3.499   9.166  10.458  0.4266  0.7268 -0.4963
43095SOL    HW131292   3.451   9.191  10.537  0.7384 -0.6396  0.1682
43095SOL    HW231293   3.453   9.087  10.427  1.6542 -0.0541 -0.3791
43096SOL     OW31294   6.112   4.675   4.609  0.0482  0.1954 -0.0641
43096SOL    HW131295   6.072   4.590   4.628  0.5115 -0.0776 -0.3083
43096SOL    HW231296   6.070   4.735   4.671  0.7890 -0.4813  1.1236
43097SOL     OW31297   1.069  10.191   5.653 -0.5622  0.1863  0.0382
43097SOL    HW131298   1.097  10.101   5.639 -2.0404 -0.1121 -1.4002
43097SOL    HW231299   1.080  10.206   5.747 -0.3475 -1.5119  0.3137
43098SOL     OW31300   5.678   9.200   2.874  0.2857  0.0745  0.7039
43098SOL    HW131301   5.720   9.275   2.915  1.0437 -0.9444  1.8416
43098SOL    HW231302   5.701   9.207   2.781  0.9698  0.8194  0.9214
43099SOL     OW31303   6.624   2.776   2.047 -0.8856 -0.2045 -0.2853
43099SOL    HW131304   6.602   2.683   2.055  2.2210 -1.0586 -0.4415
43099SOL    HW231305   6.676   2.782   1.967  3.2792  0.6021  2.2053
43100SOL     OW31306   5.687   2.956  11.260 -0.8315  0.4864 -0.4806
43100SOL    HW131307   5.717   3.046  11.273 -1.6752  1.0511 -2.0686
43100SOL    HW231308   5.644   2.932  11.342  1.3488  0.6820  0.7793
43101SOL     OW31309  10.850   7.510   3.992  0.0885 -0.1241  0.5633
43101SOL    HW131310  10.868   7.586   4.046 -2.0672 -0.6716  2.2036
43101SOL    HW231311  10.794   7.543   3.921  2.3399  0.4577 -1.0627
43102SOL     OW31312   4.984   1.935   9.473  0.7147 -0.1860  0.2601
43102SOL    HW131313   4.985   1.999   9.401  0.8334 -1.0254 -0.4972
43102SOL    HW231314   4.910   1.961   9.528  0.4771  0.3220 -0.2956
43103SOL     OW31315   2.615   7.945   2.925  0.4745  0.1329  0.0533
43103SOL    HW131316   2.591   8.026   2.971 -0.5569 -2.5204  4.7766
43103SOL    HW231317   2.540   7.927   2.869  0.3277  1.8908 -0.3968
43104SOL     OW31318   1.463   2.137   0.027 -0.6232 -0.3609  0.0656
43104SOL    HW131319   1.394   2.102   0.083  0.9079 -2.4484  0.7863
43104SOL    HW231320   1.543   2.129   0.079  0.5968 -0.6976 -1.7585
43105SOL     OW31321   0.155   3.858   0.847  0.1852 -0.1121  0.5653
43105SOL    HW131322   0.157   3.819   0.760 -0.0782 -1.1980  1.0211
43105SOL    HW231323   0.062   3.870   0.866  0.1883 -0.8054  1.0733
43106SOL     OW31324   8.334   9.198  11.004  0.3786 -0.1269  0.3444
43106SOL    HW131325   8.283   9.262  10.955 -0.6371 -0.1119  1.3768
43106SOL    HW231326   8.409   9.247  11.037 -0.6147  0.6844  1.5023
43107SOL     OW31327  10.014   6.261   4.985 -0.0552  0.3714 -0.3687
43107SOL    HW131328   9.982   6.256   4.895  3.1300  1.9315 -1.7597
43107SOL    HW231329   9.981   6.344   5.018 -0.0787  0.4630 -0.6232
43108SOL     OW31330   2.528   7.707   8.223 -0.2754 -0.1148 -0.1915
43108SOL    HW131331   2.547   7.660   8.142  0.9957 -1.2947  0.7531
43108SOL    HW231332   2.572   7.656   8.292  0.8335  2.2025  0.9413
43109SOL     OW31333   2.261  10.982   4.970 -0.1159 -0.1887 -0.1457
43109SOL    HW131334   2.348  10.949   4.992 -0.5302 -1.1016  0.1618
43109SOL    HW231335   2.273  11.077   4.962  0.5953 -0.0983  1.4610
43110SOL     OW31336   3.988   1.142   9.248  0.1277  0.0659  0.4984
43110SOL    HW131337   4.081   1.166   9.249 -0.1785  1.3553  1.4096
43110SOL    HW231338   3.980   1.074   9.314  0.6195 -0.9473 -0.4585
43111SOL     OW31339   4.820   7.907   3.555  0.1874 -0.2005 -0.0288
43111SOL    HW131340   4.885   7.933   3.620 -0.3301  0.4427  0.2392
43111SOL    HW231341   4.858   7.830   3.513  0.7057 -0.3938  0.7641
43112SOL     OW31342   4.801   4.934   7.896 -0.0330  0.1964  0.2068
43112SOL    HW131343   4.893   4.908   7.894  0.4259  1.7820 -0.4941
43112SOL    HW231344   4.764   4.899   7.814  0.4468  1.2171 -0.4669
43113SOL     OW31345   2.299   6.071   3.280  0.0411  0.1840 -0.6317
43113SOL    HW131346   2.236   6.016   3.235  1.8724 -1.9545 -0.7446
43113SOL    HW231347   2.351   6.011   3.333  1.0335  2.0306  0.6152
43114SOL     OW31348   2.392   7.225   7.851 -0.3174 -0.2719  0.6012
43114SOL    HW131349   2.451   7.288   7.811  1.0932 -0.8496  1.6902
43114SOL    HW231350   2.376   7.259   7.939 -0.2734 -0.9623  0.8813
43115SOL     OW31351   5.775   3.446   2.776 -0.6477 -0.0006  0.0429
43115SOL    HW131352   5.797   3.353   2.787 -1.6646 -0.2006  0.4771
43115SOL    HW231353   5.850   3.482   2.728 -0.7711 -1.2873 -1.1804
43116SOL     OW31354   6.434   9.872   2.679  0.5141 -0.3150  0.3811
43116SOL    HW131355   6.502   9.933   2.650 -0.8759  1.2901  0.3897
43116SOL    HW231356   6.391   9.917   2.751 -1.2242 -0.8371 -0.2833
43117SOL     OW31357   6.506   9.497   3.122 -0.0168  0.4243  0.0212
43117SOL    HW131358   6.429   9.554   3.127  0.3387  0.8699  0.4357
43117SOL    HW231359   6.496   9.438   3.198 -0.9518 -0.8091 -1.0016
43118SOL     OW31360   8.433   3.149   0.883 -0.4140 -0.5339 -0.1833
43118SOL    HW131361   8.527   3.151   0.904 -0.7474 -0.0162  1.4075
43118SOL    HW231362   8.421   3.219   0.820  0.3170 -0.8133 -0.6471
43119SOL     OW31363   9.812   4.523   7.669  0.5861  0.2648 -0.0437
43119SOL    HW131364   9.805   4.572   7.751  0.2473  2.1581 -1.1454
43119SOL    HW231365   9.723   4.491   7.652  0.0110  2.1491 -0.9422
43120SOL     OW31366   1.571   2.900   3.510 -0.0456  0.4261 -0.2533
43120SOL    HW131367   1.664   2.882   3.497  0.0534  0.7637 -0.0258
43120SOL    HW231368   1.566   2.995   3.518 -0.2963  0.3473  0.6122
43121SOL     OW31369   5.188   2.224   2.308 -0.1707 -0.6436  0.4832
43121SOL    HW131370   5.238   2.213   2.388 -0.0719 -2.6979  0.1873
43121SOL    HW231371   5.213   2.311   2.275  0.0323  0.0908  2.4664
43122SOL     OW31372   1.174   3.616   1.655  0.0562  0.5510  0.1293
43122SOL    HW131373   1.264   3.635   1.682  0.7822 -1.4934 -0.6462
43122SOL    HW231374   1.143   3.552   1.720  0.1498 -0.7786 -1.0866
43123SOL     OW31375   7.324   1.524   4.069 -0.3039  0.3280 -0.1897
43123SOL    HW131376   7.398   1.503   4.013 -0.4437 -0.9364  0.0669
43123SOL    HW231377   7.262   1.452   4.057 -0.4311  0.1188  1.4027
43124SOL     OW31378   0.919   9.624   9.062 -0.3255 -0.3169 -0.7846
43124SOL    HW131379   0.988   9.575   9.107 -1.6304  0.3907  2.2280
43124SOL    HW231380   0.911   9.581   8.977  3.1783 -0.9588 -0.9457
43125SOL     OW31381   9.224   3.607   9.237  0.0414 -0.5298  0.5556
43125SOL    HW131382   9.193   3.574   9.321 -0.0630  0.4773  0.9206
43125SOL    HW231383   9.175   3.688   9.223  1.2240  0.1665  0.3011
43126SOL     OW31384   3.372   6.925  10.080  0.0404  0.4524 -0.3131
43126SOL    HW131385   3.404   6.904   9.992 -0.7769  1.6565 -0.9432
43126SOL    HW231386   3.396   7.017  10.092  1.1891 -0.0234  1.2326
43127SOL     OW31387   1.736   8.988  10.052 -0.0385 -0.5117  0.1916
43127SOL    HW131388   1.791   8.992   9.973  1.4216 -1.1983  1.1278
43127SOL    HW231389   1.717   9.080  10.071  0.3750 -0.2821 -0.4346
43128SOL     OW31390   3.995   0.392   0.307  0.7889  0.0147 -0.3122
43128SOL    HW131391   3.995   0.326   0.376  0.4846 -0.5627 -0.8486
43128SOL    HW231392   3.948   0.466   0.344  1.7432  0.2119  0.5488
43129SOL     OW31393   3.581   0.728   0.400  0.6157  0.6720  0.0177
43129SOL    HW131394   3.577   0.798   0.466 -0.4132  2.1008 -1.4842
43129SOL    HW231395   3.610   0.651   0.449  1.0408  1.9520  1.8946
43130SOL     OW31396   6.514   0.058   1.787  0.6251 -0.4127 -0.5486
43130SOL    HW131397   6.523   0.112   1.708  1.6412 -0.3273 -0.3867
43130SOL    HW231398   6.426   0.022   1.782 -0.1005  1.3091 -0.6419
43131SOL     OW31399   6.727  10.585   0.809 -0.2157  0.6897 -0.1890
43131SOL    HW131400   6.814  10.623   0.816  0.2098 -0.0055 -1.3007
43131SOL    HW231401   6.717  10.566   0.715 -0.7018 -1.1481  0.1825
43132SOL     OW31402   9.679   8.635   9.796 -0.2593 -0.2578  0.1725
43132SOL    HW131403   9.745   8.590   9.744 -0.5961 -0.5539 -0.0029
43132SOL    HW231404   9.727   8.667   9.873  0.1254 -0.2946 -0.0476
43133SOL     OW31405   6.065   6.943   1.223  0.2316  0.3903 -1.0328
43133SOL    HW131406   6.013   6.998   1.165 -0.7761  1.0138  0.3981
43133SOL    HW231407   6.081   6.863   1.173 -3.7960 -0.6894 -0.9484
43134SOL     OW31408   9.724   1.834   9.163 -0.1893  0.4550 -0.4052
43134SOL    HW131409   9.737   1.904   9.227  0.7200  0.7995 -0.9444
43134SOL    HW231410   9.803   1.781   9.170 -0.7197 -0.3281 -0.2500
43135SOL     OW31411   8.495   5.432   1.808  0.6096 -0.3550 -0.2908
43135SOL    HW131412   8.479   5.522   1.837 -0.6983 -0.4156 -0.7375
43135SOL    HW231413   8.589   5.421   1.816  0.6656  0.6752  0.8566
43136SOL     OW31414   5.968   9.157   2.036 -0.0667  0.5539 -0.1952
43136SOL    HW131415   5.952   9.196   1.950  0.8052  0.5093 -0.3904
43136SOL    HW231416   6.033   9.088   2.020 -2.4808 -1.9305 -0.0724
43137SOL     OW31417   3.945   2.818  10.212  0.1475 -0.1462 -0.6054
43137SOL    HW131418   3.990   2.899  10.233 -0.6119  0.5271 -1.5022
43137SOL    HW231419   3.965   2.801  10.120 -1.2038  0.0540 -0.9626
43138SOL     OW31420   5.174  10.694   4.783  0.2751 -0.0730  0.1931
43138SOL    HW131421   5.238  10.744   4.834  1.0114  1.8677 -2.4257
43138SOL    HW231422   5.089  10.725   4.816  0.7264  0.8139  0.5680
43139SOL     OW31423   4.904   9.479   6.472 -0.3244  0.6831  0.4844
43139SOL    HW131424   4.977   9.440   6.424 -0.5862  0.1788  0.4891
43139SOL    HW231425   4.931   9.569   6.487 -1.0759  1.5195 -2.4440
43140SOL     OW31426  10.221  10.007   2.958  0.4623  0.4083  0.8998
43140SOL    HW131427  10.286  10.070   2.926  1.0224 -0.1241  0.9795
43140SOL    HW231428  10.265   9.923   2.955 -0.0040  0.1282  1.5837
43141SOL     OW31429   2.727   1.547   8.236 -0.2028 -0.4040  0.2476
43141SOL    HW131430   2.648   1.594   8.263  1.1897  1.7604  0.8344
43141SOL    HW231431   2.797   1.584   8.290  1.2605 -2.1702 -0.3193
43142SOL     OW31432   0.341   7.851   6.203 -0.7877  0.0086  0.6077
43142SOL    HW131433   0.302   7.843   6.290 -0.2881 -0.9819  0.7545
43142SOL    HW231434   0.313   7.772   6.157  0.5619 -0.4485  0.5318
43143SOL     OW31435   4.951   6.157   1.557 -0.3805  0.1047  0.5448
43143SOL    HW131436   4.935   6.245   1.524  0.8443  0.6073  1.2112
43143SOL    HW231437   4.905   6.154   1.641 -0.1831  0.2168  0.6582
43144SOL     OW31438   9.209   6.859   8.376 -0.3409 -0.1691 -0.1445
43144SOL    HW131439   9.116   6.840   8.377 -0.3710 -0.0152  0.5484
43144SOL    HW231440   9.240   6.833   8.463 -0.1073  1.5557  0.3279
43145SOL     OW31441   6.164   9.324   5.282  0.6439  0.7170 -0.4086
43145SOL    HW131442   6.189   9.266   5.210  0.2948 -0.4168  0.3621
43145SOL    HW231443   6.072   9.343   5.267  0.2618 -0.4521  0.3418
43146SOL     OW31444   1.320  10.465   7.256 -0.4117 -0.1844 -0.2435
43146SOL    HW131445   1.356  10.395   7.202 -0.2864 -1.5051  1.4530
43146SOL    HW231446   1.363  10.455   7.341 -1.0845  1.3766  0.3277
43147SOL     OW31447   4.581   6.758   7.327  0.3623  0.2383 -0.7880
43147SOL    HW131448   4.657   6.810   7.353  1.0881 -0.8772 -0.6591
43147SOL    HW231449   4.586   6.754   7.231  2.9606 -3.4131 -0.6699
43148SOL     OW31450   6.448   1.190   0.388 -0.3005  0.2014 -0.2385
43148SOL    HW131451   6.391   1.136   0.442 -0.5249 -0.7494 -1.3957
43148SOL    HW231452   6.392   1.261   0.357 -0.6592 -0.2667 -0.6891
43149SOL     OW31453   1.479   7.234   2.854  0.0992 -0.1735 -0.1106
43149SOL    HW131454   1.389   7.250   2.882  0.1348 -0.1809  0.0056
43149SOL    HW231455   1.498   7.145   2.884 -0.0249 -0.3548 -0.5636
43150SOL     OW31456   8.676   5.729   6.695 -0.1179  0.5111  0.3136
43150SOL    HW131457   8.598   5.740   6.749  0.7051  1.4830  1.3462
43150SOL    HW231458   8.745   5.776   6.742  0.8717  0.5020 -1.0640
43151SOL     OW31459  10.055   9.557   0.609 -0.5450 -0.0826 -0.4938
43151SOL    HW131460   9.985   9.555   0.544 -0.4161 -1.0517 -0.6151
43151SOL    HW231461  10.022   9.613   0.679  0.5484  3.7497 -2.7589
43152SOL     OW31462   5.110   0.681   0.754 -0.1557 -0.1083 -0.1876
43152SOL    HW131463   5.065   0.687   0.669  0.1509 -2.3138 -0.5575
43152SOL    HW231464   5.110   0.587   0.774  2.1615  0.0812  0.9614
43153SOL     OW31465   5.364   8.211   9.281 -0.5646  0.3674  0.1129
43153SOL    HW131466   5.380   8.198   9.188  1.3808  2.1872  0.1167
43153SOL    HW231467   5.299   8.282   9.284 -0.5549  0.3753  0.1330
43154SOL     OW31468   1.157   3.743  10.370 -0.1682  0.0681 -0.1014
43154SOL    HW131469   1.165   3.668  10.312  0.2445  1.3758 -1.8107
43154SOL    HW231470   1.101   3.804  10.323 -1.8933  0.2062  1.9832
43155SOL     OW31471   9.272   4.350  10.624 -1.0489 -0.6926 -0.9133
43155SOL    HW131472   9.323   4.339  10.704 -1.5771 -2.0913 -0.7506
43155SOL    HW231473   9.286   4.442  10.599  0.4013 -0.6743 -0.1140
43156SOL     OW31474   3.392  10.478   9.173 -0.2974  0.1880  0.1499
43156SOL    HW131475   3.456  10.529   9.123 -0.8947 -1.5490 -2.6294
43156SOL    HW231476   3.339  10.434   9.106 -3.1842  0.0392  2.3499
43157SOL     OW31477   4.709   9.841   1.359  0.4353  0.3274 -0.3765
43157SOL    HW131478   4.685   9.813   1.448  1.5295  0.9005  0.1176
43157SOL    HW231479   4.776   9.779   1.332  1.7904  1.5220  0.1364
43158SOL     OW31480   0.340   0.804   8.802 -0.2850 -0.7115 -0.5741
43158SOL    HW131481   0.421   0.771   8.763  0.0039  2.0341 -2.6435
43158SOL    HW231482   0.275   0.735   8.784  1.3763 -2.7073  0.6269
43159SOL     OW31483   2.532   3.510   0.639  0.5525 -0.0070  0.0592
43159SOL    HW131484   2.548   3.436   0.698 -4.1915  0.6502  2.6154
43159SOL    HW231485   2.500   3.470   0.558  0.5260 -0.8166  0.4602
43160SOL     OW31486   4.810   2.920   0.701  0.0649  0.0304  0.2418
43160SOL    HW131487   4.805   3.014   0.719  0.1673 -0.4050  2.9489
43160SOL    HW231488   4.883   2.911   0.641 -1.3645  1.8456 -1.9479
43161SOL     OW31489   9.507   6.828  10.043  0.3548  0.0626 -0.1949
43161SOL    HW131490   9.484   6.756  10.102 -1.1300  1.1979  0.6892
43161SOL    HW231491   9.594   6.805  10.010  1.3200 -0.5706  2.5084
43162SOL     OW31492  11.107   6.299  10.332  0.7465  0.1508  0.0847
43162SOL    HW131493  11.088   6.206  10.324 -1.7560  0.6647 -0.8120
43162SOL    HW231494  11.164   6.318  10.258 -1.0206 -0.1830 -1.4354
43163SOL     OW31495  11.016   8.659   6.922  0.0951 -0.2350  0.3074
43163SOL    HW131496  11.068   8.727   6.966  1.3714  0.5536 -2.2627
43163SOL    HW231497  10.958   8.707   6.864 -1.5704 -1.2543  1.0636
43164SOL     OW31498   3.918   3.997   8.219  0.3639 -0.0817  0.2993
43164SOL    HW131499   3.987   4.032   8.161 -0.5690  1.4971  0.0902
43164SOL    HW231500   3.941   3.905   8.230  2.4611  0.3716  0.1549
43165SOL     OW31501   9.783   0.637   3.121  0.2520 -0.2767 -0.2072
43165SOL    HW131502   9.783   0.671   3.210  0.9848  0.2611 -0.4100
43165SOL    HW231503   9.847   0.566   3.122  0.7891  0.1974 -0.4760
43166SOL     OW31504   7.835   3.848   8.593  0.2172  0.2894 -0.3280
43166SOL    HW131505   7.862   3.938   8.614 -0.8300  0.7611 -0.9291
43166SOL    HW231506   7.768   3.827   8.658  1.0517 -0.3871  0.3378
43167SOL     OW31507   3.585   1.601   6.178  0.2120  0.1265 -0.2141
43167SOL    HW131508   3.536   1.664   6.125  0.6804  0.6028 -0.0817
43167SOL    HW231509   3.592   1.640   6.264  0.4193 -0.1485 -0.1008
43168SOL     OW31510   6.666   5.546   2.531  0.6320 -0.0299 -0.5562
43168SOL    HW131511   6.611   5.487   2.582  1.5527 -1.2830 -0.9809
43168SOL    HW231512   6.612   5.625   2.519 -0.4896 -0.6487  0.2903
43169SOL     OW31513   1.752   4.015   6.492  0.0026 -0.2814  0.7640
43169SOL    HW131514   1.722   4.086   6.435 -0.5171 -1.2414 -0.1928
43169SOL    HW231515   1.731   3.935   6.444 -1.5897 -1.1976  2.8618
43170SOL     OW31516   2.089  10.396   8.691  0.0736 -0.1091 -0.6160
43170SOL    HW131517   2.020  10.453   8.657 -0.2797 -0.8033 -1.1002
43170SOL    HW231518   2.170  10.434   8.660  0.0646  1.6982  1.3742
43171SOL     OW31519   2.941   0.674   3.315 -0.0934 -0.1570 -0.2389
43171SOL    HW131520   2.874   0.611   3.340 -1.5162  0.6957 -1.7173
43171SOL    HW231521   2.893   0.756   3.301  1.0488  0.2277 -2.3726
43172SOL     OW31522   5.609   8.630   1.823  0.4632  0.4076  0.1789
43172SOL    HW131523   5.705   8.628   1.820  0.4992  1.9829 -0.4724
43172SOL    HW231524   5.588   8.618   1.916  1.3165  0.6034  0.4054
43173SOL     OW31525   5.467   2.595   9.214  0.0223  0.1072 -0.2270
43173SOL    HW131526   5.381   2.620   9.245 -0.4607 -1.8846  0.1736
43173SOL    HW231527   5.454   2.509   9.173  2.2111 -1.6220  2.3365
43174SOL     OW31528   9.385   4.585   7.181 -0.2888 -0.3180 -0.1653
43174SOL    HW131529   9.445   4.632   7.240 -1.0568  0.8566 -0.2882
43174SOL    HW231530   9.339   4.654   7.134 -0.6068 -1.2283 -1.2285
43175SOL     OW31531  10.530   4.094  11.195  0.2890 -0.7335  0.3274
43175SOL    HW131532  10.461   4.032  11.218  0.2489 -0.6807  0.3504
43175SOL    HW231533  10.483   4.169  11.158  0.4017 -1.2931 -1.0418
43176SOL     OW31534   4.380  10.410   9.242  0.0223 -0.1759  0.6034
43176SOL    HW131535   4.329  10.488   9.220  2.0482  0.9649 -0.3768
43176SOL    HW231536   4.441  10.440   9.310  0.2155 -1.1635  0.8813
43177SOL     OW31537   3.890   2.747   8.907 -0.1553  0.0404  0.2447
43177SOL    HW131538   3.883   2.726   8.814  0.9837 -0.9892  0.3681
43177SOL    HW231539   3.970   2.702   8.936 -0.4313  0.4326  1.6959
43178SOL     OW31540  10.246  10.103   3.697 -0.0305 -0.3904  0.4446
43178SOL    HW131541  10.250  10.051   3.616  2.2569 -0.4260  0.5035
43178SOL    HW231542  10.167  10.072   3.741 -0.9915 -0.8280 -1.4674
43179SOL     OW31543   0.073   9.824  10.065  0.4834  0.3362  0.4208
43179SOL    HW131544  -0.011   9.845  10.106 -0.1113 -1.9182  0.5030
43179SOL    HW231545   0.082   9.730  10.078  4.6185  0.8761  3.4278
43180SOL     OW31546   4.191   1.214   0.747  0.1380 -0.3051  0.7152
43180SOL    HW131547   4.278   1.253   0.748 -0.3964  0.9521  0.4380
43180SOL    HW231548   4.131   1.288   0.758 -0.8776 -1.2189  1.5992
43181SOL     OW31549   0.010   8.205   9.734 -0.5142  0.0556  0.5414
43181SOL    HW131550   0.097   8.245   9.734 -0.0443 -0.9243  1.1941
43181SOL    HW231551  -0.050   8.279   9.741  0.1807  0.8662 -1.3796
43182SOL     OW31552   7.158   5.223  10.545  0.5695  0.1845  0.5415
43182SOL    HW131553   7.081   5.179  10.582 -0.1596  1.3272  0.4281
43182SOL    HW231554   7.163   5.306  10.592  1.0449  0.6223 -0.2539
43183SOL     OW31555   9.548   6.414   1.663 -0.2888  0.4896 -0.3133
43183SOL    HW131556   9.637   6.383   1.646  0.5301  2.0888  0.8239
43183SOL    HW231557   9.501   6.337   1.695  0.9642 -0.1420  0.0447
43184SOL     OW31558   1.836   5.554  10.882  0.2872  0.0180 -0.3464
43184SOL    HW131559   1.872   5.596  10.960  4.0454 -3.8455  0.3841
43184SOL    HW231560   1.783   5.481  10.916 -0.3796 -0.0500 -1.4684
43185SOL     OW31561  11.029   1.138   8.541  0.7261  0.7325  0.1845
43185SOL    HW131562  11.123   1.122   8.550  0.6522  0.7961  1.1744
43185SOL    HW231563  11.000   1.159   8.630 -0.4809 -0.6618  0.1421
43186SOL     OW31564   3.328   5.665   7.643 -0.0639 -0.7259  0.4289
43186SOL    HW131565   3.362   5.703   7.563 -0.3250 -1.4985 -0.0660
43186SOL    HW231566   3.351   5.727   7.712 -0.4792  0.2970 -0.3422
43187SOL     OW31567   4.810   9.174   4.581 -0.1314  0.5100  0.5558
43187SOL    HW131568   4.741   9.107   4.576 -0.0800  0.4784  0.2906
43187SOL    HW231569   4.836   9.188   4.491  2.8877 -2.2649  0.7994
43188SOL     OW31570   8.844   5.876   3.652  0.0598  0.5733 -0.9782
43188SOL    HW131571   8.753   5.849   3.658  0.3170 -0.3704 -1.1368
43188SOL    HW231572   8.843   5.954   3.596 -0.6746  0.7649 -0.7089
43189SOL     OW31573   6.825   0.676  11.093 -0.8594 -0.1162  0.1211
43189SOL    HW131574   6.915   0.651  11.116 -0.9097  0.1400  0.6072
43189SOL    HW231575   6.835   0.734  11.018 -0.7505 -1.8013 -1.2345
43190SOL     OW31576   4.648  10.412   3.547 -0.2987 -0.1133 -0.4967
43190SOL    HW131577   4.720  10.468   3.518 -1.1706  0.9324 -0.7530
43190SOL    HW231578   4.571  10.447   3.501 -2.0654  2.4245  3.8143
43191SOL     OW31579   3.795   9.547   8.694 -0.1495  0.4879 -0.2761
43191SOL    HW131580   3.827   9.515   8.610 -2.0033  0.2322 -0.9241
43191SOL    HW231581   3.871   9.588   8.735  0.7859  0.6116 -2.0672
43192SOL     OW31582   1.952   0.006   3.554 -0.6768 -1.0168  0.4600
43192SOL    HW131583   2.046   0.021   3.565 -0.3711 -2.3992 -0.0658
43192SOL    HW231584   1.926   0.066   3.484 -0.5464  0.5023  1.6495
43193SOL     OW31585   8.726   5.849   8.670  0.1173 -0.1387  0.0775
43193SOL    HW131586   8.715   5.836   8.764 -1.3880  0.4864  0.0116
43193SOL    HW231587   8.789   5.921   8.663 -1.3340  1.2433  0.6726
43194SOL     OW31588   0.396   5.035   7.981 -0.1801  0.5096  0.6400
43194SOL    HW131589   0.446   4.996   7.909  0.4532  0.7312  0.9461
43194SOL    HW231590   0.305   5.014   7.961  0.1227 -0.9908  0.7195
43195SOL     OW31591   8.974   2.125   5.517  0.4898  0.2403  0.4313
43195SOL    HW131592   8.963   2.177   5.438 -1.7600  1.9222  1.7453
43195SOL    HW231593   9.039   2.173   5.568  0.9712 -0.1402  0.1864
43196SOL     OW31594   1.585   0.178   4.046 -0.0635  0.1219 -0.0043
43196SOL    HW131595   1.667   0.130   4.053 -0.4854 -0.5387  0.6542
43196SOL    HW231596   1.605   0.254   3.992  0.8029 -0.4105 -0.4394
43197SOL     OW31597   7.448   9.682   8.133  0.9128  0.1005  0.4951
43197SOL    HW131598   7.461   9.641   8.047  0.9701  0.6044  0.2582
43197SOL    HW231599   7.435   9.609   8.192  1.1760 -0.2720  0.1067
43198SOL     OW31600   0.235   4.684   2.889  0.5306 -0.3641  0.3447
43198SOL    HW131601   0.294   4.662   2.817 -1.4831 -1.9914 -0.9419
43198SOL    HW231602   0.228   4.602   2.939 -1.2969 -0.5374 -0.1067
43199SOL     OW31603   5.891   2.038   5.799 -0.4364  0.4643  0.2910
43199SOL    HW131604   5.943   1.975   5.750  1.4172 -1.0224  3.8039
43199SOL    HW231605   5.819   1.987   5.835 -1.1930  1.2984  0.0208
43200SOL     OW31606  10.483   8.146   0.791  0.8162  0.3428  0.4111
43200SOL    HW131607  10.455   8.056   0.808 -1.3047  0.4858 -1.7827
43200SOL    HW231608  10.422   8.201   0.840  0.1794  0.5987 -0.6371
43201SOL     OW31609   2.086   8.878  10.910 -1.0230  0.1266 -0.1346
43201SOL    HW131610   1.993   8.858  10.897 -0.9536  1.0422 -2.7127
43201SOL    HW231611   2.130   8.831  10.838  0.2667  1.2216 -0.0933
43202SOL     OW31612   0.713   8.204   4.677 -0.7135 -0.4482  0.8484
43202SOL    HW131613   0.805   8.219   4.657 -0.1790 -0.2904  3.1084
43202SOL    HW231614   0.675   8.172   4.596  1.0318  0.7281 -0.4927
43203SOL     OW31615   7.999   6.604   7.007 -0.0298  0.3703  0.4140
43203SOL    HW131616   8.001   6.541   7.078  1.0746 -0.0249  0.0469
43203SOL    HW231617   7.939   6.672   7.037 -1.4183 -0.9460  0.7227
43204SOL     OW31618   2.963   9.549   9.804 -0.5811  0.1047 -0.0049
43204SOL    HW131619   3.013   9.631   9.808 -0.4139  0.0572 -1.0052
43204SOL    HW231620   2.875   9.573   9.834  0.2535 -0.0430  2.9197
43205SOL     OW31621   5.591  10.588   7.140  0.5568  0.1361 -0.2397
43205SOL    HW131622   5.560  10.499   7.158  1.4884  0.0222  0.8710
43205SOL    HW231623   5.532  10.620   7.072 -1.1638 -0.5496  0.8580
43206SOL     OW31624   4.232  10.171   4.801 -0.2642  0.1881 -0.0321
43206SOL    HW131625   4.279  10.112   4.743 -1.5694 -1.0274  0.1090
43206SOL    HW231626   4.241  10.132   4.888 -3.6888 -1.6084 -0.3363
43207SOL     OW31627  11.103   4.814   4.399  1.0202  0.4239  0.0941
43207SOL    HW131628  11.024   4.838   4.350  1.0069 -0.3197 -0.2609
43207SOL    HW231629  11.175   4.846   4.344  0.9804  0.7545  0.2297
43208SOL     OW31630   1.535  11.123   0.435  0.3659  0.2743  0.0826
43208SOL    HW131631   1.587  11.043   0.431  1.1940  0.6274  2.3341
43208SOL    HW231632   1.578  11.183   0.374 -0.3582 -0.9927 -1.7409
43209SOL     OW31633   4.328   4.702   7.557 -0.1532  0.6234 -0.1999
43209SOL    HW131634   4.357   4.632   7.498  3.8896  1.1392  0.8292
43209SOL    HW231635   4.274   4.658   7.622  2.2457 -1.7295  0.3986
43210SOL     OW31636   7.049   7.107   9.708 -0.2092 -0.5754  0.5830
43210SOL    HW131637   7.041   7.074   9.798 -0.8706 -0.3859  0.5967
43210SOL    HW231638   7.115   7.176   9.714 -0.8248 -0.0117  1.0844
43211SOL     OW31639   3.911   6.898   2.655 -0.7966  0.2113 -0.0769
43211SOL    HW131640   3.978   6.951   2.613  0.2849 -0.1940  1.0700
43211SOL    HW231641   3.888   6.832   2.590 -0.7805  0.9193 -0.8225
43212SOL     OW31642   2.541   7.786   6.183  0.1390  0.0480  0.4986
43212SOL    HW131643   2.530   7.854   6.116  1.0939 -1.3584 -1.1907
43212SOL    HW231644   2.636   7.780   6.193  0.0155  1.2548  3.1782
43213SOL     OW31645   4.386   8.647   3.420 -0.5675  0.5140 -0.2481
43213SOL    HW131646   4.474   8.643   3.459 -0.3867 -0.5985 -0.7335
43213SOL    HW231647   4.354   8.735   3.443  1.3470  1.6240 -1.5532
43214SOL     OW31648   7.331  10.824   7.367 -0.1614 -0.6567  0.5387
43214SOL    HW131649   7.327  10.890   7.436 -0.6418  0.7277 -0.7546
43214SOL    HW231650   7.399  10.763   7.395  1.1616  1.0760  1.2111
43215SOL     OW31651   7.122   2.311   5.679 -0.2416 -0.4489  0.8684
43215SOL    HW131652   7.033   2.347   5.683  0.2388  0.8467  0.4099
43215SOL    HW231653   7.154   2.318   5.769 -0.7128 -1.2177  1.0986
43216SOL     OW31654   2.661   0.739   5.537 -0.1577 -0.4658 -0.3844
43216SOL    HW131655   2.730   0.750   5.472 -1.9893  1.7971 -2.0961
43216SOL    HW231656   2.662   0.645   5.557  0.8110 -1.1872 -3.3417
43217SOL     OW31657   8.457   4.521   6.737  0.3346 -0.3681  0.2397
43217SOL    HW131658   8.394   4.543   6.668  2.0528  1.7898 -0.7908
43217SOL    HW231659   8.535   4.572   6.714  1.5666 -0.9182  2.8699
43218SOL     OW31660   4.391   9.947  10.770  0.1236  0.1436  0.7724
43218SOL    HW131661   4.300   9.970  10.787 -0.8115 -2.1987 -0.5074
43218SOL    HW231662   4.413   9.992  10.689 -0.2516 -0.0605  0.5542
43219SOL     OW31663   7.515   4.939   2.937  0.7166 -0.1456  0.1403
43219SOL    HW131664   7.450   4.877   2.968  0.2044 -2.0074 -3.9824
43219SOL    HW231665   7.469   5.023   2.935 -0.7376 -0.9191 -0.2240
43220SOL     OW31666   7.238   4.294   0.781  0.1494  0.2247 -0.3745
43220SOL    HW131667   7.181   4.340   0.841  0.1733  0.4086 -0.4936
43220SOL    HW231668   7.180   4.238   0.730 -0.1846  1.7857 -1.7972
43221SOL     OW31669   2.041   5.608   3.264  1.0907 -0.9366  0.0393
43221SOL    HW131670   1.966   5.652   3.302  0.2300 -2.5499  0.3065
43221SOL    HW231671   2.100   5.591   3.338  0.3020 -2.3598  0.3676
43222SOL     OW31672   2.530   4.585  10.686  0.5020 -0.1868  0.1091
43222SOL    HW131673   2.531   4.558  10.778 -1.6006 -0.7164  0.0336
43222SOL    HW231674   2.534   4.502  10.638 -1.8045 -0.2041 -0.1783
43223SOL     OW31675   3.811   9.137   6.966 -0.4449 -0.3011 -0.1057
43223SOL    HW131676   3.800   9.057   7.018 -0.2884  0.7849  1.6986
43223SOL    HW231677   3.739   9.135   6.903  0.2760 -2.4418 -0.9501
43224SOL     OW31678   1.431   4.802   0.095 -0.0549  0.3604  0.4936
43224SOL    HW131679   1.345   4.790   0.054  0.3280  0.6696 -0.4174
43224SOL    HW231680   1.470   4.875   0.048  0.6490  0.3272  1.0139
43225SOL     OW31681   5.405  10.734  11.020  0.6101 -0.2723  0.3523
43225SOL    HW131682   5.418  10.653  10.970 -0.8160 -0.6659  0.5756
43225SOL    HW231683   5.416  10.804  10.956  0.2480 -0.7124 -0.2008
43226SOL     OW31684   7.712   8.653   6.789  0.6973 -0.0445  0.2863
43226SOL    HW131685   7.670   8.589   6.732  0.4313  0.7208 -0.4018
43226SOL    HW231686   7.803   8.624   6.795  0.7176 -0.1639 -0.4913
43227SOL     OW31687   3.732   1.556   9.381 -0.0900 -0.5260  0.1283
43227SOL    HW131688   3.643   1.578   9.409  0.0889 -0.3207  0.5305
43227SOL    HW231689   3.778   1.640   9.378 -0.6523 -0.2064 -2.7621
43228SOL     OW31690  10.961   4.749   8.833 -0.7793 -0.2673 -0.4296
43228SOL    HW131691  11.015   4.683   8.877 -0.2873  0.3833 -0.0418
43228SOL    HW231692  10.875   4.707   8.822 -0.3617 -1.1096 -0.5444
43229SOL     OW31693   5.002   8.642   8.278  0.0628 -0.1747 -0.7233
43229SOL    HW131694   4.984   8.554   8.244 -1.3954  0.8246 -2.8022
43229SOL    HW231695   5.033   8.691   8.202 -0.8536  1.5328 -0.0590
43230SOL     OW31696   1.066   7.453   2.158 -0.3726  0.0574 -0.3045
43230SOL    HW131697   1.121   7.436   2.082  0.5947  0.6184  0.2445
43230SOL    HW231698   1.004   7.380   2.160 -0.1604 -0.1659 -1.3951
43231SOL     OW31699   7.649   2.864   3.451 -0.0654 -0.0303  0.2304
43231SOL    HW131700   7.740   2.884   3.475 -0.5291  0.0124  2.1283
43231SOL    HW231701   7.614   2.947   3.419 -0.3423  0.8788  2.6676
43232SOL     OW31702  10.058   6.419   3.088  0.8065 -0.1798  0.2681
43232SOL    HW131703   9.986   6.386   3.142  0.0173 -0.1563 -0.7329
43232SOL    HW231704  10.099   6.486   3.142 -0.5212  0.4702  0.5143
43233SOL     OW31705   6.979   8.037   4.092 -0.2720 -0.7578 -0.2228
43233SOL    HW131706   6.969   7.947   4.061 -2.7964 -0.8556  0.6444
43233SOL    HW231707   7.016   8.029   4.179 -1.9784 -1.1248  0.5123
43234SOL     OW31708   1.542   1.972  10.641  0.1771 -0.4129  0.2555
43234SOL    HW131709   1.526   2.011  10.727 -0.2376  0.1663 -0.0813
43234SOL    HW231710   1.490   1.892  10.642  0.1782 -0.4113  0.5457
43235SOL     OW31711   3.294   8.257   1.519 -1.0603 -0.3769 -0.4102
43235SOL    HW131712   3.338   8.200   1.582  0.5698 -0.9208 -1.9634
43235SOL    HW231713   3.302   8.345   1.557 -0.3028 -0.7200  0.2531
43236SOL     OW31714   5.313   1.172   1.525  0.6056 -0.7947  0.3903
43236SOL    HW131715   5.393   1.123   1.544  0.3012 -0.9917  1.1545
43236SOL    HW231716   5.242   1.115   1.552  0.2602  0.8934  3.5062
43237SOL     OW31717   3.866   7.453   9.315 -0.0201  0.2371 -0.2731
43237SOL    HW131718   3.856   7.517   9.245 -0.8638  0.5933  0.1514
43237SOL    HW231719   3.840   7.501   9.394 -1.6465 -0.8998 -0.0733
43238SOL     OW31720   4.062   5.728   6.625  0.6992 -0.3206 -0.4886
43238SOL    HW131721   4.043   5.638   6.602 -0.8751 -0.1041 -0.1603
43238SOL    HW231722   4.146   5.724   6.672  0.8850 -1.5319 -0.8973
43239SOL     OW31723   0.854   8.935   4.924 -0.1589  0.2490 -0.0684
43239SOL    HW131724   0.808   9.003   4.875 -1.7217  0.0348  1.0094
43239SOL    HW231725   0.894   8.981   4.998 -0.5004  0.1379  0.1911
43240SOL     OW31726   8.066   7.463   5.259  0.5797 -0.5826  0.1592
43240SOL    HW131727   8.037   7.511   5.337 -0.6155 -0.7195 -0.1752
43240SOL    HW231728   8.086   7.375   5.291  2.5835  0.0448  0.7382
43241SOL     OW31729   9.849  10.764   2.795  0.4259 -0.0160  0.3557
43241SOL    HW131730   9.867  10.730   2.708  0.0011  0.3520  0.1179
43241SOL    HW231731   9.772  10.716   2.825  0.1773  0.3171  0.2573
43242SOL     OW31732   4.664   8.712   6.076 -0.0694  0.0818 -0.7742
43242SOL    HW131733   4.715   8.716   6.157  0.5924  0.8008 -1.2047
43242SOL    HW231734   4.709   8.772   6.017 -1.0379  0.2084 -1.4019
43243SOL     OW31735   1.076   8.868   3.997  0.2424 -0.5497 -0.1655
43243SOL    HW131736   1.127   8.848   3.919 -0.6462  0.3276 -1.0075
43243SOL    HW231737   1.139   8.867   4.068  1.1391 -1.0151 -0.9441
43244SOL     OW31738   3.542   9.234   0.857  0.0256  0.0450  0.3057
43244SOL    HW131739   3.590   9.248   0.938  0.3751 -1.0685  0.3157
43244SOL    HW231740   3.595   9.276   0.789  1.5043 -1.8609  0.1914
43245SOL     OW31741  11.041  11.070  11.099 -0.2901 -0.0075 -0.0573
43245SOL    HW131742  11.082  11.148  11.061  1.4410 -0.9066 -0.1309
43245SOL    HW231743  11.052  11.002  11.031 -0.2381 -0.7480  0.6779
43246SOL     OW31744   6.943  11.031   5.728  0.0902 -0.1344  1.0491
43246SOL    HW131745   6.952  11.055   5.636  2.3460  3.2396  1.9601
43246SOL    HW231746   6.849  11.032   5.745 -0.3964 -1.1704 -1.2216
43247SOL     OW31747   3.017   4.675   5.826  0.6945 -0.6200 -0.3098
43247SOL    HW131748   2.998   4.600   5.881  1.5561  0.8695  2.2147
43247SOL    HW231749   3.113   4.678   5.822  0.6539 -0.9018 -2.2695
43248SOL     OW31750   8.583   5.506   1.298  0.2102  0.3318 -0.2064
43248SOL    HW131751   8.622   5.591   1.318 -0.8559  1.0298 -0.9817
43248SOL    HW231752   8.502   5.527   1.253  0.0220 -1.1133 -0.5913
43249SOL     OW31753   4.505   4.844   3.263  0.3051 -0.2848 -0.3283
43249SOL    HW131754   4.506   4.748   3.272 -0.7363 -0.4328 -1.4512
43249SOL    HW231755   4.535   4.877   3.348 -0.9331 -1.5831  0.6605
43250SOL     OW31756   0.015   9.630   7.259  0.1942  0.0454 -0.0628
43250SOL    HW131757  -0.028   9.700   7.308 -0.2570  0.3296 -0.8352
43250SOL    HW231758   0.097   9.669   7.229 -0.3643  0.4940 -1.0699
43251SOL     OW31759   2.917   6.079   0.300 -0.3911 -0.5590 -0.1676
43251SOL    HW131760   2.912   6.056   0.208 -0.9557 -1.3371  0.0549
43251SOL    HW231761   2.962   6.005   0.341 -0.9384 -0.6306  0.3209
43252SOL     OW31762   8.090   2.476   0.737  0.0371  0.4200 -0.6494
43252SOL    HW131763   8.047   2.522   0.809 -0.7725  1.8709 -2.0055
43252SOL    HW231764   8.148   2.541   0.698  0.4720 -0.3472 -1.3112
43253SOL     OW31765   5.319   0.719  11.101 -0.2622 -0.3517 -0.1096
43253SOL    HW131766   5.240   0.706  11.050 -0.6406 -2.6658  0.9358
43253SOL    HW231767   5.390   0.720  11.036 -0.8915 -1.3880 -0.8392
43254SOL     OW31768  11.267   7.038   5.631 -0.1073  0.0372 -0.5965
43254SOL    HW131769  11.324   7.102   5.674 -0.2840  0.1140 -0.4805
43254SOL    HW231770  11.327   6.986   5.578  0.2324 -0.6160  0.4061
43255SOL     OW31771   1.563  10.966   8.544  0.4065  0.0276 -0.0191
43255SOL    HW131772   1.505  11.018   8.600  0.0625 -0.6375  0.2658
43255SOL    HW231773   1.651  10.983   8.577  0.1517 -0.9062  1.2218
43256SOL     OW31774   6.953   6.774   1.117  0.7976  0.3973  0.6932
43256SOL    HW131775   6.899   6.834   1.167  0.4678 -0.9245  2.0154
43256SOL    HW231776   6.982   6.708   1.181  3.7839  0.8715  0.0180
43257SOL     OW31777   2.218   2.966   7.342 -0.2791 -0.3506 -0.1232
43257SOL    HW131778   2.200   2.936   7.431  0.0109  1.8680  0.7533
43257SOL    HW231779   2.311   2.989   7.343 -0.6587  1.3334 -0.4315
43258SOL     OW31780   3.964   5.222   5.327 -0.0692 -0.3786 -0.1373
43258SOL    HW131781   3.959   5.156   5.258  1.0749 -0.1985 -0.4111
43258SOL    HW231782   4.046   5.268   5.311  0.0388 -0.0834  1.1152
43259SOL     OW31783   7.220   9.789   2.010  0.1792 -0.1049  0.0771
43259SOL    HW131784   7.148   9.732   2.037 -1.4277  1.5458 -0.4875
43259SOL    HW231785   7.236   9.846   2.085 -0.5903  0.9146 -0.4999
43260SOL     OW31786   6.619   9.586   7.291 -0.0364 -0.2434  0.0960
43260SOL    HW131787   6.562   9.639   7.235  1.4022  1.4731  0.1563
43260SOL    HW231788   6.569   9.573   7.371 -0.0903  1.9388  0.4717
43261SOL     OW31789   4.263   9.206   5.497 -0.3472  0.4766  0.4306
43261SOL    HW131790   4.205   9.260   5.551  0.7060 -0.0829  2.2120
43261SOL    HW231791   4.344   9.258   5.489  0.5704 -0.6682  1.9233
43262SOL     OW31792   2.540   2.624   8.906  0.4271  0.1276  0.1448
43262SOL    HW131793   2.499   2.537   8.912  0.3487  0.2050  0.8365
43262SOL    HW231794   2.628   2.607   8.872  0.8301 -0.3679  1.3657
43263SOL     OW31795   1.029   2.658   6.061 -0.1107 -0.3606  0.5105
43263SOL    HW131796   1.113   2.613   6.071 -0.4966 -1.6845 -1.5788
43263SOL    HW231797   1.005   2.644   5.970 -2.9490 -0.6504  1.2107
43264SOL     OW31798   3.590  10.862   2.530  0.2310  0.3784  0.1844
43264SOL    HW131799   3.526  10.797   2.500  0.1148  1.2965 -1.6604
43264SOL    HW231800   3.537  10.938   2.554  0.4518  0.1842  1.3563
43265SOL     OW31801   1.434   1.094   1.801  0.3016 -0.2268 -0.5434
43265SOL    HW131802   1.347   1.053   1.798 -0.4881  0.9331  2.6094
43265SOL    HW231803   1.420   1.176   1.849  3.0732  0.2840 -0.4657
43266SOL     OW31804   6.652   4.914   0.011  0.6058 -0.1060  0.3878
43266SOL    HW131805   6.730   4.963   0.036  1.1415 -1.1261  0.7595
43266SOL    HW231806   6.579   4.973   0.030  1.3101  1.1739 -0.7379
43267SOL     OW31807   1.553   8.543   7.191  0.1687 -0.2537  0.1336
43267SOL    HW131808   1.565   8.501   7.106 -1.3002 -0.8580  0.1871
43267SOL    HW231809   1.493   8.616   7.173 -0.5255 -0.6717  0.7175
43268SOL     OW31810   2.113   7.395   5.988  0.2342 -0.0911  0.5180
43268SOL    HW131811   2.173   7.462   6.021 -0.7410  0.5716  0.9725
43268SOL    HW231812   2.073   7.434   5.911  1.0956 -0.9202 -0.3807
43269SOL     OW31813   8.592   4.547   5.725 -0.4464  0.1559 -0.0803
43269SOL    HW131814   8.526   4.477   5.721  0.4526 -0.7194 -0.1354
43269SOL    HW231815   8.672   4.507   5.690 -0.0997  1.4666 -0.8681
43270SOL     OW31816   8.302  10.882   6.000 -0.1201 -0.5477 -0.3672
43270SOL    HW131817   8.222  10.830   6.009 -0.5478 -0.0232 -0.9236
43270SOL    HW231818   8.333  10.861   5.912  0.2095 -0.5535 -0.2473
43271SOL     OW31819   1.977   9.758   3.423 -1.0467  0.3877  0.3376
43271SOL    HW131820   2.053   9.773   3.479 -0.7976 -0.7517  0.3198
43271SOL    HW231821   1.915   9.827   3.448  0.8138  2.7864 -1.2318
43272SOL     OW31822   7.741   5.089  11.212 -1.3614  0.1997  0.1589
43272SOL    HW131823   7.772   5.178  11.226  1.7398 -0.7755  0.2084
43272SOL    HW231824   7.714   5.059  11.299 -0.6937  0.5219  0.4833
43273SOL     OW31825   6.460   5.952   1.827 -0.7060 -0.3379  0.2281
43273SOL    HW131826   6.442   5.886   1.760 -1.2057 -0.5789  0.5946
43273SOL    HW231827   6.522   5.911   1.886 -0.5393 -0.2550  0.1099
43274SOL     OW31828  10.040   2.953   6.109  0.0841  0.0396  0.1984
43274SOL    HW131829  10.131   2.946   6.139  0.3421  0.2263 -0.5138
43274SOL    HW231830  10.006   2.864   6.118  1.0322 -0.5615 -1.6368
43275SOL     OW31831   3.266   9.314   9.646 -0.3535  0.7641 -0.3212
43275SOL    HW131832   3.313   9.382   9.695 -0.2259 -0.4830  1.3885
43275SOL    HW231833   3.196   9.286   9.705 -2.0011  1.1245 -2.0067
43276SOL     OW31834   0.258   8.450   8.264 -0.0478 -0.4858  0.3456
43276SOL    HW131835   0.300   8.386   8.321  0.6465  1.1861  1.7974
43276SOL    HW231836   0.257   8.408   8.178  0.6996 -2.2804  1.1592
43277SOL     OW31837   7.911   8.004   4.387  0.4110  0.6552 -0.0259
43277SOL    HW131838   7.997   8.037   4.361  1.4258 -0.5808  1.5565
43277SOL    HW231839   7.908   8.018   4.482 -1.0802  0.5207 -0.0303
43278SOL     OW31840   6.102   5.275   9.821  0.0863 -0.4010  0.0400
43278SOL    HW131841   6.087   5.213   9.750  2.2676 -0.8975 -0.0498
43278SOL    HW231842   6.186   5.316   9.800  0.2080  0.2857  1.7229
43279SOL     OW31843   9.654   2.737  10.064  0.1031  0.4388  0.8682
43279SOL    HW131844   9.714   2.689  10.006  1.2431  0.9432  1.5896
43279SOL    HW231845   9.567   2.706  10.039  0.3826  1.8391 -2.2593
43280SOL     OW31846  10.216   7.548   0.967  0.1824 -0.0553 -0.2293
43280SOL    HW131847  10.187   7.614   1.030  2.1410  2.5377 -1.8490
43280SOL    HW231848  10.307   7.530   0.990  0.2021 -0.8861 -0.8838
43281SOL     OW31849   3.302   6.990   0.559  0.2591  0.5186  0.0825
43281SOL    HW131850   3.222   6.940   0.569  0.9933 -0.2398  3.5146
43281SOL    HW231851   3.362   6.931   0.513  0.0876 -0.5788  1.2029
43282SOL     OW31852   9.634   4.014   4.096 -0.6836  0.0562 -0.4336
43282SOL    HW131853   9.550   3.998   4.053 -0.6394  0.0108 -0.5047
43282SOL    HW231854   9.629   3.967   4.178 -0.2290 -1.0379 -1.0155
43283SOL     OW31855   5.529   0.856   4.547 -0.1145  0.2521  0.4769
43283SOL    HW131856   5.603   0.841   4.488  0.5386  1.3201  0.9990
43283SOL    HW231857   5.467   0.908   4.496  1.0206  2.3201  1.0673
43284SOL     OW31858   8.565   3.368   0.387 -0.1317 -0.4921 -0.2335
43284SOL    HW131859   8.482   3.337   0.349 -0.0718  0.2995 -1.0395
43284SOL    HW231860   8.604   3.289   0.425 -2.0535 -0.5690  1.7289
43285SOL     OW31861   8.053   8.748   5.018  0.3908 -0.0903  0.1061
43285SOL    HW131862   8.050   8.842   5.037  0.7921 -0.0542  0.0009
43285SOL    HW231863   8.106   8.711   5.088  3.5870  0.3134 -1.8812
43286SOL     OW31864   4.489   2.175   1.019 -0.1833 -0.3483  0.5282
43286SOL    HW131865   4.581   2.165   1.042 -0.4174 -1.2578  1.1375
43286SOL    HW231866   4.469   2.267   1.038  0.7770  0.0569 -0.3456
43287SOL     OW31867   4.889   4.504   5.428 -0.3982  0.7063 -0.1432
43287SOL    HW131868   4.823   4.448   5.468 -2.0061  2.0014 -0.8958
43287SOL    HW231869   4.972   4.475   5.467 -1.4373 -0.6704  1.1355
43288SOL     OW31870   0.128  10.707   7.345  0.0935  1.0815  0.2417
43288SOL    HW131871   0.169  10.757   7.415  1.0667 -1.1452  1.3619
43288SOL    HW231872   0.123  10.618   7.378 -1.7246  0.4117 -1.5833
43289SOL     OW31873   4.681  10.847   0.002  0.4577 -0.0450  0.4579
43289SOL    HW131874   4.671  10.809   0.090  2.2235 -0.0299  0.7029
43289SOL    HW231875   4.685  10.771  -0.056  0.3018 -0.0944  0.5109
43290SOL     OW31876  10.370   6.173   5.372  0.1361  0.1796 -0.0801
43290SOL    HW131877  10.323   6.166   5.289  0.9757 -0.2452 -0.5240
43290SOL    HW231878  10.350   6.261   5.403  1.2131  1.0064 -1.5948
43291SOL     OW31879   4.287   4.142   6.013  0.3325  0.0961  0.1418
43291SOL    HW131880   4.200   4.133   6.053  0.3345 -1.3016 -0.1021
43291SOL    HW231881   4.273   4.202   5.940 -0.9019 -1.6306 -1.1186
43292SOL     OW31882   1.200   7.584   0.123 -0.4123  0.3243 -0.2692
43292SOL    HW131883   1.228   7.508   0.072 -0.8367  0.2311 -0.3595
43292SOL    HW231884   1.136   7.629   0.068  0.6449  1.3738 -0.6973
43293SOL     OW31885   5.474  10.735   2.937 -0.0251 -0.5534  0.2350
43293SOL    HW131886   5.452  10.816   2.984 -1.0733 -1.1371  0.8045
43293SOL    HW231887   5.476  10.760   2.845  0.8446  0.3594  0.4872
43294SOL     OW31888   8.881   6.145   9.658  0.0430  0.3464  0.7667
43294SOL    HW131889   8.949   6.163   9.594 -0.6480 -0.7295 -0.3082
43294SOL    HW231890   8.843   6.231   9.678 -0.6484  0.5849 -1.3422
43295SOL     OW31891   1.511   8.873   3.626  0.3592 -0.3970  0.0919
43295SOL    HW131892   1.448   8.928   3.672 -1.3504 -2.8780  0.9552
43295SOL    HW231893   1.584   8.864   3.686 -1.0330 -2.0604  1.6491
43296SOL     OW31894   3.378   5.357   8.999 -0.0104  0.6371  0.5502
43296SOL    HW131895   3.353   5.271   9.033  0.6770 -0.1910 -0.9420
43296SOL    HW231896   3.448   5.387   9.056  0.7680 -0.4869  0.2125
43297SOL     OW31897   3.446   5.845   6.316  0.1012 -0.3216  0.0562
43297SOL    HW131898   3.401   5.882   6.392  1.4503  0.1056  0.6781
43297SOL    HW231899   3.500   5.774   6.352  1.3972  0.4237 -0.3532
43298SOL     OW31900   3.222   2.313   8.071  0.3721  0.4962 -0.2756
43298SOL    HW131901   3.239   2.405   8.091 -1.6525  1.1422 -1.2044
43298SOL    HW231902   3.294   2.287   8.015  0.0865  2.0717 -1.4531
43299SOL     OW31903   1.131  11.238  10.970  0.5031 -0.2770 -0.3312
43299SOL    HW131904   1.110  11.330  10.981 -1.1188 -0.3729 -1.9217
43299SOL    HW231905   1.086  11.194  11.042  3.8730  0.3160  2.3718
43300SOL     OW31906   2.529   6.534   4.556  0.3766  0.2639 -0.4787
43300SOL    HW131907   2.511   6.463   4.495  3.9709 -1.4756  0.2570
43300SOL    HW231908   2.573   6.601   4.502  2.0430 -0.5572 -0.1959
43301SOL     OW31909   3.583   5.471   3.208 -0.3878 -0.2807  0.3993
43301SOL    HW131910   3.547   5.480   3.120  0.2504  2.6034  0.3184
43301SOL    HW231911   3.657   5.533   3.210  0.4821 -1.2873  2.5365
43302SOL     OW31912   0.813   4.435   0.985  0.6316  0.1811  0.4051
43302SOL    HW131913   0.906   4.423   0.967  0.9473 -2.0630  2.8656
43302SOL    HW231914   0.772   4.353   0.957 -0.1769  0.1818  1.5024
43303SOL     OW31915   8.892   1.622  10.674 -0.6507 -0.6842  0.2639
43303SOL    HW131916   8.826   1.612  10.742 -1.4484  0.5194 -0.3022
43303SOL    HW231917   8.862   1.564  10.603 -1.5907  0.5041 -0.3334
43304SOL     OW31918  10.155   4.229   6.302  0.5947 -0.0602  0.2839
43304SOL    HW131919  10.216   4.235   6.376 -1.3209  1.8642  1.8732
43304SOL    HW231920  10.091   4.163   6.329 -0.7085  1.3905  0.9263
43305SOL     OW31921   1.128  10.021   5.112  0.3504  0.6220  0.0673
43305SOL    HW131922   1.036  10.014   5.087  0.5855 -0.4711 -0.5958
43305SOL    HW231923   1.156  10.105   5.076 -0.3488  0.8939  0.1428
43306SOL     OW31924   6.875   2.851   6.166  0.2118  0.3594 -0.7159
43306SOL    HW131925   6.907   2.768   6.130  0.9627 -0.2981  1.3360
43306SOL    HW231926   6.780   2.847   6.154  0.1791 -1.0528 -0.2002
43307SOL     OW31927   3.513   0.233   4.237  0.9364  0.1423 -0.0344
43307SOL    HW131928   3.489   0.159   4.182  0.8206  1.1448 -1.3726
43307SOL    HW231929   3.609   0.236   4.233  0.9096  0.4332 -0.4849
43308SOL     OW31930   8.221   1.417   5.957  0.7581  0.4619  0.2084
43308SOL    HW131931   8.206   1.374   6.041  2.9066  2.0431  1.4985
43308SOL    HW231932   8.317   1.420   5.949  0.6139  1.6134 -1.6222
43309SOL     OW31933   8.820   5.482   2.769  0.1365 -0.0097 -0.5203
43309SOL    HW131934   8.914   5.467   2.757  0.2144  0.2372 -0.2285
43309SOL    HW231935   8.814   5.540   2.845 -0.0809  2.1376 -2.0642
43310NA      NA31936   0.917   1.225   5.032  0.5465  0.1895  0.0941
43311NA      NA31937   5.265   4.320   6.506  0.4713 -0.0422 -0.5832
43312NA      NA31938  10.224   3.608  10.203 -0.6139  0.0049  0.2081
43313NA      NA31939   4.963   2.152   2.316 -0.3365  0.5728  0.1656
43314NA      NA31940   4.399   0.499  11.001 -0.0953  0.2443 -0.4176
43315NA      NA31941   2.542   3.304   9.637  0.4276 -0.3792 -0.1624
43316NA      NA31942   1.907  11.172   1.425 -0.3211  0.1595  0.3617
43317NA      NA31943   7.776   0.363   3.479 -0.1222 -0.7326  0.4316
43318NA      NA31944   5.273   7.949   4.665 -0.3795 -0.1011 -0.5638
43319NA      NA31945   1.218   7.050   6.088  0.1208 -0.2111 -0.0231
43320NA      NA31946  10.769   5.641   4.204 -0.7055  0.2672 -1.0513
43321NA      NA31947   6.480   9.389   9.299 -0.4422  0.1083  0.7183
43322NA      NA31948   5.673   8.683  11.050  0.0599 -0.6329 -0.2961
43323NA      NA31949   5.037   5.490   3.058  0.2841  0.4326  0.3485
43324NA      NA31950   3.885   9.870   5.627  0.5359  0.1498 -0.6261
43325NA      NA31951  10.014   7.593   9.271 -0.2367  0.4679 -0.2799
43326NA      NA31952   7.818  11.283  10.105 -0.3785 -0.5981 -0.0660
43327NA      NA31953   0.956   3.065   5.705  0.3057 -0.2731  0.6102
43328NA      NA31954   4.910   7.782   4.231 -0.2950 -0.0734  0.6890
43329NA      NA31955   2.569   2.672  10.981 -0.4623 -0.2745  0.4056
43330NA      NA31956   5.905   6.826   5.798  0.0739  0.4515  0.5287
43331NA      NA31957   0.073   3.312   0.464 -0.0673  0.5959  0.3797
43332NA      NA31958   4.794   1.939  10.679 -0.1953  0.0630  0.1249
43333NA      NA31959   4.107   4.175   1.814  0.5320  0.3993  0.1101
43334NA      NA31960   3.703   7.271   9.377 -0.0136 -0.0623 -0.2231
43335NA      NA31961   4.552   7.942   5.316 -0.5416  0.9029  0.2880
43336NA      NA31962   8.533   2.326   7.987 -0.3223 -0.0618 -0.1231
43337NA      NA31963   8.138   5.857   0.504  0.1281  0.5751 -0.2425
43338NA      NA31964   9.472   5.353  10.072  0.1360  0.3425  0.0521
43339NA      NA31965   1.821   3.453   2.547 -0.0388 -0.4378 -0.0502
43340NA      NA31966   6.409  11.227   9.916  0.1376  0.5529  0.3689
43341NA      NA31967   7.745   3.889   6.762 -0.0062 -0.0350 -0.1405
43342NA      NA31968   6.151   6.252   5.631 -0.2696 -0.0668  0.3893
43343NA      NA31969   5.406   6.181   7.140 -0.1410  0.1827 -0.8022
43344NA      NA31970   3.649   9.689   4.348 -0.2869  0.0999  0.6159
43345NA      NA31971   8.139  10.647   5.401 -0.1554  0.1087 -0.2034
43346NA      NA31972   8.088   5.675   8.912  0.0115 -0.3452  0.1458
43347NA      NA31973   9.262   9.640   0.879 -0.0254  0.1777  0.0920
43348NA      NA31974  10.519   2.439   5.443 -0.2741  0.0626  0.0368
43349NA      NA31975   6.574   8.309   4.541  0.1205  0.7637 -0.0657
43350NA      NA31976   5.474   8.269   6.706 -0.2060  0.2835  0.1018
43351NA      NA31977   9.897   5.255   1.371 -0.1468  0.1822  0.7024
43352NA      NA31978   0.927   9.301   4.756  0.0205  0.2583  0.0753
43353NA      NA31979   8.776   6.428  10.243 -0.0322  0.3510  0.2365
43354NA      NA31980   7.021   3.773   5.731 -0.0028 -0.4676  0.2903
43355NA      NA31981   1.267   3.870   4.400 -0.0210 -0.7422 -0.6259
43356NA      NA31982  10.818   2.275  11.150  0.1532  0.2223 -0.4288
43357NA      NA31983   1.187   5.348   0.394 -0.1640 -0.3318  0.5418
43358NA      NA31984   1.248  10.631   2.413  0.0549  0.3534  0.2027
43359NA      NA31985   6.101  10.579   0.935  0.3844 -0.1461 -0.6604
43360NA      NA31986   4.673   6.589  11.262  0.0903  0.1766  0.1529
43361NA      NA31987   9.984   3.487   7.681  0.3264 -0.1540 -0.0986
43362NA      NA31988   5.066   2.549   1.415 -0.0853  0.3120 -0.0870
43363NA      NA31989   6.609  10.891   0.019  0.0023 -0.3322  0.0163
43364NA      NA31990   0.872   6.500   9.328  0.0232 -0.3138  0.2667
43365NA      NA31991   6.932   6.300   6.395 -0.0779 -0.1336 -0.2093
43366NA      NA31992   7.324   5.982   5.536  0.1536  0.0250  0.1544
43367NA      NA31993   9.056   0.027   8.772 -0.3612 -0.3557 -0.2895
43368NA      NA31994   3.546   7.220   5.568 -0.0383  0.1819 -0.3036
43369NA      NA31995   8.132   6.001   8.470  0.2435  0.4956 -0.1888
43370NA      NA31996   5.643   6.851   7.011  0.8610 -0.1057  0.3206
43371NA      NA31997   5.422   8.484   2.812 -0.5649  0.7847 -0.0062
43372NA      NA31998   7.355   6.873   4.910 -0.1731 -0.0803 -0.1301
43373NA      NA31999   4.425  10.482   8.317 -0.0733  0.3736 -0.2556
43374NA      NA32000   5.264   8.258   1.923 -0.1439  0.0290  0.5541
43375NA      NA32001   5.929   5.983   7.174 -0.1598  0.1028 -0.3803
43376NA      NA32002   5.927   1.233   1.882 -0.1781  0.3708  0.0073
43377NA      NA32003   9.075   1.881   3.102 -0.3843 -0.0942  0.4768
43378NA      NA32004   5.337   5.857   8.169 -0.1447  0.9449  0.0236
43379NA      NA32005   9.204   9.601   4.074 -0.3716 -0.3701  0.0757
43380NA      NA32006   5.661   1.844   3.477  0.0772 -0.1862 -0.5740
43381NA      NA32007   7.100   2.736   8.846 -1.1313  0.2841 -0.3701
43382NA      NA32008   7.572   7.233   5.902  0.1348  0.2909 -0.4486
43383NA      NA32009   9.940   9.517  11.132  0.4951  0.3754  0.6630
43384NA      NA32010   7.518   6.331   7.419 -0.5206 -0.7415  0.2206
43385NA      NA32011   1.724   8.501   4.823 -0.1186  0.4952 -0.2462
43386NA      NA32012   4.126   4.759   5.815 -0.1251 -0.1368  0.3927
43387NA      NA32013   4.354   0.643   6.707  0.1252  0.0579 -0.0666
43388NA      NA32014   9.169   8.087   7.156 -0.4878 -0.2915  0.1732
43389NA      NA32015   2.514   8.821   8.220 -0.8153 -0.5568  0.2462
43390NA      NA32016   2.436   1.399   6.807  0.3276  0.1072 -0.7086
43391NA      NA32017  10.260  10.331   3.735 -0.0921 -0.4142  0.0994
43392NA      NA32018   5.012   5.405   2.484 -0.7527 -0.6983 -0.4806
43393NA      NA32019   3.627   6.518   5.615  0.1051 -0.5662  0.6873
43394NA      NA32020  10.766   9.670   2.438  0.7749 -0.5832 -0.0094
43395NA      NA32021   8.557   0.543   8.933 -0.6347  0.3481 -0.1079
43396NA      NA32022   5.750   6.248   5.506 -0.0524  0.3608 -0.2493
43397NA      NA32023   5.546   6.368   0.052 -0.2260 -0.4025 -0.4754
43398NA      NA32024   2.125   3.076   4.036  0.1362  0.6214 -0.1745
43399NA      NA32025   7.494   8.834   9.283  0.3678  0.2708  0.3375
43400NA      NA32026  10.884   0.365   2.750 -0.0554 -0.5165 -0.1002
43401NA      NA32027   2.613   8.859   3.662 -0.2079 -0.3451 -0.2663
43402NA      NA32028   7.913   5.635   7.195  0.4434  0.1195  0.3404
43403NA      NA32029   4.754   0.395   4.168 -0.0851 -0.1770  0.0774
43404NA      NA32030   7.595   7.406   7.884  0.3341  0.4262 -0.8883
43405NA      NA32031   0.754  10.643   3.293  0.0875 -0.2709  0.9062
43406NA      NA32032   6.287   5.814  10.246  0.1376 -0.1336 -0.6196
43407NA      NA32033   4.708   8.466  10.837  0.2514 -0.2711 -0.2982
43408NA      NA32034   5.473   7.725  10.699  0.2615  0.3705  0.0616
43409NA      NA32035   5.657   5.529   5.681 -0.2002  0.0853  0.2483
43410NA      NA32036   0.512   7.432   8.378 -0.6725 -0.2875  0.3144
43411NA      NA32037   5.179   8.523   6.223 -0.0670  0.3296  0.2681
43412NA      NA32038   2.055   3.974   7.285 -0.1072  0.2111  0.3345
43413NA      NA32039   7.493   1.216   2.365 -0.6760  0.1709 -0.2410
43414NA      NA32040  10.163   7.613   6.378  0.0850  0.2810  0.3734
43415NA      NA32041   2.211   5.330   3.779 -0.1312 -0.3686  0.3953
43416NA      NA32042   1.142   6.692   3.801  0.0510 -0.1307 -0.4268
43417NA      NA32043   6.422   3.733   2.531  0.5419 -0.8636  0.7951
43418NA      NA32044   2.806   8.954   0.060 -0.7312 -0.3814  0.0600
43419NA      NA32045   4.703   5.373   4.379 -0.4766 -0.1408  0.0981
43420NA      NA32046   5.584   8.142   5.144 -0.1340 -0.2880  0.0899
43421NA      NA32047  10.354   6.876   0.790  0.1823  0.4651  0.0925
43422NA      NA32048   0.980   7.980   3.705 -0.2329 -0.0902 -0.7345
43423NA      NA32049   7.332   7.181   7.488 -0.2457 -0.2664  0.2559
43424NA      NA32050   3.356   7.859   0.581 -0.3129 -0.0349  0.6089
43425NA      NA32051   6.603   6.626   7.700  0.1321 -0.3108 -0.1126
43426NA      NA32052   8.845   5.885   6.327 -0.0531 -0.4935  0.0513
43427NA      NA32053   1.696   5.303   8.622  0.1319  1.1608  0.6310
43428NA      NA32054   2.580   6.402   6.673  0.9408 -0.3718  0.2846
43429NA      NA32055   8.578   8.092   8.835 -0.2441 -0.1143 -0.0237
43430NA      NA32056   8.779   9.158   1.505 -0.8079  0.2989 -0.6001
43431NA      NA32057   6.408   4.795   6.876  0.1264 -0.3887  0.0707
43432NA      NA32058   0.191   9.479   8.110 -0.4902 -0.3394  0.4470
43433NA      NA32059   1.277   6.382   0.826 -0.3291 -0.4699  0.5625
43434NA      NA32060   5.590   7.953   6.136 -0.0916  0.3496  0.9369
43435NA      NA32061   7.307  11.257   7.097 -0.2267  0.3466  0.4545
43436NA      NA32062   7.629   7.374   7.534  0.3574  0.2103  0.1981
43437NA      NA32063   3.762   1.416   2.684  0.2746 -0.3162  0.0643
43438NA      NA32064   5.796   8.534   5.873 -0.0120  0.2503 -0.2564
43439NA      NA32065   5.764   7.983   5.630 -0.1213  0.2441  0.0587
43440NA      NA32066   7.480   7.419   9.741  0.3127  0.1605  0.2434
43441NA      NA32067   5.719   3.637   7.331  0.1771  0.1001 -0.1279
43442NA      NA32068   9.409   5.287   2.842  0.1899  0.1820 -0.1130
43443NA      NA32069   4.857   6.718   6.073 -0.0021 -0.3922 -0.3191
43444NA      NA32070   9.255   9.977   8.026 -0.1557  0.1045 -0.2624
43445NA      NA32071   6.684   2.902   4.288  0.3664 -0.3291 -0.3810
43446NA      NA32072   4.836   5.718   5.713  0.2844  0.6980 -0.3808
43447NA      NA32073   9.448   7.226   1.310 -0.3417 -0.0214  0.0793
43448NA      NA32074   1.168   3.621   5.241 -0.1474 -0.6991 -0.4855
43449NA      NA32075   6.764   7.464   6.546 -0.0220  0.0721  0.1384
43450NA      NA32076  10.929   5.674   1.163 -0.2738 -0.2923 -0.2497
43451NA      NA32077   6.631   2.903   7.865 -0.0135  0.0031 -0.4784
43452NA      NA32078   8.836   1.662  10.105  0.5539 -0.0851 -0.1198
43453NA      NA32079   5.439   7.320   6.860 -0.0568  0.6183 -0.1343
43454NA      NA32080   2.560   6.656   8.211 -0.3896  0.0768 -0.4652
43455NA      NA32081   6.826  11.130   2.137 -0.1964 -0.5574 -0.3901
43456NA      NA32082  10.308   6.427   1.508  0.2129  0.9779  0.1418
43457NA      NA32083   7.420   7.817   3.320  0.3729  0.0014 -0.5005
43458NA      NA32084   5.689   3.100  10.382  0.6408  0.0218 -0.8313
43459NA      NA32085   4.727   7.638   7.178  0.4664 -0.1717  0.8992
43460NA      NA32086   4.686   4.766   5.261  0.1577 -0.6174  0.0701
43461NA      NA32087  10.090   8.438   4.371 -0.5120 -0.1256  0.1609
43462NA      NA32088   3.993   7.280   6.151  0.2940  0.2947 -0.0288
43463NA      NA32089   3.332   4.766   4.596  0.1718  0.5211  0.0104
43464NA      NA32090   6.437   9.616   5.494  0.9875  0.1010  0.1856
43465NA      NA32091   3.800   5.960   5.655 -0.4097  0.3446  0.4046
43466NA      NA32092   8.954   7.421  10.980 -0.0327 -0.0954 -0.5306
43467NA      NA32093  11.197   4.855   1.064  0.2184 -0.0195  0.4919
43468NA      NA32094   4.622   6.891   4.881 -0.1385 -0.3761 -0.7635
43469NA      NA32095   5.413   7.123   7.951  0.2162 -0.4685 -0.4375
43470NA      NA32096   7.045   5.571   7.249 -0.6403  0.0194  0.0011
43471NA      NA32097   8.302   1.388   2.004  0.1274  0.0663 -0.3808
43472NA      NA32098   3.605   8.710   5.577 -0.4022 -0.5772  0.5543
43473NA      NA32099   4.198   7.308   8.129  0.4345  0.0233 -0.6764
43474NA      NA32100   7.205   7.684   8.577  0.1336  0.0081  0.1233
43475NA      NA32101   7.179   6.061   9.499 -0.2532 -0.0360 -0.2133
43476NA      NA32102   1.151   9.000   3.224  0.3116  0.2016  0.3839
43477NA      NA32103   3.106  10.019   4.926 -0.7674 -0.3700  0.0587
43478NA      NA32104   8.420   7.602   8.417 -0.5560 -0.2813  0.0775
43479NA      NA32105   6.463   6.029   7.826 -0.3077 -0.5212 -0.2687
43480NA      NA32106   3.406   9.265   9.456 -0.0408 -0.1393 -0.4456
43481NA      NA32107   7.903   9.475   8.108  0.0880  0.2619 -0.1736
43482NA      NA32108   7.355   7.067   8.622  0.1734 -0.3964 -0.1287
43483NA      NA32109   4.291   7.011   5.781  0.0854 -0.3689  0.5175
43484NA      NA32110   3.871   9.591   8.005  0.1840  0.2167  0.3756
43485NA      NA32111   6.500   8.565   7.281  0.2935 -0.2398 -0.0991
43486NA      NA32112   5.876   7.251   6.515  0.1696  0.1406 -0.3710
43487NA      NA32113   5.964   0.419   1.758  0.7558  0.2387 -0.0762
43488NA      NA32114   4.720   6.217   6.066  0.4256 -0.6250  0.0118
43489NA      NA32115   1.128   3.491   3.161 -0.6751  0.2431  0.5563
43490NA      NA32116   6.374   4.655   8.692 -0.1391  0.1323 -0.3174
43491NA      NA32117   6.792   6.650   1.768 -0.4224  0.1287  0.0232
43492NA      NA32118   7.064   7.168   6.979  0.5061 -0.1697 -0.4967
43493NA      NA32119   9.848   1.411   6.383  0.2625  0.0105 -0.2363
43494NA      NA32120   1.798   9.499   5.507  0.1856  0.2242  0.0837
43495NA      NA32121   1.432   2.473   1.170 -0.0026  0.4453 -0.5361
43496NA      NA32122   5.641   6.035   7.686  0.4100  0.0403  0.5469
43497NA      NA32123   1.462   0.996   5.700 -0.2296  0.4506 -0.2314
43498NA      NA32124   1.708   7.709   1.458  0.1044 -0.0009 -0.1700
43499NA      NA32125   3.068   1.041   8.514 -0.6569  0.2569  0.1347
43500NA      NA32126   5.392   7.641   7.273 -0.2218 -0.2667 -0.6112
43501NA      NA32127  10.415   5.675   5.802  0.8116  0.3926  0.4804
43502NA      NA32128   8.175   9.590   2.718  0.2880 -0.6570 -0.2817
43503NA      NA32129   5.755   6.679   8.053  0.3246  0.1415 -0.1985
43504CL      CL32130   8.075   2.704   6.261 -0.2366  0.1123 -0.3449
43505CL      CL32131   9.744   2.039   8.765 -0.0528  0.8534 -0.2051
43506CL      CL32132   3.009   3.440   6.018  0.0544 -0.1974  0.1590
43507CL      CL32133   4.104   8.512  10.677 -0.0064  0.0548 -0.2894
43508CL      CL32134  10.616   1.924   3.865  0.1400 -0.4271  0.0468
43509CL      CL32135   9.799   5.789   0.674 -0.1670  0.3555 -0.3131
43510CL      CL32136  10.521   1.926   5.575  0.1563 -0.0791 -0.2715
43511CL      CL32137   8.394   7.104   5.002 -0.1829  0.4126  0.2706
43512CL      CL32138   8.003   8.325   3.725  0.3092  0.4942  0.0227
43513CL      CL32139   1.746   8.259   7.791  0.3552  0.3880 -0.1864
43514CL      CL32140   2.508   3.290   0.391 -0.1047  0.1532 -0.3241
43515CL      CL32141   0.912   5.557   4.173  0.4175 -0.0282 -0.2749
43516CL      CL32142   0.490   1.050   4.636 -0.0507 -0.2823  0.0377
43517CL      CL32143   8.366   3.500   4.898  0.6133 -0.0206 -0.1385
43518CL      CL32144   5.743   0.547   1.797  0.1452 -0.6480 -0.1620
43519CL      CL32145   2.111   0.686   6.481  0.2676  0.0271  0.0114
43520CL      CL32146   5.806   4.015   5.883 -0.1065  0.3324  0.0445
43521CL      CL32147   0.299   7.325   6.046  0.3045  0.1299 -0.0400
43522CL      CL32148   7.442   3.001   6.658 -0.2875 -0.2327  0.1611
43523CL      CL32149  10.323  10.856  10.434  0.4589 -0.3197  0.0272
43524CL      CL32150   4.698   8.257   2.907 -0.2419  0.0629 -0.2214
43525CL      CL32151   8.867   8.059   4.270 -0.1078 -0.0914  0.3865
43526CL      CL32152   2.130   3.934   2.062 -0.0219 -0.3511  0.2044
43527CL      CL32153   6.065   1.304  10.689  0.0628  0.2697  0.4682
43528CL      CL32154   2.007   0.488   4.734 -0.2119 -0.7377  0.1310
43529CL      CL32155   8.898   0.563   0.676 -0.4214 -0.1980 -0.0680
43530CL      CL32156   5.152   1.673   3.646 -0.1516 -0.1809  0.2085
43531CL      CL32157   1.161  10.174   2.903  0.2261 -0.5408  0.3863
43532CL      CL32158   0.598   8.460   4.359 -0.6449 -0.3573 -0.0430
43533CL      CL32159   3.090   9.158   6.954  0.1858 -0.2572 -0.1741
43534CL      CL32160   6.804   6.215  11.261 -0.0943 -0.0537  0.0576
43535CL      CL32161   6.205   0.048   1.776  0.4719  0.1519 -0.2334
43536CL      CL32162   1.625   6.955   2.323  0.0170  0.0818  0.0943
43537CL      CL32163  10.567   8.894   7.929 -0.5028 -0.2762 -0.1389
43538CL      CL32164   4.833   4.551   4.306 -0.0211  0.3663 -0.1535
43539CL      CL32165   1.544   5.891   5.448  0.0303 -0.0348  0.3300
43540CL      CL32166   4.832   2.507   1.545 -0.3440 -0.2775 -0.5583
43541CL      CL32167   3.597  10.382   0.215  0.0447 -0.1097  0.2367
43542CL      CL32168   6.153  11.144   9.303  0.0713 -0.1338 -0.3877
43543CL      CL32169   8.080   3.515   9.449 -0.2692  1.0004 -0.1089
43544CL      CL32170   3.813  10.003   9.317 -0.1512  0.2738 -0.2944
43545CL      CL32171   1.973   9.197   9.228 -0.0654  0.1571  0.0867
43546CL      CL32172   0.765   2.171   2.645  0.0541 -0.2558  0.3560
43547CL      CL32173   3.510  10.817   5.663  0.1488 -0.5009  0.0035
43548CL      CL32174   9.192   9.817   6.599 -0.2796 -0.0822 -0.1159
43549CL      CL32175   9.425   6.389   1.139  0.3934  0.4375 -0.3907
43550CL      CL32176   9.906   8.864   3.941 -0.0542 -0.0174  0.1853
43551CL      CL32177   7.479   7.279   1.207 -0.3569  0.3053  0.4252
43552CL      CL32178   6.162   5.350   8.465 -0.3269 -0.4987  0.5922
43553CL      CL32179   8.242  10.876   9.987 -0.6933 -0.1448  0.0801
43554CL      CL32180   9.499   1.642   1.547  0.1992  0.0399  0.2024
43555CL      CL32181   2.214   2.486   3.401  0.2912  0.4687  0.6086
43556CL      CL32182   6.184   0.523   0.538 -0.1353  0.1541  0.4905
43557CL      CL32183   6.711   2.659   8.494  0.1088  0.1748  0.9289
43558CL      CL32184   3.546   7.764   3.066  0.1193 -0.1132 -0.2258
43559CL      CL32185   4.937   5.457   5.342 -0.1999  0.2295 -0.0407
43560CL      CL32186   4.648   3.584   4.457 -0.0148  0.1304  0.1468
43561CL      CL32187  10.562   6.675   1.880 -0.2128  0.0570  0.0743
43562CL      CL32188   5.081   7.377   1.888  0.2679 -0.0253  0.2608
43563CL      CL32189   9.324  10.606   1.202 -0.0538  0.2339  0.8252
43564CL      CL32190   8.001   3.108   0.012 -0.0880  0.6378 -0.2559
43565CL      CL32191   6.037   3.511   2.546  0.1963  0.0232 -0.0574
43566CL      CL32192   2.879   4.515   7.549 -0.3669 -0.3201  0.0167
43567CL      CL32193   3.312   9.410   4.135  0.1872 -0.3065  0.0719
43568CL      CL32194   0.038   5.687  10.630  0.2016  0.1622 -0.3264
43569CL      CL32195   8.165  10.667   4.097 -0.0363  0.2542 -0.3045
43570CL      CL32196   1.926   2.738   7.672 -0.2553  0.4136 -0.0949
43571CL      CL32197   3.783   1.743  10.609  0.1176 -0.3936 -0.0535
43572CL      CL32198   3.232   8.392   6.249 -0.3535 -0.1898  0.1093
43573CL      CL32199  10.469   7.968   5.541  0.0689 -0.0004 -0.5634
43574CL      CL32200  11.108   7.570  10.974 -0.2566  0.1757  0.0421
43575CL      CL32201   1.892   9.971   1.349  0.1611 -0.1085  0.0454
43576CL      CL32202  10.797   9.032   1.800 -0.2387  0.0832 -0.1475
43577CL      CL32203   9.478   4.468   3.781 -0.2071 -0.0281 -0.2187
43578CL      CL32204   2.125   6.455   4.747 -0.1201  0.1793  0.1990
43579CL      CL32205   8.940  11.087  11.091  0.0608  0.1592  0.0840
43580CL      CL32206   0.030   7.578   8.310 -0.1185  0.0657 -0.3201
43581CL      CL32207   6.689   4.545   8.331 -0.2371  0.2019 -0.1859
43582CL      CL32208   3.688   9.048   3.990  0.1930  0.4859 -0.0632
43583CL      CL32209   6.574   8.518   3.524  0.6742 -0.4470  0.2137
43584CL      CL32210  10.486   2.753   6.960  0.2364 -0.2524  0.0900
43585CL      CL32211   0.306   0.365   1.772 -0.2090 -0.0869 -0.0659
43586CL      CL32212   4.564   1.911   7.592  0.0061  0.7240  0.2910
43587CL      CL32213   3.711  10.496   5.391 -0.2003  0.0472  0.4142
43588CL      CL32214   9.309   4.656  10.598 -0.0685  0.1488 -0.1423
43589CL      CL32215   7.530   0.778   2.021 -0.0498 -0.0444 -0.1986
43590CL      CL32216   3.512   4.799   4.377  0.0835 -0.1799  0.1932
43591CL      CL32217   8.193   0.534   7.772  0.1104  0.4581 -0.1813
43592CL      CL32218   8.586  10.392   3.362  0.4154 -0.3962 -0.0426
43593CL      CL32219   2.164   6.506   8.137 -0.2767 -0.0427  0.1606
43594CL      CL32220   7.979   1.378   3.062 -0.0956 -0.2097  0.3177
43595CL      CL32221   2.674  11.044   8.597  0.0907 -0.1169 -0.0250
43596CL      CL32222   8.317  10.087   2.023  0.0479 -0.1873 -0.2302
43597CL      CL32223  10.544   3.564   6.987 -0.0026  0.2109 -0.0727
43598CL      CL32224   7.237   5.726   5.189 -0.2448 -0.3294 -0.2228
43599CL      CL32225   2.506   2.012  10.475 -0.5937 -0.0660 -0.3114
43600CL      CL32226   4.199   4.566   5.622  0.1795  0.1303 -0.2521
43601CL      CL32227   9.876   8.215   6.574  0.0635 -0.0256  0.0784
43602CL      CL32228   8.470   2.983   1.852  0.0952 -0.1913  0.3036
43603CL      CL32229   3.402   2.554   7.983  0.1024 -0.3902  0.2862
43604CL      CL32230   6.679  11.020   7.716  0.1313  0.3376 -0.1111
43605CL      CL32231   4.936   2.511   6.084 -0.1182  0.3841  0.4856
43606CL      CL32232   5.407   1.142   7.924  0.1902 -0.1038 -0.3909
43607CL      CL32233   9.776   1.711   5.583  0.0716  0.1347 -0.4740
43608CL      CL32234  11.162   3.879   6.450 -0.2451 -0.5060 -0.0874
43609CL      CL32235   5.713   1.112   1.770  0.2127  0.6618 -0.1550
43610CL      CL32236   3.265   1.981   3.643 -0.2016  0.2977 -0.1619
43611CL      CL32237   5.344   3.415  10.821 -0.0729  0.1411  0.1254
43612CL      CL32238   1.097  10.902   3.938  0.0492  0.1551 -0.0863
43613CL      CL32239  10.570   5.751   1.590 -0.5562  0.2268  0.2685
43614CL      CL32240  10.352   8.357   2.135  0.2968  0.2663  0.5081
43615CL      CL32241   9.803   3.409  10.192  0.3956 -0.0234 -0.2029
43616CL      CL32242   4.661   3.132   6.718  0.2774 -0.1320  0.0882
43617CL      CL32243   0.695   9.144   4.747  0.1745  0.1061 -0.4370
43618CL      CL32244   2.840   3.744  11.090  0.1929 -0.1010  0.3339
43619CL      CL32245   5.958   8.760  11.005  0.1502 -0.2093 -0.5238
43620CL      CL32246   4.324   9.133   9.119 -0.2794 -0.0857 -0.1402
43621CL      CL32247   7.192   1.217  10.646  0.1388 -0.3893 -0.3797
43622CL      CL32248   5.152   0.504   5.872  0.0687 -0.7364 -0.1656
43623CL      CL32249   0.431  10.180   1.195  0.1977  0.0268 -0.1740
43624CL      CL32250   0.320   0.461  11.017 -0.1497  0.2121  0.2943
43625CL      CL32251   0.876   0.142   2.926 -0.2284 -0.3313  0.1168
43626CL      CL32252   3.188   9.213   2.685 -0.5028  0.0955  0.0799
43627CL      CL32253   6.788   3.619   7.404 -0.4230  0.6083  0.2665
  11.28605  11.28605  11.28605
